Protein in INSANE! Membrane UpperLeaflet>POPC=1.0 LowerLeaflet>POPC=1.0
248675
    1AU     AUC    1  38.170   8.360   7.525
    1AU     AUC    2  38.426   8.356   7.359
    1AU     AUC    3  38.418   8.365   7.697
    1AU     AUC    4  37.899   8.347   7.366
    1AU     AUC    5  37.919   8.402   7.693
    1AU     AUC    6  38.006   8.617   7.486
    1AU     AUC    7  38.346   8.625   7.494
    1AU     AUC    8  37.999   8.101   7.551
    1AU     AUC    9  38.331   8.090   7.550
    1AU     AUC   10  38.167   8.219   7.805
    1AU     AUC   11  38.177   8.562   7.765
    1AU     AUC   12  38.171   8.170   7.276
    1AU     AUC   13  38.182   8.483   7.249
    1AU     AUC   14  38.739   8.341   7.201
    1AU     AUC   15  38.735   8.338   7.548
    1AU     AUC   16  38.703   8.353   7.897
    1AU     AUC   17  37.597   8.304   7.226
    1AU     AUC   18  37.595   8.387   7.550
    1AU     AUC   19  37.623   8.451   7.873
    1AU     AUC   20  37.837   8.916   7.423
    1AU     AUC   21  38.191   8.913   7.414
    1AU     AUC   22  38.529   8.898   7.462
    1AU     AUC   23  37.810   7.815   7.574
    1AU     AUC   24  38.157   7.797   7.557
    1AU     AUC   25  38.507   7.793   7.569
    1AU     AUC   26  38.140   8.066   8.111
    1AU     AUC   27  38.160   8.421   8.088
    1AU     AUC   28  38.207   8.780   8.037
    1AU     AUC   29  38.209   7.978   7.000
    1AU     AUC   30  38.163   8.305   6.948
    1AU     AUC   31  38.153   8.626   6.937
    1AU     AUC   32  38.410   8.191   8.016
    1AU     AUC   33  38.465   8.555   7.975
    1AU     AUC   34  38.482   8.190   7.062
    1AU     AUC   35  38.445   8.500   7.062
    1AU     AUC   36  37.876   8.281   8.006
    1AU     AUC   37  37.911   8.633   7.950
    1AU     AUC   38  37.892   8.125   7.106
    1AU     AUC   39  37.851   8.434   7.058
    1AU     AUC   40  38.651   8.613   7.338
    1AU     AUC   41  38.621   8.628   7.678
    1AU     AUC   42  37.701   8.620   7.348
    1AU     AUC   43  37.742   8.711   7.672
    1AU     AUC   44  38.634   8.076   7.400
    1AU     AUC   45  38.583   8.049   7.748
    1AU     AUC   46  37.706   8.042   7.403
    1AU     AUC   47  37.732   8.131   7.735
    1AU     AUC   48  38.050   8.868   7.741
    1AU     AUC   49  38.381   8.842   7.758
    1AU     AUC   50  37.981   7.939   7.841
    1AU     AUC   51  38.291   7.890   7.831
    1AU     AUC   52  37.978   8.766   7.176
    1AU     AUC   53  38.335   8.790   7.182
    1AU     AUC   54  38.015   7.880   7.277
    1AU     AUC   55  38.387   7.921   7.277
    1AU    AUSL   56  38.668   8.307   8.293
    1AU    AUSL   57  38.421   7.909   8.233
    1AU     AUL   58  38.729   7.958   8.414
    1AU    AUSL   59  38.261   8.249   8.430
    1AU    AUSL   60  38.016   8.632   8.409
    1AU     AUL   61  38.256   8.565   8.688
    1AU    AUSL   62  38.361   8.601   8.179
    1AU    AUSL   63  38.808   8.653   8.089
    1AU     AUL   64  38.652   8.625   8.433
    1AU    AUSL   65  38.635   8.381   6.820
    1AU    AUSL   66  38.516   8.788   6.891
    1AU     AUL   67  38.786   8.712   6.671
    1AU    AUSL   68  38.428   8.076   6.613
    1AU    AUSL   69  38.918   8.129   7.003
    1AU     AUL   70  38.823   8.215   6.634
    1AU    AUSL   71  38.244   8.505   6.711
    1AU    AUSL   72  38.061   8.115   6.812
    1AU     AUL   73  38.159   8.165   6.480
    1AU    AUSL   74  37.629   8.575   8.208
    1AU    AUSL   75  37.949   8.888   8.082
    1AU     AUL   76  37.785   8.873   8.414
    1AU    AUSL   77  37.922   8.271   8.186
    1AU    AUSL   78  37.508   8.151   8.140
    1AU     AUL   79  37.439   8.369   8.297
    1AU    AUSL   80  37.634   8.111   6.814
    1AU    AUSL   81  37.870   7.789   6.995
    1AU     AUL   82  37.914   7.806   6.667
    1AU    AUSL   83  37.825   8.458   6.653
    1AU    AUSL   84  37.519   8.474   7.017
    1AU     AUL   85  37.407   8.314   6.759
    1AU    AUSL   86  38.980   8.828   7.456
    1AU    AUSL   87  38.817   8.586   7.134
    1AU     AUL   88  39.122   8.672   7.011
    1AU    AUSL   89  39.127   8.420   7.377
    1AU    AUSL   90  39.068   8.144   7.769
    1AU     AUL   91  39.367   8.218   7.612
    1AU    AUSL   92  38.856   8.495   7.706
    1AU    AUSL   93  38.683   8.903   7.750
    1AU     AUL   94  39.036   8.734   7.828
    1AU    AUSL   95  37.581   8.977   7.463
    1AU    AUSL   96  37.619   8.768   7.835
    1AU     AUL   97  37.297   8.996   7.659
    1AU    AUSL   98  37.413   8.581   7.406
    1AU    AUSL   99  37.550   8.897   7.056
    1AU     AUL  100  37.294   8.809   7.206
    1AU    AUSL  101  37.260   8.567   7.821
    1AU    AUSL  102  37.244   8.200   7.397
    1AU     AUL  103  37.058   8.539   7.517
    1AU    AUSL  104  38.841   7.798   7.631
    1AU    AUSL  105  38.685   8.087   7.939
    1AU     AUL  106  38.995   7.990   8.016
    1AU    AUSL  107  38.813   8.152   7.404
    1AU    AUSL  108  38.812   7.750   7.207
    1AU     AUL  109  39.072   7.959   7.296
    1AU    AUSL  110  37.430   7.844   7.596
    1AU    AUSL  111  37.588   8.038   7.219
    1AU     AUL  112  37.223   7.926   7.269
    1AU    AUSL  113  37.506   8.246   7.733
    1AU    AUSL  114  37.732   7.887   7.890
    1AU     AUL  115  37.415   7.884   7.934
    1AU    AUSL  116  38.218   9.164   7.909
    1AU    AUSL  117  37.776   9.167   7.792
    1AU     AUL  118  37.977   9.236   8.156
    1AU    AUSL  119  38.068   9.051   7.523
    1AU    AUSL  120  38.306   9.191   7.179
    1AU     AUL  121  38.037   9.409   7.458
    1AU    AUSL  122  38.472   9.219   7.569
    1AU    AUSL  123  38.518   8.983   8.136
    1AU     AUL  124  38.597   9.238   7.893
    1AU    AUSL  125  38.118   7.720   7.997
    1AU    AUSL  126  38.536   7.683   7.890
    1AU     AUL  127  38.290   7.611   8.262
    1AU    AUSL  128  37.822   7.515   7.729
    1AU    AUSL  129  37.882   7.880   8.303
    1AU     AUL  130  37.799   7.579   8.076
    1AU    AUSL  131  38.253   7.442   7.700
    1AU    AUSL  132  38.038   7.653   7.388
    1AU     AUL  133  37.941   7.296   7.496
    1AU    AUSL  134  38.154   8.985   6.816
    1AU    AUSL  135  38.633   8.952   7.261
    1AU     AUL  136  38.482   9.115   6.882
    1AU    AUSL  137  37.893   9.110   7.146
    1AU    AUSL  138  37.910   8.689   6.980
    1AU     AUL  139  37.828   8.964   6.775
    1AU    AUSL  140  38.254   7.614   7.013
    1AU    AUSL  141  37.633   7.612   7.309
    1AU     AUL  142  37.922   7.462   7.063
    1AU    AUSL  143  38.461   7.654   7.404
    1AU    AUSL  144  38.496   7.960   7.006
    1AU     AUL  145  38.574   7.594   7.020
    1AU       S  146  38.736   7.498   8.296
    1AU     LIG  147  38.891   7.050   8.310
    1AU     LIG  148  39.067   6.626   8.336
    1AU     LIG  149  39.398   6.347   8.524
    1AU       S  150  38.625   8.262   8.746
    1AU     LIG  151  39.066   8.302   8.675
    1AU     LIG  152  39.269   8.361   9.104
    1AU     LIG  153  39.084   8.357   9.557
    1AU       S  154  38.278   8.089   8.651
    1AU     LIG  155  38.325   8.071   9.114
    1AU     LIG  156  38.698   7.999   9.436
    1AU     LIG  157  38.953   7.905   9.841
    1AU       S  158  37.817   8.433   8.636
    1AU     LIG  159  37.895   8.427   9.081
    1AU     LIG  160  37.515   8.317   9.328
    1AU     LIG  161  37.234   8.396   9.702
    1AU       S  162  38.266   9.012   8.513
    1AU     LIG  163  38.557   9.308   8.704
    1AU     LIG  164  38.970   9.144   8.775
    1AU     LIG  165  38.944   8.726   8.923
    1AU       S  166  38.983   8.922   8.256
    1AU     LIG  167  39.232   8.777   8.505
    1AU     LIG  168  39.487   9.010   8.775
    1AU     LIG  169  39.774   9.375   8.795
    1AU       S  170  38.550   8.497   6.344
    1AU     LIG  171  38.878   8.477   5.987
    1AU     LIG  172  39.077   8.096   5.858
    1AU     LIG  173  39.011   7.655   5.776
    1AU       S  174  38.931   9.101   6.902
    1AU     LIG  175  38.921   9.518   6.753
    1AU     LIG  176  39.192   9.745   6.461
    1AU     LIG  177  39.472   9.786   6.114
    1AU       S  178  39.136   7.917   6.825
    1AU     LIG  179  39.131   7.905   6.344
    1AU     LIG  180  38.975   7.480   6.264
    1AU     LIG  181  39.076   7.022   6.364
    1AU       S  182  38.529   8.333   6.286
    1AU     LIG  183  38.638   7.967   6.125
    1AU     LIG  184  38.551   7.876   5.689
    1AU     LIG  185  38.806   7.788   5.303
    1AU       S  186  37.724   8.107   6.342
    1AU     LIG  187  37.945   8.227   5.998
    1AU     LIG  188  37.995   8.047   5.617
    1AU     LIG  189  37.678   7.758   5.427
    1AU       S  190  38.319   8.617   6.469
    1AU     LIG  191  38.183   8.660   6.048
    1AU     LIG  192  38.396   8.375   5.755
    1AU     LIG  193  38.779   8.294   5.490
    1AU       S  194  37.605   8.538   8.690
    1AU     LIG  195  37.347   8.213   8.806
    1AU     LIG  196  37.173   7.967   9.123
    1AU     LIG  197  37.151   7.911   9.566
    1AU       S  198  37.506   9.152   8.159
    1AU     LIG  199  37.429   9.259   8.557
    1AU     LIG  200  37.036   9.265   8.782
    1AU     LIG  201  36.775   9.573   9.030
    1AU       S  202  37.405   7.917   8.413
    1AU     LIG  203  36.988   7.832   8.228
    1AU     LIG  204  36.694   7.492   8.303
    1AU     LIG  205  36.463   7.316   8.673
    1AU       S  206  37.798   8.254   8.580
    1AU     LIG  207  37.805   7.964   8.923
    1AU     LIG  208  37.635   7.820   9.321
    1AU     LIG  209  37.618   8.016   9.750
    1AU       S  210  37.569   8.030   6.445
    1AU     LIG  211  37.388   7.651   6.316
    1AU     LIG  212  37.368   7.776   5.872
    1AU     LIG  213  37.500   8.206   5.680
    1AU       S  214  37.525   7.599   6.836
    1AU     LIG  215  37.522   7.203   6.618
    1AU     LIG  216  37.419   7.128   6.171
    1AU     LIG  217  37.021   7.284   6.012
    1AU       S  218  37.220   8.732   6.727
    1AU     LIG  219  36.929   9.029   6.896
    1AU     LIG  220  36.956   9.391   6.623
    1AU     LIG  221  37.033   9.508   6.172
    1AU       S  222  37.754   8.407   6.440
    1AU     LIG  223  37.526   8.547   6.134
    1AU     LIG  224  37.727   8.675   5.763
    1AU     LIG  225  37.996   8.534   5.420
    1AU       S  226  39.013   9.109   7.045
    1AU     LIG  227  39.345   9.018   6.670
    1AU     LIG  228  39.481   9.297   6.330
    1AU     LIG  229  39.824   9.417   6.028
    1AU       S  230  39.243   8.909   7.435
    1AU     LIG  231  39.500   9.099   7.139
    1AU     LIG  232  39.856   9.342   7.173
    1AU     LIG  233  40.050   9.173   7.528
    1AU       S  234  39.411   8.624   7.375
    1AU     LIG  235  39.753   8.639   7.116
    1AU     LIG  236  40.173   8.786   7.205
    1AU     LIG  237  40.324   9.175   7.013
    1AU       S  238  39.303   7.760   7.762
    1AU     LIG  239  39.566   7.874   8.037
    1AU     LIG  240  39.994   7.857   7.938
    1AU     LIG  241  40.197   7.574   7.636
    1AU       S  242  39.011   9.127   8.067
    1AU     LIG  243  39.392   9.253   8.311
    1AU     LIG  244  39.640   9.645   8.382
    1AU     LIG  245  39.686   9.890   8.790
    1AU       S  246  39.431   8.703   7.613
    1AU     LIG  247  39.489   8.820   8.041
    1AU     LIG  248  39.921   8.813   8.178
    1AU     LIG  249  40.286   8.984   7.955
    1AU       S  250  37.435   8.978   8.098
    1AU     LIG  251  37.211   8.817   8.441
    1AU     LIG  252  36.764   8.893   8.521
    1AU     LIG  253  36.507   9.206   8.756
    1AU       S  254  37.513   9.300   7.362
    1AU     LIG  255  37.246   9.633   7.302
    1AU     LIG  256  36.927   9.734   7.006
    1AU     LIG  257  36.543   9.481   6.947
    1AU       S  258  37.031   8.434   7.058
    1AU     LIG  259  36.598   8.525   7.132
    1AU     LIG  260  36.208   8.744   7.116
    1AU     LIG  261  36.107   9.192   7.052
    1AU       S  262  37.415   9.145   6.891
    1AU     LIG  263  37.422   9.569   6.810
    1AU     LIG  264  37.168   9.853   6.544
    1AU     LIG  265  36.874   9.999   6.188
    1AU       S  266  37.034   8.098   7.677
    1AU     LIG  267  36.705   8.131   7.424
    1AU     LIG  268  36.266   8.134   7.302
    1AU     LIG  269  35.879   7.858   7.349
    1AU       S  270  37.145   8.609   7.989
    1AU     LIG  271  36.896   8.441   8.268
    1AU     LIG  272  36.489   8.577   8.115
    1AU     LIG  273  36.423   8.537   7.647
    1AU       S  274  39.002   7.636   7.651
    1AU     LIG  275  39.107   7.248   7.490
    1AU     LIG  276  39.488   7.100   7.637
    1AU     LIG  277  39.720   7.449   7.735
    1AU       S  278  38.904   7.570   8.149
    1AU     LIG  279  39.217   7.322   8.002
    1AU     LIG  280  39.462   6.978   8.169
    1AU     LIG  281  39.573   6.820   8.596
    1AU       S  282  39.295   7.722   7.605
    1AU     LIG  283  39.428   7.583   7.257
    1AU     LIG  284  39.835   7.439   7.191
    1AU     LIG  285  40.212   7.229   6.978
    1AU       S  286  39.037   7.650   6.929
    1AU     LIG  287  38.889   7.252   6.805
    1AU     LIG  288  38.950   6.794   6.813
    1AU     LIG  289  39.020   6.480   6.466
    1AU       S  290  37.403   7.719   6.902
    1AU     LIG  291  37.098   7.872   6.703
    1AU     LIG  292  36.872   7.550   6.454
    1AU     LIG  293  36.553   7.191   6.399
    1AU       S  294  37.020   7.841   7.697
    1AU     LIG  295  36.740   7.486   7.603
    1AU     LIG  296  36.483   7.311   7.237
    1AU     LIG  297  36.028   7.387   7.103
    1AU       S  298  37.439   7.680   8.346
    1AU     LIG  299  37.294   7.419   7.974
    1AU     LIG  300  36.948   7.129   7.963
    1AU     LIG  301  36.729   6.962   8.368
    1AU       S  302  37.054   8.145   7.837
    1AU     LIG  303  36.643   8.108   7.970
    1AU     LIG  304  36.419   7.779   7.962
    1AU     LIG  305  36.108   8.017   7.770
    1AU       S  306  37.645   9.340   7.831
    1AU     LIG  307  37.204   9.431   7.879
    1AU     LIG  308  36.964   9.300   8.254
    1AU     LIG  309  36.713   9.609   8.520
    1AU       S  310  38.222   9.520   7.869
    1AU     LIG  311  38.419   9.531   8.254
    1AU     LIG  312  38.438   9.979   8.314
    1AU     LIG  313  38.110  10.299   8.237
    1AU       S  314  38.380   9.683   7.749
    1AU     LIG  315  38.118  10.043   7.734
    1AU     LIG  316  38.159  10.506   7.769
    1AU     LIG  317  38.147  10.949   7.975
    1AU       S  318  38.216   9.471   7.029
    1AU     LIG  319  38.255   9.853   7.261
    1AU     LIG  320  38.388  10.287   7.355
    1AU     LIG  321  38.610  10.614   7.112
    1AU       S  322  38.753   9.088   8.310
    1AU     LIG  323  38.936   9.497   8.397
    1AU     LIG  324  39.261   9.570   8.715
    1AU     LIG  325  39.357   9.394   9.121
    1AU       S  326  38.502   9.503   7.518
    1AU     LIG  327  38.728   9.914   7.492
    1AU     LIG  328  38.601  10.185   7.850
    1AU     LIG  329  38.539  10.555   8.126
    1AU       S  330  38.108   7.217   8.091
    1AU     LIG  331  38.402   6.880   8.175
    1AU     LIG  332  38.566   6.496   8.394
    1AU     LIG  333  38.564   6.084   8.633
    1AU       S  334  38.673   7.525   7.995
    1AU     LIG  335  38.757   7.139   7.837
    1AU     LIG  336  39.086   6.799   7.841
    1AU     LIG  337  39.437   6.484   8.017
    1AU       S  338  37.911   7.144   7.933
    1AU     LIG  339  37.960   6.690   7.874
    1AU     LIG  340  38.140   6.363   8.137
    1AU     LIG  341  38.058   6.209   8.576
    1AU       S  342  37.679   7.803   8.477
    1AU     LIG  343  37.421   7.628   8.833
    1AU     LIG  344  37.026   7.406   8.714
    1AU     LIG  345  36.833   7.022   8.880
    1AU       S  346  38.339   7.217   7.290
    1AU     LIG  347  38.077   6.822   7.208
    1AU     LIG  348  38.137   6.593   6.825
    1AU     LIG  349  38.396   6.259   6.721
    1AU       S  350  38.254   7.264   7.863
    1AU     LIG  351  38.361   6.896   7.657
    1AU     LIG  352  38.589   6.542   7.843
    1AU     LIG  353  38.581   6.107   8.053
    1AU       S  354  38.085   9.367   6.753
    1AU     LIG  355  38.019   9.849   6.778
    1AU     LIG  356  38.284  10.233   6.847
    1AU     LIG  357  38.360  10.677   6.665
    1AU       S  358  38.826   9.220   7.215
    1AU     LIG  359  39.197   9.544   7.196
    1AU     LIG  360  39.482   9.539   6.837
    1AU     LIG  361  39.825   9.614   6.539
    1AU       S  362  37.877   9.380   7.005
    1AU     LIG  363  37.750   9.751   7.206
    1AU     LIG  364  37.889  10.204   7.202
    1AU     LIG  365  38.071  10.630   7.097
    1AU       S  366  37.447   8.776   6.620
    1AU     LIG  367  37.379   9.151   6.396
    1AU     LIG  368  37.531   9.563   6.302
    1AU     LIG  369  37.374   9.922   6.055
    1AU       S  370  37.452   7.531   7.146
    1AU     LIG  371  36.989   7.516   7.110
    1AU     LIG  372  36.823   7.209   6.851
    1AU     LIG  373  37.033   7.047   6.487
    1AU       S  374  38.326   7.235   7.147
    1AU     LIG  375  38.445   7.016   6.805
    1AU     LIG  376  38.547   6.683   6.514
    1AU     LIG  377  38.598   6.288   6.246
    1AU       S  378  38.598   7.331   7.405
    1AU     LIG  379  38.742   6.938   7.296
    1AU     LIG  380  38.565   6.591   7.104
    1AU     LIG  381  38.855   6.296   6.924
    1AU       S  382  38.843   7.760   6.700
    1AU     LIG  383  38.515   7.546   6.523
    1AU     LIG  384  38.577   7.142   6.297
    1AU     LIG  385  38.761   6.758   6.053
    2AU     AUC  386  29.209  31.113   7.538
    2AU     AUC  387  29.467  31.103   7.373
    2AU     AUC  388  29.450  31.108   7.709
    2AU     AUC  389  28.938  31.108   7.381
    2AU     AUC  390  28.960  31.163   7.705
    2AU     AUC  391  29.058  31.378   7.498
    2AU     AUC  392  29.397  31.375   7.505
    2AU     AUC  393  29.030  30.859   7.566
    2AU     AUC  394  29.364  30.837   7.564
    2AU     AUC  395  29.201  30.970   7.817
    2AU     AUC  396  29.221  31.314   7.778
    2AU     AUC  397  29.204  30.922   7.292
    2AU     AUC  398  29.227  31.233   7.263
    2AU     AUC  399  29.784  31.093   7.217
    2AU     AUC  400  29.770  31.081   7.557
    2AU     AUC  401  29.727  31.086   7.913
    2AU     AUC  402  28.635  31.076   7.241
    2AU     AUC  403  28.639  31.162   7.566
    2AU     AUC  404  28.667  31.226   7.882
    2AU     AUC  405  28.906  31.681   7.430
    2AU     AUC  406  29.262  31.662   7.420
    2AU     AUC  407  29.597  31.644   7.460
    2AU     AUC  408  28.832  30.580   7.593
    2AU     AUC  409  29.181  30.549   7.573
    2AU     AUC  410  29.534  30.537   7.582
    2AU     AUC  411  29.171  30.818   8.124
    2AU     AUC  412  29.195  31.171   8.102
    2AU     AUC  413  29.257  31.525   8.055
    2AU     AUC  414  29.234  30.727   7.020
    2AU     AUC  415  29.197  31.053   6.964
    2AU     AUC  416  29.195  31.370   6.947
    2AU     AUC  417  29.440  30.935   8.032
    2AU     AUC  418  29.499  31.292   7.999
    2AU     AUC  419  29.514  30.928   7.085
    2AU     AUC  420  29.491  31.244   7.085
    2AU     AUC  421  28.915  31.042   8.019
    2AU     AUC  422  28.958  31.396   7.962
    2AU     AUC  423  28.921  30.885   7.124
    2AU     AUC  424  28.895  31.193   7.071
    2AU     AUC  425  29.711  31.367   7.348
    2AU     AUC  426  29.658  31.369   7.697
    2AU     AUC  427  28.757  31.389   7.359
    2AU     AUC  428  28.802  31.484   7.684
    2AU     AUC  429  29.668  30.816   7.412
    2AU     AUC  430  29.617  30.793   7.758
    2AU     AUC  431  28.730  30.815   7.424
    2AU     AUC  432  28.761  30.898   7.752
    2AU     AUC  433  29.113  31.624   7.750
    2AU     AUC  434  29.434  31.584   7.771
    2AU     AUC  435  29.011  30.695   7.856
    2AU     AUC  436  29.321  30.640   7.845
    2AU     AUC  437  29.035  31.524   7.183
    2AU     AUC  438  29.395  31.542   7.197
    2AU     AUC  439  29.035  30.638   7.296
    2AU     AUC  440  29.412  30.663   7.293
    2AU    AUSL  441  29.689  31.040   8.316
    2AU    AUSL  442  29.453  30.656   8.247
    2AU     AUL  443  29.768  30.710   8.433
    2AU    AUSL  444  29.280  30.990   8.444
    2AU    AUSL  445  29.048  31.381   8.422
    2AU     AUL  446  29.273  31.298   8.711
    2AU    AUSL  447  29.396  31.347   8.197
    2AU    AUSL  448  29.845  31.375   8.113
    2AU     AUL  449  29.672  31.352   8.461
    2AU    AUSL  450  29.651  31.114   6.886
    2AU    AUSL  451  29.517  31.511   6.964
    2AU     AUL  452  29.730  31.437   6.679
    2AU    AUSL  453  29.469  30.823   6.635
    2AU    AUSL  454  29.952  30.853   7.012
    2AU     AUL  455  29.853  30.972   6.668
    2AU    AUSL  456  29.289  31.248   6.708
    2AU    AUSL  457  29.096  30.862   6.827
    2AU     AUL  458  29.200  30.894   6.501
    2AU    AUSL  459  28.665  31.339   8.210
    2AU    AUSL  460  29.006  31.653   8.103
    2AU     AUL  461  28.829  31.632   8.426
    2AU    AUSL  462  28.953  31.029   8.190
    2AU    AUSL  463  28.542  30.910   8.162
    2AU     AUL  464  28.462  31.136   8.285
    2AU    AUSL  465  28.670  30.880   6.832
    2AU    AUSL  466  28.885  30.553   7.022
    2AU     AUL  467  28.936  30.553   6.691
    2AU    AUSL  468  28.868  31.216   6.665
    2AU    AUSL  469  28.566  31.248   7.025
    2AU     AUL  470  28.450  31.089   6.760
    2AU    AUSL  471  29.998  31.564   7.495
    2AU    AUSL  472  29.916  31.364   7.096
    2AU     AUL  473  30.257  31.546   7.168
    2AU    AUSL  474  30.156  31.171   7.394
    2AU    AUSL  475  30.105  30.883   7.776
    2AU     AUL  476  30.403  30.964   7.580
    2AU    AUSL  477  29.877  31.226   7.726
    2AU    AUSL  478  29.711  31.632   7.789
    2AU     AUL  479  30.081  31.393   7.862
    2AU    AUSL  480  28.657  31.755   7.472
    2AU    AUSL  481  28.679  31.549   7.846
    2AU     AUL  482  28.373  31.791   7.656
    2AU    AUSL  483  28.474  31.362   7.416
    2AU    AUSL  484  28.613  31.668   7.068
    2AU     AUL  485  28.363  31.593   7.213
    2AU    AUSL  486  28.312  31.366   7.826
    2AU    AUSL  487  28.279  30.993   7.424
    2AU     AUL  488  28.116  31.341   7.529
    2AU    AUSL  489  29.871  30.540   7.644
    2AU    AUSL  490  29.722  30.831   7.954
    2AU     AUL  491  30.028  30.738   8.028
    2AU    AUSL  492  29.850  30.892   7.412
    2AU    AUSL  493  29.835  30.481   7.222
    2AU     AUL  494  30.103  30.696   7.300
    2AU    AUSL  495  28.448  30.629   7.622
    2AU    AUSL  496  28.605  30.810   7.237
    2AU     AUL  497  28.233  30.696   7.322
    2AU    AUSL  498  28.542  31.026   7.761
    2AU    AUSL  499  28.763  30.651   7.904
    2AU     AUL  500  28.444  30.649   7.956
    2AU    AUSL  501  29.304  31.884   7.910
    2AU    AUSL  502  28.862  31.938   7.803
    2AU     AUL  503  29.056  31.985   8.175
    2AU    AUSL  504  29.138  31.814   7.522
    2AU    AUSL  505  29.381  31.917   7.175
    2AU     AUL  506  29.145  32.171   7.425
    2AU    AUSL  507  29.558  31.951   7.563
    2AU    AUSL  508  29.577  31.722   8.182
    2AU     AUL  509  29.681  31.965   7.909
    2AU    AUSL  510  29.145  30.474   8.013
    2AU    AUSL  511  29.560  30.434   7.899
    2AU     AUL  512  29.313  30.363   8.278
    2AU    AUSL  513  28.842  30.272   7.753
    2AU    AUSL  514  28.915  30.642   8.319
    2AU     AUL  515  28.830  30.341   8.099
    2AU    AUSL  516  29.272  30.192   7.716
    2AU    AUSL  517  29.054  30.409   7.409
    2AU     AUL  518  28.952  30.058   7.523
    2AU    AUSL  519  29.206  31.733   6.798
    2AU    AUSL  520  29.759  31.753   7.213
    2AU     AUL  521  29.531  31.841   6.867
    2AU    AUSL  522  28.966  31.868   7.143
    2AU    AUSL  523  28.966  31.447   6.989
    2AU     AUL  524  28.883  31.711   6.781
    2AU    AUSL  525  29.259  30.357   7.031
    2AU    AUSL  526  28.645  30.385   7.341
    2AU     AUL  527  28.915  30.217   7.089
    2AU    AUSL  528  29.478  30.398   7.414
    2AU    AUSL  529  29.517  30.692   7.027
    2AU     AUL  530  29.579  30.331   7.016
    2AU       S  531  29.760  30.260   8.306
    2AU     LIG  532  29.795  29.847   8.315
    2AU     LIG  533  30.149  29.660   8.435
    2AU     LIG  534  30.155  29.324   8.702
    2AU       S  535  29.626  30.982   8.775
    2AU     LIG  536  30.045  31.090   8.700
    2AU     LIG  537  30.257  31.140   9.102
    2AU     LIG  538  30.157  30.985   9.541
    2AU       S  539  29.281  30.824   8.656
    2AU     LIG  540  29.284  30.827   9.108
    2AU     LIG  541  29.679  30.767   9.387
    2AU     LIG  542  29.957  30.513   9.695
    2AU       S  543  28.832  31.184   8.638
    2AU     LIG  544  28.901  31.196   9.090
    2AU     LIG  545  28.519  31.096   9.346
    2AU     LIG  546  28.245  31.233   9.720
    2AU       S  547  29.305  31.746   8.544
    2AU     LIG  548  29.547  32.082   8.620
    2AU     LIG  549  29.917  31.923   8.817
    2AU     LIG  550  30.190  31.581   8.799
    2AU       S  551  30.046  31.589   8.288
    2AU     LIG  552  30.460  31.666   8.369
    2AU     LIG  553  30.488  32.015   8.640
    2AU     LIG  554  30.663  32.368   8.897
    2AU       S  555  29.567  31.198   6.327
    2AU     LIG  556  29.835  31.271   5.964
    2AU     LIG  557  29.975  30.855   5.892
    2AU     LIG  558  29.951  30.413   5.785
    2AU       S  559  29.975  31.855   6.802
    2AU     LIG  560  29.769  32.247   6.671
    2AU     LIG  561  29.995  32.543   6.363
    2AU     LIG  562  30.313  32.446   6.032
    2AU       S  563  30.121  30.609   6.818
    2AU     LIG  564  30.125  30.558   6.318
    2AU     LIG  565  30.079  30.119   6.203
    2AU     LIG  566  30.204  29.686   6.361
    2AU       S  567  29.582  31.003   6.284
    2AU     LIG  568  29.492  30.673   6.011
    2AU     LIG  569  29.529  30.595   5.548
    2AU     LIG  570  29.805  30.613   5.163
    2AU       S  571  28.767  30.861   6.363
    2AU     LIG  572  28.992  30.893   6.018
    2AU     LIG  573  29.039  30.738   5.620
    2AU     LIG  574  28.817  30.829   5.233
    2AU       S  575  29.326  31.342   6.449
    2AU     LIG  576  29.179  31.353   6.039
    2AU     LIG  577  29.403  31.097   5.736
    2AU     LIG  578  29.769  31.050   5.461
    2AU       S  579  28.629  31.291   8.684
    2AU     LIG  580  28.295  31.051   8.749
    2AU     LIG  581  28.203  30.732   9.021
    2AU     LIG  582  28.078  30.808   9.454
    2AU       S  583  28.581  31.930   8.161
    2AU     LIG  584  28.631  32.201   8.440
    2AU     LIG  585  28.355  32.176   8.789
    2AU     LIG  586  27.986  32.304   9.036
    2AU       S  587  28.455  30.690   8.451
    2AU     LIG  588  28.057  30.738   8.310
    2AU     LIG  589  27.901  30.353   8.113
    2AU     LIG  590  27.819  29.907   8.259
    2AU       S  591  28.810  31.015   8.590
    2AU     LIG  592  28.716  30.754   8.951
    2AU     LIG  593  28.570  30.584   9.357
    2AU     LIG  594  28.483  30.772   9.776
    2AU       S  595  28.608  30.788   6.458
    2AU     LIG  596  28.372  30.740   6.086
    2AU     LIG  597  28.541  30.874   5.698
    2AU     LIG  598  28.433  31.183   5.396
    2AU       S  599  28.532  30.415   6.882
    2AU     LIG  600  28.550  30.146   6.572
    2AU     LIG  601  28.270  29.901   6.300
    2AU     LIG  602  27.875  29.682   6.131
    2AU       S  603  28.274  31.515   6.741
    2AU     LIG  604  28.017  31.878   6.750
    2AU     LIG  605  28.176  32.173   6.471
    2AU     LIG  606  28.344  32.220   6.034
    2AU       S  607  28.810  31.161   6.448
    2AU     LIG  608  28.484  31.256   6.221
    2AU     LIG  609  28.652  31.363   5.844
    2AU     LIG  610  28.948  31.238   5.537
    2AU       S  611  30.046  31.733   6.822
    2AU     LIG  612  30.384  31.704   6.551
    2AU     LIG  613  30.538  32.057   6.322
    2AU     LIG  614  30.768  32.170   5.967
    2AU       S  615  30.158  31.769   7.577
    2AU     LIG  616  30.439  31.992   7.281
    2AU     LIG  617  30.868  32.197   7.288
    2AU     LIG  618  31.190  32.204   7.623
    2AU       S  619  30.459  31.438   7.575
    2AU     LIG  620  30.826  31.677   7.411
    2AU     LIG  621  31.247  31.797   7.297
    2AU     LIG  622  31.667  31.675   7.148
    2AU       S  623  30.347  30.518   7.784
    2AU     LIG  624  30.682  30.253   7.890
    2AU     LIG  625  31.084  30.369   7.837
    2AU     LIG  626  31.486  30.352   7.695
    2AU       S  627  30.077  31.809   8.080
    2AU     LIG  628  30.420  32.116   8.117
    2AU     LIG  629  30.519  32.491   8.402
    2AU     LIG  630  30.379  32.827   8.702
    2AU       S  631  30.404  31.656   7.700
    2AU     LIG  632  30.765  31.763   7.919
    2AU     LIG  633  31.210  31.701   7.804
    2AU     LIG  634  31.551  31.434   7.611
    2AU       S  635  28.506  31.759   8.096
    2AU     LIG  636  28.311  31.631   8.468
    2AU     LIG  637  27.955  31.816   8.661
    2AU     LIG  638  27.679  32.184   8.621
    2AU       S  639  28.626  32.093   7.379
    2AU     LIG  640  28.424  32.436   7.335
    2AU     LIG  641  28.125  32.213   7.150
    2AU     LIG  642  27.922  31.798   7.253
    2AU       S  643  28.085  31.225   7.074
    2AU     LIG  644  27.677  31.111   6.970
    2AU     LIG  645  27.299  31.317   7.060
    2AU     LIG  646  27.080  31.633   6.819
    2AU       S  647  28.487  31.929   6.896
    2AU     LIG  648  28.500  32.372   6.829
    2AU     LIG  649  28.331  32.652   6.509
    2AU     LIG  650  27.975  32.549   6.170
    2AU       S  651  28.069  30.912   7.720
    2AU     LIG  652  27.756  30.981   7.448
    2AU     LIG  653  27.373  30.825   7.317
    2AU     LIG  654  27.036  30.570   7.171
    2AU       S  655  28.179  31.420   8.005
    2AU     LIG  656  27.966  31.262   8.351
    2AU     LIG  657  27.536  31.440   8.330
    2AU     LIG  658  27.373  31.678   7.959
    2AU       S  659  30.042  30.376   7.667
    2AU     LIG  660  30.227  29.957   7.568
    2AU     LIG  661  30.679  29.844   7.591
    2AU     LIG  662  31.175  29.913   7.581
    2AU       S  663  29.924  30.324   8.166
    2AU     LIG  664  30.230  30.072   8.065
    2AU     LIG  665  30.593  29.897   8.283
    2AU     LIG  666  30.630  29.594   8.641
    2AU       S  667  30.321  30.463   7.616
    2AU     LIG  668  30.470  30.313   7.287
    2AU     LIG  669  30.900  30.274   7.349
    2AU     LIG  670  31.297  30.331   7.144
    2AU       S  671  30.047  30.360   6.964
    2AU     LIG  672  29.987  30.001   6.741
    2AU     LIG  673  29.968  29.557   6.809
    2AU     LIG  674  30.087  29.169   6.599
    2AU       S  675  28.396  30.523   6.934
    2AU     LIG  676  28.167  30.555   6.566
    2AU     LIG  677  27.899  30.236   6.392
    2AU     LIG  678  27.512  30.005   6.316
    2AU       S  679  28.030  30.689   7.755
    2AU     LIG  680  27.646  30.489   7.625
    2AU     LIG  681  27.394  30.203   7.332
    2AU     LIG  682  27.144  30.009   6.979
    2AU       S  683  28.464  30.444   8.361
    2AU     LIG  684  28.377  30.162   7.959
    2AU     LIG  685  28.189  29.757   7.930
    2AU     LIG  686  28.173  29.524   8.312
    2AU       S  687  28.107  30.951   7.876
    2AU     LIG  688  27.688  31.133   7.936
    2AU     LIG  689  27.325  30.868   7.857
    2AU     LIG  690  27.130  30.496   7.696
    2AU       S  691  28.723  32.125   7.854
    2AU     LIG  692  28.258  32.194   7.904
    2AU     LIG  693  28.121  32.171   8.311
    2AU     LIG  694  28.060  32.531   8.564
    2AU       S  695  29.303  32.224   7.869
    2AU     LIG  696  29.523  32.418   8.214
    2AU     LIG  697  29.304  32.833   8.302
    2AU     LIG  698  28.880  32.965   8.494
    2AU       S  699  29.192  32.370   7.861
    2AU     LIG  700  28.941  32.514   8.123
    2AU     LIG  701  28.897  32.925   7.981
    2AU     LIG  702  28.931  33.329   8.144
    2AU       S  703  29.275  32.217   6.973
    2AU     LIG  704  29.556  32.464   7.174
    2AU     LIG  705  29.534  32.921   7.186
    2AU     LIG  706  29.387  33.265   6.966
    2AU       S  707  29.839  31.805   8.330
    2AU     LIG  708  30.007  32.217   8.404
    2AU     LIG  709  30.158  32.369   8.805
    2AU     LIG  710  30.306  32.062   9.136
    2AU       S  711  29.516  32.333   7.664
    2AU     LIG  712  29.314  32.776   7.627
    2AU     LIG  713  29.336  33.180   7.849
    2AU     LIG  714  29.431  33.342   8.296
    2AU       S  715  29.138  29.969   8.108
    2AU     LIG  716  29.372  29.579   8.197
    2AU     LIG  717  29.162  29.251   8.461
    2AU     LIG  718  29.104  28.785   8.483
    2AU       S  719  29.699  30.292   8.015
    2AU     LIG  720  29.780  29.975   7.822
    2AU     LIG  721  29.945  29.637   7.882
    2AU     LIG  722  30.348  29.583   7.970
    2AU       S  723  28.939  29.904   7.963
    2AU     LIG  724  29.008  29.474   7.869
    2AU     LIG  725  28.933  29.040   8.015
    2AU     LIG  726  28.666  28.733   8.243
    2AU       S  727  28.720  30.553   8.506
    2AU     LIG  728  28.466  30.295   8.827
    2AU     LIG  729  28.173  29.927   8.679
    2AU     LIG  730  27.813  29.593   8.696
    2AU       S  731  29.344  29.957   7.308
    2AU     LIG  732  29.064  29.566   7.326
    2AU     LIG  733  28.978  29.151   7.074
    2AU     LIG  734  29.201  28.730   7.033
    2AU       S  735  29.281  30.006   7.877
    2AU     LIG  736  29.451  29.636   7.665
    2AU     LIG  737  29.580  29.260   7.825
    2AU     LIG  738  29.463  28.998   8.165
    2AU       S  739  29.148  32.100   6.719
    2AU     LIG  740  29.090  32.554   6.641
    2AU     LIG  741  29.376  32.908   6.610
    2AU     LIG  742  29.420  33.343   6.438
    2AU       S  743  29.934  31.921   7.123
    2AU     LIG  744  30.175  32.315   6.968
    2AU     LIG  745  30.448  32.478   6.606
    2AU     LIG  746  30.731  32.610   6.258
    2AU       S  747  28.956  32.133   6.986
    2AU     LIG  748  28.893  32.540   7.106
    2AU     LIG  749  28.700  32.865   6.866
    2AU     LIG  750  28.940  33.214   6.687
    2AU       S  751  28.489  31.551   6.635
    2AU     LIG  752  28.606  31.881   6.389
    2AU     LIG  753  28.716  32.315   6.373
    2AU     LIG  754  28.619  32.684   6.092
    2AU       S  755  28.448  30.301   7.157
    2AU     LIG  756  28.130  30.087   6.868
    2AU     LIG  757  27.904  29.763   6.646
    2AU     LIG  758  27.789  29.338   6.513
    2AU       S  759  29.315  29.983   7.162
    2AU     LIG  760  29.506  29.842   6.812
    2AU     LIG  761  29.519  29.408   6.636
    2AU     LIG  762  29.267  29.026   6.628
    2AU       S  763  29.589  30.078   7.400
    2AU     LIG  764  29.825  29.824   7.232
    2AU     LIG  765  29.554  29.463   7.159
    2AU     LIG  766  29.622  29.038   7.043
    2AU       S  767  29.852  30.504   6.706
    2AU     LIG  768  29.617  30.250   6.476
    2AU     LIG  769  29.692  29.807   6.338
    2AU     LIG  770  29.818  29.383   6.196
    3AU     AUC  771  13.234  29.028   7.523
    3AU     AUC  772  13.493  29.029   7.360
    3AU     AUC  773  13.478  29.030   7.695
    3AU     AUC  774  12.965  29.017   7.363
    3AU     AUC  775  12.980  29.069   7.688
    3AU     AUC  776  13.071  29.287   7.483
    3AU     AUC  777  13.411  29.297   7.494
    3AU     AUC  778  13.064  28.769   7.547
    3AU     AUC  779  13.398  28.758   7.547
    3AU     AUC  780  13.228  28.884   7.801
    3AU     AUC  781  13.235  29.227   7.763
    3AU     AUC  782  13.238  28.839   7.274
    3AU     AUC  783  13.248  29.152   7.250
    3AU     AUC  784  13.810  29.032   7.204
    3AU     AUC  785  13.798  29.014   7.544
    3AU     AUC  786  13.758  29.015   7.899
    3AU     AUC  787  12.667  28.972   7.219
    3AU     AUC  788  12.660  29.056   7.544
    3AU     AUC  789  12.682  29.119   7.864
    3AU     AUC  790  12.906  29.585   7.418
    3AU     AUC  791  13.264  29.580   7.411
    3AU     AUC  792  13.601  29.573   7.454
    3AU     AUC  793  12.877  28.482   7.570
    3AU     AUC  794  13.225  28.464   7.553
    3AU     AUC  795  13.575  28.464   7.562
    3AU     AUC  796  13.201  28.732   8.105
    3AU     AUC  797  13.214  29.083   8.086
    3AU     AUC  798  13.261  29.442   8.041
    3AU     AUC  799  13.278  28.648   6.997
    3AU     AUC  800  13.225  28.975   6.947
    3AU     AUC  801  13.212  29.292   6.937
    3AU     AUC  802  13.471  28.853   8.013
    3AU     AUC  803  13.513  29.211   7.984
    3AU     AUC  804  13.545  28.860   7.067
    3AU     AUC  805  13.512  29.175   7.076
    3AU     AUC  806  12.935  28.947   8.000
    3AU     AUC  807  12.969  29.300   7.946
    3AU     AUC  808  12.961  28.793   7.102
    3AU     AUC  809  12.919  29.102   7.054
    3AU     AUC  810  13.731  29.301   7.344
    3AU     AUC  811  13.672  29.295   7.686
    3AU     AUC  812  12.770  29.289   7.341
    3AU     AUC  813  12.807  29.381   7.668
    3AU     AUC  814  13.700  28.747   7.390
    3AU     AUC  815  13.654  28.721   7.740
    3AU     AUC  816  12.772  28.712   7.398
    3AU     AUC  817  12.791  28.797   7.730
    3AU     AUC  818  13.114  29.535   7.738
    3AU     AUC  819  13.435  29.506   7.762
    3AU     AUC  820  13.045  28.605   7.836
    3AU     AUC  821  13.361  28.559   7.826
    3AU     AUC  822  13.045  29.437   7.170
    3AU     AUC  823  13.406  29.469   7.190
    3AU     AUC  824  13.086  28.549   7.275
    3AU     AUC  825  13.455  28.588   7.273
    3AU    AUSL  826  13.716  28.965   8.298
    3AU    AUSL  827  13.491  28.576   8.226
    3AU     AUL  828  13.808  28.629   8.409
    3AU    AUSL  829  13.307  28.902   8.428
    3AU    AUSL  830  13.063  29.292   8.409
    3AU     AUL  831  13.291  29.209   8.699
    3AU    AUSL  832  13.408  29.259   8.180
    3AU    AUSL  833  13.851  29.317   8.108
    3AU     AUL  834  13.681  29.276   8.444
    3AU    AUSL  835  13.676  29.056   6.879
    3AU    AUSL  836  13.527  29.445   6.965
    3AU     AUL  837  13.728  29.383   6.680
    3AU    AUSL  838  13.507  28.773   6.614
    3AU    AUSL  839  13.982  28.797   6.990
    3AU     AUL  840  13.882  28.928   6.648
    3AU    AUSL  841  13.309  29.180   6.698
    3AU    AUSL  842  13.132  28.784   6.804
    3AU     AUL  843  13.239  28.830   6.477
    3AU    AUSL  844  12.682  29.239   8.198
    3AU    AUSL  845  13.009  29.555   8.083
    3AU     AUL  846  12.833  29.535   8.409
    3AU    AUSL  847  12.977  28.936   8.176
    3AU    AUSL  848  12.566  28.814   8.132
    3AU     AUL  849  12.490  29.033   8.282
    3AU    AUSL  850  12.704  28.775   6.808
    3AU    AUSL  851  12.946  28.459   6.993
    3AU     AUL  852  12.991  28.473   6.660
    3AU    AUSL  853  12.889  29.126   6.654
    3AU    AUSL  854  12.591  29.140   7.010
    3AU     AUL  855  12.473  28.973   6.752
    3AU    AUSL  856  14.011  29.511   7.499
    3AU    AUSL  857  13.937  29.311   7.089
    3AU     AUL  858  14.278  29.512   7.182
    3AU    AUSL  859  14.178  29.118   7.384
    3AU    AUSL  860  14.142  28.819   7.750
    3AU     AUL  861  14.443  28.873   7.533
    3AU    AUSL  862  13.907  29.160   7.724
    3AU    AUSL  863  13.705  29.560   7.778
    3AU     AUL  864  14.063  29.387   7.885
    3AU    AUSL  865  12.651  29.649   7.457
    3AU    AUSL  866  12.683  29.438   7.829
    3AU     AUL  867  12.365  29.673   7.649
    3AU    AUSL  868  12.483  29.252   7.398
    3AU    AUSL  869  12.619  29.563   7.051
    3AU     AUL  870  12.366  29.480   7.197
    3AU    AUSL  871  12.323  29.240   7.812
    3AU    AUSL  872  12.314  28.871   7.378
    3AU     AUL  873  12.133  29.208   7.507
    3AU    AUSL  874  13.910  28.475   7.620
    3AU    AUSL  875  13.763  28.756   7.937
    3AU     AUL  876  14.074  28.667   8.002
    3AU    AUSL  877  13.882  28.829   7.392
    3AU    AUSL  878  13.875  28.421   7.198
    3AU     AUL  879  14.131  28.635   7.271
    3AU    AUSL  880  12.493  28.513   7.587
    3AU    AUSL  881  12.660  28.704   7.214
    3AU     AUL  882  12.295  28.584   7.255
    3AU    AUSL  883  12.563  28.913   7.727
    3AU    AUSL  884  12.794  28.553   7.884
    3AU     AUL  885  12.474  28.543   7.928
    3AU    AUSL  886  13.288  29.819   7.902
    3AU    AUSL  887  12.844  29.836   7.790
    3AU     AUL  888  13.035  29.895   8.158
    3AU    AUSL  889  13.133  29.723   7.516
    3AU    AUSL  890  13.376  29.838   7.174
    3AU     AUL  891  13.115  30.078   7.443
    3AU    AUSL  892  13.547  29.879   7.559
    3AU    AUSL  893  13.559  29.646   8.169
    3AU     AUL  894  13.664  29.894   7.901
    3AU    AUSL  895  13.184  28.392   7.992
    3AU    AUSL  896  13.603  28.359   7.878
    3AU     AUL  897  13.358  28.283   8.255
    3AU    AUSL  898  12.889  28.180   7.728
    3AU    AUSL  899  12.947  28.547   8.298
    3AU     AUL  900  12.859  28.249   8.074
    3AU    AUSL  901  13.321  28.108   7.700
    3AU    AUSL  902  13.108  28.324   7.390
    3AU     AUL  903  13.008  27.966   7.502
    3AU    AUSL  904  13.215  29.659   6.792
    3AU    AUSL  905  13.764  29.691   7.215
    3AU     AUL  906  13.546  29.785   6.865
    3AU    AUSL  907  12.961  29.778   7.137
    3AU    AUSL  908  12.983  29.362   6.976
    3AU     AUL  909  12.892  29.627   6.768
    3AU    AUSL  910  13.323  28.270   7.016
    3AU    AUSL  911  12.704  28.280   7.306
    3AU     AUL  912  12.992  28.134   7.070
    3AU    AUSL  913  13.532  28.318   7.404
    3AU    AUSL  914  13.554  28.622   6.999
    3AU     AUL  915  13.645  28.255   7.015
    3AU       S  916  13.804  28.174   8.280
    3AU     LIG  917  13.983  27.786   8.405
    3AU     LIG  918  14.079  27.331   8.443
    3AU     LIG  919  14.480  27.080   8.494
    3AU       S  920  13.664  28.906   8.749
    3AU     LIG  921  14.053  28.802   8.926
    3AU     LIG  922  14.258  28.906   9.333
    3AU     LIG  923  14.324  28.952   9.805
    3AU       S  924  13.318  28.736   8.637
    3AU     LIG  925  13.328  28.740   9.085
    3AU     LIG  926  13.741  28.699   9.338
    3AU     LIG  927  14.087  28.496   9.609
    3AU       S  928  12.853  29.088   8.628
    3AU     LIG  929  12.913  29.084   9.086
    3AU     LIG  930  12.537  29.011   9.361
    3AU     LIG  931  12.272  29.119   9.751
    3AU       S  932  13.304  29.666   8.542
    3AU     LIG  933  13.607  29.925   8.758
    3AU     LIG  934  14.034  29.755   8.794
    3AU     LIG  935  14.091  29.293   8.749
    3AU       S  936  14.026  29.578   8.311
    3AU     LIG  937  14.416  29.582   8.465
    3AU     LIG  938  14.578  29.879   8.767
    3AU     LIG  939  14.767  30.211   9.059
    3AU       S  940  13.584  29.164   6.313
    3AU     LIG  941  14.025  29.272   6.282
    3AU     LIG  942  14.095  28.859   6.088
    3AU     LIG  943  14.003  28.432   5.876
    3AU       S  944  13.997  29.750   6.811
    3AU     LIG  945  13.868  29.814   6.380
    3AU     LIG  946  14.160  30.041   6.058
    3AU     LIG  947  14.487  30.360   5.879
    3AU       S  948  14.147  28.565   6.791
    3AU     LIG  949  14.221  28.436   6.349
    3AU     LIG  950  14.121  28.018   6.224
    3AU     LIG  951  14.278  27.659   6.467
    3AU       S  952  13.610  28.992   6.266
    3AU     LIG  953  13.585  28.587   6.147
    3AU     LIG  954  13.487  28.433   5.737
    3AU     LIG  955  13.625  28.495   5.301
    3AU       S  956  12.809  28.784   6.335
    3AU     LIG  957  13.059  28.636   5.997
    3AU     LIG  958  13.047  28.661   5.522
    3AU     LIG  959  12.757  28.695   5.149
    3AU       S  960  13.332  29.292   6.436
    3AU     LIG  961  13.142  29.138   6.068
    3AU     LIG  962  13.398  28.947   5.776
    3AU     LIG  963  13.812  28.851   5.645
    3AU       S  964  12.649  29.198   8.680
    3AU     LIG  965  12.349  28.915   8.769
    3AU     LIG  966  12.268  28.622   9.093
    3AU     LIG  967  12.169  28.662   9.543
    3AU       S  968  12.560  29.814   8.144
    3AU     LIG  969  12.525  29.974   8.520
    3AU     LIG  970  12.193  30.060   8.814
    3AU     LIG  971  11.759  30.139   8.901
    3AU       S  972  12.486  28.585   8.424
    3AU     LIG  973  12.085  28.658   8.274
    3AU     LIG  974  11.883  28.269   8.124
    3AU     LIG  975  11.685  27.879   8.338
    3AU       S  976  12.842  28.914   8.579
    3AU     LIG  977  12.765  28.631   8.939
    3AU     LIG  978  12.690  28.521   9.385
    3AU     LIG  979  12.641  28.727   9.799
    3AU       S  980  12.646  28.693   6.432
    3AU     LIG  981  12.604  28.404   6.067
    3AU     LIG  982  12.538  28.570   5.626
    3AU     LIG  983  12.371  28.954   5.378
    3AU       S  984  12.607  28.269   6.832
    3AU     LIG  985  12.612  27.835   6.768
    3AU     LIG  986  12.432  27.767   6.371
    3AU     LIG  987  12.228  28.049   6.052
    3AU       S  988  12.301  29.398   6.715
    3AU     LIG  989  12.002  29.689   6.891
    3AU     LIG  990  12.072  30.119   6.740
    3AU     LIG  991  12.229  30.352   6.376
    3AU       S  992  12.831  29.078   6.450
    3AU     LIG  993  12.617  29.201   6.120
    3AU     LIG  994  12.756  29.049   5.716
    3AU     LIG  995  12.839  29.190   5.277
    3AU       S  996  14.107  29.614   6.781
    3AU     LIG  997  14.371  29.709   6.419
    3AU     LIG  998  14.678  29.958   6.144
    3AU     LIG  999  15.042  30.236   5.996
    3AU       S 1000  14.229  29.710   7.603
    3AU     LIG 1001  14.598  29.858   7.454
    3AU     LIG 1002  15.000  29.792   7.586
    3AU     LIG 1003  15.354  30.045   7.593
    3AU       S 1004  14.447  29.332   7.572
    3AU     LIG 1005  14.824  29.413   7.298
    3AU     LIG 1006  15.320  29.503   7.285
    3AU     LIG 1007  15.791  29.434   7.137
    3AU       S 1008  14.376  28.440   7.734
    3AU     LIG 1009  14.594  28.379   8.076
    3AU     LIG 1010  15.041  28.321   8.077
    3AU     LIG 1011  15.392  28.348   7.797
    3AU       S 1012  14.058  29.788   8.113
    3AU     LIG 1013  14.420  30.051   8.280
    3AU     LIG 1014  14.663  30.354   8.552
    3AU     LIG 1015  14.614  30.674   8.885
    3AU       S 1016  14.457  29.427   7.679
    3AU     LIG 1017  14.644  29.689   7.980
    3AU     LIG 1018  15.108  29.756   8.077
    3AU     LIG 1019  15.421  29.552   7.794
    3AU       S 1020  12.490  29.640   8.089
    3AU     LIG 1021  12.279  29.499   8.451
    3AU     LIG 1022  11.868  29.680   8.620
    3AU     LIG 1023  11.413  29.811   8.699
    3AU       S 1024  12.593  29.979   7.359
    3AU     LIG 1025  12.388  30.369   7.353
    3AU     LIG 1026  11.997  30.399   7.159
    3AU     LIG 1027  11.646  30.110   7.098
    3AU       S 1028  12.099  29.113   7.047
    3AU     LIG 1029  11.658  29.196   7.000
    3AU     LIG 1030  11.307  29.463   7.149
    3AU     LIG 1031  11.363  29.801   7.442
    3AU       S 1032  12.485  29.819   6.883
    3AU     LIG 1033  12.586  30.238   6.750
    3AU     LIG 1034  12.365  30.606   6.822
    3AU     LIG 1035  11.906  30.641   6.711
    3AU       S 1036  12.087  28.764   7.649
    3AU     LIG 1037  11.804  28.768   7.317
    3AU     LIG 1038  11.376  28.793   7.185
    3AU     LIG 1039  10.970  28.605   7.303
    3AU       S 1040  12.186  29.269   7.990
    3AU     LIG 1041  11.858  29.224   8.285
    3AU     LIG 1042  11.508  29.512   8.278
    3AU     LIG 1043  11.323  29.808   7.990
    3AU       S 1044  14.072  28.312   7.638
    3AU     LIG 1045  14.158  27.903   7.489
    3AU     LIG 1046  14.442  27.642   7.695
    3AU     LIG 1047  14.789  27.894   7.895
    3AU       S 1048  13.972  28.250   8.138
    3AU     LIG 1049  14.266  27.996   8.000
    3AU     LIG 1050  14.458  27.651   8.224
    3AU     LIG 1051  14.472  27.570   8.677
    3AU       S 1052  14.355  28.369   7.552
    3AU     LIG 1053  14.640  28.057   7.429
    3AU     LIG 1054  15.087  28.066   7.425
    3AU     LIG 1055  15.445  28.214   7.149
    3AU       S 1056  14.094  28.323   6.899
    3AU     LIG 1057  14.315  27.966   7.004
    3AU     LIG 1058  14.106  27.597   6.947
    3AU     LIG 1059  13.926  27.327   6.629
    3AU       S 1060  12.482  28.379   6.894
    3AU     LIG 1061  12.178  28.482   6.656
    3AU     LIG 1062  11.963  28.109   6.493
    3AU     LIG 1063  11.609  27.808   6.502
    3AU       S 1064  12.083  28.529   7.685
    3AU     LIG 1065  11.682  28.363   7.647
    3AU     LIG 1066  11.374  28.287   7.322
    3AU     LIG 1067  11.171  27.952   7.061
    3AU       S 1068  12.500  28.368   8.347
    3AU     LIG 1069  12.373  28.067   8.036
    3AU     LIG 1070  12.052  27.739   8.005
    3AU     LIG 1071  11.866  27.354   8.190
    3AU       S 1072  12.122  28.811   7.812
    3AU     LIG 1073  11.703  28.876   7.934
    3AU     LIG 1074  11.373  28.758   7.695
    3AU     LIG 1075  11.133  28.416   7.787
    3AU       S 1076  12.697  30.018   7.841
    3AU     LIG 1077  12.416  30.302   8.094
    3AU     LIG 1078  12.043  30.326   8.382
    3AU     LIG 1079  11.582  30.222   8.394
    3AU       S 1080  13.283  30.159   7.866
    3AU     LIG 1081  13.456  30.186   8.264
    3AU     LIG 1082  13.356  30.639   8.267
    3AU     LIG 1083  12.977  30.903   8.339
    3AU       S 1084  13.396  30.345   7.769
    3AU     LIG 1085  12.982  30.586   7.856
    3AU     LIG 1086  12.833  31.058   7.886
    3AU     LIG 1087  12.877  31.478   8.134
    3AU       S 1088  13.258  30.127   6.993
    3AU     LIG 1089  13.378  30.434   7.152
    3AU     LIG 1090  13.364  30.841   7.085
    3AU     LIG 1091  13.301  31.225   6.924
    3AU       S 1092  13.785  29.747   8.334
    3AU     LIG 1093  13.953  30.149   8.455
    3AU     LIG 1094  14.221  30.248   8.815
    3AU     LIG 1095  14.306  29.999   9.200
    3AU       S 1096  13.570  30.181   7.540
    3AU     LIG 1097  13.637  30.680   7.515
    3AU     LIG 1098  13.357  30.921   7.791
    3AU     LIG 1099  13.336  31.218   8.121
    3AU       S 1100  13.173  27.888   8.095
    3AU     LIG 1101  13.535  27.596   8.179
    3AU     LIG 1102  13.683  27.160   8.093
    3AU     LIG 1103  13.512  26.760   8.253
    3AU       S 1104  13.743  28.213   7.988
    3AU     LIG 1105  13.805  27.850   7.839
    3AU     LIG 1106  14.022  27.528   7.974
    3AU     LIG 1107  14.333  27.178   8.019
    3AU       S 1108  12.980  27.815   7.939
    3AU     LIG 1109  12.985  27.363   7.925
    3AU     LIG 1110  13.119  26.921   7.837
    3AU     LIG 1111  13.205  26.438   7.934
    3AU       S 1112  12.759  28.454   8.486
    3AU     LIG 1113  12.522  28.139   8.767
    3AU     LIG 1114  12.176  27.867   8.549
    3AU     LIG 1115  11.870  27.505   8.677
    3AU       S 1116  13.408  27.873   7.296
    3AU     LIG 1117  13.392  27.401   7.144
    3AU     LIG 1118  13.284  26.971   7.118
    3AU     LIG 1119  13.348  26.540   6.945
    3AU       S 1120  13.318  27.936   7.871
    3AU     LIG 1121  13.385  27.558   7.671
    3AU     LIG 1122  13.547  27.147   7.570
    3AU     LIG 1123  13.588  26.742   7.753
    3AU       S 1124  13.146  30.026   6.730
    3AU     LIG 1125  13.063  30.482   6.695
    3AU     LIG 1126  13.190  30.899   6.543
    3AU     LIG 1127  13.226  31.218   6.194
    3AU       S 1128  13.948  29.844   7.112
    3AU     LIG 1129  14.387  29.994   7.001
    3AU     LIG 1130  14.555  30.171   6.602
    3AU     LIG 1131  14.729  30.515   6.324
    3AU       S 1132  12.952  30.040   7.000
    3AU     LIG 1133  12.858  30.462   7.162
    3AU     LIG 1134  12.843  30.885   6.950
    3AU     LIG 1135  12.822  31.241   6.657
    3AU       S 1136  12.511  29.442   6.614
    3AU     LIG 1137  12.465  29.832   6.388
    3AU     LIG 1138  12.705  30.199   6.248
    3AU     LIG 1139  12.691  30.648   6.383
    3AU       S 1140  12.527  28.186   7.146
    3AU     LIG 1141  12.153  28.005   6.980
    3AU     LIG 1142  12.060  27.652   6.725
    3AU     LIG 1143  11.984  27.528   6.287
    3AU       S 1144  13.392  27.904   7.161
    3AU     LIG 1145  13.627  27.736   6.849
    3AU     LIG 1146  13.409  27.379   6.632
    3AU     LIG 1147  13.244  26.940   6.596
    3AU       S 1148  13.658  27.994   7.398
    3AU     LIG 1149  13.805  27.576   7.364
    3AU     LIG 1150  13.855  27.180   7.134
    3AU     LIG 1151  13.713  26.894   6.819
    3AU       S 1152  13.860  28.455   6.671
    3AU     LIG 1153  13.558  28.155   6.526
    3AU     LIG 1154  13.701  27.728   6.344
    3AU     LIG 1155  14.011  27.454   6.088
    4AU     AUC 1156  25.607  40.618   7.518
    4AU     AUC 1157  25.866  40.621   7.354
    4AU     AUC 1158  25.846  40.617   7.689
    4AU     AUC 1159  25.338  40.608   7.359
    4AU     AUC 1160  25.354  40.656   7.685
    4AU     AUC 1161  25.444  40.875   7.482
    4AU     AUC 1162  25.784  40.887   7.492
    4AU     AUC 1163  25.437  40.358   7.540
    4AU     AUC 1164  25.771  40.346   7.539
    4AU     AUC 1165  25.602  40.469   7.795
    4AU     AUC 1166  25.610  40.813   7.763
    4AU     AUC 1167  25.611  40.432   7.268
    4AU     AUC 1168  25.620  40.747   7.245
    4AU     AUC 1169  26.183  40.626   7.199
    4AU     AUC 1170  26.168  40.604   7.536
    4AU     AUC 1171  26.125  40.599   7.893
    4AU     AUC 1172  25.038  40.566   7.214
    4AU     AUC 1173  25.033  40.644   7.542
    4AU     AUC 1174  25.058  40.703   7.861
    4AU     AUC 1175  25.276  41.176   7.424
    4AU     AUC 1176  25.637  41.170   7.416
    4AU     AUC 1177  25.973  41.163   7.455
    4AU     AUC 1178  25.249  40.070   7.559
    4AU     AUC 1179  25.597  40.052   7.544
    4AU     AUC 1180  25.950  40.052   7.552
    4AU     AUC 1181  25.575  40.311   8.098
    4AU     AUC 1182  25.590  40.665   8.083
    4AU     AUC 1183  25.639  41.024   8.043
    4AU     AUC 1184  25.651  40.245   6.992
    4AU     AUC 1185  25.599  40.572   6.942
    4AU     AUC 1186  25.584  40.892   6.932
    4AU     AUC 1187  25.842  40.437   8.008
    4AU     AUC 1188  25.890  40.794   7.983
    4AU     AUC 1189  25.919  40.453   7.063
    4AU     AUC 1190  25.884  40.773   7.069
    4AU     AUC 1191  25.311  40.530   7.996
    4AU     AUC 1192  25.344  40.883   7.946
    4AU     AUC 1193  25.333  40.390   7.096
    4AU     AUC 1194  25.292  40.699   7.050
    4AU     AUC 1195  26.098  40.895   7.333
    4AU     AUC 1196  26.046  40.884   7.683
    4AU     AUC 1197  25.142  40.881   7.340
    4AU     AUC 1198  25.179  40.968   7.669
    4AU     AUC 1199  26.076  40.338   7.387
    4AU     AUC 1200  26.025  40.307   7.732
    4AU     AUC 1201  25.144  40.303   7.392
    4AU     AUC 1202  25.168  40.384   7.723
    4AU     AUC 1203  25.487  41.120   7.742
    4AU     AUC 1204  25.814  41.090   7.765
    4AU     AUC 1205  25.420  40.188   7.828
    4AU     AUC 1206  25.731  40.142   7.816
    4AU     AUC 1207  25.417  41.032   7.173
    4AU     AUC 1208  25.777  41.064   7.188
    4AU     AUC 1209  25.456  40.141   7.265
    4AU     AUC 1210  25.828  40.179   7.266
    4AU    AUSL 1211  26.091  40.542   8.294
    4AU    AUSL 1212  25.860  40.157   8.214
    4AU     AUL 1213  26.166  40.195   8.400
    4AU    AUSL 1214  25.683  40.482   8.423
    4AU    AUSL 1215  25.440  40.870   8.406
    4AU     AUL 1216  25.677  40.791   8.690
    4AU    AUSL 1217  25.788  40.843   8.180
    4AU    AUSL 1218  26.236  40.887   8.098
    4AU     AUL 1219  26.072  40.857   8.439
    4AU    AUSL 1220  26.047  40.651   6.877
    4AU    AUSL 1221  25.902  41.046   6.950
    4AU     AUL 1222  26.119  40.984   6.668
    4AU    AUSL 1223  25.884  40.364   6.611
    4AU    AUSL 1224  26.355  40.390   6.987
    4AU     AUL 1225  26.260  40.522   6.654
    4AU    AUSL 1226  25.686  40.778   6.689
    4AU    AUSL 1227  25.507  40.384   6.798
    4AU     AUL 1228  25.615  40.428   6.472
    4AU    AUSL 1229  25.057  40.817   8.198
    4AU    AUSL 1230  25.382  41.139   8.087
    4AU     AUL 1231  25.210  41.116   8.411
    4AU    AUSL 1232  25.353  40.516   8.171
    4AU    AUSL 1233  24.944  40.390   8.130
    4AU     AUL 1234  24.862  40.612   8.270
    4AU    AUSL 1235  25.079  40.378   6.802
    4AU    AUSL 1236  25.317  40.059   6.985
    4AU     AUL 1237  25.366  40.072   6.656
    4AU    AUSL 1238  25.266  40.729   6.646
    4AU    AUSL 1239  24.964  40.740   7.004
    4AU     AUL 1240  24.855  40.590   6.736
    4AU    AUSL 1241  26.378  41.097   7.486
    4AU    AUSL 1242  26.306  40.911   7.080
    4AU     AUL 1243  26.637  41.106   7.159
    4AU    AUSL 1244  26.549  40.714   7.372
    4AU    AUSL 1245  26.511  40.413   7.754
    4AU     AUL 1246  26.802  40.514   7.560
    4AU    AUSL 1247  26.270  40.747   7.706
    4AU    AUSL 1248  26.088  41.143   7.780
    4AU     AUL 1249  26.471  40.914   7.844
    4AU    AUSL 1250  25.018  41.236   7.464
    4AU    AUSL 1251  25.055  41.023   7.833
    4AU     AUL 1252  24.733  41.257   7.654
    4AU    AUSL 1253  24.858  40.838   7.395
    4AU    AUSL 1254  24.991  41.161   7.056
    4AU     AUL 1255  24.733  41.070   7.200
    4AU    AUSL 1256  24.696  40.824   7.805
    4AU    AUSL 1257  24.684  40.459   7.384
    4AU     AUL 1258  24.499  40.791   7.502
    4AU    AUSL 1259  26.290  40.065   7.616
    4AU    AUSL 1260  26.129  40.343   7.927
    4AU     AUL 1261  26.437  40.258   8.007
    4AU    AUSL 1262  26.258  40.419   7.389
    4AU    AUSL 1263  26.253  40.013   7.194
    4AU     AUL 1264  26.516  40.240   7.275
    4AU    AUSL 1265  24.868  40.101   7.580
    4AU    AUSL 1266  25.028  40.301   7.206
    4AU     AUL 1267  24.671  40.186   7.249
    4AU    AUSL 1268  24.939  40.498   7.727
    4AU    AUSL 1269  25.173  40.137   7.873
    4AU     AUL 1270  24.861  40.123   7.922
    4AU    AUSL 1271  25.670  41.398   7.913
    4AU    AUSL 1272  25.216  41.421   7.797
    4AU     AUL 1273  25.416  41.486   8.155
    4AU    AUSL 1274  25.508  41.307   7.528
    4AU    AUSL 1275  25.743  41.436   7.186
    4AU     AUL 1276  25.486  41.661   7.475
    4AU    AUSL 1277  25.923  41.464   7.568
    4AU    AUSL 1278  25.952  41.225   8.172
    4AU     AUL 1279  26.048  41.472   7.908
    4AU    AUSL 1280  25.557  39.964   7.983
    4AU    AUSL 1281  25.975  39.944   7.863
    4AU     AUL 1282  25.740  39.862   8.243
    4AU    AUSL 1283  25.262  39.764   7.713
    4AU    AUSL 1284  25.322  40.124   8.288
    4AU     AUL 1285  25.238  39.823   8.063
    4AU    AUSL 1286  25.695  39.693   7.681
    4AU    AUSL 1287  25.478  39.912   7.376
    4AU     AUL 1288  25.379  39.551   7.480
    4AU    AUSL 1289  25.581  41.268   6.804
    4AU    AUSL 1290  26.129  41.287   7.213
    4AU     AUL 1291  25.903  41.381   6.864
    4AU    AUSL 1292  25.330  41.376   7.154
    4AU    AUSL 1293  25.355  40.960   6.974
    4AU     AUL 1294  25.266  41.240   6.780
    4AU    AUSL 1295  25.692  39.867   7.002
    4AU    AUSL 1296  25.073  39.874   7.291
    4AU     AUL 1297  25.353  39.723   7.050
    4AU    AUSL 1298  25.903  39.911   7.388
    4AU    AUSL 1299  25.929  40.215   6.998
    4AU     AUL 1300  26.014  39.853   6.994
    4AU       S 1301  26.188  39.750   8.251
    4AU     LIG 1302  26.308  39.338   8.310
    4AU     LIG 1303  26.283  38.906   8.408
    4AU     LIG 1304  26.153  38.713   8.818
    4AU       S 1305  26.049  40.485   8.738
    4AU     LIG 1306  26.398  40.757   8.831
    4AU     LIG 1307  26.557  40.716   9.268
    4AU     LIG 1308  26.474  40.614   9.723
    4AU       S 1309  25.701  40.317   8.633
    4AU     LIG 1310  25.724  40.367   9.095
    4AU     LIG 1311  26.086  40.370   9.420
    4AU     LIG 1312  26.260  40.134   9.804
    4AU       S 1313  25.238  40.668   8.623
    4AU     LIG 1314  25.291  40.659   9.073
    4AU     LIG 1315  24.881  40.567   9.279
    4AU     LIG 1316  24.600  40.659   9.640
    4AU       S 1317  25.678  41.249   8.532
    4AU     LIG 1318  25.960  41.595   8.612
    4AU     LIG 1319  26.335  41.413   8.825
    4AU     LIG 1320  26.659  41.190   9.049
    4AU       S 1321  26.428  41.121   8.261
    4AU     LIG 1322  26.718  41.224   8.529
    4AU     LIG 1323  26.877  41.587   8.733
    4AU     LIG 1324  27.186  41.797   9.036
    4AU       S 1325  25.971  40.746   6.313
    4AU     LIG 1326  26.336  40.889   6.072
    4AU     LIG 1327  26.454  40.636   5.696
    4AU     LIG 1328  26.319  40.219   5.507
    4AU       S 1329  26.352  41.409   6.819
    4AU     LIG 1330  26.255  41.634   6.456
    4AU     LIG 1331  26.497  41.689   6.058
    4AU     LIG 1332  26.867  41.938   5.906
    4AU       S 1333  26.520  40.146   6.797
    4AU     LIG 1334  26.743  39.841   6.525
    4AU     LIG 1335  26.752  39.429   6.350
    4AU     LIG 1336  26.821  38.996   6.523
    4AU       S 1337  25.995  40.574   6.267
    4AU     LIG 1338  25.922  40.184   6.103
    4AU     LIG 1339  25.859  40.028   5.660
    4AU     LIG 1340  25.845  40.186   5.205
    4AU       S 1341  25.183  40.374   6.330
    4AU     LIG 1342  25.422  40.238   5.978
    4AU     LIG 1343  25.411  40.236   5.515
    4AU     LIG 1344  25.335  40.402   5.098
    4AU       S 1345  25.717  40.885   6.431
    4AU     LIG 1346  25.538  40.725   6.044
    4AU     LIG 1347  25.820  40.537   5.727
    4AU     LIG 1348  26.073  40.638   5.343
    4AU       S 1349  25.026  40.767   8.670
    4AU     LIG 1350  24.669  40.551   8.725
    4AU     LIG 1351  24.529  40.246   9.004
    4AU     LIG 1352  24.469  40.187   9.450
    4AU       S 1353  24.936  41.398   8.154
    4AU     LIG 1354  24.987  41.698   8.411
    4AU     LIG 1355  24.723  41.698   8.781
    4AU     LIG 1356  24.485  41.944   9.108
    4AU       S 1357  24.853  40.165   8.411
    4AU     LIG 1358  24.426  40.158   8.484
    4AU     LIG 1359  24.026  39.913   8.459
    4AU     LIG 1360  23.741  39.664   8.758
    4AU       S 1361  25.215  40.490   8.565
    4AU     LIG 1362  25.052  40.251   8.901
    4AU     LIG 1363  24.942  40.051   9.280
    4AU     LIG 1364  24.924  40.244   9.692
    4AU       S 1365  25.007  40.276   6.442
    4AU     LIG 1366  24.764  40.194   6.108
    4AU     LIG 1367  24.966  40.375   5.758
    4AU     LIG 1368  24.936  40.588   5.367
    4AU       S 1369  24.968  39.879   6.816
    4AU     LIG 1370  24.752  39.773   6.433
    4AU     LIG 1371  24.483  39.612   6.103
    4AU     LIG 1372  24.064  39.496   5.951
    4AU       S 1373  24.665  41.008   6.719
    4AU     LIG 1374  24.376  41.341   6.830
    4AU     LIG 1375  24.314  41.742   6.616
    4AU     LIG 1376  24.124  41.890   6.208
    4AU       S 1377  25.203  40.661   6.420
    4AU     LIG 1378  24.882  40.745   6.174
    4AU     LIG 1379  25.064  40.876   5.787
    4AU     LIG 1380  25.407  40.753   5.506
    4AU       S 1381  26.424  41.290   6.811
    4AU     LIG 1382  26.623  41.283   6.400
    4AU     LIG 1383  26.967  41.534   6.212
    4AU     LIG 1384  27.332  41.819   6.104
    4AU       S 1385  26.516  41.300   7.571
    4AU     LIG 1386  26.658  41.683   7.670
    4AU     LIG 1387  27.126  41.622   7.703
    4AU     LIG 1388  27.495  41.621   7.416
    4AU       S 1389  26.845  40.986   7.556
    4AU     LIG 1390  27.275  41.154   7.482
    4AU     LIG 1391  27.695  41.164   7.242
    4AU     LIG 1392  28.084  41.358   7.054
    4AU       S 1393  26.764  40.066   7.745
    4AU     LIG 1394  27.040  39.859   8.029
    4AU     LIG 1395  27.461  39.731   7.937
    4AU     LIG 1396  27.622  39.788   7.530
    4AU       S 1397  26.455  41.328   8.064
    4AU     LIG 1398  26.846  41.537   8.131
    4AU     LIG 1399  26.976  41.922   8.339
    4AU     LIG 1400  26.924  42.118   8.746
    4AU       S 1401  26.785  41.192   7.682
    4AU     LIG 1402  26.918  41.024   8.060
    4AU     LIG 1403  27.357  41.022   7.990
    4AU     LIG 1404  27.580  41.383   7.861
    4AU       S 1405  24.868  41.223   8.090
    4AU     LIG 1406  24.652  41.078   8.443
    4AU     LIG 1407  24.333  41.358   8.639
    4AU     LIG 1408  23.915  41.568   8.612
    4AU       S 1409  24.953  41.572   7.371
    4AU     LIG 1410  24.648  41.877   7.232
    4AU     LIG 1411  24.211  41.763   7.130
    4AU     LIG 1412  24.038  41.312   7.234
    4AU       S 1413  24.482  40.693   7.039
    4AU     LIG 1414  24.051  40.652   7.108
    4AU     LIG 1415  23.668  40.833   7.197
    4AU     LIG 1416  23.511  41.228   7.128
    4AU       S 1417  24.857  41.419   6.901
    4AU     LIG 1418  24.902  41.839   6.783
    4AU     LIG 1419  24.587  42.180   6.738
    4AU     LIG 1420  24.155  42.251   6.607
    4AU       S 1421  24.457  40.348   7.650
    4AU     LIG 1422  24.180  40.206   7.300
    4AU     LIG 1423  23.748  40.181   7.301
    4AU     LIG 1424  23.414  40.148   6.995
    4AU       S 1425  24.566  40.859   7.977
    4AU     LIG 1426  24.316  40.685   8.284
    4AU     LIG 1427  24.031  41.050   8.342
    4AU     LIG 1428  24.035  41.493   8.118
    4AU       S 1429  26.459  39.918   7.633
    4AU     LIG 1430  26.520  39.547   7.420
    4AU     LIG 1431  26.814  39.252   7.567
    4AU     LIG 1432  27.146  39.316   7.891
    4AU       S 1433  26.350  39.828   8.109
    4AU     LIG 1434  26.644  39.558   7.954
    4AU     LIG 1435  26.816  39.292   8.270
    4AU     LIG 1436  26.701  39.062   8.660
    4AU       S 1437  26.745  39.986   7.565
    4AU     LIG 1438  26.923  39.775   7.201
    4AU     LIG 1439  27.367  39.669   7.096
    4AU     LIG 1440  27.813  39.824   7.028
    4AU       S 1441  26.476  39.898   6.945
    4AU     LIG 1442  26.596  39.476   6.895
    4AU     LIG 1443  26.534  39.042   6.952
    4AU     LIG 1444  26.404  38.696   6.669
    4AU       S 1445  24.850  39.989   6.882
    4AU     LIG 1446  24.534  40.171   6.682
    4AU     LIG 1447  24.220  39.889   6.462
    4AU     LIG 1448  23.892  39.527   6.449
    4AU       S 1449  24.473  40.112   7.681
    4AU     LIG 1450  24.434  39.772   7.427
    4AU     LIG 1451  24.015  39.713   7.246
    4AU     LIG 1452  23.692  39.609   7.557
    4AU       S 1453  24.876  39.930   8.334
    4AU     LIG 1454  24.567  39.751   8.031
    4AU     LIG 1455  24.134  39.651   8.004
    4AU     LIG 1456  23.924  39.414   8.356
    4AU       S 1457  24.502  40.392   7.829
    4AU     LIG 1458  24.173  40.215   8.057
    4AU     LIG 1459  23.802  40.051   8.003
    4AU     LIG 1460  23.528  40.280   7.799
    4AU       S 1461  25.078  41.601   7.841
    4AU     LIG 1462  24.656  41.708   7.870
    4AU     LIG 1463  24.479  41.713   8.289
    4AU     LIG 1464  24.285  41.930   8.638
    4AU       S 1465  25.694  41.763   7.887
    4AU     LIG 1466  26.069  41.910   8.147
    4AU     LIG 1467  25.993  42.251   8.410
    4AU     LIG 1468  25.605  42.498   8.290
    4AU       S 1469  25.746  41.969   7.755
    4AU     LIG 1470  25.328  42.041   8.049
    4AU     LIG 1471  25.165  42.476   8.049
    4AU     LIG 1472  25.450  42.819   7.844
    4AU       S 1473  25.652  41.734   7.044
    4AU     LIG 1474  25.710  42.116   7.251
    4AU     LIG 1475  26.093  42.333   7.198
    4AU     LIG 1476  26.344  42.483   6.873
    4AU       S 1477  26.226  41.316   8.319
    4AU     LIG 1478  26.452  41.691   8.419
    4AU     LIG 1479  26.475  41.905   8.821
    4AU     LIG 1480  26.687  41.723   9.198
    4AU       S 1481  25.947  41.765   7.550
    4AU     LIG 1482  26.205  42.149   7.680
    4AU     LIG 1483  26.034  42.483   7.955
    4AU     LIG 1484  26.016  42.779   8.344
    4AU       S 1485  25.564  39.467   8.076
    4AU     LIG 1486  25.864  39.105   8.144
    4AU     LIG 1487  25.863  38.639   8.296
    4AU     LIG 1488  25.971  38.158   8.392
    4AU       S 1489  26.115  39.778   7.961
    4AU     LIG 1490  26.196  39.385   7.809
    4AU     LIG 1491  26.488  39.051   7.930
    4AU     LIG 1492  26.755  38.794   8.211
    4AU       S 1493  25.371  39.392   7.917
    4AU     LIG 1494  25.325  38.966   7.707
    4AU     LIG 1495  25.480  38.542   7.813
    4AU     LIG 1496  25.521  38.235   8.137
    4AU       S 1497  25.117  40.024   8.477
    4AU     LIG 1498  24.763  39.837   8.798
    4AU     LIG 1499  24.351  39.602   8.716
    4AU     LIG 1500  24.114  39.191   8.800
    4AU       S 1501  25.785  39.466   7.276
    4AU     LIG 1502  25.710  39.000   7.125
    4AU     LIG 1503  25.672  38.557   6.888
    4AU     LIG 1504  25.690  38.132   6.693
    4AU       S 1505  25.702  39.512   7.841
    4AU     LIG 1506  25.787  39.135   7.639
    4AU     LIG 1507  26.059  38.802   7.757
    4AU     LIG 1508  26.013  38.377   7.900
    4AU       S 1509  25.511  41.650   6.769
    4AU     LIG 1510  25.451  42.120   6.796
    4AU     LIG 1511  25.748  42.489   6.822
    4AU     LIG 1512  26.064  42.701   6.519
    4AU       S 1513  26.287  41.459   7.142
    4AU     LIG 1514  26.699  41.632   7.103
    4AU     LIG 1515  26.792  41.763   6.652
    4AU     LIG 1516  27.008  42.097   6.389
    4AU       S 1517  25.319  41.646   7.026
    4AU     LIG 1518  25.184  42.011   7.229
    4AU     LIG 1519  25.265  42.462   7.149
    4AU     LIG 1520  25.465  42.856   7.082
    4AU       S 1521  24.893  41.054   6.611
    4AU     LIG 1522  24.730  41.447   6.422
    4AU     LIG 1523  24.693  41.893   6.295
    4AU     LIG 1524  24.464  42.281   6.179
    4AU       S 1525  24.881  39.784   7.114
    4AU     LIG 1526  24.457  39.696   6.911
    4AU     LIG 1527  24.375  39.404   6.570
    4AU     LIG 1528  24.191  39.103   6.268
    4AU       S 1529  25.757  39.500   7.133
    4AU     LIG 1530  26.050  39.298   6.875
    4AU     LIG 1531  25.945  38.906   6.644
    4AU     LIG 1532  25.986  38.472   6.448
    4AU       S 1533  26.029  39.584   7.375
    4AU     LIG 1534  26.189  39.156   7.336
    4AU     LIG 1535  26.153  38.747   7.116
    4AU     LIG 1536  26.121  38.324   6.938
    4AU       S 1537  26.262  40.047   6.666
    4AU     LIG 1538  26.254  39.632   6.545
    4AU     LIG 1539  26.337  39.184   6.477
    4AU     LIG 1540  26.389  38.877   6.148
    5AU     AUC 1541  18.637   6.773   7.526
    5AU     AUC 1542  18.898   6.773   7.364
    5AU     AUC 1543  18.877   6.772   7.699
    5AU     AUC 1544  18.371   6.765   7.364
    5AU     AUC 1545  18.382   6.815   7.690
    5AU     AUC 1546  18.477   7.032   7.487
    5AU     AUC 1547  18.818   7.040   7.501
    5AU     AUC 1548  18.463   6.514   7.547
    5AU     AUC 1549  18.796   6.501   7.549
    5AU     AUC 1550  18.626   6.628   7.804
    5AU     AUC 1551  18.640   6.970   7.769
    5AU     AUC 1552  18.641   6.587   7.276
    5AU     AUC 1553  18.655   6.900   7.253
    5AU     AUC 1554  19.217   6.772   7.210
    5AU     AUC 1555  19.199   6.752   7.550
    5AU     AUC 1556  19.154   6.750   7.904
    5AU     AUC 1557  18.074   6.724   7.215
    5AU     AUC 1558  18.064   6.804   7.541
    5AU     AUC 1559  18.083   6.866   7.864
    5AU     AUC 1560  18.313   7.334   7.425
    5AU     AUC 1561  18.673   7.325   7.421
    5AU     AUC 1562  19.011   7.313   7.466
    5AU     AUC 1563  18.272   6.230   7.566
    5AU     AUC 1564  18.619   6.209   7.551
    5AU     AUC 1565  18.968   6.204   7.565
    5AU     AUC 1566  18.595   6.473   8.106
    5AU     AUC 1567  18.614   6.824   8.089
    5AU     AUC 1568  18.667   7.182   8.048
    5AU     AUC 1569  18.681   6.395   6.998
    5AU     AUC 1570  18.634   6.726   6.950
    5AU     AUC 1571  18.625   7.045   6.940
    5AU     AUC 1572  18.866   6.591   8.017
    5AU     AUC 1573  18.917   6.950   7.990
    5AU     AUC 1574  18.950   6.604   7.072
    5AU     AUC 1575  18.922   6.922   7.080
    5AU     AUC 1576  18.332   6.693   8.000
    5AU     AUC 1577  18.372   7.045   7.949
    5AU     AUC 1578  18.368   6.543   7.100
    5AU     AUC 1579  18.328   6.855   7.055
    5AU     AUC 1580  19.137   7.042   7.348
    5AU     AUC 1581  19.080   7.035   7.693
    5AU     AUC 1582  18.177   7.039   7.342
    5AU     AUC 1583  18.211   7.127   7.670
    5AU     AUC 1584  19.101   6.487   7.397
    5AU     AUC 1585  19.048   6.459   7.743
    5AU     AUC 1586  18.177   6.459   7.392
    5AU     AUC 1587  18.191   6.545   7.726
    5AU     AUC 1588  18.519   7.278   7.745
    5AU     AUC 1589  18.845   7.246   7.772
    5AU     AUC 1590  18.438   6.352   7.835
    5AU     AUC 1591  18.752   6.300   7.827
    5AU     AUC 1592  18.456   7.188   7.176
    5AU     AUC 1593  18.817   7.214   7.198
    5AU     AUC 1594  18.487   6.292   7.270
    5AU     AUC 1595  18.852   6.334   7.278
    5AU    AUSL 1596  19.114   6.694   8.305
    5AU    AUSL 1597  18.882   6.308   8.229
    5AU     AUL 1598  19.191   6.341   8.412
    5AU    AUSL 1599  18.702   6.639   8.427
    5AU    AUSL 1600  18.467   7.032   8.413
    5AU     AUL 1601  18.699   6.945   8.697
    5AU    AUSL 1602  18.814   6.997   8.187
    5AU    AUSL 1603  19.257   7.044   8.113
    5AU     AUL 1604  19.095   7.008   8.451
    5AU    AUSL 1605  19.086   6.800   6.883
    5AU    AUSL 1606  18.946   7.195   6.962
    5AU     AUL 1607  19.151   7.123   6.674
    5AU    AUSL 1608  18.915   6.516   6.618
    5AU    AUSL 1609  19.385   6.532   6.997
    5AU     AUL 1610  19.291   6.664   6.654
    5AU    AUSL 1611  18.723   6.931   6.700
    5AU    AUSL 1612  18.540   6.537   6.808
    5AU     AUL 1613  18.647   6.583   6.483
    5AU    AUSL 1614  18.084   6.990   8.204
    5AU    AUSL 1615  18.412   7.295   8.088
    5AU     AUL 1616  18.240   7.278   8.416
    5AU    AUSL 1617  18.371   6.680   8.178
    5AU    AUSL 1618  17.957   6.572   8.126
    5AU     AUL 1619  17.894   6.785   8.289
    5AU    AUSL 1620  18.112   6.530   6.802
    5AU    AUSL 1621  18.348   6.205   6.982
    5AU     AUL 1622  18.400   6.230   6.655
    5AU    AUSL 1623  18.303   6.882   6.655
    5AU    AUSL 1624  18.002   6.895   7.009
    5AU     AUL 1625  17.889   6.730   6.748
    5AU    AUSL 1626  19.427   7.242   7.506
    5AU    AUSL 1627  19.348   7.054   7.096
    5AU     AUL 1628  19.708   7.235   7.189
    5AU    AUSL 1629  19.583   6.850   7.391
    5AU    AUSL 1630  19.536   6.553   7.764
    5AU     AUL 1631  19.839   6.613   7.547
    5AU    AUSL 1632  19.306   6.895   7.725
    5AU    AUSL 1633  19.124   7.299   7.786
    5AU     AUL 1634  19.487   7.085   7.887
    5AU    AUSL 1635  18.056   7.397   7.461
    5AU    AUSL 1636  18.085   7.182   7.831
    5AU     AUL 1637  17.768   7.414   7.652
    5AU    AUSL 1638  17.887   7.002   7.397
    5AU    AUSL 1639  18.033   7.318   7.054
    5AU     AUL 1640  17.773   7.232   7.194
    5AU    AUSL 1641  17.725   6.983   7.811
    5AU    AUSL 1642  17.720   6.621   7.366
    5AU     AUL 1643  17.539   6.958   7.499
    5AU    AUSL 1644  19.304   6.211   7.628
    5AU    AUSL 1645  19.152   6.492   7.940
    5AU     AUL 1646  19.455   6.397   8.017
    5AU    AUSL 1647  19.284   6.565   7.399
    5AU    AUSL 1648  19.271   6.158   7.205
    5AU     AUL 1649  19.533   6.368   7.280
    5AU    AUSL 1650  17.896   6.261   7.576
    5AU    AUSL 1651  18.070   6.457   7.207
    5AU     AUL 1652  17.714   6.348   7.232
    5AU    AUSL 1653  17.965   6.660   7.717
    5AU    AUSL 1654  18.181   6.300   7.888
    5AU     AUL 1655  17.861   6.312   7.924
    5AU    AUSL 1656  18.695   7.560   7.917
    5AU    AUSL 1657  18.250   7.579   7.798
    5AU     AUL 1658  18.447   7.635   8.169
    5AU    AUSL 1659  18.542   7.464   7.529
    5AU    AUSL 1660  18.788   7.585   7.191
    5AU     AUL 1661  18.526   7.820   7.471
    5AU    AUSL 1662  18.957   7.620   7.577
    5AU    AUSL 1663  18.973   7.381   8.175
    5AU     AUL 1664  19.069   7.637   7.911
    5AU    AUSL 1665  18.573   6.137   7.988
    5AU    AUSL 1666  18.993   6.093   7.880
    5AU     AUL 1667  18.748   6.018   8.250
    5AU    AUSL 1668  18.275   5.933   7.720
    5AU    AUSL 1669  18.341   6.291   8.300
    5AU     AUL 1670  18.253   6.000   8.074
    5AU    AUSL 1671  18.705   5.851   7.697
    5AU    AUSL 1672  18.500   6.069   7.383
    5AU     AUL 1673  18.394   5.717   7.496
    5AU    AUSL 1674  18.630   7.418   6.807
    5AU    AUSL 1675  19.170   7.428   7.236
    5AU     AUL 1676  18.956   7.538   6.888
    5AU    AUSL 1677  18.372   7.534   7.151
    5AU    AUSL 1678  18.396   7.117   6.979
    5AU     AUL 1679  18.311   7.393   6.777
    5AU    AUSL 1680  18.724   6.017   7.015
    5AU    AUSL 1681  18.098   6.028   7.289
    5AU     AUL 1682  18.394   5.867   7.058
    5AU    AUSL 1683  18.924   6.061   7.406
    5AU    AUSL 1684  18.955   6.369   7.006
    5AU     AUL 1685  19.038   6.015   7.014
    5AU       S 1686  19.190   5.882   8.273
    5AU     LIG 1687  19.354   5.418   8.269
    5AU     LIG 1688  19.444   4.957   8.360
    5AU     LIG 1689  19.649   4.710   8.735
    5AU       S 1690  19.055   6.626   8.747
    5AU     LIG 1691  19.456   6.742   8.776
    5AU     LIG 1692  19.694   6.791   9.180
    5AU     LIG 1693  19.761   6.860   9.652
    5AU       S 1694  18.704   6.469   8.638
    5AU     LIG 1695  18.723   6.489   9.085
    5AU     LIG 1696  19.168   6.550   9.267
    5AU     LIG 1697  19.539   6.399   9.525
    5AU       S 1698  18.258   6.834   8.631
    5AU     LIG 1699  18.336   6.840   9.077
    5AU     LIG 1700  17.950   6.718   9.299
    5AU     LIG 1701  17.516   6.650   9.472
    5AU       S 1702  18.713   7.403   8.545
    5AU     LIG 1703  19.011   7.675   8.735
    5AU     LIG 1704  19.433   7.519   8.797
    5AU     LIG 1705  19.726   7.191   8.792
    5AU       S 1706  19.445   7.297   8.307
    5AU     LIG 1707  19.880   7.304   8.310
    5AU     LIG 1708  20.014   7.631   8.611
    5AU     LIG 1709  20.175   8.001   8.864
    5AU       S 1710  19.001   6.893   6.314
    5AU     LIG 1711  19.453   6.941   6.233
    5AU     LIG 1712  19.624   6.566   6.038
    5AU     LIG 1713  19.444   6.151   5.886
    5AU       S 1714  19.400   7.510   6.821
    5AU     LIG 1715  19.468   7.721   6.437
    5AU     LIG 1716  19.698   7.865   6.062
    5AU     LIG 1717  20.138   7.912   5.956
    5AU       S 1718  19.541   6.289   6.803
    5AU     LIG 1719  19.666   6.170   6.376
    5AU     LIG 1720  19.760   5.782   6.159
    5AU     LIG 1721  20.068   5.438   6.033
    5AU       S 1722  19.024   6.707   6.261
    5AU     LIG 1723  18.966   6.306   6.110
    5AU     LIG 1724  18.955   6.149   5.665
    5AU     LIG 1725  19.224   6.258   5.290
    5AU       S 1726  18.217   6.544   6.332
    5AU     LIG 1727  18.439   6.329   6.031
    5AU     LIG 1728  18.437   6.279   5.566
    5AU     LIG 1729  18.275   6.463   5.163
    5AU       S 1730  18.752   7.036   6.428
    5AU     LIG 1731  18.551   6.848   6.055
    5AU     LIG 1732  18.772   6.634   5.757
    5AU     LIG 1733  19.217   6.596   5.723
    5AU       S 1734  18.050   6.947   8.689
    5AU     LIG 1735  17.763   6.648   8.790
    5AU     LIG 1736  17.661   6.319   9.074
    5AU     LIG 1737  17.561   6.126   9.489
    5AU       S 1738  17.973   7.559   8.156
    5AU     LIG 1739  17.903   7.683   8.545
    5AU     LIG 1740  17.517   7.798   8.752
    5AU     LIG 1741  17.099   7.910   8.940
    5AU       S 1742  17.875   6.335   8.417
    5AU     LIG 1743  17.479   6.430   8.252
    5AU     LIG 1744  17.195   6.098   8.130
    5AU     LIG 1745  17.131   5.895   8.527
    5AU       S 1746  18.239   6.660   8.584
    5AU     LIG 1747  18.190   6.379   8.941
    5AU     LIG 1748  18.075   6.231   9.369
    5AU     LIG 1749  17.890   6.424   9.762
    5AU       S 1750  18.057   6.449   6.426
    5AU     LIG 1751  17.882   6.287   6.036
    5AU     LIG 1752  17.925   6.391   5.581
    5AU     LIG 1753  17.857   6.755   5.275
    5AU       S 1754  18.014   6.027   6.819
    5AU     LIG 1755  18.259   5.762   6.570
    5AU     LIG 1756  18.083   5.807   6.161
    5AU     LIG 1757  17.628   5.773   6.045
    5AU       S 1758  17.719   7.153   6.710
    5AU     LIG 1759  17.432   7.472   6.795
    5AU     LIG 1760  17.509   7.903   6.622
    5AU     LIG 1761  17.386   8.148   6.222
    5AU       S 1762  18.238   6.833   6.437
    5AU     LIG 1763  17.847   6.878   6.236
    5AU     LIG 1764  17.905   6.862   5.798
    5AU     LIG 1765  18.297   6.781   5.577
    5AU       S 1766  19.467   7.393   6.850
    5AU     LIG 1767  19.734   7.280   6.515
    5AU     LIG 1768  20.019   7.466   6.202
    5AU     LIG 1769  20.475   7.537   6.068
    5AU       S 1770  19.605   7.437   7.602
    5AU     LIG 1771  19.957   7.637   7.416
    5AU     LIG 1772  20.371   7.610   7.559
    5AU     LIG 1773  20.649   7.811   7.851
    5AU       S 1774  19.871   7.073   7.593
    5AU     LIG 1775  20.302   7.118   7.399
    5AU     LIG 1776  20.731   7.314   7.289
    5AU     LIG 1777  21.109   7.204   7.020
    5AU       S 1778  19.776   6.184   7.767
    5AU     LIG 1779  20.128   5.944   7.845
    5AU     LIG 1780  20.530   6.016   7.718
    5AU     LIG 1781  20.902   5.851   7.859
    5AU       S 1782  19.467   7.501   8.091
    5AU     LIG 1783  19.830   7.784   8.138
    5AU     LIG 1784  19.982   8.145   8.406
    5AU     LIG 1785  19.846   8.462   8.732
    5AU       S 1786  19.863   7.232   7.695
    5AU     LIG 1787  20.270   7.217   7.900
    5AU     LIG 1788  20.710   7.291   7.800
    5AU     LIG 1789  20.984   7.493   8.076
    5AU       S 1790  17.890   7.390   8.093
    5AU     LIG 1791  17.671   7.235   8.448
    5AU     LIG 1792  17.246   7.384   8.630
    5AU     LIG 1793  16.795   7.555   8.716
    5AU       S 1794  17.984   7.722   7.361
    5AU     LIG 1795  17.701   8.052   7.193
    5AU     LIG 1796  17.298   8.136   7.023
    5AU     LIG 1797  17.039   7.791   6.891
    5AU       S 1798  17.507   6.867   7.036
    5AU     LIG 1799  17.091   6.998   7.182
    5AU     LIG 1800  16.707   7.251   7.071
    5AU     LIG 1801  16.546   7.646   6.881
    5AU       S 1802  17.898   7.570   6.886
    5AU     LIG 1803  18.033   7.900   6.701
    5AU     LIG 1804  17.885   8.276   6.763
    5AU     LIG 1805  17.468   8.426   6.640
    5AU       S 1806  17.481   6.507   7.618
    5AU     LIG 1807  17.188   6.499   7.273
    5AU     LIG 1808  16.719   6.550   7.113
    5AU     LIG 1809  16.316   6.285   7.003
    5AU       S 1810  17.599   7.008   7.981
    5AU     LIG 1811  17.245   7.071   8.207
    5AU     LIG 1812  16.917   7.396   8.223
    5AU     LIG 1813  16.543   7.458   7.957
    5AU       S 1814  19.465   6.055   7.646
    5AU     LIG 1815  19.532   5.669   7.468
    5AU     LIG 1816  19.944   5.520   7.578
    5AU     LIG 1817  20.370   5.518   7.717
    5AU       S 1818  19.364   5.969   8.130
    5AU     LIG 1819  19.665   5.708   7.964
    5AU     LIG 1820  20.042   5.481   8.110
    5AU     LIG 1821  20.146   5.191   8.463
    5AU       S 1822  19.749   6.125   7.590
    5AU     LIG 1823  19.883   5.980   7.260
    5AU     LIG 1824  20.279   5.842   7.303
    5AU     LIG 1825  20.704   5.959   7.243
    5AU       S 1826  19.499   6.039   6.925
    5AU     LIG 1827  19.326   5.630   6.971
    5AU     LIG 1828  19.280   5.354   6.647
    5AU     LIG 1829  19.428   4.917   6.613
    5AU       S 1830  17.884   6.130   6.866
    5AU     LIG 1831  17.607   6.315   6.628
    5AU     LIG 1832  17.362   6.132   6.303
    5AU     LIG 1833  17.089   5.786   6.167
    5AU       S 1834  17.496   6.260   7.649
    5AU     LIG 1835  17.109   6.134   7.616
    5AU     LIG 1836  16.812   6.088   7.301
    5AU     LIG 1837  16.621   5.724   7.102
    5AU       S 1838  17.887   6.115   8.337
    5AU     LIG 1839  17.791   5.838   7.985
    5AU     LIG 1840  17.437   5.620   8.033
    5AU     LIG 1841  17.230   5.393   8.358
    5AU       S 1842  17.503   6.557   7.783
    5AU     LIG 1843  17.085   6.569   7.917
    5AU     LIG 1844  16.759   6.536   7.625
    5AU     LIG 1845  16.395   6.308   7.513
    5AU       S 1846  18.130   7.747   7.831
    5AU     LIG 1847  17.705   7.862   7.870
    5AU     LIG 1848  17.451   7.667   8.218
    5AU     LIG 1849  17.087   7.857   8.424
    5AU       S 1850  18.697   7.913   7.889
    5AU     LIG 1851  18.885   7.931   8.279
    5AU     LIG 1852  18.835   8.396   8.257
    5AU     LIG 1853  18.491   8.721   8.173
    5AU       S 1854  18.840   8.082   7.783
    5AU     LIG 1855  18.446   8.299   7.678
    5AU     LIG 1856  18.329   8.720   7.612
    5AU     LIG 1857  18.281   9.092   7.858
    5AU       S 1858  18.694   7.900   7.039
    5AU     LIG 1859  18.672   8.320   7.224
    5AU     LIG 1860  18.737   8.780   7.296
    5AU     LIG 1861  18.991   9.129   7.132
    5AU       S 1862  19.208   7.476   8.332
    5AU     LIG 1863  19.402   7.876   8.427
    5AU     LIG 1864  19.662   7.975   8.784
    5AU     LIG 1865  19.835   7.680   9.106
    5AU       S 1866  18.980   7.934   7.548
    5AU     LIG 1867  19.059   8.440   7.540
    5AU     LIG 1868  18.825   8.747   7.794
    5AU     LIG 1869  18.774   9.152   8.025
    5AU       S 1870  18.552   5.630   8.087
    5AU     LIG 1871  18.848   5.287   8.174
    5AU     LIG 1872  18.891   4.938   8.468
    5AU     LIG 1873  19.014   4.526   8.674
    5AU       S 1874  19.128   5.926   7.979
    5AU     LIG 1875  19.174   5.534   7.819
    5AU     LIG 1876  19.510   5.228   7.768
    5AU     LIG 1877  19.849   5.027   7.993
    5AU       S 1878  18.349   5.568   7.931
    5AU     LIG 1879  18.340   5.155   8.031
    5AU     LIG 1880  18.586   4.821   8.032
    5AU     LIG 1881  18.600   4.494   8.337
    5AU       S 1882  18.140   6.210   8.480
    5AU     LIG 1883  17.912   5.951   8.800
    5AU     LIG 1884  17.558   5.653   8.706
    5AU     LIG 1885  17.178   5.489   8.912
    5AU       S 1886  18.791   5.620   7.293
    5AU     LIG 1887  18.557   5.239   7.166
    5AU     LIG 1888  18.515   4.998   6.829
    5AU     LIG 1889  18.493   4.611   6.956
    5AU       S 1890  18.695   5.673   7.866
    5AU     LIG 1891  18.733   5.271   7.678
    5AU     LIG 1892  19.055   4.948   7.823
    5AU     LIG 1893  19.070   4.599   8.149
    5AU       S 1894  18.564   7.798   6.765
    5AU     LIG 1895  18.419   8.253   6.770
    5AU     LIG 1896  18.612   8.681   6.809
    5AU     LIG 1897  18.948   8.993   6.645
    5AU       S 1898  19.371   7.588   7.139
    5AU     LIG 1899  19.812   7.757   6.931
    5AU     LIG 1900  19.972   7.899   6.501
    5AU     LIG 1901  20.102   8.313   6.295
    5AU       S 1902  18.370   7.796   7.028
    5AU     LIG 1903  18.194   8.161   7.219
    5AU     LIG 1904  18.193   8.607   7.117
    5AU     LIG 1905  18.342   9.051   7.094
    5AU       S 1906  17.934   7.202   6.617
    5AU     LIG 1907  17.803   7.548   6.378
    5AU     LIG 1908  17.873   7.973   6.222
    5AU     LIG 1909  17.844   8.426   6.279
    5AU       S 1910  17.920   5.946   7.096
    5AU     LIG 1911  17.429   6.013   7.020
    5AU     LIG 1912  17.241   5.749   6.702
    5AU     LIG 1913  17.353   5.419   6.385
    5AU       S 1914  18.810   5.644   7.142
    5AU     LIG 1915  18.741   5.508   6.745
    5AU     LIG 1916  18.837   5.146   6.462
    5AU     LIG 1917  18.568   4.779   6.330
    5AU       S 1918  19.044   5.739   7.395
    5AU     LIG 1919  19.134   5.278   7.366
    5AU     LIG 1920  19.010   5.072   6.965
    5AU     LIG 1921  18.942   4.704   6.684
    5AU       S 1922  19.273   6.191   6.672
    5AU     LIG 1923  18.885   6.003   6.533
    5AU     LIG 1924  18.970   5.613   6.287
    5AU     LIG 1925  19.228   5.236   6.131
    6AU     AUC 1926  34.933  19.605   7.526
    6AU     AUC 1927  35.190  19.608   7.359
    6AU     AUC 1928  35.176  19.600   7.695
    6AU     AUC 1929  34.660  19.598   7.370
    6AU     AUC 1930  34.683  19.643   7.697
    6AU     AUC 1931  34.772  19.863   7.496
    6AU     AUC 1932  35.113  19.873   7.502
    6AU     AUC 1933  34.760  19.346   7.546
    6AU     AUC 1934  35.094  19.333   7.541
    6AU     AUC 1935  34.931  19.453   7.801
    6AU     AUC 1936  34.941  19.797   7.773
    6AU     AUC 1937  34.930  19.423   7.273
    6AU     AUC 1938  34.944  19.737   7.255
    6AU     AUC 1939  35.506  19.611   7.198
    6AU     AUC 1940  35.496  19.585   7.537
    6AU     AUC 1941  35.456  19.576   7.893
    6AU     AUC 1942  34.358  19.561   7.230
    6AU     AUC 1943  34.360  19.635   7.559
    6AU     AUC 1944  34.388  19.690   7.879
    6AU     AUC 1945  34.607  20.165   7.443
    6AU     AUC 1946  34.967  20.158   7.430
    6AU     AUC 1947  35.304  20.148   7.470
    6AU     AUC 1948  34.571  19.061   7.563
    6AU     AUC 1949  34.918  19.040   7.542
    6AU     AUC 1950  35.271  19.036   7.547
    6AU     AUC 1951  34.909  19.291   8.101
    6AU     AUC 1952  34.922  19.643   8.091
    6AU     AUC 1953  34.973  20.002   8.056
    6AU     AUC 1954  34.963  19.239   6.992
    6AU     AUC 1955  34.917  19.569   6.950
    6AU     AUC 1956  34.906  19.887   6.945
    6AU     AUC 1957  35.174  19.414   8.009
    6AU     AUC 1958  35.222  19.776   7.988
    6AU     AUC 1959  35.236  19.445   7.062
    6AU     AUC 1960  35.207  19.763   7.077
    6AU     AUC 1961  34.644  19.513   8.008
    6AU     AUC 1962  34.676  19.867   7.962
    6AU     AUC 1963  34.649  19.385   7.104
    6AU     AUC 1964  34.612  19.695   7.063
    6AU     AUC 1965  35.427  19.879   7.343
    6AU     AUC 1966  35.377  19.867   7.690
    6AU     AUC 1967  34.469  19.873   7.359
    6AU     AUC 1968  34.511  19.956   7.688
    6AU     AUC 1969  35.397  19.324   7.382
    6AU     AUC 1970  35.353  19.288   7.728
    6AU     AUC 1971  34.463  19.296   7.402
    6AU     AUC 1972  34.493  19.371   7.736
    6AU     AUC 1973  34.821  20.104   7.758
    6AU     AUC 1974  35.147  20.075   7.777
    6AU     AUC 1975  34.748  19.174   7.832
    6AU     AUC 1976  35.060  19.125   7.815
    6AU     AUC 1977  34.743  20.023   7.188
    6AU     AUC 1978  35.103  20.052   7.202
    6AU     AUC 1979  34.770  19.133   7.267
    6AU     AUC 1980  35.143  19.171   7.264
    6AU    AUSL 1981  35.424  19.516   8.294
    6AU    AUSL 1982  35.200  19.127   8.216
    6AU     AUL 1983  35.519  19.182   8.396
    6AU    AUSL 1984  35.016  19.450   8.423
    6AU    AUSL 1985  34.776  19.841   8.421
    6AU     AUL 1986  35.007  19.749   8.698
    6AU    AUSL 1987  35.120  19.816   8.190
    6AU    AUSL 1988  35.564  19.866   8.105
    6AU     AUL 1989  35.406  19.821   8.451
    6AU    AUSL 1990  35.368  19.643   6.877
    6AU    AUSL 1991  35.228  20.036   6.964
    6AU     AUL 1992  35.436  19.971   6.673
    6AU    AUSL 1993  35.192  19.365   6.610
    6AU    AUSL 1994  35.671  19.374   6.975
    6AU     AUL 1995  35.571  19.513   6.642
    6AU    AUSL 1996  35.003  19.777   6.701
    6AU    AUSL 1997  34.820  19.382   6.806
    6AU     AUL 1998  34.919  19.430   6.485
    6AU    AUSL 1999  34.389  19.798   8.216
    6AU    AUSL 2000  34.721  20.118   8.108
    6AU     AUL 2001  34.556  20.087   8.434
    6AU    AUSL 2002  34.682  19.495   8.179
    6AU    AUSL 2003  34.273  19.369   8.147
    6AU     AUL 2004  34.188  19.588   8.285
    6AU    AUSL 2005  34.394  19.382   6.810
    6AU    AUSL 2006  34.626  19.056   6.987
    6AU     AUL 2007  34.666  19.076   6.653
    6AU    AUSL 2008  34.582  19.733   6.660
    6AU    AUSL 2009  34.283  19.739   7.022
    6AU     AUL 2010  34.166  19.589   6.760
    6AU    AUSL 2011  35.720  20.077   7.499
    6AU    AUSL 2012  35.633  19.895   7.088
    6AU     AUL 2013  35.986  20.081   7.175
    6AU    AUSL 2014  35.875  19.690   7.374
    6AU    AUSL 2015  35.839  19.387   7.739
    6AU     AUL 2016  36.132  19.460   7.527
    6AU    AUSL 2017  35.602  19.726   7.713
    6AU    AUSL 2018  35.426  20.132   7.790
    6AU     AUL 2019  35.794  19.901   7.865
    6AU    AUSL 2020  34.353  20.228   7.489
    6AU    AUSL 2021  34.389  20.012   7.856
    6AU     AUL 2022  34.071  20.257   7.688
    6AU    AUSL 2023  34.186  19.832   7.417
    6AU    AUSL 2024  34.313  20.159   7.080
    6AU     AUL 2025  34.062  20.065   7.229
    6AU    AUSL 2026  34.028  19.817   7.826
    6AU    AUSL 2027  34.006  19.456   7.411
    6AU     AUL 2028  33.824  19.787   7.530
    6AU    AUSL 2029  35.610  19.045   7.602
    6AU    AUSL 2030  35.461  19.319   7.925
    6AU     AUL 2031  35.773  19.234   7.989
    6AU    AUSL 2032  35.578  19.402   7.380
    6AU    AUSL 2033  35.565  18.997   7.180
    6AU     AUL 2034  35.827  19.211   7.249
    6AU    AUSL 2035  34.194  19.094   7.595
    6AU    AUSL 2036  34.339  19.296   7.213
    6AU     AUL 2037  33.973  19.175   7.282
    6AU    AUSL 2038  34.270  19.489   7.748
    6AU    AUSL 2039  34.502  19.123   7.884
    6AU     AUL 2040  34.195  19.098   7.936
    6AU    AUSL 2041  35.002  20.379   7.928
    6AU    AUSL 2042  34.557  20.407   7.822
    6AU     AUL 2043  34.776  20.458   8.186
    6AU    AUSL 2044  34.839  20.295   7.542
    6AU    AUSL 2045  35.075  20.425   7.200
    6AU     AUL 2046  34.812  20.647   7.485
    6AU    AUSL 2047  35.252  20.455   7.585
    6AU    AUSL 2048  35.281  20.199   8.184
    6AU     AUL 2049  35.361  20.467   7.942
    6AU    AUSL 2050  34.889  18.954   7.980
    6AU    AUSL 2051  35.304  18.921   7.857
    6AU     AUL 2052  35.066  18.833   8.236
    6AU    AUSL 2053  34.585  18.753   7.714
    6AU    AUSL 2054  34.662  19.104   8.296
    6AU     AUL 2055  34.573  18.812   8.069
    6AU    AUSL 2056  35.015  18.680   7.675
    6AU    AUSL 2057  34.794  18.901   7.374
    6AU     AUL 2058  34.700  18.540   7.471
    6AU    AUSL 2059  34.908  20.258   6.817
    6AU    AUSL 2060  35.455  20.264   7.239
    6AU     AUL 2061  35.241  20.369   6.882
    6AU    AUSL 2062  34.659  20.367   7.168
    6AU    AUSL 2063  34.676  19.956   6.992
    6AU     AUL 2064  34.582  20.238   6.801
    6AU    AUSL 2065  35.002  18.862   6.996
    6AU    AUSL 2066  34.388  18.868   7.297
    6AU     AUL 2067  34.663  18.718   7.044
    6AU    AUSL 2068  35.218  18.902   7.383
    6AU    AUSL 2069  35.241  19.209   6.993
    6AU     AUL 2070  35.324  18.846   6.996
    6AU       S 2071  35.515  18.734   8.255
    6AU     LIG 2072  35.642  18.319   8.301
    6AU     LIG 2073  35.711  17.883   8.277
    6AU     LIG 2074  36.083  17.653   8.374
    6AU       S 2075  35.361  19.433   8.748
    6AU     LIG 2076  35.768  19.494   8.741
    6AU     LIG 2077  35.949  19.601   9.150
    6AU     LIG 2078  35.913  19.604   9.622
    6AU       S 2079  35.021  19.275   8.632
    6AU     LIG 2080  35.030  19.288   9.091
    6AU     LIG 2081  35.437  19.310   9.363
    6AU     LIG 2082  35.695  19.140   9.737
    6AU       S 2083  34.565  19.633   8.635
    6AU     LIG 2084  34.651  19.647   9.077
    6AU     LIG 2085  34.326  19.500   9.372
    6AU     LIG 2086  34.062  19.598   9.737
    6AU       S 2087  35.030  20.208   8.561
    6AU     LIG 2088  35.295  20.574   8.651
    6AU     LIG 2089  35.713  20.439   8.799
    6AU     LIG 2090  35.810  19.998   8.789
    6AU       S 2091  35.754  20.104   8.285
    6AU     LIG 2092  36.109  20.249   8.447
    6AU     LIG 2093  36.191  20.607   8.658
    6AU     LIG 2094  36.458  20.898   8.871
    6AU       S 2095  35.283  19.744   6.312
    6AU     LIG 2096  35.738  19.728   6.186
    6AU     LIG 2097  35.949  19.386   5.998
    6AU     LIG 2098  35.840  19.056   5.717
    6AU       S 2099  35.693  20.361   6.850
    6AU     LIG 2100  35.580  20.709   6.645
    6AU     LIG 2101  35.733  20.787   6.224
    6AU     LIG 2102  36.066  20.863   5.918
    6AU       S 2103  35.813  19.123   6.758
    6AU     LIG 2104  35.836  18.952   6.277
    6AU     LIG 2105  35.908  18.507   6.154
    6AU     LIG 2106  36.082  18.109   6.394
    6AU       S 2107  35.289  19.561   6.260
    6AU     LIG 2108  35.397  19.204   6.042
    6AU     LIG 2109  35.342  19.115   5.585
    6AU     LIG 2110  35.650  19.216   5.247
    6AU       S 2111  34.493  19.400   6.327
    6AU     LIG 2112  34.787  19.224   6.026
    6AU     LIG 2113  34.776  19.194   5.560
    6AU     LIG 2114  34.411  19.261   5.255
    6AU       S 2115  35.031  19.884   6.438
    6AU     LIG 2116  34.832  19.730   6.058
    6AU     LIG 2117  35.105  19.552   5.757
    6AU     LIG 2118  35.574  19.556   5.690
    6AU       S 2119  34.357  19.741   8.684
    6AU     LIG 2120  34.059  19.452   8.779
    6AU     LIG 2121  33.964  19.192   9.130
    6AU     LIG 2122  33.893  19.128   9.586
    6AU       S 2123  34.300  20.403   8.199
    6AU     LIG 2124  34.025  20.653   8.414
    6AU     LIG 2125  33.682  20.651   8.695
    6AU     LIG 2126  33.422  20.722   9.069
    6AU       S 2127  34.194  19.136   8.420
    6AU     LIG 2128  33.774  19.098   8.261
    6AU     LIG 2129  33.432  18.792   8.317
    6AU     LIG 2130  33.212  18.612   8.718
    6AU       S 2131  34.546  19.465   8.578
    6AU     LIG 2132  34.476  19.192   8.953
    6AU     LIG 2133  34.377  18.994   9.377
    6AU     LIG 2134  34.347  19.164   9.824
    6AU       S 2135  34.340  19.328   6.432
    6AU     LIG 2136  34.240  18.935   6.299
    6AU     LIG 2137  34.316  19.039   5.865
    6AU     LIG 2138  34.393  19.473   5.757
    6AU       S 2139  34.274  18.905   6.834
    6AU     LIG 2140  34.239  18.540   6.652
    6AU     LIG 2141  33.919  18.384   6.385
    6AU     LIG 2142  33.524  18.358   6.152
    6AU       S 2143  33.974  20.007   6.751
    6AU     LIG 2144  33.638  20.331   6.788
    6AU     LIG 2145  33.519  20.714   6.555
    6AU     LIG 2146  33.525  20.879   6.106
    6AU       S 2147  34.519  19.690   6.449
    6AU     LIG 2148  34.327  19.870   6.129
    6AU     LIG 2149  34.500  19.967   5.710
    6AU     LIG 2150  34.712  19.695   5.392
    6AU       S 2151  35.753  20.253   6.835
    6AU     LIG 2152  35.876  20.158   6.429
    6AU     LIG 2153  36.086  20.386   6.107
    6AU     LIG 2154  36.490  20.588   6.041
    6AU       S 2155  35.897  20.274   7.592
    6AU     LIG 2156  36.224  20.580   7.585
    6AU     LIG 2157  36.659  20.617   7.559
    6AU     LIG 2158  37.006  20.525   7.288
    6AU       S 2159  36.176  19.924   7.570
    6AU     LIG 2160  36.591  20.110   7.422
    6AU     LIG 2161  37.005  20.014   7.230
    6AU     LIG 2162  37.308  20.252   6.961
    6AU       S 2163  36.080  19.017   7.724
    6AU     LIG 2164  36.387  18.882   7.989
    6AU     LIG 2165  36.846  18.889   7.950
    6AU     LIG 2166  37.140  18.829   7.600
    6AU       S 2167  35.778  20.320   8.069
    6AU     LIG 2168  36.137  20.642   8.104
    6AU     LIG 2169  36.190  21.039   8.385
    6AU     LIG 2170  36.183  21.310   8.792
    6AU       S 2171  36.151  20.094   7.680
    6AU     LIG 2172  36.498  20.267   7.907
    6AU     LIG 2173  36.973  20.287   7.816
    6AU     LIG 2174  37.395  20.188   8.037
    6AU       S 2175  34.219  20.218   8.122
    6AU     LIG 2176  33.999  20.058   8.451
    6AU     LIG 2177  33.563  20.179   8.453
    6AU     LIG 2178  33.248  20.396   8.707
    6AU       S 2179  34.296  20.565   7.401
    6AU     LIG 2180  34.154  20.981   7.405
    6AU     LIG 2181  33.788  20.894   7.168
    6AU     LIG 2182  33.741  20.450   7.269
    6AU       S 2183  33.799  19.690   7.070
    6AU     LIG 2184  33.379  19.539   6.987
    6AU     LIG 2185  33.022  19.797   6.961
    6AU     LIG 2186  33.081  20.266   6.822
    6AU       S 2187  34.166  20.417   6.922
    6AU     LIG 2188  34.144  20.819   6.728
    6AU     LIG 2189  33.849  21.106   6.477
    6AU     LIG 2190  33.591  21.416   6.212
    6AU       S 2191  33.800  19.351   7.703
    6AU     LIG 2192  33.455  19.348   7.450
    6AU     LIG 2193  33.063  19.208   7.248
    6AU     LIG 2194  32.770  19.207   6.881
    6AU       S 2195  33.914  19.866   7.999
    6AU     LIG 2196  33.609  19.687   8.190
    6AU     LIG 2197  33.258  19.751   7.914
    6AU     LIG 2198  33.169  19.768   7.463
    6AU       S 2199  35.774  18.888   7.616
    6AU     LIG 2200  35.872  18.485   7.472
    6AU     LIG 2201  36.229  18.249   7.659
    6AU     LIG 2202  36.623  18.447   7.814
    6AU       S 2203  35.677  18.812   8.110
    6AU     LIG 2204  35.975  18.561   7.970
    6AU     LIG 2205  36.140  18.209   8.194
    6AU     LIG 2206  36.040  18.090   8.637
    6AU       S 2207  36.062  18.960   7.539
    6AU     LIG 2208  36.376  18.668   7.407
    6AU     LIG 2209  36.818  18.545   7.293
    6AU     LIG 2210  37.215  18.692   7.084
    6AU       S 2211  35.779  18.882   6.894
    6AU     LIG 2212  35.662  18.448   6.983
    6AU     LIG 2213  35.696  17.981   6.874
    6AU     LIG 2214  35.775  17.697   6.513
    6AU       S 2215  34.146  19.005   6.898
    6AU     LIG 2216  33.875  19.141   6.624
    6AU     LIG 2217  33.619  18.821   6.415
    6AU     LIG 2218  33.176  18.671   6.381
    6AU       S 2219  33.797  19.108   7.717
    6AU     LIG 2220  33.549  18.788   7.795
    6AU     LIG 2221  33.160  18.817   7.602
    6AU     LIG 2222  32.723  18.879   7.671
    6AU       S 2223  34.225  18.913   8.356
    6AU     LIG 2224  33.989  18.661   8.069
    6AU     LIG 2225  33.646  18.358   8.097
    6AU     LIG 2226  33.268  18.293   8.336
    6AU       S 2227  33.843  19.385   7.861
    6AU     LIG 2228  33.391  19.255   7.966
    6AU     LIG 2229  33.028  19.304   7.760
    6AU     LIG 2230  32.649  19.283   7.974
    6AU       S 2231  34.441  20.575   7.870
    6AU     LIG 2232  34.043  20.761   7.902
    6AU     LIG 2233  33.668  20.950   8.163
    6AU     LIG 2234  33.271  20.889   8.445
    6AU       S 2235  35.001  20.761   7.896
    6AU     LIG 2236  35.259  20.904   8.225
    6AU     LIG 2237  35.250  21.291   8.507
    6AU     LIG 2238  34.957  21.682   8.498
    6AU       S 2239  35.054  20.981   7.728
    6AU     LIG 2240  34.581  21.059   7.772
    6AU     LIG 2241  34.504  21.458   8.007
    6AU     LIG 2242  34.846  21.731   7.990
    6AU       S 2243  34.981  20.714   7.053
    6AU     LIG 2244  35.130  21.043   7.221
    6AU     LIG 2245  35.206  21.394   7.443
    6AU     LIG 2246  35.369  21.761   7.220
    6AU       S 2247  35.547  20.288   8.340
    6AU     LIG 2248  35.714  20.720   8.373
    6AU     LIG 2249  35.813  20.949   8.746
    6AU     LIG 2250  36.021  20.791   9.126
    6AU       S 2251  35.266  20.748   7.581
    6AU     LIG 2252  35.519  21.089   7.803
    6AU     LIG 2253  35.279  21.406   8.018
    6AU     LIG 2254  35.366  21.838   8.236
    6AU       S 2255  34.879  18.444   8.064
    6AU     LIG 2256  35.199  18.114   8.137
    6AU     LIG 2257  35.229  17.662   8.250
    6AU     LIG 2258  35.075  17.203   8.307
    6AU       S 2259  35.446  18.771   7.962
    6AU     LIG 2260  35.495  18.411   7.816
    6AU     LIG 2261  35.754  18.098   7.820
    6AU     LIG 2262  36.084  17.803   7.893
    6AU       S 2263  34.678  18.385   7.908
    6AU     LIG 2264  34.602  18.017   7.664
    6AU     LIG 2265  34.727  17.666   7.907
    6AU     LIG 2266  34.585  17.278   8.107
    6AU       S 2267  34.472  19.000   8.496
    6AU     LIG 2268  34.144  18.814   8.821
    6AU     LIG 2269  33.764  18.572   8.660
    6AU     LIG 2270  33.518  18.186   8.781
    6AU       S 2271  35.108  18.460   7.266
    6AU     LIG 2272  34.867  18.051   7.184
    6AU     LIG 2273  34.969  17.687   6.916
    6AU     LIG 2274  35.031  17.223   7.005
    6AU       S 2275  35.012  18.504   7.839
    6AU     LIG 2276  35.086  18.145   7.642
    6AU     LIG 2277  35.303  17.794   7.732
    6AU     LIG 2278  35.143  17.397   7.828
    6AU       S 2279  34.850  20.634   6.777
    6AU     LIG 2280  34.903  21.106   6.761
    6AU     LIG 2281  35.247  21.412   6.863
    6AU     LIG 2282  35.372  21.856   6.706
    6AU       S 2283  35.634  20.428   7.150
    6AU     LIG 2284  35.967  20.751   7.005
    6AU     LIG 2285  36.109  20.904   6.581
    6AU     LIG 2286  36.401  21.064   6.251
    6AU       S 2287  34.645  20.649   7.035
    6AU     LIG 2288  34.625  21.051   7.233
    6AU     LIG 2289  34.807  21.453   7.132
    6AU     LIG 2290  34.851  21.735   6.775
    6AU       S 2291  34.204  20.056   6.638
    6AU     LIG 2292  34.003  20.412   6.431
    6AU     LIG 2293  34.035  20.748   6.142
    6AU     LIG 2294  33.952  21.145   5.943
    6AU       S 2295  34.193  18.788   7.114
    6AU     LIG 2296  33.777  18.664   6.897
    6AU     LIG 2297  33.493  18.349   6.685
    6AU     LIG 2298  33.590  17.926   6.455
    6AU       S 2299  35.070  18.488   7.117
    6AU     LIG 2300  35.237  18.181   6.843
    6AU     LIG 2301  35.268  17.836   6.540
    6AU     LIG 2302  35.086  17.419   6.479
    6AU       S 2303  35.355  18.571   7.373
    6AU     LIG 2304  35.501  18.139   7.358
    6AU     LIG 2305  35.367  17.762   7.205
    6AU     LIG 2306  35.449  17.476   6.863
    6AU       S 2307  35.543  19.039   6.653
    6AU     LIG 2308  35.439  18.623   6.555
    6AU     LIG 2309  35.577  18.219   6.423
    6AU     LIG 2310  35.721  18.011   6.023
    7AU     AUC 2311  21.905  19.930   7.528
    7AU     AUC 2312  22.168  19.924   7.370
    7AU     AUC 2313  22.141  19.924   7.705
    7AU     AUC 2314  21.642  19.929   7.362
    7AU     AUC 2315  21.648  19.978   7.688
    7AU     AUC 2316  21.751  20.193   7.485
    7AU     AUC 2317  22.092  20.194   7.503
    7AU     AUC 2318  21.725  19.675   7.546
    7AU     AUC 2319  22.059  19.654   7.554
    7AU     AUC 2320  21.885  19.785   7.806
    7AU     AUC 2321  21.907  20.128   7.769
    7AU     AUC 2322  21.909  19.742   7.278
    7AU     AUC 2323  21.928  20.055   7.254
    7AU     AUC 2324  22.486  19.917   7.224
    7AU     AUC 2325  22.466  19.901   7.563
    7AU     AUC 2326  22.414  19.900   7.918
    7AU     AUC 2327  21.345  19.897   7.210
    7AU     AUC 2328  21.333  19.978   7.535
    7AU     AUC 2329  21.349  20.039   7.857
    7AU     AUC 2330  21.597  20.497   7.419
    7AU     AUC 2331  21.955  20.479   7.418
    7AU     AUC 2332  22.291  20.462   7.466
    7AU     AUC 2333  21.528  19.396   7.562
    7AU     AUC 2334  21.876  19.366   7.554
    7AU     AUC 2335  22.227  19.357   7.573
    7AU     AUC 2336  21.845  19.630   8.107
    7AU     AUC 2337  21.872  19.982   8.090
    7AU     AUC 2338  21.935  20.339   8.048
    7AU     AUC 2339  21.951  19.549   7.002
    7AU     AUC 2340  21.907  19.879   6.951
    7AU     AUC 2341  21.903  20.197   6.939
    7AU     AUC 2342  22.120  19.743   8.023
    7AU     AUC 2343  22.178  20.102   7.996
    7AU     AUC 2344  22.222  19.752   7.080
    7AU     AUC 2345  22.195  20.068   7.084
    7AU     AUC 2346  21.590  19.858   7.997
    7AU     AUC 2347  21.639  20.209   7.946
    7AU     AUC 2348  21.636  19.706   7.099
    7AU     AUC 2349  21.603  20.017   7.052
    7AU     AUC 2350  22.410  20.190   7.356
    7AU     AUC 2351  22.348  20.186   7.704
    7AU     AUC 2352  21.453  20.208   7.338
    7AU     AUC 2353  21.487  20.297   7.666
    7AU     AUC 2354  22.367  19.636   7.410
    7AU     AUC 2355  22.307  19.610   7.755
    7AU     AUC 2356  21.438  19.629   7.389
    7AU     AUC 2357  21.448  19.713   7.721
    7AU     AUC 2358  21.797  20.439   7.742
    7AU     AUC 2359  22.118  20.399   7.773
    7AU     AUC 2360  21.692  19.512   7.834
    7AU     AUC 2361  22.005  19.455   7.830
    7AU     AUC 2362  21.737  20.346   7.172
    7AU     AUC 2363  22.098  20.366   7.197
    7AU     AUC 2364  21.749  19.454   7.272
    7AU     AUC 2365  22.119  19.484   7.282
    7AU    AUSL 2366  22.364  19.844   8.317
    7AU    AUSL 2367  22.125  19.462   8.232
    7AU     AUL 2368  22.430  19.496   8.425
    7AU    AUSL 2369  21.950  19.794   8.432
    7AU    AUSL 2370  21.724  20.195   8.411
    7AU     AUL 2371  21.939  20.095   8.707
    7AU    AUSL 2372  22.071  20.149   8.190
    7AU    AUSL 2373  22.519  20.190   8.129
    7AU     AUL 2374  22.334  20.159   8.460
    7AU    AUSL 2375  22.359  19.941   6.886
    7AU    AUSL 2376  22.220  20.336   6.970
    7AU     AUL 2377  22.440  20.262   6.691
    7AU    AUSL 2378  22.187  19.655   6.625
    7AU    AUSL 2379  22.660  19.685   7.021
    7AU     AUL 2380  22.563  19.798   6.670
    7AU    AUSL 2381  22.003  20.081   6.697
    7AU    AUSL 2382  21.810  19.696   6.808
    7AU     AUL 2383  21.923  19.736   6.481
    7AU    AUSL 2384  21.344  20.161   8.194
    7AU    AUSL 2385  21.690  20.462   8.084
    7AU     AUL 2386  21.513  20.449   8.404
    7AU    AUSL 2387  21.625  19.845   8.176
    7AU    AUSL 2388  21.211  19.742   8.115
    7AU     AUL 2389  21.147  19.956   8.275
    7AU    AUSL 2390  21.382  19.697   6.800
    7AU    AUSL 2391  21.613  19.372   6.985
    7AU     AUL 2392  21.667  19.387   6.656
    7AU    AUSL 2393  21.581  20.044   6.651
    7AU    AUSL 2394  21.276  20.066   7.003
    7AU     AUL 2395  21.157  19.909   6.743
    7AU    AUSL 2396  22.685  20.388   7.512
    7AU    AUSL 2397  22.617  20.186   7.110
    7AU     AUL 2398  22.950  20.375   7.179
    7AU    AUSL 2399  22.854  19.997   7.412
    7AU    AUSL 2400  22.797  19.702   7.790
    7AU     AUL 2401  23.106  19.768   7.593
    7AU    AUSL 2402  22.570  20.044   7.739
    7AU    AUSL 2403  22.396  20.448   7.805
    7AU     AUL 2404  22.760  20.223   7.899
    7AU    AUSL 2405  21.343  20.572   7.454
    7AU    AUSL 2406  21.360  20.359   7.825
    7AU     AUL 2407  21.053  20.598   7.646
    7AU    AUSL 2408  21.164  20.182   7.389
    7AU    AUSL 2409  21.318  20.487   7.048
    7AU     AUL 2410  21.057  20.414   7.188
    7AU    AUSL 2411  20.997  20.167   7.801
    7AU    AUSL 2412  20.986  19.806   7.354
    7AU     AUL 2413  20.814  20.141   7.489
    7AU    AUSL 2414  22.570  19.358   7.649
    7AU    AUSL 2415  22.408  19.642   7.952
    7AU     AUL 2416  22.713  19.548   8.039
    7AU    AUSL 2417  22.552  19.714   7.420
    7AU    AUSL 2418  22.540  19.309   7.225
    7AU     AUL 2419  22.805  19.522   7.312
    7AU    AUSL 2420  21.144  19.442   7.566
    7AU    AUSL 2421  21.334  19.630   7.205
    7AU     AUL 2422  20.965  19.549   7.213
    7AU    AUSL 2423  21.226  19.836   7.709
    7AU    AUSL 2424  21.435  19.469   7.876
    7AU     AUL 2425  21.119  19.467   7.913
    7AU    AUSL 2426  21.981  20.717   7.908
    7AU    AUSL 2427  21.538  20.749   7.793
    7AU     AUL 2428  21.738  20.802   8.159
    7AU    AUSL 2429  21.826  20.625   7.522
    7AU    AUSL 2430  22.078  20.734   7.184
    7AU     AUL 2431  21.825  20.977   7.458
    7AU    AUSL 2432  22.249  20.759   7.569
    7AU    AUSL 2433  22.233  20.532   8.186
    7AU     AUL 2434  22.352  20.782   7.918
    7AU    AUSL 2435  21.816  19.290   7.990
    7AU    AUSL 2436  22.239  19.250   7.881
    7AU     AUL 2437  21.987  19.169   8.249
    7AU    AUSL 2438  21.524  19.096   7.715
    7AU    AUSL 2439  21.583  19.455   8.293
    7AU     AUL 2440  21.473  19.163   8.059
    7AU    AUSL 2441  21.953  19.006   7.700
    7AU    AUSL 2442  21.760  19.227   7.383
    7AU     AUL 2443  21.638  18.872   7.485
    7AU    AUSL 2444  21.919  20.568   6.799
    7AU    AUSL 2445  22.464  20.581   7.216
    7AU     AUL 2446  22.241  20.672   6.870
    7AU    AUSL 2447  21.664  20.695   7.140
    7AU    AUSL 2448  21.677  20.275   6.977
    7AU     AUL 2449  21.599  20.551   6.771
    7AU    AUSL 2450  21.985  19.171   7.018
    7AU    AUSL 2451  21.357  19.203   7.292
    7AU     AUL 2452  21.644  19.039   7.051
    7AU    AUSL 2453  22.184  19.211   7.414
    7AU    AUSL 2454  22.230  19.514   7.015
    7AU     AUL 2455  22.307  19.139   7.037
    7AU       S 2456  22.430  19.047   8.279
    7AU     LIG 2457  22.633  18.654   8.350
    7AU     LIG 2458  22.835  18.296   8.392
    7AU     LIG 2459  23.002  18.136   8.749
    7AU       S 2460  22.305  19.784   8.761
    7AU     LIG 2461  22.707  20.000   8.754
    7AU     LIG 2462  22.859  20.101   9.182
    7AU     LIG 2463  22.706  19.939   9.610
    7AU       S 2464  21.956  19.622   8.646
    7AU     LIG 2465  21.943  19.696   9.102
    7AU     LIG 2466  22.264  19.658   9.461
    7AU     LIG 2467  22.503  19.448   9.820
    7AU       S 2468  21.494  20.008   8.630
    7AU     LIG 2469  21.519  20.003   9.089
    7AU     LIG 2470  21.166  19.869   9.357
    7AU     LIG 2471  20.875  19.944   9.716
    7AU       S 2472  21.978  20.552   8.559
    7AU     LIG 2473  22.231  20.859   8.736
    7AU     LIG 2474  22.598  20.755   8.945
    7AU     LIG 2475  22.906  20.479   8.819
    7AU       S 2476  22.697  20.436   8.320
    7AU     LIG 2477  23.117  20.392   8.380
    7AU     LIG 2478  23.393  20.657   8.633
    7AU     LIG 2479  23.492  21.013   8.939
    7AU       S 2480  22.296  20.040   6.325
    7AU     LIG 2481  22.767  20.034   6.263
    7AU     LIG 2482  22.889  19.732   5.943
    7AU     LIG 2483  22.743  19.340   5.726
    7AU       S 2484  22.688  20.657   6.808
    7AU     LIG 2485  22.856  20.922   6.477
    7AU     LIG 2486  23.060  21.160   6.149
    7AU     LIG 2487  23.431  21.407   6.084
    7AU       S 2488  22.851  19.458   6.839
    7AU     LIG 2489  22.860  19.483   6.377
    7AU     LIG 2490  22.708  19.093   6.199
    7AU     LIG 2491  22.844  18.633   6.241
    7AU       S 2492  22.304  19.872   6.277
    7AU     LIG 2493  22.374  19.499   6.115
    7AU     LIG 2494  22.220  19.332   5.719
    7AU     LIG 2495  22.388  19.397   5.301
    7AU       S 2496  21.494  19.701   6.331
    7AU     LIG 2497  21.659  19.565   5.947
    7AU     LIG 2498  21.687  19.552   5.476
    7AU     LIG 2499  21.419  19.762   5.135
    7AU       S 2500  22.042  20.191   6.440
    7AU     LIG 2501  21.836  20.044   6.066
    7AU     LIG 2502  22.060  19.827   5.762
    7AU     LIG 2503  22.486  19.787   5.632
    7AU       S 2504  21.288  20.138   8.671
    7AU     LIG 2505  21.025  19.814   8.788
    7AU     LIG 2506  20.960  19.473   9.052
    7AU     LIG 2507  20.833  19.458   9.493
    7AU       S 2508  21.257  20.745   8.152
    7AU     LIG 2509  21.138  20.819   8.560
    7AU     LIG 2510  20.741  20.914   8.776
    7AU     LIG 2511  20.419  21.178   9.000
    7AU       S 2512  21.109  19.509   8.405
    7AU     LIG 2513  20.714  19.322   8.601
    7AU     LIG 2514  20.426  19.030   8.405
    7AU     LIG 2515  20.270  18.626   8.523
    7AU       S 2516  21.486  19.828   8.577
    7AU     LIG 2517  21.465  19.531   8.934
    7AU     LIG 2518  21.366  19.405   9.390
    7AU     LIG 2519  21.212  19.542   9.830
    7AU       S 2520  21.325  19.617   6.435
    7AU     LIG 2521  21.144  19.417   6.079
    7AU     LIG 2522  21.203  19.599   5.657
    7AU     LIG 2523  21.092  19.994   5.450
    7AU       S 2524  21.268  19.219   6.826
    7AU     LIG 2525  21.261  18.815   6.750
    7AU     LIG 2526  20.967  18.835   6.442
    7AU     LIG 2527  20.736  18.776   6.066
    7AU       S 2528  21.004  20.340   6.704
    7AU     LIG 2529  20.719  20.653   6.858
    7AU     LIG 2530  20.779  21.000   6.586
    7AU     LIG 2531  20.764  21.054   6.121
    7AU       S 2532  21.521  19.991   6.442
    7AU     LIG 2533  21.219  20.096   6.184
    7AU     LIG 2534  21.386  20.218   5.805
    7AU     LIG 2535  21.659  20.065   5.484
    7AU       S 2536  22.776  20.548   6.809
    7AU     LIG 2537  23.224  20.646   6.767
    7AU     LIG 2538  23.346  20.778   6.339
    7AU     LIG 2539  23.454  20.921   5.888
    7AU       S 2540  22.846  20.566   7.598
    7AU     LIG 2541  23.112  20.812   7.440
    7AU     LIG 2542  23.492  20.822   7.663
    7AU     LIG 2543  23.892  20.839   7.512
    7AU       S 2544  23.138  20.232   7.569
    7AU     LIG 2545  23.458  20.452   7.287
    7AU     LIG 2546  23.841  20.606   7.072
    7AU     LIG 2547  24.208  20.460   6.843
    7AU       S 2548  23.048  19.335   7.803
    7AU     LIG 2549  23.401  19.042   7.941
    7AU     LIG 2550  23.851  19.050   7.907
    7AU     LIG 2551  24.038  19.217   7.544
    7AU       S 2552  22.744  20.637   8.106
    7AU     LIG 2553  23.171  20.839   8.140
    7AU     LIG 2554  23.392  21.148   8.419
    7AU     LIG 2555  23.263  21.453   8.755
    7AU       S 2556  23.124  20.361   7.680
    7AU     LIG 2557  23.272  20.089   8.012
    7AU     LIG 2558  23.520  20.454   8.073
    7AU     LIG 2559  23.918  20.563   7.955
    7AU       S 2560  21.156  20.571   8.095
    7AU     LIG 2561  20.853  20.418   8.416
    7AU     LIG 2562  20.408  20.568   8.591
    7AU     LIG 2563  20.080  20.809   8.876
    7AU       S 2564  21.297  20.890   7.362
    7AU     LIG 2565  21.023  21.167   7.340
    7AU     LIG 2566  20.705  21.226   7.050
    7AU     LIG 2567  20.304  21.181   6.858
    7AU       S 2568  20.776  20.061   7.026
    7AU     LIG 2569  20.354  20.079   7.238
    7AU     LIG 2570  19.906  20.241   7.216
    7AU     LIG 2571  19.666  20.631   7.101
    7AU       S 2572  21.197  20.753   6.884
    7AU     LIG 2573  21.204  21.196   6.842
    7AU     LIG 2574  20.882  21.499   6.651
    7AU     LIG 2575  20.497  21.403   6.413
    7AU       S 2576  20.727  19.691   7.609
    7AU     LIG 2577  20.443  19.575   7.260
    7AU     LIG 2578  19.967  19.605   7.185
    7AU     LIG 2579  19.546  19.859   7.144
    7AU       S 2580  20.875  20.198   7.962
    7AU     LIG 2581  20.539  20.077   8.157
    7AU     LIG 2582  20.242  20.433   8.122
    7AU     LIG 2583  20.242  20.886   7.991
    7AU       S 2584  22.732  19.206   7.670
    7AU     LIG 2585  22.835  18.816   7.510
    7AU     LIG 2586  23.236  18.643   7.614
    7AU     LIG 2587  23.616  18.884   7.481
    7AU       S 2588  22.598  19.123   8.141
    7AU     LIG 2589  22.928  18.882   8.008
    7AU     LIG 2590  23.165  18.710   8.318
    7AU     LIG 2591  23.047  18.648   8.753
    7AU       S 2592  23.025  19.274   7.616
    7AU     LIG 2593  23.226  19.247   7.221
    7AU     LIG 2594  23.685  19.229   7.109
    7AU     LIG 2595  24.000  18.881   7.107
    7AU       S 2596  22.768  19.197   6.957
    7AU     LIG 2597  22.658  18.848   6.689
    7AU     LIG 2598  22.618  18.398   6.651
    7AU     LIG 2599  22.763  18.000   6.439
    7AU       S 2600  21.141  19.301   6.876
    7AU     LIG 2601  20.860  19.480   6.651
    7AU     LIG 2602  20.659  19.245   6.322
    7AU     LIG 2603  20.296  18.963   6.268
    7AU       S 2604  20.760  19.446   7.630
    7AU     LIG 2605  20.524  19.143   7.788
    7AU     LIG 2606  20.302  19.114   7.423
    7AU     LIG 2607  20.028  19.055   7.063
    7AU       S 2608  21.133  19.322   8.350
    7AU     LIG 2609  20.940  19.046   8.110
    7AU     LIG 2610  20.690  18.696   8.123
    7AU     LIG 2611  20.314  18.657   7.961
    7AU       S 2612  20.780  19.743   7.782
    7AU     LIG 2613  20.655  19.520   8.134
    7AU     LIG 2614  20.210  19.394   8.103
    7AU     LIG 2615  20.038  19.480   7.681
    7AU       S 2616  21.400  20.923   7.840
    7AU     LIG 2617  20.951  21.029   7.883
    7AU     LIG 2618  20.689  20.888   8.250
    7AU     LIG 2619  20.306  21.071   8.483
    7AU       S 2620  21.993  21.076   7.875
    7AU     LIG 2621  22.182  21.087   8.271
    7AU     LIG 2622  22.198  21.536   8.298
    7AU     LIG 2623  21.864  21.835   8.179
    7AU       S 2624  22.155  21.226   7.764
    7AU     LIG 2625  21.865  21.563   7.687
    7AU     LIG 2626  21.810  22.014   7.684
    7AU     LIG 2627  21.997  22.300   7.992
    7AU       S 2628  22.002  21.042   7.029
    7AU     LIG 2629  22.053  21.432   7.239
    7AU     LIG 2630  22.147  21.901   7.310
    7AU     LIG 2631  22.347  22.308   7.082
    7AU       S 2632  22.461  20.623   8.352
    7AU     LIG 2633  22.695  20.968   8.474
    7AU     LIG 2634  23.017  20.991   8.765
    7AU     LIG 2635  23.099  20.789   9.183
    7AU       S 2636  22.289  21.063   7.536
    7AU     LIG 2637  22.442  21.556   7.557
    7AU     LIG 2638  22.274  21.860   7.865
    7AU     LIG 2639  22.327  22.057   8.306
    7AU       S 2640  21.768  18.793   8.083
    7AU     LIG 2641  22.144  18.595   8.229
    7AU     LIG 2642  22.303  18.224   8.429
    7AU     LIG 2643  22.082  17.854   8.623
    7AU       S 2644  22.370  19.070   7.982
    7AU     LIG 2645  22.485  18.675   7.854
    7AU     LIG 2646  22.848  18.379   7.889
    7AU     LIG 2647  23.285  18.284   8.084
    7AU       S 2648  21.588  18.723   7.922
    7AU     LIG 2649  21.607  18.240   7.908
    7AU     LIG 2650  21.638  17.752   7.973
    7AU     LIG 2651  21.759  17.495   8.355
    7AU       S 2652  21.399  19.374   8.470
    7AU     LIG 2653  21.335  18.902   8.471
    7AU     LIG 2654  20.892  18.819   8.580
    7AU     LIG 2655  20.557  18.809   8.899
    7AU       S 2656  22.056  18.763   7.308
    7AU     LIG 2657  22.060  18.330   7.052
    7AU     LIG 2658  21.776  18.058   6.823
    7AU     LIG 2659  21.467  17.770   6.978
    7AU       S 2660  21.939  18.836   7.855
    7AU     LIG 2661  22.043  18.466   7.708
    7AU     LIG 2662  22.308  18.167   7.908
    7AU     LIG 2663  22.142  17.818   8.126
    7AU       S 2664  21.861  20.953   6.756
    7AU     LIG 2665  21.779  21.431   6.793
    7AU     LIG 2666  22.047  21.829   6.817
    7AU     LIG 2667  22.404  22.102   6.616
    7AU       S 2668  22.638  20.739   7.131
    7AU     LIG 2669  22.968  21.030   6.988
    7AU     LIG 2670  23.259  21.206   6.673
    7AU     LIG 2671  23.464  21.603   6.573
    7AU       S 2672  21.661  20.963   7.008
    7AU     LIG 2673  21.537  21.328   7.238
    7AU     LIG 2674  21.656  21.769   7.221
    7AU     LIG 2675  21.788  22.200   7.100
    7AU       S 2676  21.217  20.377   6.609
    7AU     LIG 2677  21.231  20.780   6.392
    7AU     LIG 2678  21.192  21.239   6.322
    7AU     LIG 2679  20.904  21.564   6.120
    7AU       S 2680  21.191  19.143   7.143
    7AU     LIG 2681  20.742  19.100   7.138
    7AU     LIG 2682  20.566  18.931   6.747
    7AU     LIG 2683  20.488  18.541   6.488
    7AU       S 2684  22.028  18.805   7.178
    7AU     LIG 2685  22.166  18.725   6.773
    7AU     LIG 2686  22.124  18.334   6.538
    7AU     LIG 2687  22.079  17.904   6.389
    7AU       S 2688  22.314  18.888   7.432
    7AU     LIG 2689  22.523  18.628   7.147
    7AU     LIG 2690  22.563  18.177   7.128
    7AU     LIG 2691  22.368  17.957   6.802
    7AU       S 2692  22.557  19.334   6.717
    7AU     LIG 2693  22.253  19.150   6.504
    7AU     LIG 2694  22.331  18.737   6.284
    7AU     LIG 2695  22.452  18.295   6.151
    8AU     AUC 2696  14.872  15.825   7.524
    8AU     AUC 2697  15.132  15.830   7.364
    8AU     AUC 2698  15.110  15.830   7.700
    8AU     AUC 2699  14.605  15.812   7.361
    8AU     AUC 2700  14.616  15.864   7.686
    8AU     AUC 2701  14.707  16.082   7.482
    8AU     AUC 2702  15.048  16.097   7.498
    8AU     AUC 2703  14.704  15.564   7.545
    8AU     AUC 2704  15.038  15.556   7.550
    8AU     AUC 2705  14.864  15.681   7.801
    8AU     AUC 2706  14.868  16.024   7.765
    8AU     AUC 2707  14.880  15.636   7.275
    8AU     AUC 2708  14.887  15.949   7.251
    8AU     AUC 2709  15.451  15.835   7.213
    8AU     AUC 2710  15.433  15.819   7.555
    8AU     AUC 2711  15.385  15.817   7.910
    8AU     AUC 2712  14.309  15.765   7.214
    8AU     AUC 2713  14.298  15.848   7.538
    8AU     AUC 2714  14.316  15.911   7.856
    8AU     AUC 2715  14.541  16.379   7.414
    8AU     AUC 2716  14.899  16.376   7.412
    8AU     AUC 2717  15.235  16.373   7.459
    8AU     AUC 2718  14.520  15.275   7.565
    8AU     AUC 2719  14.869  15.261   7.553
    8AU     AUC 2720  15.218  15.264   7.569
    8AU     AUC 2721  14.834  15.526   8.106
    8AU     AUC 2722  14.843  15.878   8.086
    8AU     AUC 2723  14.888  16.237   8.043
    8AU     AUC 2724  14.925  15.445   6.999
    8AU     AUC 2725  14.870  15.772   6.949
    8AU     AUC 2726  14.854  16.088   6.936
    8AU     AUC 2727  15.101  15.650   8.018
    8AU     AUC 2728  15.142  16.011   7.992
    8AU     AUC 2729  15.190  15.659   7.072
    8AU     AUC 2730  15.153  15.972   7.079
    8AU     AUC 2731  14.569  15.740   7.996
    8AU     AUC 2732  14.599  16.095   7.943
    8AU     AUC 2733  14.606  15.588   7.100
    8AU     AUC 2734  14.561  15.897   7.051
    8AU     AUC 2735  15.366  16.104   7.350
    8AU     AUC 2736  15.303  16.100   7.696
    8AU     AUC 2737  14.408  16.083   7.336
    8AU     AUC 2738  14.442  16.175   7.663
    8AU     AUC 2739  15.344  15.550   7.399
    8AU     AUC 2740  15.290  15.522   7.747
    8AU     AUC 2741  14.415  15.505   7.394
    8AU     AUC 2742  14.429  15.590   7.724
    8AU     AUC 2743  14.746  16.331   7.737
    8AU     AUC 2744  15.067  16.305   7.767
    8AU     AUC 2745  14.684  15.399   7.834
    8AU     AUC 2746  14.998  15.355   7.829
    8AU     AUC 2747  14.684  16.233   7.168
    8AU     AUC 2748  15.046  16.268   7.191
    8AU     AUC 2749  14.730  15.343   7.273
    8AU     AUC 2750  15.101  15.388   7.277
    8AU    AUSL 2751  15.342  15.762   8.309
    8AU    AUSL 2752  15.122  15.372   8.233
    8AU     AUL 2753  15.431  15.420   8.419
    8AU    AUSL 2754  14.931  15.697   8.430
    8AU    AUSL 2755  14.685  16.085   8.406
    8AU     AUL 2756  14.913  16.004   8.696
    8AU    AUSL 2757  15.035  16.054   8.185
    8AU    AUSL 2758  15.479  16.116   8.123
    8AU     AUL 2759  15.309  16.073   8.454
    8AU    AUSL 2760  15.320  15.854   6.879
    8AU    AUSL 2761  15.166  16.240   6.968
    8AU     AUL 2762  15.371  16.179   6.682
    8AU    AUSL 2763  15.154  15.565   6.618
    8AU    AUSL 2764  15.630  15.604   7.005
    8AU     AUL 2765  15.528  15.727   6.656
    8AU    AUSL 2766  14.954  15.976   6.698
    8AU    AUSL 2767  14.779  15.580   6.807
    8AU     AUL 2768  14.886  15.626   6.483
    8AU    AUSL 2769  14.309  16.028   8.188
    8AU    AUSL 2770  14.637  16.352   8.082
    8AU     AUL 2771  14.455  16.327   8.403
    8AU    AUSL 2772  14.607  15.729   8.171
    8AU    AUSL 2773  14.199  15.598   8.126
    8AU     AUL 2774  14.117  15.821   8.265
    8AU    AUSL 2775  14.352  15.568   6.804
    8AU    AUSL 2776  14.593  15.253   6.990
    8AU     AUL 2777  14.641  15.265   6.660
    8AU    AUSL 2778  14.535  15.921   6.651
    8AU    AUSL 2779  14.234  15.933   7.004
    8AU     AUL 2780  14.118  15.760   6.747
    8AU    AUSL 2781  15.628  16.314   7.503
    8AU    AUSL 2782  15.574  16.110   7.097
    8AU     AUL 2783  15.902  16.317   7.188
    8AU    AUSL 2784  15.815  15.931   7.404
    8AU    AUSL 2785  15.773  15.632   7.772
    8AU     AUL 2786  16.078  15.708   7.567
    8AU    AUSL 2787  15.533  15.968   7.734
    8AU    AUSL 2788  15.341  16.366   7.799
    8AU     AUL 2789  15.707  16.164   7.892
    8AU    AUSL 2790  14.285  16.443   7.450
    8AU    AUSL 2791  14.314  16.233   7.822
    8AU     AUL 2792  13.993  16.462   7.640
    8AU    AUSL 2793  14.121  16.045   7.391
    8AU    AUSL 2794  14.259  16.356   7.044
    8AU     AUL 2795  14.003  16.273   7.186
    8AU    AUSL 2796  13.958  16.029   7.803
    8AU    AUSL 2797  13.956  15.662   7.371
    8AU     AUL 2798  13.773  15.999   7.498
    8AU    AUSL 2799  15.552  15.283   7.634
    8AU    AUSL 2800  15.391  15.560   7.946
    8AU     AUL 2801  15.699  15.476   8.024
    8AU    AUSL 2802  15.525  15.636   7.405
    8AU    AUSL 2803  15.527  15.227   7.212
    8AU     AUL 2804  15.785  15.448   7.293
    8AU    AUSL 2805  14.136  15.304   7.579
    8AU    AUSL 2806  14.304  15.497   7.208
    8AU     AUL 2807  13.937  15.377   7.246
    8AU    AUSL 2808  14.201  15.703   7.721
    8AU    AUSL 2809  14.435  15.344   7.877
    8AU     AUL 2810  14.124  15.320   7.919
    8AU    AUSL 2811  14.918  16.615   7.901
    8AU    AUSL 2812  14.475  16.630   7.786
    8AU     AUL 2813  14.672  16.692   8.159
    8AU    AUSL 2814  14.766  16.517   7.515
    8AU    AUSL 2815  15.012  16.633   7.176
    8AU     AUL 2816  14.743  16.869   7.449
    8AU    AUSL 2817  15.182  16.669   7.560
    8AU    AUSL 2818  15.177  16.444   8.182
    8AU     AUL 2819  15.282  16.700   7.915
    8AU    AUSL 2820  14.823  15.185   7.992
    8AU    AUSL 2821  15.245  15.156   7.887
    8AU     AUL 2822  14.995  15.078   8.259
    8AU    AUSL 2823  14.535  14.972   7.723
    8AU    AUSL 2824  14.582  15.339   8.295
    8AU     AUL 2825  14.506  15.036   8.072
    8AU    AUSL 2826  14.967  14.906   7.700
    8AU    AUSL 2827  14.754  15.118   7.387
    8AU     AUL 2828  14.660  14.762   7.493
    8AU    AUSL 2829  14.858  16.457   6.792
    8AU    AUSL 2830  15.404  16.499   7.206
    8AU     AUL 2831  15.185  16.583   6.864
    8AU    AUSL 2832  14.598  16.576   7.133
    8AU    AUSL 2833  14.626  16.159   6.973
    8AU     AUL 2834  14.537  16.422   6.762
    8AU    AUSL 2835  14.974  15.071   7.016
    8AU    AUSL 2836  14.351  15.072   7.301
    8AU     AUL 2837  14.642  14.924   7.056
    8AU    AUSL 2838  15.178  15.120   7.407
    8AU    AUSL 2839  15.206  15.423   7.007
    8AU     AUL 2840  15.298  15.058   7.022
    8AU       S 2841  15.443  14.965   8.289
    8AU     LIG 2842  15.646  14.552   8.329
    8AU     LIG 2843  15.741  14.126   8.492
    8AU     LIG 2844  16.170  13.887   8.520
    8AU       S 2845  15.280  15.697   8.757
    8AU     LIG 2846  15.695  15.838   8.698
    8AU     LIG 2847  15.887  15.892   9.116
    8AU     LIG 2848  15.780  15.720   9.559
    8AU       S 2849  14.943  15.529   8.646
    8AU     LIG 2850  14.967  15.519   9.112
    8AU     LIG 2851  15.326  15.439   9.441
    8AU     LIG 2852  15.634  15.215   9.743
    8AU       S 2853  14.476  15.881   8.619
    8AU     LIG 2854  14.572  15.882   9.065
    8AU     LIG 2855  14.229  15.778   9.356
    8AU     LIG 2856  13.947  15.908   9.718
    8AU       S 2857  14.913  16.460   8.549
    8AU     LIG 2858  15.139  16.773   8.719
    8AU     LIG 2859  15.511  16.633   8.900
    8AU     LIG 2860  15.820  16.337   8.808
    8AU       S 2861  15.648  16.377   8.311
    8AU     LIG 2862  16.075  16.345   8.361
    8AU     LIG 2863  16.248  16.626   8.699
    8AU     LIG 2864  16.500  16.902   8.984
    8AU       S 2865  15.230  15.955   6.314
    8AU     LIG 2866  15.677  16.034   6.282
    8AU     LIG 2867  15.740  15.598   6.153
    8AU     LIG 2868  15.608  15.201   5.932
    8AU       S 2869  15.640  16.537   6.810
    8AU     LIG 2870  15.514  16.875   6.568
    8AU     LIG 2871  15.692  17.048   6.171
    8AU     LIG 2872  16.052  17.274   5.973
    8AU       S 2873  15.795  15.365   6.810
    8AU     LIG 2874  15.890  15.156   6.389
    8AU     LIG 2875  15.760  14.774   6.180
    8AU     LIG 2876  15.708  14.320   6.156
    8AU       S 2877  15.257  15.775   6.266
    8AU     LIG 2878  15.171  15.380   6.134
    8AU     LIG 2879  15.089  15.211   5.727
    8AU     LIG 2880  15.110  15.394   5.302
    8AU       S 2881  14.460  15.576   6.333
    8AU     LIG 2882  14.651  15.423   5.983
    8AU     LIG 2883  14.639  15.438   5.518
    8AU     LIG 2884  14.491  15.672   5.138
    8AU       S 2885  14.978  16.085   6.431
    8AU     LIG 2886  14.775  15.923   6.058
    8AU     LIG 2887  15.006  15.725   5.756
    8AU     LIG 2888  15.429  15.628   5.713
    8AU       S 2889  14.273  15.981   8.668
    8AU     LIG 2890  13.947  15.724   8.722
    8AU     LIG 2891  13.847  15.447   9.027
    8AU     LIG 2892  13.793  15.488   9.463
    8AU       S 2893  14.191  16.610   8.139
    8AU     LIG 2894  14.113  16.760   8.520
    8AU     LIG 2895  13.778  16.937   8.777
    8AU     LIG 2896  13.429  17.124   9.006
    8AU       S 2897  14.118  15.372   8.409
    8AU     LIG 2898  13.723  15.459   8.298
    8AU     LIG 2899  13.355  15.178   8.291
    8AU     LIG 2900  13.090  14.796   8.390
    8AU       S 2901  14.463  15.705   8.569
    8AU     LIG 2902  14.358  15.452   8.924
    8AU     LIG 2903  14.243  15.264   9.323
    8AU     LIG 2904  14.212  15.435   9.762
    8AU       S 2905  14.305  15.490   6.430
    8AU     LIG 2906  14.088  15.385   6.065
    8AU     LIG 2907  14.216  15.649   5.724
    8AU     LIG 2908  14.096  15.922   5.359
    8AU       S 2909  14.250  15.067   6.830
    8AU     LIG 2910  14.218  14.965   6.401
    8AU     LIG 2911  14.002  14.605   6.214
    8AU     LIG 2912  13.706  14.371   5.959
    8AU       S 2913  13.952  16.182   6.702
    8AU     LIG 2914  13.665  16.496   6.714
    8AU     LIG 2915  13.758  16.943   6.657
    8AU     LIG 2916  13.733  17.249   6.304
    8AU       S 2917  14.472  15.866   6.439
    8AU     LIG 2918  14.139  15.945   6.190
    8AU     LIG 2919  14.259  16.149   5.814
    8AU     LIG 2920  14.592  15.973   5.552
    8AU       S 2921  15.755  16.413   6.773
    8AU     LIG 2922  15.831  16.543   6.337
    8AU     LIG 2923  16.119  16.761   6.070
    8AU     LIG 2924  16.497  17.003   6.118
    8AU       S 2925  15.787  16.524   7.596
    8AU     LIG 2926  16.138  16.729   7.348
    8AU     LIG 2927  16.602  16.744   7.435
    8AU     LIG 2928  16.825  16.607   7.821
    8AU       S 2929  16.073  16.173   7.594
    8AU     LIG 2930  16.421  16.264   7.361
    8AU     LIG 2931  16.869  16.291   7.359
    8AU     LIG 2932  17.238  16.219   7.077
    8AU       S 2933  16.021  15.272   7.767
    8AU     LIG 2934  16.173  15.171   8.150
    8AU     LIG 2935  16.624  15.094   8.133
    8AU     LIG 2936  16.848  15.204   7.738
    8AU       S 2937  15.680  16.577   8.107
    8AU     LIG 2938  16.037  16.849   8.277
    8AU     LIG 2939  16.286  17.152   8.576
    8AU     LIG 2940  16.186  17.304   9.023
    8AU       S 2941  16.053  16.371   7.696
    8AU     LIG 2942  16.434  16.252   7.922
    8AU     LIG 2943  16.864  16.101   7.881
    8AU     LIG 2944  17.200  16.334   8.092
    8AU       S 2945  14.117  16.430   8.079
    8AU     LIG 2946  13.910  16.277   8.432
    8AU     LIG 2947  13.539  16.506   8.576
    8AU     LIG 2948  13.187  16.716   8.795
    8AU       S 2949  14.223  16.762   7.352
    8AU     LIG 2950  14.162  17.159   7.549
    8AU     LIG 2951  13.890  17.181   7.204
    8AU     LIG 2952  13.739  16.739   7.160
    8AU       S 2953  13.740  15.904   7.037
    8AU     LIG 2954  13.319  16.081   6.996
    8AU     LIG 2955  12.852  16.196   7.003
    8AU     LIG 2956  12.631  16.516   7.274
    8AU       S 2957  14.126  16.605   6.869
    8AU     LIG 2958  14.268  16.950   6.674
    8AU     LIG 2959  14.112  17.346   6.646
    8AU     LIG 2960  13.829  17.708   6.548
    8AU       S 2961  13.730  15.556   7.644
    8AU     LIG 2962  13.363  15.659   7.433
    8AU     LIG 2963  12.995  15.693   7.145
    8AU     LIG 2964  12.528  15.625   7.107
    8AU       S 2965  13.802  16.063   7.982
    8AU     LIG 2966  13.403  16.120   8.212
    8AU     LIG 2967  12.977  16.334   8.160
    8AU     LIG 2968  12.677  16.526   7.812
    8AU       S 2969  15.714  15.133   7.655
    8AU     LIG 2970  15.797  14.750   7.462
    8AU     LIG 2971  16.222  14.619   7.574
    8AU     LIG 2972  16.612  14.705   7.799
    8AU       S 2973  15.620  15.049   8.142
    8AU     LIG 2974  15.913  14.784   7.953
    8AU     LIG 2975  16.238  14.633   8.150
    8AU     LIG 2976  16.160  14.424   8.541
    8AU       S 2977  16.001  15.207   7.608
    8AU     LIG 2978  16.154  15.062   7.274
    8AU     LIG 2979  16.573  14.962   7.329
    8AU     LIG 2980  16.942  15.091   7.121
    8AU       S 2981  15.755  15.122   6.939
    8AU     LIG 2982  15.630  14.775   6.700
    8AU     LIG 2983  15.649  14.346   6.663
    8AU     LIG 2984  15.363  14.076   6.488
    8AU       S 2985  14.125  15.174   6.884
    8AU     LIG 2986  13.861  15.298   6.573
    8AU     LIG 2987  13.676  14.996   6.287
    8AU     LIG 2988  13.401  14.610   6.304
    8AU       S 2989  13.735  15.330   7.676
    8AU     LIG 2990  13.387  15.173   7.770
    8AU     LIG 2991  13.088  15.175   7.480
    8AU     LIG 2992  12.706  15.130   7.270
    8AU       S 2993  14.140  15.145   8.339
    8AU     LIG 2994  13.791  14.994   8.086
    8AU     LIG 2995  13.437  14.721   8.013
    8AU     LIG 2996  13.272  14.348   8.188
    8AU       S 2997  13.774  15.596   7.813
    8AU     LIG 2998  13.375  15.651   7.980
    8AU     LIG 2999  13.005  15.420   8.001
    8AU     LIG 3000  12.740  15.084   7.852
    8AU       S 3001  14.352  16.780   7.823
    8AU     LIG 3002  14.217  17.111   8.076
    8AU     LIG 3003  13.813  17.158   8.292
    8AU     LIG 3004  13.384  17.081   8.470
    8AU       S 3005  14.909  16.974   7.864
    8AU     LIG 3006  15.084  17.034   8.252
    8AU     LIG 3007  15.068  17.496   8.341
    8AU     LIG 3008  14.766  17.828   8.500
    8AU       S 3009  15.063  17.132   7.740
    8AU     LIG 3010  14.843  17.509   7.853
    8AU     LIG 3011  14.588  17.883   7.998
    8AU     LIG 3012  14.308  18.283   7.968
    8AU       S 3013  14.919  16.940   7.018
    8AU     LIG 3014  14.899  17.337   7.261
    8AU     LIG 3015  15.113  17.750   7.213
    8AU     LIG 3016  15.163  18.049   6.871
    8AU       S 3017  15.397  16.543   8.348
    8AU     LIG 3018  15.560  16.920   8.459
    8AU     LIG 3019  15.858  16.979   8.775
    8AU     LIG 3020  16.010  16.776   9.146
    8AU       S 3021  15.205  16.960   7.522
    8AU     LIG 3022  15.371  17.431   7.519
    8AU     LIG 3023  15.318  17.728   7.873
    8AU     LIG 3024  15.127  18.014   8.193
    8AU       S 3025  14.828  14.678   8.094
    8AU     LIG 3026  15.171  14.351   8.182
    8AU     LIG 3027  15.274  13.886   8.299
    8AU     LIG 3028  15.085  13.431   8.359
    8AU       S 3029  15.386  15.014   7.999
    8AU     LIG 3030  15.443  14.654   7.841
    8AU     LIG 3031  15.604  14.290   7.896
    8AU     LIG 3032  16.016  14.168   8.064
    8AU       S 3033  14.635  14.602   7.930
    8AU     LIG 3034  14.727  14.137   7.985
    8AU     LIG 3035  14.797  13.673   7.998
    8AU     LIG 3036  14.494  13.356   8.134
    8AU       S 3037  14.386  15.240   8.485
    8AU     LIG 3038  14.053  15.035   8.799
    8AU     LIG 3039  13.645  14.829   8.613
    8AU     LIG 3040  13.344  14.444   8.690
    8AU       S 3041  15.069  14.674   7.301
    8AU     LIG 3042  14.981  14.228   7.208
    8AU     LIG 3043  14.958  13.994   6.895
    8AU     LIG 3044  14.961  13.619   7.120
    8AU       S 3045  14.962  14.732   7.871
    8AU     LIG 3046  15.053  14.361   7.683
    8AU     LIG 3047  15.209  13.948   7.801
    8AU     LIG 3048  15.375  13.504   7.932
    8AU       S 3049  14.789  16.827   6.740
    8AU     LIG 3050  14.678  17.266   6.698
    8AU     LIG 3051  14.884  17.655   6.737
    8AU     LIG 3052  14.994  17.987   6.402
    8AU       S 3053  15.593  16.661   7.094
    8AU     LIG 3054  15.935  16.922   6.890
    8AU     LIG 3055  16.106  17.086   6.486
    8AU     LIG 3056  16.375  17.450   6.342
    8AU       S 3057  14.598  16.827   7.003
    8AU     LIG 3058  14.422  17.175   7.126
    8AU     LIG 3059  14.392  17.579   6.992
    8AU     LIG 3060  14.419  17.756   6.575
    8AU       S 3061  14.157  16.235   6.608
    8AU     LIG 3062  14.066  16.607   6.353
    8AU     LIG 3063  14.187  17.049   6.181
    8AU     LIG 3064  14.167  17.536   6.164
    8AU       S 3065  14.183  14.983   7.146
    8AU     LIG 3066  13.796  14.843   7.042
    8AU     LIG 3067  13.774  14.628   6.667
    8AU     LIG 3068  13.735  14.212   6.470
    8AU       S 3069  15.041  14.706   7.160
    8AU     LIG 3070  15.170  14.521   6.808
    8AU     LIG 3071  14.916  14.309   6.496
    8AU     LIG 3072  14.894  13.867   6.373
    8AU       S 3073  15.304  14.790   7.399
    8AU     LIG 3074  15.464  14.349   7.363
    8AU     LIG 3075  15.441  14.040   7.015
    8AU     LIG 3076  15.333  13.650   6.765
    8AU       S 3077  15.522  15.262   6.687
    8AU     LIG 3078  15.193  15.019   6.529
    8AU     LIG 3079  15.290  14.609   6.313
    8AU     LIG 3080  15.213  14.251   6.023
    9AU     AUC 3081   5.950  26.874   7.525
    9AU     AUC 3082   6.211  26.870   7.363
    9AU     AUC 3083   6.192  26.868   7.698
    9AU     AUC 3084   5.680  26.871   7.363
    9AU     AUC 3085   5.698  26.921   7.689
    9AU     AUC 3086   5.795  27.137   7.486
    9AU     AUC 3087   6.135  27.139   7.499
    9AU     AUC 3088   5.772  26.620   7.545
    9AU     AUC 3089   6.107  26.601   7.546
    9AU     AUC 3090   5.939  26.727   7.801
    9AU     AUC 3091   5.956  27.070   7.767
    9AU     AUC 3092   5.949  26.688   7.275
    9AU     AUC 3093   5.968  27.000   7.252
    9AU     AUC 3094   6.529  26.867   7.210
    9AU     AUC 3095   6.514  26.849   7.550
    9AU     AUC 3096   6.469  26.846   7.906
    9AU     AUC 3097   5.380  26.838   7.218
    9AU     AUC 3098   5.378  26.920   7.544
    9AU     AUC 3099   5.402  26.979   7.862
    9AU     AUC 3100   5.639  27.443   7.423
    9AU     AUC 3101   5.997  27.425   7.417
    9AU     AUC 3102   6.332  27.410   7.462
    9AU     AUC 3103   5.576  26.339   7.565
    9AU     AUC 3104   5.926  26.311   7.548
    9AU     AUC 3105   6.280  26.304   7.560
    9AU     AUC 3106   5.906  26.569   8.103
    9AU     AUC 3107   5.927  26.920   8.088
    9AU     AUC 3108   5.986  27.278   8.047
    9AU     AUC 3109   5.983  26.498   6.998
    9AU     AUC 3110   5.942  26.826   6.949
    9AU     AUC 3111   5.938  27.143   6.940
    9AU     AUC 3112   6.178  26.685   8.014
    9AU     AUC 3113   6.230  27.044   7.992
    9AU     AUC 3114   6.259  26.701   7.070
    9AU     AUC 3115   6.234  27.015   7.080
    9AU     AUC 3116   5.648  26.794   8.000
    9AU     AUC 3117   5.691  27.148   7.949
    9AU     AUC 3118   5.669  26.651   7.102
    9AU     AUC 3119   5.639  26.961   7.055
    9AU     AUC 3120   6.453  27.138   7.350
    9AU     AUC 3121   6.391  27.130   7.695
    9AU     AUC 3122   5.496  27.151   7.342
    9AU     AUC 3123   5.535  27.240   7.671
    9AU     AUC 3124   6.414  26.585   7.394
    9AU     AUC 3125   6.362  26.556   7.740
    9AU     AUC 3126   5.476  26.574   7.397
    9AU     AUC 3127   5.500  26.654   7.728
    9AU     AUC 3128   5.846  27.382   7.743
    9AU     AUC 3129   6.164  27.343   7.771
    9AU     AUC 3130   5.750  26.451   7.832
    9AU     AUC 3131   6.063  26.398   7.822
    9AU     AUC 3132   5.775  27.292   7.174
    9AU     AUC 3133   6.137  27.314   7.194
    9AU     AUC 3134   5.784  26.402   7.271
    9AU     AUC 3135   6.160  26.433   7.273
    9AU    AUSL 3136   6.424  26.785   8.306
    9AU    AUSL 3137   6.194  26.404   8.223
    9AU     AUL 3138   6.501  26.435   8.410
    9AU    AUSL 3139   6.010  26.729   8.426
    9AU    AUSL 3140   5.778  27.130   8.410
    9AU     AUL 3141   5.994  27.026   8.703
    9AU    AUSL 3142   6.125  27.088   8.187
    9AU    AUSL 3143   6.568  27.137   8.121
    9AU     AUL 3144   6.392  27.095   8.457
    9AU    AUSL 3145   6.396  26.893   6.878
    9AU    AUSL 3146   6.254  27.283   6.970
    9AU     AUL 3147   6.456  27.215   6.683
    9AU    AUSL 3148   6.217  26.612   6.616
    9AU    AUSL 3149   6.696  26.629   6.995
    9AU     AUL 3150   6.595  26.756   6.651
    9AU    AUSL 3151   6.032  27.026   6.700
    9AU    AUSL 3152   5.842  26.636   6.807
    9AU     AUL 3153   5.950  26.678   6.481
    9AU    AUSL 3154   5.397  27.090   8.195
    9AU    AUSL 3155   5.744  27.403   8.090
    9AU     AUL 3156   5.567  27.381   8.409
    9AU    AUSL 3157   5.682  26.779   8.174
    9AU    AUSL 3158   5.272  26.662   8.131
    9AU     AUL 3159   5.189  26.888   8.261
    9AU    AUSL 3160   5.415  26.644   6.807
    9AU    AUSL 3161   5.639  26.318   6.991
    9AU     AUL 3162   5.685  26.333   6.661
    9AU    AUSL 3163   5.612  26.989   6.655
    9AU    AUSL 3164   5.315  27.012   7.007
    9AU     AUL 3165   5.192  26.848   6.749
    9AU    AUSL 3166   6.728  27.342   7.507
    9AU    AUSL 3167   6.659  27.138   7.097
    9AU     AUL 3168   6.996  27.339   7.194
    9AU    AUSL 3169   6.898  26.950   7.399
    9AU    AUSL 3170   6.851  26.650   7.763
    9AU     AUL 3171   7.157  26.709   7.543
    9AU    AUSL 3172   6.620  26.993   7.731
    9AU    AUSL 3173   6.435  27.394   7.799
    9AU     AUL 3174   6.791  27.199   7.891
    9AU    AUSL 3175   5.387  27.514   7.463
    9AU    AUSL 3176   5.413  27.301   7.834
    9AU     AUL 3177   5.103  27.545   7.654
    9AU    AUSL 3178   5.211  27.122   7.396
    9AU    AUSL 3179   5.354  27.433   7.056
    9AU     AUL 3180   5.098  27.357   7.200
    9AU    AUSL 3181   5.047  27.116   7.804
    9AU    AUSL 3182   5.023  26.750   7.388
    9AU     AUL 3183   4.853  27.088   7.501
    9AU    AUSL 3184   6.621  26.308   7.624
    9AU    AUSL 3185   6.467  26.588   7.938
    9AU     AUL 3186   6.771  26.494   8.017
    9AU    AUSL 3187   6.599  26.664   7.398
    9AU    AUSL 3188   6.582  26.255   7.202
    9AU     AUL 3189   6.847  26.464   7.278
    9AU    AUSL 3190   5.191  26.385   7.586
    9AU    AUSL 3191   5.358  26.572   7.211
    9AU     AUL 3192   4.985  26.467   7.272
    9AU    AUSL 3193   5.279  26.780   7.731
    9AU    AUSL 3194   5.500  26.405   7.876
    9AU     AUL 3195   5.185  26.396   7.919
    9AU    AUSL 3196   6.030  27.660   7.907
    9AU    AUSL 3197   5.588  27.692   7.798
    9AU     AUL 3198   5.796  27.739   8.169
    9AU    AUSL 3199   5.870  27.570   7.522
    9AU    AUSL 3200   6.117  27.683   7.182
    9AU     AUL 3201   5.860  27.924   7.459
    9AU    AUSL 3202   6.292  27.708   7.565
    9AU    AUSL 3203   6.280  27.473   8.186
    9AU     AUL 3204   6.398  27.727   7.917
    9AU    AUSL 3205   5.884  26.230   7.986
    9AU    AUSL 3206   6.303  26.194   7.870
    9AU     AUL 3207   6.059  26.116   8.246
    9AU    AUSL 3208   5.585  26.030   7.719
    9AU    AUSL 3209   5.646  26.388   8.291
    9AU     AUL 3210   5.563  26.087   8.060
    9AU    AUSL 3211   6.015  25.953   7.688
    9AU    AUSL 3212   5.803  26.173   7.381
    9AU     AUL 3213   5.697  25.814   7.488
    9AU    AUSL 3214   5.954  27.515   6.799
    9AU    AUSL 3215   6.502  27.529   7.211
    9AU     AUL 3216   6.285  27.625   6.865
    9AU    AUSL 3217   5.701  27.640   7.143
    9AU    AUSL 3218   5.713  27.222   6.978
    9AU     AUL 3219   5.636  27.495   6.773
    9AU    AUSL 3220   6.016  26.125   7.007
    9AU    AUSL 3221   5.396  26.146   7.305
    9AU     AUL 3222   5.673  25.984   7.059
    9AU    AUSL 3223   6.228  26.166   7.395
    9AU    AUSL 3224   6.265  26.465   7.004
    9AU     AUL 3225   6.345  26.099   7.013
    9AU       S 3226   6.501  25.984   8.262
    9AU     LIG 3227   6.696  25.586   8.363
    9AU     LIG 3228   6.628  25.169   8.580
    9AU     LIG 3229   6.966  24.874   8.737
    9AU       S 3230   6.362  26.715   8.750
    9AU     LIG 3231   6.783  26.729   8.738
    9AU     LIG 3232   6.965  26.842   9.154
    9AU     LIG 3233   7.010  26.838   9.629
    9AU       S 3234   6.024  26.555   8.638
    9AU     LIG 3235   6.033  26.611   9.106
    9AU     LIG 3236   6.449  26.614   9.366
    9AU     LIG 3237   6.706  26.426   9.733
    9AU       S 3238   5.550  26.932   8.624
    9AU     LIG 3239   5.595  26.915   9.075
    9AU     LIG 3240   5.232  26.865   9.330
    9AU     LIG 3241   5.065  26.835   9.773
    9AU       S 3242   6.036  27.485   8.567
    9AU     LIG 3243   6.314  27.817   8.726
    9AU     LIG 3244   6.727  27.659   8.825
    9AU     LIG 3245   6.722  27.217   8.844
    9AU       S 3246   6.745  27.383   8.324
    9AU     LIG 3247   7.094  27.407   8.544
    9AU     LIG 3248   7.276  27.746   8.764
    9AU     LIG 3249   7.499  28.115   8.957
    9AU       S 3250   6.304  27.001   6.314
    9AU     LIG 3251   6.755  27.069   6.285
    9AU     LIG 3252   6.811  26.637   6.137
    9AU     LIG 3253   6.724  26.238   5.893
    9AU       S 3254   6.738  27.563   6.813
    9AU     LIG 3255   6.670  27.914   6.584
    9AU     LIG 3256   6.851  28.060   6.178
    9AU     LIG 3257   7.132  28.325   5.922
    9AU       S 3258   6.855  26.388   6.796
    9AU     LIG 3259   6.947  26.189   6.372
    9AU     LIG 3260   6.971  25.761   6.210
    9AU     LIG 3261   7.159  25.351   6.367
    9AU       S 3262   6.324  26.825   6.266
    9AU     LIG 3263   6.285  26.437   6.110
    9AU     LIG 3264   6.229  26.272   5.675
    9AU     LIG 3265   6.356  26.307   5.216
    9AU       S 3266   5.520  26.651   6.332
    9AU     LIG 3267   5.752  26.466   6.004
    9AU     LIG 3268   5.752  26.457   5.541
    9AU     LIG 3269   5.507  26.617   5.180
    9AU       S 3270   6.056  27.135   6.435
    9AU     LIG 3271   5.853  26.974   6.055
    9AU     LIG 3272   6.101  26.776   5.756
    9AU     LIG 3273   6.541  26.681   5.678
    9AU       S 3274   5.350  27.052   8.661
    9AU     LIG 3275   5.030  26.807   8.730
    9AU     LIG 3276   5.058  26.487   9.004
    9AU     LIG 3277   5.016  26.405   9.452
    9AU       S 3278   5.317  27.700   8.164
    9AU     LIG 3279   5.256  27.760   8.585
    9AU     LIG 3280   4.955  27.632   8.893
    9AU     LIG 3281   4.554  27.813   9.042
    9AU       S 3282   5.173  26.441   8.408
    9AU     LIG 3283   4.759  26.406   8.244
    9AU     LIG 3284   4.564  26.001   8.376
    9AU     LIG 3285   4.374  25.778   8.730
    9AU       S 3286   5.538  26.760   8.562
    9AU     LIG 3287   5.586  26.461   8.874
    9AU     LIG 3288   5.493  26.353   9.260
    9AU     LIG 3289   5.484  26.554   9.643
    9AU       S 3290   5.355  26.568   6.429
    9AU     LIG 3291   5.222  26.289   6.122
    9AU     LIG 3292   5.268  26.487   5.715
    9AU     LIG 3293   5.122  26.834   5.480
    9AU       S 3294   5.287  26.153   6.833
    9AU     LIG 3295   5.018  25.886   6.581
    9AU     LIG 3296   4.896  25.825   6.144
    9AU     LIG 3297   4.552  25.660   5.876
    9AU       S 3298   5.038  27.277   6.713
    9AU     LIG 3299   4.755  27.572   6.873
    9AU     LIG 3300   4.726  27.960   6.654
    9AU     LIG 3301   4.560  27.995   6.207
    9AU       S 3302   5.552  26.939   6.445
    9AU     LIG 3303   5.250  27.058   6.185
    9AU     LIG 3304   5.380  27.173   5.781
    9AU     LIG 3305   5.675  26.978   5.505
    9AU       S 3306   6.850  27.429   6.777
    9AU     LIG 3307   7.066  27.630   6.410
    9AU     LIG 3308   7.349  27.901   6.137
    9AU     LIG 3309   7.645  28.178   5.901
    9AU       S 3310   6.943  27.545   7.613
    9AU     LIG 3311   7.346  27.665   7.357
    9AU     LIG 3312   7.775  27.848   7.443
    9AU     LIG 3313   7.945  28.039   7.821
    9AU       S 3314   7.163  27.167   7.596
    9AU     LIG 3315   7.455  27.104   7.297
    9AU     LIG 3316   7.788  27.372   7.179
    9AU     LIG 3317   8.168  27.576   7.242
    9AU       S 3318   7.097  26.280   7.771
    9AU     LIG 3319   7.458  26.057   7.946
    9AU     LIG 3320   7.904  25.997   7.975
    9AU     LIG 3321   8.183  25.869   7.673
    9AU       S 3322   6.780  27.592   8.131
    9AU     LIG 3323   7.163  27.806   8.231
    9AU     LIG 3324   7.350  28.174   8.451
    9AU     LIG 3325   7.279  28.531   8.737
    9AU       S 3326   7.172  27.318   7.686
    9AU     LIG 3327   7.640  27.399   7.688
    9AU     LIG 3328   8.089  27.516   7.752
    9AU     LIG 3329   8.491  27.632   7.987
    9AU       S 3330   5.240  27.514   8.092
    9AU     LIG 3331   5.002  27.352   8.430
    9AU     LIG 3332   4.584  27.460   8.571
    9AU     LIG 3333   4.262  27.792   8.629
    9AU       S 3334   5.331  27.845   7.363
    9AU     LIG 3335   4.986  28.039   7.150
    9AU     LIG 3336   4.552  27.961   7.144
    9AU     LIG 3337   4.140  27.737   7.060
    9AU       S 3338   4.831  26.993   7.042
    9AU     LIG 3339   4.544  26.743   6.835
    9AU     LIG 3340   4.173  26.950   6.994
    9AU     LIG 3341   4.097  27.231   7.364
    9AU       S 3342   5.233  27.686   6.884
    9AU     LIG 3343   5.303  28.073   6.737
    9AU     LIG 3344   4.998  28.397   6.738
    9AU     LIG 3345   4.673  28.429   6.434
    9AU       S 3346   4.804  26.657   7.678
    9AU     LIG 3347   4.516  26.692   7.334
    9AU     LIG 3348   4.131  26.487   7.187
    9AU     LIG 3349   3.940  26.096   7.121
    9AU       S 3350   4.922  27.173   7.970
    9AU     LIG 3351   4.649  27.018   8.240
    9AU     LIG 3352   4.293  27.321   8.172
    9AU     LIG 3353   4.294  27.792   8.123
    9AU       S 3354   6.782  26.160   7.648
    9AU     LIG 3355   6.865  25.794   7.513
    9AU     LIG 3356   7.298  25.732   7.571
    9AU     LIG 3357   7.699  25.908   7.503
    9AU       S 3358   6.671  26.067   8.123
    9AU     LIG 3359   7.003  25.819   8.002
    9AU     LIG 3360   7.317  25.571   8.239
    9AU     LIG 3361   7.186  25.401   8.678
    9AU       S 3362   7.075  26.231   7.592
    9AU     LIG 3363   7.221  26.101   7.215
    9AU     LIG 3364   7.668  26.169   7.071
    9AU     LIG 3365   8.110  26.021   7.164
    9AU       S 3366   6.801  26.150   6.910
    9AU     LIG 3367   6.743  25.739   7.021
    9AU     LIG 3368   6.797  25.299   6.858
    9AU     LIG 3369   6.863  24.963   6.553
    9AU       S 3370   5.160  26.271   6.901
    9AU     LIG 3371   4.882  26.391   6.607
    9AU     LIG 3372   4.561  26.107   6.424
    9AU     LIG 3373   4.254  25.778   6.297
    9AU       S 3374   4.778  26.464   7.718
    9AU     LIG 3375   4.745  26.130   7.538
    9AU     LIG 3376   4.376  26.110   7.428
    9AU     LIG 3377   4.175  25.816   7.655
    9AU       S 3378   5.198  26.194   8.329
    9AU     LIG 3379   4.942  25.980   7.994
    9AU     LIG 3380   4.587  25.705   7.950
    9AU     LIG 3381   4.388  25.481   8.296
    9AU       S 3382   4.845  26.702   7.846
    9AU     LIG 3383   4.432  26.954   7.779
    9AU     LIG 3384   4.258  26.559   7.739
    9AU     LIG 3385   4.389  26.186   7.936
    9AU       S 3386   5.479  27.869   7.834
    9AU     LIG 3387   5.049  28.001   7.829
    9AU     LIG 3388   4.800  27.778   8.132
    9AU     LIG 3389   4.739  27.948   8.538
    9AU       S 3390   6.036  28.015   7.873
    9AU     LIG 3391   6.216  28.057   8.260
    9AU     LIG 3392   6.149  28.516   8.253
    9AU     LIG 3393   5.770  28.789   8.220
    9AU       S 3394   6.200  28.176   7.757
    9AU     LIG 3395   5.895  28.513   7.766
    9AU     LIG 3396   5.772  28.964   7.727
    9AU     LIG 3397   5.812  29.435   7.829
    9AU       S 3398   6.040  27.990   7.031
    9AU     LIG 3399   5.983  28.387   7.264
    9AU     LIG 3400   6.102  28.840   7.256
    9AU     LIG 3401   6.434  29.006   6.982
    9AU       S 3402   6.513  27.567   8.351
    9AU     LIG 3403   6.716  27.984   8.433
    9AU     LIG 3404   6.947  28.132   8.805
    9AU     LIG 3405   7.070  27.930   9.214
    9AU       S 3406   6.324  28.000   7.532
    9AU     LIG 3407   6.442  28.482   7.465
    9AU     LIG 3408   6.300  28.835   7.729
    9AU     LIG 3409   6.149  29.105   8.065
    9AU       S 3410   5.876  25.726   8.077
    9AU     LIG 3411   6.199  25.455   8.222
    9AU     LIG 3412   6.132  25.059   8.466
    9AU     LIG 3413   5.997  24.597   8.562
    9AU       S 3414   6.440  26.025   7.971
    9AU     LIG 3415   6.528  25.617   7.854
    9AU     LIG 3416   6.625  25.203   8.035
    9AU     LIG 3417   7.011  25.171   8.273
    9AU       S 3418   5.695  25.650   7.923
    9AU     LIG 3419   5.638  25.184   7.824
    9AU     LIG 3420   5.359  24.846   8.047
    9AU     LIG 3421   5.511  24.477   8.289
    9AU       S 3422   5.431  26.308   8.451
    9AU     LIG 3423   5.249  26.061   8.802
    9AU     LIG 3424   4.899  25.763   8.721
    9AU     LIG 3425   4.677  25.347   8.718
    9AU       S 3426   6.103  25.726   7.287
    9AU     LIG 3427   5.830  25.350   7.243
    9AU     LIG 3428   5.925  25.064   6.920
    9AU     LIG 3429   6.112  24.667   6.973
    9AU       S 3430   6.025  25.776   7.844
    9AU     LIG 3431   6.103  25.399   7.679
    9AU     LIG 3432   6.143  25.044   7.907
    9AU     LIG 3433   5.867  24.790   8.110
    9AU       S 3434   5.896  27.894   6.757
    9AU     LIG 3435   5.800  28.351   6.763
    9AU     LIG 3436   6.075  28.712   6.742
    9AU     LIG 3437   6.273  29.087   6.496
    9AU       S 3438   6.685  27.680   7.106
    9AU     LIG 3439   7.062  27.901   6.968
    9AU     LIG 3440   7.186  28.121   6.581
    9AU     LIG 3441   7.444  28.410   6.328
    9AU       S 3442   5.697  27.907   7.013
    9AU     LIG 3443   5.492  28.298   7.168
    9AU     LIG 3444   5.628  28.770   7.079
    9AU     LIG 3445   5.869  29.156   6.862
    9AU       S 3446   5.250  27.321   6.618
    9AU     LIG 3447   5.089  27.692   6.400
    9AU     LIG 3448   5.061  28.132   6.269
    9AU     LIG 3449   4.958  28.465   5.950
    9AU       S 3450   5.200  26.064   7.135
    9AU     LIG 3451   4.737  26.007   7.010
    9AU     LIG 3452   4.538  25.674   6.724
    9AU     LIG 3453   4.631  25.419   6.351
    9AU       S 3454   6.079  25.751   7.135
    9AU     LIG 3455   6.313  25.483   6.861
    9AU     LIG 3456   6.364  25.054   6.661
    9AU     LIG 3457   6.069  24.748   6.484
    9AU       S 3458   6.364  25.839   7.402
    9AU     LIG 3459   6.507  25.444   7.359
    9AU     LIG 3460   6.372  25.085   7.183
    9AU     LIG 3461   6.663  24.820   7.015
    9AU       S 3462   6.573  26.287   6.671
    9AU     LIG 3463   6.559  25.844   6.556
    9AU     LIG 3464   6.631  25.405   6.379
    9AU     LIG 3465   6.826  25.092   6.054
   10AU     AUC 3466  22.381  27.140   7.543
   10AU     AUC 3467  22.640  27.136   7.380
   10AU     AUC 3468  22.622  27.142   7.715
   10AU     AUC 3469  22.110  27.128   7.383
   10AU     AUC 3470  22.129  27.186   7.708
   10AU     AUC 3471  22.220  27.398   7.500
   10AU     AUC 3472  22.562  27.407   7.511
   10AU     AUC 3473  22.208  26.882   7.571
   10AU     AUC 3474  22.542  26.867   7.571
   10AU     AUC 3475  22.375  26.999   7.823
   10AU     AUC 3476  22.385  27.342   7.781
   10AU     AUC 3477  22.381  26.948   7.298
   10AU     AUC 3478  22.395  27.261   7.267
   10AU     AUC 3479  22.958  27.133   7.226
   10AU     AUC 3480  22.944  27.120   7.566
   10AU     AUC 3481  22.900  27.126   7.920
   10AU     AUC 3482  21.809  27.086   7.242
   10AU     AUC 3483  21.807  27.173   7.566
   10AU     AUC 3484  21.833  27.241   7.885
   10AU     AUC 3485  22.058  27.698   7.431
   10AU     AUC 3486  22.417  27.689   7.425
   10AU     AUC 3487  22.754  27.679   7.469
   10AU     AUC 3488  22.017  26.599   7.599
   10AU     AUC 3489  22.367  26.575   7.581
   10AU     AUC 3490  22.718  26.569   7.591
   10AU     AUC 3491  22.347  26.849   8.130
   10AU     AUC 3492  22.363  27.202   8.106
   10AU     AUC 3493  22.414  27.560   8.056
   10AU     AUC 3494  22.419  26.754   7.026
   10AU     AUC 3495  22.373  27.079   6.968
   10AU     AUC 3496  22.362  27.397   6.952
   10AU     AUC 3497  22.614  26.968   8.037
   10AU     AUC 3498  22.663  27.327   8.002
   10AU     AUC 3499  22.692  26.962   7.092
   10AU     AUC 3500  22.661  27.277   7.093
   10AU     AUC 3501  22.085  27.067   8.023
   10AU     AUC 3502  22.119  27.420   7.963
   10AU     AUC 3503  22.102  26.904   7.128
   10AU     AUC 3504  22.067  27.211   7.072
   10AU     AUC 3505  22.878  27.405   7.358
   10AU     AUC 3506  22.823  27.407   7.704
   10AU     AUC 3507  21.920  27.403   7.356
   10AU     AUC 3508  21.958  27.499   7.683
   10AU     AUC 3509  22.847  26.852   7.420
   10AU     AUC 3510  22.795  26.829   7.766
   10AU     AUC 3511  21.911  26.828   7.427
   10AU     AUC 3512  21.939  26.916   7.755
   10AU     AUC 3513  22.267  27.650   7.752
   10AU     AUC 3514  22.590  27.619   7.777
   10AU     AUC 3515  22.191  26.722   7.863
   10AU     AUC 3516  22.502  26.670   7.853
   10AU     AUC 3517  22.196  27.546   7.185
   10AU     AUC 3518  22.557  27.574   7.203
   10AU     AUC 3519  22.221  26.660   7.303
   10AU     AUC 3520  22.596  26.695   7.301
   10AU    AUSL 3521  22.863  27.079   8.321
   10AU    AUSL 3522  22.629  26.695   8.253
   10AU     AUL 3523  22.939  26.737   8.439
   10AU    AUSL 3524  22.453  27.027   8.452
   10AU    AUSL 3525  22.213  27.417   8.425
   10AU     AUL 3526  22.441  27.339   8.716
   10AU    AUSL 3527  22.559  27.377   8.198
   10AU    AUSL 3528  23.003  27.425   8.123
   10AU     AUL 3529  22.832  27.395   8.460
   10AU    AUSL 3530  22.826  27.152   6.895
   10AU    AUSL 3531  22.680  27.544   6.973
   10AU     AUL 3532  22.892  27.474   6.691
   10AU    AUSL 3533  22.653  26.861   6.640
   10AU    AUSL 3534  23.131  26.896   7.021
   10AU     AUL 3535  23.038  27.017   6.675
   10AU    AUSL 3536  22.461  27.276   6.714
   10AU    AUSL 3537  22.278  26.884   6.830
   10AU     AUL 3538  22.379  26.921   6.502
   10AU    AUSL 3539  21.831  27.362   8.216
   10AU    AUSL 3540  22.163  27.678   8.097
   10AU     AUL 3541  21.990  27.665   8.422
   10AU    AUSL 3542  22.126  27.059   8.198
   10AU    AUSL 3543  21.717  26.933   8.164
   10AU     AUL 3544  21.635  27.155   8.297
   10AU    AUSL 3545  21.850  26.887   6.834
   10AU    AUSL 3546  22.077  26.571   7.028
   10AU     AUL 3547  22.126  26.574   6.696
   10AU    AUSL 3548  22.042  27.229   6.668
   10AU    AUSL 3549  21.740  27.256   7.024
   10AU     AUL 3550  21.628  27.086   6.766
   10AU    AUSL 3551  23.165  27.611   7.509
   10AU    AUSL 3552  23.085  27.407   7.108
   10AU     AUL 3553  23.422  27.601   7.187
   10AU    AUSL 3554  23.327  27.217   7.405
   10AU    AUSL 3555  23.283  26.927   7.783
   10AU     AUL 3556  23.585  26.988   7.578
   10AU    AUSL 3557  23.050  27.267   7.738
   10AU    AUSL 3558  22.867  27.673   7.794
   10AU     AUL 3559  23.234  27.460   7.887
   10AU    AUSL 3560  21.802  27.762   7.470
   10AU    AUSL 3561  21.835  27.560   7.846
   10AU     AUL 3562  21.520  27.796   7.667
   10AU    AUSL 3563  21.635  27.365   7.412
   10AU    AUSL 3564  21.771  27.677   7.064
   10AU     AUL 3565  21.515  27.595   7.211
   10AU    AUSL 3566  21.473  27.367   7.822
   10AU    AUSL 3567  21.451  26.990   7.424
   10AU     AUL 3568  21.275  27.331   7.522
   10AU    AUSL 3569  23.053  26.580   7.653
   10AU    AUSL 3570  22.900  26.869   7.960
   10AU     AUL 3571  23.204  26.781   8.038
   10AU    AUSL 3572  23.028  26.932   7.421
   10AU    AUSL 3573  23.020  26.522   7.231
   10AU     AUL 3574  23.282  26.738   7.306
   10AU    AUSL 3575  21.632  26.635   7.626
   10AU    AUSL 3576  21.787  26.821   7.240
   10AU     AUL 3577  21.421  26.700   7.317
   10AU    AUSL 3578  21.714  27.036   7.759
   10AU    AUSL 3579  21.943  26.672   7.911
   10AU     AUL 3580  21.624  26.673   7.964
   10AU    AUSL 3581  22.445  27.936   7.912
   10AU    AUSL 3582  22.000  27.955   7.798
   10AU     AUL 3583  22.198  28.023   8.163
   10AU    AUSL 3584  22.288  27.832   7.529
   10AU    AUSL 3585  22.530  27.946   7.185
   10AU     AUL 3586  22.266  28.184   7.457
   10AU    AUSL 3587  22.704  27.986   7.570
   10AU    AUSL 3588  22.715  27.761   8.180
   10AU     AUL 3589  22.818  28.011   7.916
   10AU    AUSL 3590  22.328  26.502   8.021
   10AU    AUSL 3591  22.748  26.467   7.913
   10AU     AUL 3592  22.501  26.399   8.289
   10AU    AUSL 3593  22.032  26.295   7.760
   10AU    AUSL 3594  22.095  26.670   8.325
   10AU     AUL 3595  22.010  26.369   8.107
   10AU    AUSL 3596  22.464  26.221   7.727
   10AU    AUSL 3597  22.245  26.430   7.417
   10AU     AUL 3598  22.144  26.076   7.532
   10AU    AUSL 3599  22.369  27.766   6.807
   10AU    AUSL 3600  22.913  27.788   7.229
   10AU     AUL 3601  22.697  27.883   6.874
   10AU    AUSL 3602  22.116  27.889   7.150
   10AU    AUSL 3603  22.133  27.470   6.988
   10AU     AUL 3604  22.045  27.746   6.786
   10AU    AUSL 3605  22.455  26.383   7.040
   10AU    AUSL 3606  21.838  26.399   7.344
   10AU     AUL 3607  22.120  26.237   7.097
   10AU    AUSL 3608  22.669  26.427   7.426
   10AU    AUSL 3609  22.701  26.727   7.032
   10AU     AUL 3610  22.774  26.365   7.035
   10AU       S 3611  22.947  26.281   8.314
   10AU     LIG 3612  23.100  25.845   8.290
   10AU     LIG 3613  23.304  25.510   8.503
   10AU     LIG 3614  23.607  25.472   8.869
   10AU       S 3615  22.810  27.031   8.772
   10AU     LIG 3616  23.186  26.924   8.961
   10AU     LIG 3617  23.371  26.994   9.384
   10AU     LIG 3618  23.541  27.018   9.826
   10AU       S 3619  22.462  26.865   8.662
   10AU     LIG 3620  22.486  26.827   9.103
   10AU     LIG 3621  22.875  26.794   9.375
   10AU     LIG 3622  23.109  26.722   9.784
   10AU       S 3623  22.003  27.220   8.644
   10AU     LIG 3624  22.077  27.202   9.089
   10AU     LIG 3625  21.703  27.027   9.313
   10AU     LIG 3626  21.367  27.092   9.642
   10AU       S 3627  22.458  27.792   8.552
   10AU     LIG 3628  22.746  28.101   8.715
   10AU     LIG 3629  23.142  27.906   8.820
   10AU     LIG 3630  23.186  27.436   8.821
   10AU       S 3631  23.184  27.674   8.303
   10AU     LIG 3632  23.522  27.701   8.530
   10AU     LIG 3633  23.647  28.053   8.758
   10AU     LIG 3634  23.814  28.428   8.962
   10AU       S 3635  22.745  27.243   6.331
   10AU     LIG 3636  23.159  27.258   6.100
   10AU     LIG 3637  23.348  26.904   5.884
   10AU     LIG 3638  23.171  26.520   5.696
   10AU       S 3639  23.147  27.845   6.834
   10AU     LIG 3640  23.032  28.114   6.521
   10AU     LIG 3641  23.233  28.174   6.118
   10AU     LIG 3642  23.602  28.349   5.928
   10AU       S 3643  23.297  26.647   6.822
   10AU     LIG 3644  23.289  26.620   6.320
   10AU     LIG 3645  23.307  26.213   6.112
   10AU     LIG 3646  23.463  25.784   6.249
   10AU       S 3647  22.755  27.075   6.305
   10AU     LIG 3648  22.853  26.767   6.040
   10AU     LIG 3649  22.664  26.667   5.634
   10AU     LIG 3650  22.718  26.743   5.179
   10AU       S 3651  21.946  26.871   6.363
   10AU     LIG 3652  22.009  26.962   5.952
   10AU     LIG 3653  22.165  26.816   5.579
   10AU     LIG 3654  21.931  26.638   5.266
   10AU       S 3655  22.490  27.379   6.463
   10AU     LIG 3656  22.294  27.347   6.098
   10AU     LIG 3657  22.531  27.133   5.798
   10AU     LIG 3658  22.955  27.084   5.604
   10AU       S 3659  21.797  27.331   8.690
   10AU     LIG 3660  21.497  27.060   8.777
   10AU     LIG 3661  21.450  26.688   8.973
   10AU     LIG 3662  21.312  26.616   9.406
   10AU       S 3663  21.723  27.953   8.158
   10AU     LIG 3664  21.649  28.106   8.526
   10AU     LIG 3665  21.332  28.285   8.771
   10AU     LIG 3666  21.068  28.551   9.034
   10AU       S 3667  21.634  26.709   8.454
   10AU     LIG 3668  21.234  26.772   8.343
   10AU     LIG 3669  20.931  26.413   8.384
   10AU     LIG 3670  20.919  26.058   8.710
   10AU       S 3671  21.987  27.043   8.597
   10AU     LIG 3672  21.974  26.738   8.948
   10AU     LIG 3673  21.817  26.525   9.320
   10AU     LIG 3674  21.696  26.691   9.742
   10AU       S 3675  21.780  26.785   6.460
   10AU     LIG 3676  21.636  26.490   6.159
   10AU     LIG 3677  21.655  26.629   5.726
   10AU     LIG 3678  21.683  27.038   5.545
   10AU       S 3679  21.729  26.410   6.880
   10AU     LIG 3680  21.596  26.065   6.661
   10AU     LIG 3681  21.426  25.914   6.279
   10AU     LIG 3682  21.128  25.823   5.937
   10AU       S 3683  21.453  27.506   6.730
   10AU     LIG 3684  21.140  27.800   6.699
   10AU     LIG 3685  21.078  28.181   6.412
   10AU     LIG 3686  21.199  28.273   5.959
   10AU       S 3687  21.975  27.163   6.446
   10AU     LIG 3688  21.665  27.276   6.202
   10AU     LIG 3689  21.812  27.451   5.829
   10AU     LIG 3690  22.126  27.331   5.519
   10AU       S 3691  23.244  27.743   6.802
   10AU     LIG 3692  23.329  27.710   6.364
   10AU     LIG 3693  23.667  27.867   6.091
   10AU     LIG 3694  24.062  28.110   6.048
   10AU       S 3695  23.354  27.814   7.602
   10AU     LIG 3696  23.717  27.974   7.372
   10AU     LIG 3697  24.156  27.831   7.400
   10AU     LIG 3698  24.580  27.915   7.536
   10AU       S 3699  23.617  27.451   7.580
   10AU     LIG 3700  24.072  27.313   7.532
   10AU     LIG 3701  24.495  27.430   7.364
   10AU     LIG 3702  24.647  27.655   6.997
   10AU       S 3703  23.524  26.554   7.797
   10AU     LIG 3704  23.921  26.361   7.881
   10AU     LIG 3705  24.353  26.543   7.926
   10AU     LIG 3706  24.748  26.603   8.118
   10AU       S 3707  23.217  27.873   8.097
   10AU     LIG 3708  23.586  28.096   8.215
   10AU     LIG 3709  23.657  28.490   8.460
   10AU     LIG 3710  23.608  28.860   8.759
   10AU       S 3711  23.605  27.599   7.680
   10AU     LIG 3712  23.989  27.682   7.881
   10AU     LIG 3713  24.437  27.562   7.880
   10AU     LIG 3714  24.807  27.788   8.082
   10AU       S 3715  21.656  27.774   8.102
   10AU     LIG 3716  21.433  27.628   8.442
   10AU     LIG 3717  21.041  27.841   8.542
   10AU     LIG 3718  20.853  28.104   8.869
   10AU       S 3719  21.738  28.082   7.360
   10AU     LIG 3720  21.510  28.404   7.387
   10AU     LIG 3721  21.187  28.564   7.155
   10AU     LIG 3722  21.079  28.239   6.919
   10AU       S 3723  21.257  27.213   7.065
   10AU     LIG 3724  20.807  27.264   7.072
   10AU     LIG 3725  20.473  27.523   7.227
   10AU     LIG 3726  20.231  27.822   7.473
   10AU       S 3727  21.625  27.929   6.885
   10AU     LIG 3728  21.619  28.377   6.880
   10AU     LIG 3729  21.322  28.632   6.661
   10AU     LIG 3730  21.123  28.682   6.257
   10AU       S 3731  21.232  26.903   7.713
   10AU     LIG 3732  20.936  26.876   7.386
   10AU     LIG 3733  20.545  26.762   7.186
   10AU     LIG 3734  20.141  26.973   7.066
   10AU       S 3735  21.356  27.411   7.992
   10AU     LIG 3736  21.019  27.349   8.227
   10AU     LIG 3737  20.692  27.678   8.149
   10AU     LIG 3738  20.677  27.950   7.765
   10AU       S 3739  23.218  26.426   7.674
   10AU     LIG 3740  23.323  26.050   7.473
   10AU     LIG 3741  23.774  25.964   7.558
   10AU     LIG 3742  24.153  25.753   7.387
   10AU       S 3743  23.131  26.354   8.162
   10AU     LIG 3744  23.467  26.068   7.981
   10AU     LIG 3745  23.856  25.829   8.166
   10AU     LIG 3746  23.997  25.743   8.633
   10AU       S 3747  23.506  26.498   7.614
   10AU     LIG 3748  23.680  26.370   7.242
   10AU     LIG 3749  24.089  26.178   7.092
   10AU     LIG 3750  24.477  25.911   7.005
   10AU       S 3751  23.237  26.404   6.966
   10AU     LIG 3752  23.266  26.109   6.649
   10AU     LIG 3753  23.236  25.690   6.703
   10AU     LIG 3754  23.296  25.310   6.488
   10AU       S 3755  21.589  26.518   6.936
   10AU     LIG 3756  21.323  26.507   6.580
   10AU     LIG 3757  21.085  26.287   6.244
   10AU     LIG 3758  20.698  26.083   6.063
   10AU       S 3759  21.216  26.659   7.751
   10AU     LIG 3760  21.061  26.366   7.467
   10AU     LIG 3761  20.775  26.270   7.093
   10AU     LIG 3762  20.286  26.181   7.122
   10AU       S 3763  21.643  26.470   8.371
   10AU     LIG 3764  21.549  26.195   7.973
   10AU     LIG 3765  21.258  25.862   7.982
   10AU     LIG 3766  21.235  25.612   8.354
   10AU       S 3767  21.267  26.944   7.875
   10AU     LIG 3768  20.837  26.847   8.030
   10AU     LIG 3769  20.536  26.811   7.729
   10AU     LIG 3770  20.321  27.107   7.511
   10AU       S 3771  21.870  28.133   7.831
   10AU     LIG 3772  21.439  28.269   7.884
   10AU     LIG 3773  21.192  28.246   8.263
   10AU     LIG 3774  20.933  28.510   8.545
   10AU       S 3775  22.451  28.283   7.867
   10AU     LIG 3776  22.617  28.388   8.242
   10AU     LIG 3777  22.521  28.864   8.256
   10AU     LIG 3778  22.286  29.238   8.452
   10AU       S 3779  22.538  28.484   7.739
   10AU     LIG 3780  22.083  28.604   7.907
   10AU     LIG 3781  21.956  29.005   8.091
   10AU     LIG 3782  22.171  29.375   7.969
   10AU       S 3783  22.438  28.246   7.023
   10AU     LIG 3784  22.472  28.630   7.242
   10AU     LIG 3785  22.576  29.066   7.314
   10AU     LIG 3786  22.445  29.480   7.137
   10AU       S 3787  22.957  27.857   8.341
   10AU     LIG 3788  23.147  28.255   8.429
   10AU     LIG 3789  23.290  28.419   8.823
   10AU     LIG 3790  23.411  28.212   9.216
   10AU       S 3791  22.724  28.279   7.537
   10AU     LIG 3792  22.917  28.721   7.527
   10AU     LIG 3793  22.830  29.067   7.821
   10AU     LIG 3794  22.673  29.371   8.140
   10AU       S 3795  22.325  26.002   8.125
   10AU     LIG 3796  22.630  25.642   8.218
   10AU     LIG 3797  22.798  25.201   8.404
   10AU     LIG 3798  22.643  24.752   8.537
   10AU       S 3799  22.890  26.331   8.030
   10AU     LIG 3800  22.964  26.004   7.833
   10AU     LIG 3801  23.111  25.625   7.817
   10AU     LIG 3802  23.466  25.539   8.001
   10AU       S 3803  22.130  25.939   7.977
   10AU     LIG 3804  22.121  25.596   7.734
   10AU     LIG 3805  22.143  25.204   7.915
   10AU     LIG 3806  21.800  24.963   8.080
   10AU       S 3807  21.884  26.582   8.505
   10AU     LIG 3808  21.698  26.262   8.819
   10AU     LIG 3809  21.424  25.849   8.787
   10AU     LIG 3810  21.156  25.454   8.842
   10AU       S 3811  22.541  25.984   7.321
   10AU     LIG 3812  22.402  25.534   7.280
   10AU     LIG 3813  22.532  25.190   7.043
   10AU     LIG 3814  22.805  24.863   7.086
   10AU       S 3815  22.469  26.041   7.892
   10AU     LIG 3816  22.621  25.657   7.711
   10AU     LIG 3817  22.741  25.243   7.907
   10AU     LIG 3818  22.527  24.873   8.055
   10AU       S 3819  22.304  28.147   6.757
   10AU     LIG 3820  22.171  28.620   6.787
   10AU     LIG 3821  22.415  29.017   6.818
   10AU     LIG 3822  22.600  29.410   6.651
   10AU       S 3823  23.092  27.948   7.136
   10AU     LIG 3824  23.441  28.206   6.969
   10AU     LIG 3825  23.581  28.202   6.522
   10AU     LIG 3826  23.883  28.503   6.335
   10AU       S 3827  22.098  28.164   7.011
   10AU     LIG 3828  21.971  28.550   7.249
   10AU     LIG 3829  22.062  29.010   7.179
   10AU     LIG 3830  22.017  29.359   6.851
   10AU       S 3831  21.671  27.552   6.626
   10AU     LIG 3832  21.543  27.907   6.380
   10AU     LIG 3833  21.573  28.358   6.316
   10AU     LIG 3834  21.557  28.679   5.974
   10AU       S 3835  21.660  26.316   7.181
   10AU     LIG 3836  21.294  26.115   7.085
   10AU     LIG 3837  21.075  26.054   6.713
   10AU     LIG 3838  20.930  25.775   6.409
   10AU       S 3839  22.523  25.999   7.151
   10AU     LIG 3840  22.763  25.908   6.780
   10AU     LIG 3841  22.786  25.485   6.554
   10AU     LIG 3842  22.751  25.020   6.588
   10AU       S 3843  22.779  26.088   7.404
   10AU     LIG 3844  22.983  25.725   7.205
   10AU     LIG 3845  23.034  25.309   6.962
   10AU     LIG 3846  23.215  24.914   6.775
   10AU       S 3847  23.027  26.550   6.715
   10AU     LIG 3848  22.843  26.317   6.429
   10AU     LIG 3849  22.949  25.888   6.285
   10AU     LIG 3850  23.078  25.496   6.061
   11POPC   NC3 3851  21.340  12.362   9.291
   11POPC   PO4 3852  21.486  11.807   9.675
   11POPC   GL1 3853  21.639  11.854   9.240
   11POPC   GL2 3854  21.405  11.633   9.076
   11POPC   C1A 3855  21.614  12.090   8.823
   11POPC   D2A 3856  21.304  12.264   8.524
   11POPC   C3A 3857  21.182  11.998   8.188
   11POPC   C4A 3858  21.456  12.148   7.878
   11POPC   C1B 3859  21.314  11.737   8.656
   11POPC   C2B 3860  21.607  11.698   8.318
   11POPC   C3B 3861  21.647  11.690   7.882
   11POPC   C4B 3862  21.206  11.728   7.722
   12POPC   NC3 3863  22.300  44.661   9.578
   12POPC   PO4 3864  21.958  44.175   9.358
   12POPC   GL1 3865  21.910  44.620   9.175
   12POPC   GL2 3866  22.213  44.831   9.130
   12POPC   C1A 3867  21.879  44.823   8.747
   12POPC   D2A 3868  22.081  44.707   8.357
   12POPC   C3A 3869  21.910  44.869   7.989
   12POPC   C4A 3870  21.880  44.631   7.606
   12POPC   C1B 3871  22.380  44.695   8.789
   12POPC   C2B 3872  22.547  44.911   8.448
   12POPC   C3B 3873  22.562  44.953   8.044
   12POPC   C4B 3874  22.360  44.676   7.800
   13POPC   NC3 3875   8.732  10.615   9.691
   13POPC   PO4 3876   9.067  10.229   9.330
   13POPC   GL1 3877   8.983  10.620   9.128
   13POPC   GL2 3878   8.839  10.914   9.250
   13POPC   C1A 3879   8.934  10.619   8.687
   13POPC   D2A 3880   9.071  10.306   8.405
   13POPC   C3A 3881   9.238  10.392   7.973
   13POPC   C4A 3882   9.268  10.536   7.520
   13POPC   C1B 3883   8.670  11.069   8.854
   13POPC   C2B 3884   8.644  10.954   8.421
   13POPC   C3B 3885   8.915  10.753   8.148
   13POPC   C4B 3886   8.817  10.825   7.714
   14POPC   NC3 3887  19.308  36.240   9.890
   14POPC   PO4 3888  18.893  35.861   9.505
   14POPC   GL1 3889  18.970  36.037   9.172
   14POPC   GL2 3890  19.305  36.072   9.227
   14POPC   C1A 3891  18.846  35.946   8.790
   14POPC   D2A 3892  18.693  36.099   8.417
   14POPC   C3A 3893  18.947  36.082   8.073
   14POPC   C4A 3894  18.850  35.951   7.706
   14POPC   C1B 3895  19.338  36.174   8.813
   14POPC   C2B 3896  19.231  36.310   8.428
   14POPC   C3B 3897  19.452  36.309   8.030
   14POPC   C4B 3898  19.371  36.094   7.642
   15POPC   NC3 3899  23.401   0.491   9.591
   15POPC   PO4 3900  24.070   0.669   9.629
   15POPC   GL1 3901  24.069   0.528   9.217
   15POPC   GL2 3902  23.913   0.214   9.366
   15POPC   C1A 3903  23.992   0.613   8.749
   15POPC   D2A 3904  23.667   0.693   8.400
   15POPC   C3A 3905  23.667   0.621   7.938
   15POPC   C4A 3906  23.960   0.682   7.598
   15POPC   C1B 3907  23.887   0.149   8.929
   15POPC   C2B 3908  23.859   0.210   8.482
   15POPC   C3B 3909  23.539   0.186   8.183
   15POPC   C4B 3910  23.463   0.181   7.760
   16POPC   NC3 3911  26.747   6.898   9.447
   16POPC   PO4 3912  26.547   6.269   9.679
   16POPC   GL1 3913  26.697   6.431   9.217
   16POPC   GL2 3914  27.052   6.288   9.139
   16POPC   C1A 3915  26.580   6.644   8.762
   16POPC   D2A 3916  26.345   6.777   8.323
   16POPC   C3A 3917  26.624   6.936   7.944
   16POPC   C4A 3918  27.032   6.780   7.764
   16POPC   C1B 3919  27.334   6.384   8.765
   16POPC   C2B 3920  27.273   6.519   8.321
   16POPC   C3B 3921  27.090   6.296   7.957
   16POPC   C4B 3922  27.082   6.289   7.499
   17POPC   NC3 3923   6.903  23.654   9.483
   17POPC   PO4 3924   6.231  23.922   9.425
   17POPC   GL1 3925   6.530  23.775   9.115
   17POPC   GL2 3926   6.888  23.849   9.038
   17POPC   C1A 3927   6.562  23.844   8.680
   17POPC   D2A 3928   6.844  23.917   8.383
   17POPC   C3A 3929   6.592  23.861   8.064
   17POPC   C4A 3930   6.578  23.597   7.714
   17POPC   C1B 3931   6.938  23.514   8.772
   17POPC   C2B 3932   6.948  23.407   8.341
   17POPC   C3B 3933   7.034  23.627   7.940
   17POPC   C4B 3934   6.949  24.001   7.707
   18POPC   NC3 3935  15.066   2.632   9.595
   18POPC   PO4 3936  15.652   2.668   9.600
   18POPC   GL1 3937  15.370   2.868   9.246
   18POPC   GL2 3938  15.017   2.763   9.115
   18POPC   C1A 3939  15.393   2.921   8.793
   18POPC   D2A 3940  15.166   2.753   8.434
   18POPC   C3A 3941  15.205   2.877   7.996
   18POPC   C4A 3942  15.068   3.115   7.618
   18POPC   C1B 3943  14.909   2.424   8.802
   18POPC   C2B 3944  15.039   2.264   8.395
   18POPC   C3B 3945  14.882   2.431   8.012
   18POPC   C4B 3946  14.943   2.641   7.614
   19POPC   NC3 3947  31.337  13.940   9.523
   19POPC   PO4 3948  31.857  13.549   9.585
   19POPC   GL1 3949  31.652  13.688   9.172
   19POPC   GL2 3950  31.252  13.727   9.084
   19POPC   C1A 3951  31.583  13.514   8.733
   19POPC   D2A 3952  31.309  13.491   8.370
   19POPC   C3A 3953  31.517  13.516   7.967
   19POPC   C4A 3954  31.336  13.469   7.527
   19POPC   C1B 3955  31.488  14.011   8.817
   19POPC   C2B 3956  31.591  13.924   8.403
   19POPC   C3B 3957  31.369  14.006   8.044
   19POPC   C4B 3958  31.462  13.932   7.647
   20POPC   NC3 3959  44.812   3.962   9.372
   20POPC   PO4 3960  44.623   4.610   9.547
   20POPC   GL1 3961  44.800   4.459   9.166
   20POPC   GL2 3962  44.446   4.383   9.097
   20POPC   C1A 3963  44.855   4.206   8.770
   20POPC   D2A 3964  44.533   3.932   8.578
   20POPC   C3A 3965  44.551   3.900   8.150
   20POPC   C4A 3966  44.598   4.095   7.759
   20POPC   C1B 3967  44.312   4.376   8.681
   20POPC   C2B 3968  44.623   4.367   8.356
   20POPC   C3B 3969  44.954   4.281   8.057
   20POPC   C4B 3970  44.953   4.478   7.617
   21POPC   NC3 3971  24.958  20.106   9.352
   21POPC   PO4 3972  25.230  19.495   9.518
   21POPC   GL1 3973  25.245  19.727   9.171
   21POPC   GL2 3974  24.902  19.638   9.137
   21POPC   C1A 3975  25.452  19.953   8.834
   21POPC   D2A 3976  25.457  19.789   8.423
   21POPC   C3A 3977  25.476  20.016   8.084
   21POPC   C4A 3978  25.468  19.847   7.697
   21POPC   C1B 3979  25.042  19.657   8.714
   21POPC   C2B 3980  25.018  19.537   8.315
   21POPC   C3B 3981  25.034  19.781   7.986
   21POPC   C4B 3982  25.038  19.574   7.624
   22POPC   NC3 3983   5.036   9.590   9.576
   22POPC   PO4 3984   5.717   9.650   9.694
   22POPC   GL1 3985   5.528   9.553   9.264
   22POPC   GL2 3986   5.245   9.792   9.147
   22POPC   C1A 3987   5.389   9.416   8.837
   22POPC   D2A 3988   5.195   9.661   8.497
   22POPC   C3A 3989   5.322   9.619   8.073
   22POPC   C4A 3990   5.474   9.931   7.776
   22POPC   C1B 3991   4.888   9.608   8.924
   22POPC   C2B 3992   4.656   9.596   8.543
   22POPC   C3B 3993   4.788   9.635   8.131
   22POPC   C4B 3994   4.610   9.500   7.768
   23POPC   NC3 3995  33.831  35.572   9.480
   23POPC   PO4 3996  33.876  34.857   9.588
   23POPC   GL1 3997  34.029  35.132   9.247
   23POPC   GL2 3998  33.698  35.310   9.063
   23POPC   C1A 3999  34.063  35.069   8.807
   23POPC   D2A 4000  33.914  35.412   8.540
   23POPC   C3A 4001  33.923  35.391   8.098
   23POPC   C4A 4002  33.969  35.521   7.679
   23POPC   C1B 4003  33.425  35.332   8.674
   23POPC   C2B 4004  33.460  35.235   8.231
   23POPC   C3B 4005  33.526  35.231   7.785
   23POPC   C4B 4006  33.484  35.563   7.492
   24POPC   NC3 4007  12.451  35.932   9.328
   24POPC   PO4 4008  11.932  36.313   9.576
   24POPC   GL1 4009  11.991  36.239   9.146
   24POPC   GL2 4010  11.794  35.924   9.055
   24POPC   C1A 4011  11.999  36.245   8.692
   24POPC   D2A 4012  11.937  36.048   8.307
   24POPC   C3A 4013  12.239  36.231   8.024
   24POPC   C4A 4014  12.129  36.572   7.781
   24POPC   C1B 4015  12.145  35.758   8.763
   24POPC   C2B 4016  12.418  35.838   8.409
   24POPC   C3B 4017  12.224  35.709   8.025
   24POPC   C4B 4018  11.877  35.958   7.784
   25POPC   NC3 4019  28.909  12.977   9.547
   25POPC   PO4 4020  28.365  13.291   9.687
   25POPC   GL1 4021  28.465  13.123   9.252
   25POPC   GL2 4022  28.801  13.105   9.070
   25POPC   C1A 4023  28.300  13.074   8.822
   25POPC   D2A 4024  28.309  13.312   8.462
   25POPC   C3A 4025  28.260  13.134   8.077
   25POPC   C4A 4026  28.562  13.072   7.757
   25POPC   C1B 4027  28.724  12.805   8.765
   25POPC   C2B 4028  28.518  12.819   8.383
   25POPC   C3B 4029  28.627  12.622   8.008
   25POPC   C4B 4030  28.370  12.382   7.746
   26POPC   NC3 4031  26.996  25.424   9.496
   26POPC   PO4 4032  27.285  24.837   9.244
   26POPC   GL1 4033  26.853  25.037   9.112
   26POPC   GL2 4034  26.540  24.814   9.132
   26POPC   C1A 4035  26.691  25.450   8.901
   26POPC   D2A 4036  26.879  25.695   8.570
   26POPC   C3A 4037  26.865  25.473   8.190
   26POPC   C4A 4038  26.863  25.557   7.758
   26POPC   C1B 4039  26.395  25.054   8.770
   26POPC   C2B 4040  26.419  25.270   8.382
   26POPC   C3B 4041  26.431  25.330   7.942
   26POPC   C4B 4042  26.737  25.041   7.719
   27POPC   NC3 4043  42.772   4.218   9.631
   27POPC   PO4 4044  42.132   4.141   9.725
   27POPC   GL1 4045  42.117   4.304   9.269
   27POPC   GL2 4046  42.444   4.301   9.253
   27POPC   C1A 4047  42.296   4.420   8.786
   27POPC   D2A 4048  42.360   4.467   8.321
   27POPC   C3A 4049  42.077   4.457   7.939
   27POPC   C4A 4050  42.086   4.325   7.487
   27POPC   C1B 4051  42.693   4.085   8.946
   27POPC   C2B 4052  42.781   4.212   8.542
   27POPC   C3B 4053  42.757   4.241   8.100
   27POPC   C4B 4054  42.516   4.236   7.744
   28POPC   NC3 4055  28.549  44.944   9.670
   28POPC   PO4 4056  28.558   0.620   9.512
   28POPC   GL1 4057  28.328   0.575   9.143
   28POPC   GL2 4058  28.281   0.225   9.169
   28POPC   C1A 4059  28.354   0.790   8.762
   28POPC   D2A 4060  28.337   0.645   8.336
   28POPC   C3A 4061  28.501   0.247   8.144
   28POPC   C4A 4062  28.737   0.247   7.739
   28POPC   C1B 4063  28.300   0.268   8.715
   28POPC   C2B 4064  28.028   0.177   8.367
   28POPC   C3B 4065  28.015   0.379   8.021
   28POPC   C4B 4066  28.001   0.796   7.993
   29POPC   NC3 4067   5.667  10.977   9.441
   29POPC   PO4 4068   5.954  11.597   9.440
   29POPC   GL1 4069   5.774  11.398   9.060
   29POPC   GL2 4070   5.736  11.023   8.946
   29POPC   C1A 4071   5.773  11.457   8.609
   29POPC   D2A 4072   5.578  11.588   8.250
   29POPC   C3A 4073   5.853  11.640   7.902
   29POPC   C4A 4074   5.837  11.573   7.457
   29POPC   C1B 4075   6.069  10.747   8.795
   29POPC   C2B 4076   6.161  10.879   8.394
   29POPC   C3B 4077   5.968  11.225   8.161
   29POPC   C4B 4078   6.035  11.186   7.697
   30POPC   NC3 4079  43.476  15.501   9.299
   30POPC   PO4 4080  43.151  14.908   9.547
   30POPC   GL1 4081  43.150  15.119   9.154
   30POPC   GL2 4082  42.924  15.388   9.105
   30POPC   C1A 4083  43.078  15.109   8.712
   30POPC   D2A 4084  43.272  15.024   8.335
   30POPC   C3A 4085  43.020  15.103   7.984
   30POPC   C4A 4086  43.205  15.045   7.590
   30POPC   C1B 4087  43.101  15.627   8.757
   30POPC   C2B 4088  43.126  15.543   8.322
   30POPC   C3B 4089  42.973  15.609   7.937
   30POPC   C4B 4090  42.806  15.384   7.576
   31POPC   NC3 4091  26.596   3.620   9.349
   31POPC   PO4 4092  27.169   3.381   9.588
   31POPC   GL1 4093  27.015   3.355   9.188
   31POPC   GL2 4094  27.068   3.732   9.191
   31POPC   C1A 4095  26.802   3.422   8.775
   31POPC   D2A 4096  26.422   3.426   8.505
   31POPC   C3A 4097  26.629   3.510   8.133
   31POPC   C4A 4098  26.645   3.312   7.762
   31POPC   C1B 4099  27.154   3.876   8.798
   31POPC   C2B 4100  27.021   3.726   8.401
   31POPC   C3B 4101  27.038   3.893   7.995
   31POPC   C4B 4102  27.075   3.767   7.521
   32POPC   NC3 4103  19.676  33.899   9.393
   32POPC   PO4 4104  20.189  33.599   9.575
   32POPC   GL1 4105  20.021  33.648   9.131
   32POPC   GL2 4106  20.105  33.957   8.991
   32POPC   C1A 4107  19.736  33.730   8.732
   32POPC   D2A 4108  19.854  33.845   8.277
   32POPC   C3A 4109  19.577  33.598   7.988
   32POPC   C4A 4110  19.628  33.522   7.551
   32POPC   C1B 4111  19.952  34.188   8.665
   32POPC   C2B 4112  19.700  34.372   8.395
   32POPC   C3B 4113  19.875  34.327   8.020
   32POPC   C4B 4114  19.716  34.030   7.787
   33POPC   NC3 4115  11.096  21.075   9.563
   33POPC   PO4 4116  10.465  21.362   9.414
   33POPC   GL1 4117  10.728  21.387   9.106
   33POPC   GL2 4118  10.780  21.025   9.133
   33POPC   C1A 4119  10.762  21.515   8.678
   33POPC   D2A 4120  10.524  21.248   8.380
   33POPC   C3A 4121  10.450  21.361   7.975
   33POPC   C4A 4122  10.706  21.657   7.783
   33POPC   C1B 4123  10.964  21.039   8.699
   33POPC   C2B 4124  11.019  21.245   8.258
   33POPC   C3B 4125  10.871  21.149   7.807
   33POPC   C4B 4126  10.949  20.949   7.361
   34POPC   NC3 4127  44.251  16.015   9.574
   34POPC   PO4 4128  43.651  15.761   9.642
   34POPC   GL1 4129  43.889  15.861   9.251
   34POPC   GL2 4130  43.910  16.199   9.179
   34POPC   C1A 4131  44.111  15.841   8.870
   34POPC   D2A 4132  43.919  15.709   8.528
   34POPC   C3A 4133  43.931  15.897   8.136
   34POPC   C4A 4134  43.796  15.708   7.750
   34POPC   C1B 4135  44.023  16.319   8.729
   34POPC   C2B 4136  44.163  16.516   8.300
   34POPC   C3B 4137  44.100  16.313   7.888
   34POPC   C4B 4138  43.992  16.122   7.506
   35POPC   NC3 4139  43.232  28.943   9.649
   35POPC   PO4 4140  43.238  29.522   9.547
   35POPC   GL1 4141  43.099  29.220   9.207
   35POPC   GL2 4142  42.852  28.954   9.259
   35POPC   C1A 4143  43.155  29.154   8.762
   35POPC   D2A 4144  43.377  29.011   8.411
   35POPC   C3A 4145  43.237  29.177   8.042
   35POPC   C4A 4146  43.135  29.070   7.658
   35POPC   C1B 4147  42.895  28.734   8.857
   35POPC   C2B 4148  42.924  28.688   8.395
   35POPC   C3B 4149  42.782  28.817   7.945
   35POPC   C4B 4150  42.746  28.812   7.430
   36POPC   NC3 4151  34.544  29.728   9.577
   36POPC   PO4 4152  34.806  30.354   9.473
   36POPC   GL1 4153  34.773  30.018   9.151
   36POPC   GL2 4154  34.645  29.679   9.094
   36POPC   C1A 4155  34.704  30.074   8.689
   36POPC   D2A 4156  34.300  30.164   8.424
   36POPC   C3A 4157  34.361  30.077   7.979
   36POPC   C4A 4158  34.753  30.048   7.744
   36POPC   C1B 4159  34.417  29.650   8.733
   36POPC   C2B 4160  34.540  29.702   8.309
   36POPC   C3B 4161  34.542  29.602   7.880
   36POPC   C4B 4162  34.735  29.635   7.442
   37POPC   NC3 4163   9.447  32.081   9.408
   37POPC   PO4 4164  10.096  32.297   9.376
   37POPC   GL1 4165   9.780  32.214   9.060
   37POPC   GL2 4166   9.510  31.947   8.928
   37POPC   C1A 4167   9.696  32.331   8.666
   37POPC   D2A 4168   9.463  32.171   8.344
   37POPC   C3A 4169   9.578  32.432   8.008
   37POPC   C4A 4170  10.008  32.395   7.847
   37POPC   C1B 4171   9.936  31.875   8.729
   37POPC   C2B 4172   9.908  31.834   8.309
   37POPC   C3B 4173   9.959  31.881   7.902
   37POPC   C4B 4174   9.664  32.091   7.638
   38POPC   NC3 4175  14.087  22.065   9.646
   38POPC   PO4 4176  13.583  22.366   9.364
   38POPC   GL1 4177  13.433  22.050   9.174
   38POPC   GL2 4178  13.706  21.999   8.953
   38POPC   C1A 4179  13.273  22.121   8.741
   38POPC   D2A 4180  13.591  22.027   8.422
   38POPC   C3A 4181  13.460  22.186   8.074
   38POPC   C4A 4182  13.454  22.428   7.721
   38POPC   C1B 4183  13.933  22.310   8.706
   38POPC   C2B 4184  13.979  22.439   8.264
   38POPC   C3B 4185  13.921  22.260   7.842
   38POPC   C4B 4186  13.645  21.942   7.640
   39POPC   NC3 4187  25.348  23.384   9.389
   39POPC   PO4 4188  25.173  22.632   9.474
   39POPC   GL1 4189  25.170  22.752   9.091
   39POPC   GL2 4190  25.096  23.077   9.104
   39POPC   C1A 4191  25.245  22.790   8.667
   39POPC   D2A 4192  25.043  22.815   8.299
   39POPC   C3A 4193  25.233  22.757   7.934
   39POPC   C4A 4194  25.519  23.016   7.730
   39POPC   C1B 4195  25.258  23.302   8.724
   39POPC   C2B 4196  25.383  23.189   8.313
   39POPC   C3B 4197  25.156  23.273   7.974
   39POPC   C4B 4198  25.037  23.152   7.595
   40POPC   NC3 4199  39.288  41.422   9.510
   40POPC   PO4 4200  38.639  41.664   9.679
   40POPC   GL1 4201  38.916  41.694   9.257
   40POPC   GL2 4202  39.205  41.456   9.040
   40POPC   C1A 4203  38.924  41.794   8.815
   40POPC   D2A 4204  39.315  41.678   8.590
   40POPC   C3A 4205  39.275  41.714   8.165
   40POPC   C4A 4206  39.202  41.752   7.749
   40POPC   C1B 4207  39.361  41.145   8.720
   40POPC   C2B 4208  39.182  41.082   8.301
   40POPC   C3B 4209  39.344  41.233   7.887
   40POPC   C4B 4210  39.284  41.354   7.431
   41POPC   NC3 4211  10.410  43.092   9.526
   41POPC   PO4 4212  11.132  43.310   9.510
   41POPC   GL1 4213  10.889  43.117   9.148
   41POPC   GL2 4214  10.550  43.266   9.091
   41POPC   C1A 4215  10.793  43.142   8.680
   41POPC   D2A 4216  10.749  43.093   8.247
   41POPC   C3A 4217  10.657  43.369   7.961
   41POPC   C4A 4218  10.471  43.253   7.557
   41POPC   C1B 4219  10.311  43.018   8.829
   41POPC   C2B 4220  10.314  42.843   8.415
   41POPC   C3B 4221  10.258  43.049   8.012
   41POPC   C4B 4222  10.367  42.775   7.679
   42POPC   NC3 4223   1.647   2.502   9.371
   42POPC   PO4 4224   1.183   2.961   9.481
   42POPC   GL1 4225   1.318   2.790   9.103
   42POPC   GL2 4226   1.667   2.907   9.019
   42POPC   C1A 4227   1.261   2.615   8.691
   42POPC   D2A 4228   1.154   2.853   8.308
   42POPC   C3A 4229   1.350   2.665   7.944
   42POPC   C4A 4230   1.709   2.360   7.953
   42POPC   C1B 4231   1.380   3.109   8.710
   42POPC   C2B 4232   1.432   3.315   8.307
   42POPC   C3B 4233   1.581   3.127   7.921
   42POPC   C4B 4234   1.500   2.988   7.507
   43POPC   NC3 4235  26.716  34.902   9.555
   43POPC   PO4 4236  26.738  35.555   9.491
   43POPC   GL1 4237  26.766  35.384   9.116
   43POPC   GL2 4238  26.915  35.085   9.138
   43POPC   C1A 4239  27.092  35.489   8.791
   43POPC   D2A 4240  27.062  35.785   8.419
   43POPC   C3A 4241  27.163  35.566   8.015
   43POPC   C4A 4242  27.030  35.447   7.609
   43POPC   C1B 4243  26.798  35.075   8.725
   43POPC   C2B 4244  26.925  35.274   8.359
   43POPC   C3B 4245  26.869  35.138   7.960
   43POPC   C4B 4246  26.786  34.849   7.654
   44POPC   NC3 4247   9.851  27.036   9.534
   44POPC   PO4 4248   9.415  26.500   9.624
   44POPC   GL1 4249   9.738  26.573   9.220
   44POPC   GL2 4250  10.072  26.767   9.169
   44POPC   C1A 4251   9.903  26.578   8.750
   44POPC   D2A 4252  10.100  26.861   8.438
   44POPC   C3A 4253   9.804  26.954   8.099
   44POPC   C4A 4254   9.645  26.733   7.715
   44POPC   C1B 4255   9.833  27.081   8.867
   44POPC   C2B 4256   9.905  27.357   8.477
   44POPC   C3B 4257   9.654  27.454   8.091
   44POPC   C4B 4258   9.408  27.186   7.813
   45POPC   NC3 4259   8.153  20.180   9.525
   45POPC   PO4 4260   8.030  19.509   9.560
   45POPC   GL1 4261   8.265  19.742   9.238
   45POPC   GL2 4262   8.618  19.716   9.317
   45POPC   C1A 4263   8.215  19.967   8.816
   45POPC   D2A 4264   8.018  20.066   8.410
   45POPC   C3A 4265   8.102  20.058   7.973
   45POPC   C4A 4266   7.809  19.833   7.697
   45POPC   C1B 4267   8.599  19.627   8.861
   45POPC   C2B 4268   8.397  19.638   8.402
   45POPC   C3B 4269   8.510  19.767   7.962
   45POPC   C4B 4270   8.486  19.799   7.503
   46POPC   NC3 4271   4.431  33.465   9.475
   46POPC   PO4 4272   3.886  33.888   9.506
   46POPC   GL1 4273   4.131  33.925   9.112
   46POPC   GL2 4274   4.496  33.853   9.153
   46POPC   C1A 4275   4.292  34.051   8.679
   46POPC   D2A 4276   4.529  33.887   8.283
   46POPC   C3A 4277   4.223  33.916   7.943
   46POPC   C4A 4278   3.915  33.592   7.883
   46POPC   C1B 4279   4.696  33.754   8.760
   46POPC   C2B 4280   4.963  34.048   8.530
   46POPC   C3B 4281   4.884  34.287   8.169
   46POPC   C4B 4282   4.691  34.085   7.803
   47POPC   NC3 4283  15.592   6.365   9.518
   47POPC   PO4 4284  16.093   6.768   9.745
   47POPC   GL1 4285  15.952   6.643   9.279
   47POPC   GL2 4286  16.043   6.269   9.268
   47POPC   C1A 4287  15.736   6.545   8.832
   47POPC   D2A 4288  15.696   6.745   8.405
   47POPC   C3A 4289  15.732   6.637   7.946
   47POPC   C4A 4290  16.067   6.703   7.632
   47POPC   C1B 4291  16.013   6.122   8.853
   47POPC   C2B 4292  16.048   6.281   8.434
   47POPC   C3B 4293  16.187   6.343   8.023
   47POPC   C4B 4294  16.004   6.103   7.759
   48POPC   NC3 4295  37.653  37.610   9.601
   48POPC   PO4 4296  38.107  38.033   9.390
   48POPC   GL1 4297  37.747  37.822   9.145
   48POPC   GL2 4298  37.756  37.439   9.084
   48POPC   C1A 4299  37.520  37.790   8.756
   48POPC   D2A 4300  37.286  37.660   8.408
   48POPC   C3A 4301  37.576  37.632   8.051
   48POPC   C4A 4302  37.527  37.394   7.688
   48POPC   C1B 4303  37.970  37.476   8.689
   48POPC   C2B 4304  37.969  37.802   8.371
   48POPC   C3B 4305  38.145  37.976   7.997
   48POPC   C4B 4306  37.941  37.766   7.662
   49POPC   NC3 4307   0.756  35.991   9.511
   49POPC   PO4 4308   0.292  36.413   9.612
   49POPC   GL1 4309   0.447  36.313   9.233
   49POPC   GL2 4310   0.177  36.090   9.132
   49POPC   C1A 4311   0.552  36.238   8.804
   49POPC   D2A 4312   0.577  36.019   8.423
   49POPC   C3A 4313   0.637  36.149   8.002
   49POPC   C4A 4314   0.376  36.437   7.843
   49POPC   C1B 4315   0.337  35.775   8.826
   49POPC   C2B 4316   0.169  35.718   8.416
   49POPC   C3B 4317   0.155  35.984   8.066
   49POPC   C4B 4318   0.270  35.942   7.648
   50POPC   NC3 4319  40.251  21.618   9.476
   50POPC   PO4 4320  40.914  21.529   9.625
   50POPC   GL1 4321  40.925  21.437   9.202
   50POPC   GL2 4322  40.647  21.317   9.112
   50POPC   C1A 4323  40.955  21.615   8.810
   50POPC   D2A 4324  41.003  21.507   8.377
   50POPC   C3A 4325  40.843  21.611   7.959
   50POPC   C4A 4326  40.896  21.367   7.595
   50POPC   C1B 4327  40.640  21.238   8.660
   50POPC   C2B 4328  40.604  21.194   8.197
   50POPC   C3B 4329  40.425  21.313   7.779
   50POPC   C4B 4330  40.455  21.099   7.365
   51POPC   NC3 4331   3.748   7.747   9.882
   51POPC   PO4 4332   3.484   7.293   9.479
   51POPC   GL1 4333   3.498   7.246   9.089
   51POPC   GL2 4334   3.235   7.010   9.088
   51POPC   C1A 4335   3.586   7.503   8.727
   51POPC   D2A 4336   3.335   7.577   8.386
   51POPC   C3A 4337   3.486   7.449   8.020
   51POPC   C4A 4338   3.869   7.513   7.773
   51POPC   C1B 4339   3.276   7.087   8.651
   51POPC   C2B 4340   3.580   7.056   8.387
   51POPC   C3B 4341   3.801   7.067   8.047
   51POPC   C4B 4342   3.720   7.024   7.656
   52POPC   NC3 4343   8.934  29.865   9.647
   52POPC   PO4 4344   8.923  30.504   9.578
   52POPC   GL1 4345   8.846  30.179   9.252
   52POPC   GL2 4346   8.696  29.845   9.205
   52POPC   C1A 4347   9.080  30.036   8.913
   52POPC   D2A 4348   9.294  30.009   8.540
   52POPC   C3A 4349   9.138  29.923   8.148
   52POPC   C4A 4350   9.315  30.099   7.771
   52POPC   C1B 4351   8.560  29.857   8.810
   52POPC   C2B 4352   8.516  29.683   8.442
   52POPC   C3B 4353   8.647  29.824   8.066
   52POPC   C4B 4354   8.650  30.057   7.664
   53POPC   NC3 4355  33.208   8.116   9.497
   53POPC   PO4 4356  32.582   8.305   9.571
   53POPC   GL1 4357  32.760   8.567   9.230
   53POPC   GL2 4358  33.139   8.542   9.178
   53POPC   C1A 4359  32.786   8.575   8.780
   53POPC   D2A 4360  32.815   8.167   8.540
   53POPC   C3A 4361  32.941   8.272   8.140
   53POPC   C4A 4362  32.925   7.998   7.818
   53POPC   C1B 4363  33.184   8.205   8.866
   53POPC   C2B 4364  33.330   8.101   8.470
   53POPC   C3B 4365  33.402   8.076   8.051
   53POPC   C4B 4366  33.317   8.321   7.704
   54POPC   NC3 4367  41.746  29.022   9.536
   54POPC   PO4 4368  41.228  29.392   9.496
   54POPC   GL1 4369  41.505  29.261   9.138
   54POPC   GL2 4370  41.802  29.420   9.201
   54POPC   C1A 4371  41.641  29.068   8.734
   54POPC   D2A 4372  41.498  29.192   8.386
   54POPC   C3A 4373  41.414  28.984   8.070
   54POPC   C4A 4374  41.434  29.136   7.679
   54POPC   C1B 4375  41.774  29.538   8.762
   54POPC   C2B 4376  41.886  29.519   8.348
   54POPC   C3B 4377  41.933  29.647   7.972
   54POPC   C4B 4378  41.777  29.676   7.585
   55POPC   NC3 4379  19.288  28.994   9.292
   55POPC   PO4 4380  19.018  29.528   9.486
   55POPC   GL1 4381  18.881  29.263   9.092
   55POPC   GL2 4382  19.094  29.097   8.843
   55POPC   C1A 4383  18.604  29.048   8.790
   55POPC   D2A 4384  18.773  29.193   8.411
   55POPC   C3A 4385  18.772  28.910   8.066
   55POPC   C4A 4386  18.859  29.013   7.661
   55POPC   C1B 4387  19.239  29.428   8.604
   55POPC   C2B 4388  19.421  29.551   8.235
   55POPC   C3B 4389  19.214  29.487   7.868
   55POPC   C4B 4390  19.212  29.324   7.472
   56POPC   NC3 4391  10.253   1.911   9.503
   56POPC   PO4 4392  10.954   1.862   9.438
   56POPC   GL1 4393  10.639   1.962   9.124
   56POPC   GL2 4394  10.873   2.164   8.902
   56POPC   C1A 4395  10.367   2.187   8.793
   56POPC   D2A 4396  10.254   2.441   8.430
   56POPC   C3A 4397  10.176   2.196   8.066
   56POPC   C4A 4398  10.220   1.845   7.756
   56POPC   C1B 4399  10.694   1.820   8.648
   56POPC   C2B 4400  10.565   1.930   8.266
   56POPC   C3B 4401  10.838   2.067   7.945
   56POPC   C4B 4402  10.731   1.793   7.631
   57POPC   NC3 4403  36.912  27.354   9.435
   57POPC   PO4 4404  36.491  27.837   9.137
   57POPC   GL1 4405  36.877  27.670   9.013
   57POPC   GL2 4406  37.099  27.959   9.017
   57POPC   C1A 4407  36.943  27.681   8.572
   57POPC   D2A 4408  36.625  27.730   8.269
   57POPC   C3A 4409  36.731  27.362   8.057
   57POPC   C4A 4410  37.103  27.378   7.717
   57POPC   C1B 4411  37.300  28.023   8.660
   57POPC   C2B 4412  37.389  27.821   8.291
   57POPC   C3B 4413  37.083  27.735   8.044
   57POPC   C4B 4414  36.717  27.731   7.718
   58POPC   NC3 4415   3.064  20.341   9.362
   58POPC   PO4 4416   3.725  20.307   9.576
   58POPC   GL1 4417   3.526  20.429   9.182
   58POPC   GL2 4418   3.595  20.750   9.098
   58POPC   C1A 4419   3.315  20.446   8.760
   58POPC   D2A 4420   3.209  20.244   8.363
   58POPC   C3A 4421   3.492  20.282   7.994
   58POPC   C4A 4422   3.622  20.517   7.599
   58POPC   C1B 4423   3.404  20.958   8.796
   58POPC   C2B 4424   3.158  20.867   8.431
   58POPC   C3B 4425   3.439  20.802   8.086
   58POPC   C4B 4426   3.613  21.000   7.723
   59POPC   NC3 4427  39.566  33.300   9.422
   59POPC   PO4 4428  39.507  32.655   9.711
   59POPC   GL1 4429  39.726  32.831   9.303
   59POPC   GL2 4430  40.075  32.990   9.154
   59POPC   C1A 4431  39.701  32.930   8.829
   59POPC   D2A 4432  40.053  33.029   8.495
   59POPC   C3A 4433  39.871  32.958   8.082
   59POPC   C4A 4434  39.734  33.040   7.654
   59POPC   C1B 4435  40.405  33.240   8.907
   59POPC   C2B 4436  40.491  33.352   8.476
   59POPC   C3B 4437  40.324  33.229   8.080
   59POPC   C4B 4438  40.221  32.993   7.701
   60POPC   NC3 4439  16.606  10.207   9.578
   60POPC   PO4 4440  16.441   9.598   9.558
   60POPC   GL1 4441  16.706   9.674   9.182
   60POPC   GL2 4442  16.607   9.975   9.117
   60POPC   C1A 4443  16.743   9.686   8.721
   60POPC   D2A 4444  16.690  10.032   8.417
   60POPC   C3A 4445  16.672   9.873   8.013
   60POPC   C4A 4446  16.543   9.780   7.605
   60POPC   C1B 4447  17.013  10.042   8.948
   60POPC   C2B 4448  17.172  10.055   8.549
   60POPC   C3B 4449  17.157  10.046   8.110
   60POPC   C4B 4450  16.995  10.055   7.675
   61POPC   NC3 4451  15.586  25.938   9.437
   61POPC   PO4 4452  16.209  26.305   9.489
   61POPC   GL1 4453  16.016  26.058   9.198
   61POPC   GL2 4454  15.778  26.298   9.138
   61POPC   C1A 4455  16.040  25.802   8.838
   61POPC   D2A 4456  15.789  25.945   8.472
   61POPC   C3A 4457  15.935  25.800   8.079
   61POPC   C4A 4458  15.829  25.912   7.659
   61POPC   C1B 4459  16.044  26.295   8.757
   61POPC   C2B 4460  16.174  26.268   8.333
   61POPC   C3B 4461  15.844  26.292   8.051
   61POPC   C4B 4462  15.774  26.459   7.678
   62POPC   NC3 4463   3.842  22.634   9.552
   62POPC   PO4 4464   3.563  23.349   9.523
   62POPC   GL1 4465   3.715  23.160   9.133
   62POPC   GL2 4466   3.661  22.779   9.100
   62POPC   C1A 4467   3.550  23.091   8.705
   62POPC   D2A 4468   3.204  22.963   8.425
   62POPC   C3A 4469   3.353  22.912   7.994
   62POPC   C4A 4470   3.669  23.160   7.770
   62POPC   C1B 4471   3.833  22.593   8.754
   62POPC   C2B 4472   3.816  22.774   8.348
   62POPC   C3B 4473   4.031  22.817   7.976
   62POPC   C4B 4474   3.810  22.691   7.642
   63POPC   NC3 4475  12.956  14.077   9.504
   63POPC   PO4 4476  12.600  14.705   9.499
   63POPC   GL1 4477  12.413  14.351   9.180
   63POPC   GL2 4478  12.661  14.060   9.094
   63POPC   C1A 4479  12.447  14.292   8.699
   63POPC   D2A 4480  12.784  14.334   8.388
   63POPC   C3A 4481  12.675  14.588   8.054
   63POPC   C4A 4482  12.509  14.354   7.747
   63POPC   C1B 4483  12.973  14.024   8.753
   63POPC   C2B 4484  13.070  13.893   8.312
   63POPC   C3B 4485  12.939  14.090   7.910
   63POPC   C4B 4486  13.259  14.269   7.624
   64POPC   NC3 4487  44.797  42.702   9.328
   64POPC   PO4 4488  44.765  42.037   9.514
   64POPC   GL1 4489  44.584  42.245   9.118
   64POPC   GL2 4490  44.278  42.401   9.026
   64POPC   C1A 4491  44.428  42.055   8.708
   64POPC   D2A 4492  44.540  42.261   8.324
   64POPC   C3A 4493  44.432  42.175   7.921
   64POPC   C4A 4494  44.652  42.348   7.605
   64POPC   C1B 4495  44.527  42.616   8.722
   64POPC   C2B 4496  44.407  42.780   8.334
   64POPC   C3B 4497  44.614  42.751   7.948
   64POPC   C4B 4498  44.504  42.848   7.543
   65POPC   NC3 4499  31.267  38.958   9.642
   65POPC   PO4 4500  31.839  39.270   9.495
   65POPC   GL1 4501  31.751  39.083   9.132
   65POPC   GL2 4502  31.381  39.042   9.123
   65POPC   C1A 4503  31.702  39.202   8.723
   65POPC   D2A 4504  31.709  39.432   8.360
   65POPC   C3A 4505  31.619  39.108   8.123
   65POPC   C4A 4506  31.414  39.131   7.773
   65POPC   C1B 4507  31.184  39.331   8.815
   65POPC   C2B 4508  30.977  39.507   8.486
   65POPC   C3B 4509  31.159  39.372   8.148
   65POPC   C4B 4510  31.037  39.476   7.738
   66POPC   NC3 4511   1.229  10.159   9.582
   66POPC   PO4 4512   1.120   9.580   9.415
   66POPC   GL1 4513   0.987   9.752   9.073
   66POPC   GL2 4514   0.884  10.086   9.182
   66POPC   C1A 4515   1.084   9.602   8.683
   66POPC   D2A 4516   1.430   9.635   8.361
   66POPC   C3A 4517   1.319   9.694   7.948
   66POPC   C4A 4518   1.221   9.588   7.535
   66POPC   C1B 4519   0.876  10.117   8.741
   66POPC   C2B 4520   0.999   9.939   8.329
   66POPC   C3B 4521   1.044  10.125   7.936
   66POPC   C4B 4522   0.942  10.001   7.525
   67POPC   NC3 4523  24.882  14.185   9.887
   67POPC   PO4 4524  24.545  14.572   9.424
   67POPC   GL1 4525  24.391  14.423   9.053
   67POPC   GL2 4526  24.664  14.287   8.870
   67POPC   C1A 4527  24.203  14.436   8.656
   67POPC   D2A 4528  24.406  14.507   8.280
   67POPC   C3A 4529  24.209  14.506   7.888
   67POPC   C4A 4530  24.396  14.220   7.599
   67POPC   C1B 4531  24.689  14.705   8.719
   67POPC   C2B 4532  24.874  14.768   8.374
   67POPC   C3B 4533  24.893  14.363   8.196
   67POPC   C4B 4534  24.720  14.495   7.861
   68POPC   NC3 4535   3.103  18.787   9.497
   68POPC   PO4 4536   2.464  19.052   9.353
   68POPC   GL1 4537   2.879  19.170   9.208
   68POPC   GL2 4538   2.961  18.870   8.998
   68POPC   C1A 4539   3.079  19.352   8.836
   68POPC   D2A 4540   3.017  19.164   8.410
   68POPC   C3A 4541   2.738  19.349   8.080
   68POPC   C4A 4542   2.636  19.207   7.634
   68POPC   C1B 4543   2.594  18.792   8.724
   68POPC   C2B 4544   2.410  18.982   8.337
   68POPC   C3B 4545   2.674  18.847   7.994
   68POPC   C4B 4546   2.801  18.703   7.590
   69POPC   NC3 4547  30.988  41.835   9.743
   69POPC   PO4 4548  30.503  41.468   9.437
   69POPC   GL1 4549  30.479  41.657   9.064
   69POPC   GL2 4550  30.836  41.575   8.975
   69POPC   C1A 4551  30.505  41.736   8.626
   69POPC   D2A 4552  30.399  41.549   8.243
   69POPC   C3A 4553  30.561  41.799   7.924
   69POPC   C4A 4554  31.015  41.857   7.872
   69POPC   C1B 4555  31.010  41.208   8.724
   69POPC   C2B 4556  30.870  41.237   8.316
   69POPC   C3B 4557  30.813  41.350   7.905
   69POPC   C4B 4558  30.868  41.084   7.572
   70POPC   NC3 4559  11.234  24.020   9.491
   70POPC   PO4 4560  11.080  23.330   9.440
   70POPC   GL1 4561  11.183  23.472   9.046
   70POPC   GL2 4562  11.328  23.695   9.126
   70POPC   C1A 4563  11.277  23.532   8.593
   70POPC   D2A 4564  11.100  23.333   8.245
   70POPC   C3A 4565  11.130  23.486   7.844
   70POPC   C4A 4566  11.151  23.938   7.794
   70POPC   C1B 4567  11.572  23.863   8.866
   70POPC   C2B 4568  11.722  23.840   8.491
   70POPC   C3B 4569  11.494  23.737   8.137
   70POPC   C4B 4570  11.638  23.829   7.733
   71POPC   NC3 4571  31.872  27.481   9.526
   71POPC   PO4 4572  32.455  27.686   9.180
   71POPC   GL1 4573  32.054  27.642   9.088
   71POPC   GL2 4574  31.813  27.845   9.168
   71POPC   C1A 4575  31.896  27.535   8.747
   71POPC   D2A 4576  32.168  27.645   8.449
   71POPC   C3A 4577  32.031  27.676   8.049
   71POPC   C4A 4578  32.286  27.559   7.701
   71POPC   C1B 4579  31.968  28.026   8.756
   71POPC   C2B 4580  32.040  28.132   8.351
   71POPC   C3B 4581  32.276  28.168   8.003
   71POPC   C4B 4582  32.006  28.062   7.711
   72POPC   NC3 4583  15.967  33.393   9.484
   72POPC   PO4 4584  16.201  34.060   9.457
   72POPC   GL1 4585  15.976  33.809   9.127
   72POPC   GL2 4586  15.760  33.488   9.030
   72POPC   C1A 4587  15.892  33.950   8.715
   72POPC   D2A 4588  15.671  33.808   8.349
   72POPC   C3A 4589  15.891  33.966   7.990
   72POPC   C4A 4590  15.674  33.984   7.633
   72POPC   C1B 4591  16.114  33.471   8.740
   72POPC   C2B 4592  16.181  33.684   8.340
   72POPC   C3B 4593  16.238  33.584   7.923
   72POPC   C4B 4594  15.808  33.470   7.761
   73POPC   NC3 4595   7.297  33.714   9.519
   73POPC   PO4 4596   7.876  33.397   9.607
   73POPC   GL1 4597   7.713  33.558   9.186
   73POPC   GL2 4598   7.516  33.866   9.104
   73POPC   C1A 4599   7.510  33.492   8.779
   73POPC   D2A 4600   7.216  33.615   8.469
   73POPC   C3A 4601   7.369  33.466   8.061
   73POPC   C4A 4602   7.536  33.295   7.634
   73POPC   C1B 4603   7.092  33.916   8.882
   73POPC   C2B 4604   6.823  33.986   8.511
   73POPC   C3B 4605   6.931  33.835   8.093
   73POPC   C4B 4606   7.021  34.038   7.686
   74POPC   NC3 4607   4.755   4.654   9.881
   74POPC   PO4 4608   5.048   4.109   9.497
   74POPC   GL1 4609   4.988   4.408   9.098
   74POPC   GL2 4610   4.788   4.689   9.119
   74POPC   C1A 4611   4.999   4.447   8.661
   74POPC   D2A 4612   4.904   4.048   8.476
   74POPC   C3A 4613   4.932   3.968   8.065
   74POPC   C4A 4614   5.037   4.166   7.736
   74POPC   C1B 4615   4.624   4.810   8.735
   74POPC   C2B 4616   4.688   4.692   8.300
   74POPC   C3B 4617   5.019   4.609   7.982
   74POPC   C4B 4618   5.019   4.599   7.494
   75POPC   NC3 4619  11.975  32.566   9.481
   75POPC   PO4 4620  11.651  31.950   9.572
   75POPC   GL1 4621  11.885  32.168   9.202
   75POPC   GL2 4622  11.702  32.467   9.042
   75POPC   C1A 4623  12.265  32.203   8.896
   75POPC   D2A 4624  12.286  32.304   8.431
   75POPC   C3A 4625  12.304  32.145   7.968
   75POPC   C4A 4626  12.308  32.252   7.492
   75POPC   C1B 4627  11.823  32.247   8.685
   75POPC   C2B 4628  11.756  32.165   8.291
   75POPC   C3B 4629  11.826  32.352   7.929
   75POPC   C4B 4630  11.859  32.028   7.630
   76POPC   NC3 4631  44.916  29.631   9.546
   76POPC   PO4 4632   0.693  29.565   9.517
   76POPC   GL1 4633   0.607  29.809   9.150
   76POPC   GL2 4634   0.256  29.828   9.208
   76POPC   C1A 4635   0.618  29.863   8.678
   76POPC   D2A 4636   0.633  29.636   8.261
   76POPC   C3A 4637   0.698  29.904   7.874
   76POPC   C4A 4638   0.719  30.366   7.797
   76POPC   C1B 4639   0.131  29.942   8.802
   76POPC   C2B 4640   0.222  29.942   8.343
   76POPC   C3B 4641   0.232  30.096   7.894
   76POPC   C4B 4642   0.117  30.183   7.431
   77POPC   NC3 4643  38.328  41.327   9.573
   77POPC   PO4 4644  38.349  41.903   9.239
   77POPC   GL1 4645  38.429  41.518   9.082
   77POPC   GL2 4646  38.661  41.267   9.177
   77POPC   C1A 4647  38.438  41.532   8.665
   77POPC   D2A 4648  38.282  41.339   8.319
   77POPC   C3A 4649  38.383  41.564   7.945
   77POPC   C4A 4650  38.308  41.715   7.560
   77POPC   C1B 4651  38.856  41.240   8.772
   77POPC   C2B 4652  38.866  41.476   8.389
   77POPC   C3B 4653  38.882  41.415   7.960
   77POPC   C4B 4654  38.784  41.529   7.540
   78POPC   NC3 4655   3.049  34.557   9.537
   78POPC   PO4 4656   2.406  34.827   9.421
   78POPC   GL1 4657   2.674  34.620   9.155
   78POPC   GL2 4658   2.786  34.258   9.191
   78POPC   C1A 4659   2.979  34.672   8.851
   78POPC   D2A 4660   3.131  34.954   8.512
   78POPC   C3A 4661   3.080  34.822   8.061
   78POPC   C4A 4662   2.783  34.763   7.706
   78POPC   C1B 4663   2.502  34.258   8.854
   78POPC   C2B 4664   2.618  34.463   8.492
   78POPC   C3B 4665   2.776  34.405   8.074
   78POPC   C4B 4666   2.949  34.073   7.810
   79POPC   NC3 4667   2.572  25.022   9.572
   79POPC   PO4 4668   3.044  25.512   9.608
   79POPC   GL1 4669   2.839  25.299   9.229
   79POPC   GL2 4670   2.895  24.946   9.185
   79POPC   C1A 4671   2.649  25.233   8.804
   79POPC   D2A 4672   2.869  25.187   8.431
   79POPC   C3A 4673   2.725  25.281   8.035
   79POPC   C4A 4674   2.544  25.587   7.787
   79POPC   C1B 4675   2.774  24.731   8.783
   79POPC   C2B 4676   2.683  24.700   8.352
   79POPC   C3B 4677   2.559  24.764   7.941
   79POPC   C4B 4678   2.568  25.088   7.594
   80POPC   NC3 4679   4.093  35.979   9.425
   80POPC   PO4 4680   3.778  36.561   9.449
   80POPC   GL1 4681   4.208  36.438   9.237
   80POPC   GL2 4682   4.080  36.173   8.959
   80POPC   C1A 4683   4.543  36.336   8.902
   80POPC   D2A 4684   4.429  36.025   8.589
   80POPC   C3A 4685   4.373  36.118   8.169
   80POPC   C4A 4686   4.382  36.115   7.750
   80POPC   C1B 4687   3.846  35.937   8.600
   80POPC   C2B 4688   4.015  35.718   8.250
   80POPC   C3B 4689   3.985  35.788   7.819
   80POPC   C4B 4690   4.149  35.809   7.415
   81POPC   NC3 4691  40.387  34.125   9.805
   81POPC   PO4 4692  40.183  34.737   9.511
   81POPC   GL1 4693  40.011  34.781   9.100
   81POPC   GL2 4694  40.131  34.504   9.020
   81POPC   C1A 4695  40.057  34.897   8.664
   81POPC   D2A 4696  39.944  34.656   8.366
   81POPC   C3A 4697  40.200  34.501   8.123
   81POPC   C4A 4698  40.086  34.620   7.642
   81POPC   C1B 4699  40.087  34.265   8.670
   81POPC   C2B 4700  39.841  34.165   8.310
   81POPC   C3B 4701  39.800  34.308   7.900
   81POPC   C4B 4702  39.992  34.155   7.483
   82POPC   NC3 4703  39.027  30.668   9.693
   82POPC   PO4 4704  39.625  30.701   9.461
   82POPC   GL1 4705  39.284  30.563   9.212
   82POPC   GL2 4706  39.028  30.833   9.176
   82POPC   C1A 4707  39.287  30.495   8.780
   82POPC   D2A 4708  38.991  30.618   8.497
   82POPC   C3A 4709  39.093  30.670   8.080
   82POPC   C4A 4710  38.932  30.873   7.736
   82POPC   C1B 4711  39.310  30.994   8.867
   82POPC   C2B 4712  39.422  30.894   8.431
   82POPC   C3B 4713  39.605  30.790   8.048
   82POPC   C4B 4714  39.456  30.970   7.678
   83POPC   NC3 4715  18.464  25.237   9.602
   83POPC   PO4 4716  17.836  25.609   9.520
   83POPC   GL1 4717  18.138  25.546   9.193
   83POPC   GL2 4718  18.278  25.199   9.138
   83POPC   C1A 4719  18.036  25.424   8.773
   83POPC   D2A 4720  18.199  25.092   8.531
   83POPC   C3A 4721  18.034  25.154   8.145
   83POPC   C4A 4722  18.143  25.499   7.876
   83POPC   C1B 4723  18.560  25.348   8.855
   83POPC   C2B 4724  18.700  25.186   8.468
   83POPC   C3B 4725  18.535  25.186   8.109
   83POPC   C4B 4726  18.655  25.469   7.868
   84POPC   NC3 4727  30.946  10.589   9.368
   84POPC   PO4 4728  30.308  10.819   9.370
   84POPC   GL1 4729  30.557  10.583   9.048
   84POPC   GL2 4730  30.847  10.357   8.947
   84POPC   C1A 4731  30.618  10.735   8.623
   84POPC   D2A 4732  30.349  10.817   8.245
   84POPC   C3A 4733  30.684  10.897   7.981
   84POPC   C4A 4734  30.904  10.732   7.634
   84POPC   C1B 4735  31.014  10.165   8.631
   84POPC   C2B 4736  30.903  10.453   8.305
   84POPC   C3B 4737  30.796  10.307   7.931
   84POPC   C4B 4738  30.960   9.872   7.988
   85POPC   NC3 4739  31.822  13.073   9.601
   85POPC   PO4 4740  31.283  12.723   9.738
   85POPC   GL1 4741  31.459  12.883   9.295
   85POPC   GL2 4742  31.616  12.638   9.102
   85POPC   C1A 4743  31.349  13.058   8.839
   85POPC   D2A 4744  31.063  13.051   8.470
   85POPC   C3A 4745  31.231  13.084   8.038
   85POPC   C4A 4746  31.041  13.088   7.637
   85POPC   C1B 4747  31.748  12.774   8.706
   85POPC   C2B 4748  31.649  13.087   8.358
   85POPC   C3B 4749  31.795  13.087   7.911
   85POPC   C4B 4750  31.943  12.705   7.664
   86POPC   NC3 4751  44.193  12.514   9.476
   86POPC   PO4 4752  44.289  11.797   9.423
   86POPC   GL1 4753  44.030  11.857   9.054
   86POPC   GL2 4754  43.659  11.902   9.160
   86POPC   C1A 4755  44.170  11.932   8.612
   86POPC   D2A 4756  44.375  12.122   8.241
   86POPC   C3A 4757  44.105  12.056   7.881
   86POPC   C4A 4758  43.686  11.826   7.819
   86POPC   C1B 4759  43.628  12.048   8.729
   86POPC   C2B 4760  43.746  12.017   8.293
   86POPC   C3B 4761  43.688  12.318   7.940
   86POPC   C4B 4762  43.558  12.329   7.500
   87POPC   NC3 4763  10.231  11.922   9.516
   87POPC   PO4 4764  10.856  12.091   9.439
   87POPC   GL1 4765  10.680  11.816   9.139
   87POPC   GL2 4766  10.314  11.762   9.046
   87POPC   C1A 4767  10.661  11.925   8.714
   87POPC   D2A 4768  10.525  12.223   8.449
   87POPC   C3A 4769  10.553  12.026   8.086
   87POPC   C4A 4770  10.470  12.243   7.749
   87POPC   C1B 4771  10.166  12.125   8.814
   87POPC   C2B 4772  10.020  12.181   8.379
   87POPC   C3B 4773  10.061  12.000   7.977
   87POPC   C4B 4774  10.326  11.749   7.695
   88POPC   NC3 4775  24.736  18.162   9.331
   88POPC   PO4 4776  24.245  18.337   9.724
   88POPC   GL1 4777  24.253  18.364   9.210
   88POPC   GL2 4778  24.372  18.629   9.039
   88POPC   C1A 4779  24.463  18.206   8.764
   88POPC   D2A 4780  24.547  17.854   8.463
   88POPC   C3A 4781  24.634  18.030   8.045
   88POPC   C4A 4782  24.413  18.353   7.819
   88POPC   C1B 4783  24.652  18.695   8.672
   88POPC   C2B 4784  24.608  18.530   8.278
   88POPC   C3B 4785  24.787  18.681   7.932
   88POPC   C4B 4786  24.744  18.611   7.512
   89POPC   NC3 4787  38.082  33.786   9.555
   89POPC   PO4 4788  38.690  34.065   9.430
   89POPC   GL1 4789  38.518  33.910   9.058
   89POPC   GL2 4790  38.216  33.676   9.076
   89POPC   C1A 4791  38.790  33.812   8.703
   89POPC   D2A 4792  38.725  33.596   8.310
   89POPC   C3A 4793  38.663  33.777   7.897
   89POPC   C4A 4794  38.600  33.660   7.457
   89POPC   C1B 4795  38.330  33.609   8.672
   89POPC   C2B 4796  38.147  33.615   8.284
   89POPC   C3B 4797  38.154  33.753   7.879
   89POPC   C4B 4798  38.296  34.189   7.799
   90POPC   NC3 4799  38.927  25.586   9.548
   90POPC   PO4 4800  39.375  25.107   9.496
   90POPC   GL1 4801  39.226  25.379   9.176
   90POPC   GL2 4802  39.429  25.642   9.067
   90POPC   C1A 4803  39.139  25.272   8.746
   90POPC   D2A 4804  38.918  25.025   8.419
   90POPC   C3A 4805  38.790  25.201   8.026
   90POPC   C4A 4806  38.931  25.421   7.681
   90POPC   C1B 4807  39.327  25.717   8.618
   90POPC   C2B 4808  39.213  25.440   8.244
   90POPC   C3B 4809  39.419  25.432   7.818
   90POPC   C4B 4810  39.371  25.581   7.355
   91POPC   NC3 4811  20.496  23.358   9.581
   91POPC   PO4 4812  20.864  23.900   9.584
   91POPC   GL1 4813  20.836  23.574   9.246
   91POPC   GL2 4814  20.501  23.646   9.092
   91POPC   C1A 4815  20.924  23.546   8.812
   91POPC   D2A 4816  20.789  23.402   8.397
   91POPC   C3A 4817  20.554  23.701   8.153
   91POPC   C4A 4818  20.575  23.701   7.741
   91POPC   C1B 4819  20.359  23.742   8.641
   91POPC   C2B 4820  20.050  23.710   8.284
   91POPC   C3B 4821  20.071  23.769   7.816
   91POPC   C4B 4822  20.086  23.651   7.376
   92POPC   NC3 4823   9.060  33.915   9.687
   92POPC   PO4 4824   8.863  33.308   9.742
   92POPC   GL1 4825   8.981  33.719   9.250
   92POPC   GL2 4826   8.755  33.981   9.088
   92POPC   C1A 4827   9.141  33.817   8.780
   92POPC   D2A 4828   9.324  33.990   8.350
   92POPC   C3A 4829   9.186  33.774   7.947
   92POPC   C4A 4830   9.307  33.375   7.707
   92POPC   C1B 4831   8.830  34.221   8.712
   92POPC   C2B 4832   8.811  34.092   8.276
   92POPC   C3B 4833   8.672  33.937   7.881
   92POPC   C4B 4834   8.646  33.889   7.415
   93POPC   NC3 4835  19.049  11.026   9.555
   93POPC   PO4 4836  18.858  11.683   9.467
   93POPC   GL1 4837  19.099  11.416   9.175
   93POPC   GL2 4838  19.297  11.074   9.124
   93POPC   C1A 4839  18.852  11.199   8.882
   93POPC   D2A 4840  18.865  11.125   8.426
   93POPC   C3A 4841  19.155  11.244   8.074
   93POPC   C4A 4842  18.878  11.203   7.738
   93POPC   C1B 4843  19.325  11.136   8.696
   93POPC   C2B 4844  19.314  10.851   8.360
   93POPC   C3B 4845  19.376  10.796   7.920
   93POPC   C4B 4846  19.352  11.074   7.558
   94POPC   NC3 4847  10.678  34.371   9.448
   94POPC   PO4 4848  10.164  34.659   9.617
   94POPC   GL1 4849  10.273  34.515   9.174
   94POPC   GL2 4850  10.259  34.161   9.167
   94POPC   C1A 4851  10.601  34.678   8.868
   94POPC   D2A 4852  10.759  34.824   8.469
   94POPC   C3A 4853  10.857  34.459   8.205
   94POPC   C4A 4854  10.826  34.481   7.780
   94POPC   C1B 4855  10.560  34.180   8.825
   94POPC   C2B 4856  10.437  34.403   8.472
   94POPC   C3B 4857  10.293  34.380   8.051
   94POPC   C4B 4858  10.422  34.163   7.696
   95POPC   NC3 4859  38.541  13.187   9.351
   95POPC   PO4 4860  38.320  13.806   9.400
   95POPC   GL1 4861  38.356  13.706   9.008
   95POPC   GL2 4862  38.039  13.871   8.936
   95POPC   C1A 4863  38.556  13.353   8.749
   95POPC   D2A 4864  38.502  13.170   8.364
   95POPC   C3A 4865  38.271  13.468   8.131
   95POPC   C4A 4866  38.418  13.638   7.748
   95POPC   C1B 4867  38.199  13.813   8.524
   95POPC   C2B 4868  38.396  13.990   8.165
   95POPC   C3B 4869  38.746  13.970   7.896
   95POPC   C4B 4870  38.684  13.965   7.423
   96POPC   NC3 4871  23.198  36.971   9.453
   96POPC   PO4 4872  22.557  37.072   9.726
   96POPC   GL1 4873  22.743  36.809   9.292
   96POPC   GL2 4874  23.018  36.500   9.333
   96POPC   C1A 4875  22.931  36.854   8.819
   96POPC   D2A 4876  23.077  36.946   8.374
   96POPC   C3A 4877  22.754  37.021   8.074
   96POPC   C4A 4878  22.791  36.986   7.650
   96POPC   C1B 4879  23.062  36.375   8.904
   96POPC   C2B 4880  23.213  36.476   8.489
   96POPC   C3B 4881  23.031  36.439   8.077
   96POPC   C4B 4882  23.117  36.573   7.673
   97POPC   NC3 4883  10.403  38.933   9.461
   97POPC   PO4 4884  10.768  39.472   9.504
   97POPC   GL1 4885  10.520  39.406   9.130
   97POPC   GL2 4886  10.146  39.410   9.232
   97POPC   C1A 4887  10.665  39.337   8.687
   97POPC   D2A 4888  10.739  39.530   8.258
   97POPC   C3A 4889  10.590  39.272   7.927
   97POPC   C4A 4890  10.479  38.854   7.812
   97POPC   C1B 4891  10.106  39.229   8.801
   97POPC   C2B 4892  10.259  39.329   8.378
   97POPC   C3B 4893  10.120  39.447   7.988
   97POPC   C4B 4894  10.130  39.191   7.619
   98POPC   NC3 4895   3.011   7.174   9.524
   98POPC   PO4 4896   2.578   7.656   9.700
   98POPC   GL1 4897   2.679   7.385   9.225
   98POPC   GL2 4898   2.685   7.090   9.078
   98POPC   C1A 4899   2.984   7.488   8.824
   98POPC   D2A 4900   2.889   7.804   8.452
   98POPC   C3A 4901   2.985   7.691   8.007
   98POPC   C4A 4902   2.693   7.613   7.630
   98POPC   C1B 4903   2.776   7.051   8.658
   98POPC   C2B 4904   2.882   7.282   8.336
   98POPC   C3B 4905   2.729   7.233   7.945
   98POPC   C4B 4906   3.121   7.282   7.700
   99POPC   NC3 4907  23.853  30.240   9.562
   99POPC   PO4 4908  23.443  29.671   9.835
   99POPC   GL1 4909  23.572  29.777   9.311
   99POPC   GL2 4910  23.684  30.086   9.127
   99POPC   C1A 4911  23.752  29.717   8.833
   99POPC   D2A 4912  23.428  29.868   8.524
   99POPC   C3A 4913  23.424  29.779   8.081
   99POPC   C4A 4914  23.786  29.542   7.895
   99POPC   C1B 4915  23.736  30.322   8.752
   99POPC   C2B 4916  24.026  30.441   8.438
   99POPC   C3B 4917  23.788  30.119   8.227
   99POPC   C4B 4918  23.778  30.033   7.801
  100POPC   NC3 4919   9.447  44.661   9.457
  100POPC   PO4 4920  10.116  44.845   9.457
  100POPC   GL1 4921   9.855  44.838   9.112
  100POPC   GL2 4922   9.648  44.557   9.005
  100POPC   C1A 4923   9.983  44.765   8.683
  100POPC   D2A 4924   9.800  44.500   8.396
  100POPC   C3A 4925   9.665  44.729   8.057
  100POPC   C4A 4926   9.843  44.576   7.752
  100POPC   C1B 4927   9.415  44.731   8.623
  100POPC   C2B 4928   9.288  44.464   8.261
  100POPC   C3B 4929   9.397  44.333   7.825
  100POPC   C4B 4930   9.641  44.235   7.421
  101POPC   NC3 4931  36.654   3.715   9.260
  101POPC   PO4 4932  37.202   3.342   9.448
  101POPC   GL1 4933  37.083   3.579   9.060
  101POPC   GL2 4934  37.087   3.974   9.161
  101POPC   C1A 4935  36.768   3.636   8.640
  101POPC   D2A 4936  36.402   3.370   8.403
  101POPC   C3A 4937  36.515   3.330   7.944
  101POPC   C4A 4938  36.924   3.531   7.779
  101POPC   C1B 4939  37.205   3.934   8.737
  101POPC   C2B 4940  37.183   3.737   8.334
  101POPC   C3B 4941  37.278   3.901   7.894
  101POPC   C4B 4942  37.282   3.874   7.399
  102POPC   NC3 4943  27.651   1.383   9.525
  102POPC   PO4 4944  27.638   0.767   9.210
  102POPC   GL1 4945  27.671   1.039   8.960
  102POPC   GL2 4946  27.445   1.231   9.083
  102POPC   C1A 4947  27.733   1.072   8.549
  102POPC   D2A 4948  27.645   1.314   8.240
  102POPC   C3A 4949  27.596   1.069   7.894
  102POPC   C4A 4950  27.782   1.063   7.531
  102POPC   C1B 4951  27.244   1.223   8.705
  102POPC   C2B 4952  27.157   1.089   8.301
  102POPC   C3B 4953  27.215   1.369   7.969
  102POPC   C4B 4954  27.322   1.301   7.507
  103POPC   NC3 4955   5.127  43.842   9.652
  103POPC   PO4 4956   5.675  44.133   9.481
  103POPC   GL1 4957   5.323  44.055   9.224
  103POPC   GL2 4958   5.186  43.715   9.161
  103POPC   C1A 4959   5.165  44.196   8.856
  103POPC   D2A 4960   5.195  44.381   8.462
  103POPC   C3A 4961   5.089  44.086   8.128
  103POPC   C4A 4962   5.123  44.044   7.686
  103POPC   C1B 4963   4.952  43.727   8.758
  103POPC   C2B 4964   4.876  43.626   8.319
  103POPC   C3B 4965   4.770  43.744   7.879
  103POPC   C4B 4966   4.677  43.910   7.422
  104POPC   NC3 4967  35.586  34.187   9.536
  104POPC   PO4 4968  35.765  34.808   9.388
  104POPC   GL1 4969  35.583  34.841   9.009
  104POPC   GL2 4970  35.398  34.539   9.077
  104POPC   C1A 4971  35.300  34.814   8.666
  104POPC   D2A 4972  35.260  34.527   8.340
  104POPC   C3A 4973  35.315  34.809   8.041
  104POPC   C4A 4974  35.299  35.041   7.704
  104POPC   C1B 4975  35.378  34.267   8.771
  104POPC   C2B 4976  35.614  34.079   8.455
  104POPC   C3B 4977  35.652  34.322   8.095
  104POPC   C4B 4978  35.334  34.379   7.779
  105POPC   NC3 4979   0.350  41.111   9.546
  105POPC   PO4 4980   0.521  40.481   9.572
  105POPC   GL1 4981   0.389  40.553   9.162
  105POPC   GL2 4982   0.152  40.784   9.164
  105POPC   C1A 4983   0.400  40.531   8.723
  105POPC   D2A 4984   0.234  40.491   8.314
  105POPC   C3A 4985   0.403  40.696   7.956
  105POPC   C4A 4986   0.330  41.113   7.998
  105POPC   C1B 4987   0.350  41.024   8.820
  105POPC   C2B 4988   0.567  40.929   8.428
  105POPC   C3B 4989   0.852  40.945   8.065
  105POPC   C4B 4990   0.751  41.174   7.696
  106POPC   NC3 4991  34.833   8.586   9.523
  106POPC   PO4 4992  34.378   8.069   9.429
  106POPC   GL1 4993  34.609   8.250   9.137
  106POPC   GL2 4994  34.489   8.572   9.155
  106POPC   C1A 4995  34.465   8.221   8.720
  106POPC   D2A 4996  34.360   8.024   8.337
  106POPC   C3A 4997  34.665   8.065   7.997
  106POPC   C4A 4998  34.586   7.925   7.598
  106POPC   C1B 4999  34.713   8.652   8.774
  106POPC   C2B 5000  34.741   8.458   8.343
  106POPC   C3B 5001  34.580   8.585   7.943
  106POPC   C4B 5002  34.518   8.414   7.508
  107POPC   NC3 5003   6.999  13.126   9.646
  107POPC   PO4 5004   6.337  12.936   9.462
  107POPC   GL1 5005   6.477  12.997   9.114
  107POPC   GL2 5006   6.364  12.685   9.013
  107POPC   C1A 5007   6.803  12.922   8.824
  107POPC   D2A 5008   6.743  12.683   8.459
  107POPC   C3A 5009   6.880  12.854   8.100
  107POPC   C4A 5010   6.882  12.706   7.750
  107POPC   C1B 5011   6.284  12.828   8.660
  107POPC   C2B 5012   6.305  12.977   8.318
  107POPC   C3B 5013   6.396  12.821   7.969
  107POPC   C4B 5014   6.391  12.956   7.588
  108POPC   NC3 5015  17.772  41.848   9.793
  108POPC   PO4 5016  17.702  42.470   9.467
  108POPC   GL1 5017  17.469  42.418   9.118
  108POPC   GL2 5018  17.778  42.493   8.959
  108POPC   C1A 5019  17.462  42.197   8.709
  108POPC   D2A 5020  17.784  42.036   8.450
  108POPC   C3A 5021  17.604  42.125   8.061
  108POPC   C4A 5022  17.345  42.396   7.843
  108POPC   C1B 5023  17.469  42.726   8.713
  108POPC   C2B 5024  17.451  42.625   8.301
  108POPC   C3B 5025  17.631  42.812   7.956
  108POPC   C4B 5026  17.836  42.483   7.760
  109POPC   NC3 5027  34.290   6.947   9.332
  109POPC   PO4 5028  34.793   6.544   9.522
  109POPC   GL1 5029  34.628   6.586   9.158
  109POPC   GL2 5030  34.759   6.912   9.100
  109POPC   C1A 5031  34.469   6.518   8.766
  109POPC   D2A 5032  34.694   6.431   8.397
  109POPC   C3A 5033  34.613   6.611   8.005
  109POPC   C4A 5034  34.548   6.417   7.601
  109POPC   C1B 5035  34.927   6.814   8.731
  109POPC   C2B 5036  34.801   6.966   8.334
  109POPC   C3B 5037  34.737   7.116   7.930
  109POPC   C4B 5038  34.363   6.946   7.723
  110POPC   NC3 5039   7.109  38.980   9.717
  110POPC   PO4 5040   7.455  39.497   9.423
  110POPC   GL1 5041   7.485  39.572   9.047
  110POPC   GL2 5042   7.706  39.317   8.932
  110POPC   C1A 5043   7.408  39.641   8.628
  110POPC   D2A 5044   7.431  39.322   8.345
  110POPC   C3A 5045   7.562  39.450   7.974
  110POPC   C4A 5046   7.403  39.348   7.580
  110POPC   C1B 5047   7.604  38.959   8.669
  110POPC   C2B 5048   7.352  38.713   8.398
  110POPC   C3B 5049   7.447  38.898   7.990
  110POPC   C4B 5050   7.836  39.050   7.815
  111POPC   NC3 5051  27.212  28.281   9.564
  111POPC   PO4 5052  27.816  28.227   9.467
  111POPC   GL1 5053  27.496  28.154   9.146
  111POPC   GL2 5054  27.423  28.527   9.133
  111POPC   C1A 5055  27.410  28.257   8.708
  111POPC   D2A 5056  27.449  28.435   8.288
  111POPC   C3A 5057  27.365  28.182   7.921
  111POPC   C4A 5058  27.548  28.284   7.536
  111POPC   C1B 5059  27.789  28.587   8.820
  111POPC   C2B 5060  27.894  28.679   8.372
  111POPC   C3B 5061  27.719  28.778   7.980
  111POPC   C4B 5062  27.862  28.690   7.591
  112POPC   NC3 5063  28.999  35.128   9.625
  112POPC   PO4 5064  29.175  35.768   9.604
  112POPC   GL1 5065  29.337  35.592   9.222
  112POPC   GL2 5066  29.169  35.280   9.183
  112POPC   C1A 5067  29.438  35.508   8.769
  112POPC   D2A 5068  29.218  35.369   8.421
  112POPC   C3A 5069  29.217  35.540   8.046
  112POPC   C4A 5070  29.421  35.346   7.713
  112POPC   C1B 5071  29.220  35.039   8.820
  112POPC   C2B 5072  29.165  34.844   8.438
  112POPC   C3B 5073  29.108  35.027   8.036
  112POPC   C4B 5074  28.888  35.110   7.674
  113POPC   NC3 5075  18.187   9.801   9.834
  113POPC   PO4 5076  18.051   9.248   9.466
  113POPC   GL1 5077  18.214   9.523   9.133
  113POPC   GL2 5078  18.241   9.839   9.274
  113POPC   C1A 5079  18.542   9.594   8.776
  113POPC   D2A 5080  18.526   9.800   8.346
  113POPC   C3A 5081  18.457   9.564   7.957
  113POPC   C4A 5082  18.172   9.530   7.591
  113POPC   C1B 5083  18.214   9.964   8.809
  113POPC   C2B 5084  18.045   9.998   8.367
  113POPC   C3B 5085  18.137   9.945   7.912
  113POPC   C4B 5086  17.909  10.118   7.536
  114POPC   NC3 5087  26.997  29.526   9.418
  114POPC   PO4 5088  26.526  30.214   9.462
  114POPC   GL1 5089  26.734  30.000   9.141
  114POPC   GL2 5090  26.674  29.675   9.039
  114POPC   C1A 5091  26.778  30.054   8.704
  114POPC   D2A 5092  26.615  30.159   8.308
  114POPC   C3A 5093  26.895  29.995   7.981
  114POPC   C4A 5094  27.328  30.004   7.806
  114POPC   C1B 5095  27.018  29.542   8.752
  114POPC   C2B 5096  27.089  29.398   8.305
  114POPC   C3B 5097  27.018  29.516   7.881
  114POPC   C4B 5098  26.686  29.682   7.597
  115POPC   NC3 5099   5.541  13.685   9.470
  115POPC   PO4 5100   6.132  13.907   9.314
  115POPC   GL1 5101   6.111  13.687   8.972
  115POPC   GL2 5102   5.786  13.581   9.013
  115POPC   C1A 5103   6.205  13.729   8.582
  115POPC   D2A 5104   6.266  13.477   8.281
  115POPC   C3A 5105   6.251  13.665   7.926
  115POPC   C4A 5106   6.298  13.454   7.546
  115POPC   C1B 5107   5.595  13.545   8.620
  115POPC   C2B 5108   5.769  13.699   8.254
  115POPC   C3B 5109   5.755  13.554   7.838
  115POPC   C4B 5110   5.824  13.577   7.419
  116POPC   NC3 5111  16.809  24.963   9.447
  116POPC   PO4 5112  16.748  25.580   9.528
  116POPC   GL1 5113  16.529  25.432   9.170
  116POPC   GL2 5114  16.441  25.071   9.117
  116POPC   C1A 5115  16.631  25.527   8.761
  116POPC   D2A 5116  16.547  25.310   8.387
  116POPC   C3A 5117  16.778  25.444   8.024
  116POPC   C4A 5118  16.536  25.342   7.699
  116POPC   C1B 5119  16.776  25.039   8.804
  116POPC   C2B 5120  16.854  24.867   8.422
  116POPC   C3B 5121  16.672  24.950   8.029
  116POPC   C4B 5122  16.717  24.817   7.649
  117POPC   NC3 5123  20.184  25.149   9.702
  117POPC   PO4 5124  19.596  25.034   9.386
  117POPC   GL1 5125  19.730  25.429   9.206
  117POPC   GL2 5126  20.052  25.319   9.165
  117POPC   C1A 5127  19.710  25.426   8.740
  117POPC   D2A 5128  19.872  25.383   8.290
  117POPC   C3A 5129  19.613  25.181   7.949
  117POPC   C4A 5130  19.586  25.246   7.436
  117POPC   C1B 5131  20.131  25.101   8.742
  117POPC   C2B 5132  20.403  25.129   8.373
  117POPC   C3B 5133  20.349  25.032   7.936
  117POPC   C4B 5134  20.029  25.150   7.676
  118POPC   NC3 5135   7.755  15.194   9.425
  118POPC   PO4 5136   7.164  14.962   9.506
  118POPC   GL1 5137   7.263  15.182   9.158
  118POPC   GL2 5138   6.937  15.244   9.016
  118POPC   C1A 5139   7.371  15.307   8.722
  118POPC   D2A 5140   7.665  15.173   8.382
  118POPC   C3A 5141   7.508  15.131   7.938
  118POPC   C4A 5142   7.427  15.522   7.716
  118POPC   C1B 5143   7.114  14.865   8.783
  118POPC   C2B 5144   7.190  14.977   8.340
  118POPC   C3B 5145   7.032  14.786   7.990
  118POPC   C4B 5146   7.077  14.856   7.589
  119POPC   NC3 5147   8.336  15.457   9.224
  119POPC   PO4 5148   8.165  14.959   9.597
  119POPC   GL1 5149   8.228  14.940   9.145
  119POPC   GL2 5150   8.505  15.033   8.994
  119POPC   C1A 5151   8.052  15.144   8.742
  119POPC   D2A 5152   8.250  15.291   8.393
  119POPC   C3A 5153   8.035  15.132   8.033
  119POPC   C4A 5154   7.919  15.374   7.716
  119POPC   C1B 5155   8.330  14.738   8.664
  119POPC   C2B 5156   8.396  14.803   8.231
  119POPC   C3B 5157   8.529  15.147   7.988
  119POPC   C4B 5158   8.412  15.212   7.566
  120POPC   NC3 5159   9.267  34.870   9.474
  120POPC   PO4 5160   8.947  34.297   9.468
  120POPC   GL1 5161   8.922  34.574   9.109
  120POPC   GL2 5162   9.278  34.592   9.061
  120POPC   C1A 5163   9.002  34.785   8.689
  120POPC   D2A 5164   8.860  34.594   8.340
  120POPC   C3A 5165   8.729  34.658   7.933
  120POPC   C4A 5166   9.065  34.793   7.690
  120POPC   C1B 5167   9.345  34.379   8.696
  120POPC   C2B 5168   9.383  34.570   8.301
  120POPC   C3B 5169   9.164  34.368   7.990
  120POPC   C4B 5170   9.346  34.196   7.690
  121POPC   NC3 5171   7.204  39.824   9.896
  121POPC   PO4 5172   6.610  40.176   9.683
  121POPC   GL1 5173   6.556  40.353   9.228
  121POPC   GL2 5174   6.862  40.187   9.155
  121POPC   C1A 5175   6.546  40.229   8.742
  121POPC   D2A 5176   6.372  39.844   8.494
  121POPC   C3A 5177   6.484  39.771   8.035
  121POPC   C4A 5178   6.347  40.122   7.785
  121POPC   C1B 5179   7.033  39.985   8.769
  121POPC   C2B 5180   6.870  39.950   8.375
  121POPC   C3B 5181   6.624  40.251   8.185
  121POPC   C4B 5182   6.761  40.394   7.770
  122POPC   NC3 5183  15.249  31.060   9.498
  122POPC   PO4 5184  15.150  31.696   9.698
  122POPC   GL1 5185  15.143  31.646   9.256
  122POPC   GL2 5186  15.404  31.798   9.062
  122POPC   C1A 5187  15.049  31.550   8.810
  122POPC   D2A 5188  14.962  31.331   8.403
  122POPC   C3A 5189  15.304  31.145   8.161
  122POPC   C4A 5190  15.436  31.218   7.749
  122POPC   C1B 5191  15.281  32.004   8.662
  122POPC   C2B 5192  15.018  31.839   8.361
  122POPC   C3B 5193  15.179  31.629   7.998
  122POPC   C4B 5194  15.346  31.845   7.659
  123POPC   NC3 5195  40.478  25.221   9.424
  123POPC   PO4 5196  41.133  25.309   9.336
  123POPC   GL1 5197  40.995  25.524   9.036
  123POPC   GL2 5198  40.677  25.386   8.988
  123POPC   C1A 5199  41.151  25.647   8.661
  123POPC   D2A 5200  41.196  25.362   8.335
  123POPC   C3A 5201  40.981  25.482   7.996
  123POPC   C4A 5202  40.982  25.161   7.772
  123POPC   C1B 5203  40.813  25.137   8.635
  123POPC   C2B 5204  40.619  25.187   8.217
  123POPC   C3B 5205  40.496  25.275   7.791
  123POPC   C4B 5206  40.509  24.970   7.450
  124POPC   NC3 5207  36.735   6.981   9.564
  124POPC   PO4 5208  37.022   6.383   9.547
  124POPC   GL1 5209  36.802   6.453   9.154
  124POPC   GL2 5210  36.562   6.701   9.171
  124POPC   C1A 5211  36.801   6.537   8.723
  124POPC   D2A 5212  36.972   6.483   8.339
  124POPC   C3A 5213  36.771   6.639   7.974
  124POPC   C4A 5214  36.965   6.616   7.562
  124POPC   C1B 5215  36.365   6.819   8.760
  124POPC   C2B 5216  36.217   6.978   8.346
  124POPC   C3B 5217  36.441   7.186   7.980
  124POPC   C4B 5218  36.575   6.974   7.600
  125POPC   NC3 5219   5.321  37.431   9.573
  125POPC   PO4 5220   4.844  37.869   9.633
  125POPC   GL1 5221   4.822  37.680   9.242
  125POPC   GL2 5222   5.158  37.603   9.096
  125POPC   C1A 5223   4.759  37.859   8.836
  125POPC   D2A 5224   4.874  37.574   8.480
  125POPC   C3A 5225   4.723  37.658   8.074
  125POPC   C4A 5226   5.046  37.647   7.752
  125POPC   C1B 5227   5.479  37.301   8.914
  125POPC   C2B 5228   5.588  37.256   8.500
  125POPC   C3B 5229   5.305  37.297   8.140
  125POPC   C4B 5230   5.467  37.357   7.708
  126POPC   NC3 5231   4.047   9.947   9.454
  126POPC   PO4 5232   4.442  10.495   9.525
  126POPC   GL1 5233   4.351  10.319   9.172
  126POPC   GL2 5234   4.676  10.485   9.015
  126POPC   C1A 5235   4.211  10.387   8.781
  126POPC   D2A 5236   4.568  10.484   8.504
  126POPC   C3A 5237   4.398  10.609   8.148
  126POPC   C4A 5238   4.262  10.395   7.773
  126POPC   C1B 5239   4.437  10.850   8.849
  126POPC   C2B 5240   4.093  10.845   8.496
  126POPC   C3B 5241   3.967  10.853   8.026
  126POPC   C4B 5242   4.329  10.946   7.755
  127POPC   NC3 5243  18.613  38.017   9.720
  127POPC   PO4 5244  19.207  37.617   9.690
  127POPC   GL1 5245  19.089  37.640   9.240
  127POPC   GL2 5246  18.794  37.863   9.151
  127POPC   C1A 5247  18.839  37.416   8.928
  127POPC   D2A 5248  18.814  37.442   8.477
  127POPC   C3A 5249  19.143  37.444   8.138
  127POPC   C4A 5250  18.964  37.578   7.746
  127POPC   C1B 5251  19.014  37.856   8.721
  127POPC   C2B 5252  19.002  37.923   8.259
  127POPC   C3B 5253  19.081  38.069   7.825
  127POPC   C4B 5254  19.255  37.859   7.404
  128POPC   NC3 5255  23.442  15.290   9.453
  128POPC   PO4 5256  24.096  15.346   9.537
  128POPC   GL1 5257  23.867  15.103   9.146
  128POPC   GL2 5258  23.524  14.963   9.061
  128POPC   C1A 5259  23.879  15.069   8.662
  128POPC   D2A 5260  24.117  15.448   8.531
  128POPC   C3A 5261  24.019  15.691   8.146
  128POPC   C4A 5262  23.700  15.562   7.832
  128POPC   C1B 5263  23.516  15.379   8.784
  128POPC   C2B 5264  23.628  15.369   8.328
  128POPC   C3B 5265  23.590  15.081   7.983
  128POPC   C4B 5266  23.393  15.138   7.607
  129POPC   NC3 5267   4.463  40.597   9.504
  129POPC   PO4 5268   4.049  41.138   9.356
  129POPC   GL1 5269   4.341  40.925   9.136
  129POPC   GL2 5270   4.067  40.671   9.093
  129POPC   C1A 5271   4.510  40.636   8.834
  129POPC   D2A 5272   4.422  40.681   8.410
  129POPC   C3A 5273   4.550  40.455   8.067
  129POPC   C4A 5274   4.550  40.668   7.669
  129POPC   C1B 5275   4.032  40.926   8.723
  129POPC   C2B 5276   3.970  40.909   8.299
  129POPC   C3B 5277   4.148  40.816   7.924
  129POPC   C4B 5278   4.120  40.891   7.467
  130POPC   NC3 5279   6.072   8.236   9.555
  130POPC   PO4 5280   5.512   8.406   9.215
  130POPC   GL1 5281   5.933   8.261   9.050
  130POPC   GL2 5282   5.978   7.913   9.059
  130POPC   C1A 5283   6.007   8.189   8.589
  130POPC   D2A 5284   5.723   8.388   8.286
  130POPC   C3A 5285   5.831   8.396   7.871
  130POPC   C4A 5286   5.963   8.037   7.650
  130POPC   C1B 5287   5.582   7.981   8.769
  130POPC   C2B 5288   5.421   7.791   8.418
  130POPC   C3B 5289   5.637   7.862   8.048
  130POPC   C4B 5290   5.459   8.088   7.754
  131POPC   NC3 5291  44.753  37.066   9.560
  131POPC   PO4 5292  44.574  36.452   9.587
  131POPC   GL1 5293  44.493  36.735   9.224
  131POPC   GL2 5294  44.498  37.113   9.130
  131POPC   C1A 5295  44.741  36.817   8.826
  131POPC   D2A 5296  44.907  36.875   8.422
  131POPC   C3A 5297  44.634  36.974   8.060
  131POPC   C4A 5298  44.604  37.099   7.574
  131POPC   C1B 5299  44.391  37.325   8.727
  131POPC   C2B 5300  44.208  37.249   8.327
  131POPC   C3B 5301  44.283  37.337   7.902
  131POPC   C4B 5302  44.177  37.386   7.444
  132POPC   NC3 5303   4.616  44.299   9.672
  132POPC   PO4 5304   4.113  44.654   9.480
  132POPC   GL1 5305   4.312  44.713   9.096
  132POPC   GL2 5306   4.539  44.464   9.193
  132POPC   C1A 5307   4.287  44.629   8.645
  132POPC   D2A 5308   3.956  44.589   8.318
  132POPC   C3A 5309   4.185  44.661   7.932
  132POPC   C4A 5310   4.594  44.874   7.845
  132POPC   C1B 5311   4.658  44.111   8.941
  132POPC   C2B 5312   4.725  44.140   8.495
  132POPC   C3B 5313   4.593  44.317   8.081
  132POPC   C4B 5314   4.703  44.405   7.635
  133POPC   NC3 5315  38.956  43.725   9.555
  133POPC   PO4 5316  39.581  43.797   9.637
  133POPC   GL1 5317  39.349  43.884   9.256
  133POPC   GL2 5318  39.133  44.142   9.154
  133POPC   C1A 5319  39.379  43.855   8.810
  133POPC   D2A 5320  39.464  43.706   8.432
  133POPC   C3A 5321  39.259  43.949   8.193
  133POPC   C4A 5322  39.272  43.993   7.782
  133POPC   C1B 5323  38.919  44.064   8.773
  133POPC   C2B 5324  38.788  43.879   8.418
  133POPC   C3B 5325  38.801  43.990   7.989
  133POPC   C4B 5326  38.850  43.855   7.552
  134POPC   NC3 5327  34.694  41.656   9.540
  134POPC   PO4 5328  34.050  41.386   9.445
  134POPC   GL1 5329  34.390  41.473   9.144
  134POPC   GL2 5330  34.524  41.842   9.110
  134POPC   C1A 5331  34.491  41.552   8.722
  134POPC   D2A 5332  34.595  41.695   8.319
  134POPC   C3A 5333  34.447  41.463   7.969
  134POPC   C4A 5334  34.081  41.528   7.732
  134POPC   C1B 5335  34.830  41.935   8.733
  134POPC   C2B 5336  35.062  41.861   8.293
  134POPC   C3B 5337  34.822  41.790   7.874
  134POPC   C4B 5338  34.475  41.776   7.548
  135POPC   NC3 5339  39.828  21.562   9.775
  135POPC   PO4 5340  40.172  21.218   9.261
  135POPC   GL1 5341  39.943  21.528   9.071
  135POPC   GL2 5342  39.837  21.820   9.236
  135POPC   C1A 5343  39.936  21.440   8.672
  135POPC   D2A 5344  40.119  21.100   8.468
  135POPC   C3A 5345  40.057  21.302   8.127
  135POPC   C4A 5346  39.888  21.259   7.783
  135POPC   C1B 5347  39.648  21.867   8.822
  135POPC   C2B 5348  39.553  21.650   8.420
  135POPC   C3B 5349  39.580  21.641   7.977
  135POPC   C4B 5350  39.966  21.759   7.847
  136POPC   NC3 5351   0.361  38.285   9.567
  136POPC   PO4 5352   0.401  38.955   9.636
  136POPC   GL1 5353   0.542  38.722   9.261
  136POPC   GL2 5354   0.670  38.982   9.040
  136POPC   C1A 5355   0.417  38.527   8.848
  136POPC   D2A 5356   0.212  38.199   8.558
  136POPC   C3A 5357   0.313  38.261   8.099
  136POPC   C4A 5358   0.556  38.265   7.688
  136POPC   C1B 5359   0.567  38.994   8.621
  136POPC   C2B 5360   0.625  38.710   8.302
  136POPC   C3B 5361   0.446  38.709   7.927
  136POPC   C4B 5362   0.098  38.694   7.669
  137POPC   NC3 5363  31.894   5.685   9.445
  137POPC   PO4 5364  31.645   6.263   9.378
  137POPC   GL1 5365  31.459   5.927   9.110
  137POPC   GL2 5366  31.393   5.569   9.239
  137POPC   C1A 5367  31.224   5.887   8.704
  137POPC   D2A 5368  31.130   5.887   8.247
  137POPC   C3A 5369  31.459   6.117   7.993
  137POPC   C4A 5370  31.615   6.048   7.577
  137POPC   C1B 5371  31.553   5.482   8.812
  137POPC   C2B 5372  31.555   5.601   8.350
  137POPC   C3B 5373  31.410   5.630   7.892
  137POPC   C4B 5374  31.339   5.630   7.415
  138POPC   NC3 5375  35.551  23.449   9.371
  138POPC   PO4 5376  34.960  23.614   9.758
  138POPC   GL1 5377  34.963  23.641   9.242
  138POPC   GL2 5378  35.281  23.815   9.124
  138POPC   C1A 5379  35.144  23.453   8.816
  138POPC   D2A 5380  35.507  23.638   8.601
  138POPC   C3A 5381  35.372  23.679   8.188
  138POPC   C4A 5382  35.362  23.723   7.761
  138POPC   C1B 5383  35.483  24.092   8.853
  138POPC   C2B 5384  35.368  24.117   8.459
  138POPC   C3B 5385  35.349  24.181   8.037
  138POPC   C4B 5386  35.558  24.218   7.672
  139POPC   NC3 5387   5.143  32.187   9.471
  139POPC   PO4 5388   5.773  32.160   9.445
  139POPC   GL1 5389   5.520  32.125   9.065
  139POPC   GL2 5390   5.354  32.426   9.049
  139POPC   C1A 5391   5.135  32.074   8.765
  139POPC   D2A 5392   4.880  32.083   8.397
  139POPC   C3A 5393   5.163  32.158   8.074
  139POPC   C4A 5394   5.187  32.383   7.725
  139POPC   C1B 5395   4.950  32.567   8.859
  139POPC   C2B 5396   4.787  32.603   8.428
  139POPC   C3B 5397   4.750  32.450   8.012
  139POPC   C4B 5398   4.706  32.572   7.587
  140POPC   NC3 5399  11.611  43.396   9.540
  140POPC   PO4 5400  11.369  44.007   9.663
  140POPC   GL1 5401  11.379  43.770   9.288
  140POPC   GL2 5402  11.290  43.984   9.095
  140POPC   C1A 5403  11.608  43.707   8.833
  140POPC   D2A 5404  11.484  43.789   8.408
  140POPC   C3A 5405  11.648  43.562   8.070
  140POPC   C4A 5406  11.668  43.840   7.735
  140POPC   C1B 5407  11.358  44.185   8.702
  140POPC   C2B 5408  11.241  44.269   8.289
  140POPC   C3B 5409  11.366  44.232   7.885
  140POPC   C4B 5410  11.139  43.918   7.722
  141POPC   NC3 5411  39.457  40.641   9.458
  141POPC   PO4 5412  38.993  41.024   9.475
  141POPC   GL1 5413  39.184  40.855   9.094
  141POPC   GL2 5414  39.070  40.497   9.081
  141POPC   C1A 5415  39.434  40.600   8.745
  141POPC   D2A 5416  39.317  40.404   8.323
  141POPC   C3A 5417  39.295  40.712   7.950
  141POPC   C4A 5418  39.445  40.878   7.532
  141POPC   C1B 5419  38.939  40.696   8.676
  141POPC   C2B 5420  38.809  40.533   8.274
  141POPC   C3B 5421  38.812  40.677   7.861
  141POPC   C4B 5422  38.916  41.026   7.586
  142POPC   NC3 5423  40.622  31.777   9.432
  142POPC   PO4 5424  41.089  31.271   9.492
  142POPC   GL1 5425  40.824  31.383   9.143
  142POPC   GL2 5426  40.519  31.218   9.039
  142POPC   C1A 5427  40.868  31.346   8.704
  142POPC   D2A 5428  40.540  31.152   8.435
  142POPC   C3A 5429  40.743  31.099   8.042
  142POPC   C4A 5430  40.733  31.211   7.600
  142POPC   C1B 5431  40.452  31.610   8.792
  142POPC   C2B 5432  40.644  31.656   8.351
  142POPC   C3B 5433  40.619  31.596   7.917
  142POPC   C4B 5434  40.365  31.846   7.632
  143POPC   NC3 5435  12.173  25.593   9.317
  143POPC   PO4 5436  11.912  25.050   9.621
  143POPC   GL1 5437  11.949  24.959   9.164
  143POPC   GL2 5438  12.220  25.169   9.072
  143POPC   C1A 5439  11.952  25.107   8.663
  143POPC   D2A 5440  11.935  25.366   8.269
  143POPC   C3A 5441  11.966  25.086   7.909
  143POPC   C4A 5442  12.009  25.037   7.480
  143POPC   C1B 5443  12.439  25.496   8.746
  143POPC   C2B 5444  12.492  25.603   8.294
  143POPC   C3B 5445  12.311  25.453   7.902
  143POPC   C4B 5446  12.393  25.339   7.435
  144POPC   NC3 5447  43.090  13.101   9.493
  144POPC   PO4 5448  43.672  12.666   9.508
  144POPC   GL1 5449  43.552  12.779   9.086
  144POPC   GL2 5450  43.194  12.805   9.085
  144POPC   C1A 5451  43.549  12.774   8.629
  144POPC   D2A 5452  43.189  12.740   8.327
  144POPC   C3A 5453  43.237  12.593   7.909
  144POPC   C4A 5454  43.218  12.742   7.500
  144POPC   C1B 5455  42.915  12.900   8.756
  144POPC   C2B 5456  42.916  13.150   8.383
  144POPC   C3B 5457  42.765  12.979   8.018
  144POPC   C4B 5458  42.847  13.058   7.611
  145POPC   NC3 5459  40.159   0.082   9.471
  145POPC   PO4 5460  39.679   0.528   9.555
  145POPC   GL1 5461  39.906   0.474   9.171
  145POPC   GL2 5462  39.750   0.166   9.138
  145POPC   C1A 5463  40.118   0.531   8.747
  145POPC   D2A 5464  40.283   0.454   8.322
  145POPC   C3A 5465  40.018   0.538   7.967
  145POPC   C4A 5466  40.194   0.702   7.606
  145POPC   C1B 5467  39.667   0.264   8.728
  145POPC   C2B 5468  39.814   0.226   8.323
  145POPC   C3B 5469  39.639   0.166   7.893
  145POPC   C4B 5470  39.674   0.245   7.422
  146POPC   NC3 5471   1.236  21.667   9.432
  146POPC   PO4 5472   1.049  20.982   9.517
  146POPC   GL1 5473   1.272  21.181   9.156
  146POPC   GL2 5474   1.078  21.456   9.005
  146POPC   C1A 5475   1.373  21.137   8.703
  146POPC   D2A 5476   1.188  21.175   8.288
  146POPC   C3A 5477   1.353  21.233   7.909
  146POPC   C4A 5478   1.297  21.613   7.668
  146POPC   C1B 5479   1.420  21.649   8.789
  146POPC   C2B 5480   1.496  21.631   8.348
  146POPC   C3B 5481   1.575  21.913   8.010
  146POPC   C4B 5482   1.692  21.903   7.557
  147POPC   NC3 5483  44.107   1.699   9.626
  147POPC   PO4 5484  43.669   2.245   9.428
  147POPC   GL1 5485  44.018   2.088   9.240
  147POPC   GL2 5486  44.012   1.742   9.118
  147POPC   C1A 5487  44.121   2.272   8.842
  147POPC   D2A 5488  44.019   2.449   8.425
  147POPC   C3A 5489  43.974   2.085   8.087
  147POPC   C4A 5490  43.765   1.945   7.656
  147POPC   C1B 5491  44.029   1.753   8.657
  147POPC   C2B 5492  44.175   1.590   8.246
  147POPC   C3B 5493  44.166   1.695   7.804
  147POPC   C4B 5494  44.065   1.681   7.323
  148POPC   NC3 5495  34.277   5.495   9.525
  148POPC   PO4 5496  34.681   4.985   9.453
  148POPC   GL1 5497  34.604   5.276   9.154
  148POPC   GL2 5498  34.337   5.152   9.040
  148POPC   C1A 5499  34.758   5.323   8.764
  148POPC   D2A 5500  34.617   5.202   8.354
  148POPC   C3A 5501  34.829   5.203   7.981
  148POPC   C4A 5502  34.873   5.078   7.575
  148POPC   C1B 5503  34.523   4.857   8.751
  148POPC   C2B 5504  34.505   4.711   8.326
  148POPC   C3B 5505  34.597   4.731   7.877
  148POPC   C4B 5506  34.431   4.877   7.466
  149POPC   NC3 5507  15.998  30.803   9.537
  149POPC   PO4 5508  15.389  30.621   9.569
  149POPC   GL1 5509  15.691  30.546   9.183
  149POPC   GL2 5510  16.080  30.501   9.101
  149POPC   C1A 5511  15.768  30.713   8.750
  149POPC   D2A 5512  15.890  30.592   8.331
  149POPC   C3A 5513  15.772  30.884   8.018
  149POPC   C4A 5514  15.646  30.752   7.649
  149POPC   C1B 5515  16.303  30.562   8.659
  149POPC   C2B 5516  16.368  30.509   8.183
  149POPC   C3B 5517  16.166  30.673   7.769
  149POPC   C4B 5518  16.353  30.953   7.419
  150POPC   NC3 5519  10.156  34.996   9.291
  150POPC   PO4 5520  10.035  35.565   9.689
  150POPC   GL1 5521  10.065  35.515   9.242
  150POPC   GL2 5522   9.751  35.337   9.179
  150POPC   C1A 5523  10.067  35.451   8.776
  150POPC   D2A 5524   9.754  35.544   8.466
  150POPC   C3A 5525   9.837  35.505   8.051
  150POPC   C4A 5526   9.869  35.284   7.698
  150POPC   C1B 5527   9.524  35.108   8.837
  150POPC   C2B 5528   9.630  35.039   8.389
  150POPC   C3B 5529   9.474  35.083   7.980
  150POPC   C4B 5530   9.465  35.059   7.520
  151POPC   NC3 5531  41.194  26.436   9.867
  151POPC   PO4 5532  41.656  26.836   9.567
  151POPC   GL1 5533  41.602  27.021   9.171
  151POPC   GL2 5534  41.531  26.728   9.047
  151POPC   C1A 5535  41.480  27.139   8.762
  151POPC   D2A 5536  41.616  26.889   8.441
  151POPC   C3A 5537  41.596  27.049   8.036
  151POPC   C4A 5538  41.573  26.660   7.857
  151POPC   C1B 5539  41.245  26.683   8.749
  151POPC   C2B 5540  41.077  26.926   8.466
  151POPC   C3B 5541  41.116  26.837   8.060
  151POPC   C4B 5542  41.197  26.986   7.671
  152POPC   NC3 5543  13.056  23.256   9.451
  152POPC   PO4 5544  12.849  22.621   9.631
  152POPC   GL1 5545  12.821  22.852   9.266
  152POPC   GL2 5546  12.559  23.137   9.260
  152POPC   C1A 5547  12.920  22.978   8.853
  152POPC   D2A 5548  13.186  23.001   8.510
  152POPC   C3A 5549  12.912  22.953   8.186
  152POPC   C4A 5550  12.817  23.067   7.794
  152POPC   C1B 5551  12.439  22.797   8.963
  152POPC   C2B 5552  12.470  22.640   8.531
  152POPC   C3B 5553  12.442  22.744   8.097
  152POPC   C4B 5554  12.470  22.514   7.722
  153POPC   NC3 5555  24.771  17.403   9.472
  153POPC   PO4 5556  24.332  17.899   9.368
  153POPC   GL1 5557  24.596  17.698   9.095
  153POPC   GL2 5558  24.382  17.403   9.139
  153POPC   C1A 5559  24.680  17.422   8.749
  153POPC   D2A 5560  24.514  17.341   8.371
  153POPC   C3A 5561  24.702  17.488   7.992
  153POPC   C4A 5562  24.673  17.339   7.533
  153POPC   C1B 5563  24.190  17.576   8.778
  153POPC   C2B 5564  24.012  17.667   8.388
  153POPC   C3B 5565  24.237  17.682   8.058
  153POPC   C4B 5566  24.399  17.756   7.659
  154POPC   NC3 5567  12.914   8.842   9.858
  154POPC   PO4 5568  12.752   8.620   9.250
  154POPC   GL1 5569  12.841   8.792   8.920
  154POPC   GL2 5570  12.947   9.088   9.086
  154POPC   C1A 5571  13.151   8.709   8.607
  154POPC   D2A 5572  13.218   8.813   8.174
  154POPC   C3A 5573  12.791   8.759   8.004
  154POPC   C4A 5574  12.550   8.898   7.661
  154POPC   C1B 5575  13.018   9.200   8.670
  154POPC   C2B 5576  12.815   9.192   8.289
  154POPC   C3B 5577  12.898   9.257   7.860
  154POPC   C4B 5578  13.067   8.995   7.529
  155POPC   NC3 5579  25.172  29.584   9.517
  155POPC   PO4 5580  25.443  28.968   9.367
  155POPC   GL1 5581  25.105  29.213   9.121
  155POPC   GL2 5582  24.892  29.545   9.119
  155POPC   C1A 5583  25.210  29.225   8.699
  155POPC   D2A 5584  25.426  29.329   8.354
  155POPC   C3A 5585  25.236  29.112   8.058
  155POPC   C4A 5586  25.270  29.106   7.656
  155POPC   C1B 5587  24.788  29.486   8.742
  155POPC   C2B 5588  24.858  29.352   8.309
  155POPC   C3B 5589  24.827  29.337   7.845
  155POPC   C4B 5590  24.715  29.418   7.409
  156POPC   NC3 5591  40.854  39.836   9.575
  156POPC   PO4 5592  40.538  40.424   9.511
  156POPC   GL1 5593  40.731  40.181   9.191
  156POPC   GL2 5594  41.030  40.325   9.085
  156POPC   C1A 5595  40.551  40.033   8.807
  156POPC   D2A 5596  40.258  40.022   8.496
  156POPC   C3A 5597  40.418  39.922   8.147
  156POPC   C4A 5598  40.639  39.969   7.824
  156POPC   C1B 5599  40.913  40.381   8.690
  156POPC   C2B 5600  40.927  40.089   8.377
  156POPC   C3B 5601  41.104  39.956   8.032
  156POPC   C4B 5602  41.329  40.186   7.750
  157POPC   NC3 5603  34.186   9.736   9.415
  157POPC   PO4 5604  34.894   9.757   9.400
  157POPC   GL1 5605  34.812   9.515   9.076
  157POPC   GL2 5606  34.444   9.542   9.023
  157POPC   C1A 5607  34.800   9.675   8.697
  157POPC   D2A 5608  34.578   9.530   8.391
  157POPC   C3A 5609  34.613   9.813   8.074
  157POPC   C4A 5610  34.497   9.570   7.743
  157POPC   C1B 5611  34.349   9.935   8.779
  157POPC   C2B 5612  34.180   9.905   8.369
  157POPC   C3B 5613  34.090   9.754   7.980
  157POPC   C4B 5614  34.244   9.977   7.630
  158POPC   NC3 5615  22.900   0.187   9.388
  158POPC   PO4 5616  23.089   0.845   9.555
  158POPC   GL1 5617  23.128   0.599   9.148
  158POPC   GL2 5618  23.405   0.331   9.089
  158POPC   C1A 5619  22.850   0.615   8.785
  158POPC   D2A 5620  22.600   0.421   8.481
  158POPC   C3A 5621  22.726   0.515   8.094
  158POPC   C4A 5622  22.620   0.478   7.709
  158POPC   C1B 5623  23.384   0.335   8.659
  158POPC   C2B 5624  23.161   0.602   8.380
  158POPC   C3B 5625  23.218   0.907   8.091
  158POPC   C4B 5626  23.154   0.626   7.777
  159POPC   NC3 5627   3.324  22.979   9.409
  159POPC   PO4 5628   2.667  22.914   9.615
  159POPC   GL1 5629   2.628  22.963   9.183
  159POPC   GL2 5630   2.416  23.250   9.256
  159POPC   C1A 5631   2.542  22.765   8.766
  159POPC   D2A 5632   2.666  22.711   8.329
  159POPC   C3A 5633   2.542  22.824   7.907
  159POPC   C4A 5634   2.924  22.720   7.701
  159POPC   C1B 5635   2.414  23.265   8.819
  159POPC   C2B 5636   2.737  23.226   8.508
  159POPC   C3B 5637   2.870  23.157   8.081
  159POPC   C4B 5638   2.611  23.334   7.724
  160POPC   NC3 5639  12.277  43.130   9.402
  160POPC   PO4 5640  11.825  42.613   9.305
  160POPC   GL1 5641  12.018  42.990   9.021
  160POPC   GL2 5642  11.915  43.371   9.083
  160POPC   C1A 5643  12.189  43.235   8.665
  160POPC   D2A 5644  12.038  43.244   8.214
  160POPC   C3A 5645  12.288  43.187   7.880
  160POPC   C4A 5646  12.407  43.534   7.638
  160POPC   C1B 5647  11.682  43.208   8.688
  160POPC   C2B 5648  11.698  42.905   8.355
  160POPC   C3B 5649  11.679  43.005   7.913
  160POPC   C4B 5650  11.802  42.759   7.523
  161POPC   NC3 5651  23.710  21.193   9.766
  161POPC   PO4 5652  23.624  21.803   9.581
  161POPC   GL1 5653  23.758  21.542   9.187
  161POPC   GL2 5654  23.919  21.204   9.176
  161POPC   C1A 5655  23.766  21.393   8.733
  161POPC   D2A 5656  23.790  21.495   8.315
  161POPC   C3A 5657  23.562  21.453   7.910
  161POPC   C4A 5658  23.690  21.289   7.494
  161POPC   C1B 5659  23.961  20.904   8.795
  161POPC   C2B 5660  23.797  20.834   8.380
  161POPC   C3B 5661  23.852  21.056   8.002
  161POPC   C4B 5662  24.248  20.977   7.833
  162POPC   NC3 5663   4.795  11.540   9.548
  162POPC   PO4 5664   5.204  11.041   9.404
  162POPC   GL1 5665   5.278  11.233   9.073
  162POPC   GL2 5666   5.134  11.544   9.135
  162POPC   C1A 5667   5.330  11.212   8.655
  162POPC   D2A 5668   5.088  11.427   8.366
  162POPC   C3A 5669   5.259  11.224   8.027
  162POPC   C4A 5670   5.021  11.013   7.659
  162POPC   C1B 5671   5.354  11.709   8.777
  162POPC   C2B 5672   5.257  11.946   8.429
  162POPC   C3B 5673   5.163  11.821   8.019
  162POPC   C4B 5674   4.993  11.539   7.754
  163POPC   NC3 5675  26.081  24.699   9.450
  163POPC   PO4 5676  25.656  24.073   9.475
  163POPC   GL1 5677  25.806  24.085   9.082
  163POPC   GL2 5678  25.991  24.407   9.028
  163POPC   C1A 5679  25.806  24.106   8.648
  163POPC   D2A 5680  25.878  24.484   8.431
  163POPC   C3A 5681  26.037  24.409   8.038
  163POPC   C4A 5682  25.895  24.322   7.624
  163POPC   C1B 5683  26.308  24.542   8.733
  163POPC   C2B 5684  26.458  24.604   8.322
  163POPC   C3B 5685  26.357  24.841   8.004
  163POPC   C4B 5686  26.253  24.931   7.566
  164POPC   NC3 5687  25.137   0.859   9.204
  164POPC   PO4 5688  25.368   1.376   9.634
  164POPC   GL1 5689  25.309   1.372   9.183
  164POPC   GL2 5690  25.013   1.450   8.967
  164POPC   C1A 5691  25.467   1.510   8.749
  164POPC   D2A 5692  25.240   1.579   8.359
  164POPC   C3A 5693  25.256   1.240   8.078
  164POPC   C4A 5694  25.589   1.189   7.742
  164POPC   C1B 5695  25.147   1.138   8.619
  164POPC   C2B 5696  25.473   0.894   8.408
  164POPC   C3B 5697  25.436   0.770   7.976
  164POPC   C4B 5698  25.684   0.651   7.649
  165POPC   NC3 5699   6.979  37.413   9.348
  165POPC   PO4 5700   6.455  37.942   9.416
  165POPC   GL1 5701   6.551  37.618   9.156
  165POPC   GL2 5702   6.346  37.344   9.205
  165POPC   C1A 5703   6.707  37.669   8.736
  165POPC   D2A 5704   6.579  37.670   8.322
  165POPC   C3A 5705   6.929  37.749   8.028
  165POPC   C4A 5706   6.991  37.898   7.606
  165POPC   C1B 5707   6.552  37.198   8.834
  165POPC   C2B 5708   6.615  37.115   8.430
  165POPC   C3B 5709   6.673  37.304   7.988
  165POPC   C4B 5710   6.428  37.627   7.829
  166POPC   NC3 5711  24.061  19.743   9.607
  166POPC   PO4 5712  23.448  19.858   9.498
  166POPC   GL1 5713  23.803  19.833   9.188
  166POPC   GL2 5714  23.895  19.487   9.183
  166POPC   C1A 5715  23.953  20.037   8.805
  166POPC   D2A 5716  23.851  20.274   8.410
  166POPC   C3A 5717  23.831  20.049   7.986
  166POPC   C4A 5718  23.580  19.969   7.598
  166POPC   C1B 5719  23.694  19.591   8.755
  166POPC   C2B 5720  23.569  19.810   8.365
  166POPC   C3B 5721  23.475  19.616   7.959
  166POPC   C4B 5722  23.541  19.400   7.588
  167POPC   NC3 5723  15.748  43.118   9.493
  167POPC   PO4 5724  16.318  43.535   9.529
  167POPC   GL1 5725  16.113  43.279   9.167
  167POPC   GL2 5726  15.999  42.926   9.087
  167POPC   C1A 5727  15.902  43.283   8.742
  167POPC   D2A 5728  15.820  43.378   8.311
  167POPC   C3A 5729  16.013  43.084   8.090
  167POPC   C4A 5730  16.182  43.135   7.718
  167POPC   C1B 5731  15.962  42.672   8.718
  167POPC   C2B 5732  15.708  42.848   8.415
  167POPC   C3B 5733  15.498  42.976   8.048
  167POPC   C4B 5734  15.569  42.791   7.665
  168POPC   NC3 5735  41.812  12.877   9.528
  168POPC   PO4 5736  41.161  12.980   9.524
  168POPC   GL1 5737  41.387  12.720   9.214
  168POPC   GL2 5738  41.696  12.531   9.148
  168POPC   C1A 5739  41.460  12.809   8.788
  168POPC   D2A 5740  41.473  12.974   8.401
  168POPC   C3A 5741  41.341  12.782   8.061
  168POPC   C4A 5742  41.427  12.701   7.660
  168POPC   C1B 5743  41.932  12.613   8.799
  168POPC   C2B 5744  41.954  12.811   8.397
  168POPC   C3B 5745  41.860  12.762   7.958
  168POPC   C4B 5746  41.899  12.695   7.508
  169POPC   NC3 5747  30.712   3.941   9.361
  169POPC   PO4 5748  31.042   4.603   9.495
  169POPC   GL1 5749  30.852   4.411   9.123
  169POPC   GL2 5750  30.937   4.054   8.946
  169POPC   C1A 5751  30.606   4.583   8.754
  169POPC   D2A 5752  30.274   4.609   8.459
  169POPC   C3A 5753  30.438   4.608   8.057
  169POPC   C4A 5754  30.420   4.214   7.891
  169POPC   C1B 5755  31.037   4.331   8.669
  169POPC   C2B 5756  30.878   4.457   8.313
  169POPC   C3B 5757  30.909   4.299   7.945
  169POPC   C4B 5758  30.817   4.585   7.705
  170POPC   NC3 5759  11.833   4.999   9.787
  170POPC   PO4 5760  12.036   5.310   9.223
  170POPC   GL1 5761  11.904   5.228   8.878
  170POPC   GL2 5762  12.090   4.917   8.861
  170POPC   C1A 5763  12.052   5.335   8.530
  170POPC   D2A 5764  12.196   5.196   8.219
  170POPC   C3A 5765  12.000   4.985   7.936
  170POPC   C4A 5766  12.196   4.590   7.930
  170POPC   C1B 5767  11.688   4.829   8.649
  170POPC   C2B 5768  11.567   4.669   8.264
  170POPC   C3B 5769  11.710   4.570   7.865
  170POPC   C4B 5770  11.685   4.869   7.547
  171POPC   NC3 5771  41.774  33.387   9.419
  171POPC   PO4 5772  41.233  33.051   9.568
  171POPC   GL1 5773  41.384  33.148   9.167
  171POPC   GL2 5774  41.691  32.927   9.157
  171POPC   C1A 5775  41.331  32.963   8.760
  171POPC   D2A 5776  41.478  33.073   8.347
  171POPC   C3A 5777  41.203  32.982   8.011
  171POPC   C4A 5778  41.230  32.679   7.706
  171POPC   C1B 5779  41.824  33.129   8.770
  171POPC   C2B 5780  41.987  33.051   8.353
  171POPC   C3B 5781  41.856  33.257   7.953
  171POPC   C4B 5782  41.863  33.210   7.482
  172POPC   NC3 5783  28.493  34.270   9.701
  172POPC   PO4 5784  28.499  33.601   9.610
  172POPC   GL1 5785  28.459  33.758   9.192
  172POPC   GL2 5786  28.597  34.073   9.247
  172POPC   C1A 5787  28.176  33.689   8.833
  172POPC   D2A 5788  28.069  33.577   8.435
  172POPC   C3A 5789  28.421  33.559   8.185
  172POPC   C4A 5790  28.309  33.576   7.765
  172POPC   C1B 5791  28.315  34.175   8.913
  172POPC   C2B 5792  28.454  33.997   8.517
  172POPC   C3B 5793  28.599  34.192   8.153
  172POPC   C4B 5794  28.467  34.101   7.785
  173POPC   NC3 5795  34.975  30.773   9.491
  173POPC   PO4 5796  35.538  30.603   9.496
  173POPC   GL1 5797  35.396  30.573   9.100
  173POPC   GL2 5798  35.034  30.605   9.028
  173POPC   C1A 5799  35.376  30.556   8.660
  173POPC   D2A 5800  35.074  30.644   8.412
  173POPC   C3A 5801  35.303  30.747   8.083
  173POPC   C4A 5802  35.409  30.647   7.691
  173POPC   C1B 5803  34.916  30.987   8.802
  173POPC   C2B 5804  35.012  31.168   8.421
  173POPC   C3B 5805  34.872  30.975   8.050
  173POPC   C4B 5806  34.898  30.873   7.647
  174POPC   NC3 5807  36.390   1.009   9.556
  174POPC   PO4 5808  35.878   1.439   9.575
  174POPC   GL1 5809  36.215   1.408   9.246
  174POPC   GL2 5810  36.058   1.083   9.159
  174POPC   C1A 5811  36.298   1.334   8.781
  174POPC   D2A 5812  36.068   1.327   8.361
  174POPC   C3A 5813  36.246   1.306   7.928
  174POPC   C4A 5814  36.581   1.202   7.618
  174POPC   C1B 5815  35.789   1.150   8.796
  174POPC   C2B 5816  35.798   0.886   8.424
  174POPC   C3B 5817  35.872   0.986   8.010
  174POPC   C4B 5818  35.830   1.266   7.625
  175POPC   NC3 5819  31.771   7.388   9.516
  175POPC   PO4 5820  31.180   7.618   9.343
  175POPC   GL1 5821  31.479   7.359   9.067
  175POPC   GL2 5822  31.845   7.472   9.037
  175POPC   C1A 5823  31.614   7.417   8.604
  175POPC   D2A 5824  31.722   7.793   8.391
  175POPC   C3A 5825  31.481   7.729   8.068
  175POPC   C4A 5826  31.630   7.593   7.692
  175POPC   C1B 5827  31.855   7.052   8.853
  175POPC   C2B 5828  31.808   6.924   8.413
  175POPC   C3B 5829  31.738   7.167   8.021
  175POPC   C4B 5830  31.909   7.175   7.575
  176POPC   NC3 5831   4.906  42.082   9.469
  176POPC   PO4 5832   5.181  42.658   9.523
  176POPC   GL1 5833   5.123  42.466   9.165
  176POPC   GL2 5834   4.791  42.450   9.102
  176POPC   C1A 5835   5.201  42.295   8.756
  176POPC   D2A 5836   5.064  42.383   8.333
  176POPC   C3A 5837   5.349  42.592   8.069
  176POPC   C4A 5838   5.207  42.525   7.648
  176POPC   C1B 5839   4.690  42.326   8.700
  176POPC   C2B 5840   4.614  42.124   8.291
  176POPC   C3B 5841   4.754  42.111   7.869
  176POPC   C4B 5842   4.979  42.090   7.485
  177POPC   NC3 5843  36.414   1.774   9.858
  177POPC   PO4 5844  36.260   2.127   9.354
  177POPC   GL1 5845  36.436   2.157   8.989
  177POPC   GL2 5846  36.255   1.853   8.924
  177POPC   C1A 5847  36.587   2.127   8.609
  177POPC   D2A 5848  36.347   2.210   8.309
  177POPC   C3A 5849  36.289   1.981   7.981
  177POPC   C4A 5850  36.304   2.353   7.745
  177POPC   C1B 5851  35.945   1.703   8.690
  177POPC   C2B 5852  35.925   1.865   8.334
  177POPC   C3B 5853  35.859   1.655   7.991
  177POPC   C4B 5854  35.926   1.782   7.599
  178POPC   NC3 5855  26.368  22.041   9.573
  178POPC   PO4 5856  26.147  22.636   9.495
  178POPC   GL1 5857  26.094  22.364   9.162
  178POPC   GL2 5858  26.423  22.265   9.106
  178POPC   C1A 5859  25.859  22.104   8.885
  178POPC   D2A 5860  25.801  21.955   8.452
  178POPC   C3A 5861  25.906  22.219   8.105
  178POPC   C4A 5862  25.824  22.001   7.701
  178POPC   C1B 5863  26.606  22.173   8.713
  178POPC   C2B 5864  26.413  22.086   8.309
  178POPC   C3B 5865  26.313  22.021   7.890
  178POPC   C4B 5866  26.289  22.012   7.413
  179POPC   NC3 5867  14.992  38.051   9.477
  179POPC   PO4 5868  15.022  38.734   9.710
  179POPC   GL1 5869  15.242  38.693   9.288
  179POPC   GL2 5870  15.302  38.374   9.200
  179POPC   C1A 5871  15.244  38.731   8.830
  179POPC   D2A 5872  15.355  38.494   8.439
  179POPC   C3A 5873  15.264  38.643   8.013
  179POPC   C4A 5874  14.921  38.511   7.724
  179POPC   C1B 5875  15.119  38.239   8.832
  179POPC   C2B 5876  15.078  38.042   8.448
  179POPC   C3B 5877  15.174  38.131   8.048
  179POPC   C4B 5878  15.012  38.001   7.686
  180POPC   NC3 5879  38.776  15.352   9.820
  180POPC   PO4 5880  38.103  15.279   9.527
  180POPC   GL1 5881  38.184  15.339   9.139
  180POPC   GL2 5882  38.364  15.014   9.084
  180POPC   C1A 5883  38.274  15.342   8.729
  180POPC   D2A 5884  38.579  15.398   8.451
  180POPC   C3A 5885  38.450  15.467   8.049
  180POPC   C4A 5886  38.753  15.414   7.718
  180POPC   C1B 5887  38.563  14.859   8.723
  180POPC   C2B 5888  38.409  14.932   8.301
  180POPC   C3B 5889  38.577  14.966   7.900
  180POPC   C4B 5890  38.637  14.925   7.457
  181POPC   NC3 5891  37.307  41.327   9.140
  181POPC   PO4 5892  37.642  41.715   9.613
  181POPC   GL1 5893  37.909  41.576   9.209
  181POPC   GL2 5894  38.013  41.209   9.184
  181POPC   C1A 5895  37.946  41.734   8.753
  181POPC   D2A 5896  37.540  41.753   8.523
  181POPC   C3A 5897  37.594  41.819   8.074
  181POPC   C4A 5898  37.859  41.524   7.822
  181POPC   C1B 5899  37.893  41.230   8.749
  181POPC   C2B 5900  37.785  41.275   8.310
  181POPC   C3B 5901  37.593  41.109   7.945
  181POPC   C4B 5902  37.584  41.214   7.501
  182POPC   NC3 5903  20.944  29.121   9.543
  182POPC   PO4 5904  21.565  29.312   9.495
  182POPC   GL1 5905  21.287  29.365   9.158
  182POPC   GL2 5906  21.236  29.031   9.125
  182POPC   C1A 5907  21.419  29.394   8.727
  182POPC   D2A 5908  21.533  29.155   8.371
  182POPC   C3A 5909  21.550  29.338   7.966
  182POPC   C4A 5910  21.369  29.221   7.567
  182POPC   C1B 5911  21.407  28.819   8.758
  182POPC   C2B 5912  21.528  28.617   8.391
  182POPC   C3B 5913  21.489  28.780   8.005
  182POPC   C4B 5914  21.276  28.734   7.655
  183POPC   NC3 5915  19.803  34.817   9.438
  183POPC   PO4 5916  20.021  34.231   9.402
  183POPC   GL1 5917  19.907  34.449   9.091
  183POPC   GL2 5918  19.613  34.281   9.038
  183POPC   C1A 5919  20.069  34.714   8.762
  183POPC   D2A 5920  20.189  34.558   8.390
  183POPC   C3A 5921  20.133  34.801   8.062
  183POPC   C4A 5922  20.019  34.676   7.665
  183POPC   C1B 5923  19.575  34.694   8.795
  183POPC   C2B 5924  19.658  34.886   8.393
  183POPC   C3B 5925  19.592  34.747   7.977
  183POPC   C4B 5926  19.487  34.870   7.561
  184POPC   NC3 5927  33.428  40.809   9.476
  184POPC   PO4 5928  33.985  40.491   9.388
  184POPC   GL1 5929  33.796  40.651   9.046
  184POPC   GL2 5930  33.509  40.882   8.996
  184POPC   C1A 5931  33.948  40.464   8.682
  184POPC   D2A 5932  34.180  40.729   8.444
  184POPC   C3A 5933  34.178  40.561   8.058
  184POPC   C4A 5934  33.897  40.713   7.758
  184POPC   C1B 5935  33.605  40.827   8.594
  184POPC   C2B 5936  33.434  40.681   8.253
  184POPC   C3B 5937  33.409  40.786   7.819
  184POPC   C4B 5938  33.566  40.780   7.383
  185POPC   NC3 5939  39.050  32.698   9.824
  185POPC   PO4 5940  39.108  33.297   9.472
  185POPC   GL1 5941  39.229  33.034   9.160
  185POPC   GL2 5942  39.200  32.705   9.297
  185POPC   C1A 5943  39.230  33.140   8.738
  185POPC   D2A 5944  38.992  33.073   8.385
  185POPC   C3A 5945  39.330  33.041   8.110
  185POPC   C4A 5946  39.281  33.187   7.736
  185POPC   C1B 5947  39.025  32.677   8.863
  185POPC   C2B 5948  39.257  32.626   8.488
  185POPC   C3B 5949  39.250  32.545   8.044
  185POPC   C4B 5950  39.374  32.682   7.644
  186POPC   NC3 5951  16.771  14.089   9.618
  186POPC   PO4 5952  17.442  13.894   9.642
  186POPC   GL1 5953  17.581  13.868   9.221
  186POPC   GL2 5954  17.415  13.544   9.138
  186POPC   C1A 5955  17.681  13.820   8.776
  186POPC   D2A 5956  17.459  13.454   8.554
  186POPC   C3A 5957  17.561  13.464   8.112
  186POPC   C4A 5958  17.751  13.789   7.828
  186POPC   C1B 5959  17.173  13.789   8.825
  186POPC   C2B 5960  17.242  13.897   8.360
  186POPC   C3B 5961  17.243  13.859   7.888
  186POPC   C4B 5962  17.359  13.504   7.647
  187POPC   NC3 5963  26.410   7.771   9.474
  187POPC   PO4 5964  26.888   7.350   9.491
  187POPC   GL1 5965  26.578   7.343   9.176
  187POPC   GL2 5966  26.772   7.083   8.987
  187POPC   C1A 5967  26.475   7.389   8.729
  187POPC   D2A 5968  26.665   7.173   8.431
  187POPC   C3A 5969  26.753   7.430   8.099
  187POPC   C4A 5970  26.535   7.415   7.714
  187POPC   C1B 5971  26.977   7.442   8.814
  187POPC   C2B 5972  27.154   7.350   8.425
  187POPC   C3B 5973  27.224   7.151   8.058
  187POPC   C4B 5974  27.043   7.305   7.691
  188POPC   NC3 5975  41.354  24.894   9.337
  188POPC   PO4 5976  40.693  24.829   9.298
  188POPC   GL1 5977  40.995  24.560   9.067
  188POPC   GL2 5978  41.028  24.197   9.214
  188POPC   C1A 5979  40.979  24.600   8.606
  188POPC   D2A 5980  40.996  24.851   8.228
  188POPC   C3A 5981  40.737  24.734   7.854
  188POPC   C4A 5982  40.959  24.773   7.448
  188POPC   C1B 5983  40.666  24.172   8.934
  188POPC   C2B 5984  40.643  24.224   8.500
  188POPC   C3B 5985  40.802  24.298   8.103
  188POPC   C4B 5986  40.566  24.175   7.767
  189POPC   NC3 5987  39.405  12.852   9.438
  189POPC   PO4 5988  38.963  12.363   9.524
  189POPC   GL1 5989  39.092  12.579   9.133
  189POPC   GL2 5990  39.446  12.432   9.135
  189POPC   C1A 5991  39.212  12.949   8.810
  189POPC   D2A 5992  39.007  13.201   8.508
  189POPC   C3A 5993  39.189  13.082   8.158
  189POPC   C4A 5994  39.197  13.064   7.777
  189POPC   C1B 5995  39.341  12.472   8.711
  189POPC   C2B 5996  39.117  12.635   8.400
  189POPC   C3B 5997  39.135  12.593   7.986
  189POPC   C4B 5998  39.482  12.540   7.691
  190POPC   NC3 5999  43.213  44.234   9.402
  190POPC   PO4 6000  42.842  43.690   9.439
  190POPC   GL1 6001  43.140  43.739   9.093
  190POPC   GL2 6002  43.459  43.844   9.148
  190POPC   C1A 6003  43.384  43.597   8.703
  190POPC   D2A 6004  43.036  43.724   8.452
  190POPC   C3A 6005  43.036  43.892   8.067
  190POPC   C4A 6006  42.804  44.083   7.782
  190POPC   C1B 6007  43.326  44.096   8.759
  190POPC   C2B 6008  43.476  44.043   8.323
  190POPC   C3B 6009  43.354  44.244   7.906
  190POPC   C4B 6010  43.184  44.132   7.472
  191POPC   NC3 6011  24.432  38.095   9.803
  191POPC   PO4 6012  24.203  37.465   9.660
  191POPC   GL1 6013  24.384  37.678   9.331
  191POPC   GL2 6014  24.449  37.397   9.136
  191POPC   C1A 6015  24.689  37.820   9.007
  191POPC   D2A 6016  24.758  37.769   8.556
  191POPC   C3A 6017  24.497  37.868   8.135
  191POPC   C4A 6018  24.578  38.079   7.691
  191POPC   C1B 6019  24.298  37.610   8.751
  191POPC   C2B 6020  24.063  37.587   8.353
  191POPC   C3B 6021  23.908  37.746   7.970
  191POPC   C4B 6022  24.205  37.719   7.667
  192POPC   NC3 6023  30.278  16.972   9.361
  192POPC   PO4 6024  30.759  17.424   9.545
  192POPC   GL1 6025  30.709  17.512   9.121
  192POPC   GL2 6026  30.370  17.420   9.106
  192POPC   C1A 6027  30.989  17.629   8.790
  192POPC   D2A 6028  30.860  17.470   8.405
  192POPC   C3A 6029  31.043  17.495   8.057
  192POPC   C4A 6030  30.857  17.436   7.684
  192POPC   C1B 6031  30.405  17.549   8.676
  192POPC   C2B 6032  30.461  17.741   8.245
  192POPC   C3B 6033  30.389  17.555   7.824
  192POPC   C4B 6034  30.427  17.094   7.681
  193POPC   NC3 6035   5.532  11.838   9.392
  193POPC   PO4 6036   4.928  11.943   9.731
  193POPC   GL1 6037   5.029  12.058   9.307
  193POPC   GL2 6038   4.748  11.894   9.154
  193POPC   C1A 6039   5.186  12.199   8.892
  193POPC   D2A 6040   5.322  12.447   8.507
  193POPC   C3A 6041   5.112  12.346   8.103
  193POPC   C4A 6042   5.052  12.176   7.665
  193POPC   C1B 6043   4.847  11.812   8.724
  193POPC   C2B 6044   4.741  11.991   8.316
  193POPC   C3B 6045   4.670  11.936   7.880
  193POPC   C4B 6046   4.695  11.810   7.452
  194POPC   NC3 6047  43.808  37.378   9.465
  194POPC   PO4 6048  44.030  38.021   9.536
  194POPC   GL1 6049  43.880  37.849   9.170
  194POPC   GL2 6050  43.535  37.879   9.089
  194POPC   C1A 6051  43.903  38.002   8.751
  194POPC   D2A 6052  44.089  37.715   8.503
  194POPC   C3A 6053  43.942  37.736   8.125
  194POPC   C4A 6054  44.094  37.786   7.727
  194POPC   C1B 6055  43.689  37.537   8.788
  194POPC   C2B 6056  43.671  37.318   8.395
  194POPC   C3B 6057  43.773  37.297   7.963
  194POPC   C4B 6058  43.656  37.586   7.619
  195POPC   NC3 6059  14.714   2.066   9.370
  195POPC   PO4 6060  14.540   2.754   9.518
  195POPC   GL1 6061  14.448   2.800   9.116
  195POPC   GL2 6062  14.542   3.155   9.022
  195POPC   C1A 6063  14.331   2.554   8.762
  195POPC   D2A 6064  14.105   2.586   8.389
  195POPC   C3A 6065  14.356   2.414   8.089
  195POPC   C4A 6066  14.452   2.533   7.708
  195POPC   C1B 6067  14.755   2.917   8.721
  195POPC   C2B 6068  14.655   2.709   8.380
  195POPC   C3B 6069  14.671   2.898   7.994
  195POPC   C4B 6070  14.502   3.037   7.622
  196POPC   NC3 6071  31.486   4.407   9.564
  196POPC   PO4 6072  31.172   3.812   9.375
  196POPC   GL1 6073  31.368   4.165   9.156
  196POPC   GL2 6074  31.705   4.138   9.164
  196POPC   C1A 6075  31.501   4.463   8.836
  196POPC   D2A 6076  31.404   4.587   8.425
  196POPC   C3A 6077  31.283   4.648   8.004
  196POPC   C4A 6078  31.367   4.325   7.742
  196POPC   C1B 6079  31.908   4.128   8.783
  196POPC   C2B 6080  31.827   3.973   8.385
  196POPC   C3B 6081  31.696   3.991   7.968
  196POPC   C4B 6082  31.857   4.384   7.775
  197POPC   NC3 6083  18.871  13.903   9.484
  197POPC   PO4 6084  19.364  13.476   9.422
  197POPC   GL1 6085  19.159  13.737   9.046
  197POPC   GL2 6086  18.827  13.990   8.995
  197POPC   C1A 6087  19.366  13.612   8.648
  197POPC   D2A 6088  19.245  13.389   8.272
  197POPC   C3A 6089  19.236  13.547   7.872
  197POPC   C4A 6090  19.107  13.765   7.488
  197POPC   C1B 6091  18.751  13.808   8.580
  197POPC   C2B 6092  18.819  13.662   8.156
  197POPC   C3B 6093  18.713  13.590   7.745
  197POPC   C4B 6094  18.598  13.842   7.347
  198POPC   NC3 6095  27.733  34.668   9.349
  198POPC   PO4 6096  27.115  34.692   9.457
  198POPC   GL1 6097  27.075  34.588   9.057
  198POPC   GL2 6098  27.396  34.448   9.008
  198POPC   C1A 6099  27.181  34.756   8.668
  198POPC   D2A 6100  27.326  34.595   8.279
  198POPC   C3A 6101  27.258  34.783   7.864
  198POPC   C4A 6102  27.487  34.614   7.451
  198POPC   C1B 6103  27.742  34.491   8.696
  198POPC   C2B 6104  27.813  34.716   8.316
  198POPC   C3B 6105  27.727  34.584   7.899
  198POPC   C4B 6106  27.969  34.419   7.531
  199POPC   NC3 6107  12.531   8.993   9.396
  199POPC   PO4 6108  11.842   8.802   9.595
  199POPC   GL1 6109  12.042   8.967   9.210
  199POPC   GL2 6110  12.166   9.330   9.214
  199POPC   C1A 6111  11.899   9.024   8.790
  199POPC   D2A 6112  11.856   8.879   8.364
  199POPC   C3A 6113  11.716   9.185   8.065
  199POPC   C4A 6114  11.951   9.218   7.706
  199POPC   C1B 6115  12.380   9.209   8.818
  199POPC   C2B 6116  12.381   8.946   8.466
  199POPC   C3B 6117  12.336   9.135   8.066
  199POPC   C4B 6118  12.422   9.389   7.728
  200POPC   NC3 6119  20.068  11.491   9.587
  200POPC   PO4 6120  19.481  11.181   9.597
  200POPC   GL1 6121  19.748  11.292   9.243
  200POPC   GL2 6122  19.727  11.655   9.199
  200POPC   C1A 6123  19.817  11.287   8.797
  200POPC   D2A 6124  19.771  11.080   8.406
  200POPC   C3A 6125  19.693  11.247   7.972
  200POPC   C4A 6126  19.812  11.344   7.507
  200POPC   C1B 6127  19.894  11.782   8.772
  200POPC   C2B 6128  19.981  11.578   8.349
  200POPC   C3B 6129  20.024  11.657   7.923
  200POPC   C4B 6130  19.812  11.831   7.604
  201POPC   NC3 6131  42.027  23.344   9.447
  201POPC   PO4 6132  41.491  23.674   9.569
  201POPC   GL1 6133  41.431  23.843   9.182
  201POPC   GL2 6134  41.732  23.657   9.113
  201POPC   C1A 6135  41.450  23.967   8.741
  201POPC   D2A 6136  41.611  23.732   8.428
  201POPC   C3A 6137  41.501  23.852   8.023
  201POPC   C4A 6138  41.498  24.224   7.787
  201POPC   C1B 6139  41.832  23.355   8.799
  201POPC   C2B 6140  41.643  23.235   8.437
  201POPC   C3B 6141  41.749  23.357   8.064
  201POPC   C4B 6142  41.672  23.496   7.692
  202POPC   NC3 6143   3.877  30.040   9.771
  202POPC   PO4 6144   4.309  30.367   9.380
  202POPC   GL1 6145   4.185  29.988   9.226
  202POPC   GL2 6146   4.041  30.160   8.955
  202POPC   C1A 6147   4.303  29.739   8.868
  202POPC   D2A 6148   4.166  29.899   8.475
  202POPC   C3A 6149   4.352  29.720   8.102
  202POPC   C4A 6150   4.101  29.574   7.762
  202POPC   C1B 6151   4.454  30.230   8.727
  202POPC   C2B 6152   4.523  30.207   8.274
  202POPC   C3B 6153   4.306  30.177   7.888
  202POPC   C4B 6154   4.574  30.245   7.587
  203POPC   NC3 6155  35.909   1.826   9.316
  203POPC   PO4 6156  35.264   1.912   9.603
  203POPC   GL1 6157  35.384   2.084   9.188
  203POPC   GL2 6158  35.696   2.294   9.127
  203POPC   C1A 6159  35.514   1.978   8.746
  203POPC   D2A 6160  35.440   1.722   8.395
  203POPC   C3A 6161  35.359   2.000   8.055
  203POPC   C4A 6162  35.426   2.050   7.624
  203POPC   C1B 6163  35.953   2.260   8.718
  203POPC   C2B 6164  35.873   2.378   8.278
  203POPC   C3B 6165  35.841   2.176   7.905
  203POPC   C4B 6166  35.859   2.263   7.465
  204POPC   NC3 6167  40.614  43.989   9.629
  204POPC   PO4 6168  41.257  44.116   9.468
  204POPC   GL1 6169  40.888  44.021   9.187
  204POPC   GL2 6170  40.525  44.173   9.165
  204POPC   C1A 6171  40.813  43.762   8.812
  204POPC   D2A 6172  41.026  43.589   8.443
  204POPC   C3A 6173  40.794  43.661   8.097
  204POPC   C4A 6174  40.835  43.868   7.723
  204POPC   C1B 6175  40.739  44.284   8.783
  204POPC   C2B 6176  40.926  44.143   8.402
  204POPC   C3B 6177  40.702  44.204   8.052
  204POPC   C4B 6178  40.452  44.191   7.688
  205POPC   NC3 6179   6.435   3.332   9.327
  205POPC   PO4 6180   6.701   3.845   9.508
  205POPC   GL1 6181   6.825   3.680   9.131
  205POPC   GL2 6182   7.062   3.401   9.176
  205POPC   C1A 6183   6.598   3.606   8.743
  205POPC   D2A 6184   6.353   3.622   8.354
  205POPC   C3A 6185   6.514   3.857   8.044
  205POPC   C4A 6186   6.653   3.933   7.654
  205POPC   C1B 6187   6.929   3.193   8.773
  205POPC   C2B 6188   6.564   3.138   8.484
  205POPC   C3B 6189   6.467   3.223   8.029
  205POPC   C4B 6190   6.752   3.445   7.723
  206POPC   NC3 6191  10.146  32.715   9.580
  206POPC   PO4 6192   9.625  33.135   9.756
  206POPC   GL1 6193   9.549  32.779   9.394
  206POPC   GL2 6194   9.830  32.703   9.189
  206POPC   C1A 6195   9.428  32.743   8.910
  206POPC   D2A 6196   9.567  32.768   8.451
  206POPC   C3A 6197   9.527  33.020   8.077
  206POPC   C4A 6198   9.350  32.824   7.734
  206POPC   C1B 6199   9.969  32.781   8.777
  206POPC   C2B 6200  10.137  32.886   8.377
  206POPC   C3B 6201  10.241  32.857   7.951
  206POPC   C4B 6202   9.861  32.852   7.708
  207POPC   NC3 6203   1.587  36.013   9.719
  207POPC   PO4 6204   1.021  36.417   9.518
  207POPC   GL1 6205   1.256  36.199   9.226
  207POPC   GL2 6206   1.056  35.985   9.111
  207POPC   C1A 6207   1.440  36.280   8.805
  207POPC   D2A 6208   1.343  36.438   8.424
  207POPC   C3A 6209   1.513  36.233   8.047
  207POPC   C4A 6210   1.435  36.453   7.637
  207POPC   C1B 6211   1.009  36.016   8.712
  207POPC   C2B 6212   1.228  35.892   8.385
  207POPC   C3B 6213   1.085  35.885   8.005
  207POPC   C4B 6214   1.143  36.007   7.601
  208POPC   NC3 6215  26.986  13.078   9.789
  208POPC   PO4 6216  26.779  13.653   9.396
  208POPC   GL1 6217  26.910  13.880   9.070
  208POPC   GL2 6218  26.546  13.936   9.003
  208POPC   C1A 6219  27.185  13.845   8.753
  208POPC   D2A 6220  27.065  13.611   8.404
  208POPC   C3A 6221  26.962  13.956   8.128
  208POPC   C4A 6222  26.776  14.065   7.738
  208POPC   C1B 6223  26.622  13.661   8.678
  208POPC   C2B 6224  26.556  13.630   8.244
  208POPC   C3B 6225  26.690  13.490   7.854
  208POPC   C4B 6226  26.363  13.328   7.567
  209POPC   NC3 6227  28.070  20.291   9.305
  209POPC   PO4 6228  28.655  20.609   9.543
  209POPC   GL1 6229  28.584  20.769   9.172
  209POPC   GL2 6230  28.626  20.417   9.078
  209POPC   C1A 6231  28.496  20.943   8.785
  209POPC   D2A 6232  28.631  20.777   8.382
  209POPC   C3A 6233  28.355  20.677   8.070
  209POPC   C4A 6234  28.487  20.851   7.713
  209POPC   C1B 6235  28.367  20.457   8.703
  209POPC   C2B 6236  28.209  20.252   8.344
  209POPC   C3B 6237  28.345  20.158   7.940
  209POPC   C4B 6238  28.531  20.367   7.613
  210POPC   NC3 6239   2.352  18.594   9.417
  210POPC   PO4 6240   1.909  18.020   9.659
  210POPC   GL1 6241   2.016  17.997   9.190
  210POPC   GL2 6242   2.113  18.312   9.072
  210POPC   C1A 6243   1.933  17.995   8.711
  210POPC   D2A 6244   2.021  18.255   8.309
  210POPC   C3A 6245   1.943  18.178   7.862
  210POPC   C4A 6246   1.572  17.954   7.739
  210POPC   C1B 6247   2.363  18.320   8.697
  210POPC   C2B 6248   2.475  18.472   8.284
  210POPC   C3B 6249   2.386  18.463   7.816
  210POPC   C4B 6250   2.083  18.522   7.484
  211POPC   NC3 6251  13.174  36.230   9.464
  211POPC   PO4 6252  12.513  36.342   9.125
  211POPC   GL1 6253  12.883  36.210   9.038
  211POPC   GL2 6254  12.789  35.895   8.955
  211POPC   C1A 6255  13.019  36.215   8.622
  211POPC   D2A 6256  13.055  36.506   8.325
  211POPC   C3A 6257  12.733  36.420   8.046
  211POPC   C4A 6258  12.950  36.294   7.720
  211POPC   C1B 6259  13.154  35.747   8.774
  211POPC   C2B 6260  12.941  35.629   8.397
  211POPC   C3B 6261  12.916  35.865   8.026
  211POPC   C4B 6262  13.210  35.867   7.659
  212POPC   NC3 6263  14.042  43.064   9.530
  212POPC   PO4 6264  14.688  43.039   9.341
  212POPC   GL1 6265  14.316  42.896   9.129
  212POPC   GL2 6266  14.168  43.235   9.063
  212POPC   C1A 6267  14.134  42.841   8.726
  212POPC   D2A 6268  14.186  43.187   8.441
  212POPC   C3A 6269  14.335  43.171   8.016
  212POPC   C4A 6270  14.546  42.975   7.668
  212POPC   C1B 6271  14.531  43.384   8.793
  212POPC   C2B 6272  14.816  43.355   8.428
  212POPC   C3B 6273  14.760  43.486   7.992
  212POPC   C4B 6274  14.509  43.478   7.628
  213POPC   NC3 6275  16.266  24.137   9.294
  213POPC   PO4 6276  15.826  24.544   9.577
  213POPC   GL1 6277  16.006  24.551   9.162
  213POPC   GL2 6278  15.810  24.257   9.070
  213POPC   C1A 6279  16.144  24.785   8.796
  213POPC   D2A 6280  16.313  24.842   8.367
  213POPC   C3A 6281  16.078  24.670   7.993
  213POPC   C4A 6282  15.703  24.396   7.944
  213POPC   C1B 6283  16.088  24.276   8.696
  213POPC   C2B 6284  16.274  24.198   8.306
  213POPC   C3B 6285  16.133  24.131   7.881
  213POPC   C4B 6286  15.756  23.865   7.852
  214POPC   NC3 6287  40.407  26.889   9.448
  214POPC   PO4 6288  40.858  26.466   9.533
  214POPC   GL1 6289  40.897  26.708   9.135
  214POPC   GL2 6290  41.072  27.027   9.093
  214POPC   C1A 6291  40.755  26.560   8.719
  214POPC   D2A 6292  40.595  26.727   8.361
  214POPC   C3A 6293  40.707  26.512   8.021
  214POPC   C4A 6294  40.878  26.587   7.663
  214POPC   C1B 6295  40.687  27.053   8.786
  214POPC   C2B 6296  40.671  27.229   8.363
  214POPC   C3B 6297  40.663  27.032   7.929
  214POPC   C4B 6298  40.740  27.035   7.463
  215POPC   NC3 6299  40.115  27.783   9.419
  215POPC   PO4 6300  39.560  27.310   9.477
  215POPC   GL1 6301  39.813  27.482   9.135
  215POPC   GL2 6302  39.666  27.811   9.122
  215POPC   C1A 6303  40.192  27.451   8.808
  215POPC   D2A 6304  40.396  27.660   8.448
  215POPC   C3A 6305  40.307  27.446   8.052
  215POPC   C4A 6306  40.275  27.214   7.655
  215POPC   C1B 6307  39.753  27.698   8.671
  215POPC   C2B 6308  39.738  27.680   8.215
  215POPC   C3B 6309  39.931  27.730   7.851
  215POPC   C4B 6310  40.322  27.949   7.868
  216POPC   NC3 6311   2.473  44.843   9.851
  216POPC   PO4 6312   1.932  44.589   9.507
  216POPC   GL1 6313   1.947  44.446   9.134
  216POPC   GL2 6314   1.733  44.205   9.129
  216POPC   C1A 6315   1.978  44.664   8.753
  216POPC   D2A 6316   2.243  44.719   8.406
  216POPC   C3A 6317   2.019  44.708   8.032
  216POPC   C4A 6318   2.209  44.731   7.644
  216POPC   C1B 6319   1.699  44.228   8.751
  216POPC   C2B 6320   1.952  44.273   8.398
  216POPC   C3B 6321   1.823  44.237   8.014
  216POPC   C4B 6322   1.827  44.411   7.629
  217POPC   NC3 6323  22.384  37.393   9.444
  217POPC   PO4 6324  22.216  38.010   9.670
  217POPC   GL1 6325  22.183  37.802   9.236
  217POPC   GL2 6326  22.503  37.795   9.093
  217POPC   C1A 6327  21.982  37.711   8.857
  217POPC   D2A 6328  22.171  37.809   8.462
  217POPC   C3A 6329  22.059  37.473   8.194
  217POPC   C4A 6330  22.042  37.469   7.762
  217POPC   C1B 6331  22.400  37.447   8.765
  217POPC   C2B 6332  22.574  37.477   8.358
  217POPC   C3B 6333  22.461  37.717   8.004
  217POPC   C4B 6334  22.564  37.487   7.683
  218POPC   NC3 6335  11.076   3.849   9.696
  218POPC   PO4 6336  11.580   3.697   9.292
  218POPC   GL1 6337  11.199   3.567   9.081
  218POPC   GL2 6338  11.021   3.904   9.136
  218POPC   C1A 6339  11.290   3.393   8.641
  218POPC   D2A 6340  11.571   3.393   8.264
  218POPC   C3A 6341  11.309   3.348   7.917
  218POPC   C4A 6342  11.091   3.438   7.503
  218POPC   C1B 6343  11.261   3.906   8.716
  218POPC   C2B 6344  11.286   3.825   8.257
  218POPC   C3B 6345  11.255   3.840   7.800
  218POPC   C4B 6346  11.445   3.785   7.387
  219POPC   NC3 6347  19.715  10.786   9.494
  219POPC   PO4 6348  20.148  10.250   9.565
  219POPC   GL1 6349  19.883  10.336   9.221
  219POPC   GL2 6350  19.540  10.235   9.306
  219POPC   C1A 6351  19.857  10.595   8.838
  219POPC   D2A 6352  20.046  10.599   8.425
  219POPC   C3A 6353  19.944  10.785   8.042
  219POPC   C4A 6354  19.807  10.872   7.641
  219POPC   C1B 6355  19.603  10.010   8.923
  219POPC   C2B 6356  19.759  10.173   8.539
  219POPC   C3B 6357  19.844  10.223   8.135
  219POPC   C4B 6358  19.704  10.412   7.801
  220POPC   NC3 6359   7.076   1.280   9.821
  220POPC   PO4 6360   7.057   1.271   9.172
  220POPC   GL1 6361   7.453   1.355   8.934
  220POPC   GL2 6362   7.666   1.024   8.958
  220POPC   C1A 6363   7.606   1.628   8.602
  220POPC   D2A 6364   7.486   1.601   8.155
  220POPC   C3A 6365   7.159   1.363   7.910
  220POPC   C4A 6366   6.959   1.025   7.667
  220POPC   C1B 6367   7.570   1.110   8.516
  220POPC   C2B 6368   7.559   1.088   8.090
  220POPC   C3B 6369   7.639   1.268   7.700
  220POPC   C4B 6370   7.724   1.289   7.229
  221POPC   NC3 6371  35.145  25.881   9.537
  221POPC   PO4 6372  35.714  26.152   9.558
  221POPC   GL1 6373  35.548  26.034   9.151
  221POPC   GL2 6374  35.181  26.107   9.089
  221POPC   C1A 6375  35.489  26.179   8.704
  221POPC   D2A 6376  35.107  26.218   8.453
  221POPC   C3A 6377  35.258  26.205   8.046
  221POPC   C4A 6378  35.533  26.047   7.766
  221POPC   C1B 6379  35.188  25.769   8.766
  221POPC   C2B 6380  35.324  25.753   8.353
  221POPC   C3B 6381  35.012  25.717   8.061
  221POPC   C4B 6382  35.108  25.796   7.677
  222POPC   NC3 6383  35.299  42.434   9.392
  222POPC   PO4 6384  35.943  42.513   9.519
  222POPC   GL1 6385  35.696  42.618   9.135
  222POPC   GL2 6386  35.569  42.296   8.971
  222POPC   C1A 6387  35.544  42.735   8.727
  222POPC   D2A 6388  35.454  42.537   8.326
  222POPC   C3A 6389  35.582  42.581   7.872
  222POPC   C4A 6390  35.481  42.416   7.437
  222POPC   C1B 6391  35.147  42.384   8.760
  222POPC   C2B 6392  34.879  42.326   8.419
  222POPC   C3B 6393  35.083  42.317   8.042
  222POPC   C4B 6394  35.162  42.117   7.698
  223POPC   NC3 6395  40.328  14.388   9.423
  223POPC   PO4 6396  39.788  14.725   9.366
  223POPC   GL1 6397  40.033  14.632   8.999
  223POPC   GL2 6398  40.196  14.290   8.920
  223POPC   C1A 6399  39.848  14.576   8.587
  223POPC   D2A 6400  39.936  14.329   8.246
  223POPC   C3A 6401  40.293  14.476   8.052
  223POPC   C4A 6402  40.276  14.721   7.667
  223POPC   C1B 6403  39.920  14.014   8.646
  223POPC   C2B 6404  39.717  13.849   8.255
  223POPC   C3B 6405  39.634  14.095   7.897
  223POPC   C4B 6406  39.887  14.405   7.735
  224POPC   NC3 6407  42.143   5.117   9.573
  224POPC   PO4 6408  42.709   5.305   9.838
  224POPC   GL1 6409  42.590   5.329   9.398
  224POPC   GL2 6410  42.877   5.458   9.278
  224POPC   C1A 6411  42.619   5.082   9.006
  224POPC   D2A 6412  42.391   4.898   8.658
  224POPC   C3A 6413  42.418   4.983   8.226
  224POPC   C4A 6414  42.571   4.720   7.908
  224POPC   C1B 6415  42.627   5.583   8.929
  224POPC   C2B 6416  42.412   5.411   8.583
  224POPC   C3B 6417  42.488   5.473   8.141
  224POPC   C4B 6418  42.534   5.261   7.800
  225POPC   NC3 6419  29.970  14.584   9.520
  225POPC   PO4 6420  30.001  13.916   9.465
  225POPC   GL1 6421  29.971  14.239   9.147
  225POPC   GL2 6422  30.313  14.354   9.196
  225POPC   C1A 6423  29.929  14.377   8.718
  225POPC   D2A 6424  29.787  14.108   8.369
  225POPC   C3A 6425  29.861  14.319   7.987
  225POPC   C4A 6426  29.986  14.196   7.566
  225POPC   C1B 6427  30.447  14.368   8.790
  225POPC   C2B 6428  30.307  14.242   8.377
  225POPC   C3B 6429  30.347  14.171   7.949
  225POPC   C4B 6430  30.260  14.593   7.773
  226POPC   NC3 6431  39.032   5.465   9.465
  226POPC   PO4 6432  39.740   5.437   9.375
  226POPC   GL1 6433  39.537   5.560   8.986
  226POPC   GL2 6434  39.169   5.663   9.011
  226POPC   C1A 6435  39.625   5.940   8.747
  226POPC   D2A 6436  39.813   6.079   8.360
  226POPC   C3A 6437  39.655   5.835   8.062
  226POPC   C4A 6438  39.334   5.904   7.783
  226POPC   C1B 6439  39.106   5.883   8.602
  226POPC   C2B 6440  39.080   6.118   8.204
  226POPC   C3B 6441  39.007   6.276   7.794
  226POPC   C4B 6442  38.956   6.495   7.423
  227POPC   NC3 6443  37.179  36.537   9.261
  227POPC   PO4 6444  37.002  35.852   9.407
  227POPC   GL1 6445  37.135  36.052   9.055
  227POPC   GL2 6446  36.927  35.824   8.861
  227POPC   C1A 6447  37.084  36.300   8.661
  227POPC   D2A 6448  36.841  36.161   8.329
  227POPC   C3A 6449  37.006  36.284   7.944
  227POPC   C4A 6450  36.888  35.990   7.603
  227POPC   C1B 6451  36.622  36.189   8.847
  227POPC   C2B 6452  36.462  36.460   8.538
  227POPC   C3B 6453  36.456  36.409   8.085
  227POPC   C4B 6454  36.612  36.410   7.685
  228POPC   NC3 6455  26.729   5.822   9.657
  228POPC   PO4 6456  27.411   5.906   9.747
  228POPC   GL1 6457  27.133   5.788   9.315
  228POPC   GL2 6458  26.793   5.573   9.226
  228POPC   C1A 6459  27.000   5.855   8.862
  228POPC   D2A 6460  27.035   6.062   8.471
  228POPC   C3A 6461  27.145   5.798   8.130
  228POPC   C4A 6462  26.971   5.829   7.744
  228POPC   C1B 6463  26.578   5.550   8.810
  228POPC   C2B 6464  26.660   5.690   8.367
  228POPC   C3B 6465  26.498   5.811   7.957
  228POPC   C4B 6466  26.532   5.688   7.508
  229POPC   NC3 6467  14.204   7.682   9.623
  229POPC   PO4 6468  13.564   7.286   9.591
  229POPC   GL1 6469  13.767   7.321   9.218
  229POPC   GL2 6470  13.982   7.008   9.246
  229POPC   C1A 6471  13.603   7.449   8.771
  229POPC   D2A 6472  13.580   7.390   8.304
  229POPC   C3A 6473  13.637   7.602   7.943
  229POPC   C4A 6474  13.389   7.686   7.615
  229POPC   C1B 6475  14.016   7.157   8.824
  229POPC   C2B 6476  13.849   6.996   8.455
  229POPC   C3B 6477  13.904   7.100   8.023
  229POPC   C4B 6478  13.984   7.302   7.667
  230POPC   NC3 6479   2.314  34.372   9.542
  230POPC   PO4 6480   1.695  34.574   9.512
  230POPC   GL1 6481   1.764  34.467   9.110
  230POPC   GL2 6482   2.118  34.517   9.100
  230POPC   C1A 6483   1.739  34.539   8.679
  230POPC   D2A 6484   1.604  34.469   8.268
  230POPC   C3A 6485   1.807  34.671   7.947
  230POPC   C4A 6486   1.891  34.419   7.617
  230POPC   C1B 6487   2.225  34.719   8.741
  230POPC   C2B 6488   2.136  34.617   8.333
  230POPC   C3B 6489   2.261  34.399   7.981
  230POPC   C4B 6490   2.508  34.273   7.653
  231POPC   NC3 6491  17.674   9.511   9.357
  231POPC   PO4 6492  17.874  10.104   9.671
  231POPC   GL1 6493  17.759  10.059   9.212
  231POPC   GL2 6494  17.424   9.909   9.175
  231POPC   C1A 6495  17.710   9.948   8.770
  231POPC   D2A 6496  17.565   9.779   8.396
  231POPC   C3A 6497  17.648   9.957   8.033
  231POPC   C4A 6498  17.663   9.702   7.730
  231POPC   C1B 6499  17.281   9.629   8.794
  231POPC   C2B 6500  17.078   9.590   8.359
  231POPC   C3B 6501  17.143   9.585   7.907
  231POPC   C4B 6502  16.998   9.555   7.520
  232POPC   NC3 6503  13.918  26.333   9.431
  232POPC   PO4 6504  14.238  25.759   9.579
  232POPC   GL1 6505  14.458  25.950   9.191
  232POPC   GL2 6506  14.632  26.285   9.152
  232POPC   C1A 6507  14.386  26.072   8.737
  232POPC   D2A 6508  14.151  26.045   8.331
  232POPC   C3A 6509  14.393  25.984   7.965
  232POPC   C4A 6510  14.430  26.224   7.574
  232POPC   C1B 6511  14.885  26.240   8.753
  232POPC   C2B 6512  14.734  26.094   8.348
  232POPC   C3B 6513  14.807  26.282   7.925
  232POPC   C4B 6514  14.940  26.247   7.500
  233POPC   NC3 6515  31.244   8.138   9.496
  233POPC   PO4 6516  31.948   7.886   9.574
  233POPC   GL1 6517  31.612   7.901   9.220
  233POPC   GL2 6518  31.502   8.277   9.078
  233POPC   C1A 6519  31.434   7.858   8.804
  233POPC   D2A 6520  31.232   8.105   8.489
  233POPC   C3A 6521  31.510   8.234   8.182
  233POPC   C4A 6522  31.533   8.112   7.742
  233POPC   C1B 6523  31.375   8.559   8.685
  233POPC   C2B 6524  31.132   8.594   8.277
  233POPC   C3B 6525  31.095   8.312   7.896
  233POPC   C4B 6526  31.224   8.402   7.448
  234POPC   NC3 6527  11.806  35.189   9.462
  234POPC   PO4 6528  12.407  35.446   9.430
  234POPC   GL1 6529  12.209  35.174   9.137
  234POPC   GL2 6530  11.911  35.385   9.006
  234POPC   C1A 6531  12.197  35.106   8.716
  234POPC   D2A 6532  12.008  35.359   8.423
  234POPC   C3A 6533  12.119  35.155   8.068
  234POPC   C4A 6534  12.237  35.268   7.684
  234POPC   C1B 6535  11.628  35.579   8.678
  234POPC   C2B 6536  11.593  35.667   8.280
  234POPC   C3B 6537  11.773  35.490   7.954
  234POPC   C4B 6538  11.666  35.165   7.688
  235POPC   NC3 6539   3.952  14.005   9.475
  235POPC   PO4 6540   3.371  13.765   9.494
  235POPC   GL1 6541   3.630  13.760   9.120
  235POPC   GL2 6542   3.796  13.467   9.034
  235POPC   C1A 6543   3.569  13.738   8.656
  235POPC   D2A 6544   3.450  13.384   8.392
  235POPC   C3A 6545   3.243  13.520   8.042
  235POPC   C4A 6546   3.307  13.710   7.656
  235POPC   C1B 6547   4.058  13.711   8.775
  235POPC   C2B 6548   4.006  13.954   8.404
  235POPC   C3B 6549   3.664  13.835   8.141
  235POPC   C4B 6550   3.787  13.605   7.795
  236POPC   NC3 6551   9.592  23.356   9.413
  236POPC   PO4 6552  10.146  23.686   9.461
  236POPC   GL1 6553   9.929  23.784   9.110
  236POPC   GL2 6554   9.689  24.064   9.236
  236POPC   C1A 6555   9.836  23.518   8.723
  236POPC   D2A 6556   9.587  23.481   8.344
  236POPC   C3A 6557   9.727  23.446   7.909
  236POPC   C4A 6558   9.933  23.763   7.643
  236POPC   C1B 6559   9.542  23.924   8.832
  236POPC   C2B 6560   9.695  24.004   8.440
  236POPC   C3B 6561   9.571  23.925   8.030
  236POPC   C4B 6562   9.410  23.810   7.635
  237POPC   NC3 6563   2.557   1.259   9.613
  237POPC   PO4 6564   3.163   0.834   9.394
  237POPC   GL1 6565   2.885   0.971   9.083
  237POPC   GL2 6566   2.571   1.002   9.173
  237POPC   C1A 6567   2.987   1.232   8.732
  237POPC   D2A 6568   2.775   1.512   8.434
  237POPC   C3A 6569   2.856   1.343   8.028
  237POPC   C4A 6570   2.588   1.344   7.657
  237POPC   C1B 6571   2.495   1.160   8.764
  237POPC   C2B 6572   2.600   1.033   8.395
  237POPC   C3B 6573   2.369   1.219   8.106
  237POPC   C4B 6574   2.233   0.977   7.777
  238POPC   NC3 6575  44.429  24.463   9.796
  238POPC   PO4 6576  43.844  24.540   9.599
  238POPC   GL1 6577  43.842  24.324   9.208
  238POPC   GL2 6578  43.584  24.236   9.106
  238POPC   C1A 6579  43.975  24.305   8.755
  238POPC   D2A 6580  43.825  24.548   8.391
  238POPC   C3A 6581  43.837  24.403   7.990
  238POPC   C4A 6582  44.168  24.533   7.714
  238POPC   C1B 6583  43.555  24.594   8.816
  238POPC   C2B 6584  43.308  24.622   8.441
  238POPC   C3B 6585  43.430  24.740   8.027
  238POPC   C4B 6586  43.729  24.788   7.667
  239POPC   NC3 6587  37.657  12.980   9.442
  239POPC   PO4 6588  37.742  12.334   9.526
  239POPC   GL1 6589  37.862  12.626   9.108
  239POPC   GL2 6590  37.757  13.004   8.966
  239POPC   C1A 6591  37.744  12.641   8.647
  239POPC   D2A 6592  37.555  12.914   8.346
  239POPC   C3A 6593  37.660  12.716   7.964
  239POPC   C4A 6594  37.835  12.623   7.549
  239POPC   C1B 6595  37.431  13.254   8.719
  239POPC   C2B 6596  37.360  13.421   8.272
  239POPC   C3B 6597  37.251  13.241   7.866
  239POPC   C4B 6598  37.579  13.073   7.598
  240POPC   NC3 6599  18.271  30.892   9.979
  240POPC   PO4 6600  18.622  30.593   9.383
  240POPC   GL1 6601  18.291  30.695   9.151
  240POPC   GL2 6602  18.174  31.012   9.136
  240POPC   C1A 6603  18.199  30.549   8.759
  240POPC   D2A 6604  18.085  30.652   8.354
  240POPC   C3A 6605  18.446  30.523   8.158
  240POPC   C4A 6606  18.428  30.380   7.818
  240POPC   C1B 6607  18.445  31.032   8.748
  240POPC   C2B 6608  18.490  31.002   8.274
  240POPC   C3B 6609  18.269  30.883   7.842
  240POPC   C4B 6610  18.077  30.910   7.391
  241POPC   NC3 6611  26.768   0.146   9.531
  241POPC   PO4 6612  27.093  44.486   9.535
  241POPC   GL1 6613  26.817  44.707   9.265
  241POPC   GL2 6614  26.762  44.425   9.084
  241POPC   C1A 6615  26.712  44.858   8.843
  241POPC   D2A 6616  26.663  44.656   8.456
  241POPC   C3A 6617  26.816  44.658   8.035
  241POPC   C4A 6618  26.606  44.542   7.676
  241POPC   C1B 6619  27.047  44.444   8.752
  241POPC   C2B 6620  26.972  44.265   8.341
  241POPC   C3B 6621  27.142  44.273   7.952
  241POPC   C4B 6622  27.103  44.465   7.559
  242POPC   NC3 6623  41.173  22.861   9.466
  242POPC   PO4 6624  41.857  22.825   9.420
  242POPC   GL1 6625  41.584  23.095   9.162
  242POPC   GL2 6626  41.299  23.316   9.238
  242POPC   C1A 6627  41.412  22.941   8.777
  242POPC   D2A 6628  41.619  22.736   8.403
  242POPC   C3A 6629  41.464  22.925   8.043
  242POPC   C4A 6630  41.643  23.009   7.619
  242POPC   C1B 6631  41.339  23.476   8.813
  242POPC   C2B 6632  41.174  23.453   8.378
  242POPC   C3B 6633  41.235  23.401   7.946
  242POPC   C4B 6634  41.134  23.059   7.694
  243POPC   NC3 6635  10.385  31.938   9.482
  243POPC   PO4 6636  10.560  32.539   9.689
  243POPC   GL1 6637  10.656  32.359   9.282
  243POPC   GL2 6638  10.852  32.081   9.189
  243POPC   C1A 6639  10.506  32.229   8.852
  243POPC   D2A 6640  10.293  32.138   8.478
  243POPC   C3A 6641  10.399  32.399   8.159
  243POPC   C4A 6642  10.530  32.483   7.726
  243POPC   C1B 6643  10.901  31.900   8.767
  243POPC   C2B 6644  10.749  31.953   8.341
  243POPC   C3B 6645  10.884  32.227   7.993
  243POPC   C4B 6646  10.952  32.112   7.556
  244POPC   NC3 6647  12.689  33.680   9.411
  244POPC   PO4 6648  13.268  33.989   9.511
  244POPC   GL1 6649  13.162  33.783   9.161
  244POPC   GL2 6650  13.065  33.447   9.112
  244POPC   C1A 6651  12.953  33.872   8.814
  244POPC   D2A 6652  12.676  33.843   8.504
  244POPC   C3A 6653  12.806  33.935   8.100
  244POPC   C4A 6654  12.454  33.882   7.819
  244POPC   C1B 6655  13.338  33.503   8.765
  244POPC   C2B 6656  13.227  33.741   8.408
  244POPC   C3B 6657  13.171  33.544   8.027
  244POPC   C4B 6658  13.273  33.597   7.590
  245POPC   NC3 6659  31.192   6.393   9.375
  245POPC   PO4 6660  31.537   6.978   9.486
  245POPC   GL1 6661  31.521   6.738   9.124
  245POPC   GL2 6662  31.226   6.835   8.992
  245POPC   C1A 6663  31.760   6.542   8.782
  245POPC   D2A 6664  31.673   6.386   8.378
  245POPC   C3A 6665  31.560   6.654   8.019
  245POPC   C4A 6666  31.763   6.698   7.610
  245POPC   C1B 6667  31.236   6.455   8.733
  245POPC   C2B 6668  31.145   6.393   8.313
  245POPC   C3B 6669  31.039   6.407   7.907
  245POPC   C4B 6670  31.319   6.481   7.583
  246POPC   NC3 6671  23.204  16.114   9.429
  246POPC   PO4 6672  22.657  15.702   9.698
  246POPC   GL1 6673  22.792  15.847   9.250
  246POPC   GL2 6674  23.048  15.648   9.119
  246POPC   C1A 6675  22.921  16.095   8.850
  246POPC   D2A 6676  22.749  16.139   8.452
  246POPC   C3A 6677  23.012  16.107   8.091
  246POPC   C4A 6678  23.115  16.321   7.700
  246POPC   C1B 6679  23.076  15.642   8.689
  246POPC   C2B 6680  23.054  15.401   8.360
  246POPC   C3B 6681  23.108  15.446   7.936
  246POPC   C4B 6682  23.108  15.789   7.711
  247POPC   NC3 6683  37.921  38.346   9.673
  247POPC   PO4 6684  38.554  38.541   9.784
  247POPC   GL1 6685  38.561  38.322   9.311
  247POPC   GL2 6686  38.229  38.421   9.081
  247POPC   C1A 6687  38.660  38.256   8.850
  247POPC   D2A 6688  38.409  38.386   8.476
  247POPC   C3A 6689  38.588  38.262   8.085
  247POPC   C4A 6690  38.645  38.442   7.686
  247POPC   C1B 6691  38.065  38.682   8.723
  247POPC   C2B 6692  38.104  38.769   8.269
  247POPC   C3B 6693  38.160  38.502   7.911
  247POPC   C4B 6694  38.102  38.619   7.489
  248POPC   NC3 6695  33.348  37.380   9.502
  248POPC   PO4 6696  33.170  38.035   9.734
  248POPC   GL1 6697  33.061  37.860   9.249
  248POPC   GL2 6698  33.203  37.589   9.072
  248POPC   C1A 6699  32.960  37.913   8.743
  248POPC   D2A 6700  33.129  37.811   8.290
  248POPC   C3A 6701  33.147  38.030   7.870
  248POPC   C4A 6702  32.940  37.844   7.472
  248POPC   C1B 6703  33.131  37.427   8.651
  248POPC   C2B 6704  32.821  37.378   8.296
  248POPC   C3B 6705  32.821  37.496   7.840
  248POPC   C4B 6706  32.690  37.376   7.356
  249POPC   NC3 6707  12.526   8.031   9.419
  249POPC   PO4 6708  13.026   8.440   9.677
  249POPC   GL1 6709  12.969   8.178   9.189
  249POPC   GL2 6710  12.609   8.231   8.967
  249POPC   C1A 6711  12.972   7.996   8.718
  249POPC   D2A 6712  12.714   7.909   8.339
  249POPC   C3A 6713  12.838   8.027   7.913
  249POPC   C4A 6714  13.045   8.026   7.498
  249POPC   C1B 6715  12.711   8.413   8.558
  249POPC   C2B 6716  13.049   8.332   8.269
  249POPC   C3B 6717  13.149   8.434   7.829
  249POPC   C4B 6718  12.842   8.508   7.538
  250POPC   NC3 6719   2.908  37.427   9.402
  250POPC   PO4 6720   2.614  36.755   9.527
  250POPC   GL1 6721   2.847  36.956   9.181
  250POPC   GL2 6722   2.832  36.714   8.956
  250POPC   C1A 6723   2.908  37.169   8.758
  250POPC   D2A 6724   2.645  37.218   8.388
  250POPC   C3A 6725   2.778  36.963   8.041
  250POPC   C4A 6726   2.719  37.012   7.603
  250POPC   C1B 6727   2.783  36.709   8.501
  250POPC   C2B 6728   2.987  36.473   8.191
  250POPC   C3B 6729   2.967  36.566   7.768
  250POPC   C4B 6730   3.126  36.760   7.436
  251POPC   NC3 6731  15.560  44.634   9.295
  251POPC   PO4 6732  16.261  44.623   9.473
  251POPC   GL1 6733  16.108  44.688   9.120
  251POPC   GL2 6734  15.992   0.017   9.148
  251POPC   C1A 6735  16.273  44.646   8.708
  251POPC   D2A 6736  15.962  44.442   8.464
  251POPC   C3A 6737  15.934  44.468   8.012
  251POPC   C4A 6738  15.684  44.672   7.671
  251POPC   C1B 6739  15.827  44.897   8.738
  251POPC   C2B 6740  16.048  44.957   8.370
  251POPC   C3B 6741  15.899  45.000   7.998
  251POPC   C4B 6742  16.051   0.203   7.685
  252POPC   NC3 6743   4.854  16.851   9.476
  252POPC   PO4 6744   5.343  16.340   9.507
  252POPC   GL1 6745   5.161  16.607   9.159
  252POPC   GL2 6746   5.217  16.960   9.112
  252POPC   C1A 6747   5.006  16.589   8.737
  252POPC   D2A 6748   5.176  16.399   8.404
  252POPC   C3A 6749   4.995  16.490   7.988
  252POPC   C4A 6750   4.965  16.669   7.571
  252POPC   C1B 6751   5.358  16.957   8.673
  252POPC   C2B 6752   5.090  16.910   8.320
  252POPC   C3B 6753   5.101  17.030   7.899
  252POPC   C4B 6754   5.260  17.072   7.440
  253POPC   NC3 6755  27.576   5.740  10.182
  253POPC   PO4 6756  27.916   5.620   9.565
  253POPC   GL1 6757  27.665   5.851   9.275
  253POPC   GL2 6758  27.691   5.535   9.124
  253POPC   C1A 6759  27.511   5.897   8.830
  253POPC   D2A 6760  27.540   6.063   8.397
  253POPC   C3A 6761  27.735   5.890   8.050
  253POPC   C4A 6762  27.455   5.983   7.730
  253POPC   C1B 6763  27.647   5.383   8.780
  253POPC   C2B 6764  27.473   5.546   8.431
  253POPC   C3B 6765  27.613   5.387   8.056
  253POPC   C4B 6766  27.724   5.515   7.666
  254POPC   NC3 6767  29.425  40.527   9.507
  254POPC   PO4 6768  28.928  40.928   9.425
  254POPC   GL1 6769  29.116  40.784   9.056
  254POPC   GL2 6770  29.397  40.539   9.006
  254POPC   C1A 6771  29.096  40.907   8.632
  254POPC   D2A 6772  28.995  40.654   8.286
  254POPC   C3A 6773  29.058  40.796   7.888
  254POPC   C4A 6774  29.105  40.619   7.469
  254POPC   C1B 6775  29.580  40.925   8.879
  254POPC   C2B 6776  29.516  41.253   8.570
  254POPC   C3B 6777  29.276  41.178   8.204
  254POPC   C4B 6778  29.249  41.237   7.759
  255POPC   NC3 6779  17.901  11.154   9.476
  255POPC   PO4 6780  17.227  11.396   9.666
  255POPC   GL1 6781  17.492  11.450   9.249
  255POPC   GL2 6782  17.517  11.125   9.130
  255POPC   C1A 6783  17.570  11.476   8.770
  255POPC   D2A 6784  17.389  11.271   8.376
  255POPC   C3A 6785  17.380  11.401   7.934
  255POPC   C4A 6786  17.264  11.441   7.494
  255POPC   C1B 6787  17.700  10.934   8.775
  255POPC   C2B 6788  17.872  11.015   8.394
  255POPC   C3B 6789  17.674  10.954   8.008
  255POPC   C4B 6790  17.662  11.140   7.580
  256POPC   NC3 6791  28.057  35.163   9.730
  256POPC   PO4 6792  28.080  34.466   9.586
  256POPC   GL1 6793  28.302  34.688   9.230
  256POPC   GL2 6794  28.634  34.869   9.301
  256POPC   C1A 6795  28.260  34.674   8.768
  256POPC   D2A 6796  28.183  34.396   8.405
  256POPC   C3A 6797  28.226  34.540   7.975
  256POPC   C4A 6798  28.097  34.885   7.681
  256POPC   C1B 6799  28.780  34.774   8.853
  256POPC   C2B 6800  28.657  34.652   8.430
  256POPC   C3B 6801  28.631  34.833   8.024
  256POPC   C4B 6802  28.566  34.705   7.580
  257POPC   NC3 6803   9.244   6.730   9.580
  257POPC   PO4 6804   8.703   6.901   9.819
  257POPC   GL1 6805   8.756   6.656   9.375
  257POPC   GL2 6806   9.038   6.428   9.213
  257POPC   C1A 6807   8.760   6.767   8.914
  257POPC   D2A 6808   8.712   6.594   8.532
  257POPC   C3A 6809   8.832   6.806   8.165
  257POPC   C4A 6810   8.737   6.781   7.732
  257POPC   C1B 6811   9.183   6.515   8.766
  257POPC   C2B 6812   9.289   6.594   8.306
  257POPC   C3B 6813   9.143   6.492   7.878
  257POPC   C4B 6814   9.152   6.111   7.651
  258POPC   NC3 6815  38.892  16.203   9.307
  258POPC   PO4 6816  39.406  16.393   9.608
  258POPC   GL1 6817  39.423  16.188   9.190
  258POPC   GL2 6818  39.320  15.831   9.228
  258POPC   C1A 6819  39.303  16.167   8.727
  258POPC   D2A 6820  39.440  16.311   8.305
  258POPC   C3A 6821  39.345  16.033   7.961
  258POPC   C4A 6822  38.885  15.915   7.874
  258POPC   C1B 6823  39.280  15.638   8.806
  258POPC   C2B 6824  39.173  15.759   8.370
  258POPC   C3B 6825  39.202  15.544   7.963
  258POPC   C4B 6826  39.309  15.721   7.517
  259POPC   NC3 6827  43.403  18.171   9.593
  259POPC   PO4 6828  42.887  18.558   9.834
  259POPC   GL1 6829  42.980  18.429   9.381
  259POPC   GL2 6830  43.304  18.547   9.227
  259POPC   C1A 6831  42.994  18.139   9.009
  259POPC   D2A 6832  42.909  18.113   8.566
  259POPC   C3A 6833  43.108  18.047   8.161
  259POPC   C4A 6834  42.984  18.161   7.723
  259POPC   C1B 6835  43.033  18.626   8.854
  259POPC   C2B 6836  43.154  18.591   8.431
  259POPC   C3B 6837  42.983  18.592   8.027
  259POPC   C4B 6838  43.317  18.668   7.764
  260POPC   NC3 6839  33.597  14.679   9.474
  260POPC   PO4 6840  33.771  15.222   9.684
  260POPC   GL1 6841  33.789  15.139   9.235
  260POPC   GL2 6842  34.040  14.931   9.087
  260POPC   C1A 6843  33.819  15.291   8.791
  260POPC   D2A 6844  34.042  15.156   8.404
  260POPC   C3A 6845  33.988  15.357   8.000
  260POPC   C4A 6846  33.606  15.567   7.780
  260POPC   C1B 6847  33.699  14.798   8.829
  260POPC   C2B 6848  33.443  14.965   8.473
  260POPC   C3B 6849  33.527  15.110   8.060
  260POPC   C4B 6850  33.843  14.919   7.785
  261POPC   NC3 6851   1.538  23.166   9.663
  261POPC   PO4 6852   1.389  23.835   9.514
  261POPC   GL1 6853   1.210  23.756   9.142
  261POPC   GL2 6854   0.953  23.990   9.144
  261POPC   C1A 6855   1.232  23.914   8.748
  261POPC   D2A 6856   1.030  23.992   8.426
  261POPC   C3A 6857   1.150  23.745   8.072
  261POPC   C4A 6858   1.501  23.497   7.841
  261POPC   C1B 6859   0.828  23.628   8.829
  261POPC   C2B 6860   0.684  23.621   8.395
  261POPC   C3B 6861   0.755  23.397   7.990
  261POPC   C4B 6862   0.978  23.586   7.620
  262POPC   NC3 6863   0.971  38.398   9.433
  262POPC   PO4 6864   1.514  38.806   9.635
  262POPC   GL1 6865   1.437  38.521   9.213
  262POPC   GL2 6866   1.401  38.678   8.874
  262POPC   C1A 6867   1.294  38.178   8.897
  262POPC   D2A 6868   1.334  38.108   8.461
  262POPC   C3A 6869   1.315  38.423   8.166
  262POPC   C4A 6870   1.414  38.358   7.734
  262POPC   C1B 6871   0.945  38.584   8.740
  262POPC   C2B 6872   0.735  38.243   8.533
  262POPC   C3B 6873   0.815  38.252   8.121
  262POPC   C4B 6874   0.950  38.573   7.864
  263POPC   NC3 6875  39.429  12.113   9.694
  263POPC   PO4 6876  39.074  11.560   9.572
  263POPC   GL1 6877  39.368  11.899   9.247
  263POPC   GL2 6878  39.129  12.065   8.988
  263POPC   C1A 6879  39.572  12.037   8.808
  263POPC   D2A 6880  39.249  12.035   8.484
  263POPC   C3A 6881  39.406  12.188   8.118
  263POPC   C4A 6882  39.449  12.035   7.720
  263POPC   C1B 6883  38.861  11.786   8.752
  263POPC   C2B 6884  38.711  11.718   8.338
  263POPC   C3B 6885  38.858  11.786   7.913
  263POPC   C4B 6886  38.974  12.043   7.562
  264POPC   NC3 6887   3.648   5.859   9.763
  264POPC   PO4 6888   3.736   5.593   9.237
  264POPC   GL1 6889   3.418   5.904   9.177
  264POPC   GL2 6890   3.147   5.649   9.191
  264POPC   C1A 6891   3.467   6.153   8.773
  264POPC   D2A 6892   3.460   6.003   8.336
  264POPC   C3A 6893   3.749   5.795   8.027
  264POPC   C4A 6894   3.568   5.948   7.662
  264POPC   C1B 6895   3.227   5.693   8.749
  264POPC   C2B 6896   3.457   5.501   8.437
  264POPC   C3B 6897   3.308   5.576   8.024
  264POPC   C4B 6898   3.501   5.419   7.697
  265POPC   NC3 6899  33.563  34.489   9.505
  265POPC   PO4 6900  34.234  34.221   9.447
  265POPC   GL1 6901  33.969  34.514   9.181
  265POPC   GL2 6902  33.681  34.790   9.120
  265POPC   C1A 6903  33.980  34.554   8.768
  265POPC   D2A 6904  34.165  34.516   8.410
  265POPC   C3A 6905  33.849  34.424   8.148
  265POPC   C4A 6906  34.019  34.405   7.784
  265POPC   C1B 6907  33.577  34.857   8.689
  265POPC   C2B 6908  33.848  34.922   8.352
  265POPC   C3B 6909  33.925  34.897   7.933
  265POPC   C4B 6910  33.679  34.742   7.583
  266POPC   NC3 6911  23.507   8.464   9.642
  266POPC   PO4 6912  24.018   8.042   9.648
  266POPC   GL1 6913  24.043   8.389   9.293
  266POPC   GL2 6914  23.722   8.412   9.168
  266POPC   C1A 6915  24.097   8.371   8.794
  266POPC   D2A 6916  23.753   8.357   8.454
  266POPC   C3A 6917  23.815   8.136   8.062
  266POPC   C4A 6918  24.281   8.149   7.956
  266POPC   C1B 6919  23.408   8.325   8.859
  266POPC   C2B 6920  23.255   8.295   8.419
  266POPC   C3B 6921  23.362   8.473   7.979
  266POPC   C4B 6922  23.188   8.435   7.545
  267POPC   NC3 6923  41.117  30.251   9.849
  267POPC   PO4 6924  40.739  29.828   9.560
  267POPC   GL1 6925  40.924  29.938   9.143
  267POPC   GL2 6926  41.178  30.221   9.139
  267POPC   C1A 6927  40.804  29.847   8.728
  267POPC   D2A 6928  40.481  30.026   8.504
  267POPC   C3A 6929  40.542  30.095   8.064
  267POPC   C4A 6930  40.604  29.986   7.614
  267POPC   C1B 6931  41.212  30.171   8.723
  267POPC   C2B 6932  41.017  30.128   8.348
  267POPC   C3B 6933  41.012  29.881   8.011
  267POPC   C4B 6934  41.096  30.055   7.626
  268POPC   NC3 6935  33.689   5.783   9.817
  268POPC   PO4 6936  33.130   6.068   9.576
  268POPC   GL1 6937  33.145   5.856   9.179
  268POPC   GL2 6938  33.241   6.144   9.031
  268POPC   C1A 6939  33.005   5.805   8.734
  268POPC   D2A 6940  32.763   5.641   8.400
  268POPC   C3A 6941  32.791   5.930   8.078
  268POPC   C4A 6942  32.824   5.780   7.640
  268POPC   C1B 6943  33.406   6.155   8.627
  268POPC   C2B 6944  33.284   5.930   8.288
  268POPC   C3B 6945  33.230   6.070   7.891
  268POPC   C4B 6946  33.273   5.988   7.493
  269POPC   NC3 6947  24.313   6.164   9.337
  269POPC   PO4 6948  24.503   5.523   9.519
  269POPC   GL1 6949  24.666   5.800   9.199
  269POPC   GL2 6950  24.406   5.817   8.972
  269POPC   C1A 6951  24.894   5.804   8.812
  269POPC   D2A 6952  24.728   5.615   8.452
  269POPC   C3A 6953  24.818   5.741   8.045
  269POPC   C4A 6954  24.636   5.989   7.723
  269POPC   C1B 6955  24.509   6.122   8.654
  269POPC   C2B 6956  24.487   6.093   8.227
  269POPC   C3B 6957  24.276   6.314   7.927
  269POPC   C4B 6958  24.312   6.386   7.501
  270POPC   NC3 6959   4.815  39.019   9.631
  270POPC   PO4 6960   4.311  39.408   9.452
  270POPC   GL1 6961   4.623  39.230   9.179
  270POPC   GL2 6962   4.543  38.887   9.208
  270POPC   C1A 6963   4.492  39.187   8.751
  270POPC   D2A 6964   4.196  39.388   8.504
  270POPC   C3A 6965   4.289  39.290   8.100
  270POPC   C4A 6966   4.583  39.411   7.782
  270POPC   C1B 6967   4.257  38.747   8.897
  270POPC   C2B 6968   4.090  38.859   8.486
  270POPC   C3B 6969   4.306  38.773   8.113
  270POPC   C4B 6970   4.233  38.908   7.719
  271POPC   NC3 6971  39.356  14.621   9.469
  271POPC   PO4 6972  39.084  14.031   9.519
  271POPC   GL1 6973  38.913  14.162   9.149
  271POPC   GL2 6974  39.000  14.481   9.133
  271POPC   C1A 6975  39.160  14.178   8.743
  271POPC   D2A 6976  39.425  14.277   8.379
  271POPC   C3A 6977  39.162  14.242   8.012
  271POPC   C4A 6978  39.163  14.012   7.618
  271POPC   C1B 6979  39.154  14.708   8.746
  271POPC   C2B 6980  39.402  14.779   8.355
  271POPC   C3B 6981  39.469  14.641   7.930
  271POPC   C4B 6982  39.427  14.471   7.489
  272POPC   NC3 6983  23.315  30.133   9.689
  272POPC   PO4 6984  22.615  30.133   9.571
  272POPC   GL1 6985  22.854  30.275   9.180
  272POPC   GL2 6986  23.166  30.101   9.145
  272POPC   C1A 6987  22.696  30.363   8.762
  272POPC   D2A 6988  22.696  30.253   8.316
  272POPC   C3A 6989  22.887  29.852   8.235
  272POPC   C4A 6990  22.967  29.664   7.844
  272POPC   C1B 6991  23.218  30.313   8.724
  272POPC   C2B 6992  23.226  30.259   8.247
  272POPC   C3B 6993  22.978  30.176   7.840
  272POPC   C4B 6994  23.091  30.227   7.382
  273POPC   NC3 6995  22.763  41.968   9.359
  273POPC   PO4 6996  22.774  41.349   9.584
  273POPC   GL1 6997  22.841  41.506   9.171
  273POPC   GL2 6998  22.528  41.622   9.028
  273POPC   C1A 6999  22.963  41.734   8.767
  273POPC   D2A 7000  22.969  41.624   8.318
  273POPC   C3A 7001  23.077  41.267   8.062
  273POPC   C4A 7002  23.100  41.604   7.765
  273POPC   C1B 7003  22.699  41.295   8.726
  273POPC   C2B 7004  22.610  41.238   8.314
  273POPC   C3B 7005  22.577  41.424   7.923
  273POPC   C4B 7006  22.805  41.221   7.602
  274POPC   NC3 7007  31.118   3.339   9.458
  274POPC   PO4 7008  31.845   3.360   9.442
  274POPC   GL1 7009  31.565   3.338   9.101
  274POPC   GL2 7010  31.550   3.678   9.021
  274POPC   C1A 7011  31.422   3.333   8.660
  274POPC   D2A 7012  31.459   3.621   8.328
  274POPC   C3A 7013  31.478   3.498   7.937
  274POPC   C4A 7014  31.390   3.128   7.745
  274POPC   C1B 7015  31.423   3.974   8.702
  274POPC   C2B 7016  31.263   4.089   8.290
  274POPC   C3B 7017  31.073   3.820   8.011
  274POPC   C4B 7018  31.241   3.840   7.628
  275POPC   NC3 7019   8.116   9.583   9.531
  275POPC   PO4 7020   8.070  10.207   9.260
  275POPC   GL1 7021   8.195   9.796   9.087
  275POPC   GL2 7022   7.857   9.590   9.101
  275POPC   C1A 7023   8.438   9.747   8.724
  275POPC   D2A 7024   8.314   9.921   8.328
  275POPC   C3A 7025   8.457   9.694   7.998
  275POPC   C4A 7026   8.671   9.769   7.649
  275POPC   C1B 7027   7.846   9.765   8.704
  275POPC   C2B 7028   7.865   9.540   8.336
  275POPC   C3B 7029   7.984   9.540   7.923
  275POPC   C4B 7030   8.099   9.809   7.576
  276POPC   NC3 7031  11.217  18.722   9.474
  276POPC   PO4 7032  11.548  18.041   9.601
  276POPC   GL1 7033  11.406  18.249   9.213
  276POPC   GL2 7034  11.070  18.238   9.202
  276POPC   C1A 7035  11.346  18.129   8.755
  276POPC   D2A 7036  11.339  18.452   8.419
  276POPC   C3A 7037  11.453  18.298   8.016
  276POPC   C4A 7038  11.298  18.148   7.630
  276POPC   C1B 7039  11.005  18.486   8.829
  276POPC   C2B 7040  10.803  18.516   8.422
  276POPC   C3B 7041  10.970  18.585   7.997
  276POPC   C4B 7042  11.013  18.586   7.544
  277POPC   NC3 7043   7.019  18.178   9.399
  277POPC   PO4 7044   6.399  18.430   9.532
  277POPC   GL1 7045   6.568  18.380   9.180
  277POPC   GL2 7046   6.504  18.091   9.094
  277POPC   C1A 7047   6.741  18.455   8.805
  277POPC   D2A 7048   6.938  18.599   8.458
  277POPC   C3A 7049   6.743  18.462   8.108
  277POPC   C4A 7050   6.896  18.331   7.696
  277POPC   C1B 7051   6.814  17.938   8.794
  277POPC   C2B 7052   6.933  18.076   8.403
  277POPC   C3B 7053   6.796  17.960   8.011
  277POPC   C4B 7054   6.846  17.784   7.610
  278POPC   NC3 7055  33.654  11.950   9.433
  278POPC   PO4 7056  34.177  12.013   9.898
  278POPC   GL1 7057  34.066  12.232   9.346
  278POPC   GL2 7058  33.767  12.385   9.208
  278POPC   C1A 7059  34.020  12.073   8.860
  278POPC   D2A 7060  34.086  12.114   8.392
  278POPC   C3A 7061  33.816  11.913   8.039
  278POPC   C4A 7062  33.895  11.984   7.565
  278POPC   C1B 7063  33.540  12.255   8.828
  278POPC   C2B 7064  33.412  12.265   8.410
  278POPC   C3B 7065  33.660  12.404   8.095
  278POPC   C4B 7066  33.535  12.315   7.710
  279POPC   NC3 7067  26.998  32.036   9.453
  279POPC   PO4 7068  27.074  32.628   9.365
  279POPC   GL1 7069  26.747  32.352   9.099
  279POPC   GL2 7070  26.696  31.948   9.029
  279POPC   C1A 7071  26.790  32.287   8.663
  279POPC   D2A 7072  26.921  32.093   8.301
  279POPC   C3A 7073  26.680  32.271   7.970
  279POPC   C4A 7074  26.904  32.546   7.670
  279POPC   C1B 7075  26.604  31.786   8.617
  279POPC   C2B 7076  26.542  31.784   8.183
  279POPC   C3B 7077  26.872  31.789   7.873
  279POPC   C4B 7078  26.864  32.059   7.539
  280POPC   NC3 7079   3.847   4.907   9.707
  280POPC   PO4 7080   3.458   5.457   9.905
  280POPC   GL1 7081   3.517   5.195   9.419
  280POPC   GL2 7082   3.676   4.973   9.192
  280POPC   C1A 7083   3.318   5.220   8.938
  280POPC   D2A 7084   3.226   5.027   8.533
  280POPC   C3A 7085   3.371   5.085   8.133
  280POPC   C4A 7086   3.249   4.946   7.739
  280POPC   C1B 7087   3.703   4.957   8.738
  280POPC   C2B 7088   3.698   4.725   8.358
  280POPC   C3B 7089   3.817   4.888   7.990
  280POPC   C4B 7090   3.922   5.310   7.928
  281POPC   NC3 7091   7.390  14.570   9.402
  281POPC   PO4 7092   7.669  13.978   9.637
  281POPC   GL1 7093   7.554  14.107   9.201
  281POPC   GL2 7094   7.219  13.997   9.126
  281POPC   C1A 7095   7.440  14.372   8.796
  281POPC   D2A 7096   7.263  14.495   8.412
  281POPC   C3A 7097   7.501  14.622   8.059
  281POPC   C4A 7098   7.558  14.683   7.592
  281POPC   C1B 7099   7.432  13.878   8.762
  281POPC   C2B 7100   7.556  14.020   8.380
  281POPC   C3B 7101   7.334  13.941   8.020
  281POPC   C4B 7102   7.295  14.278   7.746
  282POPC   NC3 7103  20.188  42.384   9.841
  282POPC   PO4 7104  20.788  42.242   9.517
  282POPC   GL1 7105  20.818  42.186   9.116
  282POPC   GL2 7106  20.481  42.130   9.059
  282POPC   C1A 7107  20.863  42.211   8.674
  282POPC   D2A 7108  20.598  42.193   8.309
  282POPC   C3A 7109  20.755  42.312   7.922
  282POPC   C4A 7110  20.538  42.560   7.650
  282POPC   C1B 7111  20.244  42.207   8.666
  282POPC   C2B 7112  20.066  42.154   8.214
  282POPC   C3B 7113  20.253  42.140   7.772
  282POPC   C4B 7114  20.484  42.148   7.361
  283POPC   NC3 7115   8.427  23.092   9.327
  283POPC   PO4 7116   7.921  23.123   9.769
  283POPC   GL1 7117   7.889  22.984   9.278
  283POPC   GL2 7118   8.125  22.698   9.150
  283POPC   C1A 7119   7.857  22.986   8.781
  283POPC   D2A 7120   7.740  23.185   8.347
  283POPC   C3A 7121   8.034  23.117   7.962
  283POPC   C4A 7122   8.455  23.284   7.819
  283POPC   C1B 7123   8.362  22.809   8.768
  283POPC   C2B 7124   8.207  22.819   8.357
  283POPC   C3B 7125   8.474  22.804   8.001
  283POPC   C4B 7126   8.363  22.582   7.633
  284POPC   NC3 7127   9.563  11.609   9.520
  284POPC   PO4 7128   9.876  12.227   9.587
  284POPC   GL1 7129   9.711  12.235   9.194
  284POPC   GL2 7130   9.787  11.892   9.120
  284POPC   C1A 7131   9.660  12.227   8.747
  284POPC   D2A 7132   9.527  12.068   8.341
  284POPC   C3A 7133   9.502  12.376   8.032
  284POPC   C4A 7134   9.852  12.405   7.765
  284POPC   C1B 7135   9.470  11.705   8.812
  284POPC   C2B 7136   9.231  11.673   8.427
  284POPC   C3B 7137   9.414  11.618   8.058
  284POPC   C4B 7138   9.599  11.918   7.797
  285POPC   NC3 7139   5.673  20.364   9.425
  285POPC   PO4 7140   5.682  19.692   9.456
  285POPC   GL1 7141   5.884  19.845   9.099
  285POPC   GL2 7142   6.120  20.125   9.199
  285POPC   C1A 7143   5.807  19.707   8.666
  285POPC   D2A 7144   6.044  19.663   8.279
  285POPC   C3A 7145   5.722  19.600   7.978
  285POPC   C4A 7146   5.549  19.381   7.644
  285POPC   C1B 7147   6.028  20.252   8.775
  285POPC   C2B 7148   5.846  20.164   8.375
  285POPC   C3B 7149   5.903  20.072   7.956
  285POPC   C4B 7150   5.931  19.824   7.584
  286POPC   NC3 7151  34.613   4.554   9.580
  286POPC   PO4 7152  34.297   4.039   9.432
  286POPC   GL1 7153  34.729   4.162   9.246
  286POPC   GL2 7154  34.760   4.539   9.095
  286POPC   C1A 7155  34.918   4.133   8.846
  286POPC   D2A 7156  34.872   4.412   8.501
  286POPC   C3A 7157  34.660   4.276   8.121
  286POPC   C4A 7158  34.749   4.150   7.714
  286POPC   C1B 7159  34.440   4.345   8.825
  286POPC   C2B 7160  34.234   4.292   8.439
  286POPC   C3B 7161  34.100   4.490   8.049
  286POPC   C4B 7162  34.203   4.443   7.597
  287POPC   NC3 7163  21.469  41.077   9.458
  287POPC   PO4 7164  21.059  40.582   9.506
  287POPC   GL1 7165  21.280  40.703   9.156
  287POPC   GL2 7166  21.577  40.537   9.184
  287POPC   C1A 7167  21.435  40.945   8.800
  287POPC   D2A 7168  21.292  40.810   8.408
  287POPC   C3A 7169  21.455  40.897   8.022
  287POPC   C4A 7170  21.232  40.677   7.675
  287POPC   C1B 7171  21.467  40.440   8.735
  287POPC   C2B 7172  21.513  40.326   8.299
  287POPC   C3B 7173  21.624  40.433   7.875
  287POPC   C4B 7174  21.689  40.810   7.570
  288POPC   NC3 7175  41.356  25.700   9.435
  288POPC   PO4 7176  41.732  25.146   9.497
  288POPC   GL1 7177  41.658  25.186   9.056
  288POPC   GL2 7178  41.516  25.490   8.995
  288POPC   C1A 7179  41.413  25.028   8.680
  288POPC   D2A 7180  41.530  24.894   8.247
  288POPC   C3A 7181  41.492  25.228   7.926
  288POPC   C4A 7182  41.452  25.686   7.969
  288POPC   C1B 7183  41.641  25.503   8.553
  288POPC   C2B 7184  41.922  25.753   8.292
  288POPC   C3B 7185  41.961  25.556   7.923
  288POPC   C4B 7186  42.008  25.098   7.924
  289POPC   NC3 7187  24.466  13.416   9.414
  289POPC   PO4 7188  24.497  14.091   9.651
  289POPC   GL1 7189  24.385  13.932   9.187
  289POPC   GL2 7190  24.113  13.739   9.122
  289POPC   C1A 7191  24.406  13.897   8.688
  289POPC   D2A 7192  24.529  13.941   8.216
  289POPC   C3A 7193  24.681  13.546   7.971
  289POPC   C4A 7194  24.673  13.491   7.544
  289POPC   C1B 7195  24.081  13.496   8.689
  289POPC   C2B 7196  24.219  13.507   8.194
  289POPC   C3B 7197  24.278  13.744   7.749
  289POPC   C4B 7198  24.224  13.885   7.275
  290POPC   NC3 7199   2.516  20.825   9.537
  290POPC   PO4 7200   3.203  20.829   9.444
  290POPC   GL1 7201   2.992  20.825   9.047
  290POPC   GL2 7202   2.711  20.659   9.088
  290POPC   C1A 7203   2.676  20.975   8.706
  290POPC   D2A 7204   2.678  21.160   8.308
  290POPC   C3A 7205   2.717  20.852   8.015
  290POPC   C4A 7206   3.025  20.536   7.991
  290POPC   C1B 7207   2.792  20.489   8.650
  290POPC   C2B 7208   2.611  20.374   8.228
  290POPC   C3B 7209   2.610  20.354   7.746
  290POPC   C4B 7210   2.757  20.296   7.262
  291POPC   NC3 7211   3.508  12.522   9.581
  291POPC   PO4 7212   3.280  11.854   9.458
  291POPC   GL1 7213   3.643  12.080   9.236
  291POPC   GL2 7214   3.684  11.764   9.072
  291POPC   C1A 7215   3.853  12.145   8.791
  291POPC   D2A 7216   3.623  12.168   8.363
  291POPC   C3A 7217   3.831  12.086   7.970
  291POPC   C4A 7218   3.676  11.902   7.565
  291POPC   C1B 7219   3.355  12.021   8.806
  291POPC   C2B 7220   3.163  11.895   8.412
  291POPC   C3B 7221   3.136  11.836   7.972
  291POPC   C4B 7222   3.009  11.490   7.729
  292POPC   NC3 7223  27.566  21.505   9.454
  292POPC   PO4 7224  27.808  20.883   9.365
  292POPC   GL1 7225  27.540  21.180   9.062
  292POPC   GL2 7226  27.295  21.486   9.052
  292POPC   C1A 7227  27.587  21.399   8.651
  292POPC   D2A 7228  27.891  21.511   8.332
  292POPC   C3A 7229  27.704  21.507   7.927
  292POPC   C4A 7230  27.698  21.321   7.518
  292POPC   C1B 7231  27.063  21.361   8.723
  292POPC   C2B 7232  27.148  21.359   8.307
  292POPC   C3B 7233  27.102  21.564   7.934
  292POPC   C4B 7234  27.325  21.650   7.580
  293POPC   NC3 7235  21.791  37.859   9.530
  293POPC   PO4 7236  21.112  37.653   9.446
  293POPC   GL1 7237  21.484  37.712   9.138
  293POPC   GL2 7238  21.670  38.046   9.065
  293POPC   C1A 7239  21.500  37.766   8.674
  293POPC   D2A 7240  21.696  37.875   8.278
  293POPC   C3A 7241  21.564  37.545   7.992
  293POPC   C4A 7242  21.133  37.570   7.789
  293POPC   C1B 7243  21.234  38.136   8.929
  293POPC   C2B 7244  21.006  38.027   8.570
  293POPC   C3B 7245  21.072  37.982   8.138
  293POPC   C4B 7246  21.414  38.008   7.845
  294POPC   NC3 7247   7.504   2.160   9.616
  294POPC   PO4 7248   7.455   1.542   9.672
  294POPC   GL1 7249   7.464   1.780   9.237
  294POPC   GL2 7250   7.799   1.939   9.255
  294POPC   C1A 7251   7.244   1.960   8.818
  294POPC   D2A 7252   7.285   2.198   8.374
  294POPC   C3A 7253   7.266   2.033   7.964
  294POPC   C4A 7254   7.438   1.738   7.651
  294POPC   C1B 7255   7.715   2.130   8.883
  294POPC   C2B 7256   7.789   2.123   8.486
  294POPC   C3B 7257   7.724   2.397   8.160
  294POPC   C4B 7258   7.653   2.380   7.729
  295POPC   NC3 7259  16.300  32.188   9.591
  295POPC   PO4 7260  16.908  32.386   9.607
  295POPC   GL1 7261  16.677  32.239   9.230
  295POPC   GL2 7262  16.749  32.508   8.971
  295POPC   C1A 7263  16.410  32.150   8.848
  295POPC   D2A 7264  16.558  32.382   8.475
  295POPC   C3A 7265  16.475  32.203   8.068
  295POPC   C4A 7266  16.641  32.364   7.711
  295POPC   C1B 7267  16.913  32.117   8.775
  295POPC   C2B 7268  16.893  32.012   8.316
  295POPC   C3B 7269  16.951  31.995   7.864
  295POPC   C4B 7270  16.805  31.990   7.415
  296POPC   NC3 7271  19.023  14.701   9.672
  296POPC   PO4 7272  19.328  15.222   9.374
  296POPC   GL1 7273  19.113  15.179   9.044
  296POPC   GL2 7274  18.915  14.950   9.129
  296POPC   C1A 7275  19.208  15.144   8.642
  296POPC   D2A 7276  19.050  15.315   8.298
  296POPC   C3A 7277  19.261  15.469   7.945
  296POPC   C4A 7278  19.015  15.372   7.625
  296POPC   C1B 7279  18.762  14.937   8.706
  296POPC   C2B 7280  18.954  14.799   8.299
  296POPC   C3B 7281  18.855  14.968   7.908
  296POPC   C4B 7282  18.839  14.919   7.413
  297POPC   NC3 7283  20.660  37.510   9.466
  297POPC   PO4 7284  20.129  37.952   9.505
  297POPC   GL1 7285  20.384  37.800   9.156
  297POPC   GL2 7286  20.339  37.427   9.064
  297POPC   C1A 7287  20.723  37.695   8.856
  297POPC   D2A 7288  20.582  37.711   8.472
  297POPC   C3A 7289  20.753  37.521   8.129
  297POPC   C4A 7290  20.539  37.595   7.761
  297POPC   C1B 7291  20.447  37.220   8.654
  297POPC   C2B 7292  20.328  37.235   8.203
  297POPC   C3B 7293  20.329  37.134   7.760
  297POPC   C4B 7294  20.687  37.228   7.432
  298POPC   NC3 7295  29.786   6.195   9.578
  298POPC   PO4 7296  29.901   5.557   9.506
  298POPC   GL1 7297  29.859   5.883   9.189
  298POPC   GL2 7298  30.172   6.005   9.137
  298POPC   C1A 7299  29.838   6.099   8.778
  298POPC   D2A 7300  29.761   5.833   8.433
  298POPC   C3A 7301  29.672   6.098   8.068
  298POPC   C4A 7302  29.783   6.267   7.673
  298POPC   C1B 7303  30.176   5.682   8.820
  298POPC   C2B 7304  30.273   5.543   8.426
  298POPC   C3B 7305  30.111   5.722   8.084
  298POPC   C4B 7306  30.207   6.074   7.866
  299POPC   NC3 7307  32.389  14.842   9.698
  299POPC   PO4 7308  31.850  15.215   9.672
  299POPC   GL1 7309  32.236  15.240   9.408
  299POPC   GL2 7310  32.204  14.933   9.231
  299POPC   C1A 7311  32.464  15.310   8.992
  299POPC   D2A 7312  32.505  15.309   8.537
  299POPC   C3A 7313  32.439  15.115   8.154
  299POPC   C4A 7314  32.232  15.272   7.795
  299POPC   C1B 7315  32.301  14.820   8.820
  299POPC   C2B 7316  32.104  14.799   8.423
  299POPC   C3B 7317  32.019  14.821   7.987
  299POPC   C4B 7318  31.625  14.918   7.817
  300POPC   NC3 7319  29.726  20.886   9.368
  300POPC   PO4 7320  30.277  21.229   9.468
  300POPC   GL1 7321  30.217  20.884   9.117
  300POPC   GL2 7322  29.918  20.611   8.994
  300POPC   C1A 7323  30.064  20.957   8.689
  300POPC   D2A 7324  29.698  20.768   8.508
  300POPC   C3A 7325  29.787  20.735   8.083
  300POPC   C4A 7326  30.175  20.915   7.901
  300POPC   C1B 7327  29.996  20.330   8.622
  300POPC   C2B 7328  30.239  20.167   8.272
  300POPC   C3B 7329  30.128  20.370   7.911
  300POPC   C4B 7330  29.727  20.257   7.791
  301POPC   NC3 7331  24.087  15.829   9.504
  301POPC   PO4 7332  23.479  15.746   9.355
  301POPC   GL1 7333  23.800  15.901   9.065
  301POPC   GL2 7334  23.878  16.250   9.212
  301POPC   C1A 7335  23.741  15.819   8.602
  301POPC   D2A 7336  23.403  15.815   8.270
  301POPC   C3A 7337  23.519  16.038   7.894
  301POPC   C4A 7338  23.538  16.112   7.448
  301POPC   C1B 7339  23.906  16.312   8.764
  301POPC   C2B 7340  23.930  16.217   8.323
  301POPC   C3B 7341  23.970  16.284   7.893
  301POPC   C4B 7342  23.982  15.955   7.608
  302POPC   NC3 7343  21.145   4.497   9.532
  302POPC   PO4 7344  21.420   3.954   9.315
  302POPC   GL1 7345  21.346   4.213   9.057
  302POPC   GL2 7346  21.529   4.496   9.176
  302POPC   C1A 7347  21.321   4.141   8.602
  302POPC   D2A 7348  21.324   4.265   8.179
  302POPC   C3A 7349  21.389   3.937   7.884
  302POPC   C4A 7350  21.735   3.883   7.592
  302POPC   C1B 7351  21.349   4.613   8.775
  302POPC   C2B 7352  21.455   4.815   8.428
  302POPC   C3B 7353  21.612   4.679   8.059
  302POPC   C4B 7354  21.547   4.402   7.693
  303POPC   NC3 7355   8.283  24.542   9.575
  303POPC   PO4 7356   8.236  23.842   9.523
  303POPC   GL1 7357   8.147  24.204   9.208
  303POPC   GL2 7358   8.387  24.469   9.091
  303POPC   C1A 7359   8.108  24.245   8.741
  303POPC   D2A 7360   8.314  24.268   8.336
  303POPC   C3A 7361   8.101  24.452   7.969
  303POPC   C4A 7362   7.766  24.325   7.644
  303POPC   C1B 7363   8.340  24.720   8.728
  303POPC   C2B 7364   8.521  24.734   8.318
  303POPC   C3B 7365   8.482  24.866   7.898
  303POPC   C4B 7366   8.301  24.660   7.542
  304POPC   NC3 7367  30.284   6.736   9.739
  304POPC   PO4 7368  30.863   6.716   9.342
  304POPC   GL1 7369  30.733   6.560   8.988
  304POPC   GL2 7370  30.384   6.450   9.005
  304POPC   C1A 7371  30.722   6.525   8.566
  304POPC   D2A 7372  30.734   6.761   8.222
  304POPC   C3A 7373  31.071   6.891   7.978
  304POPC   C4A 7374  30.972   6.856   7.522
  304POPC   C1B 7375  30.215   6.561   8.627
  304POPC   C2B 7376  30.308   6.483   8.194
  304POPC   C3B 7377  30.513   6.480   7.788
  304POPC   C4B 7378  30.222   6.348   7.430
  305POPC   NC3 7379   9.979  24.892   9.626
  305POPC   PO4 7380   9.652  25.539   9.685
  305POPC   GL1 7381   9.528  25.279   9.294
  305POPC   GL2 7382   9.817  25.098   9.164
  305POPC   C1A 7383   9.518  25.338   8.837
  305POPC   D2A 7384   9.630  25.584   8.483
  305POPC   C3A 7385   9.554  25.354   8.109
  305POPC   C4A 7386   9.413  25.479   7.714
  305POPC   C1B 7387   9.864  24.935   8.728
  305POPC   C2B 7388   9.990  25.016   8.281
  305POPC   C3B 7389  10.079  25.407   8.080
  305POPC   C4B 7390   9.914  25.452   7.741
  306POPC   NC3 7391  43.536  23.508   9.576
  306POPC   PO4 7392  44.155  23.892   9.466
  306POPC   GL1 7393  43.834  23.785   9.226
  306POPC   GL2 7394  44.041  23.531   9.049
  306POPC   C1A 7395  43.733  23.859   8.811
  306POPC   D2A 7396  43.806  23.658   8.423
  306POPC   C3A 7397  43.737  23.788   7.980
  306POPC   C4A 7398  43.883  23.657   7.539
  306POPC   C1B 7399  44.228  23.829   8.707
  306POPC   C2B 7400  44.116  24.054   8.281
  306POPC   C3B 7401  44.137  24.045   7.790
  306POPC   C4B 7402  44.308  24.180   7.359
  307POPC   NC3 7403   6.746   1.570   9.337
  307POPC   PO4 7404   6.744   1.001   9.687
  307POPC   GL1 7405   6.572   1.080   9.244
  307POPC   GL2 7406   6.315   1.342   9.160
  307POPC   C1A 7407   6.481   1.010   8.790
  307POPC   D2A 7408   6.510   0.741   8.416
  307POPC   C3A 7409   6.492   0.959   8.023
  307POPC   C4A 7410   6.452   0.896   7.598
  307POPC   C1B 7411   6.511   1.550   8.756
  307POPC   C2B 7412   6.545   1.394   8.364
  307POPC   C3B 7413   6.364   1.463   7.996
  307POPC   C4B 7414   6.566   1.404   7.664
  308POPC   NC3 7415  28.522  10.258   9.543
  308POPC   PO4 7416  28.747  10.978   9.463
  308POPC   GL1 7417  28.424  10.725   9.146
  308POPC   GL2 7418  28.168  10.420   9.166
  308POPC   C1A 7419  28.383  10.557   8.691
  308POPC   D2A 7420  28.575  10.435   8.276
  308POPC   C3A 7421  28.558  10.595   7.829
  308POPC   C4A 7422  28.187  10.861   7.714
  308POPC   C1B 7423  28.007  10.160   8.833
  308POPC   C2B 7424  28.154  10.110   8.408
  308POPC   C3B 7425  28.126  10.346   8.038
  308POPC   C4B 7426  28.156  10.167   7.655
  309POPC   NC3 7427  21.980   8.318   9.488
  309POPC   PO4 7428  22.298   7.794   9.296
  309POPC   GL1 7429  22.125   8.067   9.046
  309POPC   GL2 7430  22.427   8.276   9.169
  309POPC   C1A 7431  22.116   7.989   8.598
  309POPC   D2A 7432  22.411   7.993   8.262
  309POPC   C3A 7433  22.276   8.064   7.869
  309POPC   C4A 7434  21.980   8.423   7.787
  309POPC   C1B 7435  22.337   8.447   8.776
  309POPC   C2B 7436  22.180   8.474   8.370
  309POPC   C3B 7437  22.434   8.523   8.021
  309POPC   C4B 7438  22.382   8.698   7.647
  310POPC   NC3 7439  36.325   4.619   9.493
  310POPC   PO4 7440  35.727   4.220   9.578
  310POPC   GL1 7441  35.878   4.479   9.235
  310POPC   GL2 7442  36.112   4.262   9.112
  310POPC   C1A 7443  35.945   4.664   8.812
  310POPC   D2A 7444  36.005   4.487   8.394
  310POPC   C3A 7445  36.140   4.658   8.002
  310POPC   C4A 7446  36.064   4.401   7.630
  310POPC   C1B 7447  36.359   4.319   8.733
  310POPC   C2B 7448  36.527   4.382   8.298
  310POPC   C3B 7449  36.525   4.348   7.833
  310POPC   C4B 7450  36.496   4.268   7.374
  311POPC   NC3 7451  35.013  22.135   9.418
  311POPC   PO4 7452  35.437  21.683   9.371
  311POPC   GL1 7453  35.439  22.083   9.102
  311POPC   GL2 7454  35.717  22.342   9.159
  311POPC   C1A 7455  35.206  22.146   8.697
  311POPC   D2A 7456  34.952  22.175   8.300
  311POPC   C3A 7457  35.084  22.149   7.898
  311POPC   C4A 7458  35.332  21.801   7.732
  311POPC   C1B 7459  35.678  22.392   8.723
  311POPC   C2B 7460  35.450  22.374   8.313
  311POPC   C3B 7461  35.573  22.220   7.935
  311POPC   C4B 7462  35.786  21.989   7.650
  312POPC   NC3 7463   7.936  11.478   9.673
  312POPC   PO4 7464   8.457  10.992   9.566
  312POPC   GL1 7465   8.259  11.083   9.174
  312POPC   GL2 7466   8.415  11.405   9.104
  312POPC   C1A 7467   8.051  11.197   8.758
  312POPC   D2A 7468   8.260  11.297   8.368
  312POPC   C3A 7469   8.253  10.972   8.028
  312POPC   C4A 7470   8.127  10.996   7.566
  312POPC   C1B 7471   8.251  11.681   8.791
  312POPC   C2B 7472   8.087  11.785   8.398
  312POPC   C3B 7473   8.244  11.706   8.003
  312POPC   C4B 7474   8.403  11.400   7.760
  313POPC   NC3 7475  19.795   9.922   9.624
  313POPC   PO4 7476  20.042   9.275   9.760
  313POPC   GL1 7477  19.913   9.492   9.370
  313POPC   GL2 7478  20.126   9.762   9.265
  313POPC   C1A 7479  19.863   9.532   8.899
  313POPC   D2A 7480  19.936   9.711   8.487
  313POPC   C3A 7481  19.734   9.723   8.062
  313POPC   C4A 7482  19.994   9.463   7.831
  313POPC   C1B 7483  20.119  10.012   8.869
  313POPC   C2B 7484  20.260  10.112   8.442
  313POPC   C3B 7485  20.212   9.886   8.078
  313POPC   C4B 7486  20.016   9.991   7.698
  314POPC   NC3 7487   9.064  37.952   9.632
  314POPC   PO4 7488   8.645  37.394   9.379
  314POPC   GL1 7489   8.857  37.551   9.066
  314POPC   GL2 7490   9.007  37.872   9.121
  314POPC   C1A 7491   8.848  37.676   8.622
  314POPC   D2A 7492   8.634  37.619   8.251
  314POPC   C3A 7493   8.753  37.739   7.844
  314POPC   C4A 7494   9.021  37.467   7.653
  314POPC   C1B 7495   9.302  37.628   8.858
  314POPC   C2B 7496   9.423  37.584   8.440
  314POPC   C3B 7497   9.221  37.735   8.073
  314POPC   C4B 7498   9.226  37.937   7.671
  315POPC   NC3 7499  34.759  35.648   9.440
  315POPC   PO4 7500  34.779  34.956   9.459
  315POPC   GL1 7501  34.559  35.198   9.132
  315POPC   GL2 7502  34.832  35.432   9.004
  315POPC   C1A 7503  34.410  35.440   8.750
  315POPC   D2A 7504  34.673  35.570   8.435
  315POPC   C3A 7505  34.419  35.514   8.121
  315POPC   C4A 7506  34.347  35.208   7.842
  315POPC   C1B 7507  34.800  35.113   8.674
  315POPC   C2B 7508  34.870  34.861   8.331
  315POPC   C3B 7509  34.822  35.039   7.936
  315POPC   C4B 7510  34.839  35.241   7.522
  316POPC   NC3 7511  35.641  15.831   9.556
  316POPC   PO4 7512  35.008  16.032   9.522
  316POPC   GL1 7513  35.084  15.901   9.121
  316POPC   GL2 7514  35.451  15.890   9.080
  316POPC   C1A 7515  35.063  15.963   8.691
  316POPC   D2A 7516  35.203  15.769   8.306
  316POPC   C3A 7517  35.072  15.878   7.893
  316POPC   C4A 7518  35.287  16.010   7.494
  316POPC   C1B 7519  35.629  15.889   8.670
  316POPC   C2B 7520  35.673  15.897   8.226
  316POPC   C3B 7521  35.677  15.896   7.782
  316POPC   C4B 7522  35.691  15.738   7.342
  317POPC   NC3 7523  30.190  19.475   9.627
  317POPC   PO4 7524  29.770  18.850   9.565
  317POPC   GL1 7525  29.924  19.044   9.209
  317POPC   GL2 7526  30.265  19.059   9.271
  317POPC   C1A 7527  29.740  19.112   8.795
  317POPC   D2A 7528  29.618  19.359   8.416
  317POPC   C3A 7529  29.761  19.082   8.110
  317POPC   C4A 7530  29.694  19.022   7.688
  317POPC   C1B 7531  30.312  18.913   8.838
  317POPC   C2B 7532  30.300  18.770   8.386
  317POPC   C3B 7533  30.254  18.927   7.975
  317POPC   C4B 7534  30.103  19.340   7.831
  318POPC   NC3 7535  27.454  16.330   9.478
  318POPC   PO4 7536  27.666  16.998   9.416
  318POPC   GL1 7537  27.597  16.682   9.127
  318POPC   GL2 7538  27.859  16.438   9.185
  318POPC   C1A 7539  27.469  16.740   8.734
  318POPC   D2A 7540  27.568  16.837   8.340
  318POPC   C3A 7541  27.337  16.786   7.983
  318POPC   C4A 7542  27.173  16.574   7.641
  318POPC   C1B 7543  27.900  16.340   8.767
  318POPC   C2B 7544  28.022  16.238   8.348
  318POPC   C3B 7545  27.846  16.509   8.045
  318POPC   C4B 7546  27.699  16.592   7.662
  319POPC   NC3 7547  22.119   9.268   9.620
  319POPC   PO4 7548  22.345   8.645   9.531
  319POPC   GL1 7549  22.137   8.709   9.166
  319POPC   GL2 7550  21.834   8.519   9.058
  319POPC   C1A 7551  22.320   8.961   8.853
  319POPC   D2A 7552  22.404   9.311   8.560
  319POPC   C3A 7553  22.255   9.293   8.139
  319POPC   C4A 7554  22.249   9.189   7.708
  319POPC   C1B 7555  21.809   8.952   8.866
  319POPC   C2B 7556  21.999   8.986   8.450
  319POPC   C3B 7557  22.054   8.854   8.019
  319POPC   C4B 7558  21.895   8.868   7.523
  320POPC   NC3 7559  41.006  41.350   9.456
  320POPC   PO4 7560  40.408  41.665   9.536
  320POPC   GL1 7561  40.571  41.516   9.186
  320POPC   GL2 7562  40.875  41.696   9.085
  320POPC   C1A 7563  40.613  41.333   8.819
  320POPC   D2A 7564  40.691  41.572   8.509
  320POPC   C3A 7565  40.626  41.450   8.113
  320POPC   C4A 7566  40.621  41.839   7.868
  320POPC   C1B 7567  41.103  41.399   8.792
  320POPC   C2B 7568  41.057  41.262   8.337
  320POPC   C3B 7569  41.072  41.490   7.899
  320POPC   C4B 7570  41.133  41.389   7.432
  321POPC   NC3 7571  43.631  38.254   9.513
  321POPC   PO4 7572  44.051  38.772   9.510
  321POPC   GL1 7573  44.061  38.706   9.077
  321POPC   GL2 7574  43.999  38.362   9.143
  321POPC   C1A 7575  43.941  38.588   8.633
  321POPC   D2A 7576  43.720  38.284   8.334
  321POPC   C3A 7577  43.720  38.530   7.949
  321POPC   C4A 7578  43.962  38.921   7.990
  321POPC   C1B 7579  44.314  38.310   8.830
  321POPC   C2B 7580  44.243  38.201   8.390
  321POPC   C3B 7581  44.092  38.207   7.973
  321POPC   C4B 7582  43.860  38.235   7.535
  322POPC   NC3 7583   5.002  28.689   9.890
  322POPC   PO4 7584   4.993  29.333   9.732
  322POPC   GL1 7585   4.993  29.095   9.299
  322POPC   GL2 7586   4.697  28.958   9.163
  322POPC   C1A 7587   5.086  29.128   8.795
  322POPC   D2A 7588   5.091  29.462   8.417
  322POPC   C3A 7589   5.239  29.434   7.943
  322POPC   C4A 7590   5.281  29.239   7.508
  322POPC   C1B 7591   4.674  29.369   8.940
  322POPC   C2B 7592   4.617  29.265   8.500
  322POPC   C3B 7593   4.817  29.138   8.106
  322POPC   C4B 7594   4.792  29.245   7.671
  323POPC   NC3 7595  25.179  38.135   9.382
  323POPC   PO4 7596  25.662  37.741   9.491
  323POPC   GL1 7597  25.352  37.580   9.204
  323POPC   GL2 7598  25.034  37.406   9.296
  323POPC   C1A 7599  25.392  37.553   8.778
  323POPC   D2A 7600  25.295  37.843   8.467
  323POPC   C3A 7601  25.491  37.733   8.094
  323POPC   C4A 7602  25.307  37.773   7.718
  323POPC   C1B 7603  24.937  37.368   8.864
  323POPC   C2B 7604  25.053  37.364   8.428
  323POPC   C3B 7605  24.978  37.640   8.112
  323POPC   C4B 7606  24.803  37.648   7.761
  324POPC   NC3 7607   5.952  23.540   9.394
  324POPC   PO4 7608   5.347  23.883   9.491
  324POPC   GL1 7609   5.653  23.852   9.068
  324POPC   GL2 7610   6.022  23.829   8.983
  324POPC   C1A 7611   5.780  23.633   8.619
  324POPC   D2A 7612   6.121  23.853   8.409
  324POPC   C3A 7613   6.092  23.848   7.959
  324POPC   C4A 7614   5.768  23.605   7.756
  324POPC   C1B 7615   6.255  23.459   8.779
  324POPC   C2B 7616   6.438  23.474   8.348
  324POPC   C3B 7617   6.208  23.354   7.954
  324POPC   C4B 7618   6.151  23.397   7.489
  325POPC   NC3 7619  12.615  32.702   9.592
  325POPC   PO4 7620  12.923  33.322   9.575
  325POPC   GL1 7621  12.630  33.181   9.269
  325POPC   GL2 7622  12.725  32.885   9.134
  325POPC   C1A 7623  12.590  33.237   8.817
  325POPC   D2A 7624  12.733  33.093   8.423
  325POPC   C3A 7625  12.663  33.438   8.136
  325POPC   C4A 7626  12.778  33.500   7.711
  325POPC   C1B 7627  12.572  32.654   8.787
  325POPC   C2B 7628  12.749  32.498   8.414
  325POPC   C3B 7629  12.943  32.725   8.133
  325POPC   C4B 7630  12.698  33.011   7.868
  326POPC   NC3 7631  38.278  26.518   9.465
  326POPC   PO4 7632  38.648  25.974   9.571
  326POPC   GL1 7633  38.581  26.209   9.195
  326POPC   GL2 7634  38.236  26.091   9.114
  326POPC   C1A 7635  38.520  26.274   8.754
  326POPC   D2A 7636  38.518  26.000   8.426
  326POPC   C3A 7637  38.502  26.178   8.059
  326POPC   C4A 7638  38.230  26.143   7.744
  326POPC   C1B 7639  38.267  25.756   8.798
  326POPC   C2B 7640  38.186  25.606   8.370
  326POPC   C3B 7641  38.305  25.647   7.925
  326POPC   C4B 7642  38.043  25.659   7.502
  327POPC   NC3 7643  20.207  24.100   9.808
  327POPC   PO4 7644  20.389  24.776   9.505
  327POPC   GL1 7645  20.473  24.529   9.154
  327POPC   GL2 7646  20.829  24.427   9.149
  327POPC   C1A 7647  20.393  24.537   8.721
  327POPC   D2A 7648  20.254  24.654   8.331
  327POPC   C3A 7649  20.451  24.540   7.968
  327POPC   C4A 7650  20.383  24.164   7.818
  327POPC   C1B 7651  20.706  24.114   8.824
  327POPC   C2B 7652  20.566  24.186   8.385
  327POPC   C3B 7653  20.835  24.219   8.045
  327POPC   C4B 7654  20.862  24.116   7.628
  328POPC   NC3 7655  43.272  22.786   9.638
  328POPC   PO4 7656  43.398  23.285   9.207
  328POPC   GL1 7657  43.156  22.932   9.090
  328POPC   GL2 7658  43.083  22.621   9.177
  328POPC   C1A 7659  43.041  22.876   8.697
  328POPC   D2A 7660  43.278  23.028   8.338
  328POPC   C3A 7661  43.038  23.133   8.011
  328POPC   C4A 7662  42.914  22.781   7.783
  328POPC   C1B 7663  43.327  22.474   8.782
  328POPC   C2B 7664  43.175  22.490   8.333
  328POPC   C3B 7665  43.352  22.541   7.910
  328POPC   C4B 7666  43.262  22.519   7.402
  329POPC   NC3 7667  41.270  14.257   9.730
  329POPC   PO4 7668  41.998  14.019   9.586
  329POPC   GL1 7669  41.736  14.207   9.207
  329POPC   GL2 7670  41.739  14.595   9.128
  329POPC   C1A 7671  41.647  14.277   8.743
  329POPC   D2A 7672  41.788  14.242   8.315
  329POPC   C3A 7673  41.603  14.316   7.943
  329POPC   C4A 7674  41.778  14.021   7.686
  329POPC   C1B 7675  41.503  14.761   8.772
  329POPC   C2B 7676  41.408  14.608   8.359
  329POPC   C3B 7677  41.185  14.226   8.233
  329POPC   C4B 7678  41.106  14.072   7.818
  330POPC   NC3 7679  11.208  32.107   9.613
  330POPC   PO4 7680  11.517  32.698   9.458
  330POPC   GL1 7681  11.224  32.443   9.237
  330POPC   GL2 7682  11.367  32.091   9.133
  330POPC   C1A 7683  11.152  32.485   8.836
  330POPC   D2A 7684  11.435  32.519   8.502
  330POPC   C3A 7685  11.278  32.581   8.124
  330POPC   C4A 7686  11.397  32.632   7.732
  330POPC   C1B 7687  11.374  32.051   8.702
  330POPC   C2B 7688  11.253  32.061   8.299
  330POPC   C3B 7689  11.372  32.120   7.873
  330POPC   C4B 7690  11.369  31.807   7.546
  331POPC   NC3 7691  26.574   9.493   9.490
  331POPC   PO4 7692  26.923   8.831   9.523
  331POPC   GL1 7693  26.718   9.030   9.201
  331POPC   GL2 7694  26.924   9.322   9.154
  331POPC   C1A 7695  26.691   8.744   8.850
  331POPC   D2A 7696  26.993   8.683   8.526
  331POPC   C3A 7697  26.918   8.960   8.179
  331POPC   C4A 7698  26.786   8.837   7.768
  331POPC   C1B 7699  27.021   9.161   8.740
  331POPC   C2B 7700  27.359   9.236   8.428
  331POPC   C3B 7701  27.361   9.174   7.999
  331POPC   C4B 7702  27.061   9.250   7.728
  332POPC   NC3 7703   8.742  44.835   9.407
  332POPC   PO4 7704   9.390   0.154   9.449
  332POPC   GL1 7705   9.203   0.043   9.064
  332POPC   GL2 7706   9.147  44.712   9.041
  332POPC   C1A 7707   8.839  44.997   8.766
  332POPC   D2A 7708   8.852  44.878   8.363
  332POPC   C3A 7709   9.222  44.975   8.173
  332POPC   C4A 7710   9.264  44.861   7.748
  332POPC   C1B 7711   8.950  44.490   8.674
  332POPC   C2B 7712   8.791  44.383   8.296
  332POPC   C3B 7713   8.892  44.524   7.889
  332POPC   C4B 7714   8.631  44.381   7.543
  333POPC   NC3 7715   1.937  34.938   9.367
  333POPC   PO4 7716   1.762  35.551   9.524
  333POPC   GL1 7717   2.013  35.446   9.133
  333POPC   GL2 7718   2.262  35.156   9.032
  333POPC   C1A 7719   1.949  35.374   8.687
  333POPC   D2A 7720   2.130  35.125   8.359
  333POPC   C3A 7721   1.897  35.298   8.018
  333POPC   C4A 7722   1.519  35.577   8.065
  333POPC   C1B 7723   2.439  35.480   8.745
  333POPC   C2B 7724   2.308  35.594   8.348
  333POPC   C3B 7725   2.370  35.436   7.969
  333POPC   C4B 7726   2.139  35.476   7.585
  334POPC   NC3 7727  13.639  37.851   9.560
  334POPC   PO4 7728  14.156  37.337   9.529
  334POPC   GL1 7729  13.935  37.574   9.181
  334POPC   GL2 7730  13.911  37.932   9.157
  334POPC   C1A 7731  13.657  37.580   8.804
  334POPC   D2A 7732  13.833  37.584   8.377
  334POPC   C3A 7733  13.584  37.493   8.003
  334POPC   C4A 7734  13.510  37.359   7.587
  334POPC   C1B 7735  13.720  38.063   8.750
  334POPC   C2B 7736  13.480  37.974   8.383
  334POPC   C3B 7737  13.657  37.988   8.015
  334POPC   C4B 7738  13.717  37.822   7.621
  335POPC   NC3 7739  36.704  38.949   9.365
  335POPC   PO4 7740  37.166  39.405   9.615
  335POPC   GL1 7741  37.047  39.304   9.187
  335POPC   GL2 7742  37.230  39.004   9.106
  335POPC   C1A 7743  36.753  39.275   8.808
  335POPC   D2A 7744  36.599  39.454   8.421
  335POPC   C3A 7745  36.702  39.236   8.066
  335POPC   C4A 7746  36.988  39.337   7.762
  335POPC   C1B 7747  37.010  38.805   8.777
  335POPC   C2B 7748  37.004  38.898   8.370
  335POPC   C3B 7749  37.241  39.026   8.084
  335POPC   C4B 7750  37.240  38.886   7.709
  336POPC   NC3 7751  11.587  30.701   9.589
  336POPC   PO4 7752  11.034  30.957   9.547
  336POPC   GL1 7753  11.019  30.744   9.159
  336POPC   GL2 7754  11.379  30.759   9.117
  336POPC   C1A 7755  11.003  30.784   8.700
  336POPC   D2A 7756  11.317  30.693   8.351
  336POPC   C3A 7757  11.244  30.783   7.882
  336POPC   C4A 7758  11.467  30.693   7.467
  336POPC   C1B 7759  11.301  30.384   8.870
  336POPC   C2B 7760  11.080  30.246   8.502
  336POPC   C3B 7761  11.113  30.296   8.047
  336POPC   C4B 7762  11.435  30.242   7.714
  337POPC   NC3 7763   6.030  38.130   9.481
  337POPC   PO4 7764   5.966  38.803   9.530
  337POPC   GL1 7765   5.789  38.567   9.188
  337POPC   GL2 7766   5.890  38.242   9.006
  337POPC   C1A 7767   5.823  38.697   8.775
  337POPC   D2A 7768   5.671  38.726   8.391
  337POPC   C3A 7769   5.937  38.562   8.087
  337POPC   C4A 7770   5.952  38.604   7.648
  337POPC   C1B 7771   5.640  38.248   8.620
  337POPC   C2B 7772   5.511  38.246   8.202
  337POPC   C3B 7773   5.759  38.171   7.828
  337POPC   C4B 7774   6.186  38.154   7.675
  338POPC   NC3 7775  17.071  20.254   9.489
  338POPC   PO4 7776  16.806  19.592   9.488
  338POPC   GL1 7777  16.845  19.841   9.121
  338POPC   GL2 7778  16.870  20.191   9.034
  338POPC   C1A 7779  16.612  19.881   8.728
  338POPC   D2A 7780  16.615  19.675   8.348
  338POPC   C3A 7781  16.670  19.904   7.949
  338POPC   C4A 7782  16.554  19.586   7.652
  338POPC   C1B 7783  17.130  20.009   8.703
  338POPC   C2B 7784  17.082  19.832   8.300
  338POPC   C3B 7785  17.170  19.930   7.873
  338POPC   C4B 7786  17.000  20.084   7.499
  339POPC   NC3 7787  14.626  20.997   9.490
  339POPC   PO4 7788  14.283  21.624   9.504
  339POPC   GL1 7789  14.248  21.389   9.146
  339POPC   GL2 7790  14.574  21.329   9.066
  339POPC   C1A 7791  14.235  21.359   8.677
  339POPC   D2A 7792  14.477  21.444   8.304
  339POPC   C3A 7793  14.419  21.070   8.098
  339POPC   C4A 7794  14.025  21.050   7.897
  339POPC   C1B 7795  14.636  21.680   8.727
  339POPC   C2B 7796  14.666  21.957   8.397
  339POPC   C3B 7797  14.712  21.800   7.980
  339POPC   C4B 7798  14.507  21.439   7.762
  340POPC   NC3 7799   7.133   5.877   9.352
  340POPC   PO4 7800   7.840   5.973   9.463
  340POPC   GL1 7801   7.596   5.876   9.118
  340POPC   GL2 7802   7.716   5.593   9.013
  340POPC   C1A 7803   7.485   5.914   8.688
  340POPC   D2A 7804   7.591   5.893   8.265
  340POPC   C3A 7805   7.269   6.076   8.084
  340POPC   C4A 7806   7.072   6.057   7.696
  340POPC   C1B 7807   7.334   5.439   8.724
  340POPC   C2B 7808   7.150   5.574   8.340
  340POPC   C3B 7809   7.293   5.585   7.934
  340POPC   C4B 7810   7.568   5.818   7.759
  341POPC   NC3 7811   4.871  34.896   9.576
  341POPC   PO4 7812   4.668  34.209   9.499
  341POPC   GL1 7813   4.922  34.486   9.240
  341POPC   GL2 7814   4.736  34.734   9.127
  341POPC   C1A 7815   5.065  34.486   8.797
  341POPC   D2A 7816   5.337  34.430   8.416
  341POPC   C3A 7817   5.278  34.627   8.016
  341POPC   C4A 7818   4.975  34.518   7.717
  341POPC   C1B 7819   4.813  34.980   8.820
  341POPC   C2B 7820   4.710  35.085   8.454
  341POPC   C3B 7821   4.769  34.825   8.113
  341POPC   C4B 7822   4.667  34.940   7.707
  342POPC   NC3 7823  36.411  23.959   9.358
  342POPC   PO4 7824  35.646  23.897   9.462
  342POPC   GL1 7825  35.946  23.713   9.185
  342POPC   GL2 7826  35.959  23.974   8.983
  342POPC   C1A 7827  36.036  23.521   8.762
  342POPC   D2A 7828  36.133  23.741   8.364
  342POPC   C3A 7829  35.866  23.666   8.027
  342POPC   C4A 7830  35.897  23.313   7.736
  342POPC   C1B 7831  36.300  24.086   8.716
  342POPC   C2B 7832  36.273  24.234   8.301
  342POPC   C3B 7833  36.420  23.996   7.963
  342POPC   C4B 7834  36.322  23.613   7.742
  343POPC   NC3 7835   6.913  35.099   9.373
  343POPC   PO4 7836   6.777  35.773   9.502
  343POPC   GL1 7837   6.757  35.558   9.128
  343POPC   GL2 7838   6.480  35.287   9.169
  343POPC   C1A 7839   6.904  35.651   8.701
  343POPC   D2A 7840   6.713  35.682   8.296
  343POPC   C3A 7841   6.991  35.606   7.986
  343POPC   C4A 7842   6.948  35.489   7.564
  343POPC   C1B 7843   6.617  35.226   8.746
  343POPC   C2B 7844   6.778  35.180   8.316
  343POPC   C3B 7845   6.662  35.218   7.891
  343POPC   C4B 7846   6.258  35.276   7.752
  344POPC   NC3 7847   6.085   9.909   9.585
  344POPC   PO4 7848   5.961  10.598   9.491
  344POPC   GL1 7849   5.802  10.453   9.129
  344POPC   GL2 7850   6.122  10.229   9.139
  344POPC   C1A 7851   5.579  10.569   8.736
  344POPC   D2A 7852   5.580  10.860   8.346
  344POPC   C3A 7853   5.879  10.787   7.973
  344POPC   C4A 7854   5.915  10.696   7.525
  344POPC   C1B 7855   6.007  10.233   8.699
  344POPC   C2B 7856   5.861  10.419   8.350
  344POPC   C3B 7857   5.691  10.341   7.961
  344POPC   C4B 7858   5.930  10.191   7.606
  345POPC   NC3 7859  15.904  34.384   9.367
  345POPC   PO4 7860  15.914  35.080   9.469
  345POPC   GL1 7861  15.952  34.807   9.111
  345POPC   GL2 7862  16.293  34.681   9.188
  345POPC   C1A 7863  15.925  34.527   8.727
  345POPC   D2A 7864  15.777  34.320   8.349
  345POPC   C3A 7865  15.924  34.528   8.004
  345POPC   C4A 7866  16.033  34.361   7.644
  345POPC   C1B 7867  16.344  34.833   8.775
  345POPC   C2B 7868  16.215  34.753   8.346
  345POPC   C3B 7869  16.203  34.978   7.904
  345POPC   C4B 7870  16.229  34.932   7.426
  346POPC   NC3 7871  13.956  38.721   9.543
  346POPC   PO4 7872  13.440  38.295   9.517
  346POPC   GL1 7873  13.534  38.311   9.139
  346POPC   GL2 7874  13.868  38.437   9.131
  346POPC   C1A 7875  13.470  38.485   8.730
  346POPC   D2A 7876  13.662  38.457   8.351
  346POPC   C3A 7877  13.364  38.390   8.022
  346POPC   C4A 7878  13.633  38.330   7.639
  346POPC   C1B 7879  13.983  38.683   8.776
  346POPC   C2B 7880  14.186  38.572   8.380
  346POPC   C3B 7881  14.045  38.457   7.965
  346POPC   C4B 7882  14.010  38.711   7.583
  347POPC   NC3 7883  23.908  22.721   9.953
  347POPC   PO4 7884  23.561  22.785   9.394
  347POPC   GL1 7885  23.699  22.949   9.061
  347POPC   GL2 7886  24.065  23.042   9.092
  347POPC   C1A 7887  23.487  22.926   8.682
  347POPC   D2A 7888  23.190  23.098   8.436
  347POPC   C3A 7889  23.261  22.914   8.068
  347POPC   C4A 7890  23.598  22.901   7.861
  347POPC   C1B 7891  24.003  22.781   8.707
  347POPC   C2B 7892  23.834  22.835   8.313
  347POPC   C3B 7893  24.085  22.975   7.974
  347POPC   C4B 7894  24.290  22.675   7.775
  348POPC   NC3 7895  26.887  30.467   9.644
  348POPC   PO4 7896  26.461  31.013   9.498
  348POPC   GL1 7897  26.701  30.866   9.080
  348POPC   GL2 7898  26.835  30.512   9.128
  348POPC   C1A 7899  26.560  30.563   8.714
  348POPC   D2A 7900  26.527  30.771   8.378
  348POPC   C3A 7901  26.385  30.569   8.082
  348POPC   C4A 7902  26.645  30.386   7.810
  348POPC   C1B 7903  27.054  30.492   8.698
  348POPC   C2B 7904  26.959  30.533   8.228
  348POPC   C3B 7905  26.798  30.853   7.932
  348POPC   C4B 7906  26.922  30.954   7.512
  349POPC   NC3 7907  44.640   2.452   9.529
  349POPC   PO4 7908  44.553   1.840   9.662
  349POPC   GL1 7909  44.508   1.915   9.209
  349POPC   GL2 7910  44.823   2.096   9.171
  349POPC   C1A 7911  44.517   1.970   8.723
  349POPC   D2A 7912  44.512   2.331   8.389
  349POPC   C3A 7913  44.585   2.191   7.972
  349POPC   C4A 7914  44.613   1.772   8.013
  349POPC   C1B 7915  44.933   2.264   8.765
  349POPC   C2B 7916  44.952   2.079   8.361
  349POPC   C3B 7917   0.070   2.365   8.054
  349POPC   C4B 7918  44.950   2.490   7.702
  350POPC   NC3 7919   4.854  10.711   9.426
  350POPC   PO4 7920   5.122  10.063   9.586
  350POPC   GL1 7921   5.171  10.304   9.176
  350POPC   GL2 7922   5.223  10.658   9.071
  350POPC   C1A 7923   5.072  10.263   8.728
  350POPC   D2A 7924   5.324  10.370   8.333
  350POPC   C3A 7925   5.133  10.331   7.918
  350POPC   C4A 7926   4.755  10.576   7.802
  350POPC   C1B 7927   5.072  10.761   8.641
  350POPC   C2B 7928   5.072  10.782   8.179
  350POPC   C3B 7929   5.401  10.766   7.844
  350POPC   C4B 7930   5.430  10.861   7.369
  351POPC   NC3 7931  29.603  43.271   9.528
  351POPC   PO4 7932  30.261  43.150   9.652
  351POPC   GL1 7933  30.025  43.184   9.220
  351POPC   GL2 7934  30.245  42.999   9.000
  351POPC   C1A 7935  29.679  42.997   8.902
  351POPC   D2A 7936  29.591  42.801   8.475
  351POPC   C3A 7937  29.815  43.000   8.110
  351POPC   C4A 7938  29.809  43.397   7.894
  351POPC   C1B 7939  30.059  43.265   8.688
  351POPC   C2B 7940  30.166  43.380   8.280
  351POPC   C3B 7941  30.263  43.648   7.922
  351POPC   C4B 7942  30.239  43.309   7.619
  352POPC   NC3 7943  38.314  16.034   9.822
  352POPC   PO4 7944  38.809  15.768   9.434
  352POPC   GL1 7945  38.421  15.863   9.211
  352POPC   GL2 7946  38.348  16.234   9.130
  352POPC   C1A 7947  38.422  15.830   8.754
  352POPC   D2A 7948  38.654  15.909   8.366
  352POPC   C3A 7949  38.373  15.991   8.047
  352POPC   C4A 7950  38.391  15.815   7.640
  352POPC   C1B 7951  38.652  16.283   8.742
  352POPC   C2B 7952  38.909  16.360   8.383
  352POPC   C3B 7953  38.710  16.372   7.994
  352POPC   C4B 7954  38.326  16.382   7.719
  353POPC   NC3 7955  23.203  34.142   9.276
  353POPC   PO4 7956  22.822  34.661   9.628
  353POPC   GL1 7957  22.791  34.665   9.209
  353POPC   GL2 7958  22.736  34.340   9.134
  353POPC   C1A 7959  22.760  34.775   8.775
  353POPC   D2A 7960  22.760  34.646   8.361
  353POPC   C3A 7961  23.112  34.672   8.126
  353POPC   C4A 7962  22.871  34.628   7.779
  353POPC   C1B 7963  22.953  34.300   8.705
  353POPC   C2B 7964  23.171  34.192   8.326
  353POPC   C3B 7965  23.086  34.196   7.892
  353POPC   C4B 7966  23.003  34.125   7.414
  354POPC   NC3 7967  39.553  22.419   9.339
  354POPC   PO4 7968  40.030  21.996   9.664
  354POPC   GL1 7969  40.214  22.173   9.237
  354POPC   GL2 7970  39.934  22.288   9.037
  354POPC   C1A 7971  40.290  22.131   8.738
  354POPC   D2A 7972  39.994  21.945   8.421
  354POPC   C3A 7973  39.960  22.231   8.082
  354POPC   C4A 7974  40.228  22.263   7.729
  354POPC   C1B 7975  39.970  22.576   8.695
  354POPC   C2B 7976  39.770  22.728   8.332
  354POPC   C3B 7977  39.639  22.619   7.933
  354POPC   C4B 7978  39.819  22.529   7.557
  355POPC   NC3 7979   6.369  39.108   9.518
  355POPC   PO4 7980   6.980  39.456   9.706
  355POPC   GL1 7981   6.725  39.450   9.281
  355POPC   GL2 7982   6.996  39.395   9.034
  355POPC   C1A 7983   6.525  39.315   8.853
  355POPC   D2A 7984   6.536  39.027   8.480
  355POPC   C3A 7985   6.520  39.173   8.029
  355POPC   C4A 7986   6.137  39.059   7.799
  355POPC   C1B 7987   7.021  39.091   8.673
  355POPC   C2B 7988   7.002  39.064   8.240
  355POPC   C3B 7989   7.040  39.441   8.008
  355POPC   C4B 7990   6.828  39.493   7.641
  356POPC   NC3 7991  20.807  43.276   9.616
  356POPC   PO4 7992  20.163  42.847   9.701
  356POPC   GL1 7993  20.452  42.983   9.283
  356POPC   GL2 7994  20.768  42.782   9.374
  356POPC   C1A 7995  20.495  43.040   8.784
  356POPC   D2A 7996  20.573  43.204   8.350
  356POPC   C3A 7997  20.297  43.098   7.976
  356POPC   C4A 7998  20.312  42.995   7.552
  356POPC   C1B 7999  20.804  42.669   8.942
  356POPC   C2B 8000  20.725  42.681   8.494
  356POPC   C3B 8001  20.697  42.803   8.066
  356POPC   C4B 8002  20.775  43.193   7.830
  357POPC   NC3 8003  10.706  13.282   9.654
  357POPC   PO4 8004  10.284  13.829   9.681
  357POPC   GL1 8005  10.411  13.739   9.242
  357POPC   GL2 8006  10.692  13.489   9.185
  357POPC   C1A 8007  10.451  13.740   8.792
  357POPC   D2A 8008  10.356  13.640   8.376
  357POPC   C3A 8009  10.577  13.885   8.069
  357POPC   C4A 8010  10.566  13.701   7.678
  357POPC   C1B 8011  10.862  13.401   8.771
  357POPC   C2B 8012  10.914  13.595   8.358
  357POPC   C3B 8013  10.893  13.428   7.920
  357POPC   C4B 8014  10.902  13.434   7.413
  358POPC   NC3 8015  33.710  17.576   9.471
  358POPC   PO4 8016  34.292  17.616   9.240
  358POPC   GL1 8017  34.093  17.294   9.001
  358POPC   GL2 8018  33.771  17.421   9.002
  358POPC   C1A 8019  33.826  17.043   8.684
  358POPC   D2A 8020  33.550  17.258   8.397
  358POPC   C3A 8021  33.768  17.443   8.061
  358POPC   C4A 8022  33.928  17.254   7.711
  358POPC   C1B 8023  33.658  17.699   8.659
  358POPC   C2B 8024  33.543  17.865   8.242
  358POPC   C3B 8025  33.595  17.866   7.779
  358POPC   C4B 8026  33.733  18.108   7.394
  359POPC   NC3 8027  44.623  11.469   9.380
  359POPC   PO4 8028  44.541  10.824   9.394
  359POPC   GL1 8029  44.838  11.019   9.128
  359POPC   GL2 8030   0.081  11.252   9.281
  359POPC   C1A 8031  44.712  11.152   8.718
  359POPC   D2A 8032  44.366  11.033   8.472
  359POPC   C3A 8033  44.340  11.171   8.046
  359POPC   C4A 8034  44.590  11.031   7.681
  359POPC   C1B 8035   0.187  11.291   8.845
  359POPC   C2B 8036   0.046  11.425   8.437
  359POPC   C3B 8037  44.886  11.249   8.070
  359POPC   C4B 8038   0.124  11.480   7.802
  360POPC   NC3 8039  30.134   0.863   9.510
  360POPC   PO4 8040  29.468   0.854   9.367
  360POPC   GL1 8041  29.809   0.637   9.176
  360POPC   GL2 8042  29.940   0.285   9.258
  360POPC   C1A 8043  29.912   0.706   8.782
  360POPC   D2A 8044  29.802   0.562   8.388
  360POPC   C3A 8045  29.711   0.782   8.001
  360POPC   C4A 8046  29.563   0.733   7.590
  360POPC   C1B 8047  30.210   0.296   8.883
  360POPC   C2B 8048  30.121   0.124   8.508
  360POPC   C3B 8049  30.018   0.163   8.097
  360POPC   C4B 8050  29.951   0.391   7.716
  361POPC   NC3 8051  42.528  40.398   9.432
  361POPC   PO4 8052  42.020  40.848   9.544
  361POPC   GL1 8053  42.194  40.696   9.150
  361POPC   GL2 8054  42.485  40.921   9.046
  361POPC   C1A 8055  42.278  40.570   8.715
  361POPC   D2A 8056  42.386  40.779   8.318
  361POPC   C3A 8057  42.190  40.820   7.911
  361POPC   C4A 8058  42.027  40.574   7.531
  361POPC   C1B 8059  42.731  41.076   8.658
  361POPC   C2B 8060  42.895  40.857   8.275
  361POPC   C3B 8061  42.728  40.851   7.841
  361POPC   C4B 8062  42.486  40.790   7.462
  362POPC   NC3 8063  33.510  26.910   9.485
  362POPC   PO4 8064  33.951  26.446   9.620
  362POPC   GL1 8065  34.006  26.757   9.268
  362POPC   GL2 8066  34.139  26.544   9.006
  362POPC   C1A 8067  33.835  26.998   8.892
  362POPC   D2A 8068  33.637  26.970   8.467
  362POPC   C3A 8069  33.890  26.789   8.164
  362POPC   C4A 8070  33.977  26.958   7.766
  362POPC   C1B 8071  33.708  26.506   8.784
  362POPC   C2B 8072  33.461  26.483   8.388
  362POPC   C3B 8073  33.557  26.506   7.933
  362POPC   C4B 8074  33.948  26.462   7.747
  363POPC   NC3 8075  36.716  31.558   9.636
  363POPC   PO4 8076  37.028  31.001   9.540
  363POPC   GL1 8077  36.812  31.283   9.200
  363POPC   GL2 8078  36.759  31.684   9.163
  363POPC   C1A 8079  36.925  31.411   8.780
  363POPC   D2A 8080  37.133  31.290   8.430
  363POPC   C3A 8081  36.981  31.374   8.036
  363POPC   C4A 8082  36.814  31.537   7.687
  363POPC   C1B 8083  36.597  31.833   8.782
  363POPC   C2B 8084  36.756  31.721   8.384
  363POPC   C3B 8085  36.679  31.935   7.990
  363POPC   C4B 8086  36.493  31.922   7.608
  364POPC   NC3 8087  29.246  12.311   9.875
  364POPC   PO4 8088  29.364  12.893   9.642
  364POPC   GL1 8089  29.296  12.830   9.183
  364POPC   GL2 8090  29.067  12.565   9.088
  364POPC   C1A 8091  29.227  12.933   8.737
  364POPC   D2A 8092  29.023  12.762   8.362
  364POPC   C3A 8093  28.997  13.031   8.029
  364POPC   C4A 8094  29.404  12.957   7.965
  364POPC   C1B 8095  29.275  12.403   8.719
  364POPC   C2B 8096  29.307  12.313   8.274
  364POPC   C3B 8097  29.146  12.531   7.911
  364POPC   C4B 8098  28.903  12.696   7.578
  365POPC   NC3 8099  27.141   2.122   9.316
  365POPC   PO4 8100  27.729   1.985   9.627
  365POPC   GL1 8101  27.625   1.984   9.166
  365POPC   GL2 8102  27.448   1.733   9.131
  365POPC   C1A 8103  27.457   2.077   8.726
  365POPC   D2A 8104  27.435   2.177   8.274
  365POPC   C3A 8105  27.840   2.180   8.037
  365POPC   C4A 8106  27.722   2.104   7.576
  365POPC   C1B 8107  27.666   1.580   8.766
  365POPC   C2B 8108  27.743   1.790   8.384
  365POPC   C3B 8109  27.560   1.761   7.982
  365POPC   C4B 8110  27.718   1.564   7.659
  366POPC   NC3 8111   5.431  24.372   9.470
  366POPC   PO4 8112   5.993  24.671   9.408
  366POPC   GL1 8113   5.934  24.327   9.109
  366POPC   GL2 8114   5.603  24.368   8.988
  366POPC   C1A 8115   6.259  24.225   8.800
  366POPC   D2A 8116   6.431  24.249   8.403
  366POPC   C3A 8117   6.124  24.326   8.130
  366POPC   C4A 8118   6.083  24.519   7.756
  366POPC   C1B 8119   5.741  24.143   8.638
  366POPC   C2B 8120   5.669  23.994   8.223
  366POPC   C3B 8121   5.700  24.200   7.837
  366POPC   C4B 8122   5.593  24.616   7.673
  367POPC   NC3 8123  11.671  21.329   9.470
  367POPC   PO4 8124  11.087  21.537   9.687
  367POPC   GL1 8125  11.214  21.611   9.261
  367POPC   GL2 8126  11.226  21.308   9.111
  367POPC   C1A 8127  11.420  21.717   8.845
  367POPC   D2A 8128  11.498  21.576   8.401
  367POPC   C3A 8129  11.219  21.753   8.084
  367POPC   C4A 8130  11.204  21.556   7.699
  367POPC   C1B 8131  11.438  21.202   8.751
  367POPC   C2B 8132  11.456  20.996   8.394
  367POPC   C3B 8133  11.496  21.188   8.020
  367POPC   C4B 8134  11.336  21.052   7.683
  368POPC   NC3 8135  44.990   4.933   9.535
  368POPC   PO4 8136  44.553   5.440   9.728
  368POPC   GL1 8137  44.612   5.264   9.291
  368POPC   GL2 8138  44.590   4.932   9.157
  368POPC   C1A 8139  44.605   5.308   8.828
  368POPC   D2A 8140  44.687   5.430   8.403
  368POPC   C3A 8141  44.446   5.246   8.096
  368POPC   C4A 8142  44.773   5.034   7.821
  368POPC   C1B 8143  44.669   4.752   8.748
  368POPC   C2B 8144  44.691   4.859   8.302
  368POPC   C3B 8145  44.572   4.605   7.924
  368POPC   C4B 8146  44.525   4.732   7.464
  369POPC   NC3 8147   4.505  19.304   9.371
  369POPC   PO4 8148   4.238  18.642   9.505
  369POPC   GL1 8149   4.186  18.871   9.130
  369POPC   GL2 8150   3.813  18.794   9.042
  369POPC   C1A 8151   4.404  19.010   8.773
  369POPC   D2A 8152   4.660  19.000   8.436
  369POPC   C3A 8153   4.413  19.187   8.108
  369POPC   C4A 8154   4.334  19.110   7.673
  369POPC   C1B 8155   4.050  18.524   8.795
  369POPC   C2B 8156   4.237  18.664   8.418
  369POPC   C3B 8157   4.098  18.796   8.037
  369POPC   C4B 8158   4.030  18.672   7.632
  370POPC   NC3 8159  34.817   7.795   9.375
  370POPC   PO4 8160  35.494   7.441   9.490
  370POPC   GL1 8161  35.176   7.451   9.191
  370POPC   GL2 8162  35.272   7.813   9.189
  370POPC   C1A 8163  35.013   7.347   8.761
  370POPC   D2A 8164  35.132   7.528   8.337
  370POPC   C3A 8165  35.379   7.391   7.973
  370POPC   C4A 8166  35.179   7.234   7.565
  370POPC   C1B 8167  35.296   7.781   8.769
  370POPC   C2B 8168  35.604   7.664   8.486
  370POPC   C3B 8169  35.579   7.954   8.177
  370POPC   C4B 8170  35.556   7.873   7.761
  371POPC   NC3 8171  14.365  10.962   9.529
  371POPC   PO4 8172  14.276  11.601   9.668
  371POPC   GL1 8173  14.201  11.470   9.262
  371POPC   GL2 8174  14.520  11.311   9.161
  371POPC   C1A 8175  14.150  11.501   8.829
  371POPC   D2A 8176  14.322  11.699   8.488
  371POPC   C3A 8177  14.372  11.633   8.046
  371POPC   C4A 8178  14.546  11.495   7.644
  371POPC   C1B 8179  14.563  11.191   8.714
  371POPC   C2B 8180  14.274  11.204   8.364
  371POPC   C3B 8181  14.338  11.133   7.944
  371POPC   C4B 8182  14.521  10.841   7.719
  372POPC   NC3 8183  29.655  26.499   9.419
  372POPC   PO4 8184  30.057  27.145   9.479
  372POPC   GL1 8185  30.007  26.803   9.192
  372POPC   GL2 8186  29.858  27.052   8.980
  372POPC   C1A 8187  30.157  26.600   8.805
  372POPC   D2A 8188  30.325  26.561   8.365
  372POPC   C3A 8189  30.009  26.553   8.008
  372POPC   C4A 8190  30.017  26.756   7.584
  372POPC   C1B 8191  29.796  26.984   8.561
  372POPC   C2B 8192  29.631  27.153   8.183
  372POPC   C3B 8193  29.586  26.902   7.787
  372POPC   C4B 8194  29.656  26.967   7.298
  373POPC   NC3 8195  27.459  44.760   9.636
  373POPC   PO4 8196  28.083  44.940   9.555
  373POPC   GL1 8197  27.734  44.835   9.209
  373POPC   GL2 8198  27.327  44.822   9.161
  373POPC   C1A 8199  27.655  44.634   8.813
  373POPC   D2A 8200  27.707  44.783   8.403
  373POPC   C3A 8201  27.851  44.480   8.104
  373POPC   C4A 8202  27.604  44.387   7.734
  373POPC   C1B 8203  27.285  44.997   8.751
  373POPC   C2B 8204  27.165  44.815   8.390
  373POPC   C3B 8205  27.338  44.714   8.027
  373POPC   C4B 8206  27.368  44.889   7.608
  374POPC   NC3 8207   0.407  37.632   9.717
  374POPC   PO4 8208   0.680  38.058   9.291
  374POPC   GL1 8209   0.474  37.660   9.179
  374POPC   GL2 8210   0.598  37.312   9.270
  374POPC   C1A 8211   0.480  37.641   8.722
  374POPC   D2A 8212   0.443  37.813   8.319
  374POPC   C3A 8213   0.254  37.781   7.923
  374POPC   C4A 8214   0.701  37.783   7.795
  374POPC   C1B 8215   0.308  37.202   8.904
  374POPC   C2B 8216   0.249  37.284   8.434
  374POPC   C3B 8217   0.482  37.343   8.047
  374POPC   C4B 8218   0.420  37.380   7.600
  375POPC   NC3 8219  36.542  16.767   9.315
  375POPC   PO4 8220  35.831  16.699   9.501
  375POPC   GL1 8221  36.074  16.699   9.142
  375POPC   GL2 8222  36.278  16.407   9.075
  375POPC   C1A 8223  36.182  16.773   8.712
  375POPC   D2A 8224  36.110  16.678   8.278
  375POPC   C3A 8225  35.836  16.952   8.045
  375POPC   C4A 8226  35.836  17.196   7.639
  375POPC   C1B 8227  36.450  16.329   8.663
  375POPC   C2B 8228  36.599  16.512   8.259
  375POPC   C3B 8229  36.431  16.818   7.926
  375POPC   C4B 8230  36.078  16.728   7.664
  376POPC   NC3 8231  30.521  35.811   9.474
  376POPC   PO4 8232  30.956  35.180   9.458
  376POPC   GL1 8233  30.760  35.351   9.082
  376POPC   GL2 8234  30.819  35.698   9.092
  376POPC   C1A 8235  30.625  35.504   8.648
  376POPC   D2A 8236  30.342  35.570   8.311
  376POPC   C3A 8237  30.459  35.388   7.881
  376POPC   C4A 8238  30.923  35.240   7.782
  376POPC   C1B 8239  31.014  35.873   8.764
  376POPC   C2B 8240  31.054  35.837   8.347
  376POPC   C3B 8241  30.847  35.655   8.056
  376POPC   C4B 8242  30.764  35.733   7.600
  377POPC   NC3 8243  42.050  17.608   9.743
  377POPC   PO4 8244  42.553  18.002   9.476
  377POPC   GL1 8245  42.347  17.634   9.198
  377POPC   GL2 8246  42.525  17.302   9.128
  377POPC   C1A 8247  42.268  17.484   8.739
  377POPC   D2A 8248  42.324  17.317   8.308
  377POPC   C3A 8249  42.322  17.640   7.981
  377POPC   C4A 8250  42.504  17.955   7.732
  377POPC   C1B 8251  42.727  17.186   8.694
  377POPC   C2B 8252  42.800  17.153   8.208
  377POPC   C3B 8253  42.516  17.171   7.831
  377POPC   C4B 8254  42.340  17.134   7.383
  378POPC   NC3 8255  10.086  21.633   9.354
  378POPC   PO4 8256   9.591  21.194   9.478
  378POPC   GL1 8257   9.816  21.244   9.095
  378POPC   GL2 8258  10.157  21.140   9.070
  378POPC   C1A 8259   9.726  21.519   8.742
  378POPC   D2A 8260   9.517  21.407   8.371
  378POPC   C3A 8261   9.466  21.542   7.947
  378POPC   C4A 8262   9.600  21.226   7.607
  378POPC   C1B 8263  10.238  21.435   8.748
  378POPC   C2B 8264  10.045  21.436   8.339
  378POPC   C3B 8265   9.965  21.490   7.916
  378POPC   C4B 8266  10.220  21.586   7.565
  379POPC   NC3 8267  18.916  35.393   9.526
  379POPC   PO4 8268  19.364  35.787   9.800
  379POPC   GL1 8269  19.359  35.589   9.331
  379POPC   GL2 8270  19.204  35.268   9.148
  379POPC   C1A 8271  19.287  35.671   8.869
  379POPC   D2A 8272  19.185  35.800   8.447
  379POPC   C3A 8273  19.167  35.558   8.103
  379POPC   C4A 8274  19.237  35.621   7.664
  379POPC   C1B 8275  18.870  35.386   8.847
  379POPC   C2B 8276  18.734  35.559   8.454
  379POPC   C3B 8277  18.685  35.515   8.030
  379POPC   C4B 8278  18.929  35.242   7.725
  380POPC   NC3 8279  36.531  43.620   9.427
  380POPC   PO4 8280  37.160  43.872   9.432
  380POPC   GL1 8281  36.938  43.712   9.099
  380POPC   GL2 8282  36.723  43.983   9.064
  380POPC   C1A 8283  36.776  43.695   8.663
  380POPC   D2A 8284  36.793  44.012   8.329
  380POPC   C3A 8285  36.895  43.797   7.950
  380POPC   C4A 8286  36.652  43.421   7.884
  380POPC   C1B 8287  36.844  44.302   8.777
  380POPC   C2B 8288  37.054  44.462   8.416
  380POPC   C3B 8289  37.032  44.366   7.991
  380POPC   C4B 8290  37.045  44.303   7.571
  381POPC   NC3 8291  37.193  33.017   9.651
  381POPC   PO4 8292  36.606  32.700   9.777
  381POPC   GL1 8293  36.724  33.083   9.405
  381POPC   GL2 8294  37.050  33.012   9.177
  381POPC   C1A 8295  36.699  33.277   8.934
  381POPC   D2A 8296  36.837  33.069   8.513
  381POPC   C3A 8297  36.744  33.109   8.042
  381POPC   C4A 8298  36.495  32.851   7.725
  381POPC   C1B 8299  37.270  32.894   8.801
  381POPC   C2B 8300  37.363  33.114   8.419
  381POPC   C3B 8301  37.253  33.194   8.035
  381POPC   C4B 8302  37.148  32.805   7.841
  382POPC   NC3 8303  26.524   4.918   9.544
  382POPC   PO4 8304  26.994   5.375   9.675
  382POPC   GL1 8305  26.915   5.083   9.279
  382POPC   GL2 8306  27.031   4.737   9.276
  382POPC   C1A 8307  26.659   5.026   8.875
  382POPC   D2A 8308  26.498   4.839   8.474
  382POPC   C3A 8309  26.626   5.056   8.112
  382POPC   C4A 8310  26.746   5.381   7.844
  382POPC   C1B 8311  27.125   4.858   8.832
  382POPC   C2B 8312  27.004   4.820   8.369
  382POPC   C3B 8313  27.061   4.839   7.879
  382POPC   C4B 8314  27.130   4.829   7.418
  383POPC   NC3 8315  12.315  37.548   9.554
  383POPC   PO4 8316  11.966  38.164   9.626
  383POPC   GL1 8317  11.919  37.925   9.240
  383POPC   GL2 8318  11.907  37.564   9.240
  383POPC   C1A 8319  12.123  37.832   8.854
  383POPC   D2A 8320  12.159  37.597   8.489
  383POPC   C3A 8321  11.988  37.843   8.142
  383POPC   C4A 8322  11.945  37.842   7.710
  383POPC   C1B 8323  11.894  37.288   8.879
  383POPC   C2B 8324  11.872  37.155   8.450
  383POPC   C3B 8325  11.986  37.354   8.045
  383POPC   C4B 8326  12.254  37.433   7.669
  384POPC   NC3 8327  44.372  25.908   9.632
  384POPC   PO4 8328  44.914  25.585   9.511
  384POPC   GL1 8329  44.712  25.900   9.231
  384POPC   GL2 8330   0.001  25.882   9.084
  384POPC   C1A 8331  44.671  26.183   8.831
  384POPC   D2A 8332  44.789  26.086   8.387
  384POPC   C3A 8333  44.708  26.281   7.970
  384POPC   C4A 8334  44.349  26.409   7.735
  384POPC   C1B 8335  44.719  25.677   8.745
  384POPC   C2B 8336  44.656  25.586   8.298
  384POPC   C3B 8337  44.836  25.721   7.888
  384POPC   C4B 8338  44.872  25.781   7.386
  385POPC   NC3 8339  28.006  15.530   9.674
  385POPC   PO4 8340  27.517  15.089   9.622
  385POPC   GL1 8341  27.678  15.352   9.253
  385POPC   GL2 8342  27.400  15.463   9.034
  385POPC   C1A 8343  27.862  15.358   8.802
  385POPC   D2A 8344  27.773  15.146   8.394
  385POPC   C3A 8345  27.880  15.343   7.992
  385POPC   C4A 8346  27.716  15.286   7.580
  385POPC   C1B 8347  27.430  15.030   8.820
  385POPC   C2B 8348  27.329  14.815   8.417
  385POPC   C3B 8349  27.324  14.950   7.985
  385POPC   C4B 8350  27.378  14.891   7.524
  386POPC   NC3 8351  41.194  33.521   9.552
  386POPC   PO4 8352  40.682  33.885   9.528
  386POPC   GL1 8353  40.654  33.696   9.161
  386POPC   GL2 8354  41.000  33.781   9.132
  386POPC   C1A 8355  40.644  33.797   8.729
  386POPC   D2A 8356  40.489  34.084   8.413
  386POPC   C3A 8357  40.597  33.886   8.055
  386POPC   C4A 8358  40.491  33.605   7.773
  386POPC   C1B 8359  41.170  33.915   8.743
  386POPC   C2B 8360  41.008  33.969   8.350
  386POPC   C3B 8361  41.096  33.840   7.939
  386POPC   C4B 8362  40.867  33.930   7.589
  387POPC   NC3 8363   3.906  42.736   9.397
  387POPC   PO4 8364   3.681  43.366   9.305
  387POPC   GL1 8365   3.570  42.981   9.067
  387POPC   GL2 8366   3.227  42.850   9.066
  387POPC   C1A 8367   3.455  43.061   8.637
  387POPC   D2A 8368   3.565  43.430   8.392
  387POPC   C3A 8369   3.812  43.222   8.100
  387POPC   C4A 8370   3.689  42.837   7.887
  387POPC   C1B 8371   2.944  43.086   8.790
  387POPC   C2B 8372   2.919  43.187   8.360
  387POPC   C3B 8373   3.285  43.084   8.122
  387POPC   C4B 8374   3.426  43.311   7.790
  388POPC   NC3 8375  23.958  35.481   9.469
  388POPC   PO4 8376  23.274  35.536   9.452
  388POPC   GL1 8377  23.410  35.506   9.021
  388POPC   GL2 8378  23.767  35.437   9.008
  388POPC   C1A 8379  23.452  35.502   8.566
  388POPC   D2A 8380  23.688  35.289   8.239
  388POPC   C3A 8381  23.440  35.082   7.956
  388POPC   C4A 8382  23.426  35.316   7.636
  388POPC   C1B 8383  23.989  35.460   8.625
  388POPC   C2B 8384  24.181  35.494   8.221
  388POPC   C3B 8385  24.167  35.506   7.767
  388POPC   C4B 8386  24.257  35.676   7.302
  389POPC   NC3 8387  30.177  29.351   9.500
  389POPC   PO4 8388  30.750  29.231   9.531
  389POPC   GL1 8389  30.771  29.056   9.113
  389POPC   GL2 8390  31.076  28.936   9.064
  389POPC   C1A 8391  30.600  29.090   8.690
  389POPC   D2A 8392  30.365  29.050   8.294
  389POPC   C3A 8393  30.598  29.161   7.943
  389POPC   C4A 8394  30.466  29.340   7.527
  389POPC   C1B 8395  31.147  29.139   8.684
  389POPC   C2B 8396  31.334  29.144   8.256
  389POPC   C3B 8397  31.098  29.062   7.873
  389POPC   C4B 8398  30.808  28.961   7.536
  390POPC   NC3 8399  37.239  36.788   9.904
  390POPC   PO4 8400  37.589  37.176   9.473
  390POPC   GL1 8401  37.610  36.895   9.159
  390POPC   GL2 8402  37.915  36.684   9.148
  390POPC   C1A 8403  37.738  36.978   8.757
  390POPC   D2A 8404  37.677  36.780   8.370
  390POPC   C3A 8405  37.768  37.034   7.999
  390POPC   C4A 8406  37.704  36.849   7.588
  390POPC   C1B 8407  38.172  36.543   8.842
  390POPC   C2B 8408  38.203  36.409   8.438
  390POPC   C3B 8409  38.050  36.575   8.079
  390POPC   C4B 8410  38.111  36.456   7.703
  391POPC   NC3 8411  32.745  20.541   9.935
  391POPC   PO4 8412  32.849  20.207   9.362
  391POPC   GL1 8413  32.816  20.446   8.973
  391POPC   GL2 8414  32.933  20.773   8.954
  391POPC   C1A 8415  32.806  20.507   8.512
  391POPC   D2A 8416  33.086  20.485   8.171
  391POPC   C3A 8417  32.964  20.256   7.781
  391POPC   C4A 8418  33.105  20.315   7.342
  391POPC   C1B 8419  32.724  20.993   8.657
  391POPC   C2B 8420  32.759  20.960   8.208
  391POPC   C3B 8421  32.940  20.821   7.802
  391POPC   C4B 8422  32.954  20.925   7.345
  392POPC   NC3 8423  22.967  34.207   9.721
  392POPC   PO4 8424  23.239  33.646   9.342
  392POPC   GL1 8425  23.006  33.759   9.023
  392POPC   GL2 8426  22.752  33.823   9.208
  392POPC   C1A 8427  22.841  33.559   8.713
  392POPC   D2A 8428  22.712  33.413   8.355
  392POPC   C3A 8429  22.886  33.753   8.116
  392POPC   C4A 8430  23.166  33.719   7.739
  392POPC   C1B 8431  22.569  33.985   8.805
  392POPC   C2B 8432  22.548  34.163   8.388
  392POPC   C3B 8433  22.521  34.317   7.988
  392POPC   C4B 8434  22.647  34.002   7.746
  393POPC   NC3 8435  14.224  37.782   9.547
  393POPC   PO4 8436  14.902  37.568   9.470
  393POPC   GL1 8437  14.542  37.529   9.180
  393POPC   GL2 8438  14.439  37.825   9.103
  393POPC   C1A 8439  14.548  37.484   8.728
  393POPC   D2A 8440  14.362  37.630   8.356
  393POPC   C3A 8441  14.479  37.466   8.021
  393POPC   C4A 8442  14.572  37.711   7.703
  393POPC   C1B 8443  14.177  37.857   8.753
  393POPC   C2B 8444  14.064  38.055   8.341
  393POPC   C3B 8445  14.141  37.868   7.923
  393POPC   C4B 8446  14.177  37.886   7.441
  394POPC   NC3 8447   3.021   1.726   9.530
  394POPC   PO4 8448   2.643   2.229   9.715
  394POPC   GL1 8449   2.574   1.865   9.302
  394POPC   GL2 8450   2.759   1.502   9.163
  394POPC   C1A 8451   2.601   1.821   8.817
  394POPC   D2A 8452   2.818   2.045   8.479
  394POPC   C3A 8453   2.586   2.280   8.152
  394POPC   C4A 8454   2.589   2.096   7.743
  394POPC   C1B 8455   3.089   1.721   8.866
  394POPC   C2B 8456   3.246   1.710   8.432
  394POPC   C3B 8457   3.067   1.845   8.059
  394POPC   C4B 8458   2.918   1.718   7.670
  395POPC   NC3 8459  13.939  23.598   9.502
  395POPC   PO4 8460  13.665  24.153   9.270
  395POPC   GL1 8461  13.695  23.749   9.071
  395POPC   GL2 8462  13.368  23.592   9.029
  395POPC   C1A 8463  13.719  23.576   8.658
  395POPC   D2A 8464  13.438  23.431   8.330
  395POPC   C3A 8465  13.686  23.370   7.962
  395POPC   C4A 8466  13.756  23.747   7.751
  395POPC   C1B 8467  13.363  23.926   8.723
  395POPC   C2B 8468  13.526  23.952   8.300
  395POPC   C3B 8469  13.308  23.935   7.919
  395POPC   C4B 8470  12.938  24.183   7.869
  396POPC   NC3 8471  13.041  18.309   9.579
  396POPC   PO4 8472  12.514  18.644   9.415
  396POPC   GL1 8473  12.754  18.420   9.117
  396POPC   GL2 8474  13.072  18.567   9.147
  396POPC   C1A 8475  12.722  18.377   8.673
  396POPC   D2A 8476  12.871  18.086   8.349
  396POPC   C3A 8477  12.594  18.075   8.068
  396POPC   C4A 8478  12.704  18.020   7.664
  396POPC   C1B 8479  13.217  18.438   8.744
  396POPC   C2B 8480  13.068  18.546   8.315
  396POPC   C3B 8481  12.959  18.393   7.904
  396POPC   C4B 8482  12.807  18.571   7.510
  397POPC   NC3 8483   8.765  35.612   9.328
  397POPC   PO4 8484   8.811  34.971   9.423
  397POPC   GL1 8485   9.028  35.093   9.093
  397POPC   GL2 8486   9.234  35.347   9.204
  397POPC   C1A 8487   8.940  35.290   8.758
  397POPC   D2A 8488   8.852  35.673   8.620
  397POPC   C3A 8489   8.837  35.628   8.185
  397POPC   C4A 8490   8.621  35.636   7.813
  397POPC   C1B 8491   9.340  35.587   8.824
  397POPC   C2B 8492   9.275  35.422   8.396
  397POPC   C3B 8493   9.319  35.570   7.988
  397POPC   C4B 8494   9.067  35.340   7.723
  398POPC   NC3 8495   4.659   7.728   9.682
  398POPC   PO4 8496   5.255   7.391   9.540
  398POPC   GL1 8497   5.185   7.458   9.122
  398POPC   GL2 8498   4.825   7.364   9.188
  398POPC   C1A 8499   5.267   7.227   8.747
  398POPC   D2A 8500   5.513   7.295   8.401
  398POPC   C3A 8501   5.300   7.395   8.015
  398POPC   C4A 8502   5.087   7.027   7.826
  398POPC   C1B 8503   4.779   7.466   8.791
  398POPC   C2B 8504   4.983   7.489   8.425
  398POPC   C3B 8505   4.791   7.334   8.087
  398POPC   C4B 8506   4.666   7.446   7.734
  399POPC   NC3 8507  38.629  37.721   9.413
  399POPC   PO4 8508  38.077  37.399   9.710
  399POPC   GL1 8509  38.263  37.374   9.241
  399POPC   GL2 8510  38.225  37.662   9.093
  399POPC   C1A 8511  38.517  37.477   8.754
  399POPC   D2A 8512  38.841  37.444   8.414
  399POPC   C3A 8513  38.873  37.717   8.072
  399POPC   C4A 8514  38.607  37.860   7.751
  399POPC   C1B 8515  38.248  37.966   8.762
  399POPC   C2B 8516  38.501  37.883   8.416
  399POPC   C3B 8517  38.399  37.551   8.155
  399POPC   C4B 8518  38.374  37.405   7.741
  400POPC   NC3 8519  18.841  44.418   9.576
  400POPC   PO4 8520  19.393  44.698   9.442
  400POPC   GL1 8521  19.075  44.634   9.114
  400POPC   GL2 8522  18.755  44.452   9.085
  400POPC   C1A 8523  19.141  44.782   8.695
  400POPC   D2A 8524  19.378  44.603   8.356
  400POPC   C3A 8525  19.223  44.830   8.018
  400POPC   C4A 8526  18.969  44.953   7.664
  400POPC   C1B 8527  18.917  44.330   8.673
  400POPC   C2B 8528  18.854  44.455   8.261
  400POPC   C3B 8529  18.890  44.488   7.822
  400POPC   C4B 8530  18.945  44.402   7.380
  401POPC   NC3 8531   0.749  15.848   9.454
  401POPC   PO4 8532   0.114  16.017   9.360
  401POPC   GL1 8533   0.477  16.086   9.091
  401POPC   GL2 8534   0.494  15.734   9.044
  401POPC   C1A 8535   0.643  16.010   8.661
  401POPC   D2A 8536   0.396  16.116   8.337
  401POPC   C3A 8537   0.635  16.181   7.979
  401POPC   C4A 8538   0.709  15.814   7.693
  401POPC   C1B 8539   0.161  15.789   8.724
  401POPC   C2B 8540   0.005  15.724   8.299
  401POPC   C3B 8541   0.274  15.755   7.948
  401POPC   C4B 8542   0.260  15.727   7.490
  402POPC   NC3 8543  11.882  13.726   9.593
  402POPC   PO4 8544  12.057  13.214   9.254
  402POPC   GL1 8545  11.998  13.615   9.108
  402POPC   GL2 8546  12.241  13.819   9.235
  402POPC   C1A 8547  11.871  13.669   8.710
  402POPC   D2A 8548  12.099  13.717   8.321
  402POPC   C3A 8549  12.063  13.557   7.929
  402POPC   C4A 8550  11.744  13.763   7.785
  402POPC   C1B 8551  12.362  13.792   8.777
  402POPC   C2B 8552  12.580  13.827   8.356
  402POPC   C3B 8553  12.482  13.845   7.893
  402POPC   C4B 8554  12.593  13.682   7.479
  403POPC   NC3 8555   5.336   6.304   9.540
  403POPC   PO4 8556   5.358   5.631   9.593
  403POPC   GL1 8557   5.208   5.749   9.166
  403POPC   GL2 8558   5.055   6.097   9.163
  403POPC   C1A 8559   5.096   5.854   8.720
  403POPC   D2A 8560   5.040   6.084   8.333
  403POPC   C3A 8561   5.047   5.810   7.989
  403POPC   C4A 8562   5.284   5.714   7.607
  403POPC   C1B 8563   4.927   6.336   8.765
  403POPC   C2B 8564   4.745   6.510   8.385
  403POPC   C3B 8565   4.695   6.233   7.978
  403POPC   C4B 8566   4.887   6.046   7.555
  404POPC   NC3 8567  43.885  27.557   9.781
  404POPC   PO4 8568  43.473  27.789   9.207
  404POPC   GL1 8569  43.814  27.564   9.069
  404POPC   GL2 8570  44.038  27.378   9.304
  404POPC   C1A 8571  43.844  27.582   8.633
  404POPC   D2A 8572  43.561  27.715   8.294
  404POPC   C3A 8573  43.747  27.881   7.911
  404POPC   C4A 8574  43.561  27.777   7.495
  404POPC   C1B 8575  44.271  27.410   8.897
  404POPC   C2B 8576  44.278  27.337   8.439
  404POPC   C3B 8577  44.188  27.290   8.007
  404POPC   C4B 8578  44.035  27.552   7.668
  405POPC   NC3 8579  33.548   4.815   9.612
  405POPC   PO4 8580  33.780   5.396   9.587
  405POPC   GL1 8581  33.879   5.200   9.244
  405POPC   GL2 8582  33.722   4.895   9.146
  405POPC   C1A 8583  33.910   5.342   8.833
  405POPC   D2A 8584  33.634   5.155   8.577
  405POPC   C3A 8585  33.709   5.152   8.126
  405POPC   C4A 8586  33.990   5.441   7.862
  405POPC   C1B 8587  34.011   4.814   8.840
  405POPC   C2B 8588  34.129   5.036   8.466
  405POPC   C3B 8589  34.225   5.034   8.037
  405POPC   C4B 8590  33.967   4.878   7.724
  406POPC   NC3 8591  17.518  44.829   9.887
  406POPC   PO4 8592  17.222  44.837   9.296
  406POPC   GL1 8593  17.379  44.549   8.993
  406POPC   GL2 8594  17.747  44.496   8.977
  406POPC   C1A 8595  17.480  44.567   8.548
  406POPC   D2A 8596  17.587  44.787   8.167
  406POPC   C3A 8597  17.222  44.756   7.899
  406POPC   C4A 8598  16.904   0.006   7.708
  406POPC   C1B 8599  17.963  44.687   8.641
  406POPC   C2B 8600  18.038  44.511   8.255
  406POPC   C3B 8601  17.898  44.452   7.844
  406POPC   C4B 8602  17.659  44.767   7.643
  407POPC   NC3 8603  24.428   4.981   9.542
  407POPC   PO4 8604  25.073   4.743   9.469
  407POPC   GL1 8605  24.742   4.852   9.152
  407POPC   GL2 8606  24.605   5.221   9.119
  407POPC   C1A 8607  24.593   4.907   8.718
  407POPC   D2A 8608  24.410   5.211   8.441
  407POPC   C3A 8609  24.256   5.079   8.065
  407POPC   C4A 8610  24.537   4.830   7.825
  407POPC   C1B 8611  24.214   5.364   8.884
  407POPC   C2B 8612  24.199   5.679   8.512
  407POPC   C3B 8613  24.334   5.600   8.091
  407POPC   C4B 8614  24.117   5.541   7.717
  408POPC   NC3 8615  41.132   3.441   9.331
  408POPC   PO4 8616  40.553   3.865   9.539
  408POPC   GL1 8617  40.706   3.829   9.172
  408POPC   GL2 8618  40.647   3.520   9.126
  408POPC   C1A 8619  40.463   3.821   8.772
  408POPC   D2A 8620  40.471   3.482   8.464
  408POPC   C3A 8621  40.703   3.647   8.145
  408POPC   C4A 8622  40.677   3.570   7.702
  408POPC   C1B 8623  40.892   3.528   8.756
  408POPC   C2B 8624  40.940   3.209   8.493
  408POPC   C3B 8625  40.989   3.239   8.074
  408POPC   C4B 8626  40.891   3.086   7.685
  409POPC   NC3 8627  16.339  31.382   9.243
  409POPC   PO4 8628  15.720  31.189   9.452
  409POPC   GL1 8629  15.855  31.567   9.153
  409POPC   GL2 8630  16.149  31.688   8.898
  409POPC   C1A 8631  15.678  31.498   8.750
  409POPC   D2A 8632  15.730  31.167   8.449
  409POPC   C3A 8633  15.923  31.377   8.102
  409POPC   C4A 8634  15.783  31.605   7.769
  409POPC   C1B 8635  16.192  31.298   8.631
  409POPC   C2B 8636  16.208  30.996   8.303
  409POPC   C3B 8637  16.333  31.121   7.913
  409POPC   C4B 8638  16.273  31.452   7.662
  410POPC   NC3 8639   8.962  20.085   9.506
  410POPC   PO4 8640   9.026  19.428   9.609
  410POPC   GL1 8641   9.114  19.570   9.231
  410POPC   GL2 8642   9.344  19.842   9.268
  410POPC   C1A 8643   9.113  19.634   8.815
  410POPC   D2A 8644   8.887  19.749   8.452
  410POPC   C3A 8645   8.878  19.471   8.134
  410POPC   C4A 8646   8.939  19.611   7.682
  410POPC   C1B 8647   9.402  20.049   8.869
  410POPC   C2B 8648   9.243  20.107   8.441
  410POPC   C3B 8649   9.234  19.867   8.055
  410POPC   C4B 8650   9.536  19.797   7.719
  411POPC   NC3 8651   9.629  35.796   9.578
  411POPC   PO4 8652  10.085  36.297   9.515
  411POPC   GL1 8653   9.961  36.026   9.231
  411POPC   GL2 8654   9.920  36.301   8.989
  411POPC   C1A 8655   9.774  35.836   8.892
  411POPC   D2A 8656   9.845  36.043   8.477
  411POPC   C3A 8657   9.641  35.983   8.066
  411POPC   C4A 8658   9.642  35.787   7.638
  411POPC   C1B 8659  10.191  36.409   8.656
  411POPC   C2B 8660  10.208  36.314   8.229
  411POPC   C3B 8661  10.075  36.400   7.849
  411POPC   C4B 8662   9.726  36.284   7.604
  412POPC   NC3 8663  12.715   0.433   9.469
  412POPC   PO4 8664  13.252   0.794   9.522
  412POPC   GL1 8665  12.979   0.819   9.174
  412POPC   GL2 8666  12.649   0.908   9.241
  412POPC   C1A 8667  13.030   0.811   8.743
  412POPC   D2A 8668  13.126   0.466   8.475
  412POPC   C3A 8669  13.017   0.524   8.069
  412POPC   C4A 8670  12.886   0.179   7.845
  412POPC   C1B 8671  12.516   0.947   8.786
  412POPC   C2B 8672  12.545   0.767   8.330
  412POPC   C3B 8673  12.551   0.593   7.878
  412POPC   C4B 8674  12.547   0.721   7.425
  413POPC   NC3 8675  13.156  21.729   9.574
  413POPC   PO4 8676  12.722  21.166   9.556
  413POPC   GL1 8677  12.931  21.398   9.258
  413POPC   GL2 8678  13.132  21.185   9.120
  413POPC   C1A 8679  12.840  21.451   8.813
  413POPC   D2A 8680  12.697  21.615   8.436
  413POPC   C3A 8681  12.886  21.505   8.051
  413POPC   C4A 8682  12.759  21.413   7.650
  413POPC   C1B 8683  13.273  21.176   8.712
  413POPC   C2B 8684  13.167  21.156   8.297
  413POPC   C3B 8685  13.234  21.168   7.854
  413POPC   C4B 8686  13.018  20.937   7.533
  414POPC   NC3 8687  41.891  25.566   9.371
  414POPC   PO4 8688  42.464  25.165   9.482
  414POPC   GL1 8689  42.333  25.092   9.076
  414POPC   GL2 8690  42.131  25.374   8.949
  414POPC   C1A 8691  42.497  25.007   8.687
  414POPC   D2A 8692  42.313  25.153   8.328
  414POPC   C3A 8693  42.545  25.000   8.011
  414POPC   C4A 8694  42.673  25.135   7.570
  414POPC   C1B 8695  42.482  25.507   8.680
  414POPC   C2B 8696  42.714  25.469   8.272
  414POPC   C3B 8697  42.470  25.471   7.883
  414POPC   C4B 8698  42.201  25.389   7.502
  415POPC   NC3 8699  17.972  43.225   9.407
  415POPC   PO4 8700  18.550  42.986   9.581
  415POPC   GL1 8701  18.394  43.006   9.196
  415POPC   GL2 8702  18.138  42.759   9.228
  415POPC   C1A 8703  18.503  43.216   8.794
  415POPC   D2A 8704  18.342  43.422   8.395
  415POPC   C3A 8705  18.534  43.242   8.027
  415POPC   C4A 8706  18.391  43.257   7.615
  415POPC   C1B 8707  18.361  42.702   8.812
  415POPC   C2B 8708  18.357  42.899   8.408
  415POPC   C3B 8709  18.209  42.730   8.038
  415POPC   C4B 8710  18.349  42.484   7.696
  416POPC   NC3 8711  10.844   5.369   9.805
  416POPC   PO4 8712  10.455   4.819   9.606
  416POPC   GL1 8713  10.627   5.047   9.262
  416POPC   GL2 8714  10.813   5.356   9.212
  416POPC   C1A 8715  10.662   4.906   8.828
  416POPC   D2A 8716  10.448   4.970   8.441
  416POPC   C3A 8717  10.673   5.158   8.132
  416POPC   C4A 8718  10.824   5.005   7.776
  416POPC   C1B 8719  10.495   5.378   8.847
  416POPC   C2B 8720  10.322   5.528   8.445
  416POPC   C3B 8721  10.295   5.471   8.005
  416POPC   C4B 8722  10.353   5.163   7.654
  417POPC   NC3 8723  40.884  32.972   9.850
  417POPC   PO4 8724  40.236  32.996   9.633
  417POPC   GL1 8725  40.622  32.972   9.329
  417POPC   GL2 8726  40.874  33.248   9.255
  417POPC   C1A 8727  40.797  32.922   8.893
  417POPC   D2A 8728  40.549  32.821   8.550
  417POPC   C3A 8729  40.685  32.874   8.142
  417POPC   C4A 8730  40.725  33.015   7.753
  417POPC   C1B 8731  41.001  33.380   8.837
  417POPC   C2B 8732  40.970  33.179   8.449
  417POPC   C3B 8733  40.864  33.393   8.068
  417POPC   C4B 8734  40.938  33.436   7.597
  418POPC   NC3 8735  42.957  31.984   9.360
  418POPC   PO4 8736  43.435  32.275   9.610
  418POPC   GL1 8737  43.247  32.335   9.191
  418POPC   GL2 8738  43.398  31.991   9.127
  418POPC   C1A 8739  42.928  32.301   8.782
  418POPC   D2A 8740  43.006  32.131   8.369
  418POPC   C3A 8741  42.957  32.282   7.957
  418POPC   C4A 8742  42.852  32.017   7.638
  418POPC   C1B 8743  43.412  32.199   8.741
  418POPC   C2B 8744  43.534  32.110   8.380
  418POPC   C3B 8745  43.447  32.141   8.018
  418POPC   C4B 8746  43.367  32.077   7.649
  419POPC   NC3 8747  32.370  43.374   9.548
  419POPC   PO4 8748  32.453  42.590   9.445
  419POPC   GL1 8749  32.357  42.895   9.158
  419POPC   GL2 8750  32.572  43.134   9.144
  419POPC   C1A 8751  32.171  43.059   8.790
  419POPC   D2A 8752  31.991  43.302   8.409
  419POPC   C3A 8753  32.161  43.268   7.981
  419POPC   C4A 8754  32.052  42.984   7.671
  419POPC   C1B 8755  32.698  42.980   8.751
  419POPC   C2B 8756  32.442  42.997   8.359
  419POPC   C3B 8757  32.480  42.836   7.949
  419POPC   C4B 8758  32.544  42.918   7.517
  420POPC   NC3 8759  39.600  19.984   9.371
  420POPC   PO4 8760  40.192  19.687   9.409
  420POPC   GL1 8761  39.947  19.827   9.056
  420POPC   GL2 8762  39.600  19.626   9.015
  420POPC   C1A 8763  39.920  20.052   8.682
  420POPC   D2A 8764  40.257  19.987   8.366
  420POPC   C3A 8765  40.166  19.883   7.928
  420POPC   C4A 8766  39.797  20.000   7.725
  420POPC   C1B 8767  39.874  19.532   8.655
  420POPC   C2B 8768  40.011  19.512   8.248
  420POPC   C3B 8769  39.710  19.536   7.918
  420POPC   C4B 8770  39.622  19.353   7.498
  421POPC   NC3 8771   9.053  41.750   9.648
  421POPC   PO4 8772   9.157  41.160   9.307
  421POPC   GL1 8773   9.039  41.546   9.151
  421POPC   GL2 8774   8.719  41.703   9.239
  421POPC   C1A 8775   9.023  41.456   8.739
  421POPC   D2A 8776   9.188  41.234   8.421
  421POPC   C3A 8777   9.063  41.472   8.065
  421POPC   C4A 8778   8.949  41.696   7.667
  421POPC   C1B 8779   8.563  41.655   8.811
  421POPC   C2B 8780   8.677  41.605   8.380
  421POPC   C3B 8781   8.561  41.558   7.952
  421POPC   C4B 8782   8.470  41.564   7.482
  422POPC   NC3 8783  31.739  40.161   9.588
  422POPC   PO4 8784  32.350  40.100   9.719
  422POPC   GL1 8785  32.402  39.923   9.297
  422POPC   GL2 8786  32.062  39.796   9.333
  422POPC   C1A 8787  32.508  39.939   8.833
  422POPC   D2A 8788  32.489  40.241   8.457
  422POPC   C3A 8789  32.600  40.095   8.040
  422POPC   C4A 8790  32.316  39.884   7.748
  422POPC   C1B 8791  32.022  40.004   8.920
  422POPC   C2B 8792  32.086  39.823   8.511
  422POPC   C3B 8793  31.906  39.878   8.118
  422POPC   C4B 8794  31.795  40.023   7.712
  423POPC   NC3 8795  42.353  35.082   9.622
  423POPC   PO4 8796  42.348  35.740   9.510
  423POPC   GL1 8797  42.221  35.494   9.190
  423POPC   GL2 8798  41.938  35.268   9.307
  423POPC   C1A 8799  42.323  35.531   8.761
  423POPC   D2A 8800  42.292  35.562   8.327
  423POPC   C3A 8801  42.520  35.547   7.980
  423POPC   C4A 8802  42.182  35.562   7.656
  423POPC   C1B 8803  41.947  35.181   8.876
  423POPC   C2B 8804  42.176  35.091   8.504
  423POPC   C3B 8805  42.241  35.120   8.060
  423POPC   C4B 8806  41.910  35.136   7.777
  424POPC   NC3 8807  22.210  43.014   9.403
  424POPC   PO4 8808  22.719  43.529   9.302
  424POPC   GL1 8809  22.354  43.296   9.027
  424POPC   GL2 8810  21.952  43.233   9.035
  424POPC   C1A 8811  22.238  42.937   8.726
  424POPC   D2A 8812  21.915  42.722   8.433
  424POPC   C3A 8813  22.017  42.810   7.999
  424POPC   C4A 8814  22.241  43.163   7.815
  424POPC   C1B 8815  22.055  43.436   8.651
  424POPC   C2B 8816  22.000  43.270   8.270
  424POPC   C3B 8817  21.766  43.349   7.935
  424POPC   C4B 8818  21.852  43.332   7.511
  425POPC   NC3 8819  18.152  41.124   9.492
  425POPC   PO4 8820  18.675  40.785   9.380
  425POPC   GL1 8821  18.379  40.612   9.088
  425POPC   GL2 8822  18.056  40.605   9.271
  425POPC   C1A 8823  18.308  40.717   8.635
  425POPC   D2A 8824  18.258  40.972   8.260
  425POPC   C3A 8825  18.467  40.794   7.915
  425POPC   C4A 8826  18.494  40.857   7.477
  425POPC   C1B 8827  17.919  40.447   8.862
  425POPC   C2B 8828  18.011  40.338   8.417
  425POPC   C3B 8829  17.812  40.440   8.002
  425POPC   C4B 8830  18.016  40.690   7.647
  426POPC   NC3 8831  28.680   7.212   9.541
  426POPC   PO4 8832  29.260   7.426   9.405
  426POPC   GL1 8833  29.199   7.138   9.064
  426POPC   GL2 8834  28.861   7.148   9.053
  426POPC   C1A 8835  29.107   7.159   8.596
  426POPC   D2A 8836  29.260   7.498   8.349
  426POPC   C3A 8837  29.222   7.376   7.983
  426POPC   C4A 8838  29.185   7.656   7.730
  426POPC   C1B 8839  28.901   7.564   8.829
  426POPC   C2B 8840  28.777   7.580   8.390
  426POPC   C3B 8841  28.788   7.181   8.170
  426POPC   C4B 8842  28.735   7.093   7.749
  427POPC   NC3 8843  21.939  41.560   9.573
  427POPC   PO4 8844  21.287  41.521   9.523
  427POPC   GL1 8845  21.451  41.507   9.146
  427POPC   GL2 8846  21.589  41.842   9.217
  427POPC   C1A 8847  21.250  41.431   8.734
  427POPC   D2A 8848  21.442  41.332   8.345
  427POPC   C3A 8849  21.205  41.368   7.967
  427POPC   C4A 8850  21.318  41.171   7.600
  427POPC   C1B 8851  21.557  41.842   8.774
  427POPC   C2B 8852  21.303  41.956   8.425
  427POPC   C3B 8853  21.431  41.843   8.024
  427POPC   C4B 8854  21.704  41.484   7.915
  428POPC   NC3 8855  12.379  18.199   9.430
  428POPC   PO4 8856  11.892  18.553   9.762
  428POPC   GL1 8857  11.991  18.509   9.286
  428POPC   GL2 8858  11.909  18.158   9.220
  428POPC   C1A 8859  12.226  18.407   8.856
  428POPC   D2A 8860  12.290  18.186   8.476
  428POPC   C3A 8861  12.345  18.499   8.162
  428POPC   C4A 8862  12.360  18.394   7.732
  428POPC   C1B 8863  11.730  18.431   8.841
  428POPC   C2B 8864  11.874  18.475   8.393
  428POPC   C3B 8865  11.888  18.554   7.930
  428POPC   C4B 8866  11.815  18.212   7.621
  429POPC   NC3 8867  38.937  24.834   9.429
  429POPC   PO4 8868  38.307  24.516   9.410
  429POPC   GL1 8869  38.307  24.497   8.988
  429POPC   GL2 8870  38.381  24.872   9.021
  429POPC   C1A 8871  38.545  24.196   8.718
  429POPC   D2A 8872  38.683  23.980   8.347
  429POPC   C3A 8873  38.593  24.249   8.013
  429POPC   C4A 8874  38.485  24.422   7.628
  429POPC   C1B 8875  38.727  24.701   8.792
  429POPC   C2B 8876  38.763  24.539   8.396
  429POPC   C3B 8877  38.539  24.746   8.052
  429POPC   C4B 8878  38.610  24.906   7.638
  430POPC   NC3 8879  35.910  25.712   9.518
  430POPC   PO4 8880  36.435  26.137   9.378
  430POPC   GL1 8881  36.111  25.994   9.129
  430POPC   GL2 8882  35.953  26.240   8.899
  430POPC   C1A 8883  36.277  25.810   8.763
  430POPC   D2A 8884  36.434  25.920   8.357
  430POPC   C3A 8885  36.070  25.887   8.078
  430POPC   C4A 8886  35.892  25.718   7.740
  430POPC   C1B 8887  36.366  26.363   8.780
  430POPC   C2B 8888  36.499  26.434   8.384
  430POPC   C3B 8889  36.325  26.311   7.991
  430POPC   C4B 8890  35.962  26.308   7.715
  431POPC   NC3 8891  42.943  23.343   9.299
  431POPC   PO4 8892  43.184  23.881   9.625
  431POPC   GL1 8893  43.023  23.861   9.228
  431POPC   GL2 8894  43.324  23.785   9.092
  431POPC   C1A 8895  42.917  23.812   8.798
  431POPC   D2A 8896  43.053  23.957   8.407
  431POPC   C3A 8897  42.754  23.921   8.163
  431POPC   C4A 8898  42.728  23.649   7.807
  431POPC   C1B 8899  43.340  23.586   8.649
  431POPC   C2B 8900  43.328  23.541   8.218
  431POPC   C3B 8901  43.248  23.600   7.810
  431POPC   C4B 8902  43.425  23.443   7.390
  432POPC   NC3 8903  31.377  36.307   9.487
  432POPC   PO4 8904  31.734  35.806   9.519
  432POPC   GL1 8905  31.495  35.900   9.174
  432POPC   GL2 8906  31.717  35.696   8.999
  432POPC   C1A 8907  31.508  36.201   8.853
  432POPC   D2A 8908  31.290  36.264   8.507
  432POPC   C3A 8909  31.352  36.195   8.087
  432POPC   C4A 8910  31.486  36.242   7.660
  432POPC   C1B 8911  31.484  35.729   8.643
  432POPC   C2B 8912  31.554  35.763   8.239
  432POPC   C3B 8913  31.732  35.797   7.829
  432POPC   C4B 8914  31.869  35.953   7.436
  433POPC   NC3 8915  17.476  24.471  10.006
  433POPC   PO4 8916  17.583  24.160   9.340
  433POPC   GL1 8917  17.730  24.384   9.015
  433POPC   GL2 8918  17.651  24.714   9.147
  433POPC   C1A 8919  17.649  24.312   8.598
  433POPC   D2A 8920  17.743  24.162   8.224
  433POPC   C3A 8921  17.566  24.418   7.938
  433POPC   C4A 8922  17.854  24.625   7.681
  433POPC   C1B 8923  17.351  24.673   8.802
  433POPC   C2B 8924  17.335  24.674   8.354
  433POPC   C3B 8925  17.078  24.629   7.994
  433POPC   C4B 8926  17.187  24.640   7.579
  434POPC   NC3 8927  39.592  42.377   9.409
  434POPC   PO4 8928  38.940  42.568   9.589
  434POPC   GL1 8929  39.181  42.587   9.188
  434POPC   GL2 8930  39.188  42.932   9.033
  434POPC   C1A 8931  39.301  42.295   8.802
  434POPC   D2A 8932  39.441  42.203   8.348
  434POPC   C3A 8933  39.146  42.210   7.976
  434POPC   C4A 8934  39.244  42.213   7.499
  434POPC   C1B 8935  39.418  42.787   8.673
  434POPC   C2B 8936  39.618  42.696   8.281
  434POPC   C3B 8937  39.450  42.609   7.904
  434POPC   C4B 8938  39.557  42.639   7.509
  435POPC   NC3 8939  19.527  29.556   9.543
  435POPC   PO4 8940  19.734  28.863   9.276
  435POPC   GL1 8941  19.905  29.156   9.120
  435POPC   GL2 8942  19.598  29.280   8.964
  435POPC   C1A 8943  20.063  29.120   8.746
  435POPC   D2A 8944  19.825  29.341   8.470
  435POPC   C3A 8945  19.783  29.042   8.169
  435POPC   C4A 8946  20.058  28.836   7.873
  435POPC   C1B 8947  19.532  28.955   8.633
  435POPC   C2B 8948  19.261  29.032   8.271
  435POPC   C3B 8949  19.358  29.003   7.856
  435POPC   C4B 8950  19.534  28.885   7.444
  436POPC   NC3 8951  44.393   5.723   9.397
  436POPC   PO4 8952   0.084   5.473   9.338
  436POPC   GL1 8953  44.811   5.745   9.108
  436POPC   GL2 8954  44.657   6.090   9.166
  436POPC   C1A 8955  44.581   5.815   8.724
  436POPC   D2A 8956  44.259   5.734   8.399
  436POPC   C3A 8957  44.538   5.817   8.098
  436POPC   C4A 8958  44.700   5.541   7.795
  436POPC   C1B 8959  44.703   6.310   8.760
  436POPC   C2B 8960  44.909   6.204   8.351
  436POPC   C3B 8961  44.949   6.050   7.909
  436POPC   C4B 8962  44.582   6.001   7.617
  437POPC   NC3 8963  21.540  10.630   9.526
  437POPC   PO4 8964  21.375   9.968   9.385
  437POPC   GL1 8965  21.527  10.277   9.162
  437POPC   GL2 8966  21.255  10.504   9.113
  437POPC   C1A 8967  21.666  10.385   8.780
  437POPC   D2A 8968  21.565  10.453   8.398
  437POPC   C3A 8969  21.616  10.500   7.994
  437POPC   C4A 8970  21.264  10.347   7.813
  437POPC   C1B 8971  21.352  10.770   8.770
  437POPC   C2B 8972  21.401  10.935   8.378
  437POPC   C3B 8973  21.230  10.833   7.985
  437POPC   C4B 8974  21.452  10.849   7.590
  438POPC   NC3 8975  37.673  28.000   9.496
  438POPC   PO4 8976  37.683  28.665   9.524
  438POPC   GL1 8977  37.811  28.478   9.131
  438POPC   GL2 8978  37.594  28.194   9.033
  438POPC   C1A 8979  37.906  28.418   8.669
  438POPC   D2A 8980  37.596  28.303   8.332
  438POPC   C3A 8981  37.490  28.561   7.967
  438POPC   C4A 8982  37.461  28.641   7.493
  438POPC   C1B 8983  37.786  27.931   8.706
  438POPC   C2B 8984  37.899  27.872   8.296
  438POPC   C3B 8985  37.966  28.012   7.875
  438POPC   C4B 8986  37.716  28.215   7.550
  439POPC   NC3 8987  35.211   3.135   9.464
  439POPC   PO4 8988  35.692   3.570   9.558
  439POPC   GL1 8989  35.394   3.542   9.200
  439POPC   GL2 8990  35.119   3.781   9.148
  439POPC   C1A 8991  35.187   3.366   8.832
  439POPC   D2A 8992  35.088   3.517   8.436
  439POPC   C3A 8993  35.318   3.349   8.097
  439POPC   C4A 8994  35.577   3.415   7.735
  439POPC   C1B 8995  35.347   3.855   8.778
  439POPC   C2B 8996  35.194   4.019   8.419
  439POPC   C3B 8997  35.342   3.858   8.049
  439POPC   C4B 8998  35.133   3.660   7.728
  440POPC   NC3 8999  10.804   7.906   9.461
  440POPC   PO4 9000  11.355   8.275   9.611
  440POPC   GL1 9001  11.341   8.290   9.161
  440POPC   GL2 9002  10.999   8.163   9.036
  440POPC   C1A 9003  11.591   8.319   8.797
  440POPC   D2A 9004  11.356   8.114   8.484
  440POPC   C3A 9005  11.519   8.103   8.103
  440POPC   C4A 9006  11.352   8.325   7.782
  440POPC   C1B 9007  11.115   7.789   8.777
  440POPC   C2B 9008  11.153   7.603   8.387
  440POPC   C3B 9009  11.069   7.801   8.002
  440POPC   C4B 9010  10.893   7.587   7.671
  441POPC   NC3 9011  20.665  36.531   9.487
  441POPC   PO4 9012  20.237  37.177   9.526
  441POPC   GL1 9013  20.443  36.938   9.208
  441POPC   GL2 9014  20.219  36.683   9.212
  441POPC   C1A 9015  20.714  36.791   8.868
  441POPC   D2A 9016  20.831  36.700   8.448
  441POPC   C3A 9017  20.741  36.943   8.088
  441POPC   C4A 9018  20.686  36.788   7.680
  441POPC   C1B 9019  20.308  36.508   8.798
  441POPC   C2B 9020  20.330  36.723   8.385
  441POPC   C3B 9021  20.347  36.529   7.953
  441POPC   C4B 9022  20.374  36.433   7.477
  442POPC   NC3 9023  16.794   3.412   9.492
  442POPC   PO4 9024  17.076   4.014   9.441
  442POPC   GL1 9025  16.773   3.887   9.139
  442POPC   GL2 9026  16.916   3.589   9.025
  442POPC   C1A 9027  16.500   3.771   8.810
  442POPC   D2A 9028  16.650   3.585   8.455
  442POPC   C3A 9029  16.632   3.745   8.039
  442POPC   C4A 9030  16.664   3.560   7.656
  442POPC   C1B 9031  16.669   3.225   8.846
  442POPC   C2B 9032  16.543   3.055   8.441
  442POPC   C3B 9033  16.668   3.217   8.062
  442POPC   C4B 9034  16.587   3.064   7.652
  443POPC   NC3 9035  21.389  31.268   9.501
  443POPC   PO4 9036  21.558  31.801   9.880
  443POPC   GL1 9037  21.192  31.749   9.414
  443POPC   GL2 9038  21.351  31.553   9.092
  443POPC   C1A 9039  20.988  31.821   8.926
  443POPC   D2A 9040  21.212  31.562   8.580
  443POPC   C3A 9041  21.289  31.602   8.114
  443POPC   C4A 9042  21.569  31.456   7.762
  443POPC   C1B 9043  21.670  31.416   8.773
  443POPC   C2B 9044  21.531  31.189   8.392
  443POPC   C3B 9045  21.281  31.094   8.029
  443POPC   C4B 9046  21.550  30.940   7.721
  444POPC   NC3 9047   9.386  30.431   9.530
  444POPC   PO4 9048  10.083  30.365   9.574
  444POPC   GL1 9049  10.000  30.657   9.237
  444POPC   GL2 9050   9.647  30.614   9.118
  444POPC   C1A 9051  10.030  30.830   8.806
  444POPC   D2A 9052   9.759  31.025   8.504
  444POPC   C3A 9053   9.796  30.870   8.086
  444POPC   C4A 9054   9.640  31.032   7.732
  444POPC   C1B 9055   9.363  30.473   8.771
  444POPC   C2B 9056   9.234  30.490   8.339
  444POPC   C3B 9057   9.378  30.589   7.919
  444POPC   C4B 9058   9.753  30.475   7.710
  445POPC   NC3 9059   8.099  30.396   9.499
  445POPC   PO4 9060   8.173  30.985   9.745
  445POPC   GL1 9061   8.021  30.954   9.299
  445POPC   GL2 9062   8.186  30.698   9.104
  445POPC   C1A 9063   7.941  31.034   8.821
  445POPC   D2A 9064   7.907  30.855   8.382
  445POPC   C3A 9065   8.060  30.799   7.988
  445POPC   C4A 9066   8.044  30.592   7.599
  445POPC   C1B 9067   8.340  30.711   8.665
  445POPC   C2B 9068   8.366  30.512   8.262
  445POPC   C3B 9069   8.511  30.587   7.811
  445POPC   C4B 9070   8.480  30.532   7.355
  446POPC   NC3 9071  30.726  21.215   9.552
  446POPC   PO4 9072  31.130  21.767   9.475
  446POPC   GL1 9073  31.058  21.437   9.182
  446POPC   GL2 9074  31.091  21.069   9.207
  446POPC   C1A 9075  30.847  21.508   8.790
  446POPC   D2A 9076  30.595  21.619   8.431
  446POPC   C3A 9077  30.839  21.726   8.097
  446POPC   C4A 9078  30.727  21.600   7.695
  446POPC   C1B 9079  30.724  21.039   8.929
  446POPC   C2B 9080  30.570  21.109   8.531
  446POPC   C3B 9081  30.621  21.195   8.079
  446POPC   C4B 9082  30.642  21.030   7.670
  447POPC   NC3 9083  11.083  26.945   9.452
  447POPC   PO4 9084  11.450  27.174   9.987
  447POPC   GL1 9085  11.550  26.808   9.544
  447POPC   GL2 9086  11.451  26.963   9.132
  447POPC   C1A 9087  11.596  26.512   9.095
  447POPC   D2A 9088  11.451  26.637   8.638
  447POPC   C3A 9089  11.423  26.614   8.156
  447POPC   C4A 9090  11.468  26.616   7.719
  447POPC   C1B 9091  11.246  27.135   8.763
  447POPC   C2B 9092  11.120  26.994   8.348
  447POPC   C3B 9093  11.293  27.081   7.914
  447POPC   C4B 9094  11.175  27.087   7.468
  448POPC   NC3 9095  42.689  34.601   9.323
  448POPC   PO4 9096  42.005  34.773   9.501
  448POPC   GL1 9097  42.230  34.692   9.134
  448POPC   GL2 9098  42.370  34.995   9.087
  448POPC   C1A 9099  42.277  34.328   8.812
  448POPC   D2A 9100  42.234  34.022   8.462
  448POPC   C3A 9101  42.465  34.123   8.096
  448POPC   C4A 9102  42.289  34.219   7.702
  448POPC   C1B 9103  42.531  34.791   8.712
  448POPC   C2B 9104  42.392  34.586   8.351
  448POPC   C3B 9105  42.137  34.624   7.989
  448POPC   C4B 9106  42.240  34.766   7.606
  449POPC   NC3 9107  32.005   3.800   9.454
  449POPC   PO4 9108  32.369   3.205   9.591
  449POPC   GL1 9109  32.366   3.468   9.223
  449POPC   GL2 9110  32.057   3.552   9.018
  449POPC   C1A 9111  32.489   3.468   8.778
  449POPC   D2A 9112  32.351   3.733   8.434
  449POPC   C3A 9113  32.078   3.627   8.099
  449POPC   C4A 9114  32.283   3.513   7.757
  449POPC   C1B 9115  31.904   3.506   8.607
  449POPC   C2B 9116  31.804   3.206   8.269
  449POPC   C3B 9117  31.892   3.196   7.826
  449POPC   C4B 9118  31.819   3.557   7.565
  450POPC   NC3 9119  32.203  38.971   9.452
  450POPC   PO4 9120  32.355  38.280   9.443
  450POPC   GL1 9121  32.175  38.461   9.157
  450POPC   GL2 9122  32.437  38.650   9.058
  450POPC   C1A 9123  32.115  38.317   8.776
  450POPC   D2A 9124  32.296  38.467   8.424
  450POPC   C3A 9125  32.253  38.260   8.099
  450POPC   C4A 9126  32.281  38.195   7.706
  450POPC   C1B 9127  32.121  38.843   8.801
  450POPC   C2B 9128  31.968  38.871   8.417
  450POPC   C3B 9129  32.060  38.733   8.034
  450POPC   C4B 9130  31.937  38.956   7.723
  451POPC   NC3 9131   0.308  26.821   9.696
  451POPC   PO4 9132   0.876  26.881   9.377
  451POPC   GL1 9133   0.507  26.717   9.176
  451POPC   GL2 9134   0.220  26.941   9.169
  451POPC   C1A 9135   0.566  26.562   8.747
  451POPC   D2A 9136   0.793  26.689   8.366
  451POPC   C3A 9137   0.639  26.499   8.000
  451POPC   C4A 9138   0.207  26.517   7.816
  451POPC   C1B 9139   0.314  27.017   8.748
  451POPC   C2B 9140   0.304  26.846   8.340
  451POPC   C3B 9141   0.427  26.973   7.940
  451POPC   C4B 9142   0.190  27.287   7.763
  452POPC   NC3 9143   1.020  25.417   9.442
  452POPC   PO4 9144   1.684  25.321   9.542
  452POPC   GL1 9145   1.690  25.335   9.109
  452POPC   GL2 9146   1.485  25.053   9.114
  452POPC   C1A 9147   1.513  25.281   8.677
  452POPC   D2A 9148   1.179  25.259   8.386
  452POPC   C3A 9149   1.359  25.255   7.994
  452POPC   C4A 9150   1.173  25.303   7.576
  452POPC   C1B 9151   1.310  24.816   8.776
  452POPC   C2B 9152   1.366  24.793   8.352
  452POPC   C3B 9153   1.085  24.842   8.029
  452POPC   C4B 9154   1.327  24.806   7.703
  453POPC   NC3 9155   1.900  44.105   9.595
  453POPC   PO4 9156   2.340  43.641   9.557
  453POPC   GL1 9157   2.092  43.809   9.211
  453POPC   GL2 9158   1.739  43.722   9.266
  453POPC   C1A 9159   2.141  43.986   8.801
  453POPC   D2A 9160   2.155  43.773   8.403
  453POPC   C3A 9161   2.267  43.958   8.009
  453POPC   C4A 9162   2.255  44.185   7.622
  453POPC   C1B 9163   1.580  43.730   8.833
  453POPC   C2B 9164   1.643  43.854   8.427
  453POPC   C3B 9165   1.779  43.737   8.043
  453POPC   C4B 9166   1.860  43.857   7.656
  454POPC   NC3 9167  34.750  39.571   9.666
  454POPC   PO4 9168  34.574  38.989   9.443
  454POPC   GL1 9169  34.534  39.148   9.050
  454POPC   GL2 9170  34.560  39.472   9.183
  454POPC   C1A 9171  34.797  39.113   8.692
  454POPC   D2A 9172  34.930  38.985   8.301
  454POPC   C3A 9173  34.630  39.195   8.009
  454POPC   C4A 9174  34.643  39.199   7.546
  454POPC   C1B 9175  34.644  39.614   8.764
  454POPC   C2B 9176  34.441  39.600   8.371
  454POPC   C3B 9177  34.168  39.473   8.062
  454POPC   C4B 9178  34.348  39.580   7.696
  455POPC   NC3 9179   6.751  33.203   9.758
  455POPC   PO4 9180   6.472  33.805   9.609
  455POPC   GL1 9181   6.655  33.815   9.211
  455POPC   GL2 9182   6.895  33.575   9.234
  455POPC   C1A 9183   6.456  33.750   8.819
  455POPC   D2A 9184   6.307  33.925   8.442
  455POPC   C3A 9185   6.368  33.735   8.035
  455POPC   C4A 9186   6.635  33.706   7.709
  455POPC   C1B 9187   6.857  33.428   8.815
  455POPC   C2B 9188   6.659  33.495   8.405
  455POPC   C3B 9189   6.797  33.344   8.004
  455POPC   C4B 9190   7.071  33.491   7.658
  456POPC   NC3 9191  20.358  35.639   9.309
  456POPC   PO4 9192  20.977  35.914   9.580
  456POPC   GL1 9193  20.881  36.126   9.179
  456POPC   GL2 9194  20.534  36.078   9.107
  456POPC   C1A 9195  20.774  36.270   8.730
  456POPC   D2A 9196  20.511  36.233   8.372
  456POPC   C3A 9197  20.804  36.229   8.065
  456POPC   C4A 9198  20.861  36.319   7.655
  456POPC   C1B 9199  20.273  35.995   8.758
  456POPC   C2B 9200  20.138  35.736   8.458
  456POPC   C3B 9201  20.383  35.775   8.124
  456POPC   C4B 9202  20.421  36.038   7.802
  457POPC   NC3 9203  35.915  13.195   9.622
  457POPC   PO4 9204  35.751  13.828   9.548
  457POPC   GL1 9205  36.004  13.737   9.155
  457POPC   GL2 9206  35.903  13.406   9.160
  457POPC   C1A 9207  36.116  13.537   8.715
  457POPC   D2A 9208  36.258  13.432   8.304
  457POPC   C3A 9209  36.108  13.566   7.897
  457POPC   C4A 9210  36.226  13.427   7.491
  457POPC   C1B 9211  35.673  13.297   8.810
  457POPC   C2B 9212  35.651  13.385   8.376
  457POPC   C3B 9213  35.682  13.244   7.944
  457POPC   C4B 9214  35.700  13.397   7.532
  458POPC   NC3 9215  37.435  24.050   9.504
  458POPC   PO4 9216  36.802  23.776   9.558
  458POPC   GL1 9217  37.041  23.868   9.204
  458POPC   GL2 9218  37.308  23.607   9.223
  458POPC   C1A 9219  36.845  23.913   8.778
  458POPC   D2A 9220  36.653  23.814   8.387
  458POPC   C3A 9221  36.912  23.904   8.025
  458POPC   C4A 9222  36.804  24.019   7.616
  458POPC   C1B 9223  36.955  23.431   8.966
  458POPC   C2B 9224  36.962  23.440   8.543
  458POPC   C3B 9225  36.957  23.389   8.117
  458POPC   C4B 9226  36.824  23.509   7.704
  459POPC   NC3 9227  29.098  17.897   9.339
  459POPC   PO4 9228  29.252  17.277   9.493
  459POPC   GL1 9229  29.356  17.466   9.071
  459POPC   GL2 9230  29.516  17.795   9.010
  459POPC   C1A 9231  29.371  17.479   8.599
  459POPC   D2A 9232  29.584  17.435   8.190
  459POPC   C3A 9233  29.370  17.492   7.778
  459POPC   C4A 9234  28.926  17.473   7.647
  459POPC   C1B 9235  29.169  17.938   8.729
  459POPC   C2B 9236  28.960  17.945   8.387
  459POPC   C3B 9237  29.048  17.796   8.012
  459POPC   C4B 9238  29.136  17.925   7.575
  460POPC   NC3 9239  30.701  11.362   9.506
  460POPC   PO4 9240  30.118  11.291   9.702
  460POPC   GL1 9241  30.323  11.299   9.200
  460POPC   GL2 9242  30.651  11.073   9.103
  460POPC   C1A 9243  30.539  11.445   8.802
  460POPC   D2A 9244  30.623  11.223   8.411
  460POPC   C3A 9245  30.777  11.428   8.049
  460POPC   C4A 9246  30.776  11.690   7.690
  460POPC   C1B 9247  30.961  11.065   8.787
  460POPC   C2B 9248  31.125  11.187   8.363
  460POPC   C3B 9249  31.146  11.107   7.921
  460POPC   C4B 9250  30.913  11.225   7.539
  461POPC   NC3 9251  29.964  38.462   9.614
  461POPC   PO4 9252  29.651  37.977   9.328
  461POPC   GL1 9253  29.914  38.264   9.119
  461POPC   GL2 9254  29.896  38.599   9.123
  461POPC   C1A 9255  30.138  38.381   8.744
  461POPC   D2A 9256  30.329  38.175   8.425
  461POPC   C3A 9257  30.177  38.340   8.054
  461POPC   C4A 9258  30.229  38.157   7.653
  461POPC   C1B 9259  29.644  38.573   8.746
  461POPC   C2B 9260  29.809  38.564   8.371
  461POPC   C3B 9261  29.672  38.483   7.998
  461POPC   C4B 9262  29.851  38.483   7.627
  462POPC   NC3 9263   4.590  42.605   9.543
  462POPC   PO4 9264   4.103  42.357   9.248
  462POPC   GL1 9265   4.248  42.461   8.942
  462POPC   GL2 9266   4.375  42.758   9.091
  462POPC   C1A 9267   4.191  42.179   8.629
  462POPC   D2A 9268   4.111  42.345   8.283
  462POPC   C3A 9269   4.193  42.053   7.941
  462POPC   C4A 9270   4.240  42.194   7.513
  462POPC   C1B 9271   4.529  42.805   8.696
  462POPC   C2B 9272   4.525  42.630   8.313
  462POPC   C3B 9273   4.421  42.505   7.901
  462POPC   C4B 9274   4.658  42.490   7.518
  463POPC   NC3 9275  22.932  31.713   9.660
  463POPC   PO4 9276  22.309  31.806   9.424
  463POPC   GL1 9277  22.656  31.695   9.170
  463POPC   GL2 9278  22.800  31.363   9.194
  463POPC   C1A 9279  22.982  31.741   8.846
  463POPC   D2A 9280  23.204  31.632   8.449
  463POPC   C3A 9281  23.009  31.613   8.049
  463POPC   C4A 9282  23.020  31.573   7.589
  463POPC   C1B 9283  22.915  31.242   8.743
  463POPC   C2B 9284  22.830  31.185   8.291
  463POPC   C3B 9285  22.969  31.144   7.852
  463POPC   C4B 9286  23.127  31.083   7.429
  464POPC   NC3 9287  22.405  41.208   9.330
  464POPC   PO4 9288  22.308  41.868   9.517
  464POPC   GL1 9289  22.087  41.837   9.152
  464POPC   GL2 9290  21.995  41.494   9.065
  464POPC   C1A 9291  22.072  41.887   8.726
  464POPC   D2A 9292  21.861  41.673   8.389
  464POPC   C3A 9293  22.118  41.746   8.063
  464POPC   C4A 9294  22.197  41.701   7.661
  464POPC   C1B 9295  22.197  41.374   8.665
  464POPC   C2B 9296  22.105  41.230   8.235
  464POPC   C3B 9297  22.124  41.201   7.787
  464POPC   C4B 9298  22.324  41.290   7.389
  465POPC   NC3 9299  15.734   8.756   9.315
  465POPC   PO4 9300  16.360   8.966   9.478
  465POPC   GL1 9301  16.115   9.012   9.088
  465POPC   GL2 9302  15.901   9.296   9.031
  465POPC   C1A 9303  16.060   8.957   8.627
  465POPC   D2A 9304  16.094   9.215   8.244
  465POPC   C3A 9305  16.222   9.004   7.884
  465POPC   C4A 9306  15.979   8.743   7.596
  465POPC   C1B 9307  15.580   9.191   8.749
  465POPC   C2B 9308  15.621   9.054   8.343
  465POPC   C3B 9309  15.720   9.103   7.912
  465POPC   C4B 9310  15.483   8.858   7.674
  466POPC   NC3 9311  18.027  15.192   9.606
  466POPC   PO4 9312  18.741  15.083   9.590
  466POPC   GL1 9313  18.505  15.261   9.205
  466POPC   GL2 9314  18.163  15.406   9.173
  466POPC   C1A 9315  18.502  15.461   8.782
  466POPC   D2A 9316  18.558  15.300   8.380
  466POPC   C3A 9317  18.478  15.302   7.943
  466POPC   C4A 9318  18.409  14.911   7.655
  466POPC   C1B 9319  18.084  15.127   8.862
  466POPC   C2B 9320  17.976  15.102   8.434
  466POPC   C3B 9321  18.069  15.014   8.018
  466POPC   C4B 9322  18.079  15.283   7.641
  467POPC   NC3 9323  38.917  36.763   9.380
  467POPC   PO4 9324  39.602  37.087   9.395
  467POPC   GL1 9325  39.538  36.807   9.072
  467POPC   GL2 9326  39.221  36.616   9.005
  467POPC   C1A 9327  39.449  36.965   8.666
  467POPC   D2A 9328  39.639  37.169   8.312
  467POPC   C3A 9329  39.604  36.993   7.902
  467POPC   C4A 9330  39.480  36.781   7.499
  467POPC   C1B 9331  39.067  36.598   8.605
  467POPC   C2B 9332  39.263  36.737   8.250
  467POPC   C3B 9333  39.130  36.829   7.880
  467POPC   C4B 9334  38.993  36.611   7.599
  468POPC   NC3 9335  34.334  25.654   9.388
  468POPC   PO4 9336  34.755  26.150   9.512
  468POPC   GL1 9337  34.713  25.908   9.138
  468POPC   GL2 9338  34.405  26.057   9.050
  468POPC   C1A 9339  34.719  25.941   8.675
  468POPC   D2A 9340  34.549  25.887   8.259
  468POPC   C3A 9341  34.758  26.217   8.042
  468POPC   C4A 9342  34.963  26.296   7.621
  468POPC   C1B 9343  34.245  25.745   8.692
  468POPC   C2B 9344  34.145  25.545   8.258
  468POPC   C3B 9345  34.254  25.629   7.789
  468POPC   C4B 9346  34.599  25.902   7.681
  469POPC   NC3 9347  39.855  16.231   9.576
  469POPC   PO4 9348  40.411  16.485   9.321
  469POPC   GL1 9349  40.255  16.050   9.218
  469POPC   GL2 9350  39.869  15.888   9.174
  469POPC   C1A 9351  40.169  15.948   8.794
  469POPC   D2A 9352  39.831  16.027   8.520
  469POPC   C3A 9353  40.052  15.897   8.124
  469POPC   C4A 9354  40.212  15.750   7.742
  469POPC   C1B 9355  39.806  15.580   8.791
  469POPC   C2B 9356  39.692  15.590   8.322
  469POPC   C3B 9357  39.697  15.638   7.866
  469POPC   C4B 9358  39.877  15.469   7.473
  470POPC   NC3 9359  39.925  43.492   9.466
  470POPC   PO4 9360  39.613  42.851   9.315
  470POPC   GL1 9361  39.824  43.103   9.042
  470POPC   GL2 9362  40.133  43.251   9.080
  470POPC   C1A 9363  39.881  43.016   8.629
  470POPC   D2A 9364  40.146  42.977   8.310
  470POPC   C3A 9365  39.958  42.914   7.931
  470POPC   C4A 9366  40.160  43.115   7.590
  470POPC   C1B 9367  40.083  43.476   8.716
  470POPC   C2B 9368  39.927  43.506   8.334
  470POPC   C3B 9369  40.099  43.410   7.980
  470POPC   C4B 9370  40.472  43.505   7.734
  471POPC   NC3 9371  33.013   1.614   9.274
  471POPC   PO4 9372  33.251   1.116   9.715
  471POPC   GL1 9373  33.204   1.108   9.220
  471POPC   GL2 9374  32.902   0.961   9.026
  471POPC   C1A 9375  33.312   1.215   8.749
  471POPC   D2A 9376  33.071   1.188   8.305
  471POPC   C3A 9377  33.312   1.283   7.909
  471POPC   C4A 9378  33.308   1.347   7.422
  471POPC   C1B 9379  32.814   1.315   8.731
  471POPC   C2B 9380  32.760   1.662   8.427
  471POPC   C3B 9381  32.878   1.619   8.010
  471POPC   C4B 9382  32.808   1.201   7.835
  472POPC   NC3 9383   7.683  10.260   9.494
  472POPC   PO4 9384   7.650   9.659   9.587
  472POPC   GL1 9385   7.427   9.844   9.192
  472POPC   GL2 9386   7.063   9.940   9.195
  472POPC   C1A 9387   7.301   9.700   8.750
  472POPC   D2A 9388   7.280   9.516   8.306
  472POPC   C3A 9389   7.524   9.736   7.991
  472POPC   C4A 9390   7.888  10.020   8.054
  472POPC   C1B 9391   6.821   9.941   8.807
  472POPC   C2B 9392   6.884   9.965   8.369
  472POPC   C3B 9393   7.033   9.897   7.969
  472POPC   C4B 9394   7.259   9.953   7.612
  473POPC   NC3 9395  28.797   7.909   9.437
  473POPC   PO4 9396  29.221   8.411   9.573
  473POPC   GL1 9397  29.210   8.334   9.150
  473POPC   GL2 9398  28.903   8.181   9.015
  473POPC   C1A 9399  29.328   8.283   8.722
  473POPC   D2A 9400  29.078   7.982   8.531
  473POPC   C3A 9401  29.180   7.994   8.136
  473POPC   C4A 9402  29.142   8.306   7.853
  473POPC   C1B 9403  28.893   8.543   8.745
  473POPC   C2B 9404  28.981   8.494   8.314
  473POPC   C3B 9405  28.761   8.657   7.939
  473POPC   C4B 9406  28.651   8.339   7.632
  474POPC   NC3 9407  33.799   0.095   9.501
  474POPC   PO4 9408  34.048   0.691   9.511
  474POPC   GL1 9409  33.973   0.436   9.184
  474POPC   GL2 9410  34.239   0.185   9.296
  474POPC   C1A 9411  33.729   0.309   8.829
  474POPC   D2A 9412  33.476   0.319   8.462
  474POPC   C3A 9413  33.708   0.325   8.085
  474POPC   C4A 9414  33.586   0.475   7.675
  474POPC   C1B 9415  34.213   0.090   8.863
  474POPC   C2B 9416  34.071   0.216   8.457
  474POPC   C3B 9417  34.180   0.124   8.053
  474POPC   C4B 9418  34.107   0.411   7.746
  475POPC   NC3 9419  19.674  18.716   9.480
  475POPC   PO4 9420  20.048  18.239   9.672
  475POPC   GL1 9421  20.029  18.340   9.220
  475POPC   GL2 9422  19.885  18.046   9.090
  475POPC   C1A 9423  19.857  18.486   8.797
  475POPC   D2A 9424  19.830  18.334   8.358
  475POPC   C3A 9425  19.847  18.492   7.923
  475POPC   C4A 9426  19.789  18.298   7.512
  475POPC   C1B 9427  19.728  17.811   8.736
  475POPC   C2B 9428  19.554  17.912   8.329
  475POPC   C3B 9429  19.754  17.995   7.949
  475POPC   C4B 9430  19.587  17.842   7.590
  476POPC   NC3 9431  42.707  13.698   9.232
  476POPC   PO4 9432  43.383  13.414   9.353
  476POPC   GL1 9433  43.180  13.626   9.079
  476POPC   GL2 9434  43.003  13.344   8.993
  476POPC   C1A 9435  43.000  13.756   8.672
  476POPC   D2A 9436  43.175  13.583   8.344
  476POPC   C3A 9437  43.005  13.524   7.949
  476POPC   C4A 9438  42.814  13.849   7.745
  476POPC   C1B 9439  43.332  13.240   8.725
  476POPC   C2B 9440  43.462  13.175   8.325
  476POPC   C3B 9441  43.277  13.093   7.961
  476POPC   C4B 9442  43.328  13.247   7.593
  477POPC   NC3 9443  16.677  10.889   9.324
  477POPC   PO4 9444  17.001  10.425   9.595
  477POPC   GL1 9445  16.827  10.445   9.160
  477POPC   GL2 9446  16.464  10.452   9.068
  477POPC   C1A 9447  16.817  10.442   8.710
  477POPC   D2A 9448  16.987  10.479   8.343
  477POPC   C3A 9449  16.786  10.382   8.015
  477POPC   C4A 9450  16.849  10.597   7.669
  477POPC   C1B 9451  16.392  10.730   8.740
  477POPC   C2B 9452  16.472  10.653   8.327
  477POPC   C3B 9453  16.579  10.896   7.988
  477POPC   C4B 9454  16.410  10.897   7.553
  478POPC   NC3 9455  22.719   7.877   9.457
  478POPC   PO4 9456  23.083   8.372   9.518
  478POPC   GL1 9457  22.949   8.310   9.137
  478POPC   GL2 9458  22.959   7.977   9.005
  478POPC   C1A 9459  22.879   8.482   8.767
  478POPC   D2A 9460  22.705   8.370   8.426
  478POPC   C3A 9461  22.891   8.306   8.060
  478POPC   C4A 9462  22.714   8.247   7.660
  478POPC   C1B 9463  23.315   7.849   8.734
  478POPC   C2B 9464  23.474   7.809   8.317
  478POPC   C3B 9465  23.275   7.980   7.954
  478POPC   C4B 9466  23.114   7.950   7.520
  479POPC   NC3 9467  30.479  26.889   9.479
  479POPC   PO4 9468  30.972  26.411   9.413
  479POPC   GL1 9469  30.855  26.736   9.133
  479POPC   GL2 9470  30.880  27.073   9.091
  479POPC   C1A 9471  30.800  26.662   8.716
  479POPC   D2A 9472  30.970  26.313   8.425
  479POPC   C3A 9473  30.817  26.403   8.034
  479POPC   C4A 9474  30.491  26.647   7.879
  479POPC   C1B 9475  30.699  27.177   8.664
  479POPC   C2B 9476  30.588  27.022   8.239
  479POPC   C3B 9477  30.845  27.004   7.827
  479POPC   C4B 9478  30.996  26.959   7.390
  480POPC   NC3 9479  28.067   6.980   9.586
  480POPC   PO4 9480  28.429   7.616   9.563
  480POPC   GL1 9481  28.395   7.346   9.140
  480POPC   GL2 9482  28.384   6.951   9.169
  480POPC   C1A 9483  28.517   7.228   8.668
  480POPC   D2A 9484  28.317   7.379   8.263
  480POPC   C3A 9485  28.524   7.539   7.918
  480POPC   C4A 9486  28.752   7.911   7.880
  480POPC   C1B 9487  28.064   7.096   8.843
  480POPC   C2B 9488  28.064   6.972   8.399
  480POPC   C3B 9489  28.274   6.970   7.977
  480POPC   C4B 9490  28.281   7.113   7.547
  481POPC   NC3 9491  17.061   0.454   9.459
  481POPC   PO4 9492  16.597   0.892   9.660
  481POPC   GL1 9493  16.680   0.707   9.208
  481POPC   GL2 9494  16.725   0.294   9.118
  481POPC   C1A 9495  16.943   0.632   8.822
  481POPC   D2A 9496  16.968   0.320   8.495
  481POPC   C3A 9497  16.861   0.551   8.121
  481POPC   C4A 9498  17.048   0.556   7.718
  481POPC   C1B 9499  16.468   0.167   8.795
  481POPC   C2B 9500  16.464   0.464   8.484
  481POPC   C3B 9501  16.270   0.385   8.118
  481POPC   C4B 9502  16.534   0.353   7.790
  482POPC   NC3 9503  35.909  31.914   9.411
  482POPC   PO4 9504  36.093  32.462   9.477
  482POPC   GL1 9505  36.214  32.191   9.126
  482POPC   GL2 9506  35.878  32.240   8.999
  482POPC   C1A 9507  36.342  32.293   8.723
  482POPC   D2A 9508  36.259  32.541   8.382
  482POPC   C3A 9509  36.420  32.400   8.013
  482POPC   C4A 9510  36.256  32.370   7.646
  482POPC   C1B 9511  36.021  31.913   8.713
  482POPC   C2B 9512  36.225  31.993   8.282
  482POPC   C3B 9513  36.059  31.845   7.874
  482POPC   C4B 9514  36.023  31.763   7.406
  483POPC   NC3 9515  33.420  21.915   9.369
  483POPC   PO4 9516  33.584  22.461   9.572
  483POPC   GL1 9517  33.665  22.500   9.144
  483POPC   GL2 9518  34.039  22.384   9.145
  483POPC   C1A 9519  33.712  22.256   8.765
  483POPC   D2A 9520  33.918  22.281   8.357
  483POPC   C3A 9521  33.667  22.006   8.127
  483POPC   C4A 9522  33.616  21.976   7.691
  483POPC   C1B 9523  34.190  22.123   8.785
  483POPC   C2B 9524  34.239  21.829   8.406
  483POPC   C3B 9525  34.102  21.803   7.974
  483POPC   C4B 9526  34.036  22.242   7.827
  484POPC   NC3 9527  24.960  15.737   9.399
  484POPC   PO4 9528  24.478  16.221   9.538
  484POPC   GL1 9529  24.349  16.049   9.125
  484POPC   GL2 9530  24.516  15.759   9.116
  484POPC   C1A 9531  24.244  15.934   8.693
  484POPC   D2A 9532  24.439  16.126   8.335
  484POPC   C3A 9533  24.400  15.993   7.915
  484POPC   C4A 9534  24.740  16.197   7.684
  484POPC   C1B 9535  24.753  15.985   8.788
  484POPC   C2B 9536  25.019  15.932   8.420
  484POPC   C3B 9537  24.868  15.817   8.029
  484POPC   C4B 9538  24.703  15.686   7.639
  485POPC   NC3 9539  29.803   1.975   9.660
  485POPC   PO4 9540  30.005   1.317   9.560
  485POPC   GL1 9541  29.925   1.164   9.133
  485POPC   GL2 9542  29.965   1.526   9.078
  485POPC   C1A 9543  29.793   1.207   8.723
  485POPC   D2A 9544  30.000   1.043   8.377
  485POPC   C3A 9545  29.937   1.231   8.003
  485POPC   C4A 9546  29.594   1.223   7.718
  485POPC   C1B 9547  30.293   1.490   8.763
  485POPC   C2B 9548  30.264   1.512   8.299
  485POPC   C3B 9549  30.298   1.580   7.857
  485POPC   C4B 9550  30.027   1.467   7.534
  486POPC   NC3 9551  37.242  39.801   9.377
  486POPC   PO4 9552  37.883  39.911   9.540
  486POPC   GL1 9553  37.672  40.137   9.227
  486POPC   GL2 9554  37.372  40.344   9.308
  486POPC   C1A 9555  37.676  39.936   8.826
  486POPC   D2A 9556  37.539  39.764   8.464
  486POPC   C3A 9557  37.833  39.633   8.168
  486POPC   C4A 9558  37.932  39.587   7.734
  486POPC   C1B 9559  37.407  40.370   8.848
  486POPC   C2B 9560  37.355  40.274   8.401
  486POPC   C3B 9561  37.550  40.063   8.040
  486POPC   C4B 9562  37.433  40.265   7.657
  487POPC   NC3 9563   3.202  39.103   9.535
  487POPC   PO4 9564   2.544  39.220   9.818
  487POPC   GL1 9565   2.456  39.289   9.315
  487POPC   GL2 9566   2.497  39.630   9.137
  487POPC   C1A 9567   2.575  39.202   8.851
  487POPC   D2A 9568   2.782  39.183   8.442
  487POPC   C3A 9569   2.607  38.861   8.135
  487POPC   C4A 9570   2.571  38.937   7.689
  487POPC   C1B 9571   2.597  39.674   8.684
  487POPC   C2B 9572   2.467  39.625   8.270
  487POPC   C3B 9573   2.621  39.348   7.972
  487POPC   C4B 9574   3.019  39.126   7.934
  488POPC   NC3 9575  18.711  40.300   9.403
  488POPC   PO4 9576  18.087  39.809   9.437
  488POPC   GL1 9577  18.233  40.102   9.161
  488POPC   GL2 9578  18.438  39.831   9.055
  488POPC   C1A 9579  18.398  40.224   8.741
  488POPC   D2A 9580  18.586  40.328   8.333
  488POPC   C3A 9581  18.311  40.316   7.992
  488POPC   C4A 9582  18.102  40.071   7.723
  488POPC   C1B 9583  18.090  39.803   8.736
  488POPC   C2B 9584  18.177  39.850   8.287
  488POPC   C3B 9585  18.551  39.852   8.016
  488POPC   C4B 9586  18.503  39.737   7.598
  489POPC   NC3 9587  35.455   1.513   9.750
  489POPC   PO4 9588  35.005   1.045   9.565
  489POPC   GL1 9589  35.124   1.172   9.196
  489POPC   GL2 9590  35.484   1.300   9.225
  489POPC   C1A 9591  35.023   1.104   8.772
  489POPC   D2A 9592  35.331   1.206   8.464
  489POPC   C3A 9593  35.187   1.083   8.074
  489POPC   C4A 9594  35.433   0.976   7.760
  489POPC   C1B 9595  35.269   1.542   8.883
  489POPC   C2B 9596  34.946   1.565   8.531
  489POPC   C3B 9597  35.050   1.578   8.090
  489POPC   C4B 9598  35.402   1.542   7.785
  490POPC   NC3 9599  26.622  32.660   9.482
  490POPC   PO4 9600  27.014  33.154   9.688
  490POPC   GL1 9601  26.911  33.070   9.193
  490POPC   GL2 9602  26.575  32.912   9.052
  490POPC   C1A 9603  26.967  32.853   8.774
  490POPC   D2A 9604  26.709  32.765   8.433
  490POPC   C3A 9605  26.944  32.838   8.078
  490POPC   C4A 9606  26.952  33.042   7.680
  490POPC   C1B 9607  26.555  33.195   8.692
  490POPC   C2B 9608  26.716  33.259   8.248
  490POPC   C3B 9609  26.518  33.256   7.840
  490POPC   C4B 9610  26.565  33.301   7.382
  491POPC   NC3 9611  32.555  19.904   9.514
  491POPC   PO4 9612  32.199  19.368   9.513
  491POPC   GL1 9613  32.148  19.715   9.229
  491POPC   GL2 9614  31.809  19.664   9.167
  491POPC   C1A 9615  32.328  19.880   8.824
  491POPC   D2A 9616  32.385  20.045   8.365
  491POPC   C3A 9617  32.387  19.729   8.034
  491POPC   C4A 9618  32.756  19.752   7.793
  491POPC   C1B 9619  31.961  19.558   8.724
  491POPC   C2B 9620  31.943  19.733   8.305
  491POPC   C3B 9621  31.900  19.799   7.859
  491POPC   C4B 9622  31.937  20.156   7.617
  492POPC   NC3 9623  28.897  39.691   9.655
  492POPC   PO4 9624  29.426  40.071   9.555
  492POPC   GL1 9625  29.193  40.097   9.174
  492POPC   GL2 9626  28.893  40.321   9.197
  492POPC   C1A 9627  29.074  39.865   8.792
  492POPC   D2A 9628  29.056  39.653   8.404
  492POPC   C3A 9629  29.306  39.793   8.056
  492POPC   C4A 9630  29.483  40.014   7.702
  492POPC   C1B 9631  29.008  40.367   8.752
  492POPC   C2B 9632  29.083  40.164   8.371
  492POPC   C3B 9633  29.141  40.288   7.953
  492POPC   C4B 9634  28.973  40.133   7.583
  493POPC   NC3 9635  42.479  19.284   9.493
  493POPC   PO4 9636  41.915  19.500   9.198
  493POPC   GL1 9637  42.201  19.778   9.023
  493POPC   GL2 9638  42.524  19.718   9.188
  493POPC   C1A 9639  42.247  19.793   8.582
  493POPC   D2A 9640  42.069  19.736   8.174
  493POPC   C3A 9641  42.232  19.554   7.799
  493POPC   C4A 9642  42.079  19.602   7.351
  493POPC   C1B 9643  42.669  20.012   8.890
  493POPC   C2B 9644  42.737  19.993   8.449
  493POPC   C3B 9645  42.690  20.086   8.013
  493POPC   C4B 9646  42.660  19.805   7.682
  494POPC   NC3 9647  13.029  38.169   9.342
  494POPC   PO4 9648  12.778  37.563   9.521
  494POPC   GL1 9649  12.924  37.679   9.149
  494POPC   GL2 9650  13.307  37.778   9.157
  494POPC   C1A 9651  12.725  37.555   8.759
  494POPC   D2A 9652  12.785  37.405   8.351
  494POPC   C3A 9653  12.508  37.630   8.088
  494POPC   C4A 9654  12.646  37.812   7.713
  494POPC   C1B 9655  13.171  37.866   8.759
  494POPC   C2B 9656  12.926  37.892   8.401
  494POPC   C3B 9657  13.086  37.769   8.026
  494POPC   C4B 9658  13.227  38.007   7.690
  495POPC   NC3 9659   1.875  16.432   9.464
  495POPC   PO4 9660   2.051  17.113   9.701
  495POPC   GL1 9661   2.181  16.793   9.271
  495POPC   GL2 9662   1.995  16.538   8.988
  495POPC   C1A 9663   2.332  16.877   8.845
  495POPC   D2A 9664   2.029  16.837   8.527
  495POPC   C3A 9665   2.140  16.756   8.106
  495POPC   C4A 9666   2.279  16.676   7.684
  495POPC   C1B 9667   1.672  16.462   8.663
  495POPC   C2B 9668   1.580  16.714   8.267
  495POPC   C3B 9669   1.707  16.680   7.823
  495POPC   C4B 9670   1.526  16.506   7.452
  496POPC   NC3 9671  18.240  30.379   9.556
  496POPC   PO4 9672  18.400  29.692   9.473
  496POPC   GL1 9673  18.181  29.882   9.126
  496POPC   GL2 9674  18.006  30.228   9.143
  496POPC   C1A 9675  18.357  30.038   8.743
  496POPC   D2A 9676  18.208  30.122   8.336
  496POPC   C3A 9677  18.518  29.958   8.066
  496POPC   C4A 9678  18.591  29.952   7.639
  496POPC   C1B 9679  17.870  30.159   8.756
  496POPC   C2B 9680  17.893  29.758   8.521
  496POPC   C3B 9681  18.052  29.693   8.095
  496POPC   C4B 9682  18.076  30.000   7.784
  497POPC   NC3 9683  28.700  42.845   9.570
  497POPC   PO4 9684  28.539  43.488   9.817
  497POPC   GL1 9685  28.380  43.212   9.386
  497POPC   GL2 9686  28.111  42.926   9.301
  497POPC   C1A 9687  28.432  43.097   8.925
  497POPC   D2A 9688  28.669  42.842   8.602
  497POPC   C3A 9689  28.552  42.933   8.168
  497POPC   C4A 9690  28.380  43.126   7.779
  497POPC   C1B 9691  28.055  42.758   8.841
  497POPC   C2B 9692  28.070  42.881   8.374
  497POPC   C3B 9693  27.922  42.914   7.917
  497POPC   C4B 9694  28.124  42.768   7.503
  498POPC   NC3 9695  43.273  15.831   9.862
  498POPC   PO4 9696  42.788  15.625   9.542
  498POPC   GL1 9697  43.033  15.891   9.201
  498POPC   GL2 9698  43.387  16.009   9.246
  498POPC   C1A 9699  43.096  16.148   8.782
  498POPC   D2A 9700  42.982  16.037   8.343
  498POPC   C3A 9701  42.879  16.254   7.971
  498POPC   C4A 9702  42.955  16.024   7.598
  498POPC   C1B 9703  43.589  15.971   8.834
  498POPC   C2B 9704  43.467  15.910   8.419
  498POPC   C3B 9705  43.368  15.940   7.981
  498POPC   C4B 9706  43.478  16.080   7.568
  499POPC   NC3 9707  34.311  44.804   9.824
  499POPC   PO4 9708  33.645  44.691   9.729
  499POPC   GL1 9709  33.599  44.686   9.239
  499POPC   GL2 9710  33.313  44.477   9.117
  499POPC   C1A 9711  33.860  44.730   8.836
  499POPC   D2A 9712  33.712  44.864   8.435
  499POPC   C3A 9713  33.834  44.738   8.031
  499POPC   C4A 9714  33.792   0.003   7.683
  499POPC   C1B 9715  33.461  44.482   8.694
  499POPC   C2B 9716  33.634  44.352   8.314
  499POPC   C3B 9717  33.427  44.404   7.948
  499POPC   C4B 9718  33.469  44.621   7.605
  500POPC   NC3 9719   6.439  10.635   9.445
  500POPC   PO4 9720   6.526   9.986   9.495
  500POPC   GL1 9721   6.645  10.272   9.149
  500POPC   GL2 9722   6.870  10.571   9.129
  500POPC   C1A 9723   6.505  10.382   8.735
  500POPC   D2A 9724   6.375  10.154   8.345
  500POPC   C3A 9725   6.217  10.407   7.993
  500POPC   C4A 9726   6.379  10.821   7.853
  500POPC   C1B 9727   7.180  10.759   8.810
  500POPC   C2B 9728   7.234  10.789   8.338
  500POPC   C3B 9729   6.867  10.733   8.050
  500POPC   C4B 9730   6.697  10.305   7.931
  501POPC   NC3 9731   1.858  17.548   9.756
  501POPC   PO4 9732   1.234  17.289   9.564
  501POPC   GL1 9733   1.235  17.384   9.155
  501POPC   GL2 9734   0.955  17.549   9.041
  501POPC   C1A 9735   1.254  17.188   8.764
  501POPC   D2A 9736   1.250  17.400   8.371
  501POPC   C3A 9737   1.556  17.400   8.082
  501POPC   C4A 9738   1.512  17.378   7.665
  501POPC   C1B 9739   1.366  17.703   8.763
  501POPC   C2B 9740   1.400  17.882   8.302
  501POPC   C3B 9741   1.164  17.707   7.930
  501POPC   C4B 9742   1.136  17.768   7.465
  502POPC   NC3 9743  23.871  34.488   9.399
  502POPC   PO4 9744  23.309  34.585   9.193
  502POPC   GL1 9745  23.637  34.634   8.965
  502POPC   GL2 9746  23.810  34.933   9.116
  502POPC   C1A 9747  23.685  34.355   8.612
  502POPC   D2A 9748  23.864  34.295   8.226
  502POPC   C3A 9749  23.538  34.440   7.965
  502POPC   C4A 9750  23.357  34.679   7.653
  502POPC   C1B 9751  23.664  35.050   8.702
  502POPC   C2B 9752  23.592  34.794   8.363
  502POPC   C3B 9753  23.868  34.795   8.026
  502POPC   C4B 9754  23.880  35.017   7.669
  503POPC   NC3 9755  33.499  42.493   9.388
  503POPC   PO4 9756  34.092  42.115   9.462
  503POPC   GL1 9757  33.847  42.187   9.112
  503POPC   GL2 9758  33.881  42.536   9.058
  503POPC   C1A 9759  33.761  42.210   8.672
  503POPC   D2A 9760  33.885  42.152   8.243
  503POPC   C3A 9761  33.717  42.401   7.880
  503POPC   C4A 9762  33.656  42.228   7.426
  503POPC   C1B 9763  34.133  42.571   8.678
  503POPC   C2B 9764  34.064  42.631   8.261
  503POPC   C3B 9765  34.194  42.590   7.868
  503POPC   C4B 9766  33.981  42.611   7.496
  504POPC   NC3 9767   9.311   0.651   9.501
  504POPC   PO4 9768   8.658   0.670   9.519
  504POPC   GL1 9769   8.834   0.507   9.124
  504POPC   GL2 9770   9.182   0.565   9.011
  504POPC   C1A 9771   8.733   0.481   8.681
  504POPC   D2A 9772   8.885   0.376   8.252
  504POPC   C3A 9773   8.767   0.091   7.914
  504POPC   C4A 9774   8.728   0.440   7.709
  504POPC   C1B 9775   9.231   0.330   8.632
  504POPC   C2B 9776   9.380   0.477   8.259
  504POPC   C3B 9777   9.254   0.387   7.854
  504POPC   C4B 9778   9.299   0.652   7.495
  505POPC   NC3 9779   5.370  33.354   9.475
  505POPC   PO4 9780   5.304  32.647   9.505
  505POPC   GL1 9781   5.385  32.928   9.162
  505POPC   GL2 9782   5.121  33.143   9.062
  505POPC   C1A 9783   5.373  32.816   8.736
  505POPC   D2A 9784   5.310  32.479   8.482
  505POPC   C3A 9785   5.210  32.688   8.132
  505POPC   C4A 9786   5.037  32.877   7.797
  505POPC   C1B 9787   4.925  33.067   8.664
  505POPC   C2B 9788   4.809  33.075   8.223
  505POPC   C3B 9789   4.935  33.355   7.885
  505POPC   C4B 9790   5.142  33.275   7.488
  506POPC   NC3 9791  21.181  34.003   9.472
  506POPC   PO4 9792  21.624  33.386   9.571
  506POPC   GL1 9793  21.445  33.625   9.239
  506POPC   GL2 9794  21.218  33.443   9.107
  506POPC   C1A 9795  21.385  33.886   8.850
  506POPC   D2A 9796  21.565  33.913   8.403
  506POPC   C3A 9797  21.315  33.919   8.032
  506POPC   C4A 9798  21.245  34.027   7.590
  506POPC   C1B 9799  21.409  33.393   8.727
  506POPC   C2B 9800  21.293  33.450   8.306
  506POPC   C3B 9801  21.494  33.221   7.986
  506POPC   C4B 9802  21.406  33.538   7.717
  507POPC   NC3 9803   1.741  15.776   9.558
  507POPC   PO4 9804   2.205  16.127   9.641
  507POPC   GL1 9805   2.087  16.029   9.202
  507POPC   GL2 9806   1.738  16.056   9.134
  507POPC   C1A 9807   2.065  16.102   8.748
  507POPC   D2A 9808   2.245  15.909   8.407
  507POPC   C3A 9809   1.997  15.778   8.055
  507POPC   C4A 9810   2.216  15.787   7.675
  507POPC   C1B 9811   1.606  15.864   8.782
  507POPC   C2B 9812   1.679  16.016   8.392
  507POPC   C3B 9813   1.509  16.235   8.071
  507POPC   C4B 9814   1.639  16.041   7.730
  508POPC   NC3 9815   3.998  23.531   9.505
  508POPC   PO4 9816   4.706  23.477   9.647
  508POPC   GL1 9817   4.353  23.354   9.199
  508POPC   GL2 9818   4.077  23.490   9.009
  508POPC   C1A 9819   4.453  23.376   8.697
  508POPC   D2A 9820   4.292  23.692   8.376
  508POPC   C3A 9821   4.456  23.681   7.944
  508POPC   C4A 9822   4.447  23.497   7.495
  508POPC   C1B 9823   4.064  23.899   8.850
  508POPC   C2B 9824   3.948  24.070   8.464
  508POPC   C3B 9825   4.148  24.122   8.053
  508POPC   C4B 9826   4.072  23.885   7.684
  509POPC   NC3 9827   9.888  26.070   9.789
  509POPC   PO4 9828   9.546  25.854   9.241
  509POPC   GL1 9829   9.812  26.080   9.033
  509POPC   GL2 9830  10.085  26.172   9.271
  509POPC   C1A 9831   9.792  26.112   8.578
  509POPC   D2A 9832   9.705  25.981   8.155
  509POPC   C3A 9833   9.509  26.267   7.880
  509POPC   C4A 9834   9.605  25.949   7.586
  509POPC   C1B 9835  10.252  26.211   8.842
  509POPC   C2B 9836  10.258  26.351   8.423
  509POPC   C3B 9837   9.955  26.444   8.120
  509POPC   C4B 9838   9.968  26.304   7.709
  510POPC   NC3 9839   0.180  22.094   9.494
  510POPC   PO4 9840   0.446  22.682   9.617
  510POPC   GL1 9841   0.612  22.615   9.199
  510POPC   GL2 9842   0.352  22.719   9.048
  510POPC   C1A 9843   0.709  22.591   8.718
  510POPC   D2A 9844   0.501  22.424   8.322
  510POPC   C3A 9845   0.765  22.352   7.962
  510POPC   C4A 9846   0.772  22.364   7.528
  510POPC   C1B 9847   0.282  22.278   8.861
  510POPC   C2B 9848   0.469  21.933   8.617
  510POPC   C3B 9849   0.541  21.870   8.173
  510POPC   C4B 9850   0.367  22.049   7.793
  511POPC   NC3 9851   9.005  31.682   9.650
  511POPC   PO4 9852   9.126  32.351   9.615
  511POPC   GL1 9853   9.117  32.383   9.158
  511POPC   GL2 9854   9.029  32.038   9.101
  511POPC   C1A 9855   9.156  32.368   8.703
  511POPC   D2A 9856   9.127  32.563   8.266
  511POPC   C3A 9857   9.028  32.202   8.036
  511POPC   C4A 9858   8.626  32.102   7.847
  511POPC   C1B 9859   8.838  31.953   8.687
  511POPC   C2B 9860   8.747  31.777   8.259
  511POPC   C3B 9861   8.965  31.727   7.865
  511POPC   C4B 9862   9.228  31.857   7.496
  512POPC   NC3 9863  28.791   6.290   9.613
  512POPC   PO4 9864  28.141   6.538   9.489
  512POPC   GL1 9865  28.477   6.418   9.224
  512POPC   GL2 9866  28.252   6.304   9.041
  512POPC   C1A 9867  28.694   6.442   8.798
  512POPC   D2A 9868  28.752   6.758   8.456
  512POPC   C3A 9869  28.691   6.628   7.999
  512POPC   C4A 9870  28.478   6.650   7.583
  512POPC   C1B 9871  28.228   6.622   8.746
  512POPC   C2B 9872  28.302   6.521   8.320
  512POPC   C3B 9873  28.089   6.508   7.922
  512POPC   C4B 9874  27.963   6.702   7.552
  513POPC   NC3 9875  14.563  40.112   9.590
  513POPC   PO4 9876  14.218  39.665   9.261
  513POPC   GL1 9877  14.351  39.924   8.967
  513POPC   GL2 9878  14.396  40.240   9.111
  513POPC   C1A 9879  14.457  39.817   8.547
  513POPC   D2A 9880  14.791  39.922   8.247
  513POPC   C3A 9881  14.667  39.733   7.869
  513POPC   C4A 9882  14.207  39.669   7.805
  513POPC   C1B 9883  14.637  40.292   8.721
  513POPC   C2B 9884  14.409  40.280   8.332
  513POPC   C3B 9885  14.356  40.154   7.879
  513POPC   C4B 9886  14.217  40.358   7.481
  514POPC   NC3 9887  16.388  35.017   9.573
  514POPC   PO4 9888  16.691  34.450   9.485
  514POPC   GL1 9889  16.806  34.693   9.159
  514POPC   GL2 9890  16.786  34.446   8.974
  514POPC   C1A 9891  16.836  34.901   8.762
  514POPC   D2A 9892  16.686  34.591   8.465
  514POPC   C3A 9893  16.644  34.863   8.112
  514POPC   C4A 9894  16.697  35.024   7.711
  514POPC   C1B 9895  16.393  34.320   8.836
  514POPC   C2B 9896  16.264  34.235   8.427
  514POPC   C3B 9897  16.471  34.343   8.045
  514POPC   C4B 9898  16.478  34.582   7.701
  515POPC   NC3 9899  34.576  23.425   9.544
  515POPC   PO4 9900  34.671  24.099   9.550
  515POPC   GL1 9901  34.541  23.953   9.128
  515POPC   GL2 9902  34.355  23.638   9.151
  515POPC   C1A 9903  34.507  23.957   8.645
  515POPC   D2A 9904  34.885  23.746   8.425
  515POPC   C3A 9905  34.910  23.808   8.001
  515POPC   C4A 9906  34.563  23.938   7.753
  515POPC   C1B 9907  34.636  23.511   8.844
  515POPC   C2B 9908  34.446  23.447   8.477
  515POPC   C3B 9909  34.437  23.560   8.086
  515POPC   C4B 9910  34.693  23.421   7.760
  516POPC   NC3 9911  12.584  43.544   9.685
  516POPC   PO4 9912  13.004  44.059   9.659
  516POPC   GL1 9913  12.842  44.124   9.247
  516POPC   GL2 9914  12.731  43.765   9.167
  516POPC   C1A 9915  12.840  44.139   8.793
  516POPC   D2A 9916  12.967  43.954   8.385
  516POPC   C3A 9917  12.689  43.727   8.121
  516POPC   C4A 9918  12.662  44.024   7.808
  516POPC   C1B 9919  13.037  43.667   8.809
  516POPC   C2B 9920  13.068  43.433   8.410
  516POPC   C3B 9921  13.187  43.569   7.995
  516POPC   C4B 9922  12.902  43.611   7.642
  517POPC   NC3 9923  23.368  12.771   9.549
  517POPC   PO4 9924  22.696  12.714   9.621
  517POPC   GL1 9925  22.841  12.866   9.245
  517POPC   GL2 9926  23.123  12.925   9.134
  517POPC   C1A 9927  22.714  12.978   8.828
  517POPC   D2A 9928  22.921  12.846   8.498
  517POPC   C3A 9929  22.814  12.925   8.115
  517POPC   C4A 9930  22.828  12.777   7.688
  517POPC   C1B 9931  23.359  12.782   8.778
  517POPC   C2B 9932  23.400  12.862   8.323
  517POPC   C3B 9933  23.309  12.749   7.876
  517POPC   C4B 9934  23.288  12.909   7.453
  518POPC   NC3 9935  43.384   7.194   9.505
  518POPC   PO4 9936  42.680   7.132   9.482
  518POPC   GL1 9937  42.986   7.409   9.235
  518POPC   GL2 9938  43.228   7.269   9.039
  518POPC   C1A 9939  42.928   7.616   8.813
  518POPC   D2A 9940  43.115   7.712   8.405
  518POPC   C3A 9941  43.114   7.451   8.030
  518POPC   C4A 9942  43.080   7.594   7.616
  518POPC   C1B 9943  43.414   7.348   8.666
  518POPC   C2B 9944  43.293   7.079   8.339
  518POPC   C3B 9945  43.411   7.005   7.943
  518POPC   C4B 9946  43.533   7.376   7.729
  519POPC   NC3 9947  43.134  27.995   9.498
  519POPC   PO4 9948  42.893  28.627   9.646
  519POPC   GL1 9949  43.082  28.465   9.269
  519POPC   GL2 9950  43.302  28.717   9.194
  519POPC   C1A 9951  43.123  28.254   8.850
  519POPC   D2A 9952  43.137  28.079   8.409
  519POPC   C3A 9953  42.889  28.281   8.060
  519POPC   C4A 9954  42.776  28.013   7.683
  519POPC   C1B 9955  43.432  28.657   8.788
  519POPC   C2B 9956  43.412  28.503   8.388
  519POPC   C3B 9957  43.255  28.654   7.994
  519POPC   C4B 9958  43.103  28.492   7.603
  520POPC   NC3 9959  25.007  20.858   9.471
  520POPC   PO4 9960  25.407  20.216   9.472
  520POPC   GL1 9961  25.373  20.396   9.110
  520POPC   GL2 9962  25.354  20.730   9.136
  520POPC   C1A 9963  25.480  20.479   8.702
  520POPC   D2A 9964  25.248  20.395   8.358
  520POPC   C3A 9965  25.512  20.527   8.078
  520POPC   C4A 9966  25.597  20.355   7.721
  520POPC   C1B 9967  25.181  20.910   8.801
  520POPC   C2B 9968  25.288  20.933   8.416
  520POPC   C3B 9969  25.089  20.828   8.081
  520POPC   C4B 9970  25.147  20.588   7.714
  521POPC   NC3 9971   0.193  16.669   9.589
  521POPC   PO4 9972   0.795  16.303   9.558
  521POPC   GL1 9973   0.733  16.706   9.271
  521POPC   GL2 9974   0.396  16.760   9.140
  521POPC   C1A 9975   0.754  16.909   8.825
  521POPC   D2A 9976   0.498  16.962   8.425
  521POPC   C3A 9977   0.560  16.721   8.056
  521POPC   C4A 9978   0.765  16.890   7.732
  521POPC   C1B 9979   0.160  16.722   8.779
  521POPC   C2B 9980   0.166  16.594   8.374
  521POPC   C3B 9981   0.035  16.775   8.007
  521POPC   C4B 9982   0.253  16.853   7.601
  522POPC   NC3 9983   7.284  24.503   9.611
  522POPC   PO4 9984   7.704  24.076   9.555
  522POPC   GL1 9985   7.619  24.409   9.223
  522POPC   GL2 9986   7.243  24.469   9.110
  522POPC   C1A 9987   7.813  24.629   8.882
  522POPC   D2A 9988   7.941  24.657   8.422
  522POPC   C3A 9989   7.649  24.616   8.061
  522POPC   C4A 9990   7.302  24.431   7.824
  522POPC   C1B 9991   7.335  24.489   8.679
  522POPC   C2B 9992   7.273  24.757   8.327
  522POPC   C3B 9993   7.006  24.807   7.944
  522POPC   C4B 9994   6.895  24.554   7.551
  523POPC   NC3 9995  39.050  39.730   9.522
  523POPC   PO4 9996  39.571  40.213   9.567
  523POPC   GL1 9997  39.540  40.243   9.123
  523POPC   GL2 9998  39.247  40.012   9.132
  523POPC   C1A 9999  39.517  40.059   8.691
  523POPC   D2A10000  39.361  39.732   8.425
  523POPC   C3A10001  39.379  39.887   8.044
  523POPC   C4A10002  39.510  40.262   7.859
  523POPC   C1B10003  39.018  39.881   8.769
  523POPC   C2B10004  38.907  40.039   8.372
  523POPC   C3B10005  38.979  40.174   7.934
  523POPC   C4B10006  39.050  39.813   7.645
  524POPC   NC310007  24.294   7.963   9.281
  524POPC   PO410008  24.429   7.391   9.625
  524POPC   GL110009  24.568   7.495   9.216
  524POPC   GL210010  24.241   7.426   9.150
  524POPC   C1A10011  24.677   7.519   8.751
  524POPC   D2A10012  24.472   7.525   8.327
  524POPC   C3A10013  24.626   7.350   7.915
  524POPC   C4A10014  24.436   7.308   7.488
  524POPC   C1B10015  24.195   7.372   8.750
  524POPC   C2B10016  24.226   7.073   8.430
  524POPC   C3B10017  24.135   7.191   8.012
  524POPC   C4B10018  23.952   7.301   7.606
  525POPC   NC310019  31.900  38.099   9.424
  525POPC   PO410020  31.250  38.405   9.570
  525POPC   GL110021  31.299  38.536   9.164
  525POPC   GL210022  31.661  38.568   9.178
  525POPC   C1A10023  31.198  38.396   8.746
  525POPC   D2A10024  31.274  38.451   8.308
  525POPC   C3A10025  31.529  38.624   7.990
  525POPC   C4A10026  31.363  38.378   7.674
  525POPC   C1B10027  31.650  38.628   8.733
  525POPC   C2B10028  31.792  38.384   8.368
  525POPC   C3B10029  31.772  38.154   7.966
  525POPC   C4B10030  31.866  38.443   7.637
  526POPC   NC310031   9.461   9.165   9.280
  526POPC   PO410032   9.767   8.722   9.622
  526POPC   GL110033   9.877   8.883   9.196
  526POPC   GL210034   9.990   8.604   9.070
  526POPC   C1A10035   9.775   9.109   8.742
  526POPC   D2A10036   9.952   9.241   8.321
  526POPC   C3A10037   9.806   9.051   7.924
  526POPC   C4A10038   9.557   8.860   7.614
  526POPC   C1B10039   9.815   8.582   8.706
  526POPC   C2B10040   9.912   8.713   8.318
  526POPC   C3B10041   9.862   8.520   7.944
  526POPC   C4B10042  10.019   8.593   7.537
  527POPC   NC310043  14.106  43.861   9.528
  527POPC   PO410044  14.836  43.887   9.515
  527POPC   GL110045  14.520  43.743   9.223
  527POPC   GL210046  14.405  44.077   9.153
  527POPC   C1A10047  14.165  43.729   8.892
  527POPC   D2A10048  13.969  43.656   8.512
  527POPC   C3A10049  14.222  43.680   8.156
  527POPC   C4A10050  14.059  43.663   7.758
  527POPC   C1B10051  14.659  43.959   8.783
  527POPC   C2B10052  14.634  44.162   8.398
  527POPC   C3B10053  14.610  43.983   7.984
  527POPC   C4B10054  14.460  43.992   7.595
  528POPC   NC310055   8.960  31.163   9.260
  528POPC   PO410056   8.564  31.571   9.628
  528POPC   GL110057   8.755  31.602   9.142
  528POPC   GL210058   9.101  31.546   8.907
  528POPC   C1A10059   8.672  31.461   8.697
  528POPC   D2A10060   8.889  31.275   8.390
  528POPC   C3A10061   8.691  31.292   8.029
  528POPC   C4A10062   8.770  31.345   7.622
  528POPC   C1B10063   9.284  31.146   8.698
  528POPC   C2B10064   9.299  31.006   8.248
  528POPC   C3B10065   9.225  31.290   7.900
  528POPC   C4B10066   9.238  31.352   7.434
  529POPC   NC310067  26.762  34.386   9.452
  529POPC   PO410068  26.321  34.939   9.302
  529POPC   GL110069  26.573  34.708   9.023
  529POPC   GL210070  26.625  34.344   8.970
  529POPC   C1A10071  26.548  34.659   8.576
  529POPC   D2A10072  26.848  34.764   8.301
  529POPC   C3A10073  26.827  34.500   8.021
  529POPC   C4A10074  26.458  34.455   7.803
  529POPC   C1B10075  26.933  34.323   8.617
  529POPC   C2B10076  27.101  34.134   8.258
  529POPC   C3B10077  27.269  34.261   7.870
  529POPC   C4B10078  27.038  34.431   7.550
  530POPC   NC310079  37.067  29.649   9.503
  530POPC   PO410080  36.606  29.451   9.076
  530POPC   GL110081  36.854  29.807   9.067
  530POPC   GL210082  36.551  29.990   8.988
  530POPC   C1A10083  36.979  29.981   8.688
  530POPC   D2A10084  36.745  29.946   8.304
  530POPC   C3A10085  37.000  29.923   7.921
  530POPC   C4A10086  36.880  29.710   7.514
  530POPC   C1B10087  36.637  30.363   8.762
  530POPC   C2B10088  36.849  30.444   8.405
  530POPC   C3B10089  36.716  30.351   8.000
  530POPC   C4B10090  36.862  30.256   7.575
  531POPC   NC310091  38.752  32.967   9.426
  531POPC   PO410092  38.346  33.281   9.902
  531POPC   GL110093  38.351  33.291   9.386
  531POPC   GL210094  38.669  33.454   9.241
  531POPC   C1A10095  38.263  33.142   8.896
  531POPC   D2A10096  38.181  32.770   8.577
  531POPC   C3A10097  38.320  32.781   8.126
  531POPC   C4A10098  38.548  32.876   7.717
  531POPC   C1B10099  38.740  33.307   8.801
  531POPC   C2B10100  38.462  33.179   8.430
  531POPC   C3B10101  38.430  33.290   8.006
  531POPC   C4B10102  38.801  33.310   7.773
  532POPC   NC310103   7.890  13.560   9.516
  532POPC   PO410104   8.382  14.026   9.310
  532POPC   GL110105   8.428  13.673   9.084
  532POPC   GL210106   8.103  13.499   9.071
  532POPC   C1A10107   8.407  13.611   8.666
  532POPC   D2A10108   8.553  13.442   8.322
  532POPC   C3A10109   8.393  13.696   7.985
  532POPC   C4A10110   8.485  13.810   7.558
  532POPC   C1B10111   7.961  13.850   8.817
  532POPC   C2B10112   8.032  13.852   8.372
  532POPC   C3B10113   7.887  13.687   7.962
  532POPC   C4B10114   8.078  13.473   7.569
  533POPC   NC310115   0.633  40.124   9.287
  533POPC   PO410116   1.100  39.665   9.581
  533POPC   GL110117   1.049  39.857   9.128
  533POPC   GL210118   1.310  40.121   9.037
  533POPC   C1A10119   0.911  40.053   8.714
  533POPC   D2A10120   0.981  39.840   8.341
  533POPC   C3A10121   1.094  40.021   7.965
  533POPC   C4A10122   1.221  39.672   7.768
  533POPC   C1B10123   1.367  39.843   8.705
  533POPC   C2B10124   1.404  40.155   8.374
  533POPC   C3B10125   1.577  40.268   7.967
  533POPC   C4B10126   1.408  40.225   7.537
  534POPC   NC310127  30.293  25.317   9.427
  534POPC   PO410128  29.707  25.415   9.646
  534POPC   GL110129  29.870  25.527   9.221
  534POPC   GL210130  29.911  25.157   9.122
  534POPC   C1A10131  29.957  25.509   8.755
  534POPC   D2A10132  29.680  25.506   8.383
  534POPC   C3A10133  29.766  25.415   7.955
  534POPC   C4A10134  30.137  25.365   7.783
  534POPC   C1B10135  30.265  24.976   8.855
  534POPC   C2B10136  30.314  24.796   8.460
  534POPC   C3B10137  30.007  24.889   8.114
  534POPC   C4B10138  29.802  24.921   7.712
  535POPC   NC310139  31.295  40.707   9.554
  535POPC   PO410140  31.492  41.347   9.357
  535POPC   GL110141  31.517  40.968   9.127
  535POPC   GL210142  31.140  40.912   9.126
  535POPC   C1A10143  31.708  40.980   8.694
  535POPC   D2A10144  31.735  41.100   8.243
  535POPC   C3A10145  31.583  40.793   7.913
  535POPC   C4A10146  31.618  40.492   7.544
  535POPC   C1B10147  31.249  40.723   8.754
  535POPC   C2B10148  31.287  40.907   8.362
  535POPC   C3B10149  31.084  40.885   7.985
  535POPC   C4B10150  31.131  40.571   7.665
  536POPC   NC310151  10.881  24.574   9.566
  536POPC   PO410152  10.286  24.566   9.770
  536POPC   GL110153  10.355  24.620   9.304
  536POPC   GL210154  10.689  24.551   9.117
  536POPC   C1A10155  10.288  24.642   8.842
  536POPC   D2A10156  10.320  24.360   8.478
  536POPC   C3A10157  10.360  24.608   8.126
  536POPC   C4A10158  10.405  24.518   7.706
  536POPC   C1B10159  10.721  24.278   8.787
  536POPC   C2B10160  10.831  24.397   8.368
  536POPC   C3B10161  10.800  24.277   7.944
  536POPC   C4B10162  10.690  24.129   7.528
  537POPC   NC310163  11.381  34.756   9.704
  537POPC   PO410164  11.109  34.232   9.535
  537POPC   GL110165  11.103  34.445   9.170
  537POPC   GL210166  11.426  34.495   9.124
  537POPC   C1A10167  11.061  34.467   8.733
  537POPC   D2A10168  11.289  34.745   8.498
  537POPC   C3A10169  11.147  34.855   8.119
  537POPC   C4A10170  11.247  34.800   7.723
  537POPC   C1B10171  11.650  34.480   8.771
  537POPC   C2B10172  11.623  34.358   8.360
  537POPC   C3B10173  11.596  34.540   7.969
  537POPC   C4B10174  11.652  34.380   7.540
  538POPC   NC310175   6.178  22.686   9.418
  538POPC   PO410176   5.641  23.191   9.437
  538POPC   GL110177   5.787  22.946   9.137
  538POPC   GL210178   5.589  22.667   9.186
  538POPC   C1A10179   5.787  23.113   8.740
  538POPC   D2A10180   5.988  23.219   8.403
  538POPC   C3A10181   5.934  22.940   8.108
  538POPC   C4A10182   5.841  23.057   7.704
  538POPC   C1B10183   5.768  22.542   8.802
  538POPC   C2B10184   5.620  22.636   8.395
  538POPC   C3B10185   5.518  22.696   7.975
  538POPC   C4B10186   5.878  22.538   7.728
  539POPC   NC310187  10.566  44.892   9.542
  539POPC   PO410188  10.657  44.187   9.586
  539POPC   GL110189  10.732  44.485   9.237
  539POPC   GL210190  10.946  44.818   9.240
  539POPC   C1A10191  10.506  44.551   8.846
  539POPC   D2A10192  10.482  44.781   8.458
  539POPC   C3A10193  10.165  44.799   8.149
  539POPC   C4A10194  10.340  44.660   7.746
  539POPC   C1B10195  10.761   0.003   8.848
  539POPC   C2B10196  10.780   0.187   8.415
  539POPC   C3B10197  10.595   0.047   7.999
  539POPC   C4B10198  10.770  44.914   7.605
  540POPC   NC310199  17.990  24.335   9.448
  540POPC   PO410200  18.094  24.950   9.538
  540POPC   GL110201  18.168  24.696   9.132
  540POPC   GL210202  18.328  24.356   9.059
  540POPC   C1A10203  18.067  24.628   8.689
  540POPC   D2A10204  17.954  24.642   8.237
  540POPC   C3A10205  18.295  24.749   7.934
  540POPC   C4A10206  18.295  24.779   7.475
  540POPC   C1B10207  18.121  24.126   8.699
  540POPC   C2B10208  18.249  24.194   8.252
  540POPC   C3B10209  18.169  24.246   7.784
  540POPC   C4B10210  17.999  24.133   7.336
  541POPC   NC310211   0.639  27.760   9.611
  541POPC   PO410212   0.287  27.310   9.919
  541POPC   GL110213   0.390  27.357   9.417
  541POPC   GL210214   0.125  27.483   9.203
  541POPC   C1A10215   0.650  27.498   8.981
  541POPC   D2A10216   0.708  27.558   8.477
  541POPC   C3A10217   0.758  27.600   7.987
  541POPC   C4A10218   0.696  27.285   7.624
  541POPC   C1B10219   0.200  27.507   8.748
  541POPC   C2B10220   0.199  27.361   8.338
  541POPC   C3B10221   0.253  27.672   8.062
  541POPC   C4B10222   0.143  27.783   7.668
  542POPC   NC310223   5.459   3.786   9.507
  542POPC   PO410224   6.054   3.543   9.477
  542POPC   GL110225   5.939   3.378   9.114
  542POPC   GL210226   5.615   3.479   9.102
  542POPC   C1A10227   6.124   3.379   8.732
  542POPC   D2A10228   6.062   3.153   8.367
  542POPC   C3A10229   5.660   3.170   8.181
  542POPC   C4A10230   5.901   3.255   7.788
  542POPC   C1B10231   5.620   3.415   8.661
  542POPC   C2B10232   5.827   3.617   8.335
  542POPC   C3B10233   5.813   3.748   7.904
  542POPC   C4B10234   6.113   4.069   7.787
  543POPC   NC310235  19.077  40.987   9.517
  543POPC   PO410236  19.269  40.294   9.499
  543POPC   GL110237  19.101  40.490   9.118
  543POPC   GL210238  19.340  40.776   9.160
  543POPC   C1A10239  18.805  40.559   8.745
  543POPC   D2A10240  18.750  40.831   8.358
  543POPC   C3A10241  18.981  40.752   7.953
  543POPC   C4A10242  18.992  40.731   7.472
  543POPC   C1B10243  19.135  40.925   8.816
  543POPC   C2B10244  19.267  40.850   8.412
  543POPC   C3B10245  19.481  41.021   8.086
  543POPC   C4B10246  19.315  41.051   7.706
  544POPC   NC310247  35.689  33.500   9.391
  544POPC   PO410248  35.250  33.853   9.580
  544POPC   GL110249  35.277  33.956   9.156
  544POPC   GL210250  35.623  33.926   9.083
  544POPC   C1A10251  35.293  33.775   8.723
  544POPC   D2A10252  35.411  33.469   8.413
  544POPC   C3A10253  35.180  33.574   8.056
  544POPC   C4A10254  35.304  33.869   7.733
  544POPC   C1B10255  35.791  33.621   8.763
  544POPC   C2B10256  35.993  33.714   8.370
  544POPC   C3B10257  35.752  33.805   8.025
  544POPC   C4B10258  35.643  33.451   7.842
  545POPC   NC310259  26.251  17.769   9.575
  545POPC   PO410260  25.865  17.206   9.569
  545POPC   GL110261  25.851  17.352   9.154
  545POPC   GL210262  25.704  17.678   9.264
  545POPC   C1A10263  26.134  17.496   8.799
  545POPC   D2A10264  26.336  17.571   8.383
  545POPC   C3A10265  26.014  17.541   8.073
  545POPC   C4A10266  26.045  17.378   7.737
  545POPC   C1B10267  25.656  17.701   8.823
  545POPC   C2B10268  25.875  17.817   8.464
  545POPC   C3B10269  26.059  18.046   8.123
  545POPC   C4B10270  25.971  17.888   7.676
  546POPC   NC310271  20.546  40.903   9.465
  546POPC   PO410272  20.289  40.272   9.517
  546POPC   GL110273  20.355  40.526   9.160
  546POPC   GL210274  20.706  40.565   9.139
  546POPC   C1A10275  20.395  40.845   8.800
  546POPC   D2A10276  20.336  41.148   8.440
  546POPC   C3A10277  20.410  40.925   8.051
  546POPC   C4A10278  20.291  40.758   7.651
  546POPC   C1B10279  20.915  40.772   8.814
  546POPC   C2B10280  20.798  40.894   8.423
  546POPC   C3B10281  20.938  40.908   8.034
  546POPC   C4B10282  20.770  40.866   7.642
  547POPC   NC310283  17.078  29.623   9.469
  547POPC   PO410284  17.686  29.954   9.455
  547POPC   GL110285  17.466  30.042   9.084
  547POPC   GL210286  17.273  29.748   9.025
  547POPC   C1A10287  17.432  30.015   8.603
  547POPC   D2A10288  17.682  30.160   8.253
  547POPC   C3A10289  17.551  29.981   7.872
  547POPC   C4A10290  17.323  30.240   7.602
  547POPC   C1B10291  17.282  29.514   8.654
  547POPC   C2B10292  17.365  29.625   8.250
  547POPC   C3B10293  17.111  29.617   7.897
  547POPC   C4B10294  17.144  29.767   7.501
  548POPC   NC310295   5.891   2.152   9.898
  548POPC   PO410296   5.616   1.792   9.426
  548POPC   GL110297   5.592   1.949   9.013
  548POPC   GL210298   5.495   2.318   9.131
  548POPC   C1A10299   5.789   1.783   8.648
  548POPC   D2A10300   6.149   1.727   8.386
  548POPC   C3A10301   6.135   1.924   8.011
  548POPC   C4A10302   6.112   2.342   7.902
  548POPC   C1B10303   5.758   2.347   8.745
  548POPC   C2B10304   5.843   2.185   8.329
  548POPC   C3B10305   5.637   1.998   7.947
  548POPC   C4B10306   5.611   1.749   7.565
  549POPC   NC310307  22.594  12.252   9.591
  549POPC   PO410308  23.081  11.798   9.470
  549POPC   GL110309  22.992  12.081   9.188
  549POPC   GL210310  23.039  12.406   9.337
  549POPC   C1A10311  23.021  11.997   8.757
  549POPC   D2A10312  22.847  12.040   8.366
  549POPC   C3A10313  23.084  11.910   8.037
  549POPC   C4A10314  22.957  11.802   7.645
  549POPC   C1B10315  22.953  12.492   8.892
  549POPC   C2B10316  23.171  12.412   8.481
  549POPC   C3B10317  22.964  12.440   8.090
  549POPC   C4B10318  23.035  12.310   7.681
  550POPC   NC310319   1.893  12.296   9.570
  550POPC   PO410320   1.676  11.569   9.556
  550POPC   GL110321   2.035  11.702   9.232
  550POPC   GL210322   2.047  12.043   9.173
  550POPC   C1A10323   2.176  11.768   8.766
  550POPC   D2A10324   1.937  12.010   8.469
  550POPC   C3A10325   2.022  12.072   8.085
  550POPC   C4A10326   1.785  12.059   7.738
  550POPC   C1B10327   2.171  12.273   8.845
  550POPC   C2B10328   2.381  12.307   8.451
  550POPC   C3B10329   2.384  12.422   8.043
  550POPC   C4B10330   2.065  12.499   7.779
  551POPC   NC310331  11.857  17.615   9.492
  551POPC   PO410332  12.517  17.795   9.574
  551POPC   GL110333  12.255  17.740   9.186
  551POPC   GL210334  12.389  17.929   8.923
  551POPC   C1A10335  12.104  17.497   8.808
  551POPC   D2A10336  12.187  17.689   8.395
  551POPC   C3A10337  12.000  17.500   8.057
  551POPC   C4A10338  11.931  17.178   7.796
  551POPC   C1B10339  11.920  17.959   8.771
  551POPC   C2B10340  11.699  17.986   8.390
  551POPC   C3B10341  11.982  18.058   8.067
  551POPC   C4B10342  12.243  17.857   7.780
  552POPC   NC310343   6.393  37.551   9.676
  552POPC   PO410344   5.729  37.463   9.861
  552POPC   GL110345   5.939  37.580   9.431
  552POPC   GL210346   5.665  37.653   9.252
  552POPC   C1A10347   6.079  37.671   8.944
  552POPC   D2A10348   6.107  37.976   8.579
  552POPC   C3A10349   6.069  37.860   8.130
  552POPC   C4A10350   5.923  37.685   7.728
  552POPC   C1B10351   5.604  37.789   8.838
  552POPC   C2B10352   5.410  37.743   8.451
  552POPC   C3B10353   5.496  37.763   8.022
  552POPC   C4B10354   5.472  37.855   7.585
  553POPC   NC310355  32.065  11.559   9.299
  553POPC   PO410356  32.541  10.958   9.432
  553POPC   GL110357  32.405  11.165   9.093
  553POPC   GL210358  32.088  11.046   9.119
  553POPC   C1A10359  32.441  11.340   8.663
  553POPC   D2A10360  32.638  11.353   8.247
  553POPC   C3A10361  32.483  11.221   7.829
  553POPC   C4A10362  32.377  10.979   7.431
  553POPC   C1B10363  31.974  11.142   8.703
  553POPC   C2B10364  32.111  11.197   8.276
  553POPC   C3B10365  32.009  11.400   7.921
  553POPC   C4B10366  32.070  11.373   7.496
  554POPC   NC310367  43.458  34.763   9.477
  554POPC   PO410368  44.143  34.665   9.497
  554POPC   GL110369  44.090  34.570   9.129
  554POPC   GL210370  44.297  34.309   9.106
  554POPC   C1A10371  44.041  34.672   8.714
  554POPC   D2A10372  43.810  34.866   8.385
  554POPC   C3A10373  44.052  34.736   8.069
  554POPC   C4A10374  44.091  34.650   7.644
  554POPC   C1B10375  43.987  34.187   8.815
  554POPC   C2B10376  43.847  34.303   8.399
  554POPC   C3B10377  44.025  34.238   7.984
  554POPC   C4B10378  43.808  34.231   7.617
  555POPC   NC310379  33.710  41.767   9.419
  555POPC   PO410380  33.301  41.220   9.351
  555POPC   GL110381  33.676  41.377   9.070
  555POPC   GL210382  33.952  41.156   8.991
  555POPC   C1A10383  33.994  41.674   8.838
  555POPC   D2A10384  34.106  41.695   8.406
  555POPC   C3A10385  33.790  41.635   8.131
  555POPC   C4A10386  33.736  41.901   7.801
  555POPC   C1B10387  33.866  41.254   8.557
  555POPC   C2B10388  33.618  41.155   8.183
  555POPC   C3B10389  33.707  41.192   7.751
  555POPC   C4B10390  33.848  41.249   7.366
  556POPC   NC310391  39.765  34.477   9.444
  556POPC   PO410392  39.184  34.696   9.538
  556POPC   GL110393  39.301  34.565   9.175
  556POPC   GL210394  39.506  34.839   9.141
  556POPC   C1A10395  39.138  34.666   8.779
  556POPC   D2A10396  38.806  34.745   8.496
  556POPC   C3A10397  39.009  34.556   8.175
  556POPC   C4A10398  39.051  34.682   7.783
  556POPC   C1B10399  39.651  34.559   8.792
  556POPC   C2B10400  39.470  34.511   8.391
  556POPC   C3B10401  39.517  34.713   8.016
  556POPC   C4B10402  39.551  34.607   7.560
  557POPC   NC310403  34.117  43.280   9.572
  557POPC   PO410404  33.593  42.944   9.398
  557POPC   GL110405  33.734  43.033   9.035
  557POPC   GL210406  33.937  43.325   9.099
  557POPC   C1A10407  33.698  42.865   8.628
  557POPC   D2A10408  33.848  43.089   8.275
  557POPC   C3A10409  33.763  42.940   7.867
  557POPC   C4A10410  33.362  43.138   7.750
  557POPC   C1B10411  33.738  43.420   8.696
  557POPC   C2B10412  33.834  43.610   8.304
  557POPC   C3B10413  33.911  43.458   7.887
  557POPC   C4B10414  34.309  43.518   7.685
  558POPC   NC310415  44.921  36.138   9.605
  558POPC   PO410416  44.356  35.641   9.445
  558POPC   GL110417  44.507  35.857   9.050
  558POPC   GL210418  44.648  36.151   9.180
  558POPC   C1A10419  44.831  35.928   8.756
  558POPC   D2A10420  44.739  36.097   8.365
  558POPC   C3A10421  44.901  36.443   8.114
  558POPC   C4A10422  44.881  36.283   7.700
  558POPC   C1B10423  44.443  36.362   8.860
  558POPC   C2B10424  44.486  36.543   8.461
  558POPC   C3B10425  44.393  36.378   8.081
  558POPC   C4B10426  44.504  36.617   7.723
  559POPC   NC310427  43.206  35.354   9.464
  559POPC   PO410428  42.755  34.850   9.714
  559POPC   GL110429  42.713  35.278   9.327
  559POPC   GL210430  42.912  35.598   9.147
  559POPC   C1A10431  42.737  35.252   8.837
  559POPC   D2A10432  42.654  35.220   8.405
  559POPC   C3A10433  42.970  35.260   8.115
  559POPC   C4A10434  43.039  35.568   7.832
  559POPC   C1B10435  43.236  35.370   8.814
  559POPC   C2B10436  43.300  35.027   8.502
  559POPC   C3B10437  43.408  34.991   8.056
  559POPC   C4B10438  43.222  35.106   7.653
  560POPC   NC310439   3.206  41.933   9.574
  560POPC   PO410440   3.837  41.580   9.603
  560POPC   GL110441   3.790  41.539   9.160
  560POPC   GL210442   3.457  41.590   9.214
  560POPC   C1A10443   3.853  41.706   8.720
  560POPC   D2A10444   3.860  41.905   8.298
  560POPC   C3A10445   3.795  41.680   7.917
  560POPC   C4A10446   3.875  41.325   7.618
  560POPC   C1B10447   3.323  41.773   8.837
  560POPC   C2B10448   3.427  41.698   8.427
  560POPC   C3B10449   3.297  41.624   8.019
  560POPC   C4B10450   2.927  41.687   7.782
  561POPC   NC310451  32.120   1.369   9.653
  561POPC   PO410452  32.717   1.274   9.389
  561POPC   GL110453  32.412   1.365   9.080
  561POPC   GL210454  32.215   1.113   9.201
  561POPC   C1A10455  32.340   1.417   8.616
  561POPC   D2A10456  32.507   1.090   8.338
  561POPC   C3A10457  32.289   1.185   7.975
  561POPC   C4A10458  32.231   1.563   7.756
  561POPC   C1B10459  32.155   0.975   8.763
  561POPC   C2B10460  31.962   1.140   8.377
  561POPC   C3B10461  31.859   0.901   7.999
  561POPC   C4B10462  31.911   0.968   7.569
  562POPC   NC310463  43.296   9.331   9.453
  562POPC   PO410464  42.729   9.681   9.435
  562POPC   GL110465  43.080   9.747   9.185
  562POPC   GL210466  43.070  10.095   9.326
  562POPC   C1A10467  43.019   9.622   8.724
  562POPC   D2A10468  43.194   9.651   8.318
  562POPC   C3A10469  43.051   9.799   7.934
  562POPC   C4A10470  42.738   9.998   7.740
  562POPC   C1B10471  42.941  10.108   8.873
  562POPC   C2B10472  43.249  10.168   8.572
  562POPC   C3B10473  43.371  10.104   8.201
  562POPC   C4B10474  43.412  10.163   7.768
  563POPC   NC310475  34.001   8.371   9.427
  563POPC   PO410476  33.607   7.825   9.524
  563POPC   GL110477  33.802   7.972   9.174
  563POPC   GL210478  33.597   8.236   9.144
  563POPC   C1A10479  34.001   8.049   8.786
  563POPC   D2A10480  33.824   8.133   8.393
  563POPC   C3A10481  33.942   7.963   8.017
  563POPC   C4A10482  34.201   8.280   7.888
  563POPC   C1B10483  33.626   8.456   8.762
  563POPC   C2B10484  33.705   8.659   8.375
  563POPC   C3B10485  33.728   8.453   7.977
  563POPC   C4B10486  33.840   8.444   7.531
  564POPC   NC310487   2.798  40.669   9.636
  564POPC   PO410488   2.350  40.970   9.328
  564POPC   GL110489   2.703  40.773   9.135
  564POPC   GL210490   2.988  40.540   9.147
  564POPC   C1A10491   2.652  40.661   8.732
  564POPC   D2A10492   2.423  40.821   8.384
  564POPC   C3A10493   2.617  40.852   7.995
  564POPC   C4A10494   2.776  40.525   7.760
  564POPC   C1B10495   3.144  40.808   8.819
  564POPC   C2B10496   2.996  40.805   8.377
  564POPC   C3B10497   3.186  40.688   7.993
  564POPC   C4B10498   3.295  40.612   7.554
  565POPC   NC310499  16.384  38.835   9.522
  565POPC   PO410500  17.006  38.420   9.466
  565POPC   GL110501  16.657  38.463   9.192
  565POPC   GL210502  16.335  38.308   9.269
  565POPC   C1A10503  16.732  38.454   8.758
  565POPC   D2A10504  16.980  38.560   8.390
  565POPC   C3A10505  16.802  38.548   7.977
  565POPC   C4A10506  16.717  38.831   7.646
  565POPC   C1B10507  16.213  38.540   8.878
  565POPC   C2B10508  16.349  38.453   8.438
  565POPC   C3B10509  16.318  38.282   8.039
  565POPC   C4B10510  16.381  38.451   7.621
  566POPC   NC310511  37.914  19.891   9.529
  566POPC   PO410512  37.566  20.411   9.312
  566POPC   GL110513  37.770  20.077   9.020
  566POPC   GL210514  37.947  19.743   9.050
  566POPC   C1A10515  37.907  19.977   8.596
  566POPC   D2A10516  37.987  19.609   8.374
  566POPC   C3A10517  37.903  19.728   7.984
  566POPC   C4A10518  37.836  19.985   7.672
  566POPC   C1B10519  37.592  19.621   8.748
  566POPC   C2B10520  37.487  19.710   8.289
  566POPC   C3B10521  37.419  19.705   7.810
  566POPC   C4B10522  37.524  19.712   7.351
  567POPC   NC310523  39.358  18.524   9.492
  567POPC   PO410524  38.906  18.005   9.508
  567POPC   GL110525  39.148  18.035   9.126
  567POPC   GL210526  39.307  18.325   9.035
  567POPC   C1A10527  39.304  17.774   8.795
  567POPC   D2A10528  39.454  17.681   8.378
  567POPC   C3A10529  39.415  18.088   8.184
  567POPC   C4A10530  39.207  18.284   7.854
  567POPC   C1B10531  38.964  18.484   8.809
  567POPC   C2B10532  38.999  18.424   8.364
  567POPC   C3B10533  38.824  18.604   8.009
  567POPC   C4B10534  38.829  18.468   7.577
  568POPC   NC310535   0.473  14.893   9.566
  568POPC   PO410536   1.154  14.512   9.614
  568POPC   GL110537   1.201  14.314   9.208
  568POPC   GL210538   0.852  14.378   9.063
  568POPC   C1A10539   1.292  14.381   8.803
  568POPC   D2A10540   1.494  14.487   8.463
  568POPC   C3A10541   1.222  14.563   8.145
  568POPC   C4A10542   1.203  14.528   7.740
  568POPC   C1B10543   0.755  14.057   8.766
  568POPC   C2B10544   0.983  14.172   8.408
  568POPC   C3B10545   1.058  14.066   7.976
  568POPC   C4B10546   1.043  14.103   7.511
  569POPC   NC310547  11.791  25.448   9.857
  569POPC   PO410548  11.194  25.492   9.519
  569POPC   GL110549  11.329  25.420   9.064
  569POPC   GL210550  11.681  25.368   9.022
  569POPC   C1A10551  11.162  25.279   8.678
  569POPC   D2A10552  11.276  25.429   8.245
  569POPC   C3A10553  10.993  25.265   7.915
  569POPC   C4A10554  11.137  24.978   7.562
  569POPC   C1B10555  11.517  24.932   8.836
  569POPC   C2B10556  11.427  24.935   8.399
  569POPC   C3B10557  11.456  25.018   7.967
  569POPC   C4B10558  11.624  24.760   7.658
  570POPC   NC310559  18.546   0.873   9.379
  570POPC   PO410560  18.110   0.287   9.393
  570POPC   GL110561  18.288   0.491   9.107
  570POPC   GL210562  17.985   0.571   8.959
  570POPC   C1A10563  18.449   0.526   8.709
  570POPC   D2A10564  18.708   0.645   8.372
  570POPC   C3A10565  18.423   0.661   8.082
  570POPC   C4A10566  18.274   0.315   7.937
  570POPC   C1B10567  17.952   0.231   8.702
  570POPC   C2B10568  18.006   0.063   8.287
  570POPC   C3B10569  17.794   0.194   7.891
  570POPC   C4B10570  17.901   0.160   7.416
  571POPC   NC310571  21.440  17.122   9.638
  571POPC   PO410572  20.978  17.472   9.449
  571POPC   GL110573  21.223  17.493   9.092
  571POPC   GL210574  21.583  17.360   9.190
  571POPC   C1A10575  21.072  17.462   8.665
  571POPC   D2A10576  20.893  17.365   8.276
  571POPC   C3A10577  21.107  17.548   7.929
  571POPC   C4A10578  21.216  17.921   7.651
  571POPC   C1B10579  21.527  17.211   8.772
  571POPC   C2B10580  21.636  16.989   8.398
  571POPC   C3B10581  21.513  17.172   8.010
  571POPC   C4B10582  21.758  17.266   7.668
  572POPC   NC310583  13.894   7.010   9.749
  572POPC   PO410584  13.850   6.347   9.776
  572POPC   GL110585  13.765   6.487   9.319
  572POPC   GL210586  13.528   6.788   9.353
  572POPC   C1A10587  13.686   6.387   8.857
  572POPC   D2A10588  13.540   6.597   8.476
  572POPC   C3A10589  13.717   6.633   8.046
  572POPC   C4A10590  13.575   6.368   7.712
  572POPC   C1B10591  13.577   6.913   8.919
  572POPC   C2B10592  13.314   7.041   8.572
  572POPC   C3B10593  13.264   7.004   8.132
  572POPC   C4B10594  13.436   7.180   7.747
  573POPC   NC310595  44.516  43.337   9.568
  573POPC   PO410596  44.325  42.730   9.385
  573POPC   GL110597  44.542  43.097   9.125
  573POPC   GL210598  44.391  43.464   9.092
  573POPC   C1A10599  44.854  43.229   8.818
  573POPC   D2A10600  44.856  43.003   8.442
  573POPC   C3A10601  44.998  43.146   8.068
  573POPC   C4A10602  44.873  43.158   7.652
  573POPC   C1B10603  44.348  43.242   8.681
  573POPC   C2B10604  44.078  43.169   8.332
  573POPC   C3B10605  44.201  43.102   7.862
  573POPC   C4B10606  44.302  43.327   7.424
  574POPC   NC310607  19.777  30.308   9.413
  574POPC   PO410608  19.968  30.974   9.501
  574POPC   GL110609  19.883  30.822   9.107
  574POPC   GL210610  19.588  30.646   9.057
  574POPC   C1A10611  19.853  30.888   8.668
  574POPC   D2A10612  19.655  31.071   8.330
  574POPC   C3A10613  19.776  30.849   7.973
  574POPC   C4A10614  20.117  30.779   7.724
  574POPC   C1B10615  19.610  30.439   8.671
  574POPC   C2B10616  19.478  30.568   8.305
  574POPC   C3B10617  19.420  30.447   7.913
  574POPC   C4B10618  19.813  30.376   7.753
  575POPC   NC310619  10.589  23.441   9.411
  575POPC   PO410620  10.736  24.147   9.458
  575POPC   GL110621  10.811  23.842   9.149
  575POPC   GL210622  10.460  23.810   9.051
  575POPC   C1A10623  10.838  23.771   8.700
  575POPC   D2A10624  10.970  23.828   8.263
  575POPC   C3A10625  10.680  23.769   7.921
  575POPC   C4A10626  10.307  24.027   7.881
  575POPC   C1B10627  10.197  23.891   8.664
  575POPC   C2B10628  10.062  23.715   8.242
  575POPC   C3B10629  10.260  23.478   7.909
  575POPC   C4B10630  10.619  23.338   7.627
  576POPC   NC310631  27.459  33.190   9.524
  576POPC   PO410632  28.009  32.837   9.715
  576POPC   GL110633  27.852  32.767   9.258
  576POPC   GL210634  27.505  32.842   9.159
  576POPC   C1A10635  27.859  32.936   8.781
  576POPC   D2A10636  27.692  33.194   8.425
  576POPC   C3A10637  27.721  33.025   8.017
  576POPC   C4A10638  27.997  33.139   7.704
  576POPC   C1B10639  27.385  33.159   8.859
  576POPC   C2B10640  27.185  33.172   8.453
  576POPC   C3B10641  27.245  33.266   8.058
  576POPC   C4B10642  27.418  33.293   7.670
  577POPC   NC310643  30.159  22.658   9.272
  577POPC   PO410644  29.826  22.105   9.678
  577POPC   GL110645  29.760  22.162   9.202
  577POPC   GL210646  29.607  22.494   9.224
  577POPC   C1A10647  29.984  21.958   8.787
  577POPC   D2A10648  30.090  21.759   8.374
  577POPC   C3A10649  29.908  21.862   8.001
  577POPC   C4A10650  30.038  22.067   7.620
  577POPC   C1B10651  29.644  22.436   8.763
  577POPC   C2B10652  29.971  22.350   8.444
  577POPC   C3B10653  30.045  22.371   8.030
  577POPC   C4B10654  29.749  22.477   7.684
  578POPC   NC310655  37.607  15.518   9.504
  578POPC   PO410656  37.867  16.191   9.648
  578POPC   GL110657  37.823  15.946   9.273
  578POPC   GL210658  37.511  15.988   9.047
  578POPC   C1A10659  37.940  15.730   8.901
  578POPC   D2A10660  37.723  15.728   8.495
  578POPC   C3A10661  37.949  15.706   8.105
  578POPC   C4A10662  37.861  15.590   7.693
  578POPC   C1B10663  37.817  16.210   8.737
  578POPC   C2B10664  37.854  16.200   8.265
  578POPC   C3B10665  37.562  16.033   7.926
  578POPC   C4B10666  37.396  15.902   7.505
  579POPC   NC310667   5.370  39.815   9.433
  579POPC   PO410668   4.784  40.226   9.417
  579POPC   GL110669   4.894  40.250   9.039
  579POPC   GL210670   5.258  40.161   9.038
  579POPC   C1A10671   4.744  40.214   8.627
  579POPC   D2A10672   4.873  39.946   8.292
  579POPC   C3A10673   5.211  40.134   8.059
  579POPC   C4A10674   4.991  40.429   7.816
  579POPC   C1B10675   5.117  39.872   8.746
  579POPC   C2B10676   5.283  39.648   8.406
  579POPC   C3B10677   5.482  39.687   7.994
  579POPC   C4B10678   5.279  39.592   7.591
  580POPC   NC310679  41.764  11.183   9.599
  580POPC   PO410680  42.460  11.363   9.530
  580POPC   GL110681  42.238  11.184   9.209
  580POPC   GL210682  42.006  11.402   9.066
  580POPC   C1A10683  42.372  11.151   8.795
  580POPC   D2A10684  42.250  11.057   8.397
  580POPC   C3A10685  42.497  11.303   8.138
  580POPC   C4A10686  42.511  11.269   7.715
  580POPC   C1B10687  42.264  11.667   8.769
  580POPC   C2B10688  42.470  11.819   8.367
  580POPC   C3B10689  42.381  11.751   7.906
  580POPC   C4B10690  41.965  11.754   7.749
  581POPC   NC310691  38.793  40.612   9.490
  581POPC   PO410692  38.172  40.867   9.592
  581POPC   GL110693  38.397  40.835   9.214
  581POPC   GL210694  38.392  40.455   9.205
  581POPC   C1A10695  38.384  41.048   8.786
  581POPC   D2A10696  38.655  41.001   8.370
  581POPC   C3A10697  38.514  41.076   7.947
  581POPC   C4A10698  38.081  41.061   7.833
  581POPC   C1B10699  38.454  40.558   8.780
  581POPC   C2B10700  38.176  40.697   8.467
  581POPC   C3B10701  38.330  40.643   8.087
  581POPC   C4B10702  38.475  40.308   7.845
  582POPC   NC310703  18.214  28.586   9.437
  582POPC   PO410704  18.443  27.897   9.470
  582POPC   GL110705  18.356  28.174   9.146
  582POPC   GL210706  18.023  28.325   9.037
  582POPC   C1A10707  18.429  28.203   8.724
  582POPC   D2A10708  18.725  28.176   8.408
  582POPC   C3A10709  18.540  28.239   8.019
  582POPC   C4A10710  18.139  28.124   7.859
  582POPC   C1B10711  18.268  28.664   8.791
  582POPC   C2B10712  18.445  28.639   8.369
  582POPC   C3B10713  18.248  28.664   7.953
  582POPC   C4B10714  17.837  28.742   7.748
  583POPC   NC310715   7.772  35.632   9.442
  583POPC   PO410716   7.376  35.072   9.362
  583POPC   GL110717   7.215  35.341   9.053
  583POPC   GL210718   7.294  35.682   9.067
  583POPC   C1A10719   7.137  35.159   8.695
  583POPC   D2A10720   7.485  35.072   8.473
  583POPC   C3A10721   7.384  35.334   8.170
  583POPC   C4A10722   7.376  35.322   7.756
  583POPC   C1B10723   7.575  35.521   8.723
  583POPC   C2B10724   7.848  35.461   8.355
  583POPC   C3B10725   7.774  35.599   7.942
  583POPC   C4B10726   7.446  35.812   7.792
  584POPC   NC310727  41.144  20.597   9.428
  584POPC   PO410728  41.785  20.335   9.499
  584POPC   GL110729  41.634  20.616   9.173
  584POPC   GL210730  41.956  20.709   9.073
  584POPC   C1A10731  41.356  20.576   8.787
  584POPC   D2A10732  41.269  20.263   8.440
  584POPC   C3A10733  41.343  20.427   8.027
  584POPC   C4A10734  41.321  20.904   7.975
  584POPC   C1B10735  41.864  20.594   8.689
  584POPC   C2B10736  41.637  20.688   8.343
  584POPC   C3B10737  41.808  20.656   7.933
  584POPC   C4B10738  41.934  20.507   7.543
  585POPC   NC310739  43.059  32.521   9.697
  585POPC   PO410740  43.072  33.203   9.522
  585POPC   GL110741  43.361  33.123   9.163
  585POPC   GL210742  43.436  32.800   9.337
  585POPC   C1A10743  43.368  33.156   8.686
  585POPC   D2A10744  43.220  33.519   8.394
  585POPC   C3A10745  43.194  33.423   7.964
  585POPC   C4A10746  42.866  33.183   7.731
  585POPC   C1B10747  43.110  32.748   8.960
  585POPC   C2B10748  43.221  32.645   8.521
  585POPC   C3B10749  43.453  32.877   8.192
  585POPC   C4B10750  43.360  32.992   7.772
  586POPC   NC310751   1.149  35.131   9.544
  586POPC   PO410752   1.189  35.802   9.591
  586POPC   GL110753   1.312  35.550   9.233
  586POPC   GL210754   1.518  35.233   9.182
  586POPC   C1A10755   1.291  35.549   8.789
  586POPC   D2A10756   1.237  35.287   8.439
  586POPC   C3A10757   1.027  35.367   8.055
  586POPC   C4A10758   1.198  35.488   7.663
  586POPC   C1B10759   1.585  35.028   8.768
  586POPC   C2B10760   1.627  34.982   8.323
  586POPC   C3B10761   1.471  35.071   7.891
  586POPC   C4B10762   1.463  34.769   7.575
  587POPC   NC310763  28.693  44.920   9.148
  587POPC   PO410764  28.636  44.481   9.676
  587POPC   GL110765  28.411  44.390   9.240
  587POPC   GL210766  28.229  44.669   9.144
  587POPC   C1A10767  28.427  44.374   8.748
  587POPC   D2A10768  28.401  44.227   8.335
  587POPC   C3A10769  28.516  44.412   7.953
  587POPC   C4A10770  28.727  44.746   7.745
  587POPC   C1B10771  28.128  44.787   8.725
  587POPC   C2B10772  28.278  44.735   8.304
  587POPC   C3B10773  28.252  44.867   7.879
  587POPC   C4B10774  28.379  44.988   7.476
  588POPC   NC310775  17.386  43.750   9.519
  588POPC   PO410776  17.661  44.429   9.643
  588POPC   GL110777  17.541  44.167   9.298
  588POPC   GL210778  17.185  44.097   9.201
  588POPC   C1A10779  17.543  44.044   8.852
  588POPC   D2A10780  17.288  44.097   8.502
  588POPC   C3A10781  17.419  44.296   8.094
  588POPC   C4A10782  17.601  44.053   7.742
  588POPC   C1B10783  17.180  43.680   8.924
  588POPC   C2B10784  17.203  43.600   8.480
  588POPC   C3B10785  17.266  43.800   8.070
  588POPC   C4B10786  17.332  43.626   7.658
  589POPC   NC310787   3.009  44.517   9.590
  589POPC   PO410788   3.514  44.899   9.368
  589POPC   GL110789   3.385  44.696   9.044
  589POPC   GL210790   3.225  44.405   9.134
  589POPC   C1A10791   3.592  44.766   8.683
  589POPC   D2A10792   3.581   0.097   8.430
  589POPC   C3A10793   3.386  44.924   8.120
  589POPC   C4A10794   3.494  44.704   7.779
  589POPC   C1B10795   3.402  44.284   8.729
  589POPC   C2B10796   3.463  44.420   8.312
  589POPC   C3B10797   3.606  44.246   7.954
  589POPC   C4B10798   3.396  44.187   7.572
  590POPC   NC310799  34.858  34.051   9.465
  590POPC   PO410800  34.802  33.401   9.374
  590POPC   GL110801  34.820  33.705   9.085
  590POPC   GL210802  34.494  33.875   9.158
  590POPC   C1A10803  34.829  33.976   8.736
  590POPC   D2A10804  35.068  34.040   8.333
  590POPC   C3A10805  34.835  33.934   7.950
  590POPC   C4A10806  34.824  33.681   7.565
  590POPC   C1B10807  34.340  34.137   8.815
  590POPC   C2B10808  34.206  34.017   8.437
  590POPC   C3B10809  34.363  34.131   8.060
  590POPC   C4B10810  34.389  33.900   7.704
  591POPC   NC310811  36.772   3.070   9.481
  591POPC   PO410812  37.155   2.542   9.380
  591POPC   GL110813  36.944   2.754   9.099
  591POPC   GL210814  37.178   3.044   9.033
  591POPC   C1A10815  36.671   2.637   8.761
  591POPC   D2A10816  36.694   2.824   8.351
  591POPC   C3A10817  36.710   2.535   8.025
  591POPC   C4A10818  37.058   2.430   7.768
  591POPC   C1B10819  36.872   3.151   8.724
  591POPC   C2B10820  36.895   3.286   8.268
  591POPC   C3B10821  36.979   3.011   7.903
  591POPC   C4B10822  37.005   2.864   7.465
  592POPC   NC310823   2.601  36.299   9.615
  592POPC   PO410824   2.708  35.745   9.262
  592POPC   GL110825   2.938  36.125   9.144
  592POPC   GL210826   2.642  36.286   9.106
  592POPC   C1A10827   2.943  36.239   8.697
  592POPC   D2A10828   2.679  35.908   8.536
  592POPC   C3A10829   2.690  35.831   8.113
  592POPC   C4A10830   2.843  36.079   7.796
  592POPC   C1B10831   2.466  36.381   8.699
  592POPC   C2B10832   2.490  36.320   8.246
  592POPC   C3B10833   2.463  36.452   7.813
  592POPC   C4B10834   2.305  36.321   7.420
  593POPC   NC310835  15.327   0.606   9.297
  593POPC   PO410836  15.108   1.178   9.697
  593POPC   GL110837  15.065   1.349   9.265
  593POPC   GL210838  15.036   1.054   9.070
  593POPC   C1A10839  15.264   1.463   8.858
  593POPC   D2A10840  15.106   1.224   8.490
  593POPC   C3A10841  15.341   1.257   8.114
  593POPC   C4A10842  15.276   1.523   7.740
  593POPC   C1B10843  14.736   0.915   8.713
  593POPC   C2B10844  14.738   0.636   8.377
  593POPC   C3B10845  14.822   0.761   7.964
  593POPC   C4B10846  14.959   1.130   7.803
  594POPC   NC310847  15.704  22.248   9.480
  594POPC   PO410848  16.376  21.971   9.432
  594POPC   GL110849  16.075  22.128   9.147
  594POPC   GL210850  16.057  22.484   9.084
  594POPC   C1A10851  16.127  22.139   8.708
  594POPC   D2A10852  15.965  21.896   8.393
  594POPC   C3A10853  16.042  22.042   8.002
  594POPC   C4A10854  16.452  21.999   7.816
  594POPC   C1B10855  15.691  22.394   8.781
  594POPC   C2B10856  15.593  22.286   8.349
  594POPC   C3B10857  15.453  22.380   7.939
  594POPC   C4B10858  15.818  22.350   7.663
  595POPC   NC310859  24.633  34.760   9.508
  595POPC   PO410860  24.240  34.229   9.275
  595POPC   GL110861  24.506  34.466   9.085
  595POPC   GL210862  24.282  34.712   9.133
  595POPC   C1A10863  24.521  34.451   8.648
  595POPC   D2A10864  24.433  34.604   8.242
  595POPC   C3A10865  24.722  34.476   7.900
  595POPC   C4A10866  24.727  34.441   7.428
  595POPC   C1B10867  24.076  34.696   8.713
  595POPC   C2B10868  24.129  35.015   8.397
  595POPC   C3B10869  24.318  35.034   7.971
  595POPC   C4B10870  24.264  34.624   7.744
  596POPC   NC310871  30.313  40.760   9.733
  596POPC   PO410872  30.881  40.984   9.593
  596POPC   GL110873  30.621  40.797   9.284
  596POPC   GL210874  30.661  41.099   9.107
  596POPC   C1A10875  30.692  40.625   8.865
  596POPC   D2A10876  30.816  40.730   8.438
  596POPC   C3A10877  30.775  40.473   8.044
  596POPC   C4A10878  30.645  40.623   7.619
  596POPC   C1B10879  30.505  41.235   8.743
  596POPC   C2B10880  30.401  41.046   8.396
  596POPC   C3B10881  30.539  40.929   8.031
  596POPC   C4B10882  30.365  41.105   7.710
  597POPC   NC310883  21.961  31.952   9.693
  597POPC   PO410884  22.157  32.556   9.732
  597POPC   GL110885  22.054  32.287   9.308
  597POPC   GL210886  22.385  32.280   9.109
  597POPC   C1A10887  21.953  32.203   8.849
  597POPC   D2A10888  21.923  32.333   8.431
  597POPC   C3A10889  22.083  32.125   8.096
  597POPC   C4A10890  21.967  32.260   7.715
  597POPC   C1B10891  22.429  31.984   8.805
  597POPC   C2B10892  22.442  32.201   8.449
  597POPC   C3B10893  22.608  32.342   8.068
  597POPC   C4B10894  22.473  32.205   7.699
  598POPC   NC310895  39.697  15.162   9.478
  598POPC   PO410896  40.067  15.660   9.583
  598POPC   GL110897  40.099  15.381   9.240
  598POPC   GL210898  40.293  15.557   9.097
  598POPC   C1A10899  40.083  15.146   8.831
  598POPC   D2A10900  39.838  15.094   8.453
  598POPC   C3A10901  39.931  14.831   8.079
  598POPC   C4A10902  39.806  14.903   7.636
  598POPC   C1B10903  40.469  15.533   8.737
  598POPC   C2B10904  40.200  15.491   8.416
  598POPC   C3B10905  40.060  15.335   8.040
  598POPC   C4B10906  40.277  15.224   7.708
  599POPC   NC310907  32.856  17.209   9.558
  599POPC   PO410908  33.281  17.769   9.407
  599POPC   GL110909  33.262  17.373   9.252
  599POPC   GL210910  32.946  17.489   9.144
  599POPC   C1A10911  33.302  17.356   8.825
  599POPC   D2A10912  33.167  17.639   8.506
  599POPC   C3A10913  33.200  17.491   8.111
  599POPC   C4A10914  33.208  17.547   7.678
  599POPC   C1B10915  32.793  17.386   8.763
  599POPC   C2B10916  32.675  17.566   8.377
  599POPC   C3B10917  32.731  17.571   7.937
  599POPC   C4B10918  32.757  17.385   7.517
  600POPC   NC310919   2.949   6.167   9.200
  600POPC   PO410920   2.784   5.641   9.540
  600POPC   GL110921   2.630   5.733   9.105
  600POPC   GL210922   2.479   6.080   8.998
  600POPC   C1A10923   2.737   5.823   8.653
  600POPC   D2A10924   3.010   6.168   8.532
  600POPC   C3A10925   3.089   6.271   8.074
  600POPC   C4A10926   3.034   5.933   7.777
  600POPC   C1B10927   2.440   6.238   8.576
  600POPC   C2B10928   2.572   6.248   8.155
  600POPC   C3B10929   2.472   6.051   7.766
  600POPC   C4B10930   2.321   6.153   7.336
  601POPC   NC310931  31.292  10.400   9.709
  601POPC   PO410932  31.065  11.043   9.495
  601POPC   GL110933  31.305  10.840   9.122
  601POPC   GL210934  31.452  10.492   9.154
  601POPC   C1A10935  31.203  10.629   8.720
  601POPC   D2A10936  31.358  10.738   8.346
  601POPC   C3A10937  31.258  10.576   7.966
  601POPC   C4A10938  31.424  10.809   7.627
  601POPC   C1B10939  31.697  10.688   8.761
  601POPC   C2B10940  31.822  10.540   8.325
  601POPC   C3B10941  31.738  10.475   7.871
  601POPC   C4B10942  31.759  10.307   7.445
  602POPC   NC310943   8.112  42.149   9.667
  602POPC   PO410944   8.504  42.703   9.534
  602POPC   GL110945   8.191  42.498   9.220
  602POPC   GL210946   8.061  42.132   9.175
  602POPC   C1A10947   8.039  42.457   8.794
  602POPC   D2A10948   8.107  42.361   8.388
  602POPC   C3A10949   7.788  42.407   8.073
  602POPC   C4A10950   7.905  42.181   7.715
  602POPC   C1B10951   8.450  42.140   8.941
  602POPC   C2B10952   8.601  42.140   8.509
  602POPC   C3B10953   8.475  42.196   8.076
  602POPC   C4B10954   8.400  41.998   7.724
  603POPC   NC310955   4.123  15.482   9.674
  603POPC   PO410956   4.379  16.108   9.635
  603POPC   GL110957   4.424  16.046   9.178
  603POPC   GL210958   4.292  15.715   9.217
  603POPC   C1A10959   4.512  16.176   8.721
  603POPC   D2A10960   4.258  16.081   8.341
  603POPC   C3A10961   4.432  16.082   7.919
  603POPC   C4A10962   4.225  16.376   7.649
  603POPC   C1B10963   4.171  15.817   8.783
  603POPC   C2B10964   4.526  15.679   8.502
  603POPC   C3B10965   4.610  15.564   8.084
  603POPC   C4B10966   4.265  15.602   7.785
  604POPC   NC310967  11.049  41.318   9.553
  604POPC   PO410968  11.680  41.622   9.430
  604POPC   GL110969  11.449  41.566   9.086
  604POPC   GL210970  11.127  41.703   9.214
  604POPC   C1A10971  11.496  41.398   8.643
  604POPC   D2A10972  11.696  41.413   8.214
  604POPC   C3A10973  11.503  41.508   7.779
  604POPC   C4A10974  11.421  41.283   7.362
  604POPC   C1B10975  11.104  41.745   8.754
  604POPC   C2B10976  11.129  41.635   8.332
  604POPC   C3B10977  11.065  41.809   7.915
  604POPC   C4B10978  10.983  41.620   7.533
  605POPC   NC310979  13.080  11.609   9.493
  605POPC   PO410980  13.191  10.881   9.495
  605POPC   GL110981  13.215  11.213   9.183
  605POPC   GL210982  12.883  11.318   9.123
  605POPC   C1A10983  13.172  11.216   8.711
  605POPC   D2A10984  12.856  11.231   8.368
  605POPC   C3A10985  12.967  11.280   7.951
  605POPC   C4A10986  13.007  11.169   7.519
  605POPC   C1B10987  12.729  11.545   8.769
  605POPC   C2B10988  12.880  11.740   8.398
  605POPC   C3B10989  12.725  11.739   8.007
  605POPC   C4B10990  12.753  11.612   7.620
  606POPC   NC310991  25.168   6.515   9.556
  606POPC   PO410992  25.770   6.587   9.328
  606POPC   GL110993  25.451   6.779   9.075
  606POPC   GL210994  25.077   6.763   9.125
  606POPC   C1A10995  25.290   6.694   8.649
  606POPC   D2A10996  25.241   6.566   8.217
  606POPC   C3A10997  25.554   6.721   7.935
  606POPC   C4A10998  25.614   6.374   7.679
  606POPC   C1B10999  24.824   6.534   8.823
  606POPC   C2B11000  24.764   6.549   8.397
  606POPC   C3B11001  24.788   6.443   7.955
  606POPC   C4B11002  25.127   6.564   7.686
  607POPC   NC311003  40.246  11.905   9.507
  607POPC   PO411004  39.715  12.463   9.563
  607POPC   GL111005  39.946  12.285   9.236
  607POPC   GL211006  39.874  11.948   9.182
  607POPC   C1A11007  40.055  12.248   8.796
  607POPC   D2A11008  39.775  12.345   8.445
  607POPC   C3A11009  39.916  12.327   8.026
  607POPC   C4A11010  40.169  12.051   7.784
  607POPC   C1B11011  39.951  11.700   8.799
  607POPC   C2B11012  40.038  11.595   8.364
  607POPC   C3B11013  39.810  11.780   8.020
  607POPC   C4B11014  39.805  11.721   7.572
  608POPC   NC311015   3.100  21.319   9.512
  608POPC   PO411016   3.788  21.301   9.664
  608POPC   GL111017   3.644  21.277   9.238
  608POPC   GL211018   3.380  21.517   9.124
  608POPC   C1A11019   3.755  21.349   8.805
  608POPC   D2A11020   3.557  21.242   8.409
  608POPC   C3A11021   3.727  21.385   8.023
  608POPC   C4A11022   3.868  21.460   7.591
  608POPC   C1B11023   3.352  21.699   8.709
  608POPC   C2B11024   3.270  21.913   8.305
  608POPC   C3B11025   3.179  21.730   7.897
  608POPC   C4B11026   2.995  21.713   7.468
  609POPC   NC311027  28.646  15.491   9.460
  609POPC   PO411028  28.189  15.096   9.637
  609POPC   GL111029  28.161  15.120   9.189
  609POPC   GL211030  28.194  15.456   9.182
  609POPC   C1A11031  28.285  14.964   8.752
  609POPC   D2A11032  28.496  14.950   8.337
  609POPC   C3A11033  28.184  14.920   8.021
  609POPC   C4A11034  27.805  14.845   7.812
  609POPC   C1B11035  28.414  15.465   8.788
  609POPC   C2B11036  28.250  15.410   8.366
  609POPC   C3B11037  28.401  15.392   7.938
  609POPC   C4B11038  28.658  15.423   7.531
  610POPC   NC311039  14.220  12.798   9.542
  610POPC   PO411040  14.567  13.348   9.506
  610POPC   GL111041  14.556  12.969   9.202
  610POPC   GL211042  14.749  12.665   9.246
  610POPC   C1A11043  14.347  12.752   8.856
  610POPC   D2A11044  14.307  13.018   8.500
  610POPC   C3A11045  14.314  12.887   8.100
  610POPC   C4A11046  14.386  12.950   7.702
  610POPC   C1B11047  14.791  12.498   8.817
  610POPC   C2B11048  14.622  12.561   8.398
  610POPC   C3B11049  14.705  12.575   7.940
  610POPC   C4B11050  14.604  12.543   7.489
  611POPC   NC311051  28.530  41.170   9.431
  611POPC   PO411052  28.104  40.672   9.371
  611POPC   GL111053  28.536  40.730   9.107
  611POPC   GL211054  28.691  41.070   8.969
  611POPC   C1A11055  28.619  40.677   8.665
  611POPC   D2A11056  28.639  40.995   8.350
  611POPC   C3A11057  28.543  40.892   7.917
  611POPC   C4A11058  28.662  40.487   7.771
  611POPC   C1B11059  28.314  41.102   8.743
  611POPC   C2B11060  28.164  40.800   8.431
  611POPC   C3B11061  28.067  40.708   8.007
  611POPC   C4B11062  27.879  40.980   7.683
  612POPC   NC311063  16.342   1.937   9.492
  612POPC   PO411064  16.906   2.224   9.711
  612POPC   GL111065  16.780   2.188   9.290
  612POPC   GL211066  16.833   1.833   9.351
  612POPC   C1A11067  16.826   2.226   8.825
  612POPC   D2A11068  16.603   2.015   8.456
  612POPC   C3A11069  16.575   2.195   8.037
  612POPC   C4A11070  16.892   2.134   7.696
  612POPC   C1B11071  16.670   1.743   8.927
  612POPC   C2B11072  16.685   1.500   8.551
  612POPC   C3B11073  16.632   1.590   8.139
  612POPC   C4B11074  16.493   1.795   7.761
  613POPC   NC311075   8.735   3.909   9.508
  613POPC   PO411076   9.019   4.563   9.512
  613POPC   GL111077   9.064   4.419   9.140
  613POPC   GL211078   9.046   4.080   9.111
  613POPC   C1A11079   8.869   4.425   8.755
  613POPC   D2A11080   9.000   4.526   8.373
  613POPC   C3A11081   8.667   4.667   8.100
  613POPC   C4A11082   8.733   4.663   7.668
  613POPC   C1B11083   8.934   3.925   8.691
  613POPC   C2B11084   8.727   4.100   8.294
  613POPC   C3B11085   8.924   4.248   7.940
  613POPC   C4B11086   9.168   3.981   7.677
  614POPC   NC311087  22.427  17.027   9.772
  614POPC   PO411088  21.837  16.958   9.483
  614POPC   GL111089  22.082  17.109   9.152
  614POPC   GL211090  22.370  17.370   9.195
  614POPC   C1A11091  22.042  17.370   8.791
  614POPC   D2A11092  22.303  17.411   8.425
  614POPC   C3A11093  22.119  17.314   8.040
  614POPC   C4A11094  22.149  17.586   7.673
  614POPC   C1B11095  22.508  17.677   8.842
  614POPC   C2B11096  22.603  17.809   8.403
  614POPC   C3B11097  22.608  17.657   7.966
  614POPC   C4B11098  22.597  17.897   7.577
  615POPC   NC311099   9.998   8.341   9.495
  615POPC   PO411100  10.680   8.361   9.433
  615POPC   GL111101  10.372   8.244   9.147
  615POPC   GL211102  10.326   7.927   9.184
  615POPC   C1A11103  10.313   8.394   8.742
  615POPC   D2A11104  10.534   8.295   8.381
  615POPC   C3A11105  10.354   8.445   8.009
  615POPC   C4A11106  10.465   8.378   7.619
  615POPC   C1B11107  10.592   7.943   8.790
  615POPC   C2B11108  10.653   7.773   8.358
  615POPC   C3B11109  10.598   7.981   7.962
  615POPC   C4B11110  10.491   7.866   7.559
  616POPC   NC311111  20.826  39.101   9.530
  616POPC   PO411112  20.216  39.276   9.567
  616POPC   GL111113  20.381  39.287   9.124
  616POPC   GL211114  20.722  39.175   9.041
  616POPC   C1A11115  20.458  39.457   8.689
  616POPC   D2A11116  20.813  39.495   8.389
  616POPC   C3A11117  20.652  39.416   8.003
  616POPC   C4A11118  20.411  39.071   7.871
  616POPC   C1B11119  20.935  39.057   8.655
  616POPC   C2B11120  20.768  38.947   8.245
  616POPC   C3B11121  20.917  39.016   7.816
  616POPC   C4B11122  21.005  38.985   7.367
  617POPC   NC311123  20.099  17.049   9.463
  617POPC   PO411124  19.753  16.486   9.608
  617POPC   GL111125  19.697  16.786   9.292
  617POPC   GL211126  19.998  16.638   9.151
  617POPC   C1A11127  19.632  16.911   8.869
  617POPC   D2A11128  19.555  16.911   8.412
  617POPC   C3A11129  19.785  16.697   8.114
  617POPC   C4A11130  19.725  16.784   7.723
  617POPC   C1B11131  20.184  16.878   8.825
  617POPC   C2B11132  20.164  16.857   8.395
  617POPC   C3B11133  20.193  16.975   7.933
  617POPC   C4B11134  20.141  16.923   7.473
  618POPC   NC311135  43.472  24.247   9.603
  618POPC   PO411136  42.851  24.573   9.491
  618POPC   GL111137  43.124  24.388   9.235
  618POPC   GL211138  43.255  24.719   9.182
  618POPC   C1A11139  43.194  24.235   8.803
  618POPC   D2A11140  43.526  24.147   8.463
  618POPC   C3A11141  43.374  24.160   8.044
  618POPC   C4A11142  43.018  24.087   7.774
  618POPC   C1B11143  42.910  24.665   8.842
  618POPC   C2B11144  42.787  24.435   8.470
  618POPC   C3B11145  42.959  24.503   8.068
  618POPC   C4B11146  42.888  24.687   7.668
  619POPC   NC311147   5.733  18.550   9.509
  619POPC   PO411148   5.758  17.837   9.336
  619POPC   GL111149   5.731  18.187   9.122
  619POPC   GL211150   6.037  18.380   9.159
  619POPC   C1A11151   5.587  18.268   8.700
  619POPC   D2A11152   5.900  18.323   8.352
  619POPC   C3A11153   5.820  18.207   7.942
  619POPC   C4A11154   5.969  18.444   7.593
  619POPC   C1B11155   6.167  18.285   8.782
  619POPC   C2B11156   6.432  18.228   8.456
  619POPC   C3B11157   6.323  18.165   8.040
  619POPC   C4B11158   6.436  18.105   7.627
  620POPC   NC311159   6.478  16.563   9.423
  620POPC   PO411160   6.800  17.129   9.618
  620POPC   GL111161   6.616  17.027   9.209
  620POPC   GL211162   6.865  16.779   9.193
  620POPC   C1A11163   6.521  16.779   8.809
  620POPC   D2A11164   6.410  16.939   8.428
  620POPC   C3A11165   6.473  16.713   8.072
  620POPC   C4A11166   6.753  16.709   7.797
  620POPC   C1B11167   7.013  16.971   8.847
  620POPC   C2B11168   6.930  17.063   8.430
  620POPC   C3B11169   7.115  16.978   8.066
  620POPC   C4B11170   7.066  17.101   7.680
  621POPC   NC311171  23.734  24.209   9.465
  621POPC   PO411172  23.956  24.815   9.534
  621POPC   GL111173  24.143  24.489   9.239
  621POPC   GL211174  23.845  24.543   9.105
  621POPC   C1A11175  24.044  24.193   8.833
  621POPC   D2A11176  23.816  24.226   8.411
  621POPC   C3A11177  23.989  24.307   7.985
  621POPC   C4A11178  23.882  24.510   7.540
  621POPC   C1B11179  23.702  24.627   8.734
  621POPC   C2B11180  23.460  24.599   8.375
  621POPC   C3B11181  23.582  24.694   7.954
  621POPC   C4B11182  23.386  24.574   7.580
  622POPC   NC311183  12.728  39.346   9.561
  622POPC   PO411184  13.324  39.610   9.495
  622POPC   GL111185  13.004  39.453   9.154
  622POPC   GL211186  12.905  39.061   9.185
  622POPC   C1A11187  12.901  39.326   8.728
  622POPC   D2A11188  13.175  39.263   8.367
  622POPC   C3A11189  13.059  39.526   8.051
  622POPC   C4A11190  12.791  39.286   7.812
  622POPC   C1B11191  12.598  38.923   8.872
  622POPC   C2B11192  12.657  38.911   8.407
  622POPC   C3B11193  12.724  38.737   7.966
  622POPC   C4B11194  12.712  38.860   7.536
  623POPC   NC311195  33.669  22.897   9.515
  623POPC   PO411196  34.226  23.129   9.422
  623POPC   GL111197  34.011  22.888   9.111
  623POPC   GL211198  33.727  23.031   9.018
  623POPC   C1A11199  33.861  22.726   8.662
  623POPC   D2A11200  33.693  22.886   8.256
  623POPC   C3A11201  33.964  22.780   7.883
  623POPC   C4A11202  34.355  22.623   7.695
  623POPC   C1B11203  33.532  23.259   8.672
  623POPC   C2B11204  33.484  23.380   8.197
  623POPC   C3B11205  33.530  23.116   7.809
  623POPC   C4B11206  33.568  22.744   7.550
  624POPC   NC311207  10.725  25.562   9.585
  624POPC   PO411208  10.251  25.187   9.383
  624POPC   GL111209  10.610  25.065   9.186
  624POPC   GL211210  10.842  25.322   9.152
  624POPC   C1A11211  10.620  25.056   8.757
  624POPC   D2A11212  10.367  25.291   8.497
  624POPC   C3A11213  10.495  25.132   8.114
  624POPC   C4A11214  10.238  25.006   7.779
  624POPC   C1B11215  10.732  25.554   8.795
  624POPC   C2B11216  10.803  25.500   8.385
  624POPC   C3B11217  10.616  25.639   8.066
  624POPC   C4B11218  10.505  25.457   7.716
  625POPC   NC311219  25.042  26.632   9.792
  625POPC   PO411220  25.385  27.019   9.285
  625POPC   GL111221  25.404  26.863   8.928
  625POPC   GL211222  25.645  26.668   9.017
  625POPC   C1A11223  25.267  26.757   8.510
  625POPC   D2A11224  25.252  26.595   8.093
  625POPC   C3A11225  25.044  26.898   7.797
  625POPC   C4A11226  24.909  27.057   7.370
  625POPC   C1B11227  25.764  26.714   8.599
  625POPC   C2B11228  25.722  26.961   8.257
  625POPC   C3B11229  25.579  26.913   7.873
  625POPC   C4B11230  25.632  26.480   7.778
  626POPC   NC311231  44.813  12.828   9.690
  626POPC   PO411232   0.034  13.466   9.454
  626POPC   GL111233  44.769  13.117   9.191
  626POPC   GL211234  44.737  12.727   9.211
  626POPC   C1A11235  44.508  12.967   8.819
  626POPC   D2A11236  44.524  13.022   8.378
  626POPC   C3A11237  44.388  12.664   8.115
  626POPC   C4A11238  44.440  12.823   7.690
  626POPC   C1B11239  44.918  12.632   8.836
  626POPC   C2B11240  44.814  12.602   8.418
  626POPC   C3B11241  44.871  12.824   8.009
  626POPC   C4B11242  44.907  12.635   7.616
  627POPC   NC311243   8.004   1.561   9.584
  627POPC   PO411244   8.184   2.206   9.508
  627POPC   GL111245   8.310   1.868   9.229
  627POPC   GL211246   8.465   1.547   9.320
  627POPC   C1A11247   8.120   1.772   8.820
  627POPC   D2A11248   8.280   1.697   8.397
  627POPC   C3A11249   8.135   2.048   8.135
  627POPC   C4A11250   7.789   1.936   7.939
  627POPC   C1B11251   8.521   1.424   8.894
  627POPC   C2B11252   8.519   1.229   8.486
  627POPC   C3B11253   8.486   1.317   8.067
  627POPC   C4B11254   8.318   1.673   7.850
  628POPC   NC311255  43.959   9.032   9.583
  628POPC   PO411256  43.662   9.421   9.184
  628POPC   GL111257  43.687   8.943   9.114
  628POPC   GL211258  44.032   8.765   9.164
  628POPC   C1A11259  43.593   8.725   8.706
  628POPC   D2A11260  43.400   8.742   8.263
  628POPC   C3A11261  43.646   8.993   7.955
  628POPC   C4A11262  43.941   9.311   8.084
  628POPC   C1B11263  44.162   8.797   8.749
  628POPC   C2B11264  43.953   8.804   8.341
  628POPC   C3B11265  44.062   8.702   7.935
  628POPC   C4B11266  44.110   9.057   7.670
  629POPC   NC311267  14.187   9.206   9.439
  629POPC   PO411268  14.674   8.694   9.526
  629POPC   GL111269  14.386   8.702   9.191
  629POPC   GL211270  14.495   9.031   9.042
  629POPC   C1A11271  14.202   8.733   8.777
  629POPC   D2A11272  14.371   8.899   8.402
  629POPC   C3A11273  14.307   8.722   8.018
  629POPC   C4A11274  14.596   8.895   7.780
  629POPC   C1B11275  14.157   9.239   8.768
  629POPC   C2B11276  14.007   9.350   8.368
  629POPC   C3B11277  14.221   9.233   8.015
  629POPC   C4B11278  14.198   9.211   7.590
  630POPC   NC311279   0.799  17.464   9.561
  630POPC   PO411280   0.244  17.137   9.512
  630POPC   GL111281   0.478  17.266   9.186
  630POPC   GL211282   0.410  17.591   9.172
  630POPC   C1A11283   0.313  17.240   8.794
  630POPC   D2A11284   0.349  17.453   8.375
  630POPC   C3A11285   0.343  17.208   7.977
  630POPC   C4A11286   0.246  17.385   7.563
  630POPC   C1B11287   0.543  17.704   8.791
  630POPC   C2B11288   0.793  17.375   8.588
  630POPC   C3B11289   0.803  17.361   8.130
  630POPC   C4B11290   0.605  17.669   7.864
  631POPC   NC311291  36.197  16.417   9.595
  631POPC   PO411292  36.116  15.756   9.587
  631POPC   GL111293  36.049  15.984   9.244
  631POPC   GL211294  35.803  16.241   9.275
  631POPC   C1A11295  36.133  15.937   8.835
  631POPC   D2A11296  36.100  15.726   8.460
  631POPC   C3A11297  36.145  15.947   8.055
  631POPC   C4A11298  36.325  16.287   7.827
  631POPC   C1B11299  35.822  16.351   8.845
  631POPC   C2B11300  35.953  16.244   8.439
  631POPC   C3B11301  35.842  16.365   7.973
  631POPC   C4B11302  35.818  16.289   7.496
  632POPC   NC311303  19.533  23.820   9.432
  632POPC   PO411304  20.116  23.615   9.648
  632POPC   GL111305  19.973  23.656   9.207
  632POPC   GL211306  19.708  23.389   9.176
  632POPC   C1A11307  19.847  23.838   8.781
  632POPC   D2A11308  19.547  23.674   8.439
  632POPC   C3A11309  19.602  23.819   7.986
  632POPC   C4A11310  19.652  23.909   7.504
  632POPC   C1B11311  19.938  23.339   8.801
  632POPC   C2B11312  19.815  23.228   8.391
  632POPC   C3B11313  19.898  23.313   7.969
  632POPC   C4B11314  19.688  23.436   7.633
  633POPC   NC311315  19.353  16.258   9.518
  633POPC   PO411316  18.969  16.868   9.521
  633POPC   GL111317  19.125  16.720   9.133
  633POPC   GL211318  18.769  16.696   9.090
  633POPC   C1A11319  19.251  16.620   8.694
  633POPC   D2A11320  19.412  16.409   8.317
  633POPC   C3A11321  19.279  16.689   7.987
  633POPC   C4A11322  19.274  16.888   7.565
  633POPC   C1B11323  18.772  16.493   8.745
  633POPC   C2B11324  18.903  16.394   8.357
  633POPC   C3B11325  18.767  16.549   7.998
  633POPC   C4B11326  18.926  16.528   7.635
  634POPC   NC311327   6.884   6.875   9.759
  634POPC   PO411328   6.209   7.106   9.635
  634POPC   GL111329   6.185   6.948   9.119
  634POPC   GL211330   6.330   6.602   9.025
  634POPC   C1A11331   6.348   6.976   8.691
  634POPC   D2A11332   6.588   6.946   8.323
  634POPC   C3A11333   6.462   6.609   8.066
  634POPC   C4A11334   6.359   6.588   7.643
  634POPC   C1B11335   6.727   6.641   8.741
  634POPC   C2B11336   7.030   6.668   8.389
  634POPC   C3B11337   6.962   6.469   8.021
  634POPC   C4B11338   6.877   6.552   7.630
  635POPC   NC311339   5.904   3.116   9.556
  635POPC   PO411340   5.705   2.462   9.612
  635POPC   GL111341   5.829   2.718   9.228
  635POPC   GL211342   5.577   2.980   9.157
  635POPC   C1A11343   5.917   2.914   8.808
  635POPC   D2A11344   5.844   2.699   8.402
  635POPC   C3A11345   5.916   2.793   7.983
  635POPC   C4A11346   6.067   2.794   7.573
  635POPC   C1B11347   5.440   2.732   8.813
  635POPC   C2B11348   5.335   2.683   8.385
  635POPC   C3B11349   5.511   2.471   8.070
  635POPC   C4B11350   5.682   2.466   7.654
  636POPC   NC311351  13.098  37.219   9.514
  636POPC   PO411352  12.846  36.578   9.608
  636POPC   GL111353  12.895  36.775   9.208
  636POPC   GL211354  12.815  37.148   9.094
  636POPC   C1A11355  12.878  36.737   8.771
  636POPC   D2A11356  12.575  36.717   8.461
  636POPC   C3A11357  12.809  36.921   8.162
  636POPC   C4A11358  13.112  36.751   7.869
  636POPC   C1B11359  13.186  37.334   8.844
  636POPC   C2B11360  13.292  37.458   8.413
  636POPC   C3B11361  13.137  37.268   7.982
  636POPC   C4B11362  12.724  37.273   7.799
  637POPC   NC311363   8.037  44.673   9.511
  637POPC   PO411364   8.655  44.492   9.724
  637POPC   GL111365   8.389  44.493   9.214
  637POPC   GL211366   8.097  44.634   9.018
  637POPC   C1A11367   8.438  44.346   8.771
  637POPC   D2A11368   8.384  44.690   8.494
  637POPC   C3A11369   8.440  44.688   8.049
  637POPC   C4A11370   8.370  44.849   7.637
  637POPC   C1B11371   7.962  44.925   8.724
  637POPC   C2B11372   7.949  44.962   8.294
  637POPC   C3B11373   7.946  44.728   7.925
  637POPC   C4B11374   7.694  44.390   7.775
  638POPC   NC311375  37.981  32.942   9.556
  638POPC   PO411376  37.496  33.331   9.809
  638POPC   GL111377  37.569  33.141   9.304
  638POPC   GL211378  37.873  33.243   9.171
  638POPC   C1A11379  37.778  32.854   8.885
  638POPC   D2A11380  37.671  32.697   8.429
  638POPC   C3A11381  37.688  32.795   7.996
  638POPC   C4A11382  38.022  32.859   7.706
  638POPC   C1B11383  37.613  33.305   8.809
  638POPC   C2B11384  37.892  33.187   8.453
  638POPC   C3B11385  37.893  33.273   8.005
  638POPC   C4B11386  37.597  33.201   7.679
  639POPC   NC311387  10.714  38.120   9.730
  639POPC   PO411388  10.306  38.635   9.798
  639POPC   GL111389  10.482  38.420   9.393
  639POPC   GL211390  10.758  38.625   9.274
  639POPC   C1A11391  10.381  38.175   8.977
  639POPC   D2A11392  10.393  38.298   8.515
  639POPC   C3A11393  10.587  38.129   8.126
  639POPC   C4A11394  10.414  38.296   7.757
  639POPC   C1B11395  10.756  38.511   8.856
  639POPC   C2B11396  10.926  38.392   8.461
  639POPC   C3B11397  10.786  38.587   8.111
  639POPC   C4B11398  10.882  38.541   7.697
  640POPC   NC311399  26.301  19.445   9.668
  640POPC   PO411400  26.824  19.858   9.517
  640POPC   GL111401  26.893  19.797   9.119
  640POPC   GL211402  27.082  19.480   9.162
  640POPC   C1A11403  26.734  19.973   8.739
  640POPC   D2A11404  26.790  19.845   8.350
  640POPC   C3A11405  26.920  20.147   8.095
  640POPC   C4A11406  26.696  20.141   7.737
  640POPC   C1B11407  26.951  19.484   8.705
  640POPC   C2B11408  27.035  19.405   8.245
  640POPC   C3B11409  27.061  19.697   7.861
  640POPC   C4B11410  27.179  19.623   7.384
  641POPC   NC311411   6.783  41.767   9.673
  641POPC   PO411412   6.961  41.060   9.620
  641POPC   GL111413   6.860  41.298   9.227
  641POPC   GL211414   6.639  41.551   9.227
  641POPC   C1A11415   6.629  41.251   8.823
  641POPC   D2A11416   6.753  41.190   8.398
  641POPC   C3A11417   6.580  41.325   7.997
  641POPC   C4A11418   6.734  41.385   7.559
  641POPC   C1B11419   6.458  41.729   8.852
  641POPC   C2B11420   6.473  41.672   8.397
  641POPC   C3B11421   6.667  41.829   7.993
  641POPC   C4B11422   6.455  41.791   7.588
  642POPC   NC311423  19.607  32.903   9.455
  642POPC   PO411424  18.861  32.950   9.527
  642POPC   GL111425  18.918  33.028   9.115
  642POPC   GL211426  19.275  33.012   9.100
  642POPC   C1A11427  19.028  33.051   8.673
  642POPC   D2A11428  19.306  33.354   8.478
  642POPC   C3A11429  19.324  33.154   8.090
  642POPC   C4A11430  18.965  32.904   7.918
  642POPC   C1B11431  19.531  32.893   8.729
  642POPC   C2B11432  19.439  32.667   8.333
  642POPC   C3B11433  19.460  32.683   7.875
  642POPC   C4B11434  19.329  33.022   7.582
  643POPC   NC311435  17.172  23.656   9.751
  643POPC   PO411436  16.519  23.825   9.533
  643POPC   GL111437  16.717  23.806   9.182
  643POPC   GL211438  16.885  23.478   9.317
  643POPC   C1A11439  16.599  23.947   8.762
  643POPC   D2A11440  16.497  23.728   8.391
  643POPC   C3A11441  16.633  23.942   8.025
  643POPC   C4A11442  16.520  23.926   7.611
  643POPC   C1B11443  17.037  23.551   8.897
  643POPC   C2B11444  16.991  23.758   8.504
  643POPC   C3B11445  17.076  23.690   8.084
  643POPC   C4B11446  17.324  23.673   7.733
  644POPC   NC311447  35.270  32.068   9.527
  644POPC   PO411448  34.874  32.690   9.529
  644POPC   GL111449  34.966  32.317   9.199
  644POPC   GL211450  35.323  32.307   9.068
  644POPC   C1A11451  34.944  32.098   8.789
  644POPC   D2A11452  35.096  32.352   8.426
  644POPC   C3A11453  35.271  32.206   8.012
  644POPC   C4A11454  35.421  32.469   7.675
  644POPC   C1B11455  35.485  32.030   8.726
  644POPC   C2B11456  35.727  32.146   8.340
  644POPC   C3B11457  35.821  32.281   7.899
  644POPC   C4B11458  35.814  32.295   7.389
  645POPC   NC311459   7.583  34.668   9.437
  645POPC   PO411460   7.173  34.172   9.506
  645POPC   GL111461   7.324  34.355   9.116
  645POPC   GL211462   7.701  34.340   9.070
  645POPC   C1A11463   7.343  34.630   8.746
  645POPC   D2A11464   7.553  34.567   8.332
  645POPC   C3A11465   7.512  34.870   7.995
  645POPC   C4A11466   7.324  34.869   7.572
  645POPC   C1B11467   7.539  34.150   8.689
  645POPC   C2B11468   7.306  34.098   8.364
  645POPC   C3B11469   7.081  34.321   8.119
  645POPC   C4B11470   7.366  34.416   7.836
  646POPC   NC311471  16.117  24.929   9.506
  646POPC   PO411472  15.757  25.497   9.427
  646POPC   GL111473  15.932  25.235   9.139
  646POPC   GL211474  15.689  24.951   9.195
  646POPC   C1A11475  16.154  25.296   8.760
  646POPC   D2A11476  15.992  25.403   8.397
  646POPC   C3A11477  16.123  25.214   8.029
  646POPC   C4A11478  16.036  25.423   7.647
  646POPC   C1B11479  15.665  25.036   8.756
  646POPC   C2B11480  15.798  24.920   8.374
  646POPC   C3B11481  15.617  24.911   8.001
  646POPC   C4B11482  15.731  24.991   7.652
  647POPC   NC311483  22.798   8.722   9.434
  647POPC   PO411484  23.092   9.309   9.559
  647POPC   GL111485  23.107   9.059   9.166
  647POPC   GL211486  23.304   8.733   9.214
  647POPC   C1A11487  22.822   9.018   8.771
  647POPC   D2A11488  22.554   8.857   8.412
  647POPC   C3A11489  22.671   9.006   8.022
  647POPC   C4A11490  22.864   8.720   7.786
  647POPC   C1B11491  23.271   8.796   8.766
  647POPC   C2B11492  23.075   8.774   8.347
  647POPC   C3B11493  23.234   8.984   7.993
  647POPC   C4B11494  23.121   9.369   7.817
  648POPC   NC311495  23.126  22.907   9.537
  648POPC   PO411496  22.481  22.912   9.602
  648POPC   GL111497  22.745  22.855   9.188
  648POPC   GL211498  22.989  23.133   9.094
  648POPC   C1A11499  22.826  22.865   8.713
  648POPC   D2A11500  22.733  22.959   8.281
  648POPC   C3A11501  22.787  22.714   7.930
  648POPC   C4A11502  22.553  22.633   7.566
  648POPC   C1B11503  23.303  23.391   8.851
  648POPC   C2B11504  23.296  23.589   8.438
  648POPC   C3B11505  23.230  23.429   8.026
  648POPC   C4B11506  22.916  23.192   7.848
  649POPC   NC311507   1.465   4.193   9.459
  649POPC   PO411508   0.818   4.137   9.763
  649POPC   GL111509   0.956   4.201   9.314
  649POPC   GL211510   1.069   4.530   9.207
  649POPC   C1A11511   1.108   4.138   8.876
  649POPC   D2A11512   1.098   4.330   8.471
  649POPC   C3A11513   1.388   4.183   8.185
  649POPC   C4A11514   1.368   4.193   7.762
  649POPC   C1B11515   1.325   4.606   8.804
  649POPC   C2B11516   1.522   4.617   8.427
  649POPC   C3B11517   1.323   4.679   8.040
  649POPC   C4B11518   1.486   4.677   7.645
  650POPC   NC311519  12.479   2.690   9.455
  650POPC   PO411520  11.820   2.820   9.529
  650POPC   GL111521  11.920   2.478   9.256
  650POPC   GL211522  12.119   2.712   9.077
  650POPC   C1A11523  11.852   2.363   8.803
  650POPC   D2A11524  11.768   2.546   8.387
  650POPC   C3A11525  11.978   2.573   7.979
  650POPC   C4A11526  12.056   2.451   7.529
  650POPC   C1B11527  12.262   2.711   8.666
  650POPC   C2B11528  12.652   2.634   8.447
  650POPC   C3B11529  12.500   2.574   8.058
  650POPC   C4B11530  12.317   2.871   7.751
  651POPC   NC311531  14.294   3.962   9.583
  651POPC   PO411532  14.535   4.503   9.591
  651POPC   GL111533  14.458   4.306   9.215
  651POPC   GL211534  14.709   4.107   9.195
  651POPC   C1A11535  14.440   4.150   8.777
  651POPC   D2A11536  14.243   4.099   8.406
  651POPC   C3A11537  14.450   4.225   8.046
  651POPC   C4A11538  14.325   4.457   7.714
  651POPC   C1B11539  14.871   3.886   8.881
  651POPC   C2B11540  14.744   3.916   8.461
  651POPC   C3B11541  14.517   3.731   8.153
  651POPC   C4B11542  14.657   3.860   7.738
  652POPC   NC311543  16.906  31.216   9.600
  652POPC   PO411544  16.475  31.781   9.419
  652POPC   GL111545  16.693  31.741   9.076
  652POPC   GL211546  16.948  31.600   9.235
  652POPC   C1A11547  16.673  31.661   8.664
  652POPC   D2A11548  16.599  31.407   8.327
  652POPC   C3A11549  16.554  31.679   8.018
  652POPC   C4A11550  16.762  31.560   7.683
  652POPC   C1B11551  17.164  31.521   8.883
  652POPC   C2B11552  17.172  31.642   8.502
  652POPC   C3B11553  17.061  31.551   8.113
  652POPC   C4B11554  17.251  31.556   7.743
  653POPC   NC311555  38.294   2.957   9.720
  653POPC   PO411556  38.223   3.531   9.410
  653POPC   GL111557  38.377   3.528   9.050
  653POPC   GL211558  38.701   3.608   9.109
  653POPC   C1A11559  38.458   3.679   8.659
  653POPC   D2A11560  38.690   3.539   8.348
  653POPC   C3A11561  38.397   3.604   8.055
  653POPC   C4A11562  38.476   3.491   7.634
  653POPC   C1B11563  38.883   3.924   8.797
  653POPC   C2B11564  38.925   3.989   8.335
  653POPC   C3B11565  38.866   3.761   7.917
  653POPC   C4B11566  38.926   3.707   7.477
  654POPC   NC311567  19.928  12.427   9.976
  654POPC   PO411568  20.011  11.950   9.517
  654POPC   GL111569  19.809  12.210   9.174
  654POPC   GL211570  19.480  12.087   9.024
  654POPC   C1A11571  19.881  12.297   8.722
  654POPC   D2A11572  19.681  12.050   8.387
  654POPC   C3A11573  19.818  12.164   7.986
  654POPC   C4A11574  20.215  12.108   7.734
  654POPC   C1B11575  19.387  11.669   8.827
  654POPC   C2B11576  19.489  11.533   8.428
  654POPC   C3B11577  19.502  11.706   8.039
  654POPC   C4B11578  19.374  11.582   7.621
  655POPC   NC311579  40.588   5.411   9.412
  655POPC   PO411580  40.709   4.762   9.305
  655POPC   GL111581  40.709   5.135   9.011
  655POPC   GL211582  41.023   5.246   9.032
  655POPC   C1A11583  40.562   5.296   8.583
  655POPC   D2A11584  40.494   5.256   8.125
  655POPC   C3A11585  40.707   4.900   7.917
  655POPC   C4A11586  41.048   4.651   7.801
  655POPC   C1B11587  41.076   5.446   8.678
  655POPC   C2B11588  41.000   5.287   8.263
  655POPC   C3B11589  40.942   5.339   7.839
  655POPC   C4B11590  40.996   5.372   7.416
  656POPC   NC311591  15.318   9.588   9.442
  656POPC   PO411592  14.940  10.052   9.562
  656POPC   GL111593  15.214   9.996   9.161
  656POPC   GL211594  14.966   9.773   9.102
  656POPC   C1A11595  15.307   9.669   8.759
  656POPC   D2A11596  15.051   9.545   8.386
  656POPC   C3A11597  15.155   9.628   7.943
  656POPC   C4A11598  15.434   9.438   7.632
  656POPC   C1B11599  14.882   9.981   8.695
  656POPC   C2B11600  14.815   9.999   8.233
  656POPC   C3B11601  14.761   9.897   7.772
  656POPC   C4B11602  14.885  10.169   7.401
  657POPC   NC311603   2.725   6.239   9.713
  657POPC   PO411604   2.621   6.915   9.541
  657POPC   GL111605   2.881   6.673   9.269
  657POPC   GL211606   2.580   6.495   9.261
  657POPC   C1A11607   3.045   6.641   8.808
  657POPC   D2A11608   2.831   6.616   8.413
  657POPC   C3A11609   3.003   6.830   8.096
  657POPC   C4A11610   2.867   6.820   7.682
  657POPC   C1B11611   2.542   6.641   8.848
  657POPC   C2B11612   2.327   6.741   8.461
  657POPC   C3B11613   2.486   6.755   8.047
  657POPC   C4B11614   2.394   6.547   7.680
  658POPC   NC311615  32.590  23.151   9.509
  658POPC   PO411616  33.256  23.065   9.653
  658POPC   GL111617  33.267  22.953   9.234
  658POPC   GL211618  33.329  23.317   9.173
  658POPC   C1A11619  33.336  22.763   8.822
  658POPC   D2A11620  32.925  22.663   8.610
  658POPC   C3A11621  32.899  22.709   8.145
  658POPC   C4A11622  33.140  22.800   7.836
  658POPC   C1B11623  33.032  23.159   8.841
  658POPC   C2B11624  33.147  23.068   8.410
  658POPC   C3B11625  32.977  23.263   8.057
  658POPC   C4B11626  33.102  23.403   7.673
  659POPC   NC311627  33.996  13.287   9.620
  659POPC   PO411628  33.834  12.674   9.655
  659POPC   GL111629  33.973  12.841   9.264
  659POPC   GL211630  34.168  13.098   9.180
  659POPC   C1A11631  33.774  12.923   8.861
  659POPC   D2A11632  33.555  12.725   8.547
  659POPC   C3A11633  33.652  12.907   8.180
  659POPC   C4A11634  33.614  12.836   7.753
  659POPC   C1B11635  34.263  12.799   8.797
  659POPC   C2B11636  34.051  12.632   8.383
  659POPC   C3B11637  34.078  12.690   7.899
  659POPC   C4B11638  34.033  13.023   7.507
  660POPC   NC311639  36.666  30.705   9.580
  660POPC   PO411640  36.396  30.170   9.490
  660POPC   GL111641  36.806  30.360   9.231
  660POPC   GL211642  36.789  30.741   9.099
  660POPC   C1A11643  37.127  30.464   8.852
  660POPC   D2A11644  37.305  30.792   8.532
  660POPC   C3A11645  37.007  30.857   8.157
  660POPC   C4A11646  36.899  30.742   7.721
  660POPC   C1B11647  36.828  30.913   8.690
  660POPC   C2B11648  36.630  31.164   8.374
  660POPC   C3B11649  36.578  31.070   7.926
  660POPC   C4B11650  36.590  31.067   7.459
  661POPC   NC311651  23.748  29.393   9.618
  661POPC   PO411652  23.938  28.867   9.464
  661POPC   GL111653  23.960  29.207   9.143
  661POPC   GL211654  23.620  29.290   9.121
  661POPC   C1A11655  23.928  29.260   8.670
  661POPC   D2A11656  24.023  29.132   8.225
  661POPC   C3A11657  23.730  29.033   7.894
  661POPC   C4A11658  23.425  28.863   7.581
  661POPC   C1B11659  23.417  29.352   8.719
  661POPC   C2B11660  23.521  29.318   8.287
  661POPC   C3B11661  23.302  29.300   7.870
  661POPC   C4B11662  23.080  29.335   7.449
  662POPC   NC311663  11.692  42.163   9.383
  662POPC   PO411664  11.039  42.456   9.463
  662POPC   GL111665  11.348  42.474   9.137
  662POPC   GL211666  11.348  42.121   9.026
  662POPC   C1A11667  11.509  42.486   8.724
  662POPC   D2A11668  11.333  42.550   8.368
  662POPC   C3A11669  11.600  42.508   8.017
  662POPC   C4A11670  11.356  42.553   7.675
  662POPC   C1B11671  10.976  42.248   8.791
  662POPC   C2B11672  11.015  42.153   8.358
  662POPC   C3B11673  11.424  42.048   8.188
  662POPC   C4B11674  11.558  42.034   7.769
  663POPC   NC311675  26.132  37.863   9.511
  663POPC   PO411676  26.123  37.253   9.471
  663POPC   GL111677  25.955  37.487   9.132
  663POPC   GL211678  26.270  37.642   9.052
  663POPC   C1A11679  25.898  37.590   8.696
  663POPC   D2A11680  26.168  37.519   8.364
  663POPC   C3A11681  26.028  37.674   7.961
  663POPC   C4A11682  25.775  37.977   7.736
  663POPC   C1B11683  26.394  37.903   8.682
  663POPC   C2B11684  26.480  37.911   8.222
  663POPC   C3B11685  26.383  38.034   7.789
  663POPC   C4B11686  26.264  38.337   7.438
  664POPC   NC311687  11.568   6.602   9.505
  664POPC   PO411688  10.896   6.749   9.569
  664POPC   GL111689  11.131   6.682   9.190
  664POPC   GL211690  11.421   6.934   9.143
  664POPC   C1A11691  11.074   6.787   8.764
  664POPC   D2A11692  11.230   6.610   8.359
  664POPC   C3A11693  11.010   6.790   8.014
  664POPC   C4A11694  10.761   6.599   7.685
  664POPC   C1B11695  11.541   6.613   8.825
  664POPC   C2B11696  11.708   6.736   8.409
  664POPC   C3B11697  11.610   6.561   7.998
  664POPC   C4B11698  11.381   6.673   7.657
  665POPC   NC311699  37.649  11.030   9.651
  665POPC   PO411700  37.511  11.681   9.753
  665POPC   GL111701  37.807  11.478   9.358
  665POPC   GL211702  37.746  11.186   9.170
  665POPC   C1A11703  37.897  11.583   8.871
  665POPC   D2A11704  37.612  11.569   8.464
  665POPC   C3A11705  37.647  11.427   8.003
  665POPC   C4A11706  37.865  11.254   7.600
  665POPC   C1B11707  37.470  11.168   8.787
  665POPC   C2B11708  37.395  11.077   8.323
  665POPC   C3B11709  37.489  10.937   7.877
  665POPC   C4B11710  37.429  11.008   7.406
  666POPC   NC311711  21.605   6.052   9.401
  666POPC   PO411712  21.321   6.561   9.790
  666POPC   GL111713  21.348   6.716   9.345
  666POPC   GL211714  21.690   6.783   9.253
  666POPC   C1A11715  21.379   6.520   8.929
  666POPC   D2A11716  21.292   6.388   8.489
  666POPC   C3A11717  21.171   6.655   8.169
  666POPC   C4A11718  21.162   6.717   7.762
  666POPC   C1B11719  21.792   6.797   8.816
  666POPC   C2B11720  21.571   6.815   8.423
  666POPC   C3B11721  21.633   6.733   7.971
  666POPC   C4B11722  21.648   6.969   7.559
  667POPC   NC311723  44.588  34.538   9.517
  667POPC   PO411724   0.226  34.489   9.437
  667POPC   GL111725  44.863  34.600   9.099
  667POPC   GL211726  44.534  34.815   9.094
  667POPC   C1A11727  44.596  34.462   8.728
  667POPC   D2A11728  44.343  34.439   8.366
  667POPC   C3A11729  44.486  34.448   7.942
  667POPC   C4A11730  44.767  34.611   7.592
  667POPC   C1B11731  44.755  34.942   8.709
  667POPC   C2B11732  44.747  34.801   8.248
  667POPC   C3B11733  44.480  34.943   7.869
  667POPC   C4B11734  44.442  34.954   7.397
  668POPC   NC311735  10.384  10.233   9.719
  668POPC   PO411736  10.757  10.781   9.561
  668POPC   GL111737  10.473  10.768   9.236
  668POPC   GL211738  10.356  10.421   9.234
  668POPC   C1A11739  10.605  10.821   8.830
  668POPC   D2A11740  10.759  10.656   8.483
  668POPC   C3A11741  10.424  10.655   8.206
  668POPC   C4A11742  10.618  10.822   7.844
  668POPC   C1B11743  10.453  10.321   8.800
  668POPC   C2B11744  10.568  10.195   8.379
  668POPC   C3B11745  10.765  10.327   8.009
  668POPC   C4B11746  10.529  10.223   7.660
  669POPC   NC311747  42.201  38.633   9.428
  669POPC   PO411748  42.411  37.965   9.431
  669POPC   GL111749  42.453  38.290   9.135
  669POPC   GL211750  42.702  38.515   9.265
  669POPC   C1A11751  42.253  38.472   8.772
  669POPC   D2A11752  42.333  38.743   8.444
  669POPC   C3A11753  42.167  38.742   8.037
  669POPC   C4A11754  42.176  38.399   7.803
  669POPC   C1B11755  42.717  38.659   8.824
  669POPC   C2B11756  42.814  38.826   8.385
  669POPC   C3B11757  42.697  38.705   7.930
  669POPC   C4B11758  42.933  38.666   7.509
  670POPC   NC311759  18.938  15.474   9.438
  670POPC   PO411760  18.832  16.117   9.480
  670POPC   GL111761  19.032  16.194   9.110
  670POPC   GL211762  19.233  15.877   9.155
  670POPC   C1A11763  19.183  16.115   8.698
  670POPC   D2A11764  19.279  15.898   8.319
  670POPC   C3A11765  19.092  16.101   7.964
  670POPC   C4A11766  19.245  15.872   7.633
  670POPC   C1B11767  19.015  15.637   8.800
  670POPC   C2B11768  18.803  15.760   8.426
  670POPC   C3B11769  18.811  15.665   8.029
  670POPC   C4B11770  18.721  15.782   7.654
  671POPC   NC311771  25.894   9.694   9.513
  671POPC   PO411772  26.474   9.965   9.471
  671POPC   GL111773  26.245   9.749   9.153
  671POPC   GL211774  25.865   9.862   9.049
  671POPC   C1A11775  26.172   9.568   8.770
  671POPC   D2A11776  25.987   9.777   8.418
  671POPC   C3A11777  26.298   9.686   8.101
  671POPC   C4A11778  26.525   9.335   7.831
  671POPC   C1B11779  25.661   9.526   8.805
  671POPC   C2B11780  25.660   9.376   8.398
  671POPC   C3B11781  25.723   9.614   7.998
  671POPC   C4B11782  26.052   9.522   7.703
  672POPC   NC311783   2.957  30.119   9.576
  672POPC   PO411784   2.484  29.643   9.565
  672POPC   GL111785   2.545  29.997   9.236
  672POPC   GL211786   2.476  29.702   9.058
  672POPC   C1A11787   2.825  30.203   8.876
  672POPC   D2A11788   2.778  30.151   8.398
  672POPC   C3A11789   2.972  29.839   8.141
  672POPC   C4A11790   2.974  29.890   7.690
  672POPC   C1B11791   2.461  29.887   8.693
  672POPC   C2B11792   2.493  29.723   8.314
  672POPC   C3B11793   2.446  29.964   7.979
  672POPC   C4B11794   2.570  30.245   7.717
  673POPC   NC311795  21.948   0.596   9.633
  673POPC   PO411796  21.969  44.986   9.551
  673POPC   GL111797  22.077   0.322   9.206
  673POPC   GL211798  21.865   0.658   9.141
  673POPC   C1A11799  22.251   0.189   8.785
  673POPC   D2A11800  22.048   0.223   8.392
  673POPC   C3A11801  22.237   0.347   8.053
  673POPC   C4A11802  22.235   0.143   7.691
  673POPC   C1B11803  22.185   0.672   8.814
  673POPC   C2B11804  22.231   0.738   8.375
  673POPC   C3B11805  22.289   0.864   7.944
  673POPC   C4B11806  22.149   0.633   7.617
  674POPC   NC311807  18.122  34.905   9.532
  674POPC   PO411808  18.410  34.321   9.438
  674POPC   GL111809  18.100  34.564   9.145
  674POPC   GL211810  18.002  34.953   9.052
  674POPC   C1A11811  18.203  34.584   8.724
  674POPC   D2A11812  18.448  34.464   8.383
  674POPC   C3A11813  18.265  34.271   8.036
  674POPC   C4A11814  18.403  34.434   7.642
  674POPC   C1B11815  17.952  35.026   8.635
  674POPC   C2B11816  17.944  34.745   8.309
  674POPC   C3B11817  18.133  34.752   7.972
  674POPC   C4B11818  17.970  34.920   7.640
  675POPC   NC311819  21.937  24.232   9.653
  675POPC   PO411820  22.586  24.432   9.593
  675POPC   GL111821  22.277  24.324   9.278
  675POPC   GL211822  22.007  24.592   9.267
  675POPC   C1A11823  22.205  24.364   8.841
  675POPC   D2A11824  22.124  24.206   8.436
  675POPC   C3A11825  22.482  24.369   8.214
  675POPC   C4A11826  22.543  24.466   7.753
  675POPC   C1B11827  21.830  24.728   8.841
  675POPC   C2B11828  22.087  24.707   8.425
  675POPC   C3B11829  22.098  24.582   7.966
  675POPC   C4B11830  21.975  24.838   7.591
  676POPC   NC311831   8.998   8.958   9.714
  676POPC   PO411832   8.591   9.367   9.413
  676POPC   GL111833   8.934   9.069   9.159
  676POPC   GL211834   8.755   8.838   8.952
  676POPC   C1A11835   9.182   8.962   8.724
  676POPC   D2A11836   9.467   8.984   8.350
  676POPC   C3A11837   9.276   9.132   7.976
  676POPC   C4A11838   9.033   8.924   7.658
  676POPC   C1B11839   8.723   9.253   8.740
  676POPC   C2B11840   8.901   9.273   8.347
  676POPC   C3B11841   8.751   8.909   8.093
  676POPC   C4B11842   8.529   8.862   7.674
  677POPC   NC311843  17.646  36.002   9.574
  677POPC   PO411844  17.407  36.567   9.497
  677POPC   GL111845  17.459  36.276   9.187
  677POPC   GL211846  17.819  36.260   9.157
  677POPC   C1A11847  17.383  36.262   8.768
  677POPC   D2A11848  17.176  36.098   8.420
  677POPC   C3A11849  17.370  36.309   8.072
  677POPC   C4A11850  17.490  36.058   7.750
  677POPC   C1B11851  17.861  36.048   8.750
  677POPC   C2B11852  17.720  35.961   8.320
  677POPC   C3B11853  17.924  36.138   7.969
  677POPC   C4B11854  17.940  35.933   7.551
  678POPC   NC311855  42.100  24.842   9.463
  678POPC   PO411856  42.226  24.166   9.618
  678POPC   GL111857  42.404  24.403   9.254
  678POPC   GL211858  42.678  24.219   9.071
  678POPC   C1A11859  42.385  24.541   8.823
  678POPC   D2A11860  42.252  24.618   8.385
  678POPC   C3A11861  42.447  24.515   7.982
  678POPC   C4A11862  42.296  24.786   7.634
  678POPC   C1B11863  42.493  24.061   8.688
  678POPC   C2B11864  42.305  24.108   8.306
  678POPC   C3B11865  42.380  24.033   7.843
  678POPC   C4B11866  42.589  24.015   7.451
  679POPC   NC311867  13.249  38.754   9.546
  679POPC   PO411868  12.731  38.525   9.391
  679POPC   GL111869  12.808  38.485   9.010
  679POPC   GL211870  13.126  38.607   9.076
  679POPC   C1A11871  12.990  38.341   8.654
  679POPC   D2A11872  12.768  38.398   8.338
  679POPC   C3A11873  12.855  38.223   7.987
  679POPC   C4A11874  12.753  38.326   7.594
  679POPC   C1B11875  13.071  38.841   8.730
  679POPC   C2B11876  13.139  38.752   8.316
  679POPC   C3B11877  13.170  38.950   7.910
  679POPC   C4B11878  13.189  38.626   7.595
  680POPC   NC311879  25.362  36.680   9.790
  680POPC   PO411880  25.202  36.083   9.488
  680POPC   GL111881  25.361  36.029   9.091
  680POPC   GL211882  25.390  36.367   9.044
  680POPC   C1A11883  25.184  36.059   8.676
  680POPC   D2A11884  24.915  36.255   8.360
  680POPC   C3A11885  24.968  36.029   7.966
  680POPC   C4A11886  25.392  35.960   7.787
  680POPC   C1B11887  25.562  36.598   8.755
  680POPC   C2B11888  25.432  36.411   8.393
  680POPC   C3B11889  25.560  36.396   7.995
  680POPC   C4B11890  25.730  36.370   7.616
  681POPC   NC311891   9.801   1.315   9.660
  681POPC   PO411892   9.205   1.128   9.579
  681POPC   GL111893   9.497   1.171   9.243
  681POPC   GL211894   9.453   1.465   9.037
  681POPC   C1A11895   9.835   1.114   8.920
  681POPC   D2A11896   9.965   1.192   8.494
  681POPC   C3A11897  10.048   1.317   8.058
  681POPC   C4A11898  10.006   1.169   7.623
  681POPC   C1B11899   9.339   1.124   8.757
  681POPC   C2B11900   9.488   1.050   8.347
  681POPC   C3B11901   9.534   1.271   7.950
  681POPC   C4B11902   9.523   1.111   7.523
  682POPC   NC311903  44.280  16.975   9.858
  682POPC   PO411904  44.322  16.467   9.416
  682POPC   GL111905  44.030  16.676   9.083
  682POPC   GL211906  43.697  16.768   9.148
  682POPC   C1A11907  43.943  16.814   8.660
  682POPC   D2A11908  44.042  17.041   8.282
  682POPC   C3A11909  43.983  16.803   7.885
  682POPC   C4A11910  44.157  16.609   7.455
  682POPC   C1B11911  43.530  16.511   8.790
  682POPC   C2B11912  43.661  16.389   8.366
  682POPC   C3B11913  43.532  16.451   7.946
  682POPC   C4B11914  43.670  16.552   7.530
  683POPC   NC311915   0.056  21.381   9.272
  683POPC   PO411916  44.401  21.282   9.532
  683POPC   GL111917  44.523  21.422   9.122
  683POPC   GL211918  44.686  21.727   9.147
  683POPC   C1A11919  44.677  21.358   8.682
  683POPC   D2A11920  44.728  21.350   8.224
  683POPC   C3A11921  44.408  21.403   7.936
  683POPC   C4A11922  44.293  21.453   7.534
  683POPC   C1B11923  44.959  21.802   8.771
  683POPC   C2B11924   0.109  21.647   8.382
  683POPC   C3B11925   0.013  21.731   7.987
  683POPC   C4B11926  44.891  21.411   7.718
  684POPC   NC311927   3.179   0.244   9.464
  684POPC   PO411928   3.684   0.553   9.566
  684POPC   GL111929   3.482   0.497   9.148
  684POPC   GL211930   3.294   0.202   8.968
  684POPC   C1A11931   3.639   0.500   8.740
  684POPC   D2A11932   3.732   0.596   8.329
  684POPC   C3A11933   3.397   0.453   8.063
  684POPC   C4A11934   3.410   0.205   7.689
  684POPC   C1B11935   3.118   0.590   8.766
  684POPC   C2B11936   3.066   0.801   8.383
  684POPC   C3B11937   3.122   0.880   7.950
  684POPC   C4B11938   3.342   0.758   7.559
  685POPC   NC311939   5.369   4.447   9.419
  685POPC   PO411940   5.988   4.451   9.510
  685POPC   GL111941   5.962   4.264   9.098
  685POPC   GL211942   5.907   3.913   9.166
  685POPC   C1A11943   6.036   4.055   8.675
  685POPC   D2A11944   5.890   4.112   8.262
  685POPC   C3A11945   5.808   4.513   8.164
  685POPC   C4A11946   5.971   4.773   7.856
  685POPC   C1B11947   5.574   3.930   8.864
  685POPC   C2B11948   5.467   4.230   8.572
  685POPC   C3B11949   5.362   4.248   8.149
  685POPC   C4B11950   5.624   4.234   7.799
  686POPC   NC311951  34.866  15.570   9.520
  686POPC   PO411952  35.549  15.376   9.527
  686POPC   GL111953  35.249  15.417   9.192
  686POPC   GL211954  35.173  15.119   9.006
  686POPC   C1A11955  35.282  15.516   8.749
  686POPC   D2A11956  35.037  15.295   8.436
  686POPC   C3A11957  35.191  15.298   8.030
  686POPC   C4A11958  35.554  15.205   7.785
  686POPC   C1B11959  35.481  15.040   8.672
  686POPC   C2B11960  35.532  14.932   8.230
  686POPC   C3B11961  35.277  14.787   7.863
  686POPC   C4B11962  35.002  15.050   7.585
  687POPC   NC311963  16.770  43.397   9.555
  687POPC   PO411964  16.831  42.681   9.610
  687POPC   GL111965  16.647  42.958   9.317
  687POPC   GL211966  17.002  43.030   9.241
  687POPC   C1A11967  16.532  43.161   8.913
  687POPC   D2A11968  16.387  42.928   8.559
  687POPC   C3A11969  16.519  43.020   8.128
  687POPC   C4A11970  16.694  43.136   7.751
  687POPC   C1B11971  17.042  43.155   8.827
  687POPC   C2B11972  16.825  43.263   8.455
  687POPC   C3B11973  17.001  43.369   8.050
  687POPC   C4B11974  17.201  43.117   7.701
  688POPC   NC311975  41.711  18.078   9.281
  688POPC   PO411976  41.515  17.564   9.676
  688POPC   GL111977  41.647  17.567   9.259
  688POPC   GL211978  41.351  17.413   9.143
  688POPC   C1A11979  41.760  17.424   8.844
  688POPC   D2A11980  41.652  17.282   8.439
  688POPC   C3A11981  41.864  17.471   8.152
  688POPC   C4A11982  42.009  17.291   7.778
  688POPC   C1B11983  41.236  17.359   8.724
  688POPC   C2B11984  41.278  17.617   8.351
  688POPC   C3B11985  41.399  17.466   7.956
  688POPC   C4B11986  41.476  17.222   7.644
  689POPC   NC311987  44.286  26.814   9.635
  689POPC   PO411988  44.901  27.007   9.562
  689POPC   GL111989  44.709  26.836   9.201
  689POPC   GL211990  44.373  26.950   9.157
  689POPC   C1A11991  44.865  26.751   8.771
  689POPC   D2A11992  44.787  27.028   8.414
  689POPC   C3A11993  44.917  26.901   7.987
  689POPC   C4A11994  44.767  26.654   7.601
  689POPC   C1B11995  44.378  26.928   8.757
  689POPC   C2B11996  44.209  26.820   8.409
  689POPC   C3B11997  44.432  26.801   8.064
  689POPC   C4B11998  44.315  26.916   7.687
  690POPC   NC311999  35.882  37.825   9.610
  690POPC   PO412000  36.554  37.713   9.602
  690POPC   GL112001  36.277  37.636   9.236
  690POPC   GL212002  35.949  37.478   9.234
  690POPC   C1A12003  36.324  37.695   8.783
  690POPC   D2A12004  36.357  37.615   8.345
  690POPC   C3A12005  36.041  37.703   8.065
  690POPC   C4A12006  36.034  37.910   7.674
  690POPC   C1B12007  35.685  37.339   8.903
  690POPC   C2B12008  35.851  37.209   8.532
  690POPC   C3B12009  36.021  37.199   8.164
  690POPC   C4B12010  36.357  37.332   7.899
  691POPC   NC312011  39.391   0.133   9.513
  691POPC   PO412012  38.969   0.555   9.359
  691POPC   GL112013  39.104   0.761   9.021
  691POPC   GL212014  39.432   0.684   9.140
  691POPC   C1A12015  39.246   0.551   8.682
  691POPC   D2A12016  39.289   0.291   8.339
  691POPC   C3A12017  39.008   0.317   8.003
  691POPC   C4A12018  39.189   0.248   7.635
  691POPC   C1B12019  39.683   0.799   8.804
  691POPC   C2B12020  39.640   0.715   8.369
  691POPC   C3B12021  39.423   0.646   7.979
  691POPC   C4B12022  39.639   0.726   7.633
  692POPC   NC312023  41.277  26.407   9.341
  692POPC   PO412024  41.770  26.008   9.552
  692POPC   GL112025  41.704  26.260   9.162
  692POPC   GL212026  41.426  26.021   9.032
  692POPC   C1A12027  41.646  26.364   8.697
  692POPC   D2A12028  41.512  26.073   8.351
  692POPC   C3A12029  41.731  26.104   7.930
  692POPC   C4A12030  41.507  26.012   7.522
  692POPC   C1B12031  41.122  26.178   8.734
  692POPC   C2B12032  41.101  26.395   8.335
  692POPC   C3B12033  41.213  26.273   7.901
  692POPC   C4B12034  41.004  26.114   7.509
  693POPC   NC312035  28.904  16.872   9.458
  693POPC   PO412036  29.354  16.430   9.735
  693POPC   GL112037  29.317  16.588   9.289
  693POPC   GL212038  29.313  16.910   9.167
  693POPC   C1A12039  29.313  16.568   8.813
  693POPC   D2A12040  29.023  16.539   8.476
  693POPC   C3A12041  29.182  16.646   8.064
  693POPC   C4A12042  28.911  16.630   7.732
  693POPC   C1B12043  29.128  17.065   8.824
  693POPC   C2B12044  29.162  17.036   8.413
  693POPC   C3B12045  29.094  17.156   8.014
  693POPC   C4B12046  29.176  17.038   7.584
  694POPC   NC312047   1.830   1.377   9.358
  694POPC   PO412048   1.181   1.354   9.611
  694POPC   GL112049   1.120   1.223   9.211
  694POPC   GL212050   0.850   1.441   9.160
  694POPC   C1A12051   1.090   1.166   8.787
  694POPC   D2A12052   0.955   1.352   8.434
  694POPC   C3A12053   0.945   1.096   8.126
  694POPC   C4A12054   1.215   0.939   7.862
  694POPC   C1B12055   0.929   1.699   8.813
  694POPC   C2B12056   0.875   1.853   8.379
  694POPC   C3B12057   0.949   1.626   7.985
  694POPC   C4B12058   0.870   1.286   7.661
  695POPC   NC312059  44.003  44.628   9.683
  695POPC   PO412060  43.774   0.176   9.574
  695POPC   GL112061  43.767  44.822   9.249
  695POPC   GL212062  44.034  44.618   9.180
  695POPC   C1A12063  43.742  44.800   8.798
  695POPC   D2A12064  43.682  44.473   8.520
  695POPC   C3A12065  43.735  44.561   8.131
  695POPC   C4A12066  43.713  44.535   7.710
  695POPC   C1B12067  44.155  44.444   8.775
  695POPC   C2B12068  44.247  44.628   8.357
  695POPC   C3B12069  44.193  44.482   7.943
  695POPC   C4B12070  44.111  44.249   7.571
  696POPC   NC312071  41.479  18.401   9.654
  696POPC   PO412072  41.772  18.514   9.118
  696POPC   GL112073  41.549  18.244   8.829
  696POPC   GL212074  41.464  17.869   8.890
  696POPC   C1A12075  41.585  18.446   8.442
  696POPC   D2A12076  41.870  18.619   8.164
  696POPC   C3A12077  41.663  18.416   7.829
  696POPC   C4A12078  41.205  18.473   7.792
  696POPC   C1B12079  41.727  17.829   8.534
  696POPC   C2B12080  41.596  18.015   8.175
  696POPC   C3B12081  41.372  17.952   7.823
  696POPC   C4B12082  41.786  17.772   7.747
  697POPC   NC312083   9.007  20.692   9.430
  697POPC   PO412084   8.405  20.645   9.713
  697POPC   GL112085   8.574  20.812   9.220
  697POPC   GL212086   8.686  20.556   8.947
  697POPC   C1A12087   8.925  20.957   8.826
  697POPC   D2A12088   8.869  20.641   8.459
  697POPC   C3A12089   8.970  20.763   8.046
  697POPC   C4A12090   8.904  20.670   7.616
  697POPC   C1B12091   9.165  20.496   8.847
  697POPC   C2B12092   9.526  20.516   8.578
  697POPC   C3B12093   9.425  20.495   8.142
  697POPC   C4B12094   9.217  20.296   7.782
  698POPC   NC312095  10.243  41.383   9.560
  698POPC   PO412096  10.779  41.708   9.639
  698POPC   GL112097  10.551  41.711   9.282
  698POPC   GL212098  10.712  41.428   9.145
  698POPC   C1A12099  10.621  41.842   8.870
  698POPC   D2A12100  10.655  41.509   8.553
  698POPC   C3A12101  10.675  41.522   8.093
  698POPC   C4A12102  10.408  41.675   7.777
  698POPC   C1B12103  10.300  41.441   8.925
  698POPC   C2B12104  10.169  41.742   8.640
  698POPC   C3B12105  10.121  41.632   8.212
  698POPC   C4B12106   9.899  41.718   7.834
  699POPC   NC312107   3.605  15.852   9.512
  699POPC   PO412108   3.974  15.306   9.284
  699POPC   GL112109   3.797  15.684   9.098
  699POPC   GL212110   3.905  16.070   9.158
  699POPC   C1A12111   3.520  15.919   8.831
  699POPC   D2A12112   3.645  15.958   8.406
  699POPC   C3A12113   3.331  15.957   8.094
  699POPC   C4A12114   3.429  15.809   7.703
  699POPC   C1B12115   3.878  16.277   8.746
  699POPC   C2B12116   3.857  16.398   8.284
  699POPC   C3B12117   3.829  16.107   7.878
  699POPC   C4B12118   3.781  16.261   7.407
  700POPC   NC312119  11.129   0.501   9.581
  700POPC   PO412120  11.830   0.548   9.358
  700POPC   GL112121  11.438   0.395   9.191
  700POPC   GL212122  11.176   0.646   9.084
  700POPC   C1A12123  11.245   0.151   8.891
  700POPC   D2A12124  11.308   0.130   8.473
  700POPC   C3A12125  11.213   0.508   8.243
  700POPC   C4A12126  11.358   0.551   7.835
  700POPC   C1B12127  11.485   0.585   8.727
  700POPC   C2B12128  11.745   0.569   8.370
  700POPC   C3B12129  11.780   0.842   8.016
  700POPC   C4B12130  11.784   0.681   7.589
  701POPC   NC312131  35.064  40.950   9.947
  701POPC   PO412132  35.376  40.505   9.514
  701POPC   GL112133  35.399  40.738   9.148
  701POPC   GL212134  35.081  40.898   9.207
  701POPC   C1A12135  35.298  40.835   8.713
  701POPC   D2A12136  35.097  40.540   8.429
  701POPC   C3A12137  35.137  40.649   8.019
  701POPC   C4A12138  35.546  40.742   7.846
  701POPC   C1B12139  34.853  41.221   8.947
  701POPC   C2B12140  34.967  41.445   8.573
  701POPC   C3B12141  34.966  41.349   8.103
  701POPC   C4B12142  35.165  41.107   7.751
  702POPC   NC312143  22.778  30.576   9.577
  702POPC   PO412144  23.392  30.626   9.880
  702POPC   GL112145  23.188  30.869   9.408
  702POPC   GL212146  22.862  30.850   9.167
  702POPC   C1A12147  23.268  30.868   8.898
  702POPC   D2A12148  22.994  30.742   8.525
  702POPC   C3A12149  23.176  30.750   8.110
  702POPC   C4A12150  23.019  30.662   7.687
  702POPC   C1B12151  22.569  30.877   8.812
  702POPC   C2B12152  22.457  30.696   8.434
  702POPC   C3B12153  22.663  30.734   8.057
  702POPC   C4B12154  22.551  30.939   7.664
  703POPC   NC312155   6.823  21.816   9.462
  703POPC   PO412156   6.564  22.419   9.367
  703POPC   GL112157   6.792  22.321   9.063
  703POPC   GL212158   6.674  21.983   9.011
  703POPC   C1A12159   6.925  22.618   8.757
  703POPC   D2A12160   6.747  22.618   8.371
  703POPC   C3A12161   6.818  22.285   8.113
  703POPC   C4A12162   6.578  22.096   7.816
  703POPC   C1B12163   6.823  22.082   8.603
  703POPC   C2B12164   6.992  21.820   8.283
  703POPC   C3B12165   7.000  21.832   7.848
  703POPC   C4B12166   6.792  21.753   7.474
  704POPC   NC312167  37.764  22.459   9.552
  704POPC   PO412168  37.318  22.001   9.680
  704POPC   GL112169  37.532  22.030   9.260
  704POPC   GL212170  37.378  21.768   9.069
  704POPC   C1A12171  37.634  22.234   8.831
  704POPC   D2A12172  37.835  22.087   8.397
  704POPC   C3A12173  37.656  22.174   7.966
  704POPC   C4A12174  37.851  22.442   7.589
  704POPC   C1B12175  37.527  21.788   8.666
  704POPC   C2B12176  37.442  21.745   8.264
  704POPC   C3B12177  37.410  21.726   7.857
  704POPC   C4B12178  37.207  21.995   7.686
  705POPC   NC312179  18.898  34.394   9.492
  705POPC   PO412180  19.359  34.969   9.533
  705POPC   GL112181  19.250  34.627   9.197
  705POPC   GL212182  18.880  34.653   9.060
  705POPC   C1A12183  19.192  34.368   8.779
  705POPC   D2A12184  19.218  34.568   8.369
  705POPC   C3A12185  19.315  34.317   8.010
  705POPC   C4A12186  19.416  34.382   7.591
  705POPC   C1B12187  19.127  34.922   8.789
  705POPC   C2B12188  19.166  35.122   8.408
  705POPC   C3B12189  18.916  34.912   8.103
  705POPC   C4B12190  19.007  34.703   7.719
  706POPC   NC312191   9.867  28.752   9.436
  706POPC   PO412192   9.376  28.391   9.732
  706POPC   GL112193   9.555  28.325   9.299
  706POPC   GL212194   9.930  28.287   9.221
  706POPC   C1A12195   9.517  28.169   8.876
  706POPC   D2A12196   9.608  28.294   8.439
  706POPC   C3A12197   9.492  28.277   8.005
  706POPC   C4A12198   9.652  28.096   7.646
  706POPC   C1B12199   9.968  28.417   8.799
  706POPC   C2B12200  10.052  28.520   8.372
  706POPC   C3B12201   9.962  28.476   7.933
  706POPC   C4B12202  10.168  28.641   7.608
  707POPC   NC312203  42.054  30.316   9.487
  707POPC   PO412204  42.678  30.066   9.365
  707POPC   GL112205  42.564  30.159   8.998
  707POPC   GL212206  42.205  30.197   8.989
  707POPC   C1A12207  42.543  30.108   8.560
  707POPC   D2A12208  42.766  29.959   8.214
  707POPC   C3A12209  42.475  29.839   7.893
  707POPC   C4A12210  42.263  29.573   7.609
  707POPC   C1B12211  42.084  29.924   8.646
  707POPC   C2B12212  42.037  30.057   8.223
  707POPC   C3B12213  42.044  30.096   7.757
  707POPC   C4B12214  41.967  30.397   7.380
  708POPC   NC312215  23.711  42.181   9.553
  708POPC   PO412216  23.482  42.759   9.835
  708POPC   GL112217  23.500  42.644   9.338
  708POPC   GL212218  23.768  42.787   9.113
  708POPC   C1A12219  23.557  42.385   8.923
  708POPC   D2A12220  23.874  42.225   8.606
  708POPC   C3A12221  23.784  42.110   8.177
  708POPC   C4A12222  23.608  42.344   7.854
  708POPC   C1B12223  23.923  42.724   8.728
  708POPC   C2B12224  23.850  42.658   8.290
  708POPC   C3B12225  24.004  42.741   7.877
  708POPC   C4B12226  23.891  42.564   7.477
  709POPC   NC312227   7.782  32.943   9.625
  709POPC   PO412228   7.154  33.247   9.535
  709POPC   GL112229   7.280  33.241   9.146
  709POPC   GL212230   7.565  33.079   9.204
  709POPC   C1A12231   7.211  33.046   8.760
  709POPC   D2A12232   7.060  33.155   8.392
  709POPC   C3A12233   7.166  32.997   8.022
  709POPC   C4A12234   7.305  32.809   7.674
  709POPC   C1B12235   7.710  33.006   8.818
  709POPC   C2B12236   7.604  33.155   8.398
  709POPC   C3B12237   7.680  32.989   7.996
  709POPC   C4B12238   7.888  32.689   7.750
  710POPC   NC312239  17.902  36.671   9.475
  710POPC   PO412240  18.593  36.882   9.403
  710POPC   GL112241  18.310  36.740   9.117
  710POPC   GL212242  18.024  36.942   9.026
  710POPC   C1A12243  18.403  36.870   8.708
  710POPC   D2A12244  18.152  36.760   8.399
  710POPC   C3A12245  18.306  36.917   8.038
  710POPC   C4A12246  18.604  36.760   7.778
  710POPC   C1B12247  17.875  37.227   8.733
  710POPC   C2B12248  18.055  37.279   8.362
  710POPC   C3B12249  17.856  37.169   8.013
  710POPC   C4B12250  18.011  37.022   7.625
  711POPC   NC312251   5.489  44.766   9.532
  711POPC   PO412252   5.066  44.290   9.725
  711POPC   GL112253   5.056  44.496   9.262
  711POPC   GL212254   5.077  44.855   9.178
  711POPC   C1A12255   4.836  44.583   8.811
  711POPC   D2A12256   4.752  44.707   8.383
  711POPC   C3A12257   5.020  44.601   8.033
  711POPC   C4A12258   5.080  44.839   7.700
  711POPC   C1B12259   5.326  44.733   8.837
  711POPC   C2B12260   5.528  44.813   8.466
  711POPC   C3B12261   5.429  44.925   8.076
  711POPC   C4B12262   5.559  44.724   7.710
  712POPC   NC312263  18.514  39.462   9.441
  712POPC   PO412264  17.942  39.010   9.434
  712POPC   GL112265  18.201  39.029   9.126
  712POPC   GL212266  18.145  39.394   9.081
  712POPC   C1A12267  18.026  38.985   8.733
  712POPC   D2A12268  18.018  39.179   8.342
  712POPC   C3A12269  18.020  38.946   7.954
  712POPC   C4A12270  17.906  39.092   7.539
  712POPC   C1B12271  18.442  39.385   8.761
  712POPC   C2B12272  18.505  39.417   8.328
  712POPC   C3B12273  18.319  39.358   7.928
  712POPC   C4B12274  18.383  39.264   7.464
  713POPC   NC312275  43.818  35.696   9.500
  713POPC   PO412276  43.771  36.339   9.756
  713POPC   GL112277  43.836  36.317   9.311
  713POPC   GL212278  44.094  36.091   9.219
  713POPC   C1A12279  43.907  36.448   8.882
  713POPC   D2A12280  44.062  36.216   8.502
  713POPC   C3A12281  43.852  36.357   8.113
  713POPC   C4A12282  44.040  36.417   7.716
  713POPC   C1B12283  43.784  35.954   8.901
  713POPC   C2B12284  43.622  35.931   8.507
  713POPC   C3B12285  43.841  35.851   8.149
  713POPC   C4B12286  43.767  35.993   7.714
  714POPC   NC312287  17.294  42.696   9.562
  714POPC   PO412288  17.251  43.322   9.587
  714POPC   GL112289  17.476  43.274   9.208
  714POPC   GL212290  17.609  42.929   9.177
  714POPC   C1A12291  17.526  43.273   8.757
  714POPC   D2A12292  17.335  43.117   8.374
  714POPC   C3A12293  17.528  43.325   8.034
  714POPC   C4A12294  17.676  43.234   7.600
  714POPC   C1B12295  17.921  42.954   8.801
  714POPC   C2B12296  17.858  43.035   8.366
  714POPC   C3B12297  18.020  43.182   7.963
  714POPC   C4B12298  18.049  42.887   7.572
  715POPC   NC312299  40.368  13.511   9.401
  715POPC   PO412300  39.700  13.248   9.432
  715POPC   GL112301  39.918  13.470   9.093
  715POPC   GL212302  40.067  13.803   9.097
  715POPC   C1A12303  39.823  13.503   8.664
  715POPC   D2A12304  39.546  13.369   8.358
  715POPC   C3A12305  39.750  13.372   7.957
  715POPC   C4A12306  40.047  13.573   7.680
  715POPC   C1B12307  40.304  13.669   8.720
  715POPC   C2B12308  40.204  13.666   8.268
  715POPC   C3B12309  40.166  13.985   7.928
  715POPC   C4B12310  40.447  13.965   7.543
  716POPC   NC312311  20.595  33.684   9.775
  716POPC   PO412312  20.645  32.990   9.639
  716POPC   GL112313  20.523  32.937   9.232
  716POPC   GL212314  20.838  33.097   9.154
  716POPC   C1A12315  20.442  33.095   8.841
  716POPC   D2A12316  20.688  32.982   8.500
  716POPC   C3A12317  20.462  33.060   8.132
  716POPC   C4A12318  20.632  33.059   7.731
  716POPC   C1B12319  20.866  33.390   8.763
  716POPC   C2B12320  20.745  33.474   8.322
  716POPC   C3B12321  20.905  33.499   7.881
  716POPC   C4B12322  21.023  33.268   7.493
  717POPC   NC312323   4.048   5.272   9.320
  717POPC   PO412324   4.401   4.921   9.741
  717POPC   GL112325   4.478   5.071   9.205
  717POPC   GL212326   4.168   4.956   8.951
  717POPC   C1A12327   4.414   5.287   8.720
  717POPC   D2A12328   4.101   5.156   8.406
  717POPC   C3A12329   4.329   5.014   8.050
  717POPC   C4A12330   4.374   5.274   7.698
  717POPC   C1B12331   4.135   4.682   8.611
  717POPC   C2B12332   4.186   4.522   8.214
  717POPC   C3B12333   4.161   4.599   7.778
  717POPC   C4B12334   4.191   4.862   7.458
  718POPC   NC312335   9.900  37.583   9.620
  718POPC   PO412336   9.235  37.542   9.762
  718POPC   GL112337   9.481  37.721   9.328
  718POPC   GL212338   9.798  37.959   9.297
  718POPC   C1A12339   9.792  37.596   8.925
  718POPC   D2A12340   9.919  37.420   8.504
  718POPC   C3A12341   9.819  37.649   8.123
  718POPC   C4A12342   9.621  37.637   7.743
  718POPC   C1B12343   9.862  38.101   8.865
  718POPC   C2B12344  10.017  37.941   8.492
  718POPC   C3B12345  10.072  38.095   8.081
  718POPC   C4B12346  10.102  37.848   7.710
  719POPC   NC312347   6.018  36.054   9.586
  719POPC   PO412348   5.385  35.984   9.361
  719POPC   GL112349   5.747  36.105   9.168
  719POPC   GL212350   5.835  35.783   9.112
  719POPC   C1A12351   5.993  36.185   8.823
  719POPC   D2A12352   5.923  36.381   8.439
  719POPC   C3A12353   5.919  36.138   8.069
  719POPC   C4A12354   6.065  36.168   7.662
  719POPC   C1B12355   5.574  35.840   8.771
  719POPC   C2B12356   5.735  35.861   8.438
  719POPC   C3B12357   5.515  35.812   8.089
  719POPC   C4B12358   5.622  35.916   7.712
  720POPC   NC312359  38.273  35.386   9.813
  720POPC   PO412360  37.648  35.129   9.549
  720POPC   GL112361  37.499  35.442   9.209
  720POPC   GL212362  37.730  35.415   9.024
  720POPC   C1A12363  37.367  35.423   8.702
  720POPC   D2A12364  37.518  35.605   8.253
  720POPC   C3A12365  37.393  35.403   7.850
  720POPC   C4A12366  37.374  34.986   7.708
  720POPC   C1B12367  37.845  35.615   8.658
  720POPC   C2B12368  38.073  35.526   8.306
  720POPC   C3B12369  37.994  35.656   7.925
  720POPC   C4B12370  38.050  35.489   7.519
  721POPC   NC312371   8.859   3.129   9.636
  721POPC   PO412372   9.230   3.719   9.455
  721POPC   GL112373   8.983   3.580   9.122
  721POPC   GL212374   8.913   3.272   9.170
  721POPC   C1A12375   9.086   3.416   8.697
  721POPC   D2A12376   9.345   3.520   8.340
  721POPC   C3A12377   9.041   3.755   8.096
  721POPC   C4A12378   8.684   3.830   7.791
  721POPC   C1B12379   8.777   3.016   8.878
  721POPC   C2B12380   8.750   3.078   8.459
  721POPC   C3B12381   8.951   3.258   8.120
  721POPC   C4B12382   8.812   3.358   7.692
  722POPC   NC312383  41.804   9.613   9.657
  722POPC   PO412384  41.312  10.070   9.608
  722POPC   GL112385  41.459   9.962   9.173
  722POPC   GL212386  41.678   9.670   9.142
  722POPC   C1A12387  41.475   9.849   8.705
  722POPC   D2A12388  41.522   9.518   8.378
  722POPC   C3A12389  41.501   9.652   7.933
  722POPC   C4A12390  41.236   9.930   7.709
  722POPC   C1B12391  41.961   9.732   8.762
  722POPC   C2B12392  42.053   9.569   8.386
  722POPC   C3B12393  41.999   9.641   7.990
  722POPC   C4B12394  41.950   9.457   7.610
  723POPC   NC312395   5.983  14.578   9.390
  723POPC   PO412396   5.752  14.038   9.676
  723POPC   GL112397   5.679  14.065   9.168
  723POPC   GL212398   5.607  14.377   9.082
  723POPC   C1A12399   5.815  14.008   8.713
  723POPC   D2A12400   6.038  14.118   8.291
  723POPC   C3A12401   5.932  14.059   7.834
  723POPC   C4A12402   6.203  13.968   7.478
  723POPC   C1B12403   5.712  14.494   8.683
  723POPC   C2B12404   5.556  14.250   8.353
  723POPC   C3B12405   5.590  14.413   7.982
  723POPC   C4B12406   5.780  14.553   7.632
  724POPC   NC312407   4.853  16.130   9.456
  724POPC   PO412408   5.314  15.532   9.474
  724POPC   GL112409   5.113  15.786   9.133
  724POPC   GL212410   5.238  16.119   9.068
  724POPC   C1A12411   4.964  15.918   8.698
  724POPC   D2A12412   4.802  16.069   8.290
  724POPC   C3A12413   5.027  15.932   7.933
  724POPC   C4A12414   5.149  15.493   7.801
  724POPC   C1B12415   5.481  15.985   8.736
  724POPC   C2B12416   5.407  15.948   8.305
  724POPC   C3B12417   5.458  16.279   8.005
  724POPC   C4B12418   5.282  16.251   7.584
  725POPC   NC312419  27.081  18.310   9.712
  725POPC   PO412420  26.450  18.169   9.431
  725POPC   GL112421  26.803  18.367   9.216
  725POPC   GL212422  27.166  18.318   9.196
  725POPC   C1A12423  26.798  18.570   8.803
  725POPC   D2A12424  26.517  18.490   8.425
  725POPC   C3A12425  26.597  18.257   8.009
  725POPC   C4A12426  26.470  18.153   7.563
  725POPC   C1B12427  27.095  18.156   8.783
  725POPC   C2B12428  27.011  18.287   8.363
  725POPC   C3B12429  27.141  18.316   7.928
  725POPC   C4B12430  26.924  18.389   7.557
  726POPC   NC312431  35.683  43.297   9.608
  726POPC   PO412432  35.228  42.884   9.404
  726POPC   GL112433  35.383  43.175   9.159
  726POPC   GL212434  35.073  43.337   9.020
  726POPC   C1A12435  35.506  43.272   8.762
  726POPC   D2A12436  35.427  43.088   8.382
  726POPC   C3A12437  35.338  43.322   8.055
  726POPC   C4A12438  35.390  43.176   7.659
  726POPC   C1B12439  35.083  42.953   8.770
  726POPC   C2B12440  35.015  42.798   8.376
  726POPC   C3B12441  35.162  42.825   7.966
  726POPC   C4B12442  35.082  42.783   7.511
  727POPC   NC312443  36.146  27.906   9.445
  727POPC   PO412444  36.140  28.549   9.573
  727POPC   GL112445  36.225  28.346   9.157
  727POPC   GL212446  36.026  28.067   8.994
  727POPC   C1A12447  36.126  28.493   8.721
  727POPC   D2A12448  35.813  28.556   8.375
  727POPC   C3A12449  35.990  28.371   7.993
  727POPC   C4A12450  36.040  28.423   7.516
  727POPC   C1B12451  36.225  28.010   8.580
  727POPC   C2B12452  36.427  28.205   8.231
  727POPC   C3B12453  36.350  28.065   7.802
  727POPC   C4B12454  36.347  28.036   7.360
  728POPC   NC312455  19.770   1.738   9.627
  728POPC   PO412456  19.583   2.259   9.227
  728POPC   GL112457  19.845   2.048   8.949
  728POPC   GL212458  19.966   1.761   9.146
  728POPC   C1A12459  19.849   2.288   8.567
  728POPC   D2A12460  19.454   2.407   8.387
  728POPC   C3A12461  19.588   2.212   8.048
  728POPC   C4A12462  20.010   2.087   8.016
  728POPC   C1B12463  20.205   1.695   8.780
  728POPC   C2B12464  20.087   1.716   8.367
  728POPC   C3B12465  19.887   1.561   8.006
  728POPC   C4B12466  19.658   1.811   7.738
  729POPC   NC312467  41.702   4.230   9.591
  729POPC   PO412468  41.299   3.869   9.243
  729POPC   GL112469  41.635   4.179   9.095
  729POPC   GL212470  41.689   4.581   9.177
  729POPC   C1A12471  41.798   4.333   8.748
  729POPC   D2A12472  41.909   4.227   8.385
  729POPC   C3A12473  41.642   4.004   8.141
  729POPC   C4A12474  41.712   4.084   7.738
  729POPC   C1B12475  41.597   4.791   8.757
  729POPC   C2B12476  41.502   4.595   8.340
  729POPC   C3B12477  41.554   4.542   7.903
  729POPC   C4B12478  41.755   4.727   7.560
  730POPC   NC312479  36.825  22.314   9.591
  730POPC   PO412480  36.905  21.696   9.326
  730POPC   GL112481  37.009  22.096   9.159
  730POPC   GL212482  37.186  22.428   9.217
  730POPC   C1A12483  37.139  22.151   8.748
  730POPC   D2A12484  36.996  21.936   8.405
  730POPC   C3A12485  36.922  22.192   8.066
  730POPC   C4A12486  36.642  22.026   7.781
  730POPC   C1B12487  36.809  22.505   8.935
  730POPC   C2B12488  36.733  22.467   8.498
  730POPC   C3B12489  36.503  22.504   8.113
  730POPC   C4B12490  36.648  22.562   7.707
  731POPC   NC312491  35.068   6.121   9.451
  731POPC   PO412492  35.367   5.495   9.652
  731POPC   GL112493  35.365   5.654   9.207
  731POPC   GL212494  35.028   5.720   9.032
  731POPC   C1A12495  35.437   5.880   8.798
  731POPC   D2A12496  35.564   6.009   8.397
  731POPC   C3A12497  35.498   5.772   8.033
  731POPC   C4A12498  35.494   5.582   7.634
  731POPC   C1B12499  35.000   6.094   8.705
  731POPC   C2B12500  35.073   6.036   8.241
  731POPC   C3B12501  35.084   6.039   7.771
  731POPC   C4B12502  34.987   6.283   7.367
  732POPC   NC312503  15.621  19.470   9.907
  732POPC   PO412504  16.036  19.122   9.563
  732POPC   GL112505  15.982  18.953   9.140
  732POPC   GL212506  16.305  18.949   9.057
  732POPC   C1A12507  15.817  18.937   8.731
  732POPC   D2A12508  15.706  19.300   8.491
  732POPC   C3A12509  15.842  19.249   8.079
  732POPC   C4A12510  15.784  18.837   7.869
  732POPC   C1B12511  16.187  19.310   8.828
  732POPC   C2B12512  16.179  19.458   8.428
  732POPC   C3B12513  16.351  19.333   8.042
  732POPC   C4B12514  16.224  19.182   7.659
  733POPC   NC312515  37.599  33.733   9.993
  733POPC   PO412516  37.715  33.668   9.324
  733POPC   GL112517  37.767  33.945   9.050
  733POPC   GL212518  38.030  34.142   9.202
  733POPC   C1A12519  37.842  33.725   8.680
  733POPC   D2A12520  37.581  33.573   8.372
  733POPC   C3A12521  37.660  33.743   8.062
  733POPC   C4A12522  37.425  33.671   7.736
  733POPC   C1B12523  38.155  34.127   8.763
  733POPC   C2B12524  37.825  34.153   8.438
  733POPC   C3B12525  37.857  34.255   8.050
  733POPC   C4B12526  37.784  34.042   7.683
  734POPC   NC312527  43.473  10.570   9.473
  734POPC   PO412528  42.830  10.534   9.476
  734POPC   GL112529  42.999  10.568   9.086
  734POPC   GL212530  43.334  10.590   8.996
  734POPC   C1A12531  42.973  10.565   8.662
  734POPC   D2A12532  43.123  10.574   8.301
  734POPC   C3A12533  42.977  10.341   8.004
  734POPC   C4A12534  42.892  10.495   7.603
  734POPC   C1B12535  43.397  10.884   8.635
  734POPC   C2B12536  43.394  10.960   8.155
  734POPC   C3B12537  43.337  10.659   7.842
  734POPC   C4B12538  43.353  10.588   7.395
  735POPC   NC312539  20.158   3.168   9.500
  735POPC   PO412540  19.681   3.680   9.477
  735POPC   GL112541  19.847   3.469   9.135
  735POPC   GL212542  20.207   3.545   9.178
  735POPC   C1A12543  19.660   3.363   8.727
  735POPC   D2A12544  19.590   3.630   8.344
  735POPC   C3A12545  19.582   3.446   7.907
  735POPC   C4A12546  19.773   3.670   7.577
  735POPC   C1B12547  20.267   3.350   8.816
  735POPC   C2B12548  20.094   3.465   8.437
  735POPC   C3B12549  20.038   3.599   8.031
  735POPC   C4B12550  20.177   3.370   7.695
  736POPC   NC312551  38.600  17.636   9.515
  736POPC   PO412552  38.173  17.117   9.649
  736POPC   GL112553  38.167  17.381   9.279
  736POPC   GL212554  38.129  17.057   9.111
  736POPC   C1A12555  38.226  17.675   8.927
  736POPC   D2A12556  38.143  17.715   8.473
  736POPC   C3A12557  38.449  17.655   8.163
  736POPC   C4A12558  38.510  17.687   7.731
  736POPC   C1B12559  38.307  17.230   8.709
  736POPC   C2B12560  38.234  17.215   8.246
  736POPC   C3B12561  38.143  17.359   7.835
  736POPC   C4B12562  38.310  17.340   7.399
  737POPC   NC312563  41.968   6.101   9.562
  737POPC   PO412564  41.772   6.804   9.348
  737POPC   GL112565  41.639   6.617   8.973
  737POPC   GL212566  41.359   6.837   9.018
  737POPC   C1A12567  41.357   6.529   8.616
  737POPC   D2A12568  41.370   6.776   8.239
  737POPC   C3A12569  41.597   6.474   7.960
  737POPC   C4A12570  41.858   6.295   7.596
  737POPC   C1B12571  41.617   7.038   8.682
  737POPC   C2B12572  41.827   7.053   8.293
  737POPC   C3B12573  41.710   6.985   7.892
  737POPC   C4B12574  41.356   6.811   7.667
  738POPC   NC312575  25.115  10.083   9.468
  738POPC   PO412576  25.469   9.535   9.454
  738POPC   GL112577  25.355   9.795   9.105
  738POPC   GL212578  25.026   9.713   9.086
  738POPC   C1A12579  25.494   9.997   8.700
  738POPC   D2A12580  25.294  10.145   8.318
  738POPC   C3A12581  25.323  10.002   7.895
  738POPC   C4A12582  25.157   9.631   7.715
  738POPC   C1B12583  24.979   9.925   8.686
  738POPC   C2B12584  24.765  10.155   8.339
  738POPC   C3B12585  24.789  10.055   7.893
  738POPC   C4B12586  24.786   9.972   7.416
  739POPC   NC312587   2.263   3.776   9.895
  739POPC   PO412588   2.044   3.218   9.486
  739POPC   GL112589   1.898   3.429   9.119
  739POPC   GL212590   1.747   3.765   9.194
  739POPC   C1A12591   1.854   3.290   8.715
  739POPC   D2A12592   2.117   3.364   8.410
  739POPC   C3A12593   1.948   3.454   8.033
  739POPC   C4A12594   2.179   3.657   7.764
  739POPC   C1B12595   1.935   3.799   8.755
  739POPC   C2B12596   1.719   3.793   8.336
  739POPC   C3B12597   1.758   3.909   7.884
  739POPC   C4B12598   1.890   3.871   7.406
  740POPC   NC312599  29.685   5.169   9.634
  740POPC   PO412600  30.065   4.577   9.617
  740POPC   GL112601  29.806   4.790   9.261
  740POPC   GL212602  29.904   5.149   9.182
  740POPC   C1A12603  29.871   4.819   8.787
  740POPC   D2A12604  29.751   4.726   8.353
  740POPC   C3A12605  30.011   4.907   8.033
  740POPC   C4A12606  30.029   5.314   7.774
  740POPC   C1B12607  29.779   5.343   8.818
  740POPC   C2B12608  29.857   5.233   8.421
  740POPC   C3B12609  29.675   5.425   8.113
  740POPC   C4B12610  29.707   5.705   7.770
  741POPC   NC312611  19.785  39.353   9.698
  741POPC   PO412612  19.249  39.107   9.562
  741POPC   GL112613  19.672  39.028   9.298
  741POPC   GL212614  19.868  39.354   9.203
  741POPC   C1A12615  19.922  38.985   8.869
  741POPC   D2A12616  20.029  39.159   8.431
  741POPC   C3A12617  19.753  39.179   8.032
  741POPC   C4A12618  19.568  38.878   7.735
  741POPC   C1B12619  19.885  39.525   8.793
  741POPC   C2B12620  19.985  39.661   8.371
  741POPC   C3B12621  20.136  39.520   7.946
  741POPC   C4B12622  20.254  39.396   7.502
  742POPC   NC312623  36.209  32.926   9.497
  742POPC   PO412624  36.695  32.649   9.137
  742POPC   GL112625  36.228  32.696   9.038
  742POPC   GL212626  36.068  33.047   9.026
  742POPC   C1A12627  35.893  32.687   8.712
  742POPC   D2A12628  35.786  32.899   8.299
  742POPC   C3A12629  36.037  32.754   7.935
  742POPC   C4A12630  36.020  32.774   7.462
  742POPC   C1B12631  36.330  33.026   8.675
  742POPC   C2B12632  36.303  33.037   8.273
  742POPC   C3B12633  36.092  33.305   8.055
  742POPC   C4B12634  36.078  33.219   7.669
  743POPC   NC312635  13.587  17.875   9.524
  743POPC   PO412636  13.441  18.588   9.530
  743POPC   GL112637  13.542  18.345   9.169
  743POPC   GL212638  13.310  18.107   9.139
  743POPC   C1A12639  13.721  18.336   8.735
  743POPC   D2A12640  13.934  18.153   8.357
  743POPC   C3A12641  13.790  18.308   7.971
  743POPC   C4A12642  13.460  18.561   7.959
  743POPC   C1B12643  13.409  17.932   8.748
  743POPC   C2B12644  13.399  18.139   8.359
  743POPC   C3B12645  13.338  18.047   7.963
  743POPC   C4B12646  13.658  17.898   7.684
  744POPC   NC312647  17.004  36.316   9.474
  744POPC   PO412648  16.415  35.945   9.443
  744POPC   GL112649  16.651  36.161   9.117
  744POPC   GL212650  17.003  36.011   9.046
  744POPC   C1A12651  16.838  36.485   8.835
  744POPC   D2A12652  17.072  36.607   8.450
  744POPC   C3A12653  16.861  36.383   8.104
  744POPC   C4A12654  16.684  36.318   7.691
  744POPC   C1B12655  16.738  35.813   8.729
  744POPC   C2B12656  16.755  35.789   8.271
  744POPC   C3B12657  17.037  35.922   7.934
  744POPC   C4B12658  17.096  35.932   7.455
  745POPC   NC312659   1.245  13.645   9.546
  745POPC   PO412660   1.701  13.997   9.197
  745POPC   GL112661   1.444  13.634   9.082
  745POPC   GL212662   1.087  13.500   9.100
  745POPC   C1A12663   1.234  13.855   8.768
  745POPC   D2A12664   1.446  13.963   8.401
  745POPC   C3A12665   1.375  13.674   8.094
  745POPC   C4A12666   1.369  13.761   7.675
  745POPC   C1B12667   0.835  13.512   8.768
  745POPC   C2B12668   0.957  13.668   8.394
  745POPC   C3B12669   0.816  13.600   8.020
  745POPC   C4B12670   0.889  13.609   7.618
  746POPC   NC312671  40.878  12.916   9.884
  746POPC   PO412672  40.446  12.702   9.427
  746POPC   GL112673  40.736  13.099   9.139
  746POPC   GL212674  41.081  13.112   9.052
  746POPC   C1A12675  40.664  13.287   8.736
  746POPC   D2A12676  40.594  13.018   8.354
  746POPC   C3A12677  40.706  12.967   7.909
  746POPC   C4A12678  40.508  12.644   7.631
  746POPC   C1B12679  40.964  12.876   8.709
  746POPC   C2B12680  40.969  12.594   8.428
  746POPC   C3B12681  40.641  12.448   8.175
  746POPC   C4B12682  40.948  12.519   7.902
  747POPC   NC312683   0.374  25.732   9.506
  747POPC   PO412684   0.510  26.379   9.632
  747POPC   GL112685   0.424  26.189   9.184
  747POPC   GL212686   0.524  25.857   9.051
  747POPC   C1A12687   0.216  26.169   8.746
  747POPC   D2A12688   0.283  26.342   8.355
  747POPC   C3A12689   0.182  26.085   8.043
  747POPC   C4A12690   0.223  25.988   7.651
  747POPC   C1B12691   0.714  26.053   8.725
  747POPC   C2B12692   0.608  25.944   8.310
  747POPC   C3B12693   0.678  25.995   7.892
  747POPC   C4B12694   0.676  25.650   7.635
  748POPC   NC312695  25.139  12.392   9.573
  748POPC   PO412696  25.495  11.875   9.655
  748POPC   GL112697  25.443  12.021   9.265
  748POPC   GL212698  25.342  11.692   9.110
  748POPC   C1A12699  25.370  12.243   8.883
  748POPC   D2A12700  25.147  12.128   8.521
  748POPC   C3A12701  25.294  12.088   8.109
  748POPC   C4A12702  25.079  12.170   7.739
  748POPC   C1B12703  25.064  11.576   8.737
  748POPC   C2B12704  24.924  11.722   8.303
  748POPC   C3B12705  25.104  11.647   7.892
  748POPC   C4B12706  25.464  11.834   7.673
  749POPC   NC312707   3.057  16.559   9.638
  749POPC   PO412708   3.641  16.700   9.548
  749POPC   GL112709   3.658  16.544   9.149
  749POPC   GL212710   3.404  16.275   9.255
  749POPC   C1A12711   3.743  16.774   8.755
  749POPC   D2A12712   3.586  17.034   8.452
  749POPC   C3A12713   3.537  16.798   8.136
  749POPC   C4A12714   3.774  16.605   7.818
  749POPC   C1B12715   3.233  16.381   8.861
  749POPC   C2B12716   3.361  16.426   8.458
  749POPC   C3B12717   3.162  16.439   8.060
  749POPC   C4B12718   3.349  16.302   7.676
  750POPC   NC312719  40.114  18.542   9.463
  750POPC   PO412720  39.624  18.065   9.458
  750POPC   GL112721  39.861  18.242   9.128
  750POPC   GL212722  39.732  18.588   9.107
  750POPC   C1A12723  40.060  18.350   8.731
  750POPC   D2A12724  39.910  18.237   8.302
  750POPC   C3A12725  40.185  18.151   7.930
  750POPC   C4A12726  40.258  18.181   7.475
  750POPC   C1B12727  39.661  18.660   8.669
  750POPC   C2B12728  40.002  18.738   8.386
  750POPC   C3B12729  40.085  18.646   7.955
  750POPC   C4B12730  39.681  18.459   7.891
  751POPC   NC312731  12.083  33.547   9.649
  751POPC   PO412732  12.228  32.946   9.544
  751POPC   GL112733  12.196  32.911   9.127
  751POPC   GL212734  11.845  32.961   9.153
  751POPC   C1A12735  12.067  32.681   8.773
  751POPC   D2A12736  11.922  32.648   8.371
  751POPC   C3A12737  12.244  32.669   8.072
  751POPC   C4A12738  12.264  32.844   7.666
  751POPC   C1B12739  11.916  33.171   8.766
  751POPC   C2B12740  12.215  33.085   8.472
  751POPC   C3B12741  12.210  33.178   8.066
  751POPC   C4B12742  12.277  33.403   7.728
  752POPC   NC312743  38.876  23.151   9.409
  752POPC   PO412744  39.374  22.714   9.673
  752POPC   GL112745  39.378  22.859   9.215
  752POPC   GL212746  39.092  22.838   9.061
  752POPC   C1A12747  39.507  22.927   8.773
  752POPC   D2A12748  39.241  23.091   8.424
  752POPC   C3A12749  39.375  23.070   7.991
  752POPC   C4A12750  39.424  22.905   7.561
  752POPC   C1B12751  39.049  22.653   8.652
  752POPC   C2B12752  39.243  22.591   8.254
  752POPC   C3B12753  39.041  22.710   7.858
  752POPC   C4B12754  38.951  22.699   7.426
  753POPC   NC312755  43.551  25.641   9.918
  753POPC   PO412756  43.391  26.207   9.559
  753POPC   GL112757  43.297  26.125   9.142
  753POPC   GL212758  42.955  26.106   9.184
  753POPC   C1A12759  43.254  25.977   8.723
  753POPC   D2A12760  43.029  25.873   8.348
  753POPC   C3A12761  43.131  26.042   7.965
  753POPC   C4A12762  43.459  25.986   7.721
  753POPC   C1B12763  42.940  26.389   8.815
  753POPC   C2B12764  42.842  26.422   8.362
  753POPC   C3B12765  42.788  26.399   7.892
  753POPC   C4B12766  42.743  26.066   7.564
  754POPC   NC312767  41.525  17.121   9.505
  754POPC   PO412768  41.275  16.521   9.506
  754POPC   GL112769  41.450  16.740   9.181
  754POPC   GL212770  41.812  16.669   9.219
  754POPC   C1A12771  41.581  16.933   8.827
  754POPC   D2A12772  41.622  16.778   8.419
  754POPC   C3A12773  41.381  16.939   8.089
  754POPC   C4A12774  41.359  16.609   7.773
  754POPC   C1B12775  41.896  16.468   8.802
  754POPC   C2B12776  42.067  16.517   8.381
  754POPC   C3B12777  42.046  16.877   8.113
  754POPC   C4B12778  41.790  16.849   7.774
  755POPC   NC312779  27.336   7.396   9.511
  755POPC   PO412780  27.188   6.766   9.288
  755POPC   GL112781  27.415   7.122   9.072
  755POPC   GL212782  27.748   7.255   9.217
  755POPC   C1A12783  27.500   7.476   8.784
  755POPC   D2A12784  27.327   7.811   8.497
  755POPC   C3A12785  27.320   7.672   8.038
  755POPC   C4A12786  27.543   7.390   7.731
  755POPC   C1B12787  27.947   7.577   9.010
  755POPC   C2B12788  27.969   7.561   8.574
  755POPC   C3B12789  27.794   7.457   8.186
  755POPC   C4B12790  28.027   7.454   7.797
  756POPC   NC312791  17.031   2.656   9.583
  756POPC   PO412792  16.464   3.095   9.494
  756POPC   GL112793  16.650   2.814   9.225
  756POPC   GL212794  16.973   2.935   9.159
  756POPC   C1A12795  16.590   2.696   8.811
  756POPC   D2A12796  16.688   2.524   8.422
  756POPC   C3A12797  16.603   2.702   8.022
  756POPC   C4A12798  16.663   2.565   7.584
  756POPC   C1B12799  17.126   2.712   8.800
  756POPC   C2B12800  17.047   2.886   8.388
  756POPC   C3B12801  17.074   2.907   7.946
  756POPC   C4B12802  17.088   3.308   7.742
  757POPC   NC312803  27.195  43.239   9.472
  757POPC   PO412804  26.819  42.709   9.565
  757POPC   GL112805  26.938  42.931   9.156
  757POPC   GL212806  26.848  43.321   9.117
  757POPC   C1A12807  26.824  42.983   8.731
  757POPC   D2A12808  26.785  43.159   8.322
  757POPC   C3A12809  26.937  42.824   7.984
  757POPC   C4A12810  26.986  42.879   7.489
  757POPC   C1B12811  27.114  43.412   8.767
  757POPC   C2B12812  27.231  43.443   8.329
  757POPC   C3B12813  27.058  43.305   7.908
  757POPC   C4B12814  27.129  43.505   7.522
  758POPC   NC312815  26.711  14.123   9.464
  758POPC   PO412816  27.107  14.669   9.373
  758POPC   GL112817  26.891  14.398   9.080
  758POPC   GL212818  26.561  14.446   9.083
  758POPC   C1A12819  26.805  14.202   8.678
  758POPC   D2A12820  26.766  14.454   8.391
  758POPC   C3A12821  27.001  14.545   8.061
  758POPC   C4A12822  27.071  14.486   7.649
  758POPC   C1B12823  26.450  14.698   8.750
  758POPC   C2B12824  26.287  14.626   8.329
  758POPC   C3B12825  26.480  14.421   7.983
  758POPC   C4B12826  26.586  14.564   7.599
  759POPC   NC312827  42.049  37.625   9.360
  759POPC   PO412828  42.728  37.445   9.532
  759POPC   GL112829  42.444  37.335   9.154
  759POPC   GL212830  42.491  37.657   9.045
  759POPC   C1A12831  42.220  37.469   8.690
  759POPC   D2A12832  42.337  37.720   8.293
  759POPC   C3A12833  42.276  37.589   7.859
  759POPC   C4A12834  42.370  37.443   7.446
  759POPC   C1B12835  42.424  37.976   8.732
  759POPC   C2B12836  42.500  38.233   8.362
  759POPC   C3B12837  42.530  38.064   7.952
  759POPC   C4B12838  42.684  37.828   7.621
  760POPC   NC312839  24.857  43.476   9.526
  760POPC   PO412840  24.156  43.335   9.645
  760POPC   GL112841  24.391  43.277   9.254
  760POPC   GL212842  24.254  42.971   9.058
  760POPC   C1A12843  24.441  43.350   8.799
  760POPC   D2A12844  24.257  43.026   8.488
  760POPC   C3A12845  24.444  43.003   8.101
  760POPC   C4A12846  24.323  43.221   7.762
  760POPC   C1B12847  24.650  42.880   8.777
  760POPC   C2B12848  24.800  42.660   8.397
  760POPC   C3B12849  24.646  42.555   7.981
  760POPC   C4B12850  24.466  42.741   7.594
  761POPC   NC312851  26.857  10.726   9.241
  761POPC   PO412852  27.317  10.394   9.616
  761POPC   GL112853  27.110  10.279   9.175
  761POPC   GL212854  26.701  10.262   9.097
  761POPC   C1A12855  27.022  10.370   8.705
  761POPC   D2A12856  27.086  10.773   8.424
  761POPC   C3A12857  27.165  10.608   8.012
  761POPC   C4A12858  26.984  10.189   7.817
  761POPC   C1B12859  26.522  10.537   8.704
  761POPC   C2B12860  26.562  10.793   8.298
  761POPC   C3B12861  26.688  10.658   7.859
  761POPC   C4B12862  26.624  10.778   7.345
  762POPC   NC312863  43.956  34.196   9.513
  762POPC   PO412864  43.884  33.545   9.526
  762POPC   GL112865  43.989  33.781   9.159
  762POPC   GL212866  44.336  33.785   9.176
  762POPC   C1A12867  44.142  33.712   8.724
  762POPC   D2A12868  44.209  33.938   8.406
  762POPC   C3A12869  43.959  33.768   8.113
  762POPC   C4A12870  43.994  33.779   7.703
  762POPC   C1B12871  44.340  33.348   9.020
  762POPC   C2B12872  44.313  33.233   8.614
  762POPC   C3B12873  44.284  33.411   8.249
  762POPC   C4B12874  44.204  33.330   7.848
  763POPC   NC312875   3.150  27.734   9.643
  763POPC   PO412876   2.503  27.865   9.705
  763POPC   GL112877   2.675  27.776   9.257
  763POPC   GL212878   3.008  27.793   9.143
  763POPC   C1A12879   2.718  27.520   8.833
  763POPC   D2A12880   2.951  27.520   8.423
  763POPC   C3A12881   2.744  27.554   8.004
  763POPC   C4A12882   2.559  27.223   7.713
  763POPC   C1B12883   3.014  27.985   8.708
  763POPC   C2B12884   3.025  28.024   8.237
  763POPC   C3B12885   2.992  27.961   7.793
  763POPC   C4B12886   2.732  27.701   7.498
  764POPC   NC312887  18.384  33.246   9.640
  764POPC   PO412888  17.905  32.819   9.791
  764POPC   GL112889  18.051  32.920   9.353
  764POPC   GL212890  18.396  32.993   9.198
  764POPC   C1A12891  17.994  32.819   8.917
  764POPC   D2A12892  17.911  32.912   8.496
  764POPC   C3A12893  18.156  32.943   8.118
  764POPC   C4A12894  17.990  33.073   7.730
  764POPC   C1B12895  18.259  33.253   8.814
  764POPC   C2B12896  18.141  33.413   8.378
  764POPC   C3B12897  18.228  33.493   7.917
  764POPC   C4B12898  18.592  33.421   7.645
  765POPC   NC312899  40.258  32.577   9.403
  765POPC   PO412900  40.871  32.244   9.451
  765POPC   GL112901  40.623  32.177   9.099
  765POPC   GL212902  40.547  32.490   8.983
  765POPC   C1A12903  40.725  32.071   8.658
  765POPC   D2A12904  41.157  32.099   8.445
  765POPC   C3A12905  41.118  31.904   8.049
  765POPC   C4A12906  40.830  32.026   7.762
  765POPC   C1B12907  40.991  32.478   8.807
  765POPC   C2B12908  41.059  32.648   8.418
  765POPC   C3B12909  40.913  32.422   8.077
  765POPC   C4B12910  40.739  32.515   7.692
  766POPC   NC312911  37.688  27.272   9.465
  766POPC   PO412912  37.259  27.761   9.468
  766POPC   GL112913  37.399  27.559   9.134
  766POPC   GL212914  37.745  27.647   9.114
  766POPC   C1A12915  37.472  27.524   8.701
  766POPC   D2A12916  37.732  27.335   8.390
  766POPC   C3A12917  37.567  27.393   7.982
  766POPC   C4A12918  37.516  27.772   7.767
  766POPC   C1B12919  38.027  27.489   8.794
  766POPC   C2B12920  38.253  27.518   8.404
  766POPC   C3B12921  38.076  27.497   8.005
  766POPC   C4B12922  37.958  27.558   7.596
  767POPC   NC312923  11.647   7.676   9.594
  767POPC   PO412924  10.978   7.470   9.576
  767POPC   GL112925  11.286   7.448   9.235
  767POPC   GL212926  11.295   7.792   9.247
  767POPC   C1A12927  11.451   7.340   8.806
  767POPC   D2A12928  11.332   7.108   8.437
  767POPC   C3A12929  11.532   7.076   8.033
  767POPC   C4A12930  11.241   7.184   7.730
  767POPC   C1B12931  11.609   7.822   8.906
  767POPC   C2B12932  11.657   7.699   8.440
  767POPC   C3B12933  11.524   7.597   7.994
  767POPC   C4B12934  11.629   7.872   7.639
  768POPC   NC312935  36.626  15.709   9.485
  768POPC   PO412936  37.283  15.851   9.498
  768POPC   GL112937  36.969  15.942   9.163
  768POPC   GL212938  36.595  15.997   9.065
  768POPC   C1A12939  37.007  16.113   8.756
  768POPC   D2A12940  37.352  16.130   8.456
  768POPC   C3A12941  37.153  16.305   8.113
  768POPC   C4A12942  37.004  16.064   7.778
  768POPC   C1B12943  36.569  15.612   8.801
  768POPC   C2B12944  36.724  15.345   8.457
  768POPC   C3B12945  36.795  15.520   8.060
  768POPC   C4B12946  36.564  15.793   7.824
  769POPC   NC312947   8.497  34.263   9.429
  769POPC   PO412948   8.035  34.708   9.490
  769POPC   GL112949   8.368  34.682   9.155
  769POPC   GL212950   8.222  34.364   9.021
  769POPC   C1A12951   8.517  34.621   8.727
  769POPC   D2A12952   8.379  34.433   8.331
  769POPC   C3A12953   8.053  34.685   8.157
  769POPC   C4A12954   8.224  34.797   7.791
  769POPC   C1B12955   7.982  34.407   8.648
  769POPC   C2B12956   7.893  34.204   8.261
  769POPC   C3B12957   7.912  34.314   7.823
  769POPC   C4B12958   7.761  34.651   7.601
  770POPC   NC312959  17.882  13.400   9.393
  770POPC   PO412960  18.420  13.840   9.443
  770POPC   GL112961  18.110  13.870   9.098
  770POPC   GL212962  17.932  14.220   9.088
  770POPC   C1A12963  18.218  13.708   8.655
  770POPC   D2A12964  18.485  13.373   8.417
  770POPC   C3A12965  18.368  13.297   7.988
  770POPC   C4A12966  17.984  13.326   7.773
  770POPC   C1B12967  18.266  14.226   8.761
  770POPC   C2B12968  18.371  14.174   8.355
  770POPC   C3B12969  18.337  13.814   8.113
  770POPC   C4B12970  18.239  13.768   7.698
  771POPC   NC312971  35.140  23.988   9.572
  771POPC   PO412972  35.415  24.677   9.544
  771POPC   GL112973  35.313  24.393   9.213
  771POPC   GL212974  34.993  24.265   9.195
  771POPC   C1A12975  35.157  24.522   8.782
  771POPC   D2A12976  35.295  24.595   8.344
  771POPC   C3A12977  35.188  24.675   7.947
  771POPC   C4A12978  35.398  24.688   7.552
  771POPC   C1B12979  34.971  24.053   8.812
  771POPC   C2B12980  34.880  24.276   8.407
  771POPC   C3B12981  34.861  24.303   7.947
  771POPC   C4B12982  35.069  24.168   7.580
  772POPC   NC312983  26.901  23.471   9.806
  772POPC   PO412984  27.034  24.080   9.690
  772POPC   GL112985  26.753  23.936   9.359
  772POPC   GL212986  26.760  23.579   9.310
  772POPC   C1A12987  26.722  23.853   8.909
  772POPC   D2A12988  26.588  23.745   8.516
  772POPC   C3A12989  26.830  23.894   8.191
  772POPC   C4A12990  26.787  23.838   7.771
  772POPC   C1B12991  26.686  23.359   8.865
  772POPC   C2B12992  26.985  23.429   8.470
  772POPC   C3B12993  27.103  23.409   8.003
  772POPC   C4B12994  26.876  23.362   7.594
  773POPC   NC312995  16.412  25.882   9.448
  773POPC   PO412996  16.897  26.359   9.627
  773POPC   GL112997  16.954  26.245   9.198
  773POPC   GL212998  16.840  25.913   9.119
  773POPC   C1A12999  16.921  26.371   8.761
  773POPC   D2A13000  16.686  26.344   8.374
  773POPC   C3A13001  16.893  26.365   7.983
  773POPC   C4A13002  17.160  26.052   7.845
  773POPC   C1B13003  16.509  26.040   8.793
  773POPC   C2B13004  16.343  25.798   8.413
  773POPC   C3B13005  16.415  25.782   7.949
  773POPC   C4B13006  16.308  25.815   7.504
  774POPC   NC313007  41.061  37.474   9.394
  774POPC   PO413008  40.572  37.993   9.481
  774POPC   GL113009  40.640  37.816   9.084
  774POPC   GL213010  40.987  37.801   9.035
  774POPC   C1A13011  40.649  37.702   8.634
  774POPC   D2A13012  40.427  37.691   8.220
  774POPC   C3A13013  40.586  37.468   7.870
  774POPC   C4A13014  41.021  37.396   7.768
  774POPC   C1B13015  41.171  37.729   8.644
  774POPC   C2B13016  41.010  37.623   8.245
  774POPC   C3B13017  40.902  37.888   7.917
  774POPC   C4B13018  40.980  37.868   7.493
  775POPC   NC313019   6.073  19.451   9.502
  775POPC   PO413020   5.582  19.005   9.496
  775POPC   GL113021   5.708  18.975   9.137
  775POPC   GL213022   5.570  18.672   9.053
  775POPC   C1A13023   5.913  19.218   8.848
  775POPC   D2A13024   6.069  19.092   8.471
  775POPC   C3A13025   5.968  19.172   8.086
  775POPC   C4A13026   6.284  19.084   7.814
  775POPC   C1B13027   5.843  18.704   8.728
  775POPC   C2B13028   5.660  18.771   8.356
  775POPC   C3B13029   5.775  18.712   7.981
  775POPC   C4B13030   5.802  18.942   7.658
  776POPC   NC313031  39.460  23.973   9.475
  776POPC   PO413032  39.272  23.363   9.284
  776POPC   GL113033  39.347  23.731   9.010
  776POPC   GL213034  39.682  23.930   9.029
  776POPC   C1A13035  39.166  23.677   8.583
  776POPC   D2A13036  39.404  23.552   8.211
  776POPC   C3A13037  39.094  23.510   7.907
  776POPC   C4A13038  38.843  23.853   7.855
  776POPC   C1B13039  39.598  23.921   8.581
  776POPC   C2B13040  39.625  24.109   8.179
  776POPC   C3B13041  39.458  23.883   7.811
  776POPC   C4B13042  39.524  23.436   7.628
  777POPC   NC313043  42.701   5.806   9.595
  777POPC   PO413044  42.051   5.564   9.449
  777POPC   GL113045  42.320   5.863   9.228
  777POPC   GL213046  42.046   6.013   9.085
  777POPC   C1A13047  42.433   6.043   8.797
  777POPC   D2A13048  42.355   5.898   8.379
  777POPC   C3A13049  42.565   5.970   7.970
  777POPC   C4A13050  42.698   5.721   7.600
  777POPC   C1B13051  42.040   5.673   8.783
  777POPC   C2B13052  41.999   5.511   8.315
  777POPC   C3B13053  42.079   5.732   7.940
  777POPC   C4B13054  42.060   6.141   8.018
  778POPC   NC313055  40.930  19.236   9.683
  778POPC   PO413056  40.500  18.810   9.397
  778POPC   GL113057  40.792  19.042   9.199
  778POPC   GL213058  40.528  19.219   9.022
  778POPC   C1A13059  40.918  18.953   8.765
  778POPC   D2A13060  40.739  19.054   8.356
  778POPC   C3A13061  40.800  18.837   7.940
  778POPC   C4A13062  40.900  18.818   7.471
  778POPC   C1B13063  40.871  19.448   8.844
  778POPC   C2B13064  41.131  19.376   8.477
  778POPC   C3B13065  41.025  19.482   8.059
  778POPC   C4B13066  40.862  19.293   7.673
  779POPC   NC313067   7.063   6.869   9.253
  779POPC   PO413068   7.754   6.712   9.565
  779POPC   GL113069   7.522   6.690   9.191
  779POPC   GL213070   7.484   6.350   9.268
  779POPC   C1A13071   7.394   6.785   8.726
  779POPC   D2A13072   7.459   7.019   8.332
  779POPC   C3A13073   7.214   6.947   7.941
  779POPC   C4A13074   7.295   6.864   7.504
  779POPC   C1B13075   7.711   6.366   8.854
  779POPC   C2B13076   7.500   6.365   8.461
  779POPC   C3B13077   7.487   6.547   8.096
  779POPC   C4B13078   7.385   6.430   7.702
  780POPC   NC313079  25.900  29.016   9.373
  780POPC   PO413080  26.505  29.357   9.400
  780POPC   GL113081  26.216  29.281   9.083
  780POPC   GL213082  25.929  29.505   9.041
  780POPC   C1A13083  26.178  28.982   8.733
  780POPC   D2A13084  26.203  29.242   8.375
  780POPC   C3A13085  26.215  29.104   8.008
  780POPC   C4A13086  26.138  29.349   7.677
  780POPC   C1B13087  25.714  29.176   8.767
  780POPC   C2B13088  25.762  28.940   8.365
  780POPC   C3B13089  25.722  29.075   7.939
  780POPC   C4B13090  25.813  29.006   7.489
  781POPC   NC313091  24.267  20.583   9.556
  781POPC   PO413092  24.859  20.526   9.210
  781POPC   GL113093  24.460  20.531   9.098
  781POPC   GL213094  24.342  20.880   9.126
  781POPC   C1A13095  24.226  20.459   8.774
  781POPC   D2A13096  24.355  20.264   8.437
  781POPC   C3A13097  24.371  20.592   8.159
  781POPC   C4A13098  24.369  20.390   7.751
  781POPC   C1B13099  24.549  20.879   8.709
  781POPC   C2B13100  24.788  20.569   8.476
  781POPC   C3B13101  24.815  20.401   8.040
  781POPC   C4B13102  24.692  20.784   7.760
  782POPC   NC313103  27.326  20.849   9.511
  782POPC   PO413104  27.703  20.308   9.610
  782POPC   GL113105  27.566  20.415   9.181
  782POPC   GL213106  27.375  20.690   9.045
  782POPC   C1A13107  27.708  20.439   8.735
  782POPC   D2A13108  27.953  20.710   8.434
  782POPC   C3A13109  27.813  20.679   7.984
  782POPC   C4A13110  27.638  20.406   7.661
  782POPC   C1B13111  27.448  20.890   8.641
  782POPC   C2B13112  27.607  21.068   8.264
  782POPC   C3B13113  27.388  21.109   7.906
  782POPC   C4B13114  27.199  20.960   7.586
  783POPC   NC313115  26.074  23.095   9.618
  783POPC   PO413116  25.603  23.058   9.214
  783POPC   GL113117  25.986  22.889   9.068
  783POPC   GL213118  26.275  23.124   9.152
  783POPC   C1A13119  25.884  22.612   8.706
  783POPC   D2A13120  25.628  22.653   8.302
  783POPC   C3A13121  25.907  22.785   7.968
  783POPC   C4A13122  25.990  23.190   7.722
  783POPC   C1B13123  26.190  23.193   8.710
  783POPC   C2B13124  26.405  23.123   8.317
  783POPC   C3B13125  26.587  23.443   8.087
  783POPC   C4B13126  26.398  23.510   7.729
  784POPC   NC313127  27.288  19.850   9.530
  784POPC   PO413128  27.869  19.908   9.155
  784POPC   GL113129  27.551  19.687   9.136
  784POPC   GL213130  27.364  19.965   9.055
  784POPC   C1A13131  27.459  19.474   8.801
  784POPC   D2A13132  27.711  19.564   8.452
  784POPC   C3A13133  27.552  19.526   8.051
  784POPC   C4A13134  27.560  19.737   7.678
  784POPC   C1B13135  27.230  19.906   8.688
  784POPC   C2B13136  27.297  19.855   8.325
  784POPC   C3B13137  27.445  20.085   8.034
  784POPC   C4B13138  27.215  20.152   7.691
  785POPC   NC313139  24.662  36.421   9.407
  785POPC   PO413140  24.206  35.900   9.432
  785POPC   GL113141  24.154  36.044   9.051
  785POPC   GL213142  24.268  36.372   9.058
  785POPC   C1A13143  24.271  35.890   8.652
  785POPC   D2A13144  24.591  35.802   8.361
  785POPC   C3A13145  24.377  35.918   8.001
  785POPC   C4A13146  24.510  35.990   7.632
  785POPC   C1B13147  24.109  36.405   8.660
  785POPC   C2B13148  24.402  36.306   8.347
  785POPC   C3B13149  24.600  36.400   7.965
  785POPC   C4B13150  24.321  36.518   7.670
  786POPC   NC313151  31.675  28.280   9.551
  786POPC   PO413152  31.101  28.678   9.507
  786POPC   GL113153  31.264  28.317   9.242
  786POPC   GL213154  31.267  28.479   8.970
  786POPC   C1A13155  31.469  28.047   8.877
  786POPC   D2A13156  31.587  28.279   8.525
  786POPC   C3A13157  31.521  28.175   8.101
  786POPC   C4A13158  31.562  28.355   7.710
  786POPC   C1B13159  31.025  28.201   8.697
  786POPC   C2B13160  30.963  28.342   8.280
  786POPC   C3B13161  31.056  28.280   7.849
  786POPC   C4B13162  31.175  28.640   7.595
  787POPC   NC313163   2.277   3.082   9.887
  787POPC   PO413164   2.090   2.541   9.461
  787POPC   GL113165   2.088   2.579   9.056
  787POPC   GL213166   2.288   2.886   9.085
  787POPC   C1A13167   1.786   2.493   8.710
  787POPC   D2A13168   1.669   2.797   8.368
  787POPC   C3A13169   2.034   2.954   8.112
  787POPC   C4A13170   2.104   3.083   7.702
  787POPC   C1B13171   2.131   2.865   8.637
  787POPC   C2B13172   2.111   2.503   8.301
  787POPC   C3B13173   2.210   2.501   7.851
  787POPC   C4B13174   2.308   2.394   7.410
  788POPC   NC313175  14.803   8.317   9.279
  788POPC   PO413176  14.989   7.670   9.219
  788POPC   GL113177  15.210   8.022   9.035
  788POPC   GL213178  15.271   8.386   9.107
  788POPC   C1A13179  15.095   8.212   8.645
  788POPC   D2A13180  14.741   8.068   8.390
  788POPC   C3A13181  14.894   8.081   7.967
  788POPC   C4A13182  15.281   7.925   7.816
  788POPC   C1B13183  15.331   8.674   8.777
  788POPC   C2B13184  15.603   8.544   8.452
  788POPC   C3B13185  15.766   8.595   8.045
  788POPC   C4B13186  15.588   8.358   7.707
  789POPC   NC313187  11.338  20.398   9.620
  789POPC   PO413188  11.478  20.937   9.339
  789POPC   GL113189  11.180  20.706   9.159
  789POPC   GL213190  11.163  20.328   9.150
  789POPC   C1A13191  11.319  20.660   8.765
  789POPC   D2A13192  11.176  20.536   8.415
  789POPC   C3A13193  11.118  20.768   8.069
  789POPC   C4A13194  11.105  20.582   7.683
  789POPC   C1B13195  11.424  20.135   8.815
  789POPC   C2B13196  11.391  20.040   8.367
  789POPC   C3B13197  11.438  20.342   8.036
  789POPC   C4B13198  11.603  20.430   7.649
  790POPC   NC313199  36.315  11.939   9.555
  790POPC   PO413200  35.658  12.093   9.372
  790POPC   GL113201  36.071  12.157   9.134
  790POPC   GL213202  36.320  11.871   9.064
  790POPC   C1A13203  36.003  12.368   8.745
  790POPC   D2A13204  35.906  12.129   8.442
  790POPC   C3A13205  35.861  12.267   8.063
  790POPC   C4A13206  35.982  12.154   7.652
  790POPC   C1B13207  36.434  12.042   8.686
  790POPC   C2B13208  36.262  11.775   8.373
  790POPC   C3B13209  36.193  11.867   7.987
  790POPC   C4B13210  36.440  11.957   7.594
  791POPC   NC313211  27.115  37.681   9.552
  791POPC   PO413212  26.566  38.029   9.520
  791POPC   GL113213  26.738  37.800   9.234
  791POPC   GL213214  27.007  37.969   9.114
  791POPC   C1A13215  26.755  37.580   8.893
  791POPC   D2A13216  26.672  37.483   8.504
  791POPC   C3A13217  26.933  37.668   8.215
  791POPC   C4A13218  26.833  37.744   7.787
  791POPC   C1B13219  26.920  38.007   8.637
  791POPC   C2B13220  27.273  38.025   8.299
  791POPC   C3B13221  27.325  37.988   7.852
  791POPC   C4B13222  27.125  37.970   7.423
  792POPC   NC313223   6.401   7.566   9.528
  792POPC   PO413224   6.628   6.895   9.379
  792POPC   GL113225   6.607   7.237   9.113
  792POPC   GL213226   6.610   7.608   9.075
  792POPC   C1A13227   6.798   7.232   8.727
  792POPC   D2A13228   7.022   7.283   8.366
  792POPC   C3A13229   6.821   7.267   8.000
  792POPC   C4A13230   6.658   6.991   7.732
  792POPC   C1B13231   6.395   7.875   8.772
  792POPC   C2B13232   6.426   7.986   8.361
  792POPC   C3B13233   6.201   7.802   8.033
  792POPC   C4B13234   6.325   7.682   7.634
  793POPC   NC313235  41.374   6.462   9.369
  793POPC   PO413236  40.729   6.726   9.498
  793POPC   GL113237  40.857   6.846   9.138
  793POPC   GL213238  40.657   7.098   9.045
  793POPC   C1A13239  40.902   6.674   8.766
  793POPC   D2A13240  40.841   6.696   8.329
  793POPC   C3A13241  41.024   6.503   7.973
  793POPC   C4A13242  40.825   6.561   7.571
  793POPC   C1B13243  40.585   7.053   8.612
  793POPC   C2B13244  40.476   7.028   8.157
  793POPC   C3B13245  40.484   6.925   7.721
  793POPC   C4B13246  40.466   6.793   7.273
  794POPC   NC313247  20.010  13.314   9.658
  794POPC   PO413248  19.649  12.795   9.886
  794POPC   GL113249  19.741  12.840   9.386
  794POPC   GL213250  20.072  12.900   9.309
  794POPC   C1A13251  19.688  13.094   8.963
  794POPC   D2A13252  19.467  13.038   8.555
  794POPC   C3A13253  19.612  13.073   8.116
  794POPC   C4A13254  19.681  12.889   7.720
  794POPC   C1B13255  20.139  12.904   8.848
  794POPC   C2B13256  19.929  12.840   8.471
  794POPC   C3B13257  20.101  12.927   8.067
  794POPC   C4B13258  20.194  12.820   7.651
  795POPC   NC313259  22.863  37.913   9.483
  795POPC   PO413260  22.811  37.316   9.266
  795POPC   GL113261  23.044  37.659   9.087
  795POPC   GL213262  22.873  37.597   8.794
  795POPC   C1A13263  23.009  38.068   8.826
  795POPC   D2A13264  22.668  38.024   8.531
  795POPC   C3A13265  22.907  37.866   8.193
  795POPC   C4A13266  22.877  37.910   7.756
  795POPC   C1B13267  23.183  37.345   8.672
  795POPC   C2B13268  23.222  37.425   8.245
  795POPC   C3B13269  23.029  37.432   7.865
  795POPC   C4B13270  23.091  37.404   7.408
  796POPC   NC313271  37.911  11.901   9.590
  796POPC   PO413272  37.375  11.695   9.221
  796POPC   GL113273  37.644  12.059   9.102
  796POPC   GL213274  37.412  12.401   9.122
  796POPC   C1A13275  37.896  12.162   8.719
  796POPC   D2A13276  37.840  12.308   8.260
  796POPC   C3A13277  37.702  11.973   7.981
  796POPC   C4A13278  38.002  11.727   7.759
  796POPC   C1B13279  37.377  12.273   8.724
  796POPC   C2B13280  37.364  12.435   8.343
  796POPC   C3B13281  37.290  12.286   7.949
  796POPC   C4B13282  37.210  12.149   7.528
  797POPC   NC313283  34.368  34.729   9.477
  797POPC   PO413284  35.107  34.441   9.466
  797POPC   GL113285  34.746  34.521   9.179
  797POPC   GL213286  34.943  34.790   9.021
  797POPC   C1A13287  34.472  34.728   8.797
  797POPC   D2A13288  34.372  34.985   8.375
  797POPC   C3A13289  34.415  34.697   7.985
  797POPC   C4A13290  34.501  34.386   7.624
  797POPC   C1B13291  34.912  34.476   8.715
  797POPC   C2B13292  34.670  34.372   8.387
  797POPC   C3B13293  34.864  34.442   7.993
  797POPC   C4B13294  34.934  34.669   7.615
  798POPC   NC313295   9.412   4.161   9.462
  798POPC   PO413296   9.768   4.668   9.484
  798POPC   GL113297   9.733   4.409   9.118
  798POPC   GL213298  10.067   4.258   9.103
  798POPC   C1A13299   9.434   4.245   8.789
  798POPC   D2A13300   9.320   4.075   8.386
  798POPC   C3A13301   9.413   4.350   8.053
  798POPC   C4A13302   9.650   4.698   7.902
  798POPC   C1B13303   9.972   4.100   8.725
  798POPC   C2B13304   9.851   4.253   8.332
  798POPC   C3B13305   9.910   4.228   7.899
  798POPC   C4B13306   9.619   4.173   7.571
  799POPC   NC313307  34.125  25.024   9.447
  799POPC   PO413308  34.673  25.344   9.489
  799POPC   GL113309  34.598  25.391   9.061
  799POPC   GL213310  34.278  25.259   8.952
  799POPC   C1A13311  34.657  25.425   8.657
  799POPC   D2A13312  34.498  25.169   8.365
  799POPC   C3A13313  34.598  25.401   8.047
  799POPC   C4A13314  34.756  25.424   7.647
  799POPC   C1B13315  34.107  24.937   8.655
  799POPC   C2B13316  34.153  24.800   8.214
  799POPC   C3B13317  34.169  25.134   7.901
  799POPC   C4B13318  34.310  25.218   7.474
  800POPC   NC313319   3.861  27.615   9.569
  800POPC   PO413320   3.318  27.288   9.759
  800POPC   GL113321   3.369  27.411   9.288
  800POPC   GL213322   3.506  27.763   9.239
  800POPC   C1A13323   3.293  27.533   8.828
  800POPC   D2A13324   3.422  27.773   8.455
  800POPC   C3A13325   3.304  27.605   8.043
  800POPC   C4A13326   3.452  27.756   7.656
  800POPC   C1B13327   3.785  27.710   8.852
  800POPC   C2B13328   3.871  27.534   8.419
  800POPC   C3B13329   3.817  27.690   7.999
  800POPC   C4B13330   3.986  27.716   7.573
  801POPC   NC313331  17.835  40.192   9.526
  801POPC   PO413332  17.170  40.088   9.434
  801POPC   GL113333  17.461  40.234   9.176
  801POPC   GL213334  17.696  39.936   9.077
  801POPC   C1A13335  17.436  40.272   8.776
  801POPC   D2A13336  17.565  40.104   8.408
  801POPC   C3A13337  17.338  40.169   8.056
  801POPC   C4A13338  17.601  39.927   7.795
  801POPC   C1B13339  17.359  39.777   8.758
  801POPC   C2B13340  17.201  39.720   8.365
  801POPC   C3B13341  17.245  39.566   7.960
  801POPC   C4B13342  17.244  39.683   7.509
  802POPC   NC313343   7.379  29.208   9.951
  802POPC   PO413344   7.719  28.697   9.672
  802POPC   GL113345   7.672  28.990   9.262
  802POPC   GL213346   7.727  29.363   9.221
  802POPC   C1A13347   7.552  28.974   8.797
  802POPC   D2A13348   7.337  28.912   8.390
  802POPC   C3A13349   7.519  29.033   7.990
  802POPC   C4A13350   7.357  29.214   7.559
  802POPC   C1B13351   7.623  29.477   8.796
  802POPC   C2B13352   7.413  29.435   8.393
  802POPC   C3B13353   7.474  29.547   7.967
  802POPC   C4B13354   7.804  29.383   7.738
  803POPC   NC313355  39.302  29.687   9.612
  803POPC   PO413356  39.362  29.014   9.528
  803POPC   GL113357  39.412  29.094   9.120
  803POPC   GL213358  39.397  29.460   9.156
  803POPC   C1A13359  39.384  28.945   8.696
  803POPC   D2A13360  39.134  28.671   8.460
  803POPC   C3A13361  39.114  28.840   8.109
  803POPC   C4A13362  39.240  28.804   7.694
  803POPC   C1B13363  39.153  29.389   8.781
  803POPC   C2B13364  39.203  29.326   8.344
  803POPC   C3B13365  39.158  29.314   7.907
  803POPC   C4B13366  38.962  29.353   7.519
  804POPC   NC313367  39.367  44.312   9.597
  804POPC   PO413368  38.935  44.860   9.567
  804POPC   GL113369  39.241  44.681   9.224
  804POPC   GL213370  39.559  44.420   9.161
  804POPC   C1A13371  39.298  44.896   8.816
  804POPC   D2A13372  39.497  44.837   8.413
  804POPC   C3A13373  39.228  44.831   8.002
  804POPC   C4A13374  38.823  44.904   7.743
  804POPC   C1B13375  39.380  44.381   8.783
  804POPC   C2B13376  39.525  44.327   8.410
  804POPC   C3B13377  39.676  44.526   8.064
  804POPC   C4B13378  39.495  44.427   7.735
  805POPC   NC313379  15.057  21.856   9.767
  805POPC   PO413380  15.254  22.315   9.310
  805POPC   GL113381  15.149  21.923   9.182
  805POPC   GL213382  14.893  22.042   8.959
  805POPC   C1A13383  15.209  21.733   8.765
  805POPC   D2A13384  15.167  22.006   8.407
  805POPC   C3A13385  15.254  21.825   8.017
  805POPC   C4A13386  15.584  21.922   7.743
  805POPC   C1B13387  14.956  22.408   8.718
  805POPC   C2B13388  15.102  22.524   8.334
  805POPC   C3B13389  14.918  22.311   8.012
  805POPC   C4B13390  15.019  22.090   7.656
  806POPC   NC313391   0.123  24.356   9.892
  806POPC   PO413392   0.699  24.236   9.506
  806POPC   GL113393   0.503  24.381   9.139
  806POPC   GL213394   0.183  24.330   9.262
  806POPC   C1A13395   0.485  24.556   8.730
  806POPC   D2A13396   0.378  24.729   8.338
  806POPC   C3A13397   0.630  24.620   7.987
  806POPC   C4A13398   0.543  24.487   7.584
  806POPC   C1B13399   0.138  24.151   8.828
  806POPC   C2B13400   0.071  24.312   8.402
  806POPC   C3B13401   0.250  24.280   7.989
  806POPC   C4B13402   0.214  24.046   7.653
  807POPC   NC313403  10.138   4.469   9.695
  807POPC   PO413404  10.760   4.201   9.564
  807POPC   GL113405  10.641   4.326   9.180
  807POPC   GL213406  10.440   4.584   9.161
  807POPC   C1A13407  10.540   4.129   8.805
  807POPC   D2A13408  10.796   3.900   8.500
  807POPC   C3A13409  10.756   4.110   8.104
  807POPC   C4A13410  10.416   4.238   7.803
  807POPC   C1B13411  10.260   4.564   8.737
  807POPC   C2B13412  10.343   4.464   8.299
  807POPC   C3B13413  10.406   4.729   7.964
  807POPC   C4B13414  10.115   4.649   7.688
  808POPC   NC313415  17.820  31.200   9.514
  808POPC   PO413416  17.296  31.534   9.594
  808POPC   GL113417  17.553  31.574   9.220
  808POPC   GL213418  17.603  31.238   9.056
  808POPC   C1A13419  17.655  31.669   8.781
  808POPC   D2A13420  17.602  31.398   8.436
  808POPC   C3A13421  17.679  31.525   8.023
  808POPC   C4A13422  17.701  31.704   7.599
  808POPC   C1B13423  17.328  31.032   8.753
  808POPC   C2B13424  17.152  31.120   8.380
  808POPC   C3B13425  17.331  31.114   7.984
  808POPC   C4B13426  17.464  31.119   7.566
  809POPC   NC313427  44.926  27.459   9.684
  809POPC   PO413428  44.329  27.608   9.690
  809POPC   GL113429  44.567  27.368   9.344
  809POPC   GL213430  44.632  27.655   9.180
  809POPC   C1A13431  44.765  27.255   8.905
  809POPC   D2A13432  44.727  27.541   8.545
  809POPC   C3A13433  44.729  27.422   8.091
  809POPC   C4A13434  44.541  27.579   7.720
  809POPC   C1B13435  44.425  27.908   8.844
  809POPC   C2B13436  44.500  28.010   8.422
  809POPC   C3B13437  44.297  27.796   8.104
  809POPC   C4B13438  44.246  27.998   7.719
  810POPC   NC313439   6.330  29.959   9.683
  810POPC   PO413440   6.900  29.688   9.534
  810POPC   GL113441   6.666  29.937   9.170
  810POPC   GL213442   6.946  30.133   9.076
  810POPC   C1A13443   6.549  30.213   8.773
  810POPC   D2A13444   6.648  30.230   8.314
  810POPC   C3A13445   6.338  30.221   7.979
  810POPC   C4A13446   6.242  30.178   7.534
  810POPC   C1B13447   6.981  29.977   8.599
  810POPC   C2B13448   7.040  29.891   8.122
  810POPC   C3B13449   7.046  29.628   7.700
  810POPC   C4B13450   7.056  29.515   7.236
  811POPC   NC313451  19.942  26.469   9.574
  811POPC   PO413452  19.739  27.109   9.585
  811POPC   GL113453  19.699  26.785   9.206
  811POPC   GL213454  20.031  26.658   9.091
  811POPC   C1A13455  19.643  26.791   8.723
  811POPC   D2A13456  19.820  27.078   8.372
  811POPC   C3A13457  19.908  26.883   7.976
  811POPC   C4A13458  19.664  26.560   7.734
  811POPC   C1B13459  20.154  26.776   8.651
  811POPC   C2B13460  20.319  26.698   8.228
  811POPC   C3B13461  20.186  26.471   7.856
  811POPC   C4B13462  20.125  26.596   7.432
  812POPC   NC313463   3.407  28.590   9.413
  812POPC   PO413464   3.884  28.061   9.601
  812POPC   GL113465   3.712  28.229   9.238
  812POPC   GL213466   3.869  28.532   9.158
  812POPC   C1A13467   3.490  28.134   8.847
  812POPC   D2A13468   3.435  28.292   8.434
  812POPC   C3A13469   3.486  28.117   8.022
  812POPC   C4A13470   3.407  28.366   7.640
  812POPC   C1B13471   3.690  28.629   8.773
  812POPC   C2B13472   3.590  28.788   8.387
  812POPC   C3B13473   3.681  28.593   8.048
  812POPC   C4B13474   3.811  28.729   7.684
  813POPC   NC313475  37.652  35.953   9.540
  813POPC   PO413476  37.531  36.563   9.563
  813POPC   GL113477  37.608  36.288   9.128
  813POPC   GL213478  37.682  35.928   9.038
  813POPC   C1A13479  37.727  36.331   8.668
  813POPC   D2A13480  37.879  36.015   8.333
  813POPC   C3A13481  37.794  36.130   7.926
  813POPC   C4A13482  37.493  36.413   7.768
  813POPC   C1B13483  37.433  35.923   8.665
  813POPC   C2B13484  37.371  36.108   8.259
  813POPC   C3B13485  37.337  35.908   7.851
  813POPC   C4B13486  37.650  35.789   7.561
  814POPC   NC313487   8.684  23.839   9.384
  814POPC   PO413488   9.130  23.397   9.469
  814POPC   GL113489   9.019  23.535   9.107
  814POPC   GL213490   9.173  23.833   9.171
  814POPC   C1A13491   9.242  23.502   8.749
  814POPC   D2A13492   9.112  23.656   8.388
  814POPC   C3A13493   9.201  23.553   8.019
  814POPC   C4A13494   8.872  23.585   7.779
  814POPC   C1B13495   9.035  23.987   8.769
  814POPC   C2B13496   8.780  24.048   8.416
  814POPC   C3B13497   9.010  24.057   8.075
  814POPC   C4B13498   8.945  24.070   7.679
  815POPC   NC313499  20.368   8.565   9.692
  815POPC   PO413500  20.900   8.152   9.553
  815POPC   GL113501  20.684   8.242   9.161
  815POPC   GL213502  20.334   8.377   9.177
  815POPC   C1A13503  20.662   8.105   8.729
  815POPC   D2A13504  20.786   8.394   8.393
  815POPC   C3A13505  20.697   8.312   7.947
  815POPC   C4A13506  20.873   8.190   7.543
  815POPC   C1B13507  20.345   8.484   8.705
  815POPC   C2B13508  20.305   8.530   8.248
  815POPC   C3B13509  20.323   8.625   7.794
  815POPC   C4B13510  20.487   8.501   7.380
  816POPC   NC313511  40.193  11.088   9.535
  816POPC   PO413512  39.838  11.682   9.632
  816POPC   GL113513  39.962  11.442   9.242
  816POPC   GL213514  39.816  11.133   9.198
  816POPC   C1A13515  40.178  11.247   8.844
  816POPC   D2A13516  40.025  11.076   8.443
  816POPC   C3A13517  40.171  11.139   8.039
  816POPC   C4A13518  40.247  11.526   7.837
  816POPC   C1B13519  39.679  11.243   8.819
  816POPC   C2B13520  39.520  11.095   8.460
  816POPC   C3B13521  39.661  11.293   8.089
  816POPC   C4B13522  39.804  11.236   7.690
  817POPC   NC313523  23.872  44.617   9.612
  817POPC   PO413524  23.329   0.046   9.492
  817POPC   GL113525  23.601  44.841   9.192
  817POPC   GL213526  23.542  44.517   9.177
  817POPC   C1A13527  23.548  44.826   8.713
  817POPC   D2A13528  23.325  44.732   8.315
  817POPC   C3A13529  23.579  44.688   7.927
  817POPC   C4A13530  23.517  44.735   7.468
  817POPC   C1B13531  23.759  44.362   8.774
  817POPC   C2B13532  23.623  44.324   8.356
  817POPC   C3B13533  23.670  44.168   7.946
  817POPC   C4B13534  23.818  44.321   7.590
  818POPC   NC313535  12.238  42.617   9.542
  818POPC   PO413536  12.072  41.971   9.588
  818POPC   GL113537  12.222  42.232   9.204
  818POPC   GL213538  11.941  42.263   8.940
  818POPC   C1A13539  12.427  42.377   8.797
  818POPC   D2A13540  12.192  42.280   8.407
  818POPC   C3A13541  12.289  42.228   7.983
  818POPC   C4A13542  11.993  42.298   7.662
  818POPC   C1B13543  11.991  42.640   8.689
  818POPC   C2B13544  12.217  42.803   8.390
  818POPC   C3B13545  12.092  42.718   8.002
  818POPC   C4B13546  12.382  42.669   7.706
  819POPC   NC313547  16.301  21.457   9.614
  819POPC   PO413548  15.656  21.704   9.682
  819POPC   GL113549  15.895  21.439   9.317
  819POPC   GL213550  16.145  21.604   9.115
  819POPC   C1A13551  15.876  21.181   8.949
  819POPC   D2A13552  15.946  21.312   8.502
  819POPC   C3A13553  16.087  21.132   8.102
  819POPC   C4A13554  15.930  21.196   7.710
  819POPC   C1B13555  15.753  21.693   8.833
  819POPC   C2B13556  15.543  21.611   8.393
  819POPC   C3B13557  15.813  21.571   8.025
  819POPC   C4B13558  16.069  21.699   7.634
  820POPC   NC313559  38.169   3.069   9.213
  820POPC   PO413560  38.626   2.660   9.576
  820POPC   GL113561  38.571   2.748   9.181
  820POPC   GL213562  38.709   3.091   9.202
  820POPC   C1A13563  38.481   2.723   8.752
  820POPC   D2A13564  38.586   2.740   8.347
  820POPC   C3A13565  38.241   2.674   8.081
  820POPC   C4A13566  38.223   2.398   7.738
  820POPC   C1B13567  38.667   3.210   8.768
  820POPC   C2B13568  38.349   3.183   8.443
  820POPC   C3B13569  38.504   3.119   8.023
  820POPC   C4B13570  38.230   3.040   7.714
  821POPC   NC313571   6.561  32.352   9.675
  821POPC   PO413572   6.998  32.002   9.379
  821POPC   GL113573   6.669  32.184   9.156
  821POPC   GL213574   6.665  32.536   9.196
  821POPC   C1A13575   6.510  32.259   8.757
  821POPC   D2A13576   6.772  32.196   8.401
  821POPC   C3A13577   6.588  32.209   7.998
  821POPC   C4A13578   6.400  32.039   7.633
  821POPC   C1B13579   6.973  32.473   8.839
  821POPC   C2B13580   6.970  32.658   8.428
  821POPC   C3B13581   7.008  32.518   8.011
  821POPC   C4B13582   7.016  32.266   7.673
  822POPC   NC313583   4.617   6.868   9.617
  822POPC   PO413584   4.059   6.506   9.484
  822POPC   GL113585   4.345   6.667   9.158
  822POPC   GL213586   4.492   6.976   9.144
  822POPC   C1A13587   4.361   6.652   8.714
  822POPC   D2A13588   4.075   6.820   8.400
  822POPC   C3A13589   4.109   6.682   7.966
  822POPC   C4A13590   4.380   6.527   7.657
  822POPC   C1B13591   4.387   7.158   8.765
  822POPC   C2B13592   4.546   7.022   8.392
  822POPC   C3B13593   4.628   6.837   7.991
  822POPC   C4B13594   4.694   6.909   7.539
  823POPC   NC313595  41.715  40.488   9.551
  823POPC   PO413596  41.338  41.023   9.534
  823POPC   GL113597  41.379  40.716   9.231
  823POPC   GL213598  41.669  40.873   9.159
  823POPC   C1A13599  41.359  40.618   8.807
  823POPC   D2A13600  41.384  40.852   8.419
  823POPC   C3A13601  41.308  40.605   8.038
  823POPC   C4A13602  41.527  40.639   7.604
  823POPC   C1B13603  41.829  40.817   8.756
  823POPC   C2B13604  41.862  41.023   8.352
  823POPC   C3B13605  41.703  40.921   7.966
  823POPC   C4B13606  41.839  41.031   7.527
  824POPC   NC313607   9.382   2.457   9.618
  824POPC   PO413608   8.750   2.666   9.587
  824POPC   GL113609   9.062   2.733   9.283
  824POPC   GL213610   9.034   2.386   9.223
  824POPC   C1A13611   9.183   2.715   8.843
  824POPC   D2A13612   9.253   2.959   8.470
  824POPC   C3A13613   9.076   2.773   8.104
  824POPC   C4A13614   9.133   2.957   7.725
  824POPC   C1B13615   8.705   2.488   8.916
  824POPC   C2B13616   8.774   2.575   8.489
  824POPC   C3B13617   8.591   2.519   8.083
  824POPC   C4B13618   8.729   2.651   7.691
  825POPC   NC313619  30.336  10.437   9.612
  825POPC   PO413620  29.631  10.532   9.491
  825POPC   GL113621  29.752  10.488   9.084
  825POPC   GL213622  30.081  10.380   9.149
  825POPC   C1A13623  29.751  10.704   8.668
  825POPC   D2A13624  29.904  10.537   8.308
  825POPC   C3A13625  29.832  10.668   7.920
  825POPC   C4A13626  29.880  10.459   7.559
  825POPC   C1B13627  30.195  10.513   8.733
  825POPC   C2B13628  30.390  10.325   8.369
  825POPC   C3B13629  30.255  10.325   7.947
  825POPC   C4B13630  30.333  10.658   7.697
  826POPC   NC313631  43.212   3.323   9.709
  826POPC   PO413632  43.892   3.626   9.894
  826POPC   GL113633  43.741   3.498   9.420
  826POPC   GL213634  43.756   3.815   9.192
  826POPC   C1A13635  43.789   3.383   8.945
  826POPC   D2A13636  43.831   3.486   8.498
  826POPC   C3A13637  43.758   3.288   8.090
  826POPC   C4A13638  43.879   3.448   7.678
  826POPC   C1B13639  43.499   3.776   8.796
  826POPC   C2B13640  43.553   3.932   8.365
  826POPC   C3B13641  43.766   3.981   7.949
  826POPC   C4B13642  43.626   3.890   7.521
  827POPC   NC313643  30.025  23.396   9.531
  827POPC   PO413644  30.230  24.082   9.463
  827POPC   GL113645  29.961  23.852   9.170
  827POPC   GL213646  29.780  23.533   9.115
  827POPC   C1A13647  30.005  23.784   8.730
  827POPC   D2A13648  30.203  23.671   8.339
  827POPC   C3A13649  29.925  23.725   8.013
  827POPC   C4A13650  29.980  23.952   7.650
  827POPC   C1B13651  29.627  23.442   8.736
  827POPC   C2B13652  29.509  23.594   8.357
  827POPC   C3B13653  29.539  23.401   7.979
  827POPC   C4B13654  29.693  23.452   7.561
  828POPC   NC313655   3.865  39.346   9.511
  828POPC   PO413656   3.562  38.750   9.533
  828POPC   GL113657   3.422  38.869   9.118
  828POPC   GL213658   3.514  39.226   9.111
  828POPC   C1A13659   3.473  38.968   8.665
  828POPC   D2A13660   3.733  39.226   8.375
  828POPC   C3A13661   3.822  39.037   7.997
  828POPC   C4A13662   3.474  38.905   7.754
  828POPC   C1B13663   3.431  39.468   8.734
  828POPC   C2B13664   3.236  39.383   8.327
  828POPC   C3B13665   3.489  39.426   7.956
  828POPC   C4B13666   3.902  39.651   8.058
  829POPC   NC313667  33.493  23.545   9.680
  829POPC   PO413668  34.021  23.935   9.876
  829POPC   GL113669  33.911  23.760   9.400
  829POPC   GL213670  33.838  23.444   9.280
  829POPC   C1A13671  33.717  23.895   8.973
  829POPC   D2A13672  33.642  23.751   8.535
  829POPC   C3A13673  33.845  23.765   8.123
  829POPC   C4A13674  33.655  23.598   7.751
  829POPC   C1B13675  33.991  23.464   8.832
  829POPC   C2B13676  33.961  23.310   8.396
  829POPC   C3B13677  34.005  23.290   7.960
  829POPC   C4B13678  34.158  23.611   7.655
  830POPC   NC313679   2.577  35.325   9.391
  830POPC   PO413680   3.247  35.284   9.569
  830POPC   GL113681   3.112  35.422   9.155
  830POPC   GL213682   2.912  35.132   9.052
  830POPC   C1A13683   3.020  35.500   8.689
  830POPC   D2A13684   2.774  35.368   8.344
  830POPC   C3A13685   2.839  35.259   7.923
  830POPC   C4A13686   2.709  35.573   7.627
  830POPC   C1B13687   2.640  35.013   8.692
  830POPC   C2B13688   2.589  34.899   8.248
  830POPC   C3B13689   2.318  34.918   7.908
  830POPC   C4B13690   2.464  35.123   7.544
  831POPC   NC313691  10.916  33.793   9.616
  831POPC   PO413692  11.626  33.632   9.564
  831POPC   GL113693  11.462  33.706   9.185
  831POPC   GL213694  11.183  33.903   9.160
  831POPC   C1A13695  11.487  33.494   8.813
  831POPC   D2A13696  11.267  33.544   8.432
  831POPC   C3A13697  11.418  33.629   8.020
  831POPC   C4A13698  11.119  33.619   7.705
  831POPC   C1B13699  11.338  34.022   8.745
  831POPC   C2B13700  11.192  34.065   8.295
  831POPC   C3B13701  11.273  34.146   7.839
  831POPC   C4B13702  11.350  33.973   7.403
  832POPC   NC313703  30.983  23.127   9.588
  832POPC   PO413704  30.573  22.596   9.536
  832POPC   GL113705  30.606  22.896   9.215
  832POPC   GL213706  30.927  22.856   9.167
  832POPC   C1A13707  30.544  22.882   8.784
  832POPC   D2A13708  30.774  22.829   8.436
  832POPC   C3A13709  30.616  22.670   8.073
  832POPC   C4A13710  30.614  22.817   7.659
  832POPC   C1B13711  31.098  22.999   8.812
  832POPC   C2B13712  31.169  23.175   8.424
  832POPC   C3B13713  31.051  23.016   8.040
  832POPC   C4B13714  31.232  23.087   7.631
  833POPC   NC313715  28.799   8.634   9.602
  833POPC   PO413716  29.235   9.164   9.715
  833POPC   GL113717  29.091   8.991   9.328
  833POPC   GL213718  29.116   9.279   9.137
  833POPC   C1A13719  29.282   8.792   8.970
  833POPC   D2A13720  29.361   8.795   8.553
  833POPC   C3A13721  29.396   8.748   8.122
  833POPC   C4A13722  29.208   8.789   7.723
  833POPC   C1B13723  28.900   9.075   8.770
  833POPC   C2B13724  28.955   9.001   8.324
  833POPC   C3B13725  29.057   9.203   7.926
  833POPC   C4B13726  29.010   9.185   7.465
  834POPC   NC313727  35.435   0.733   9.452
  834POPC   PO413728  35.115   0.173   9.415
  834POPC   GL113729  35.323   0.357   9.099
  834POPC   GL213730  35.085   0.661   9.099
  834POPC   C1A13731  35.415   0.245   8.670
  834POPC   D2A13732  35.083   0.212   8.338
  834POPC   C3A13733  35.213   0.153   7.926
  834POPC   C4A13734  35.664   0.077   7.797
  834POPC   C1B13735  35.392   0.768   8.784
  834POPC   C2B13736  35.344   0.673   8.366
  834POPC   C3B13737  35.585   0.539   8.036
  834POPC   C4B13738  35.445   0.493   7.611
  835POPC   NC313739  31.927  25.802   9.575
  835POPC   PO413740  32.284  26.372   9.604
  835POPC   GL113741  32.440  26.052   9.283
  835POPC   GL213742  32.179  25.830   9.139
  835POPC   C1A13743  32.473  26.110   8.837
  835POPC   D2A13744  32.483  26.429   8.526
  835POPC   C3A13745  32.553  26.286   8.089
  835POPC   C4A13746  32.403  26.011   7.767
  835POPC   C1B13747  32.047  25.706   8.712
  835POPC   C2B13748  32.157  25.784   8.267
  835POPC   C3B13749  32.049  25.624   7.847
  835POPC   C4B13750  31.943  25.720   7.373
  836POPC   NC313751  28.860  44.066   9.306
  836POPC   PO413752  29.446  43.718   9.538
  836POPC   GL113753  29.316  43.891   9.160
  836POPC   GL213754  29.135  43.606   9.135
  836POPC   C1A13755  29.104  43.891   8.738
  836POPC   D2A13756  29.314  43.867   8.401
  836POPC   C3A13757  29.094  43.937   8.060
  836POPC   C4A13758  29.247  44.081   7.676
  836POPC   C1B13759  29.415  43.467   8.788
  836POPC   C2B13760  29.473  43.354   8.335
  836POPC   C3B13761  29.266  43.462   7.938
  836POPC   C4B13762  28.962  43.673   7.657
  837POPC   NC313763  44.295  16.989   9.352
  837POPC   PO413764  44.751  16.620   9.730
  837POPC   GL113765  44.712  16.705   9.234
  837POPC   GL213766  44.907  16.909   9.201
  837POPC   C1A13767  44.462  16.681   8.806
  837POPC   D2A13768  44.667  16.702   8.433
  837POPC   C3A13769  44.495  16.895   8.102
  837POPC   C4A13770  44.508  16.618   7.825
  837POPC   C1B13771  44.793  17.076   8.812
  837POPC   C2B13772  44.979  17.108   8.426
  837POPC   C3B13773  44.843  17.253   8.070
  837POPC   C4B13774  44.811  17.105   7.686
  838POPC   NC313775  32.369  39.616   9.739
  838POPC   PO413776  32.634  38.970   9.571
  838POPC   GL113777  32.415  39.379   9.285
  838POPC   GL213778  32.432  39.159   9.038
  838POPC   C1A13779  32.100  39.495   8.921
  838POPC   D2A13780  32.260  39.302   8.554
  838POPC   C3A13781  32.137  39.265   8.129
  838POPC   C4A13782  32.259  39.360   7.738
  838POPC   C1B13783  32.653  38.959   8.714
  838POPC   C2B13784  32.481  38.914   8.302
  838POPC   C3B13785  32.583  38.984   7.896
  838POPC   C4B13786  32.809  39.147   7.537
  839POPC   NC313787  34.749  28.887   9.580
  839POPC   PO413788  34.438  29.380   9.874
  839POPC   GL113789  34.427  29.261   9.374
  839POPC   GL213790  34.737  29.180   9.182
  839POPC   C1A13791  34.320  29.159   8.884
  839POPC   D2A13792  34.254  29.283   8.419
  839POPC   C3A13793  34.404  29.106   8.021
  839POPC   C4A13794  34.454  29.227   7.568
  839POPC   C1B13795  34.865  29.054   8.767
  839POPC   C2B13796  34.775  29.210   8.354
  839POPC   C3B13797  34.898  29.182   7.909
  839POPC   C4B13798  34.735  28.844   7.690
  840POPC   NC313799   3.912   1.805   9.478
  840POPC   PO413800   4.551   1.826   9.599
  840POPC   GL113801   4.383   1.872   9.208
  840POPC   GL213802   4.282   2.221   9.157
  840POPC   C1A13803   4.441   1.748   8.789
  840POPC   D2A13804   4.268   1.743   8.399
  840POPC   C3A13805   4.485   1.939   8.058
  840POPC   C4A13806   4.374   1.855   7.623
  840POPC   C1B13807   4.072   2.101   8.782
  840POPC   C2B13808   3.923   2.126   8.357
  840POPC   C3B13809   4.050   2.181   7.915
  840POPC   C4B13810   4.131   2.272   7.469
  841POPC   NC313811  24.556  35.586   9.469
  841POPC   PO413812  24.144  35.045   9.495
  841POPC   GL113813  24.311  35.291   9.142
  841POPC   GL213814  24.231  35.135   8.885
  841POPC   C1A13815  24.585  35.468   8.785
  841POPC   D2A13816  24.607  35.247   8.392
  841POPC   C3A13817  24.656  35.457   7.978
  841POPC   C4A13818  24.674  35.515   7.537
  841POPC   C1B13819  24.648  34.928   8.835
  841POPC   C2B13820  24.878  34.801   8.457
  841POPC   C3B13821  24.837  34.966   8.030
  841POPC   C4B13822  24.713  34.915   7.610
  842POPC   NC313823  15.719   7.069   9.722
  842POPC   PO413824  15.826   7.723   9.614
  842POPC   GL113825  15.801   7.540   9.208
  842POPC   GL213826  15.765   7.176   9.228
  842POPC   C1A13827  15.886   7.623   8.773
  842POPC   D2A13828  16.164   7.476   8.439
  842POPC   C3A13829  16.072   7.620   8.045
  842POPC   C4A13830  15.703   7.649   7.844
  842POPC   C1B13831  15.825   7.069   8.804
  842POPC   C2B13832  15.663   7.267   8.429
  842POPC   C3B13833  15.818   7.175   8.033
  842POPC   C4B13834  15.726   7.141   7.617
  843POPC   NC313835   9.562  43.262   9.556
  843POPC   PO413836  10.084  42.743   9.542
  843POPC   GL113837   9.948  43.050   9.214
  843POPC   GL213838   9.595  43.010   9.135
  843POPC   C1A13839   9.863  43.270   8.797
  843POPC   D2A13840   9.852  43.090   8.379
  843POPC   C3A13841   9.781  43.341   8.013
  843POPC   C4A13842  10.001  43.431   7.597
  843POPC   C1B13843   9.534  42.861   8.761
  843POPC   C2B13844   9.353  42.860   8.403
  843POPC   C3B13845   9.522  42.863   8.022
  843POPC   C4B13846   9.740  42.991   7.656
  844POPC   NC313847  30.574  16.961   9.774
  844POPC   PO413848  30.434  16.546   9.255
  844POPC   GL113849  30.544  16.794   8.966
  844POPC   GL213850  30.737  17.027   9.205
  844POPC   C1A13851  30.437  16.732   8.531
  844POPC   D2A13852  30.516  16.436   8.183
  844POPC   C3A13853  30.830  16.485   7.810
  844POPC   C4A13854  31.077  16.449   7.387
  844POPC   C1B13855  30.819  17.152   8.780
  844POPC   C2B13856  30.892  16.930   8.393
  844POPC   C3B13857  30.910  16.994   7.958
  844POPC   C4B13858  30.900  16.937   7.520
  845POPC   NC313859  40.019  17.776   9.443
  845POPC   PO413860  40.559  17.398   9.436
  845POPC   GL113861  40.129  17.454   9.068
  845POPC   GL213862  39.720  17.666   9.074
  845POPC   C1A13863  39.834  17.362   8.690
  845POPC   D2A13864  39.685  17.208   8.307
  845POPC   C3A13865  39.925  17.329   7.958
  845POPC   C4A13866  40.127  17.230   7.563
  845POPC   C1B13867  39.874  17.873   8.726
  845POPC   C2B13868  39.987  17.733   8.324
  845POPC   C3B13869  39.795  17.813   7.976
  845POPC   C4B13870  39.761  18.053   7.619
  846POPC   NC313871  14.607  11.833   9.957
  846POPC   PO413872  14.404  12.361   9.529
  846POPC   GL113873  14.399  11.969   9.312
  846POPC   GL213874  14.127  12.080   9.108
  846POPC   C1A13875  14.549  11.924   8.899
  846POPC   D2A13876  14.374  12.187   8.626
  846POPC   C3A13877  14.518  12.090   8.233
  846POPC   C4A13878  14.538  12.085   7.796
  846POPC   C1B13879  13.955  12.412   8.854
  846POPC   C2B13880  14.099  12.557   8.417
  846POPC   C3B13881  14.202  12.404   8.004
  846POPC   C4B13882  14.038  12.065   7.697
  847POPC   NC313883  43.791   6.385   9.523
  847POPC   PO413884  44.199   6.910   9.450
  847POPC   GL113885  44.036   6.643   9.156
  847POPC   GL213886  44.215   6.349   9.138
  847POPC   C1A13887  43.787   6.466   8.840
  847POPC   D2A13888  43.564   6.589   8.479
  847POPC   C3A13889  43.811   6.433   8.145
  847POPC   C4A13890  43.750   6.659   7.774
  847POPC   C1B13891  44.277   6.625   8.718
  847POPC   C2B13892  44.172   6.753   8.328
  847POPC   C3B13893  44.234   6.698   7.901
  847POPC   C4B13894  44.285   6.918   7.503
  848POPC   NC313895   4.570  21.898   9.521
  848POPC   PO413896   3.971  22.047   9.573
  848POPC   GL113897   4.224  22.141   9.182
  848POPC   GL213898   4.499  21.944   9.033
  848POPC   C1A13899   4.166  22.184   8.728
  848POPC   D2A13900   4.162  22.039   8.335
  848POPC   C3A13901   4.024  22.306   8.016
  848POPC   C4A13902   4.241  22.426   7.662
  848POPC   C1B13903   4.772  22.151   8.751
  848POPC   C2B13904   4.696  22.237   8.324
  848POPC   C3B13905   4.502  22.061   7.964
  848POPC   C4B13906   4.614  21.810   7.604
  849POPC   NC313907  42.760  15.165   9.539
  849POPC   PO413908  42.152  14.969   9.495
  849POPC   GL113909  42.406  15.162   9.159
  849POPC   GL213910  42.680  14.909   9.111
  849POPC   C1A13911  42.486  15.366   8.754
  849POPC   D2A13912  42.715  15.258   8.382
  849POPC   C3A13913  42.507  15.293   7.985
  849POPC   C4A13914  42.288  15.403   7.611
  849POPC   C1B13915  42.526  14.858   8.711
  849POPC   C2B13916  42.347  14.902   8.308
  849POPC   C3B13917  42.427  14.769   7.886
  849POPC   C4B13918  42.547  14.936   7.455
  850POPC   NC313919  30.463  24.465   9.375
  850POPC   PO413920  31.023  24.709   9.484
  850POPC   GL113921  30.861  24.444   9.092
  850POPC   GL213922  30.696  24.106   9.085
  850POPC   C1A13923  30.558  24.391   8.714
  850POPC   D2A13924  30.776  24.472   8.371
  850POPC   C3A13925  30.571  24.607   8.033
  850POPC   C4A13926  30.812  24.865   7.795
  850POPC   C1B13927  31.009  24.097   8.723
  850POPC   C2B13928  31.164  24.122   8.290
  850POPC   C3B13929  30.889  24.202   7.946
  850POPC   C4B13930  30.454  24.130   7.849
  851POPC   NC313931  20.971   0.756   9.489
  851POPC   PO413932  21.531   0.396   9.694
  851POPC   GL113933  21.478   0.354   9.261
  851POPC   GL213934  21.647   0.069   9.121
  851POPC   C1A13935  21.307   0.566   8.926
  851POPC   D2A13936  21.120   0.544   8.528
  851POPC   C3A13937  21.352   0.487   8.153
  851POPC   C4A13938  21.262   0.405   7.723
  851POPC   C1B13939  21.749   0.332   8.786
  851POPC   C2B13940  21.729   0.652   8.486
  851POPC   C3B13941  21.821   0.704   8.050
  851POPC   C4B13942  21.769   0.344   7.828
  852POPC   NC313943  28.814  35.797   9.887
  852POPC   PO413944  28.364  36.157   9.549
  852POPC   GL113945  28.440  36.072   9.140
  852POPC   GL213946  28.498  36.404   9.058
  852POPC   C1A13947  28.660  35.997   8.748
  852POPC   D2A13948  28.835  35.782   8.375
  852POPC   C3A13949  28.620  35.965   7.990
  852POPC   C4A13950  28.171  35.822   7.860
  852POPC   C1B13951  28.169  36.309   8.743
  852POPC   C2B13952  28.206  36.136   8.313
  852POPC   C3B13953  28.251  36.331   7.894
  852POPC   C4B13954  28.335  36.141   7.506
  853POPC   NC313955   6.713  38.318   9.251
  853POPC   PO413956   6.838  38.966   9.344
  853POPC   GL113957   6.630  38.812   8.992
  853POPC   GL213958   6.296  38.679   9.122
  853POPC   C1A13959   6.772  38.592   8.615
  853POPC   D2A13960   6.641  38.152   8.476
  853POPC   C3A13961   6.576  38.116   8.004
  853POPC   C4A13962   6.684  38.292   7.566
  853POPC   C1B13963   6.279  38.468   8.706
  853POPC   C2B13964   6.411  38.555   8.257
  853POPC   C3B13965   6.455  38.661   7.818
  853POPC   C4B13966   6.352  38.621   7.358
  854POPC   NC313967   7.984  29.551   9.627
  854POPC   PO413968   8.410  30.053   9.577
  854POPC   GL113969   8.181  29.931   9.240
  854POPC   GL213970   8.316  30.204   9.076
  854POPC   C1A13971   8.096  29.666   8.896
  854POPC   D2A13972   7.960  29.672   8.485
  854POPC   C3A13973   8.132  29.542   8.109
  854POPC   C4A13974   8.306  29.673   7.734
  854POPC   C1B13975   8.175  30.174   8.657
  854POPC   C2B13976   8.220  30.039   8.250
  854POPC   C3B13977   8.203  30.190   7.870
  854POPC   C4B13978   8.199  30.093   7.430
  855POPC   NC313979  41.011  10.374   9.383
  855POPC   PO413980  40.477  10.717   9.537
  855POPC   GL113981  40.697  10.684   9.134
  855POPC   GL213982  40.522  10.386   9.078
  855POPC   C1A13983  40.875  10.534   8.728
  855POPC   D2A13984  40.886  10.326   8.330
  855POPC   C3A13985  41.180  10.537   8.092
  855POPC   C4A13986  41.035  10.811   7.770
  855POPC   C1B13987  40.532  10.170   8.684
  855POPC   C2B13988  40.397  10.137   8.281
  855POPC   C3B13989  40.556  10.423   7.957
  855POPC   C4B13990  40.888  10.298   7.764
  856POPC   NC313991  19.774  15.352   9.492
  856POPC   PO413992  19.669  14.712   9.635
  856POPC   GL113993  19.871  14.914   9.237
  856POPC   GL213994  19.630  15.058   9.018
  856POPC   C1A13995  20.083  15.231   8.913
  856POPC   D2A13996  20.180  15.232   8.481
  856POPC   C3A13997  19.958  15.115   8.123
  856POPC   C4A13998  19.714  15.295   7.800
  856POPC   C1B13999  19.707  15.111   8.612
  856POPC   C2B14000  19.558  15.326   8.325
  856POPC   C3B14001  19.413  14.999   8.099
  856POPC   C4B14002  19.302  14.975   7.682
  857POPC   NC314003  19.237  39.785   9.611
  857POPC   PO414004  18.576  39.898   9.592
  857POPC   GL114005  18.914  39.899   9.205
  857POPC   GL214006  19.263  39.968   9.122
  857POPC   C1A14007  18.894  40.051   8.763
  857POPC   D2A14008  19.134  40.292   8.439
  857POPC   C3A14009  19.001  40.229   8.013
  857POPC   C4A14010  18.714  40.335   7.680
  857POPC   C1B14011  19.234  39.673   8.811
  857POPC   C2B14012  18.994  39.579   8.456
  857POPC   C3B14013  19.062  39.697   8.051
  857POPC   C4B14014  19.004  39.851   7.650
  858POPC   NC314015  29.067  21.120   9.498
  858POPC   PO414016  29.410  21.712   9.471
  858POPC   GL114017  29.098  21.559   9.156
  858POPC   GL214018  28.882  21.233   9.048
  858POPC   C1A14019  29.101  21.609   8.720
  858POPC   D2A14020  29.161  21.864   8.361
  858POPC   C3A14021  29.370  21.717   8.009
  858POPC   C4A14022  29.052  21.528   7.778
  858POPC   C1B14023  28.927  21.147   8.607
  858POPC   C2B14024  29.158  21.322   8.285
  858POPC   C3B14025  29.295  21.106   7.949
  858POPC   C4B14026  29.018  21.021   7.634
  859POPC   NC314027  11.485  14.439   9.567
  859POPC   PO414028  11.533  13.837   9.305
  859POPC   GL114029  11.461  14.224   9.080
  859POPC   GL214030  11.370  14.633   9.113
  859POPC   C1A14031  11.514  14.114   8.673
  859POPC   D2A14032  11.198  14.117   8.355
  859POPC   C3A14033  11.277  14.237   7.919
  859POPC   C4A14034  10.987  13.967   7.721
  859POPC   C1B14035  11.260  14.537   8.698
  859POPC   C2B14036  11.520  14.521   8.326
  859POPC   C3B14037  11.585  14.698   7.935
  859POPC   C4B14038  11.462  14.664   7.522
  860POPC   NC314039  10.326  35.911   9.597
  860POPC   PO414040  10.988  35.992   9.493
  860POPC   GL114041  10.708  35.970   9.162
  860POPC   GL214042  10.437  36.240   9.126
  860POPC   C1A14043  10.823  36.123   8.778
  860POPC   D2A14044  10.651  36.263   8.450
  860POPC   C3A14045  10.622  35.993   8.108
  860POPC   C4A14046  10.742  36.124   7.707
  860POPC   C1B14047  10.282  35.931   8.814
  860POPC   C2B14048  10.240  35.753   8.367
  860POPC   C3B14049  10.135  35.897   7.910
  860POPC   C4B14050  10.261  36.104   7.505
  861POPC   NC314051  20.404  33.984   9.395
  861POPC   PO414052  20.956  33.568   9.519
  861POPC   GL114053  20.756  33.682   9.190
  861POPC   GL214054  20.495  33.466   9.201
  861POPC   C1A14055  20.798  33.914   8.819
  861POPC   D2A14056  21.039  33.876   8.470
  861POPC   C3A14057  20.815  33.954   8.115
  861POPC   C4A14058  20.721  33.957   7.692
  861POPC   C1B14059  20.394  33.605   8.779
  861POPC   C2B14060  20.392  33.889   8.437
  861POPC   C3B14061  20.372  33.723   8.015
  861POPC   C4B14062  20.086  33.687   7.696
  862POPC   NC314063   5.926   2.143   9.330
  862POPC   PO414064   6.570   1.971   9.514
  862POPC   GL114065   6.514   1.965   9.080
  862POPC   GL214066   6.171   1.818   9.031
  862POPC   C1A14067   6.733   2.021   8.669
  862POPC   D2A14068   6.993   1.773   8.377
  862POPC   C3A14069   6.823   1.736   7.969
  862POPC   C4A14070   6.938   1.738   7.530
  862POPC   C1B14071   6.204   2.107   8.710
  862POPC   C2B14072   6.374   2.230   8.353
  862POPC   C3B14073   6.591   2.182   8.013
  862POPC   C4B14074   6.472   1.975   7.660
  863POPC   NC314075  16.347  23.096   9.833
  863POPC   PO414076  16.009  22.634   9.575
  863POPC   GL114077  15.866  22.937   9.295
  863POPC   GL214078  16.184  22.984   9.169
  863POPC   C1A14079  15.793  22.886   8.853
  863POPC   D2A14080  16.051  22.761   8.473
  863POPC   C3A14081  15.879  22.740   8.030
  863POPC   C4A14082  16.007  22.795   7.582
  863POPC   C1B14083  16.149  23.214   8.747
  863POPC   C2B14084  16.280  23.235   8.317
  863POPC   C3B14085  16.173  23.166   7.879
  863POPC   C4B14086  16.261  23.176   7.422
  864POPC   NC314087  21.364  22.862   9.576
  864POPC   PO414088  21.031  22.368   9.490
  864POPC   GL114089  21.132  22.735   9.144
  864POPC   GL214090  21.166  23.145   9.160
  864POPC   C1A14091  21.419  22.892   8.789
  864POPC   D2A14092  21.601  23.077   8.391
  864POPC   C3A14093  21.521  22.840   8.003
  864POPC   C4A14094  21.699  22.719   7.589
  864POPC   C1B14095  20.922  23.043   8.787
  864POPC   C2B14096  21.083  22.995   8.365
  864POPC   C3B14097  21.179  23.239   7.993
  864POPC   C4B14098  21.332  23.084   7.585
  865POPC   NC314099  32.574  42.112   9.414
  865POPC   PO414100  33.309  42.078   9.379
  865POPC   GL114101  33.095  42.378   9.079
  865POPC   GL214102  32.753  42.544   9.037
  865POPC   C1A14103  33.090  42.443   8.634
  865POPC   D2A14104  32.773  42.602   8.385
  865POPC   C3A14105  32.903  42.403   8.069
  865POPC   C4A14106  33.225  42.302   7.778
  865POPC   C1B14107  32.679  42.190   8.745
  865POPC   C2B14108  32.720  41.971   8.304
  865POPC   C3B14109  32.774  41.977   7.816
  865POPC   C4B14110  32.727  42.058   7.328
  866POPC   NC314111  28.496   1.039   9.709
  866POPC   PO414112  27.881   0.998   9.685
  866POPC   GL114113  28.108   1.039   9.267
  866POPC   GL214114  28.491   1.069   9.195
  866POPC   C1A14115  28.117   1.250   8.847
  866POPC   D2A14116  28.240   1.171   8.383
  866POPC   C3A14117  28.088   1.280   7.947
  866POPC   C4A14118  28.266   0.960   7.601
  866POPC   C1B14119  28.751   1.161   8.814
  866POPC   C2B14120  28.786   1.289   8.354
  866POPC   C3B14121  28.609   1.130   7.954
  866POPC   C4B14122  28.648   1.269   7.475
  867POPC   NC314123  11.477  36.144   9.508
  867POPC   PO414124  11.482  35.483   9.271
  867POPC   GL114125  11.269  35.856   9.065
  867POPC   GL214126  11.194  36.235   9.100
  867POPC   C1A14127  11.332  36.018   8.655
  867POPC   D2A14128  11.137  36.129   8.300
  867POPC   C3A14129  11.389  36.016   7.979
  867POPC   C4A14130  11.251  36.124   7.620
  867POPC   C1B14131  11.561  36.406   8.901
  867POPC   C2B14132  11.588  36.485   8.466
  867POPC   C3B14133  11.434  36.517   8.048
  867POPC   C4B14134  11.661  36.412   7.684
  868POPC   NC314135   0.752  10.789   9.568
  868POPC   PO414136   1.412  10.605   9.585
  868POPC   GL114137   1.322  10.419   9.158
  868POPC   GL214138   1.409  10.065   9.124
  868POPC   C1A14139   1.224  10.511   8.736
  868POPC   D2A14140   1.031  10.447   8.350
  868POPC   C3A14141   1.242  10.610   8.071
  868POPC   C4A14142   1.276  10.587   7.643
  868POPC   C1B14143   1.376  10.010   8.727
  868POPC   C2B14144   1.461  10.163   8.351
  868POPC   C3B14145   1.548  10.230   7.959
  868POPC   C4B14146   1.444  10.087   7.609
  869POPC   NC314147  42.400  29.703   9.283
  869POPC   PO414148  42.197  29.106   9.510
  869POPC   GL114149  42.368  29.038   9.151
  869POPC   GL214150  42.095  29.056   9.005
  869POPC   C1A14151  42.636  29.187   8.827
  869POPC   D2A14152  42.595  29.077   8.393
  869POPC   C3A14153  42.390  29.318   8.076
  869POPC   C4A14154  42.603  29.221   7.689
  869POPC   C1B14155  42.155  29.206   8.646
  869POPC   C2B14156  42.010  29.007   8.323
  869POPC   C3B14157  41.870  29.155   7.949
  869POPC   C4B14158  41.957  29.184   7.521
  870POPC   NC314159  18.232  12.224   9.311
  870POPC   PO414160  17.940  11.623   9.430
  870POPC   GL114161  18.126  11.787   9.056
  870POPC   GL214162  18.481  11.819   9.097
  870POPC   C1A14163  18.114  12.039   8.659
  870POPC   D2A14164  18.205  12.155   8.204
  870POPC   C3A14165  18.159  11.920   7.795
  870POPC   C4A14166  17.991  12.061   7.360
  870POPC   C1B14167  18.604  12.103   8.747
  870POPC   C2B14168  18.716  12.067   8.321
  870POPC   C3B14169  18.643  12.116   7.886
  870POPC   C4B14170  18.886  12.328   7.578
  871POPC   NC314171  10.945  43.812   9.593
  871POPC   PO414172  10.271  43.544   9.510
  871POPC   GL114173  10.560  43.758   9.208
  871POPC   GL214174  10.907  43.635   9.129
  871POPC   C1A14175  10.594  43.630   8.733
  871POPC   D2A14176  10.340  43.364   8.437
  871POPC   C3A14177  10.207  43.597   8.069
  871POPC   C4A14178  10.424  43.755   7.728
  871POPC   C1B14179  10.834  44.069   8.921
  871POPC   C2B14180  10.789  44.230   8.518
  871POPC   C3B14181  10.810  44.027   8.115
  871POPC   C4B14182  10.573  44.226   7.820
  872POPC   NC314183  14.666  23.990   9.444
  872POPC   PO414184  14.297  24.556   9.426
  872POPC   GL114185  14.210  24.415   9.026
  872POPC   GL214186  14.572  24.319   9.071
  872POPC   C1A14187  14.137  24.608   8.652
  872POPC   D2A14188  14.450  24.829   8.390
  872POPC   C3A14189  14.346  24.904   7.979
  872POPC   C4A14190  14.250  24.577   7.716
  872POPC   C1B14191  14.603  24.441   8.685
  872POPC   C2B14192  14.418  24.319   8.313
  872POPC   C3B14193  14.673  24.495   8.029
  872POPC   C4B14194  14.873  24.645   7.679
  873POPC   NC314195   9.301   1.605   9.505
  873POPC   PO414196   9.846   1.933   9.776
  873POPC   GL114197   9.813   1.724   9.306
  873POPC   GL214198   9.763   1.991   9.034
  873POPC   C1A14199  10.002   1.603   8.855
  873POPC   D2A14200  10.023   1.913   8.500
  873POPC   C3A14201   9.797   1.837   8.103
  873POPC   C4A14202   9.786   2.138   7.748
  873POPC   C1B14203   9.513   1.841   8.681
  873POPC   C2B14204   9.362   1.574   8.374
  873POPC   C3B14205   9.302   1.755   7.982
  873POPC   C4B14206   9.490   1.758   7.592
  874POPC   NC314207  34.610  11.691   9.472
  874POPC   PO414208  34.796  12.403   9.610
  874POPC   GL114209  34.578  12.186   9.248
  874POPC   GL214210  34.660  11.905   9.029
  874POPC   C1A14211  34.457  12.326   8.820
  874POPC   D2A14212  34.548  12.515   8.416
  874POPC   C3A14213  34.432  12.300   8.043
  874POPC   C4A14214  34.335  12.238   7.623
  874POPC   C1B14215  34.608  11.892   8.601
  874POPC   C2B14216  34.825  12.033   8.260
  874POPC   C3B14217  34.666  11.821   7.955
  874POPC   C4B14218  34.273  11.753   7.853
  875POPC   NC314219  25.649  36.270   9.456
  875POPC   PO414220  26.171  35.856   9.387
  875POPC   GL114221  25.876  36.010   9.091
  875POPC   GL214222  25.920  36.386   9.060
  875POPC   C1A14223  25.716  36.107   8.697
  875POPC   D2A14224  25.929  36.264   8.337
  875POPC   C3A14225  25.900  35.988   7.957
  875POPC   C4A14226  26.088  35.591   7.762
  875POPC   C1B14227  26.265  36.227   8.810
  875POPC   C2B14228  26.502  36.368   8.459
  875POPC   C3B14229  26.362  36.241   8.068
  875POPC   C4B14230  26.356  36.036   7.742
  876POPC   NC314231  28.413  33.089   9.713
  876POPC   PO414232  27.871  33.279   9.303
  876POPC   GL114233  28.275  33.272   9.155
  876POPC   GL214234  28.307  32.930   9.096
  876POPC   C1A14235  28.414  33.246   8.701
  876POPC   D2A14236  28.188  33.080   8.345
  876POPC   C3A14237  28.417  33.089   7.958
  876POPC   C4A14238  28.440  32.953   7.473
  876POPC   C1B14239  28.499  32.710   8.739
  876POPC   C2B14240  28.480  32.668   8.283
  876POPC   C3B14241  28.514  32.607   7.846
  876POPC   C4B14242  28.841  32.582   7.592
  877POPC   NC314243  14.095  10.144   9.377
  877POPC   PO414244  14.602  10.560   9.597
  877POPC   GL114245  14.494  10.487   9.207
  877POPC   GL214246  14.703  10.225   9.126
  877POPC   C1A14247  14.568  10.664   8.781
  877POPC   D2A14248  14.580  10.775   8.320
  877POPC   C3A14249  14.199  10.668   8.101
  877POPC   C4A14250  14.124  10.510   7.693
  877POPC   C1B14251  14.373  10.202   8.794
  877POPC   C2B14252  14.181  10.234   8.414
  877POPC   C3B14253  14.348  10.164   8.028
  877POPC   C4B14254  14.687  10.386   7.843
  878POPC   NC314255   4.731  20.912   9.572
  878POPC   PO414256   5.272  20.541   9.253
  878POPC   GL114257   5.078  20.821   9.021
  878POPC   GL214258   4.716  20.869   9.055
  878POPC   C1A14259   5.061  20.778   8.604
  878POPC   D2A14260   5.242  20.785   8.230
  878POPC   C3A14261   5.039  20.458   7.964
  878POPC   C4A14262   5.120  20.276   7.556
  878POPC   C1B14263   4.595  20.988   8.587
  878POPC   C2B14264   4.779  20.976   8.175
  878POPC   C3B14265   5.035  20.930   7.793
  878POPC   C4B14266   4.917  20.741   7.418
  879POPC   NC314267  29.479  38.394   9.338
  879POPC   PO414268  28.773  38.252   9.494
  879POPC   GL114269  28.876  38.145   9.081
  879POPC   GL214270  29.067  38.454   9.022
  879POPC   C1A14271  29.100  38.048   8.674
  879POPC   D2A14272  29.333  38.329   8.365
  879POPC   C3A14273  29.160  38.519   7.960
  879POPC   C4A14274  29.015  38.403   7.537
  879POPC   C1B14275  29.060  38.743   8.658
  879POPC   C2B14276  29.354  38.866   8.329
  879POPC   C3B14277  29.508  38.941   7.916
  879POPC   C4B14278  29.477  38.805   7.502
  880POPC   NC314279  43.175   1.594   9.621
  880POPC   PO414280  43.350   0.902   9.538
  880POPC   GL114281  43.253   1.235   9.266
  880POPC   GL214282  42.930   1.185   9.077
  880POPC   C1A14283  43.353   1.277   8.836
  880POPC   D2A14284  43.111   1.021   8.552
  880POPC   C3A14285  43.108   1.101   8.131
  880POPC   C4A14286  43.305   1.302   7.768
  880POPC   C1B14287  42.827   1.420   8.731
  880POPC   C2B14288  42.665   1.393   8.369
  880POPC   C3B14289  42.585   1.182   8.051
  880POPC   C4B14290  42.820   1.081   7.702
  881POPC   NC314291  16.990   5.098   9.717
  881POPC   PO414292  16.505   5.457   9.757
  881POPC   GL114293  16.714   5.092   9.236
  881POPC   GL214294  16.539   5.260   8.862
  881POPC   C1A14295  16.502   4.795   8.822
  881POPC   D2A14296  16.555   5.036   8.391
  881POPC   C3A14297  16.412   4.846   8.011
  881POPC   C4A14298  16.585   4.942   7.626
  881POPC   C1B14299  16.938   5.067   8.747
  881POPC   C2B14300  17.072   4.909   8.364
  881POPC   C3B14301  16.927   5.151   7.997
  881POPC   C4B14302  16.531   5.354   7.914
  882POPC   NC314303  26.593  16.837   9.451
  882POPC   PO414304  26.998  16.274   9.587
  882POPC   GL114305  27.074  16.506   9.174
  882POPC   GL214306  27.107  16.897   9.123
  882POPC   C1A14307  26.984  16.583   8.736
  882POPC   D2A14308  27.063  16.885   8.414
  882POPC   C3A14309  26.843  16.721   8.067
  882POPC   C4A14310  26.771  16.305   7.881
  882POPC   C1B14311  26.758  17.035   8.800
  882POPC   C2B14312  26.587  17.103   8.377
  882POPC   C3B14313  26.483  17.213   7.963
  882POPC   C4B14314  26.401  17.085   7.534
  883POPC   NC314315  18.429  21.629   9.669
  883POPC   PO414316  17.763  21.550   9.642
  883POPC   GL114317  17.962  21.421   9.262
  883POPC   GL214318  18.285  21.562   9.173
  883POPC   C1A14319  17.896  21.426   8.810
  883POPC   D2A14320  17.923  21.714   8.440
  883POPC   C3A14321  18.090  21.555   8.045
  883POPC   C4A14322  18.112  21.443   7.607
  883POPC   C1B14323  18.384  21.418   8.745
  883POPC   C2B14324  18.445  21.172   8.358
  883POPC   C3B14325  18.454  21.190   7.926
  883POPC   C4B14326  18.606  21.587   7.789
  884POPC   NC314327   8.280  33.332   9.809
  884POPC   PO414328   8.584  33.826   9.543
  884POPC   GL114329   8.305  33.725   9.189
  884POPC   GL214330   8.032  33.949   9.237
  884POPC   C1A14331   8.442  33.686   8.744
  884POPC   D2A14332   8.313  33.930   8.384
  884POPC   C3A14333   8.157  33.880   7.959
  884POPC   C4A14334   8.235  33.665   7.586
  884POPC   C1B14335   7.949  33.869   8.780
  884POPC   C2B14336   7.706  33.756   8.382
  884POPC   C3B14337   7.604  33.904   7.939
  884POPC   C4B14338   7.733  33.741   7.520
  885POPC   NC314339  14.697  21.759   9.338
  885POPC   PO414340  14.830  22.266   9.728
  885POPC   GL114341  14.575  22.234   9.282
  885POPC   GL214342  14.278  22.033   9.191
  885POPC   C1A14343  14.463  22.280   8.800
  885POPC   D2A14344  14.528  22.456   8.368
  885POPC   C3A14345  14.398  22.198   8.016
  885POPC   C4A14346  14.549  22.350   7.619
  885POPC   C1B14347  14.166  21.841   8.835
  885POPC   C2B14348  14.138  21.924   8.417
  885POPC   C3B14349  13.916  21.781   8.076
  885POPC   C4B14350  14.125  21.773   7.715
  886POPC   NC314351  30.140   3.131   9.492
  886POPC   PO414352  29.537   2.752   9.435
  886POPC   GL114353  29.756   2.722   9.077
  886POPC   GL214354  30.052   2.563   9.261
  886POPC   C1A14355  29.651   2.788   8.657
  886POPC   D2A14356  29.921   3.091   8.463
  886POPC   C3A14357  30.178   2.930   8.124
  886POPC   C4A14358  29.960   2.966   7.736
  886POPC   C1B14359  30.169   2.454   8.840
  886POPC   C2B14360  29.986   2.413   8.430
  886POPC   C3B14361  29.879   2.521   8.029
  886POPC   C4B14362  30.086   2.432   7.663
  887POPC   NC314363   0.065  22.958   9.524
  887POPC   PO414364  44.434  23.022   9.462
  887POPC   GL114365  44.660  22.927   9.130
  887POPC   GL214366  44.408  22.696   9.027
  887POPC   C1A14367  44.888  22.626   8.927
  887POPC   D2A14368   0.068  22.606   8.539
  887POPC   C3A14369  44.892  22.838   8.217
  887POPC   C4A14370  44.680  22.712   7.860
  887POPC   C1B14371  44.516  22.845   8.606
  887POPC   C2B14372  44.379  22.975   8.182
  887POPC   C3B14373  44.638  23.234   7.923
  887POPC   C4B14374   0.022  23.168   7.704
  888POPC   NC314375  31.799  37.210   9.405
  888POPC   PO414376  32.226  36.676   9.490
  888POPC   GL114377  32.407  36.818   9.109
  888POPC   GL214378  32.069  36.927   9.038
  888POPC   C1A14379  32.428  36.703   8.694
  888POPC   D2A14380  32.123  36.866   8.458
  888POPC   C3A14381  32.025  36.752   8.034
  888POPC   C4A14382  32.288  36.790   7.684
  888POPC   C1B14383  32.290  37.263   8.845
  888POPC   C2B14384  32.246  37.429   8.447
  888POPC   C3B14385  32.147  37.250   8.076
  888POPC   C4B14386  32.367  37.278   7.721
  889POPC   NC314387   0.336   0.257   9.612
  889POPC   PO414388   0.721   0.714   9.650
  889POPC   GL114389   0.581   0.655   9.231
  889POPC   GL214390   0.679   0.954   9.069
  889POPC   C1A14391   0.481   0.479   8.811
  889POPC   D2A14392   0.629   0.316   8.401
  889POPC   C3A14393   0.409   0.378   7.994
  889POPC   C4A14394   0.518   0.386   7.535
  889POPC   C1B14395   0.670   0.929   8.615
  889POPC   C2B14396   0.529   0.813   8.231
  889POPC   C3B14397   0.550   0.875   7.794
  889POPC   C4B14398   0.432   0.849   7.340
  890POPC   NC314399  37.533  20.815   9.529
  890POPC   PO414400  38.149  20.410   9.580
  890POPC   GL114401  38.020  20.510   9.111
  890POPC   GL214402  37.813  20.845   9.100
  890POPC   C1A14403  37.849  20.540   8.693
  890POPC   D2A14404  37.847  20.884   8.390
  890POPC   C3A14405  37.967  20.748   7.984
  890POPC   C4A14406  37.732  20.461   7.777
  890POPC   C1B14407  37.414  20.854   8.862
  890POPC   C2B14408  37.344  21.005   8.454
  890POPC   C3B14409  37.394  20.758   8.076
  890POPC   C4B14410  37.141  20.792   7.695
  891POPC   NC314411   7.148  30.099   9.586
  891POPC   PO414412   7.679  30.583   9.449
  891POPC   GL114413   7.480  30.711   9.086
  891POPC   GL214414   7.127  30.625   9.158
  891POPC   C1A14415   7.497  30.750   8.646
  891POPC   D2A14416   7.706  30.384   8.421
  891POPC   C3A14417   7.733  30.411   7.979
  891POPC   C4A14418   7.564  30.727   7.763
  891POPC   C1B14419   7.129  31.029   8.911
  891POPC   C2B14420   7.228  31.162   8.503
  891POPC   C3B14421   7.254  30.900   8.156
  891POPC   C4B14422   7.072  30.874   7.760
  892POPC   NC314423   7.356  30.885   9.551
  892POPC   PO414424   7.339  31.514   9.587
  892POPC   GL114425   7.292  31.434   9.171
  892POPC   GL214426   7.577  31.208   9.193
  892POPC   C1A14427   7.197  31.615   8.742
  892POPC   D2A14428   7.363  31.608   8.285
  892POPC   C3A14429   7.083  31.498   7.914
  892POPC   C4A14430   6.897  31.777   7.589
  892POPC   C1B14431   7.694  31.487   8.859
  892POPC   C2B14432   7.772  31.350   8.431
  892POPC   C3B14433   7.663  31.178   8.027
  892POPC   C4B14434   7.868  31.106   7.623
  893POPC   NC314435  14.075  36.000   9.832
  893POPC   PO414436  13.681  36.467   9.442
  893POPC   GL114437  13.563  36.152   9.105
  893POPC   GL214438  13.844  35.943   9.002
  893POPC   C1A14439  13.527  36.117   8.631
  893POPC   D2A14440  13.576  36.439   8.276
  893POPC   C3A14441  13.445  36.317   7.860
  893POPC   C4A14442  13.711  36.120   7.537
  893POPC   C1B14443  14.114  35.763   8.743
  893POPC   C2B14444  13.952  35.704   8.354
  893POPC   C3B14445  13.741  35.909   8.036
  893POPC   C4B14446  14.083  35.755   7.774
  894POPC   NC314447  43.232  42.378   9.781
  894POPC   PO414448  42.860  41.905   9.444
  894POPC   GL114449  42.894  42.237   9.144
  894POPC   GL214450  43.115  42.047   8.910
  894POPC   C1A14451  42.912  42.472   8.738
  894POPC   D2A14452  43.074  42.206   8.399
  894POPC   C3A14453  43.168  42.354   7.974
  894POPC   C4A14454  43.113  42.616   7.576
  894POPC   C1B14455  42.736  41.982   8.717
  894POPC   C2B14456  42.788  41.772   8.334
  894POPC   C3B14457  42.802  42.012   7.993
  894POPC   C4B14458  42.945  42.112   7.557
  895POPC   NC314459   7.793  17.626   9.499
  895POPC   PO414460   8.411  17.359   9.476
  895POPC   GL114461   8.176  17.515   9.173
  895POPC   GL214462   7.955  17.254   9.153
  895POPC   C1A14463   8.063  17.734   8.832
  895POPC   D2A14464   8.128  17.826   8.402
  895POPC   C3A14465   7.956  17.673   8.030
  895POPC   C4A14466   8.233  17.483   7.758
  895POPC   C1B14467   7.861  17.271   8.744
  895POPC   C2B14468   8.038  17.316   8.359
  895POPC   C3B14469   7.908  17.143   7.958
  895POPC   C4B14470   7.770  17.287   7.516
  896POPC   NC314471   9.856  31.201   9.437
  896POPC   PO414472   9.328  31.642   9.335
  896POPC   GL114473   9.582  31.437   9.054
  896POPC   GL214474   9.846  31.627   9.142
  896POPC   C1A14475   9.585  31.532   8.614
  896POPC   D2A14476   9.247  31.667   8.364
  896POPC   C3A14477   9.441  31.800   8.000
  896POPC   C4A14478   9.617  31.562   7.697
  896POPC   C1B14479  10.035  31.360   8.799
  896POPC   C2B14480  10.111  31.367   8.361
  896POPC   C3B14481  10.019  31.346   7.932
  896POPC   C4B14482  10.099  31.545   7.525
  897POPC   NC314483   0.712   7.336   9.585
  897POPC   PO414484   0.149   6.941   9.499
  897POPC   GL114485   0.366   7.258   9.219
  897POPC   GL214486   0.199   7.549   9.078
  897POPC   C1A14487   0.627   7.360   8.863
  897POPC   D2A14488   0.568   7.194   8.444
  897POPC   C3A14489   0.608   7.450   8.083
  897POPC   C4A14490   0.390   7.603   7.735
  897POPC   C1B14491   0.296   7.680   8.658
  897POPC   C2B14492   0.177   7.723   8.229
  897POPC   C3B14493   0.298   8.055   7.910
  897POPC   C4B14494   0.298   8.099   7.451
  898POPC   NC314495  26.026  12.846   9.636
  898POPC   PO414496  25.837  13.416   9.449
  898POPC   GL114497  26.017  13.090   9.162
  898POPC   GL214498  26.152  12.715   9.177
  898POPC   C1A14499  25.828  12.980   8.781
  898POPC   D2A14500  25.848  12.648   8.490
  898POPC   C3A14501  25.962  12.836   8.100
  898POPC   C4A14502  25.972  12.669   7.692
  898POPC   C1B14503  26.269  12.710   8.767
  898POPC   C2B14504  26.420  12.717   8.329
  898POPC   C3B14505  26.391  12.494   7.911
  898POPC   C4B14506  26.311  12.355   7.446
  899POPC   NC314507  18.982  26.191   9.603
  899POPC   PO414508  19.501  25.884   9.399
  899POPC   GL114509  19.137  25.990   9.150
  899POPC   GL214510  19.335  25.800   8.927
  899POPC   C1A14511  18.898  26.004   8.742
  899POPC   D2A14512  18.616  26.196   8.444
  899POPC   C3A14513  18.773  26.294   8.029
  899POPC   C4A14514  18.881  26.171   7.605
  899POPC   C1B14515  19.348  26.258   8.779
  899POPC   C2B14516  19.151  26.400   8.403
  899POPC   C3B14517  19.338  26.242   8.022
  899POPC   C4B14518  19.446  25.980   7.686
  900POPC   NC314519  27.859  42.573   9.634
  900POPC   PO414520  27.393  42.077   9.798
  900POPC   GL114521  27.491  42.290   9.381
  900POPC   GL214522  27.630  42.063   9.131
  900POPC   C1A14523  27.601  42.564   9.010
  900POPC   D2A14524  27.631  42.621   8.552
  900POPC   C3A14525  27.863  42.433   8.210
  900POPC   C4A14526  27.775  42.437   7.755
  900POPC   C1B14527  27.435  42.159   8.717
  900POPC   C2B14528  27.465  42.115   8.266
  900POPC   C3B14529  27.501  41.980   7.822
  900POPC   C4B14530  27.853  41.973   7.552
  901POPC   NC314531  35.253  34.899   9.423
  901POPC   PO414532  35.222  35.565   9.486
  901POPC   GL114533  35.414  35.318   9.183
  901POPC   GL214534  35.716  35.494   9.157
  901POPC   C1A14535  35.253  35.323   8.785
  901POPC   D2A14536  35.181  35.658   8.500
  901POPC   C3A14537  35.104  35.432   8.138
  901POPC   C4A14538  35.182  35.539   7.744
  901POPC   C1B14539  35.737  35.269   8.755
  901POPC   C2B14540  35.554  35.315   8.372
  901POPC   C3B14541  35.637  35.483   8.019
  901POPC   C4B14542  35.663  35.372   7.598
  902POPC   NC314543   8.538  44.105   9.478
  902POPC   PO414544   7.843  44.214   9.479
  902POPC   GL114545   8.014  44.136   9.087
  902POPC   GL214546   8.062  43.798   9.066
  902POPC   C1A14547   8.006  44.055   8.629
  902POPC   D2A14548   8.166  43.754   8.323
  902POPC   C3A14549   7.953  43.808   7.938
  902POPC   C4A14550   7.978  43.853   7.505
  902POPC   C1B14551   8.447  43.819   8.840
  902POPC   C2B14552   8.627  43.918   8.450
  902POPC   C3B14553   8.541  44.038   8.028
  902POPC   C4B14554   8.485  43.875   7.639
  903POPC   NC314555  29.847  10.960   9.511
  903POPC   PO414556  29.590  11.511   9.286
  903POPC   GL114557  29.842  11.300   9.026
  903POPC   GL214558  29.982  10.954   9.025
  903POPC   C1A14559  29.688  11.227   8.642
  903POPC   D2A14560  29.697  11.383   8.259
  903POPC   C3A14561  29.955  11.147   8.027
  903POPC   C4A14562  29.915  11.390   7.686
  903POPC   C1B14563  30.194  11.065   8.682
  903POPC   C2B14564  30.162  11.442   8.437
  903POPC   C3B14565  30.278  11.547   8.015
  903POPC   C4B14566  30.413  11.236   7.692
  904POPC   NC314567  25.724  21.606   9.455
  904POPC   PO414568  25.418  21.010   9.582
  904POPC   GL114569  25.260  21.247   9.195
  904POPC   GL214570  25.111  21.601   9.184
  904POPC   C1A14571  25.403  21.384   8.779
  904POPC   D2A14572  25.572  21.389   8.362
  904POPC   C3A14573  25.202  21.336   8.081
  904POPC   C4A14574  25.222  21.104   7.670
  904POPC   C1B14575  25.021  21.734   8.747
  904POPC   C2B14576  25.294  21.841   8.416
  904POPC   C3B14577  25.485  21.774   8.027
  904POPC   C4B14578  25.239  21.658   7.689
  905POPC   NC314579  16.500  19.095   9.523
  905POPC   PO414580  16.995  18.696   9.690
  905POPC   GL114581  16.907  18.872   9.241
  905POPC   GL214582  16.739  19.228   9.096
  905POPC   C1A14583  16.715  18.765   8.834
  905POPC   D2A14584  16.601  19.106   8.573
  905POPC   C3A14585  16.694  19.000   8.161
  905POPC   C4A14586  16.726  19.081   7.715
  905POPC   C1B14587  16.946  19.490   8.762
  905POPC   C2B14588  17.037  19.311   8.380
  905POPC   C3B14589  16.924  19.442   8.004
  905POPC   C4B14590  17.079  19.465   7.625
  906POPC   NC314591  30.327  36.790   9.530
  906POPC   PO414592  29.771  37.146   9.650
  906POPC   GL114593  29.831  36.927   9.285
  906POPC   GL214594  29.596  37.133   9.127
  906POPC   C1A14595  29.847  36.789   8.844
  906POPC   D2A14596  29.802  36.972   8.428
  906POPC   C3A14597  29.890  36.715   8.061
  906POPC   C4A14598  30.155  36.740   7.691
  906POPC   C1B14599  29.438  37.167   8.754
  906POPC   C2B14600  29.308  37.038   8.355
  906POPC   C3B14601  29.537  37.089   7.989
  906POPC   C4B14602  29.849  37.208   7.665
  907POPC   NC314603   0.345  20.394   9.556
  907POPC   PO414604   0.155  20.988   9.486
  907POPC   GL114605   0.377  20.748   9.183
  907POPC   GL214606   0.679  20.507   9.188
  907POPC   C1A14607   0.416  20.855   8.781
  907POPC   D2A14608   0.552  20.861   8.388
  907POPC   C3A14609   0.363  20.741   8.047
  907POPC   C4A14610   0.515  20.525   7.697
  907POPC   C1B14611   0.790  20.223   8.838
  907POPC   C2B14612   0.633  20.274   8.423
  907POPC   C3B14613   0.835  20.296   8.028
  907POPC   C4B14614   0.963  20.294   7.599
  908POPC   NC314615  33.794  11.232   9.545
  908POPC   PO414616  34.103  11.745   9.400
  908POPC   GL114617  33.879  11.520   9.124
  908POPC   GL214618  33.866  11.152   9.064
  908POPC   C1A14619  33.879  11.577   8.699
  908POPC   D2A14620  34.190  11.610   8.399
  908POPC   C3A14621  34.008  11.399   8.117
  908POPC   C4A14622  33.846  11.491   7.722
  908POPC   C1B14623  34.116  11.082   8.743
  908POPC   C2B14624  34.148  10.947   8.340
  908POPC   C3B14625  34.273  10.784   7.964
  908POPC   C4B14626  34.282  10.808   7.468
  909POPC   NC314627   0.804  44.506   9.555
  909POPC   PO414628   0.175  44.409   9.479
  909POPC   GL114629   0.401  44.606   9.158
  909POPC   GL214630   0.554  44.900   9.284
  909POPC   C1A14631   0.430  44.502   8.729
  909POPC   D2A14632   0.550  44.271   8.357
  909POPC   C3A14633   0.503  44.477   7.960
  909POPC   C4A14634   0.043  44.576   7.790
  909POPC   C1B14635   0.640  44.973   8.860
  909POPC   C2B14636   0.281  44.981   8.587
  909POPC   C3B14637   0.234  44.865   8.180
  909POPC   C4B14638   0.405  44.927   7.756
  910POPC   NC314639   8.314   2.649   9.462
  910POPC   PO414640   7.916   3.152   9.325
  910POPC   GL114641   8.073   2.824   9.053
  910POPC   GL214642   7.959   2.484   9.140
  910POPC   C1A14643   8.333   2.837   8.719
  910POPC   D2A14644   8.251   3.033   8.338
  910POPC   C3A14645   8.516   3.027   7.992
  910POPC   C4A14646   8.378   3.022   7.582
  910POPC   C1B14647   8.193   2.332   8.793
  910POPC   C2B14648   8.179   2.499   8.377
  910POPC   C3B14649   8.120   2.685   7.969
  910POPC   C4B14650   8.106   2.599   7.566
  911POPC   NC314651  34.998   5.330   9.441
  911POPC   PO414652  35.659   5.104   9.278
  911POPC   GL114653  35.312   5.157   9.080
  911POPC   GL214654  35.121   4.887   9.203
  911POPC   C1A14655  35.265   5.395   8.714
  911POPC   D2A14656  35.177   5.434   8.277
  911POPC   C3A14657  35.483   5.220   8.006
  911POPC   C4A14658  35.688   4.825   7.826
  911POPC   C1B14659  35.030   4.880   8.755
  911POPC   C2B14660  35.026   4.870   8.310
  911POPC   C3B14661  35.174   4.824   7.893
  911POPC   C4B14662  34.979   4.581   7.584
  912POPC   NC314663  18.213   3.936   9.488
  912POPC   PO414664  18.352   4.631   9.631
  912POPC   GL114665  18.317   4.388   9.241
  912POPC   GL214666  18.031   4.232   9.054
  912POPC   C1A14667  18.513   4.161   8.891
  912POPC   D2A14668  18.581   4.006   8.476
  912POPC   C3A14669  18.277   4.134   8.156
  912POPC   C4A14670  18.335   4.405   7.833
  912POPC   C1B14671  18.126   4.367   8.600
  912POPC   C2B14672  17.977   4.573   8.189
  912POPC   C3B14673  18.044   4.800   7.771
  912POPC   C4B14674  18.098   4.495   7.378
  913POPC   NC314675  23.143  14.388   9.513
  913POPC   PO414676  22.545  14.766   9.363
  913POPC   GL114677  22.927  14.583   9.105
  913POPC   GL214678  23.069  14.184   9.071
  913POPC   C1A14679  23.170  14.560   8.740
  913POPC   D2A14680  23.093  14.479   8.312
  913POPC   C3A14681  22.728  14.658   8.063
  913POPC   C4A14682  22.729  14.548   7.582
  913POPC   C1B14683  22.770  14.214   8.741
  913POPC   C2B14684  22.652  14.188   8.325
  913POPC   C3B14685  22.840  14.186   7.935
  913POPC   C4B14686  22.635  13.982   7.629
  914POPC   NC314687  10.696  31.280   9.488
  914POPC   PO414688  10.099  31.583   9.576
  914POPC   GL114689  10.353  31.566   9.136
  914POPC   GL214690  10.691  31.570   9.088
  914POPC   C1A14691  10.441  31.647   8.657
  914POPC   D2A14692  10.613  31.400   8.278
  914POPC   C3A14693  10.497  31.564   7.891
  914POPC   C4A14694  10.461  31.991   7.848
  914POPC   C1B14695  10.886  31.376   8.720
  914POPC   C2B14696  11.102  31.550   8.351
  914POPC   C3B14697  10.995  31.724   7.947
  914POPC   C4B14698  10.934  31.559   7.552
  915POPC   NC314699   6.334  21.109   9.515
  915POPC   PO414700   5.712  21.426   9.411
  915POPC   GL114701   5.834  21.451   9.026
  915POPC   GL214702   6.193  21.438   9.116
  915POPC   C1A14703   6.024  21.607   8.674
  915POPC   D2A14704   6.056  21.732   8.285
  915POPC   C3A14705   5.948  21.474   7.997
  915POPC   C4A14706   5.830  21.528   7.589
  915POPC   C1B14707   6.377  21.236   8.791
  915POPC   C2B14708   6.281  21.249   8.363
  915POPC   C3B14709   6.404  21.062   7.998
  915POPC   C4B14710   6.040  21.034   7.755
  916POPC   NC314711  30.867  12.826   9.895
  916POPC   PO414712  31.018  12.644   9.233
  916POPC   GL114713  30.659  12.716   8.973
  916POPC   GL214714  30.683  13.060   8.849
  916POPC   C1A14715  30.587  12.436   8.630
  916POPC   D2A14716  30.595  12.444   8.182
  916POPC   C3A14717  30.950  12.657   8.077
  916POPC   C4A14718  31.174  12.612   7.711
  916POPC   C1B14719  30.565  12.913   8.488
  916POPC   C2B14720  30.194  12.717   8.367
  916POPC   C3B14721  30.244  12.749   7.936
  916POPC   C4B14722  30.638  12.797   7.703
  917POPC   NC314723  42.631   7.609   9.537
  917POPC   PO414724  41.938   7.681   9.520
  917POPC   GL114725  42.185   7.377   9.230
  917POPC   GL214726  42.493   7.401   9.085
  917POPC   C1A14727  42.077   7.299   8.779
  917POPC   D2A14728  42.266   7.290   8.387
  917POPC   C3A14729  42.076   7.364   7.946
  917POPC   C4A14730  42.204   7.220   7.478
  917POPC   C1B14731  42.757   7.148   8.830
  917POPC   C2B14732  42.814   7.272   8.437
  917POPC   C3B14733  42.624   7.509   8.119
  917POPC   C4B14734  42.607   7.398   7.730
  918POPC   NC314735  11.959  12.392   9.538
  918POPC   PO414736  12.004  13.098   9.767
  918POPC   GL114737  11.827  12.800   9.310
  918POPC   GL214738  12.178  12.716   9.224
  918POPC   C1A14739  11.894  12.776   8.807
  918POPC   D2A14740  11.873  12.589   8.394
  918POPC   C3A14741  11.771  12.796   8.004
  918POPC   C4A14742  12.117  13.035   7.835
  918POPC   C1B14743  12.368  12.581   8.853
  918POPC   C2B14744  12.348  12.415   8.470
  918POPC   C3B14745  12.272  12.589   8.081
  918POPC   C4B14746  12.150  12.521   7.680
  919POPC   NC314747   0.709   8.335   9.557
  919POPC   PO414748   0.437   7.718   9.526
  919POPC   GL114749   0.534   7.968   9.184
  919POPC   GL214750   0.917   8.019   9.198
  919POPC   C1A14751   0.394   8.174   8.786
  919POPC   D2A14752   0.155   8.245   8.387
  919POPC   C3A14753   0.316   8.532   8.079
  919POPC   C4A14754   0.682   8.427   7.839
  919POPC   C1B14755   0.800   7.854   8.770
  919POPC   C2B14756   0.621   7.954   8.356
  919POPC   C3B14757   0.829   7.946   7.966
  919POPC   C4B14758   0.775   7.958   7.515
  920POPC   NC314759  18.134  33.908   9.463
  920POPC   PO414760  18.651  33.611   9.624
  920POPC   GL114761  18.449  33.556   9.199
  920POPC   GL214762  18.290  33.896   9.006
  920POPC   C1A14763  18.634  33.642   8.778
  920POPC   D2A14764  18.406  33.939   8.499
  920POPC   C3A14765  18.555  33.850   8.105
  920POPC   C4A14766  18.484  33.935   7.693
  920POPC   C1B14767  17.938  34.150   8.871
  920POPC   C2B14768  17.935  34.215   8.455
  920POPC   C3B14769  17.983  33.874   8.207
  920POPC   C4B14770  17.931  33.920   7.821
  921POPC   NC314771   6.971  22.659   9.417
  921POPC   PO414772   6.639  23.246   9.438
  921POPC   GL114773   6.811  23.072   9.083
  921POPC   GL214774   6.565  22.825   9.068
  921POPC   C1A14775   6.679  23.074   8.638
  921POPC   D2A14776   6.426  22.994   8.285
  921POPC   C3A14777   6.687  23.142   7.978
  921POPC   C4A14778   6.882  22.761   7.882
  921POPC   C1B14779   6.223  22.842   8.764
  921POPC   C2B14780   6.145  22.576   8.419
  921POPC   C3B14781   6.357  22.559   8.023
  921POPC   C4B14782   6.311  22.880   7.777
  922POPC   NC314783  33.295  24.509   9.663
  922POPC   PO414784  32.592  24.566   9.533
  922POPC   GL114785  32.968  24.411   9.260
  922POPC   GL214786  33.103  24.758   9.179
  922POPC   C1A14787  33.225  24.252   8.873
  922POPC   D2A14788  33.253  24.390   8.432
  922POPC   C3A14789  32.952  24.253   8.098
  922POPC   C4A14790  33.097  24.293   7.668
  922POPC   C1B14791  32.871  24.610   8.788
  922POPC   C2B14792  32.852  24.703   8.340
  922POPC   C3B14793  33.124  24.706   7.943
  922POPC   C4B14794  33.426  24.701   7.565
  923POPC   NC314795   9.271  13.108   9.501
  923POPC   PO414796   8.874  12.524   9.479
  923POPC   GL114797   8.779  12.857   9.230
  923POPC   GL214798   9.087  12.939   9.052
  923POPC   C1A14799   8.610  12.893   8.824
  923POPC   D2A14800   8.974  12.899   8.528
  923POPC   C3A14801   8.767  13.008   8.143
  923POPC   C4A14802   8.835  12.867   7.747
  923POPC   C1B14803   9.348  13.215   8.792
  923POPC   C2B14804   9.531  13.143   8.395
  923POPC   C3B14805   9.260  13.018   8.061
  923POPC   C4B14806   9.187  13.223   7.655
  924POPC   NC314807  29.995  33.554   9.641
  924POPC   PO414808  29.500  33.927   9.707
  924POPC   GL114809  29.662  33.964   9.262
  924POPC   GL214810  30.035  33.936   9.247
  924POPC   C1A14811  29.723  34.219   8.865
  924POPC   D2A14812  29.912  34.163   8.438
  924POPC   C3A14813  29.694  34.113   8.015
  924POPC   C4A14814  29.842  33.716   7.803
  924POPC   C1B14815  30.254  34.152   8.894
  924POPC   C2B14816  30.412  34.168   8.424
  924POPC   C3B14817  30.203  34.209   8.007
  924POPC   C4B14818  30.173  34.048   7.589
  925POPC   NC314819  11.861   1.900   9.474
  925POPC   PO414820  12.398   2.244   9.403
  925POPC   GL114821  12.237   2.124   9.053
  925POPC   GL214822  12.167   1.784   9.077
  925POPC   C1A14823  12.341   2.199   8.645
  925POPC   D2A14824  12.132   2.180   8.262
  925POPC   C3A14825  12.123   1.799   8.006
  925POPC   C4A14826  12.233   1.609   7.587
  925POPC   C1B14827  11.942   1.846   8.687
  925POPC   C2B14828  11.631   2.054   8.422
  925POPC   C3B14829  11.675   2.147   7.980
  925POPC   C4B14830  11.739   1.798   7.672
  926POPC   NC314831  37.830  29.723   9.400
  926POPC   PO414832  37.259  30.071   9.510
  926POPC   GL114833  37.521  30.053   9.149
  926POPC   GL214834  37.399  29.716   9.092
  926POPC   C1A14835  37.885  30.037   8.835
  926POPC   D2A14836  37.927  29.818   8.425
  926POPC   C3A14837  37.810  30.118   8.113
  926POPC   C4A14838  37.657  30.108   7.707
  926POPC   C1B14839  37.461  29.823   8.678
  926POPC   C2B14840  37.351  30.010   8.314
  926POPC   C3B14841  37.485  29.743   8.014
  926POPC   C4B14842  37.276  29.522   7.751
  927POPC   NC314843  17.383  18.629   9.469
  927POPC   PO414844  17.723  19.200   9.568
  927POPC   GL114845  17.486  19.062   9.220
  927POPC   GL214846  17.239  19.269   9.128
  927POPC   C1A14847  17.570  18.810   8.844
  927POPC   D2A14848  17.521  19.000   8.436
  927POPC   C3A14849  17.764  18.933   8.065
  927POPC   C4A14850  17.715  18.812   7.686
  927POPC   C1B14851  17.132  19.026   8.800
  927POPC   C2B14852  17.071  18.766   8.454
  927POPC   C3B14853  17.175  18.894   8.064
  927POPC   C4B14854  17.240  18.997   7.687
  928POPC   NC314855  30.667   9.724   9.542
  928POPC   PO414856  30.782  10.362   9.745
  928POPC   GL114857  30.574  10.133   9.290
  928POPC   GL214858  30.792   9.838   9.066
  928POPC   C1A14859  30.427  10.072   8.833
  928POPC   D2A14860  30.627   9.885   8.449
  928POPC   C3A14861  30.396   9.845   8.076
  928POPC   C4A14862  30.541   9.939   7.695
  928POPC   C1B14863  30.600   9.492   8.772
  928POPC   C2B14864  30.499   9.401   8.318
  928POPC   C3B14865  30.673   9.449   7.881
  928POPC   C4B14866  30.707   9.543   7.430
  929POPC   NC314867   7.682  25.298   9.647
  929POPC   PO414868   7.240  24.954   9.669
  929POPC   GL114869   7.495  24.941   9.244
  929POPC   GL214870   7.635  25.281   9.122
  929POPC   C1A14871   7.471  24.981   8.759
  929POPC   D2A14872   7.656  25.085   8.364
  929POPC   C3A14873   7.438  25.125   7.965
  929POPC   C4A14874   7.055  25.348   7.798
  929POPC   C1B14875   7.690  25.490   8.683
  929POPC   C2B14876   7.851  25.537   8.247
  929POPC   C3B14877   7.793  25.506   7.815
  929POPC   C4B14878   7.570  25.314   7.489
  930POPC   NC314879  43.712  11.539   9.524
  930POPC   PO414880  44.315  11.330   9.709
  930POPC   GL114881  44.095  11.368   9.237
  930POPC   GL214882  44.295  11.104   9.054
  930POPC   C1A14883  43.742  11.450   8.882
  930POPC   D2A14884  43.527  11.352   8.452
  930POPC   C3A14885  43.687  11.341   7.969
  930POPC   C4A14886  43.685  11.463   7.459
  930POPC   C1B14887  44.269  11.438   8.788
  930POPC   C2B14888  44.031  11.454   8.463
  930POPC   C3B14889  44.068  11.637   8.142
  930POPC   C4B14890  44.120  11.521   7.736
  931POPC   NC314891   0.038   3.034   9.476
  931POPC   PO414892  44.358   2.818   9.580
  931POPC   GL114893  44.524   2.820   9.174
  931POPC   GL214894  44.859   2.677   9.075
  931POPC   C1A14895  44.459   2.662   8.769
  931POPC   D2A14896  44.531   2.904   8.418
  931POPC   C3A14897  44.676   2.709   8.086
  931POPC   C4A14898  44.477   2.645   7.744
  931POPC   C1B14899  44.840   3.036   8.816
  931POPC   C2B14900  44.922   3.228   8.400
  931POPC   C3B14901  44.696   3.216   8.022
  931POPC   C4B14902  44.858   2.994   7.687
  932POPC   NC314903  44.138  36.591   9.641
  932POPC   PO414904  43.578  36.923   9.459
  932POPC   GL114905  44.001  36.923   9.232
  932POPC   GL214906  44.007  37.235   9.035
  932POPC   C1A14907  44.215  36.841   8.805
  932POPC   D2A14908  44.003  36.734   8.434
  932POPC   C3A14909  44.150  36.824   8.049
  932POPC   C4A14910  44.101  36.928   7.638
  932POPC   C1B14911  43.704  36.967   8.788
  932POPC   C2B14912  43.497  36.817   8.359
  932POPC   C3B14913  43.660  36.808   7.916
  932POPC   C4B14914  43.634  37.084   7.529
  933POPC   NC314915  25.498   9.063   9.496
  933POPC   PO414916  24.844   8.802   9.591
  933POPC   GL114917  25.134   8.880   9.197
  933POPC   GL214918  25.235   9.224   9.075
  933POPC   C1A14919  25.214   8.705   8.801
  933POPC   D2A14920  25.233   8.959   8.437
  933POPC   C3A14921  25.148   8.750   8.045
  933POPC   C4A14922  25.345   8.819   7.651
  933POPC   C1B14923  25.154   9.430   8.670
  933POPC   C2B14924  25.224   9.565   8.240
  933POPC   C3B14925  25.389   9.229   7.981
  933POPC   C4B14926  25.629   9.262   7.601
  934POPC   NC314927  40.369  37.555   9.514
  934POPC   PO414928  39.992  38.153   9.466
  934POPC   GL114929  39.958  37.737   9.200
  934POPC   GL214930  40.236  37.512   9.012
  934POPC   C1A14931  39.771  37.504   8.834
  934POPC   D2A14932  40.050  37.397   8.511
  934POPC   C3A14933  39.913  37.642   8.214
  934POPC   C4A14934  40.073  37.688   7.815
  934POPC   C1B14935  40.160  37.844   8.715
  934POPC   C2B14936  40.163  38.106   8.360
  934POPC   C3B14937  40.328  38.148   7.933
  934POPC   C4B14938  40.487  37.884   7.590
  935POPC   NC314939  41.510  12.211   9.499
  935POPC   PO414940  41.717  11.611   9.430
  935POPC   GL114941  41.753  11.923   9.128
  935POPC   GL214942  41.389  11.939   8.999
  935POPC   C1A14943  41.761  12.121   8.740
  935POPC   D2A14944  41.432  11.961   8.456
  935POPC   C3A14945  41.588  11.768   8.111
  935POPC   C4A14946  41.467  11.841   7.710
  935POPC   C1B14947  41.290  12.335   8.780
  935POPC   C2B14948  41.548  12.458   8.397
  935POPC   C3B14949  41.551  12.299   7.947
  935POPC   C4B14950  41.216  12.262   7.572
  936POPC   NC314951   2.507   2.685   9.587
  936POPC   PO414952   3.173   2.840   9.666
  936POPC   GL114953   2.893   2.774   9.283
  936POPC   GL214954   2.755   2.419   9.220
  936POPC   C1A14955   2.783   2.940   8.879
  936POPC   D2A14956   3.100   3.051   8.586
  936POPC   C3A14957   3.056   2.957   8.161
  936POPC   C4A14958   2.939   3.068   7.746
  936POPC   C1B14959   2.564   2.449   8.807
  936POPC   C2B14960   2.562   2.706   8.448
  936POPC   C3B14961   2.575   2.806   8.030
  936POPC   C4B14962   2.716   2.575   7.687
  937POPC   NC314963  39.925  32.738   9.907
  937POPC   PO414964  39.940  32.220   9.519
  937POPC   GL114965  39.965  32.098   9.149
  937POPC   GL214966  39.851  32.415   9.060
  937POPC   C1A14967  40.222  32.119   8.811
  937POPC   D2A14968  40.246  31.949   8.450
  937POPC   C3A14969  40.439  32.093   8.097
  937POPC   C4A14970  40.040  32.142   7.934
  937POPC   C1B14971  40.094  32.606   8.769
  937POPC   C2B14972  40.225  32.464   8.391
  937POPC   C3B14973  40.263  32.595   7.992
  937POPC   C4B14974  39.866  32.565   7.725
  938POPC   NC314975  41.669  34.467   9.604
  938POPC   PO414976  41.261  34.614   9.085
  938POPC   GL114977  41.491  34.475   8.825
  938POPC   GL214978  41.762  34.505   9.089
  938POPC   C1A14979  41.484  34.750   8.472
  938POPC   D2A14980  41.781  34.919   8.236
  938POPC   C3A14981  41.623  34.721   7.903
  938POPC   C4A14982  41.315  34.634   7.546
  938POPC   C1B14983  41.934  34.696   8.722
  938POPC   C2B14984  41.908  34.432   8.405
  938POPC   C3B14985  41.857  34.197   8.048
  938POPC   C4B14986  41.801  34.342   7.644
  939POPC   NC314987  28.396  40.343   9.428
  939POPC   PO414988  28.439  39.775   9.659
  939POPC   GL114989  28.474  39.876   9.205
  939POPC   GL214990  28.782  39.786   9.176
  939POPC   C1A14991  28.534  40.155   8.785
  939POPC   D2A14992  28.467  40.349   8.293
  939POPC   C3A14993  28.305  40.125   7.868
  939POPC   C4A14994  28.032  40.114   7.456
  939POPC   C1B14995  28.648  39.623   8.776
  939POPC   C2B14996  28.603  39.853   8.385
  939POPC   C3B14997  28.776  39.883   7.988
  939POPC   C4B14998  28.590  39.777   7.588
  940POPC   NC314999  25.164  24.306   9.437
  940POPC   PO415000  25.627  24.741   9.518
  940POPC   GL115001  25.514  24.550   9.157
  940POPC   GL215002  25.174  24.702   9.098
  940POPC   C1A15003  25.355  24.321   8.788
  940POPC   D2A15004  25.383  24.109   8.377
  940POPC   C3A15005  25.095  24.188   8.055
  940POPC   C4A15006  25.116  24.309   7.580
  940POPC   C1B15007  25.405  24.832   8.759
  940POPC   C2B15008  25.391  24.638   8.381
  940POPC   C3B15009  25.521  24.476   8.012
  940POPC   C4B15010  25.495  24.674   7.641
  941POPC   NC315011  44.169  21.779   9.296
  941POPC   PO415012  44.711  22.058   9.563
  941POPC   GL115013  44.601  22.226   9.125
  941POPC   GL215014  44.261  22.188   8.986
  941POPC   C1A15015  44.712  22.238   8.660
  941POPC   D2A15016   0.043  22.145   8.330
  941POPC   C3A15017  44.910  22.255   7.903
  941POPC   C4A15018  44.862  22.071   7.488
  941POPC   C1B15019  44.414  21.825   8.715
  941POPC   C2B15020  44.611  21.826   8.331
  941POPC   C3B15021  44.552  21.886   7.896
  941POPC   C4B15022  44.383  21.949   7.511
  942POPC   NC315023  18.903  19.839   9.604
  942POPC   PO415024  19.432  19.395   9.571
  942POPC   GL115025  19.299  19.675   9.166
  942POPC   GL215026  19.003  19.949   9.109
  942POPC   C1A15027  19.223  19.784   8.684
  942POPC   D2A15028  18.967  19.792   8.286
  942POPC   C3A15029  19.062  19.643   7.847
  942POPC   C4A15030  19.295  19.539   7.455
  942POPC   C1B15031  18.766  20.067   8.714
  942POPC   C2B15032  18.751  20.266   8.292
  942POPC   C3B15033  18.841  20.262   7.824
  942POPC   C4B15034  18.776  20.302   7.336
  943POPC   NC315035  30.377  39.229   9.412
  943POPC   PO415036  31.041  39.382   9.534
  943POPC   GL115037  30.851  39.226   9.201
  943POPC   GL215038  30.751  38.880   9.264
  943POPC   C1A15039  30.666  39.247   8.809
  943POPC   D2A15040  30.752  39.024   8.443
  943POPC   C3A15041  30.682  39.234   8.064
  943POPC   C4A15042  30.454  39.141   7.699
  943POPC   C1B15043  30.980  38.837   8.872
  943POPC   C2B15044  31.253  38.928   8.495
  943POPC   C3B15045  31.074  38.861   8.068
  943POPC   C4B15046  30.935  38.973   7.656
  944POPC   NC315047   0.089   8.914   9.526
  944POPC   PO415048  44.424   8.999   9.471
  944POPC   GL115049  44.648   8.939   9.098
  944POPC   GL215050  44.965   9.133   9.079
  944POPC   C1A15051  44.801   8.860   8.676
  944POPC   D2A15052  44.838   8.648   8.293
  944POPC   C3A15053  44.539   8.877   8.088
  944POPC   C4A15054  44.520   9.262   7.906
  944POPC   C1B15055   0.200   9.186   8.705
  944POPC   C2B15056   0.245   9.012   8.281
  944POPC   C3B15057   0.008   9.023   7.873
  944POPC   C4B15058  44.949   8.908   7.422
  945POPC   NC315059  18.985  42.855   9.562
  945POPC   PO415060  19.467  43.255   9.653
  945POPC   GL115061  19.242  43.249   9.210
  945POPC   GL215062  18.896  43.111   9.147
  945POPC   C1A15063  19.223  43.098   8.751
  945POPC   D2A15064  19.297  43.206   8.306
  945POPC   C3A15065  19.171  42.950   7.962
  945POPC   C4A15066  18.880  43.078   7.660
  945POPC   C1B15067  18.872  42.754   8.858
  945POPC   C2B15068  18.880  42.852   8.419
  945POPC   C3B15069  18.715  42.734   8.029
  945POPC   C4B15070  18.852  42.565   7.647
  946POPC   NC315071  19.382  21.371   9.509
  946POPC   PO415072  19.865  20.944   9.578
  946POPC   GL115073  19.698  21.144   9.163
  946POPC   GL215074  19.721  21.532   9.172
  946POPC   C1A15075  19.744  21.202   8.703
  946POPC   D2A15076  19.756  21.163   8.234
  946POPC   C3A15077  19.862  21.197   7.835
  946POPC   C4A15078  19.608  21.420   7.607
  946POPC   C1B15079  19.713  21.764   8.813
  946POPC   C2B15080  19.846  21.639   8.409
  946POPC   C3B15081  19.980  21.676   7.978
  946POPC   C4B15082  20.026  21.651   7.504
  947POPC   NC315083   9.855   0.214   9.478
  947POPC   PO415084   9.809   0.865   9.532
  947POPC   GL115085   9.687   0.653   9.154
  947POPC   GL215086   9.949   0.451   9.047
  947POPC   C1A15087   9.613   0.686   8.711
  947POPC   D2A15088   9.852   0.644   8.353
  947POPC   C3A15089   9.699   0.776   7.955
  947POPC   C4A15090   9.808   0.676   7.558
  947POPC   C1B15091   9.685   0.189   8.811
  947POPC   C2B15092   9.702   0.107   8.399
  947POPC   C3B15093   9.791   0.250   8.001
  947POPC   C4B15094  10.054   0.064   7.702
  948POPC   NC315095  34.985  39.186   9.316
  948POPC   PO415096  35.264  39.620   9.718
  948POPC   GL115097  35.317  39.609   9.223
  948POPC   GL215098  35.496  39.344   9.048
  948POPC   C1A15099  35.152  39.609   8.768
  948POPC   D2A15100  34.967  39.494   8.362
  948POPC   C3A15101  35.301  39.301   8.145
  948POPC   C4A15102  35.445  39.376   7.743
  948POPC   C1B15103  35.401  39.013   8.722
  948POPC   C2B15104  35.617  38.872   8.332
  948POPC   C3B15105  35.505  38.881   7.884
  948POPC   C4B15106  35.069  39.004   7.779
  949POPC   NC315107  22.631   2.976   9.478
  949POPC   PO415108  22.708   2.383   9.240
  949POPC   GL115109  22.947   2.778   9.114
  949POPC   GL215110  23.275   2.922   9.216
  949POPC   C1A15111  22.820   3.036   8.773
  949POPC   D2A15112  22.569   2.865   8.430
  949POPC   C3A15113  22.819   2.907   8.089
  949POPC   C4A15114  22.793   2.718   7.683
  949POPC   C1B15115  23.331   2.872   8.755
  949POPC   C2B15116  23.414   2.784   8.313
  949POPC   C3B15117  23.270   2.878   7.864
  949POPC   C4B15118  23.181   2.861   7.393
  950POPC   NC315119  42.813  22.015   9.608
  950POPC   PO415120  42.183  22.189   9.410
  950POPC   GL115121  42.524  22.116   9.168
  950POPC   GL215122  42.593  22.471   9.116
  950POPC   C1A15123  42.521  21.940   8.739
  950POPC   D2A15124  42.224  22.053   8.397
  950POPC   C3A15125  42.310  21.930   7.982
  950POPC   C4A15126  42.549  22.019   7.655
  950POPC   C1B15127  42.275  22.428   8.798
  950POPC   C2B15128  42.236  22.575   8.384
  950POPC   C3B15129  42.122  22.427   8.014
  950POPC   C4B15130  42.071  22.248   7.645
  951POPC   NC315131  39.292  17.723   9.501
  951POPC   PO415132  39.765  17.308   9.429
  951POPC   GL115133  39.345  17.303   9.154
  951POPC   GL215134  39.009  17.514   9.139
  951POPC   C1A15135  39.253  17.274   8.689
  951POPC   D2A15136  39.176  17.230   8.234
  951POPC   C3A15137  39.410  17.412   7.916
  951POPC   C4A15138  39.347  17.796   7.767
  951POPC   C1B15139  38.713  17.540   8.843
  951POPC   C2B15140  38.853  17.563   8.450
  951POPC   C3B15141  38.952  17.673   8.039
  951POPC   C4B15142  38.957  17.462   7.615
  952POPC   NC315143  13.202  42.032   9.440
  952POPC   PO415144  12.702  42.454   9.596
  952POPC   GL115145  12.895  42.400   9.197
  952POPC   GL215146  12.732  42.095   9.155
  952POPC   C1A15147  12.913  42.590   8.782
  952POPC   D2A15148  12.700  42.629   8.373
  952POPC   C3A15149  12.932  42.589   7.975
  952POPC   C4A15150  13.287  42.706   7.672
  952POPC   C1B15151  12.827  42.057   8.731
  952POPC   C2B15152  12.671  42.096   8.352
  952POPC   C3B15153  12.676  41.893   7.978
  952POPC   C4B15154  12.700  42.195   7.664
  953POPC   NC315155   2.024   6.454   9.451
  953POPC   PO415156   1.908   7.112   9.488
  953POPC   GL115157   1.892   6.893   9.124
  953POPC   GL215158   2.209   6.822   9.145
  953POPC   C1A15159   1.873   6.961   8.673
  953POPC   D2A15160   1.581   7.010   8.322
  953POPC   C3A15161   1.742   6.788   7.998
  953POPC   C4A15162   1.955   6.793   7.653
  953POPC   C1B15163   2.032   6.495   8.822
  953POPC   C2B15164   1.837   6.510   8.429
  953POPC   C3B15165   2.069   6.399   8.068
  953POPC   C4B15166   1.926   6.292   7.658
  954POPC   NC315167   3.548  21.891   9.454
  954POPC   PO415168   3.374  22.539   9.489
  954POPC   GL115169   3.375  22.290   9.171
  954POPC   GL215170   3.729  22.260   9.139
  954POPC   C1A15171   3.384  22.211   8.743
  954POPC   D2A15172   3.690  22.223   8.426
  954POPC   C3A15173   3.511  22.396   8.056
  954POPC   C4A15174   3.394  22.383   7.637
  954POPC   C1B15175   3.785  21.891   8.861
  954POPC   C2B15176   3.788  21.712   8.430
  954POPC   C3B15177   3.703  21.894   8.016
  954POPC   C4B15178   3.545  21.880   7.594
  955POPC   NC315179  10.441  28.962   9.655
  955POPC   PO415180  11.037  29.195   9.549
  955POPC   GL115181  10.645  29.201   9.229
  955POPC   GL215182  10.294  29.024   9.179
  955POPC   C1A15183  10.594  29.107   8.773
  955POPC   D2A15184  10.706  29.009   8.343
  955POPC   C3A15185  10.543  29.204   7.982
  955POPC   C4A15186  10.762  29.455   7.681
  955POPC   C1B15187  10.124  28.905   8.808
  955POPC   C2B15188  10.196  28.993   8.403
  955POPC   C3B15189  10.087  28.984   7.995
  955POPC   C4B15190  10.202  29.171   7.587
  956POPC   NC315191  19.883  32.055   9.424
  956POPC   PO415192  20.053  32.703   9.534
  956POPC   GL115193  20.100  32.437   9.133
  956POPC   GL215194  19.752  32.449   8.962
  956POPC   C1A15195  20.121  32.278   8.685
  956POPC   D2A15196  19.842  32.333   8.369
  956POPC   C3A15197  20.058  32.159   8.045
  956POPC   C4A15198  20.026  32.253   7.656
  956POPC   C1B15199  19.651  32.021   8.778
  956POPC   C2B15200  19.472  31.940   8.364
  956POPC   C3B15201  19.552  32.022   7.937
  956POPC   C4B15202  19.420  31.750   7.580
  957POPC   NC315203  36.457  28.898   9.559
  957POPC   PO415204  35.811  29.098   9.411
  957POPC   GL115205  36.145  28.880   9.138
  957POPC   GL215206  36.515  28.775   9.071
  957POPC   C1A15207  36.234  28.994   8.710
  957POPC   D2A15208  35.947  29.074   8.394
  957POPC   C3A15209  36.175  29.256   8.080
  957POPC   C4A15210  35.983  29.259   7.686
  957POPC   C1B15211  36.604  28.642   8.613
  957POPC   C2B15212  36.302  28.702   8.264
  957POPC   C3B15213  36.190  28.819   7.831
  957POPC   C4B15214  36.385  28.947   7.441
  958POPC   NC315215   0.464  30.323   9.403
  958POPC   PO415216   0.048  30.846   9.382
  958POPC   GL115217   0.238  30.744   9.049
  958POPC   GL215218   0.526  30.805   9.184
  958POPC   C1A15219   0.260  30.418   8.762
  958POPC   D2A15220   0.514  30.342   8.416
  958POPC   C3A15221   0.385  30.616   8.120
  958POPC   C4A15222   0.191  30.589   7.756
  958POPC   C1B15223   0.724  30.631   8.814
  958POPC   C2B15224   0.913  30.668   8.406
  958POPC   C3B15225   0.845  30.842   8.016
  958POPC   C4B15226   0.607  30.862   7.678
  959POPC   NC315227  24.363   0.312   9.668
  959POPC   PO415228  24.973   0.544   9.503
  959POPC   GL115229  24.605   0.490   9.193
  959POPC   GL215230  24.414   0.137   9.184
  959POPC   C1A15231  24.492   0.723   8.799
  959POPC   D2A15232  24.258   0.933   8.448
  959POPC   C3A15233  24.132   0.611   8.177
  959POPC   C4A15234  24.391   0.506   7.863
  959POPC   C1B15235  24.359   0.220   8.740
  959POPC   C2B15236  24.475   0.187   8.306
  959POPC   C3B15237  24.419   0.021   7.908
  959POPC   C4B15238  23.976   0.164   7.823
  960POPC   NC315239   5.551   8.045   9.490
  960POPC   PO415240   4.865   8.228   9.664
  960POPC   GL115241   5.000   8.179   9.252
  960POPC   GL215242   4.869   7.867   9.219
  960POPC   C1A15243   5.009   8.363   8.838
  960POPC   D2A15244   5.231   8.279   8.447
  960POPC   C3A15245   5.051   8.374   8.038
  960POPC   C4A15246   5.317   8.569   7.713
  960POPC   C1B15247   5.073   7.869   8.821
  960POPC   C2B15248   4.812   7.986   8.486
  960POPC   C3B15249   4.817   7.842   8.089
  960POPC   C4B15250   4.992   7.906   7.751
  961POPC   NC315251  38.614  19.188   9.415
  961POPC   PO415252  38.187  18.700   9.523
  961POPC   GL115253  38.439  18.772   9.150
  961POPC   GL215254  38.769  18.917   9.008
  961POPC   C1A15255  38.323  18.927   8.779
  961POPC   D2A15256  38.262  19.165   8.406
  961POPC   C3A15257  38.388  18.976   8.042
  961POPC   C4A15258  38.368  19.196   7.670
  961POPC   C1B15259  38.688  19.291   8.763
  961POPC   C2B15260  38.731  19.443   8.379
  961POPC   C3B15261  38.805  19.272   7.989
  961POPC   C4B15262  38.819  18.975   7.684
  962POPC   NC315263  30.481  43.436   9.345
  962POPC   PO415264  30.925  43.736   9.761
  962POPC   GL115265  30.827  43.798   9.215
  962POPC   GL215266  30.602  43.730   8.965
  962POPC   C1A15267  30.938  44.098   8.841
  962POPC   D2A15268  31.118  44.354   8.477
  962POPC   C3A15269  31.025  44.186   8.083
  962POPC   C4A15270  30.925  44.215   7.640
  962POPC   C1B15271  30.989  43.579   8.780
  962POPC   C2B15272  31.084  43.797   8.419
  962POPC   C3B15273  30.783  43.752   8.101
  962POPC   C4B15274  30.745  43.720   7.683
  963POPC   NC315275  19.958  25.877   9.472
  963POPC   PO415276  19.492  26.369   9.613
  963POPC   GL115277  19.712  26.260   9.151
  963POPC   GL215278  19.827  25.915   8.993
  963POPC   C1A15279  19.872  26.348   8.709
  963POPC   D2A15280  19.806  26.453   8.261
  963POPC   C3A15281  19.864  26.099   7.953
  963POPC   C4A15282  20.208  25.972   7.639
  963POPC   C1B15283  19.679  25.911   8.571
  963POPC   C2B15284  19.302  25.862   8.392
  963POPC   C3B15285  19.469  25.645   8.068
  963POPC   C4B15286  19.820  25.616   7.748
  964POPC   NC315287   0.908  28.306   9.360
  964POPC   PO415288   0.248  27.955   9.460
  964POPC   GL115289   0.472  28.154   9.122
  964POPC   GL215290   0.550  28.516   9.057
  964POPC   C1A15291   0.357  28.226   8.691
  964POPC   D2A15292   0.494  28.041   8.318
  964POPC   C3A15293   0.271  28.189   7.966
  964POPC   C4A15294   0.445  28.215   7.561
  964POPC   C1B15295   0.789  28.705   8.742
  964POPC   C2B15296   0.776  28.492   8.364
  964POPC   C3B15297   0.664  28.536   7.949
  964POPC   C4B15298   0.328  28.678   7.714
  965POPC   NC315299  32.758  14.390   9.511
  965POPC   PO415300  32.035  14.533   9.600
  965POPC   GL115301  32.254  14.413   9.157
  965POPC   GL215302  32.581  14.233   9.081
  965POPC   C1A15303  32.301  14.299   8.675
  965POPC   D2A15304  32.572  14.129   8.376
  965POPC   C3A15305  32.370  14.118   7.994
  965POPC   C4A15306  32.138  14.366   7.760
  965POPC   C1B15307  32.732  14.538   8.795
  965POPC   C2B15308  32.601  14.704   8.411
  965POPC   C3B15309  32.530  14.620   7.985
  965POPC   C4B15310  32.645  14.373   7.626
  966POPC   NC315311  35.084  33.046   9.317
  966POPC   PO415312  35.737  33.051   9.429
  966POPC   GL115313  35.541  33.095   9.044
  966POPC   GL215314  35.309  33.399   9.033
  966POPC   C1A15315  35.375  32.776   8.765
  966POPC   D2A15316  35.140  32.888   8.431
  966POPC   C3A15317  35.310  33.068   8.049
  966POPC   C4A15318  35.615  32.947   7.750
  966POPC   C1B15319  34.958  33.381   8.685
  966POPC   C2B15320  34.826  33.238   8.264
  966POPC   C3B15321  34.837  33.152   7.825
  966POPC   C4B15322  35.137  32.883   7.575
  967POPC   NC315323  23.444  10.440   9.808
  967POPC   PO415324  23.692   9.889   9.491
  967POPC   GL115325  23.749   9.674   9.073
  967POPC   GL215326  24.085   9.662   8.950
  967POPC   C1A15327  23.695   9.726   8.628
  967POPC   D2A15328  23.811   9.737   8.215
  967POPC   C3A15329  23.537   9.789   7.862
  967POPC   C4A15330  23.413   9.722   7.446
  967POPC   C1B15331  23.958   9.278   8.721
  967POPC   C2B15332  23.984   9.240   8.299
  967POPC   C3B15333  24.142   9.443   7.953
  967POPC   C4B15334  23.925   9.547   7.575
  968POPC   NC315335   2.146  36.811   9.596
  968POPC   PO415336   1.703  36.349   9.392
  968POPC   GL115337   1.894  36.720   9.186
  968POPC   GL215338   2.290  36.734   9.123
  968POPC   C1A15339   1.890  36.951   8.826
  968POPC   D2A15340   1.629  36.903   8.498
  968POPC   C3A15341   1.797  36.986   8.112
  968POPC   C4A15342   1.792  36.832   7.710
  968POPC   C1B15343   2.404  36.917   8.766
  968POPC   C2B15344   2.286  36.810   8.353
  968POPC   C3B15345   2.276  36.930   7.917
  968POPC   C4B15346   2.242  36.819   7.476
  969POPC   NC315347   4.770  18.477   9.475
  969POPC   PO415348   5.423  18.230   9.628
  969POPC   GL115349   5.220  18.305   9.206
  969POPC   GL215350   5.026  17.987   9.214
  969POPC   C1A15351   5.133  18.588   8.805
  969POPC   D2A15352   5.122  18.739   8.350
  969POPC   C3A15353   5.331  18.481   8.023
  969POPC   C4A15354   5.465  18.551   7.580
  969POPC   C1B15355   4.900  18.137   8.811
  969POPC   C2B15356   5.123  18.215   8.434
  969POPC   C3B15357   4.916  18.177   8.041
  969POPC   C4B15358   5.001  18.309   7.653
  970POPC   NC315359  28.397  38.233   9.786
  970POPC   PO415360  28.103  38.840   9.539
  970POPC   GL115361  28.410  38.576   9.268
  970POPC   GL215362  28.347  38.242   9.116
  970POPC   C1A15363  28.602  38.547   8.840
  970POPC   D2A15364  28.680  38.299   8.480
  970POPC   C3A15365  28.654  38.515   8.081
  970POPC   C4A15366  28.488  38.400   7.712
  970POPC   C1B15367  28.194  37.969   8.744
  970POPC   C2B15368  28.244  38.040   8.344
  970POPC   C3B15369  28.137  38.363   8.097
  970POPC   C4B15370  27.832  38.334   7.768
  971POPC   NC315371  34.411  42.475   9.509
  971POPC   PO415372  35.022  42.051   9.439
  971POPC   GL115373  34.752  42.313   9.113
  971POPC   GL215374  34.364  42.316   9.047
  971POPC   C1A15375  34.657  42.648   8.785
  971POPC   D2A15376  34.509  42.845   8.393
  971POPC   C3A15377  34.667  42.619   8.024
  971POPC   C4A15378  34.642  42.246   7.760
  971POPC   C1B15379  34.326  42.081   8.690
  971POPC   C2B15380  34.404  42.190   8.285
  971POPC   C3B15381  34.265  41.957   7.970
  971POPC   C4B15382  34.139  42.156   7.615
  972POPC   NC315383   0.602  21.120   9.560
  972POPC   PO415384   0.374  21.701   9.351
  972POPC   GL115385   0.554  21.366   9.082
  972POPC   GL215386   0.772  21.054   9.087
  972POPC   C1A15387   0.377  21.357   8.688
  972POPC   D2A15388   0.113  21.109   8.445
  972POPC   C3A15389   0.229  21.237   8.054
  972POPC   C4A15390   0.419  21.528   7.792
  972POPC   C1B15391   0.843  21.185   8.656
  972POPC   C2B15392   0.699  21.335   8.235
  972POPC   C3B15393   0.876  21.357   7.817
  972POPC   C4B15394   0.715  21.469   7.364
  973POPC   NC315395  44.062  40.199   9.587
  973POPC   PO415396  43.538  40.299   9.266
  973POPC   GL115397  43.893  40.083   9.115
  973POPC   GL215398  44.211  40.300   9.096
  973POPC   C1A15399  43.771  39.835   8.765
  973POPC   D2A15400  43.926  39.737   8.361
  973POPC   C3A15401  43.739  39.979   8.011
  973POPC   C4A15402  43.621  40.419   7.899
  973POPC   C1B15403  44.389  40.274   8.662
  973POPC   C2B15404  44.244  40.286   8.245
  973POPC   C3B15405  44.133  40.309   7.815
  973POPC   C4B15406  44.177  40.463   7.394
  974POPC   NC315407   9.454  27.947   9.649
  974POPC   PO415408   9.899  27.472   9.665
  974POPC   GL115409   9.725  27.475   9.250
  974POPC   GL215410   9.722  27.818   9.227
  974POPC   C1A15411   9.548  27.530   8.829
  974POPC   D2A15412   9.612  27.790   8.483
  974POPC   C3A15413   9.327  27.834   8.167
  974POPC   C4A15414   9.319  27.724   7.750
  974POPC   C1B15415   9.959  27.882   8.866
  974POPC   C2B15416  10.061  28.020   8.466
  974POPC   C3B15417   9.947  27.971   8.049
  974POPC   C4B15418  10.291  28.124   7.780
  975POPC   NC315419  14.527  10.123   9.742
  975POPC   PO415420  14.147   9.676   9.485
  975POPC   GL115421  14.126   9.621   9.095
  975POPC   GL215422  14.430   9.802   9.076
  975POPC   C1A15423  14.060   9.765   8.700
  975POPC   D2A15424  14.433   9.785   8.510
  975POPC   C3A15425  14.448   9.658   8.152
  975POPC   C4A15426  14.234   9.712   7.794
  975POPC   C1B15427  14.628   9.490   8.881
  975POPC   C2B15428  14.626   9.295   8.531
  975POPC   C3B15429  14.729   9.214   8.142
  975POPC   C4B15430  14.651   9.402   7.767
  976POPC   NC315431   1.723  33.750   9.631
  976POPC   PO415432   1.075  33.966   9.502
  976POPC   GL115433   1.191  33.858   9.114
  976POPC   GL215434   1.513  33.970   9.125
  976POPC   C1A15435   1.074  33.763   8.704
  976POPC   D2A15436   1.313  33.571   8.376
  976POPC   C3A15437   1.149  33.675   8.002
  976POPC   C4A15438   1.065  33.482   7.635
  976POPC   C1B15439   1.595  33.776   8.755
  976POPC   C2B15440   1.668  33.968   8.369
  976POPC   C3B15441   1.608  33.898   7.941
  976POPC   C4B15442   1.554  33.574   7.672
  977POPC   NC315443  35.842  36.832   9.389
  977POPC   PO415444  36.369  36.883   9.679
  977POPC   GL115445  36.318  37.089   9.288
  977POPC   GL215446  36.080  36.997   8.985
  977POPC   C1A15447  36.499  37.248   8.959
  977POPC   D2A15448  36.360  37.176   8.566
  977POPC   C3A15449  36.416  36.889   8.243
  977POPC   C4A15450  36.325  36.827   7.802
  977POPC   C1B15451  36.029  36.746   8.612
  977POPC   C2B15452  35.712  36.701   8.288
  977POPC   C3B15453  35.852  36.676   7.905
  977POPC   C4B15454  35.885  37.066   7.706
  978POPC   NC315455  43.099   5.010   9.950
  978POPC   PO415456  43.678   5.204   9.612
  978POPC   GL115457  43.325   5.210   9.284
  978POPC   GL215458  43.050   4.968   9.343
  978POPC   C1A15459  43.095   5.275   8.864
  978POPC   D2A15460  42.831   5.153   8.531
  978POPC   C3A15461  42.941   5.157   8.093
  978POPC   C4A15462  42.939   4.986   7.667
  978POPC   C1B15463  43.276   4.812   8.953
  978POPC   C2B15464  43.271   4.888   8.496
  978POPC   C3B15465  43.495   4.967   8.098
  978POPC   C4B15466  43.407   4.783   7.683
  979POPC   NC315467  44.987   7.776   9.478
  979POPC   PO415468  44.517   7.363   9.689
  979POPC   GL115469  44.570   7.334   9.251
  979POPC   GL215470  44.856   7.156   9.109
  979POPC   C1A15471  44.582   7.542   8.839
  979POPC   D2A15472  44.706   7.503   8.407
  979POPC   C3A15473  44.439   7.628   8.084
  979POPC   C4A15474  44.365   7.904   7.780
  979POPC   C1B15475   0.076   7.213   8.680
  979POPC   C2B15476   0.032   7.198   8.191
  979POPC   C3B15477  44.874   7.494   7.845
  979POPC   C4B15478  44.994   7.628   7.407
  980POPC   NC315479  33.479   3.263   9.386
  980POPC   PO415480  33.615   2.752   9.820
  980POPC   GL115481  33.704   2.752   9.340
  980POPC   GL215482  33.882   3.024   9.193
  980POPC   C1A15483  33.773   2.610   8.880
  980POPC   D2A15484  33.738   2.799   8.451
  980POPC   C3A15485  33.888   2.670   8.047
  980POPC   C4A15486  33.589   2.631   7.686
  980POPC   C1B15487  33.773   3.196   8.802
  980POPC   C2B15488  33.927   3.287   8.405
  980POPC   C3B15489  33.762   3.171   8.033
  980POPC   C4B15490  33.912   3.030   7.662
  981POPC   NC315491   3.240   9.356   9.453
  981POPC   PO415492   3.585   9.964   9.498
  981POPC   GL115493   3.382   9.806   9.179
  981POPC   GL215494   3.091  10.027   9.177
  981POPC   C1A15495   3.481   9.532   8.816
  981POPC   D2A15496   3.682   9.347   8.450
  981POPC   C3A15497   3.708   9.551   8.050
  981POPC   C4A15498   3.546   9.638   7.620
  981POPC   C1B15499   3.243   9.996   8.737
  981POPC   C2B15500   3.336   9.758   8.369
  981POPC   C3B15501   3.415   9.965   8.019
  981POPC   C4B15502   3.209  10.019   7.651
  982POPC   NC315503   3.099   5.316   9.633
  982POPC   PO415504   2.537   4.926   9.478
  982POPC   GL115505   2.804   5.190   9.232
  982POPC   GL215506   3.086   4.951   9.273
  982POPC   C1A15507   2.837   5.346   8.812
  982POPC   D2A15508   2.950   5.430   8.355
  982POPC   C3A15509   2.839   5.444   7.871
  982POPC   C4A15510   3.072   5.499   7.457
  982POPC   C1B15511   2.915   4.829   8.885
  982POPC   C2B15512   2.724   4.961   8.493
  982POPC   C3B15513   2.852   4.976   8.077
  982POPC   C4B15514   2.532   4.978   7.749
  983POPC   NC315515   4.630   4.342   9.445
  983POPC   PO415516   4.091   4.714   9.362
  983POPC   GL115517   4.328   4.481   9.034
  983POPC   GL215518   4.374   4.157   9.060
  983POPC   C1A15519   4.481   4.308   8.608
  983POPC   D2A15520   4.427   4.040   8.245
  983POPC   C3A15521   4.574   4.324   7.921
  983POPC   C4A15522   4.544   4.446   7.478
  983POPC   C1B15523   4.078   3.992   8.753
  983POPC   C2B15524   3.847   4.148   8.395
  983POPC   C3B15525   3.806   4.266   7.977
  983POPC   C4B15526   4.119   4.108   7.700
  984POPC   NC315527  43.606  25.811   9.405
  984POPC   PO415528  44.151  26.334   9.597
  984POPC   GL115529  43.852  26.233   9.253
  984POPC   GL215530  44.057  25.961   9.243
  984POPC   C1A15531  43.777  26.073   8.822
  984POPC   D2A15532  43.971  26.262   8.485
  984POPC   C3A15533  43.794  26.181   8.126
  984POPC   C4A15534  43.915  26.172   7.746
  984POPC   C1B15535  44.267  25.856   8.917
  984POPC   C2B15536  44.242  25.827   8.494
  984POPC   C3B15537  44.279  25.990   8.090
  984POPC   C4B15538  44.414  25.913   7.681
  985POPC   NC315539  23.805  42.963   9.575
  985POPC   PO415540  23.685  43.620   9.343
  985POPC   GL115541  23.841  43.297   9.191
  985POPC   GL215542  23.506  43.207   9.033
  985POPC   C1A15543  23.931  43.299   8.778
  985POPC   D2A15544  23.687  43.453   8.440
  985POPC   C3A15545  23.826  43.179   8.117
  985POPC   C4A15546  23.834  43.189   7.688
  985POPC   C1B15547  23.529  43.004   8.613
  985POPC   C2B15548  23.403  42.929   8.190
  985POPC   C3B15549  23.470  42.828   7.751
  985POPC   C4B15550  23.564  42.935   7.308
  986POPC   NC315551  11.992  20.396   9.310
  986POPC   PO415552  11.909  20.971   9.669
  986POPC   GL115553  12.015  21.006   9.211
  986POPC   GL215554  12.391  20.999   9.202
  986POPC   C1A15555  11.831  20.879   8.778
  986POPC   D2A15556  11.716  20.548   8.444
  986POPC   C3A15557  11.791  20.745   8.034
  986POPC   C4A15558  11.808  20.939   7.616
  986POPC   C1B15559  12.331  20.769   8.830
  986POPC   C2B15560  12.187  20.774   8.411
  986POPC   C3B15561  12.355  20.634   8.041
  986POPC   C4B15562  12.160  20.587   7.669
  987POPC   NC315563   8.501   8.901   9.372
  987POPC   PO415564   7.876   9.165   9.474
  987POPC   GL115565   8.144   9.181   9.151
  987POPC   GL215566   8.146   8.866   9.006
  987POPC   C1A15567   8.166   9.338   8.756
  987POPC   D2A15568   8.378   9.367   8.376
  987POPC   C3A15569   8.299   9.166   8.010
  987POPC   C4A15570   8.336   9.344   7.612
  987POPC   C1B15571   8.369   8.891   8.620
  987POPC   C2B15572   8.271   8.726   8.244
  987POPC   C3B15573   8.104   8.664   7.871
  987POPC   C4B15574   8.019   8.959   7.546
  988POPC   NC315575   0.745  40.043   9.772
  988POPC   PO415576   0.187  39.979   9.317
  988POPC   GL115577   0.262  39.868   8.980
  988POPC   GL215578   0.048  39.606   8.967
  988POPC   C1A15579   0.401  40.039   8.627
  988POPC   D2A15580   0.617  40.178   8.270
  988POPC   C3A15581   0.340  40.177   7.915
  988POPC   C4A15582   0.624  40.312   7.636
  988POPC   C1B15583   0.347  39.514   8.634
  988POPC   C2B15584   0.404  39.699   8.262
  988POPC   C3B15585   0.227  39.684   7.895
  988POPC   C4B15586   0.091  39.532   7.567
  989POPC   NC315587  10.992  17.748   9.454
  989POPC   PO415588  11.517  17.290   9.530
  989POPC   GL115589  11.424  17.380   9.126
  989POPC   GL215590  11.426  17.742   9.106
  989POPC   C1A15591  11.558  17.334   8.702
  989POPC   D2A15592  11.491  17.150   8.292
  989POPC   C3A15593  11.463  17.386   7.924
  989POPC   C4A15594  11.635  17.759   7.761
  989POPC   C1B15595  11.159  17.648   8.712
  989POPC   C2B15596  11.036  17.532   8.277
  989POPC   C3B15597  11.099  17.718   7.863
  989POPC   C4B15598  11.193  17.649   7.426
  990POPC   NC315599   3.413  35.722   9.526
  990POPC   PO415600   3.088  36.265   9.682
  990POPC   GL115601   3.430  36.234   9.256
  990POPC   GL215602   3.627  35.948   9.115
  990POPC   C1A15603   3.666  36.393   8.813
  990POPC   D2A15604   4.017  36.370   8.441
  990POPC   C3A15605   3.856  36.243   8.042
  990POPC   C4A15606   3.516  36.000   7.860
  990POPC   C1B15607   3.347  35.951   8.746
  990POPC   C2B15608   3.158  35.944   8.302
  990POPC   C3B15609   3.136  35.679   7.909
  990POPC   C4B15610   3.169  35.684   7.442
  991POPC   NC315611  40.358  39.227   9.574
  991POPC   PO415612  41.046  39.406   9.496
  991POPC   GL115613  40.806  39.134   9.279
  991POPC   GL215614  40.612  39.409   9.191
  991POPC   C1A15615  40.811  39.077   8.847
  991POPC   D2A15616  40.942  39.203   8.449
  991POPC   C3A15617  40.652  39.042   8.173
  991POPC   C4A15618  40.696  38.976   7.765
  991POPC   C1B15619  40.821  39.610   8.879
  991POPC   C2B15620  40.706  39.652   8.472
  991POPC   C3B15621  40.771  39.530   8.050
  991POPC   C4B15622  40.564  39.468   7.666
  992POPC   NC315623  42.814  43.235   9.481
  992POPC   PO415624  43.035  42.631   9.464
  992POPC   GL115625  43.042  42.912   9.127
  992POPC   GL215626  43.257  43.228   9.168
  992POPC   C1A15627  43.227  42.897   8.742
  992POPC   D2A15628  43.225  42.692   8.366
  992POPC   C3A15629  43.202  42.891   7.996
  992POPC   C4A15630  43.256  43.120   7.617
  992POPC   C1B15631  42.975  43.342   8.825
  992POPC   C2B15632  43.041  43.218   8.396
  992POPC   C3B15633  43.172  43.405   8.031
  992POPC   C4B15634  42.905  43.521   7.672
  993POPC   NC315635  34.357  38.621   9.607
  993POPC   PO415636  34.837  38.154   9.466
  993POPC   GL115637  34.638  38.310   9.124
  993POPC   GL215638  34.596  38.618   9.119
  993POPC   C1A15639  34.487  38.209   8.752
  993POPC   D2A15640  34.722  38.170   8.414
  993POPC   C3A15641  34.499  38.241   8.041
  993POPC   C4A15642  34.828  38.288   7.798
  993POPC   C1B15643  34.433  38.713   8.721
  993POPC   C2B15644  34.532  38.688   8.270
  993POPC   C3B15645  34.532  38.724   7.793
  993POPC   C4B15646  34.407  38.783   7.339
  994POPC   NC315647  19.785  27.583   9.590
  994POPC   PO415648  19.195  27.948   9.574
  994POPC   GL115649  19.410  27.906   9.154
  994POPC   GL215650  19.781  27.912   9.190
  994POPC   C1A15651  19.579  27.863   8.714
  994POPC   D2A15652  19.788  27.633   8.365
  994POPC   C3A15653  19.568  27.558   7.974
  994POPC   C4A15654  19.703  27.737   7.595
  994POPC   C1B15655  20.021  28.093   8.825
  994POPC   C2B15656  20.202  27.967   8.412
  994POPC   C3B15657  20.173  27.794   7.993
  994POPC   C4B15658  20.023  27.395   7.800
  995POPC   NC315659   2.763   0.761   9.580
  995POPC   PO415660   2.467   0.117   9.424
  995POPC   GL115661   2.498   0.496   9.206
  995POPC   GL215662   2.838   0.464   9.172
  995POPC   C1A15663   2.571   0.662   8.781
  995POPC   D2A15664   2.663   0.487   8.383
  995POPC   C3A15665   2.614   0.682   7.990
  995POPC   C4A15666   2.425   0.520   7.598
  995POPC   C1B15667   2.790   0.195   8.816
  995POPC   C2B15668   3.071   0.190   8.440
  995POPC   C3B15669   2.947   0.173   8.006
  995POPC   C4B15670   2.953   0.441   7.666
  996POPC   NC315671  11.695   9.242   9.493
  996POPC   PO415672  12.054   9.775   9.500
  996POPC   GL115673  12.255   9.846   9.119
  996POPC   GL215674  12.317  10.215   9.182
  996POPC   C1A15675  12.036   9.630   8.784
  996POPC   D2A15676  12.048   9.374   8.422
  996POPC   C3A15677  12.071   9.610   8.041
  996POPC   C4A15678  12.308   9.910   7.768
  996POPC   C1B15679  12.060  10.180   8.782
  996POPC   C2B15680  11.937   9.986   8.370
  996POPC   C3B15681  11.878  10.146   7.926
  996POPC   C4B15682  11.638  10.174   7.516
  997POPC   NC315683  13.866  22.701   9.264
  997POPC   PO415684  13.525  23.360   9.453
  997POPC   GL115685  13.751  23.226   9.112
  997POPC   GL215686  13.420  23.076   9.008
  997POPC   C1A15687  13.883  23.098   8.698
  997POPC   D2A15688  13.681  22.979   8.326
  997POPC   C3A15689  13.823  22.861   7.917
  997POPC   C4A15690  14.065  23.146   7.639
  997POPC   C1B15691  13.331  22.653   8.854
  997POPC   C2B15692  13.497  22.523   8.484
  997POPC   C3B15693  13.330  22.682   8.120
  997POPC   C4B15694  13.331  22.966   7.770
  998POPC   NC315695  32.159  32.001   9.669
  998POPC   PO415696  31.652  32.335   9.316
  998POPC   GL115697  32.137  32.389   9.273
  998POPC   GL215698  32.332  32.064   9.177
  998POPC   C1A15699  32.341  32.522   8.866
  998POPC   D2A15700  32.537  32.429   8.424
  998POPC   C3A15701  32.463  32.396   7.926
  998POPC   C4A15702  32.447  32.501   7.439
  998POPC   C1B15703  32.561  32.026   8.758
  998POPC   C2B15704  32.375  31.972   8.305
  998POPC   C3B15705  32.210  31.963   7.849
  998POPC   C4B15706  32.389  31.966   7.417
  999POPC   NC315707   8.153   6.347   9.390
  999POPC   PO415708   8.365   7.013   9.420
  999POPC   GL115709   8.302   6.737   9.106
  999POPC   GL215710   8.005   6.767   9.117
  999POPC   C1A15711   8.234   6.456   8.725
  999POPC   D2A15712   8.435   6.174   8.402
  999POPC   C3A15713   8.465   6.465   8.087
  999POPC   C4A15714   8.267   6.577   7.717
  999POPC   C1B15715   7.840   6.981   8.807
  999POPC   C2B15716   7.858   6.730   8.471
  999POPC   C3B15717   7.944   6.760   8.059
  999POPC   C4B15718   7.770   6.763   7.682
 1000POPC   NC315719  38.099  28.905   9.526
 1000POPC   PO415720  37.518  29.392   9.482
 1000POPC   GL115721  37.702  29.074   9.240
 1000POPC   GL215722  37.444  28.875   9.046
 1000POPC   C1A15723  37.915  28.898   8.853
 1000POPC   D2A15724  37.634  28.828   8.480
 1000POPC   C3A15725  37.787  28.962   8.082
 1000POPC   C4A15726  37.734  29.327   7.841
 1000POPC   C1B15727  37.600  29.290   8.808
 1000POPC   C2B15728  37.588  29.398   8.388
 1000POPC   C3B15729  37.320  29.176   8.138
 1000POPC   C4B15730  37.321  29.014   7.771
 1001POPC   NC315731  26.295  35.403   9.390
 1001POPC   PO415732  25.596  35.189   9.433
 1001POPC   GL115733  25.805  35.485   9.153
 1001POPC   GL215734  25.988  35.211   9.007
 1001POPC   C1A15735  25.959  35.656   8.728
 1001POPC   D2A15736  26.094  35.573   8.286
 1001POPC   C3A15737  25.970  35.166   8.075
 1001POPC   C4A15738  25.783  35.161   7.659
 1001POPC   C1B15739  26.349  35.326   8.742
 1001POPC   C2B15740  26.434  35.155   8.366
 1001POPC   C3B15741  26.427  34.903   8.058
 1001POPC   C4B15742  26.389  35.161   7.728
 1002POPC   NC315743  11.864  10.949   9.463
 1002POPC   PO415744  12.431  11.220   9.322
 1002POPC   GL115745  12.034  11.269   9.106
 1002POPC   GL215746  11.826  11.585   9.050
 1002POPC   C1A15747  12.130  11.196   8.711
 1002POPC   D2A15748  12.356  11.408   8.408
 1002POPC   C3A15749  12.082  11.255   8.131
 1002POPC   C4A15750  11.963  11.088   7.787
 1002POPC   C1B15751  11.975  11.682   8.656
 1002POPC   C2B15752  11.770  11.649   8.260
 1002POPC   C3B15753  11.807  11.616   7.843
 1002POPC   C4B15754  12.268  11.592   7.795
 1003POPC   NC315755  16.702  13.140   9.714
 1003POPC   PO415756  16.456  13.723   9.647
 1003POPC   GL115757  16.566  13.444   9.292
 1003POPC   GL215758  16.939  13.404   9.333
 1003POPC   C1A15759  16.492  13.521   8.840
 1003POPC   D2A15760  16.353  13.347   8.430
 1003POPC   C3A15761  16.522  13.485   8.043
 1003POPC   C4A15762  16.729  13.778   7.832
 1003POPC   C1B15763  17.007  13.285   8.915
 1003POPC   C2B15764  16.889  13.445   8.513
 1003POPC   C3B15765  17.041  13.448   8.120
 1003POPC   C4B15766  16.914  13.257   7.759
 1004POPC   NC315767  32.144  28.938   9.528
 1004POPC   PO415768  32.734  28.781   9.442
 1004POPC   GL115769  32.446  29.032   9.157
 1004POPC   GL215770  32.396  29.367   9.347
 1004POPC   C1A15771  32.149  29.042   8.790
 1004POPC   D2A15772  32.365  28.950   8.389
 1004POPC   C3A15773  32.185  28.947   7.960
 1004POPC   C4A15774  32.349  28.949   7.504
 1004POPC   C1B15775  32.378  29.493   8.932
 1004POPC   C2B15776  32.143  29.514   8.553
 1004POPC   C3B15777  32.297  29.396   8.168
 1004POPC   C4B15778  32.258  29.390   7.724
 1005POPC   NC315779   1.387  27.231   9.576
 1005POPC   PO415780   1.047  27.874   9.436
 1005POPC   GL115781   1.145  27.632   9.104
 1005POPC   GL215782   1.382  27.404   9.118
 1005POPC   C1A15783   1.188  27.671   8.666
 1005POPC   D2A15784   1.223  27.514   8.257
 1005POPC   C3A15785   1.272  27.758   7.914
 1005POPC   C4A15786   1.050  27.704   7.551
 1005POPC   C1B15787   1.564  27.320   8.710
 1005POPC   C2B15788   1.732  27.568   8.352
 1005POPC   C3B15789   1.656  27.445   7.939
 1005POPC   C4B15790   1.513  27.496   7.507
 1006POPC   NC315791  18.389  16.261   9.554
 1006POPC   PO415792  18.028  15.661   9.616
 1006POPC   GL115793  18.232  15.892   9.245
 1006POPC   GL215794  18.582  15.780   9.174
 1006POPC   C1A15795  18.166  15.871   8.789
 1006POPC   D2A15796  18.292  15.737   8.355
 1006POPC   C3A15797  18.073  15.972   8.013
 1006POPC   C4A15798  18.205  15.801   7.616
 1006POPC   C1B15799  18.651  16.010   8.825
 1006POPC   C2B15800  18.447  16.203   8.474
 1006POPC   C3B15801  18.563  16.095   8.066
 1006POPC   C4B15802  18.511  16.239   7.653
 1007POPC   NC315803  31.417  26.487   9.441
 1007POPC   PO415804  31.662  27.060   9.549
 1007POPC   GL115805  31.705  26.813   9.200
 1007POPC   GL215806  31.361  26.878   9.105
 1007POPC   C1A15807  31.655  26.571   8.823
 1007POPC   D2A15808  31.528  26.730   8.446
 1007POPC   C3A15809  31.773  26.791   8.106
 1007POPC   C4A15810  31.780  26.584   7.745
 1007POPC   C1B15811  31.193  27.017   8.699
 1007POPC   C2B15812  31.048  26.807   8.303
 1007POPC   C3B15813  31.295  26.569   8.029
 1007POPC   C4B15814  31.358  26.967   7.865
 1008POPC   NC315815  21.594  34.665   9.499
 1008POPC   PO415816  20.999  34.378   9.252
 1008POPC   GL115817  21.409  34.378   9.103
 1008POPC   GL215818  21.471  34.742   9.019
 1008POPC   C1A15819  21.475  34.357   8.651
 1008POPC   D2A15820  21.702  34.506   8.280
 1008POPC   C3A15821  21.467  34.399   7.910
 1008POPC   C4A15822  20.986  34.376   7.861
 1008POPC   C1B15823  21.257  34.980   8.694
 1008POPC   C2B15824  21.037  35.108   8.312
 1008POPC   C3B15825  21.206  34.859   7.966
 1008POPC   C4B15826  21.641  34.912   7.822
 1009POPC   NC315827   1.652  31.990   9.813
 1009POPC   PO415828   1.954  32.520   9.373
 1009POPC   GL115829   1.687  32.487   8.993
 1009POPC   GL215830   1.923  32.243   8.883
 1009POPC   C1A15831   1.637  32.439   8.534
 1009POPC   D2A15832   1.995  32.265   8.339
 1009POPC   C3A15833   1.965  32.466   7.972
 1009POPC   C4A15834   1.606  32.679   7.746
 1009POPC   C1B15835   2.040  31.887   8.698
 1009POPC   C2B15836   2.095  31.743   8.328
 1009POPC   C3B15837   1.944  31.918   7.957
 1009POPC   C4B15838   2.146  31.725   7.681
 1010POPC   NC315839  13.163  19.012   9.437
 1010POPC   PO415840  12.747  19.567   9.487
 1010POPC   GL115841  12.860  19.333   9.144
 1010POPC   GL215842  12.761  18.986   9.123
 1010POPC   C1A15843  12.973  19.426   8.754
 1010POPC   D2A15844  12.909  19.569   8.346
 1010POPC   C3A15845  13.046  19.337   8.020
 1010POPC   C4A15846  12.756  19.221   7.700
 1010POPC   C1B15847  13.019  18.913   8.774
 1010POPC   C2B15848  12.856  19.035   8.403
 1010POPC   C3B15849  12.721  18.847   8.039
 1010POPC   C4B15850  13.093  18.869   7.817
 1011POPC   NC315851  39.641  30.240   9.425
 1011POPC   PO415852  38.986  30.014   9.645
 1011POPC   GL115853  39.176  30.020   9.226
 1011POPC   GL215854  38.965  29.755   9.093
 1011POPC   C1A15855  39.322  29.984   8.784
 1011POPC   D2A15856  39.157  30.141   8.371
 1011POPC   C3A15857  39.296  30.225   7.937
 1011POPC   C4A15858  39.033  30.332   7.559
 1011POPC   C1B15859  38.862  29.767   8.624
 1011POPC   C2B15860  38.850  29.721   8.159
 1011POPC   C3B15861  39.069  29.802   7.780
 1011POPC   C4B15862  39.505  29.716   7.794
 1012POPC   NC315863  22.346  34.542   9.600
 1012POPC   PO415864  21.731  34.200   9.537
 1012POPC   GL115865  21.958  34.492   9.199
 1012POPC   GL215866  22.277  34.705   9.130
 1012POPC   C1A15867  21.903  34.586   8.770
 1012POPC   D2A15868  21.994  34.164   8.558
 1012POPC   C3A15869  22.049  34.146   8.113
 1012POPC   C4A15870  22.010  34.550   7.872
 1012POPC   C1B15871  22.379  34.458   8.767
 1012POPC   C2B15872  22.246  34.601   8.341
 1012POPC   C3B15873  22.431  34.836   7.963
 1012POPC   C4B15874  22.450  34.674   7.505
 1013POPC   NC315875   6.037  43.685   9.380
 1013POPC   PO415876   6.327  44.263   9.555
 1013POPC   GL115877   6.057  44.190   9.167
 1013POPC   GL215878   5.785  43.939   9.027
 1013POPC   C1A15879   6.125  44.152   8.740
 1013POPC   D2A15880   5.889  43.917   8.431
 1013POPC   C3A15881   6.129  43.731   8.100
 1013POPC   C4A15882   6.025  43.852   7.698
 1013POPC   C1B15883   5.472  43.795   8.745
 1013POPC   C2B15884   5.400  43.695   8.319
 1013POPC   C3B15885   5.554  43.882   7.941
 1013POPC   C4B15886   5.568  43.829   7.474
 1014POPC   NC315887  16.089  41.901   9.406
 1014POPC   PO415888  16.033  42.596   9.459
 1014POPC   GL115889  15.930  42.320   9.126
 1014POPC   GL215890  15.661  42.057   9.160
 1014POPC   C1A15891  16.112  42.169   8.749
 1014POPC   D2A15892  16.300  42.207   8.352
 1014POPC   C3A15893  16.192  42.612   8.202
 1014POPC   C4A15894  16.038  42.663   7.784
 1014POPC   C1B15895  15.584  42.180   8.765
 1014POPC   C2B15896  15.442  42.288   8.390
 1014POPC   C3B15897  15.733  42.425   8.116
 1014POPC   C4B15898  15.953  42.169   7.799
 1015POPC   NC315899   7.277  41.375   9.528
 1015POPC   PO415900   7.322  41.980   9.469
 1015POPC   GL115901   7.140  41.742   9.170
 1015POPC   GL215902   7.432  41.522   9.078
 1015POPC   C1A15903   7.026  41.559   8.785
 1015POPC   D2A15904   7.230  41.425   8.424
 1015POPC   C3A15905   7.139  41.656   8.076
 1015POPC   C4A15906   7.270  41.547   7.686
 1015POPC   C1B15907   7.604  41.279   8.745
 1015POPC   C2B15908   7.766  41.443   8.360
 1015POPC   C3B15909   7.701  41.347   7.925
 1015POPC   C4B15910   7.626  41.234   7.500
 1016POPC   NC315911  12.671  10.840   9.458
 1016POPC   PO415912  12.965  10.118   9.567
 1016POPC   GL115913  12.893  10.432   9.215
 1016POPC   GL215914  12.971  10.780   9.041
 1016POPC   C1A15915  12.623  10.458   8.850
 1016POPC   D2A15916  12.469  10.311   8.446
 1016POPC   C3A15917  12.626  10.499   8.060
 1016POPC   C4A15918  12.663  10.292   7.677
 1016POPC   C1B15919  12.646  10.963   8.745
 1016POPC   C2B15920  12.445  10.914   8.314
 1016POPC   C3B15921  12.486  10.986   7.842
 1016POPC   C4B15922  12.663  10.793   7.450
 1017POPC   NC315923  15.510  23.432   9.471
 1017POPC   PO415924  15.094  23.992   9.641
 1017POPC   GL115925  15.103  23.712   9.286
 1017POPC   GL215926  14.813  23.505   9.256
 1017POPC   C1A15927  15.243  23.696   8.855
 1017POPC   D2A15928  15.451  23.850   8.470
 1017POPC   C3A15929  15.299  23.752   8.040
 1017POPC   C4A15930  15.327  23.511   7.635
 1017POPC   C1B15931  14.737  23.605   8.823
 1017POPC   C2B15932  14.979  23.584   8.423
 1017POPC   C3B15933  14.854  23.522   7.986
 1017POPC   C4B15934  14.902  23.776   7.620
 1018POPC   NC315935  32.003  42.687   9.467
 1018POPC   PO415936  32.096  42.049   9.426
 1018POPC   GL115937  32.193  42.362   9.077
 1018POPC   GL215938  31.961  42.635   8.975
 1018POPC   C1A15939  32.354  42.579   8.695
 1018POPC   D2A15940  32.339  42.296   8.385
 1018POPC   C3A15941  32.400  42.334   7.988
 1018POPC   C4A15942  32.629  42.431   7.655
 1018POPC   C1B15943  31.897  42.280   8.648
 1018POPC   C2B15944  31.913  42.150   8.176
 1018POPC   C3B15945  31.990  42.156   7.758
 1018POPC   C4B15946  32.145  42.511   7.515
 1019POPC   NC315947  16.733  17.133   9.717
 1019POPC   PO415948  16.870  17.752   9.651
 1019POPC   GL115949  16.631  17.696   9.239
 1019POPC   GL215950  16.876  17.812   9.022
 1019POPC   C1A15951  16.485  17.629   8.763
 1019POPC   D2A15952  16.790  17.585   8.419
 1019POPC   C3A15953  16.650  17.627   7.980
 1019POPC   C4A15954  16.779  17.582   7.561
 1019POPC   C1B15955  16.841  17.306   8.893
 1019POPC   C2B15956  17.087  17.148   8.492
 1019POPC   C3B15957  17.048  17.267   8.051
 1019POPC   C4B15958  16.918  17.096   7.649
 1020POPC   NC315959   7.687  12.878   9.466
 1020POPC   PO415960   7.077  12.643   9.574
 1020POPC   GL115961   7.215  12.956   9.214
 1020POPC   GL215962   7.398  12.720   9.058
 1020POPC   C1A15963   7.297  13.097   8.746
 1020POPC   D2A15964   7.289  12.793   8.395
 1020POPC   C3A15965   7.363  12.872   7.939
 1020POPC   C4A15966   7.225  13.031   7.513
 1020POPC   C1B15967   7.681  12.654   8.727
 1020POPC   C2B15968   7.805  12.775   8.307
 1020POPC   C3B15969   7.749  12.545   7.927
 1020POPC   C4B15970   7.990  12.432   7.581
 1021POPC   NC315971  22.418   5.690   9.856
 1021POPC   PO415972  21.943   6.142   9.708
 1021POPC   GL115973  22.205   5.964   9.347
 1021POPC   GL215974  22.351   5.633   9.322
 1021POPC   C1A15975  22.309   6.031   8.901
 1021POPC   D2A15976  22.151   6.041   8.467
 1021POPC   C3A15977  22.419   6.089   8.123
 1021POPC   C4A15978  22.461   5.984   7.692
 1021POPC   C1B15979  22.061   5.576   8.980
 1021POPC   C2B15980  22.120   5.548   8.538
 1021POPC   C3B15981  22.091   5.667   8.102
 1021POPC   C4B15982  22.267   5.510   7.707
 1022POPC   NC315983  16.323  29.813   9.644
 1022POPC   PO415984  16.959  30.083   9.593
 1022POPC   GL115985  16.926  30.083   9.235
 1022POPC   GL215986  16.664  29.835   9.212
 1022POPC   C1A15987  17.025  30.160   8.858
 1022POPC   D2A15988  16.945  29.909   8.526
 1022POPC   C3A15989  17.128  30.079   8.187
 1022POPC   C4A15990  16.929  30.120   7.858
 1022POPC   C1B15991  16.529  30.176   8.929
 1022POPC   C2B15992  16.443  30.044   8.531
 1022POPC   C3B15993  16.575  29.911   8.140
 1022POPC   C4B15994  16.417  30.188   7.788
 1023POPC   NC315995  24.099  21.739   9.532
 1023POPC   PO415996  24.113  21.031   9.609
 1023POPC   GL115997  24.400  21.341   9.332
 1023POPC   GL215998  24.276  21.589   9.100
 1023POPC   C1A15999  24.729  21.327   8.970
 1023POPC   D2A16000  24.904  21.253   8.536
 1023POPC   C3A16001  24.684  21.148   8.134
 1023POPC   C4A16002  24.752  21.329   7.710
 1023POPC   C1B16003  24.265  21.315   8.776
 1023POPC   C2B16004  24.219  21.136   8.389
 1023POPC   C3B16005  24.226  21.411   8.086
 1023POPC   C4B16006  24.113  21.461   7.703
 1024POPC   NC316007  33.507  30.050   9.548
 1024POPC   PO416008  34.075  29.689   9.494
 1024POPC   GL116009  33.832  29.746   9.126
 1024POPC   GL216010  33.675  30.072   9.077
 1024POPC   C1A16011  33.940  29.881   8.699
 1024POPC   D2A16012  33.652  29.998   8.381
 1024POPC   C3A16013  33.825  30.148   8.025
 1024POPC   C4A16014  33.976  29.903   7.691
 1024POPC   C1B16015  33.532  30.337   8.743
 1024POPC   C2B16016  33.369  30.429   8.345
 1024POPC   C3B16017  33.333  30.309   7.934
 1024POPC   C4B16018  33.468  29.904   7.733
 1025POPC   NC316019  25.850  43.550   9.622
 1025POPC   PO416020  26.152  44.152   9.576
 1025POPC   GL116021  26.141  44.006   9.174
 1025POPC   GL216022  25.952  43.709   9.163
 1025POPC   C1A16023  26.125  44.022   8.738
 1025POPC   D2A16024  26.346  43.742   8.468
 1025POPC   C3A16025  26.235  43.796   8.029
 1025POPC   C4A16026  25.981  44.017   7.715
 1025POPC   C1B16027  26.007  43.530   8.800
 1025POPC   C2B16028  25.859  43.647   8.419
 1025POPC   C3B16029  25.708  43.712   8.035
 1025POPC   C4B16030  25.913  43.489   7.735
 1026POPC   NC316031  18.671   9.481   9.428
 1026POPC   PO416032  19.362   9.634   9.613
 1026POPC   GL116033  19.222   9.797   9.213
 1026POPC   GL216034  18.849   9.872   9.162
 1026POPC   C1A16035  19.192   9.708   8.805
 1026POPC   D2A16036  19.425   9.783   8.463
 1026POPC   C3A16037  19.238   9.600   8.114
 1026POPC   C4A16038  18.939   9.591   7.808
 1026POPC   C1B16039  18.819  10.050   8.735
 1026POPC   C2B16040  18.976  10.042   8.306
 1026POPC   C3B16041  18.752  10.043   7.912
 1026POPC   C4B16042  18.584   9.863   7.538
 1027POPC   NC316043  38.208  20.840   9.421
 1027POPC   PO416044  38.829  20.452   9.586
 1027POPC   GL116045  38.679  20.649   9.246
 1027POPC   GL216046  38.504  20.344   9.155
 1027POPC   C1A16047  38.569  20.717   8.810
 1027POPC   D2A16048  38.582  20.511   8.408
 1027POPC   C3A16049  38.487  20.842   8.127
 1027POPC   C4A16050  38.832  21.001   7.859
 1027POPC   C1B16051  38.308  20.242   8.752
 1027POPC   C2B16052  38.124  20.331   8.301
 1027POPC   C3B16053  38.267  20.327   7.868
 1027POPC   C4B16054  38.201  20.258   7.427
 1028POPC   NC316055  29.350  36.925   9.565
 1028POPC   PO416056  28.798  36.554   9.446
 1028POPC   GL116057  29.042  36.833   9.157
 1028POPC   GL216058  29.385  36.678   9.117
 1028POPC   C1A16059  28.962  36.986   8.745
 1028POPC   D2A16060  28.786  36.894   8.340
 1028POPC   C3A16061  29.015  36.958   7.926
 1028POPC   C4A16062  28.809  37.115   7.526
 1028POPC   C1B16063  29.347  36.642   8.687
 1028POPC   C2B16064  29.166  36.551   8.280
 1028POPC   C3B16065  29.396  36.572   7.907
 1028POPC   C4B16066  29.636  36.759   7.578
 1029POPC   NC316067  25.386  23.810   9.740
 1029POPC   PO416068  24.879  23.443   9.467
 1029POPC   GL116069  25.142  23.794   9.201
 1029POPC   GL216070  24.963  24.062   9.030
 1029POPC   C1A16071  25.398  23.813   8.833
 1029POPC   D2A16072  25.577  23.633   8.459
 1029POPC   C3A16073  25.411  23.714   8.046
 1029POPC   C4A16074  25.494  24.031   7.749
 1029POPC   C1B16075  24.896  23.659   8.789
 1029POPC   C2B16076  25.068  23.680   8.419
 1029POPC   C3B16077  24.854  23.662   8.058
 1029POPC   C4B16078  25.022  23.817   7.712
 1030POPC   NC316079  24.648  34.040   9.377
 1030POPC   PO416080  24.276  33.562   9.651
 1030POPC   GL116081  24.407  33.467   9.231
 1030POPC   GL216082  24.750  33.602   9.116
 1030POPC   C1A16083  24.308  33.694   8.834
 1030POPC   D2A16084  24.344  33.967   8.445
 1030POPC   C3A16085  24.241  33.764   8.035
 1030POPC   C4A16086  24.547  33.577   7.751
 1030POPC   C1B16087  24.781  33.923   8.750
 1030POPC   C2B16088  24.849  34.165   8.370
 1030POPC   C3B16089  25.043  34.087   7.996
 1030POPC   C4B16090  24.959  34.001   7.561
 1031POPC   NC316091  28.491  12.069   9.559
 1031POPC   PO416092  28.662  12.644   9.376
 1031POPC   GL116093  28.494  12.294   9.096
 1031POPC   GL216094  28.163  12.050   9.175
 1031POPC   C1A16095  28.490  12.355   8.649
 1031POPC   D2A16096  28.284  12.316   8.263
 1031POPC   C3A16097  28.538  12.007   8.116
 1031POPC   C4A16098  28.647  11.698   7.832
 1031POPC   C1B16099  28.141  11.989   8.740
 1031POPC   C2B16100  28.129  11.806   8.322
 1031POPC   C3B16101  28.092  11.968   7.886
 1031POPC   C4B16102  27.962  12.197   7.511
 1032POPC   NC316103  37.299  43.029   9.506
 1032POPC   PO416104  36.633  43.162   9.475
 1032POPC   GL116105  36.799  42.954   9.154
 1032POPC   GL216106  37.071  43.191   9.083
 1032POPC   C1A16107  36.943  42.814   8.757
 1032POPC   D2A16108  37.206  43.005   8.457
 1032POPC   C3A16109  37.121  42.851   8.057
 1032POPC   C4A16110  36.873  42.994   7.744
 1032POPC   C1B16111  37.308  43.460   8.831
 1032POPC   C2B16112  37.224  43.553   8.425
 1032POPC   C3B16113  37.131  43.359   8.070
 1032POPC   C4B16114  37.233  43.393   7.657
 1033POPC   NC316115  26.478   2.642   9.266
 1033POPC   PO416116  25.860   2.397   9.345
 1033POPC   GL116117  25.952   2.635   9.060
 1033POPC   GL216118  25.875   2.943   9.201
 1033POPC   C1A16119  26.105   2.555   8.655
 1033POPC   D2A16120  26.201   2.267   8.342
 1033POPC   C3A16121  26.058   2.531   8.037
 1033POPC   C4A16122  25.962   2.576   7.615
 1033POPC   C1B16123  26.071   3.052   8.795
 1033POPC   C2B16124  25.984   3.059   8.377
 1033POPC   C3B16125  26.203   3.172   8.032
 1033POPC   C4B16126  26.097   3.084   7.640
 1034POPC   NC316127   7.314  40.755   9.566
 1034POPC   PO416128   7.730  41.328   9.521
 1034POPC   GL116129   7.618  41.019   9.210
 1034POPC   GL216130   7.288  41.040   9.146
 1034POPC   C1A16131   7.549  40.760   8.822
 1034POPC   D2A16132   7.768  40.718   8.461
 1034POPC   C3A16133   7.579  40.644   8.090
 1034POPC   C4A16134   7.497  40.306   7.824
 1034POPC   C1B16135   7.098  41.035   8.765
 1034POPC   C2B16136   7.191  40.903   8.344
 1034POPC   C3B16137   7.091  41.149   7.965
 1034POPC   C4B16138   7.134  41.099   7.495
 1035POPC   NC316139  15.316  25.229   9.433
 1035POPC   PO416140  14.762  25.561   9.431
 1035POPC   GL116141  15.011  25.420   9.093
 1035POPC   GL216142  15.357  25.601   9.102
 1035POPC   C1A16143  15.192  25.296   8.713
 1035POPC   D2A16144  15.285  25.095   8.340
 1035POPC   C3A16145  15.161  25.343   7.976
 1035POPC   C4A16146  15.215  25.079   7.636
 1035POPC   C1B16147  15.626  25.539   8.762
 1035POPC   C2B16148  15.503  25.547   8.346
 1035POPC   C3B16149  15.642  25.416   7.948
 1035POPC   C4B16150  15.549  25.452   7.499
 1036POPC   NC316151  41.352  16.085   9.634
 1036POPC   PO416152  41.845  15.650   9.654
 1036POPC   GL116153  41.812  15.968   9.262
 1036POPC   GL216154  41.535  16.229   9.181
 1036POPC   C1A16155  41.676  15.953   8.798
 1036POPC   D2A16156  41.645  15.644   8.479
 1036POPC   C3A16157  41.568  15.805   8.089
 1036POPC   C4A16158  41.699  15.652   7.654
 1036POPC   C1B16159  41.389  16.403   8.773
 1036POPC   C2B16160  41.603  16.276   8.388
 1036POPC   C3B16161  41.775  16.304   7.982
 1036POPC   C4B16162  41.487  16.120   7.701
 1037POPC   NC316163   5.454  35.514   9.364
 1037POPC   PO416164   4.840  35.427   9.635
 1037POPC   GL116165   4.978  35.496   9.196
 1037POPC   GL216166   5.120  35.154   9.184
 1037POPC   C1A16167   5.093  35.412   8.735
 1037POPC   D2A16168   5.134  35.542   8.303
 1037POPC   C3A16169   4.869  35.351   7.969
 1037POPC   C4A16170   5.018  35.278   7.524
 1037POPC   C1B16171   5.304  34.932   8.825
 1037POPC   C2B16172   5.213  35.007   8.396
 1037POPC   C3B16173   5.340  35.152   8.003
 1037POPC   C4B16174   5.448  35.001   7.615
 1038POPC   NC316175   3.732  17.282   9.785
 1038POPC   PO416176   3.624  17.865   9.363
 1038POPC   GL116177   3.793  17.426   9.209
 1038POPC   GL216178   3.607  17.092   9.181
 1038POPC   C1A16179   3.855  17.325   8.762
 1038POPC   D2A16180   3.664  17.568   8.397
 1038POPC   C3A16181   3.788  17.569   7.943
 1038POPC   C4A16182   3.669  17.725   7.492
 1038POPC   C1B16183   3.367  17.383   8.892
 1038POPC   C2B16184   3.178  17.334   8.494
 1038POPC   C3B16185   3.343  17.307   8.092
 1038POPC   C4B16186   3.307  17.609   7.825
 1039POPC   NC316187   0.220   2.052   9.522
 1039POPC   PO416188   0.899   2.224   9.638
 1039POPC   GL116189   0.813   2.008   9.221
 1039POPC   GL216190   0.504   1.813   9.179
 1039POPC   C1A16191   0.637   2.123   8.788
 1039POPC   D2A16192   0.398   2.341   8.459
 1039POPC   C3A16193   0.595   2.363   8.040
 1039POPC   C4A16194   0.756   2.029   7.755
 1039POPC   C1B16195   0.205   1.815   8.834
 1039POPC   C2B16196   0.362   1.763   8.421
 1039POPC   C3B16197   0.321   1.934   8.025
 1039POPC   C4B16198  44.988   1.952   7.691
 1040POPC   NC316199  29.086   2.803   9.539
 1040POPC   PO416200  29.234   2.158   9.542
 1040POPC   GL116201  29.168   2.483   9.127
 1040POPC   GL216202  29.233   2.867   9.062
 1040POPC   C1A16203  29.063   2.571   8.681
 1040POPC   D2A16204  29.040   2.778   8.276
 1040POPC   C3A16205  29.192   2.597   7.881
 1040POPC   C4A16206  29.080   2.721   7.441
 1040POPC   C1B16207  29.132   3.086   8.728
 1040POPC   C2B16208  29.385   3.157   8.399
 1040POPC   C3B16209  29.556   2.924   8.090
 1040POPC   C4B16210  29.396   3.051   7.709
 1041POPC   NC316211   7.687  22.025   9.711
 1041POPC   PO416212   7.309  22.554   9.707
 1041POPC   GL116213   7.235  22.207   9.352
 1041POPC   GL216214   7.522  22.024   9.224
 1041POPC   C1A16215   7.240  22.215   8.872
 1041POPC   D2A16216   7.228  22.373   8.436
 1041POPC   C3A16217   7.330  22.188   8.097
 1041POPC   C4A16218   7.162  22.345   7.739
 1041POPC   C1B16219   7.722  22.028   8.808
 1041POPC   C2B16220   7.754  22.204   8.424
 1041POPC   C3B16221   7.831  22.063   8.035
 1041POPC   C4B16222   7.655  22.206   7.697
 1042POPC   NC316223  41.246  34.227   9.302
 1042POPC   PO416224  41.680  33.827   9.538
 1042POPC   GL116225  41.503  33.728   9.162
 1042POPC   GL216226  41.619  34.005   9.027
 1042POPC   C1A16227  41.499  33.515   8.781
 1042POPC   D2A16228  41.314  33.560   8.391
 1042POPC   C3A16229  41.570  33.777   8.127
 1042POPC   C4A16230  41.611  33.650   7.718
 1042POPC   C1B16231  41.679  33.997   8.603
 1042POPC   C2B16232  41.440  34.234   8.368
 1042POPC   C3B16233  41.311  34.322   7.991
 1042POPC   C4B16234  41.342  34.138   7.595
 1043POPC   NC316235   5.509  42.924   9.757
 1043POPC   PO416236   6.014  43.207   9.457
 1043POPC   GL116237   5.885  43.169   9.102
 1043POPC   GL216238   5.634  43.434   9.130
 1043POPC   C1A16239   5.922  42.918   8.729
 1043POPC   D2A16240   5.770  42.648   8.407
 1043POPC   C3A16241   5.813  42.864   8.014
 1043POPC   C4A16242   5.489  42.982   7.747
 1043POPC   C1B16243   5.874  43.473   8.714
 1043POPC   C2B16244   5.798  43.353   8.286
 1043POPC   C3B16245   5.746  43.417   7.850
 1043POPC   C4B16246   6.008  43.413   7.479
 1044POPC   NC316247  15.022  33.260   9.424
 1044POPC   PO416248  15.002  32.607   9.564
 1044POPC   GL116249  15.176  32.851   9.129
 1044POPC   GL216250  15.273  33.247   8.994
 1044POPC   C1A16251  15.100  32.897   8.669
 1044POPC   D2A16252  15.299  33.028   8.307
 1044POPC   C3A16253  15.212  32.773   7.977
 1044POPC   C4A16254  14.981  32.847   7.635
 1044POPC   C1B16255  14.854  33.339   8.787
 1044POPC   C2B16256  14.765  33.194   8.382
 1044POPC   C3B16257  14.876  33.241   7.945
 1044POPC   C4B16258  14.921  33.309   7.452
 1045POPC   NC316259   6.488  13.983   9.588
 1045POPC   PO416260   7.036  14.283   9.519
 1045POPC   GL116261   6.765  14.262   9.174
 1045POPC   GL216262   6.414  14.360   9.203
 1045POPC   C1A16263   6.935  14.280   8.772
 1045POPC   D2A16264   7.046  14.049   8.451
 1045POPC   C3A16265   6.927  14.282   8.092
 1045POPC   C4A16266   6.809  14.420   7.703
 1045POPC   C1B16267   6.302  14.252   8.768
 1045POPC   C2B16268   6.529  14.174   8.396
 1045POPC   C3B16269   6.430  14.175   7.948
 1045POPC   C4B16270   6.295  14.470   7.606
 1046POPC   NC316271  10.768  21.794   9.472
 1046POPC   PO416272  10.423  22.325   9.680
 1046POPC   GL116273  10.524  22.191   9.203
 1046POPC   GL216274  10.687  22.520   9.150
 1046POPC   C1A16275  10.440  21.949   8.757
 1046POPC   D2A16276  10.514  21.767   8.286
 1046POPC   C3A16277  10.328  21.977   7.858
 1046POPC   C4A16278  10.475  21.976   7.389
 1046POPC   C1B16279  10.585  22.457   8.727
 1046POPC   C2B16280  10.511  22.265   8.333
 1046POPC   C3B16281  10.767  22.165   7.979
 1046POPC   C4B16282  10.645  22.413   7.580
 1047POPC   NC316283  21.188  33.162   9.540
 1047POPC   PO416284  21.570  32.627   9.528
 1047POPC   GL116285  21.307  32.789   9.210
 1047POPC   GL216286  21.566  33.066   9.163
 1047POPC   C1A16287  21.167  32.956   8.821
 1047POPC   D2A16288  21.295  32.962   8.424
 1047POPC   C3A16289  21.013  33.038   8.099
 1047POPC   C4A16290  21.142  32.831   7.742
 1047POPC   C1B16291  21.663  32.759   8.842
 1047POPC   C2B16292  21.795  32.860   8.431
 1047POPC   C3B16293  21.732  32.668   8.045
 1047POPC   C4B16294  21.808  32.756   7.622
 1048POPC   NC316295   0.500  13.326   9.409
 1048POPC   PO416296   0.351  12.648   9.515
 1048POPC   GL116297   0.546  12.855   9.143
 1048POPC   GL216298   0.853  13.049   9.143
 1048POPC   C1A16299   0.494  13.102   8.753
 1048POPC   D2A16300   0.648  13.217   8.335
 1048POPC   C3A16301   0.367  13.032   7.993
 1048POPC   C4A16302   0.256  12.993   7.544
 1048POPC   C1B16303   0.992  13.010   8.720
 1048POPC   C2B16304   0.841  12.716   8.426
 1048POPC   C3B16305   0.706  12.638   7.992
 1048POPC   C4B16306   0.788  12.979   7.696
 1049POPC   NC316307  22.184  10.974   9.297
 1049POPC   PO416308  21.964  10.403   9.472
 1049POPC   GL116309  21.819  10.694   9.126
 1049POPC   GL216310  22.120  10.550   9.004
 1049POPC   C1A16311  21.848  10.862   8.718
 1049POPC   D2A16312  22.074  10.596   8.483
 1049POPC   C3A16313  22.083  10.761   8.082
 1049POPC   C4A16314  21.942  10.730   7.667
 1049POPC   C1B16315  22.090  10.152   8.834
 1049POPC   C2B16316  21.902  10.039   8.490
 1049POPC   C3B16317  22.021  10.242   8.138
 1049POPC   C4B16318  22.028  10.169   7.758
 1050POPC   NC316319  12.307  21.985   9.451
 1050POPC   PO416320  11.961  22.474   9.770
 1050POPC   GL116321  12.024  22.388   9.299
 1050POPC   GL216322  11.937  22.069   9.084
 1050POPC   C1A16323  12.051  22.489   8.842
 1050POPC   D2A16324  11.972  22.212   8.501
 1050POPC   C3A16325  12.183  22.264   8.097
 1050POPC   C4A16326  11.967  22.362   7.708
 1050POPC   C1B16327  12.245  21.854   8.796
 1050POPC   C2B16328  12.184  21.692   8.389
 1050POPC   C3B16329  12.394  21.626   7.994
 1050POPC   C4B16330  12.579  21.988   7.782
 1051POPC   NC316331  35.630  39.380   9.554
 1051POPC   PO416332  36.331  39.190   9.535
 1051POPC   GL116333  36.013  39.264   9.171
 1051POPC   GL216334  35.843  38.963   9.134
 1051POPC   C1A16335  35.902  39.203   8.678
 1051POPC   D2A16336  36.130  39.125   8.246
 1051POPC   C3A16337  35.918  39.216   7.789
 1051POPC   C4A16338  35.759  39.454   7.356
 1051POPC   C1B16339  36.277  38.931   8.883
 1051POPC   C2B16340  36.520  38.904   8.518
 1051POPC   C3B16341  36.522  38.744   8.111
 1051POPC   C4B16342  36.374  38.966   7.764
 1052POPC   NC316343  35.668  25.052   9.416
 1052POPC   PO416344  36.272  25.382   9.438
 1052POPC   GL116345  36.034  25.258   9.112
 1052POPC   GL216346  36.180  24.929   9.165
 1052POPC   C1A16347  35.925  25.017   8.751
 1052POPC   D2A16348  35.987  24.946   8.332
 1052POPC   C3A16349  35.909  25.350   8.133
 1052POPC   C4A16350  35.875  25.224   7.709
 1052POPC   C1B16351  36.464  25.006   8.821
 1052POPC   C2B16352  36.460  25.220   8.422
 1052POPC   C3B16353  36.348  25.154   7.998
 1052POPC   C4B16354  36.351  25.484   7.712
 1053POPC   NC316355  24.420  33.142   9.694
 1053POPC   PO416356  24.719  32.606   9.527
 1053POPC   GL116357  24.610  32.938   9.258
 1053POPC   GL216358  24.280  32.935   9.193
 1053POPC   C1A16359  24.625  33.183   8.861
 1053POPC   D2A16360  24.604  33.451   8.511
 1053POPC   C3A16361  24.726  33.267   8.145
 1053POPC   C4A16362  24.709  33.089   7.778
 1053POPC   C1B16363  24.087  33.199   8.908
 1053POPC   C2B16364  24.093  33.335   8.498
 1053POPC   C3B16365  24.233  33.243   8.094
 1053POPC   C4B16366  24.114  33.297   7.688
 1054POPC   NC316367  38.604  44.521   9.585
 1054POPC   PO416368  38.219   0.017   9.466
 1054POPC   GL116369  38.318  44.715   9.170
 1054POPC   GL216370  38.671  44.752   9.143
 1054POPC   C1A16371  38.382  44.778   8.719
 1054POPC   D2A16372  38.598  44.895   8.330
 1054POPC   C3A16373  38.349  44.818   7.944
 1054POPC   C4A16374  38.389  44.432   7.702
 1054POPC   C1B16375  38.898  44.561   8.844
 1054POPC   C2B16376  39.040  44.552   8.423
 1054POPC   C3B16377  38.804  44.502   8.052
 1054POPC   C4B16378  38.904  44.379   7.666
 1055POPC   NC316379  31.963  41.644   9.631
 1055POPC   PO416380  32.334  41.068   9.468
 1055POPC   GL116381  32.363  41.323   9.077
 1055POPC   GL216382  32.180  41.647   9.129
 1055POPC   C1A16383  32.101  41.392   8.702
 1055POPC   D2A16384  32.220  41.177   8.382
 1055POPC   C3A16385  32.394  41.328   8.066
 1055POPC   C4A16386  32.523  41.403   7.700
 1055POPC   C1B16387  32.276  41.890   8.793
 1055POPC   C2B16388  32.233  41.778   8.392
 1055POPC   C3B16389  32.306  41.824   7.992
 1055POPC   C4B16390  32.345  41.835   7.573
 1056POPC   NC316391  37.757  39.507   9.735
 1056POPC   PO416392  37.907  38.842   9.588
 1056POPC   GL116393  37.687  39.208   9.291
 1056POPC   GL216394  37.985  39.395   9.169
 1056POPC   C1A16395  37.437  39.437   8.884
 1056POPC   D2A16396  37.141  39.409   8.497
 1056POPC   C3A16397  37.329  39.528   8.079
 1056POPC   C4A16398  37.464  39.407   7.633
 1056POPC   C1B16399  37.812  39.119   8.811
 1056POPC   C2B16400  37.605  39.213   8.426
 1056POPC   C3B16401  37.730  39.163   8.007
 1056POPC   C4B16402  38.059  39.025   7.770
 1057POPC   NC316403  25.654  20.611   9.525
 1057POPC   PO416404  26.312  20.717   9.514
 1057POPC   GL116405  26.082  20.428   9.236
 1057POPC   GL216406  25.856  20.652   9.036
 1057POPC   C1A16407  26.013  20.207   8.840
 1057POPC   D2A16408  26.245  20.218   8.445
 1057POPC   C3A16409  26.030  20.387   8.061
 1057POPC   C4A16410  26.242  20.360   7.664
 1057POPC   C1B16411  26.174  20.698   8.687
 1057POPC   C2B16412  26.315  20.965   8.318
 1057POPC   C3B16413  26.079  21.122   7.955
 1057POPC   C4B16414  25.879  20.801   7.649
 1058POPC   NC316415  33.820  28.570   9.388
 1058POPC   PO416416  33.974  27.923   9.334
 1058POPC   GL116417  33.882  28.198   9.037
 1058POPC   GL216418  33.563  28.182   8.945
 1058POPC   C1A16419  33.925  28.388   8.638
 1058POPC   D2A16420  34.163  28.272   8.279
 1058POPC   C3A16421  34.076  28.384   7.868
 1058POPC   C4A16422  34.195  28.784   7.680
 1058POPC   C1B16423  33.647  27.935   8.643
 1058POPC   C2B16424  33.652  28.139   8.261
 1058POPC   C3B16425  33.564  28.390   7.894
 1058POPC   C4B16426  33.608  28.236   7.464
 1059POPC   NC316427  27.869  36.137   9.604
 1059POPC   PO416428  27.730  35.477   9.595
 1059POPC   GL116429  27.647  35.796   9.184
 1059POPC   GL216430  27.698  36.188   9.128
 1059POPC   C1A16431  27.388  35.919   8.819
 1059POPC   D2A16432  27.546  35.946   8.396
 1059POPC   C3A16433  27.318  36.037   8.004
 1059POPC   C4A16434  27.313  35.873   7.579
 1059POPC   C1B16435  27.550  36.399   8.758
 1059POPC   C2B16436  27.764  36.407   8.356
 1059POPC   C3B16437  27.801  36.144   8.005
 1059POPC   C4B16438  27.640  36.228   7.640
 1060POPC   NC316439  20.317   9.158   9.395
 1060POPC   PO416440  20.700   8.849   9.842
 1060POPC   GL116441  20.670   8.745   9.317
 1060POPC   GL216442  20.400   8.863   9.022
 1060POPC   C1A16443  20.821   8.663   8.869
 1060POPC   D2A16444  20.594   8.896   8.512
 1060POPC   C3A16445  20.710   8.816   8.090
 1060POPC   C4A16446  20.804   8.798   7.674
 1060POPC   C1B16447  20.309   9.259   8.769
 1060POPC   C2B16448  20.168   9.284   8.372
 1060POPC   C3B16449  20.243   9.033   8.109
 1060POPC   C4B16450  20.402   9.132   7.751
 1061POPC   NC316451  38.135  30.654   9.374
 1061POPC   PO416452  38.696  30.967   9.559
 1061POPC   GL116453  38.492  30.959   9.205
 1061POPC   GL216454  38.577  30.616   9.102
 1061POPC   C1A16455  38.345  30.929   8.794
 1061POPC   D2A16456  38.497  30.660   8.478
 1061POPC   C3A16457  38.560  30.670   8.031
 1061POPC   C4A16458  38.310  30.882   7.728
 1061POPC   C1B16459  38.340  30.324   8.841
 1061POPC   C2B16460  38.146  30.286   8.476
 1061POPC   C3B16461  38.097  30.520   8.143
 1061POPC   C4B16462  38.189  30.276   7.793
 1062POPC   NC316463  26.205  18.676   9.398
 1062POPC   PO416464  25.842  19.317   9.524
 1062POPC   GL116465  25.948  19.113   9.183
 1062POPC   GL216466  25.763  18.832   9.196
 1062POPC   C1A16467  26.122  19.200   8.798
 1062POPC   D2A16468  26.121  19.051   8.396
 1062POPC   C3A16469  26.210  19.322   8.085
 1062POPC   C4A16470  25.907  19.264   7.777
 1062POPC   C1B16471  25.662  18.928   8.772
 1062POPC   C2B16472  25.574  18.785   8.373
 1062POPC   C3B16473  25.593  18.930   7.995
 1062POPC   C4B16474  25.741  18.761   7.627
 1063POPC   NC316475   6.154   6.652   9.510
 1063POPC   PO416476   5.431   6.773   9.587
 1063POPC   GL116477   5.701   6.798   9.252
 1063POPC   GL216478   5.587   7.074   9.114
 1063POPC   C1A16479   5.811   6.563   8.878
 1063POPC   D2A16480   6.039   6.567   8.475
 1063POPC   C3A16481   5.770   6.439   8.112
 1063POPC   C4A16482   5.906   6.384   7.693
 1063POPC   C1B16483   5.841   7.050   8.753
 1063POPC   C2B16484   5.996   7.059   8.336
 1063POPC   C3B16485   6.019   6.850   7.926
 1063POPC   C4B16486   5.875   6.866   7.462
 1064POPC   NC316487  25.534   4.777   9.533
 1064POPC   PO416488  25.469   5.499   9.426
 1064POPC   GL116489  25.521   5.191   9.154
 1064POPC   GL216490  25.176   5.139   9.167
 1064POPC   C1A16491  25.482   5.123   8.715
 1064POPC   D2A16492  25.676   5.189   8.318
 1064POPC   C3A16493  25.363   5.153   7.990
 1064POPC   C4A16494  25.415   5.279   7.518
 1064POPC   C1B16495  24.995   5.293   8.806
 1064POPC   C2B16496  24.951   5.137   8.409
 1064POPC   C3B16497  24.774   5.236   8.043
 1064POPC   C4B16498  24.950   5.138   7.666
 1065POPC   NC316499  30.664  23.903   9.542
 1065POPC   PO416500  30.507  23.262   9.549
 1065POPC   GL116501  30.435  23.569   9.195
 1065POPC   GL216502  30.809  23.597   9.166
 1065POPC   C1A16503  30.514  23.781   8.759
 1065POPC   D2A16504  30.608  23.997   8.364
 1065POPC   C3A16505  30.641  23.701   8.038
 1065POPC   C4A16506  30.354  23.613   7.742
 1065POPC   C1B16507  30.725  23.334   8.838
 1065POPC   C2B16508  30.567  23.299   8.425
 1065POPC   C3B16509  30.524  23.180   8.025
 1065POPC   C4B16510  30.783  23.292   7.701
 1066POPC   NC316511  12.953  26.316   9.508
 1066POPC   PO416512  12.531  25.762   9.544
 1066POPC   GL116513  12.723  25.945   9.176
 1066POPC   GL216514  12.648  26.297   9.097
 1066POPC   C1A16515  12.992  26.032   8.808
 1066POPC   D2A16516  13.012  25.782   8.433
 1066POPC   C3A16517  12.984  25.969   8.069
 1066POPC   C4A16518  12.687  25.793   7.834
 1066POPC   C1B16519  12.469  26.100   8.703
 1066POPC   C2B16520  12.524  26.110   8.249
 1066POPC   C3B16521  12.406  26.260   7.847
 1066POPC   C4B16522  12.676  26.518   7.586
 1067POPC   NC316523   3.009   8.138   9.313
 1067POPC   PO416524   3.650   8.100   9.567
 1067POPC   GL116525   3.521   8.128   9.171
 1067POPC   GL216526   3.410   7.768   9.157
 1067POPC   C1A16527   3.566   8.387   8.792
 1067POPC   D2A16528   3.799   8.367   8.413
 1067POPC   C3A16529   3.643   8.486   8.006
 1067POPC   C4A16530   3.569   8.276   7.621
 1067POPC   C1B16531   3.291   7.940   8.755
 1067POPC   C2B16532   3.323   8.136   8.374
 1067POPC   C3B16533   3.450   7.976   8.011
 1067POPC   C4B16534   3.442   7.766   7.633
 1068POPC   NC316535  28.882   4.594   9.792
 1068POPC   PO416536  29.277   4.068   9.473
 1068POPC   GL116537  29.401   4.291   9.113
 1068POPC   GL216538  29.073   4.222   8.991
 1068POPC   C1A16539  29.403   4.457   8.670
 1068POPC   D2A16540  29.259   4.556   8.254
 1068POPC   C3A16541  29.200   4.382   7.849
 1068POPC   C4A16542  29.101   4.542   7.436
 1068POPC   C1B16543  28.879   4.409   8.640
 1068POPC   C2B16544  28.736   4.218   8.291
 1068POPC   C3B16545  28.695   4.443   7.968
 1068POPC   C4B16546  28.627   4.677   7.660
 1069POPC   NC316547  35.246  27.768   9.465
 1069POPC   PO416548  35.620  27.254   9.670
 1069POPC   GL116549  35.569  27.339   9.203
 1069POPC   GL216550  35.453  27.666   9.012
 1069POPC   C1A16551  35.322  27.206   8.839
 1069POPC   D2A16552  35.101  27.423   8.496
 1069POPC   C3A16553  35.163  27.330   8.069
 1069POPC   C4A16554  35.281  27.308   7.642
 1069POPC   C1B16555  35.130  27.880   8.721
 1069POPC   C2B16556  35.040  27.884   8.241
 1069POPC   C3B16557  35.350  27.786   7.919
 1069POPC   C4B16558  35.394  27.795   7.479
 1070POPC   NC316559  40.347  30.105   9.477
 1070POPC   PO416560  39.746  29.758   9.463
 1070POPC   GL116561  40.004  29.953   9.125
 1070POPC   GL216562  40.199  30.275   9.018
 1070POPC   C1A16563  40.319  29.718   8.899
 1070POPC   D2A16564  40.195  29.467   8.553
 1070POPC   C3A16565  40.158  29.754   8.227
 1070POPC   C4A16566  40.175  29.832   7.815
 1070POPC   C1B16567  39.775  30.300   8.804
 1070POPC   C2B16568  39.627  30.388   8.390
 1070POPC   C3B16569  39.766  30.085   8.082
 1070POPC   C4B16570  39.805  30.104   7.651
 1071POPC   NC316571   7.991   3.595   9.464
 1071POPC   PO416572   8.602   3.498   9.691
 1071POPC   GL116573   8.468   3.545   9.262
 1071POPC   GL216574   8.385   3.226   9.131
 1071POPC   C1A16575   8.569   3.589   8.828
 1071POPC   D2A16576   8.659   3.585   8.398
 1071POPC   C3A16577   8.323   3.633   8.108
 1071POPC   C4A16578   8.186   3.714   7.675
 1071POPC   C1B16579   8.116   3.338   8.741
 1071POPC   C2B16580   7.898   3.410   8.332
 1071POPC   C3B16581   8.025   3.248   7.915
 1071POPC   C4B16582   7.946   3.307   7.477
 1072POPC   NC316583  39.900  31.085   9.441
 1072POPC   PO416584  40.335  30.566   9.499
 1072POPC   GL116585  40.271  30.804   9.180
 1072POPC   GL216586  39.949  30.712   9.087
 1072POPC   C1A16587  40.347  30.771   8.751
 1072POPC   D2A16588  40.154  30.443   8.484
 1072POPC   C3A16589  40.056  30.501   8.059
 1072POPC   C4A16590  40.254  30.354   7.699
 1072POPC   C1B16591  39.824  30.794   8.707
 1072POPC   C2B16592  40.016  30.964   8.370
 1072POPC   C3B16593  40.241  30.969   8.012
 1072POPC   C4B16594  39.952  30.828   7.650
 1073POPC   NC316595  28.866  38.776   9.429
 1073POPC   PO416596  29.575  38.837   9.435
 1073POPC   GL116597  29.314  39.170   9.171
 1073POPC   GL216598  29.264  39.554   9.233
 1073POPC   C1A16599  29.066  39.292   8.793
 1073POPC   D2A16600  28.884  39.175   8.373
 1073POPC   C3A16601  29.128  39.295   8.032
 1073POPC   C4A16602  29.113  39.128   7.645
 1073POPC   C1B16603  29.486  39.573   8.809
 1073POPC   C2B16604  29.459  39.364   8.422
 1073POPC   C3B16605  29.637  39.409   8.001
 1073POPC   C4B16606  29.555  39.534   7.602
 1074POPC   NC316607   7.191  12.145   9.658
 1074POPC   PO416608   7.900  12.381   9.466
 1074POPC   GL116609   7.495  12.270   9.252
 1074POPC   GL216610   7.358  11.916   9.225
 1074POPC   C1A16611   7.365  12.229   8.803
 1074POPC   D2A16612   7.510  12.324   8.357
 1074POPC   C3A16613   7.258  12.278   8.008
 1074POPC   C4A16614   7.126  12.009   7.657
 1074POPC   C1B16615   7.238  11.687   8.849
 1074POPC   C2B16616   7.352  11.833   8.441
 1074POPC   C3B16617   7.413  11.753   8.018
 1074POPC   C4B16618   7.302  11.539   7.599
 1075POPC   NC316619  14.079   2.556   9.524
 1075POPC   PO416620  13.553   2.912   9.489
 1075POPC   GL116621  13.447   2.819   9.099
 1075POPC   GL216622  13.694   2.532   9.123
 1075POPC   C1A16623  13.426   3.057   8.703
 1075POPC   D2A16624  13.712   2.985   8.317
 1075POPC   C3A16625  13.554   2.792   7.930
 1075POPC   C4A16626  13.295   2.639   7.609
 1075POPC   C1B16627  13.661   2.596   8.671
 1075POPC   C2B16628  13.626   2.394   8.273
 1075POPC   C3B16629  13.892   2.409   7.907
 1075POPC   C4B16630  13.790   2.509   7.493
 1076POPC   NC316631  37.936  42.060   9.400
 1076POPC   PO416632  37.579  42.685   9.378
 1076POPC   GL116633  37.796  42.448   9.100
 1076POPC   GL216634  37.587  42.218   8.991
 1076POPC   C1A16635  37.944  42.497   8.708
 1076POPC   D2A16636  37.787  42.194   8.455
 1076POPC   C3A16637  37.858  42.281   8.048
 1076POPC   C4A16638  37.924  42.485   7.689
 1076POPC   C1B16639  37.421  42.563   8.738
 1076POPC   C2B16640  37.530  42.631   8.307
 1076POPC   C3B16641  37.343  42.381   7.971
 1076POPC   C4B16642  37.046  42.511   7.638
 1077POPC   NC316643  40.368  35.905   9.505
 1077POPC   PO416644  39.846  36.283   9.683
 1077POPC   GL116645  39.932  36.267   9.208
 1077POPC   GL216646  39.614  36.296   9.070
 1077POPC   C1A16647  39.904  36.071   8.726
 1077POPC   D2A16648  39.681  36.139   8.326
 1077POPC   C3A16649  39.996  36.142   8.013
 1077POPC   C4A16650  40.232  35.832   7.796
 1077POPC   C1B16651  39.700  36.535   8.652
 1077POPC   C2B16652  39.762  36.609   8.179
 1077POPC   C3B16653  39.848  36.529   7.712
 1077POPC   C4B16654  39.761  36.417   7.241
 1078POPC   NC316655   2.034  26.586   9.529
 1078POPC   PO416656   1.811  27.233   9.358
 1078POPC   GL116657   1.979  26.904   9.120
 1078POPC   GL216658   1.799  26.594   9.101
 1078POPC   C1A16659   2.148  26.805   8.727
 1078POPC   D2A16660   2.088  27.024   8.317
 1078POPC   C3A16661   2.193  26.861   7.898
 1078POPC   C4A16662   1.889  26.694   7.562
 1078POPC   C1B16663   1.634  26.741   8.758
 1078POPC   C2B16664   1.833  26.485   8.452
 1078POPC   C3B16665   1.786  26.586   8.057
 1078POPC   C4B16666   1.608  26.953   7.908
 1079POPC   NC316667  42.163  11.770   9.436
 1079POPC   PO416668  41.982  12.445   9.561
 1079POPC   GL116669  42.172  12.291   9.183
 1079POPC   GL216670  42.494  12.133   9.235
 1079POPC   C1A16671  42.276  12.188   8.763
 1079POPC   D2A16672  42.093  12.324   8.415
 1079POPC   C3A16673  42.028  12.067   8.137
 1079POPC   C4A16674  42.053  12.276   7.767
 1079POPC   C1B16675  42.771  12.284   8.907
 1079POPC   C2B16676  42.775  12.446   8.468
 1079POPC   C3B16677  42.815  12.342   8.036
 1079POPC   C4B16678  42.550  12.204   7.716
 1080POPC   NC316679  42.489   9.284   9.451
 1080POPC   PO416680  42.354   8.591   9.507
 1080POPC   GL116681  42.212   8.651   9.153
 1080POPC   GL216682  42.152   9.011   9.165
 1080POPC   C1A16683  42.328   8.787   8.758
 1080POPC   D2A16684  42.151   8.889   8.372
 1080POPC   C3A16685  42.402   8.731   8.017
 1080POPC   C4A16686  42.614   8.605   7.644
 1080POPC   C1B16687  42.263   9.287   8.790
 1080POPC   C2B16688  42.469   9.282   8.407
 1080POPC   C3B16689  42.288   9.219   7.989
 1080POPC   C4B16690  42.383   9.070   7.560
 1081POPC   NC316691   1.976  25.694   9.537
 1081POPC   PO416692   1.646  26.259   9.514
 1081POPC   GL116693   1.973  26.115   9.185
 1081POPC   GL216694   2.000  25.756   9.029
 1081POPC   C1A16695   2.135  26.162   8.737
 1081POPC   D2A16696   2.018  25.843   8.383
 1081POPC   C3A16697   2.145  25.915   7.953
 1081POPC   C4A16698   2.179  26.336   7.788
 1081POPC   C1B16699   1.677  25.953   8.759
 1081POPC   C2B16700   1.536  26.080   8.315
 1081POPC   C3B16701   1.685  26.140   7.855
 1081POPC   C4B16702   1.517  26.118   7.424
 1082POPC   NC316703  27.932  38.420   9.433
 1082POPC   PO416704  27.310  38.116   9.546
 1082POPC   GL116705  27.491  38.122   9.109
 1082POPC   GL216706  27.839  38.134   9.038
 1082POPC   C1A16707  27.496  38.366   8.719
 1082POPC   D2A16708  27.645  38.382   8.283
 1082POPC   C3A16709  27.447  38.619   7.981
 1082POPC   C4A16710  27.603  38.829   7.601
 1082POPC   C1B16711  28.017  38.435   8.674
 1082POPC   C2B16712  27.969  38.778   8.333
 1082POPC   C3B16713  28.038  38.824   7.871
 1082POPC   C4B16714  28.146  38.679   7.456
 1083POPC   NC316715   7.998  16.885   9.494
 1083POPC   PO416716   8.522  16.479   9.552
 1083POPC   GL116717   8.329  16.619   9.186
 1083POPC   GL216718   8.397  16.974   9.145
 1083POPC   C1A16719   8.073  16.736   8.830
 1083POPC   D2A16720   7.926  16.838   8.428
 1083POPC   C3A16721   8.073  16.637   8.054
 1083POPC   C4A16722   7.830  16.376   7.782
 1083POPC   C1B16723   8.371  17.158   8.726
 1083POPC   C2B16724   8.429  16.984   8.286
 1083POPC   C3B16725   8.378  16.977   7.820
 1083POPC   C4B16726   8.017  16.808   7.564
 1084POPC   NC316727  30.373   7.682   9.426
 1084POPC   PO416728  30.804   8.190   9.648
 1084POPC   GL116729  30.828   8.290   9.207
 1084POPC   GL216730  30.517   8.134   9.143
 1084POPC   C1A16731  30.820   8.347   8.753
 1084POPC   D2A16732  30.733   8.255   8.311
 1084POPC   C3A16733  30.943   7.889   8.116
 1084POPC   C4A16734  31.123   7.818   7.701
 1084POPC   C1B16735  30.317   8.014   8.746
 1084POPC   C2B16736  30.113   8.030   8.306
 1084POPC   C3B16737  30.443   8.045   7.942
 1084POPC   C4B16738  30.628   8.432   7.777
 1085POPC   NC316739  44.352  18.323   9.537
 1085POPC   PO416740  44.921  18.083   9.540
 1085POPC   GL116741  44.652  18.117   9.148
 1085POPC   GL216742  44.341  18.357   9.034
 1085POPC   C1A16743  44.607  17.986   8.726
 1085POPC   D2A16744  44.547  18.089   8.318
 1085POPC   C3A16745  44.816  18.071   8.016
 1085POPC   C4A16746  44.736  18.126   7.612
 1085POPC   C1B16747  44.686  18.494   8.768
 1085POPC   C2B16748  44.656  18.638   8.352
 1085POPC   C3B16749  44.591  18.514   7.946
 1085POPC   C4B16750   0.051  18.504   7.747
 1086POPC   NC316751  42.905   6.427   9.526
 1086POPC   PO416752  43.503   6.754   9.552
 1086POPC   GL116753  43.185   6.778   9.215
 1086POPC   GL216754  43.095   6.437   9.066
 1086POPC   C1A16755  43.155   6.826   8.754
 1086POPC   D2A16756  42.988   6.668   8.340
 1086POPC   C3A16757  42.885   6.988   8.026
 1086POPC   C4A16758  43.016   7.096   7.628
 1086POPC   C1B16759  43.354   6.195   8.798
 1086POPC   C2B16760  43.404   6.102   8.330
 1086POPC   C3B16761  43.328   6.425   7.993
 1086POPC   C4B16762  42.968   6.560   7.774
 1087POPC   NC316763  39.028  35.144   9.568
 1087POPC   PO416764  39.637  35.433   9.533
 1087POPC   GL116765  39.340  35.369   9.183
 1087POPC   GL216766  38.982  35.503   9.156
 1087POPC   C1A16767  39.192  35.195   8.791
 1087POPC   D2A16768  39.084  35.190   8.349
 1087POPC   C3A16769  39.412  35.225   8.041
 1087POPC   C4A16770  39.349  35.061   7.665
 1087POPC   C1B16771  39.054  35.696   8.713
 1087POPC   C2B16772  38.957  35.710   8.268
 1087POPC   C3B16773  38.986  35.453   7.879
 1087POPC   C4B16774  39.014  35.490   7.415
 1088POPC   NC316775  37.642  17.226   9.878
 1088POPC   PO416776  37.345  17.734   9.455
 1088POPC   GL116777  37.663  17.630   9.195
 1088POPC   GL216778  37.665  17.271   9.264
 1088POPC   C1A16779  37.774  17.856   8.825
 1088POPC   D2A16780  37.636  17.865   8.416
 1088POPC   C3A16781  37.801  17.715   8.039
 1088POPC   C4A16782  37.526  17.535   7.761
 1088POPC   C1B16783  37.811  17.334   8.826
 1088POPC   C2B16784  37.771  17.365   8.407
 1088POPC   C3B16785  37.730  17.152   8.040
 1088POPC   C4B16786  37.721  16.907   7.673
 1089POPC   NC316787   4.076   3.341   9.468
 1089POPC   PO416788   4.336   3.987   9.556
 1089POPC   GL116789   4.356   3.680   9.177
 1089POPC   GL216790   4.289   3.376   8.994
 1089POPC   C1A16791   4.529   3.746   8.734
 1089POPC   D2A16792   4.355   3.495   8.392
 1089POPC   C3A16793   4.044   3.670   8.134
 1089POPC   C4A16794   4.189   3.589   7.728
 1089POPC   C1B16795   4.275   3.048   8.688
 1089POPC   C2B16796   4.467   2.917   8.323
 1089POPC   C3B16797   4.411   3.108   7.915
 1089POPC   C4B16798   4.640   3.128   7.506
 1090POPC   NC316799  20.507  44.970   9.457
 1090POPC   PO416800  20.332  44.353   9.448
 1090POPC   GL116801  20.649  44.443   9.124
 1090POPC   GL216802  20.659  44.810   9.005
 1090POPC   C1A16803  20.509  44.439   8.696
 1090POPC   D2A16804  20.444  44.786   8.460
 1090POPC   C3A16805  20.734  44.687   8.168
 1090POPC   C4A16806  20.596  44.570   7.811
 1090POPC   C1B16807  20.920  44.782   8.657
 1090POPC   C2B16808  21.030   0.079   8.325
 1090POPC   C3B16809  20.870   0.110   7.904
 1090POPC   C4B16810  21.028  44.814   7.658
 1091POPC   NC316811  42.700  24.090   9.570
 1091POPC   PO416812  42.449  23.476   9.362
 1091POPC   GL116813  42.506  23.723   9.083
 1091POPC   GL216814  42.237  23.924   9.163
 1091POPC   C1A16815  42.518  23.517   8.691
 1091POPC   D2A16816  42.714  23.419   8.311
 1091POPC   C3A16817  42.372  23.363   8.031
 1091POPC   C4A16818  42.228  23.556   7.691
 1091POPC   C1B16819  42.070  23.797   8.773
 1091POPC   C2B16820  42.101  23.593   8.404
 1091POPC   C3B16821  41.997  23.791   8.064
 1091POPC   C4B16822  41.897  23.938   7.680
 1092POPC   NC316823  11.564  23.245   9.516
 1092POPC   PO416824  11.373  22.599   9.828
 1092POPC   GL116825  11.266  22.638   9.327
 1092POPC   GL216826  11.292  22.978   9.139
 1092POPC   C1A16827  11.116  22.600   8.861
 1092POPC   D2A16828  11.215  22.952   8.560
 1092POPC   C3A16829  11.189  22.854   8.097
 1092POPC   C4A16830  11.352  22.977   7.657
 1092POPC   C1B16831  11.594  23.244   8.872
 1092POPC   C2B16832  11.720  23.296   8.447
 1092POPC   C3B16833  11.571  23.223   8.053
 1092POPC   C4B16834  11.762  23.350   7.686
 1093POPC   NC316835  33.407  30.726   9.806
 1093POPC   PO416836  32.900  30.965   9.464
 1093POPC   GL116837  33.001  30.776   9.144
 1093POPC   GL216838  32.880  30.502   9.137
 1093POPC   C1A16839  33.156  30.855   8.760
 1093POPC   D2A16840  32.987  30.744   8.411
 1093POPC   C3A16841  33.077  30.931   8.041
 1093POPC   C4A16842  33.272  30.949   7.656
 1093POPC   C1B16843  33.030  30.341   8.750
 1093POPC   C2B16844  32.847  30.260   8.340
 1093POPC   C3B16845  32.720  30.576   8.017
 1093POPC   C4B16846  32.916  30.596   7.612
 1094POPC   NC316847   8.762  40.967   9.455
 1094POPC   PO416848   9.162  40.489   9.588
 1094POPC   GL116849   9.087  40.672   9.185
 1094POPC   GL216850   8.729  40.586   9.117
 1094POPC   C1A16851   9.178  40.821   8.755
 1094POPC   D2A16852   9.009  40.701   8.357
 1094POPC   C3A16853   9.078  40.966   7.994
 1094POPC   C4A16854   9.182  41.213   7.652
 1094POPC   C1B16855   8.541  40.413   8.741
 1094POPC   C2B16856   8.637  40.191   8.377
 1094POPC   C3B16857   8.824  40.340   8.018
 1094POPC   C4B16858   8.819  40.634   7.699
 1095POPC   NC316859  18.056  26.081   9.529
 1095POPC   PO416860  18.751  25.704   9.522
 1095POPC   GL116861  18.595  25.841   9.126
 1095POPC   GL216862  18.521  26.202   9.051
 1095POPC   C1A16863  18.356  25.820   8.745
 1095POPC   D2A16864  18.318  25.591   8.367
 1095POPC   C3A16865  18.430  25.891   8.049
 1095POPC   C4A16866  18.394  25.868   7.601
 1095POPC   C1B16867  18.187  26.317   8.707
 1095POPC   C2B16868  18.109  26.271   8.269
 1095POPC   C3B16869  18.099  26.230   7.835
 1095POPC   C4B16870  18.417  26.369   7.516
 1096POPC   NC316871  20.740  25.821   9.589
 1096POPC   PO416872  20.301  26.213   9.490
 1096POPC   GL116873  20.353  25.906   9.139
 1096POPC   GL216874  20.253  26.190   8.983
 1096POPC   C1A16875  20.448  25.835   8.647
 1096POPC   D2A16876  20.787  25.831   8.275
 1096POPC   C3A16877  20.764  25.853   7.796
 1096POPC   C4A16878  20.637  25.808   7.353
 1096POPC   C1B16879  20.450  26.353   8.641
 1096POPC   C2B16880  20.459  26.213   8.236
 1096POPC   C3B16881  20.710  26.352   7.914
 1096POPC   C4B16882  20.557  26.334   7.529
 1097POPC   NC316883  32.559  12.417   9.442
 1097POPC   PO416884  31.948  12.647   9.521
 1097POPC   GL116885  32.058  12.884   9.152
 1097POPC   GL216886  32.375  12.788   9.151
 1097POPC   C1A16887  32.212  12.981   8.709
 1097POPC   D2A16888  32.082  12.801   8.307
 1097POPC   C3A16889  32.271  13.114   8.097
 1097POPC   C4A16890  32.270  13.157   7.690
 1097POPC   C1B16891  32.643  12.710   8.829
 1097POPC   C2B16892  32.542  12.646   8.437
 1097POPC   C3B16893  32.586  12.698   8.023
 1097POPC   C4B16894  32.453  12.691   7.593
 1098POPC   NC316895  13.838  32.805   9.384
 1098POPC   PO416896  13.408  32.314   9.658
 1098POPC   GL116897  13.713  32.304   9.349
 1098POPC   GL216898  13.504  32.490   9.146
 1098POPC   C1A16899  13.822  32.162   8.908
 1098POPC   D2A16900  13.637  32.108   8.503
 1098POPC   C3A16901  13.745  32.090   8.089
 1098POPC   C4A16902  13.771  31.967   7.674
 1098POPC   C1B16903  13.651  32.617   8.751
 1098POPC   C2B16904  13.708  32.580   8.324
 1098POPC   C3B16905  13.717  32.572   7.915
 1098POPC   C4B16906  13.650  32.463   7.529
 1099POPC   NC316907  17.352  28.261   9.826
 1099POPC   PO416908  17.959  28.219   9.544
 1099POPC   GL116909  17.599  28.175   9.330
 1099POPC   GL216910  17.364  28.419   9.233
 1099POPC   C1A16911  17.506  28.049   8.907
 1099POPC   D2A16912  17.408  28.078   8.474
 1099POPC   C3A16913  17.738  28.254   8.194
 1099POPC   C4A16914  17.653  28.257   7.757
 1099POPC   C1B16915  17.264  28.527   8.776
 1099POPC   C2B16916  17.367  28.567   8.323
 1099POPC   C3B16917  17.209  28.240   8.008
 1099POPC   C4B16918  17.120  28.199   7.545
 1100POPC   NC316919   3.579  29.430   9.481
 1100POPC   PO416920   3.792  28.830   9.546
 1100POPC   GL116921   3.685  29.029   9.114
 1100POPC   GL216922   3.415  29.332   8.999
 1100POPC   C1A16923   3.748  29.153   8.693
 1100POPC   D2A16924   3.635  29.379   8.353
 1100POPC   C3A16925   3.799  29.132   8.043
 1100POPC   C4A16926   3.676  29.222   7.667
 1100POPC   C1B16927   3.235  29.105   8.610
 1100POPC   C2B16928   3.251  29.118   8.139
 1100POPC   C3B16929   3.324  28.861   7.807
 1100POPC   C4B16930   3.390  28.848   7.382
 1101POPC   NC316931  31.354   0.997   9.634
 1101POPC   PO416932  31.439   0.332   9.533
 1101POPC   GL116933  31.489   0.184   9.120
 1101POPC   GL216934  31.128   0.126   9.121
 1101POPC   C1A16935  31.595   0.116   8.705
 1101POPC   D2A16936  31.570   0.445   8.417
 1101POPC   C3A16937  31.370   0.474   8.023
 1101POPC   C4A16938  31.494   0.680   7.677
 1101POPC   C1B16939  31.148   0.390   8.770
 1101POPC   C2B16940  31.086   0.260   8.380
 1101POPC   C3B16941  30.966   0.133   7.980
 1101POPC   C4B16942  31.013   0.420   7.636
 1102POPC   NC316943  29.288  41.266   9.465
 1102POPC   PO416944  28.968  41.817   9.606
 1102POPC   GL116945  29.038  41.647   9.209
 1102POPC   GL216946  29.413  41.659   9.170
 1102POPC   C1A16947  29.047  41.393   8.837
 1102POPC   D2A16948  28.951  41.484   8.421
 1102POPC   C3A16949  28.829  41.327   8.027
 1102POPC   C4A16950  28.798  41.570   7.679
 1102POPC   C1B16951  29.306  41.834   8.782
 1102POPC   C2B16952  29.397  41.751   8.368
 1102POPC   C3B16953  29.169  41.729   7.989
 1102POPC   C4B16954  29.154  41.945   7.593
 1103POPC   NC316955   2.350  16.730  10.055
 1103POPC   PO416956   2.644  16.698   9.478
 1103POPC   GL116957   2.822  16.787   9.124
 1103POPC   GL216958   3.181  16.771   9.199
 1103POPC   C1A16959   2.778  16.685   8.720
 1103POPC   D2A16960   2.567  16.905   8.375
 1103POPC   C3A16961   2.638  16.608   8.065
 1103POPC   C4A16962   2.837  16.584   7.691
 1103POPC   C1B16963   3.232  16.900   8.794
 1103POPC   C2B16964   3.083  16.856   8.372
 1103POPC   C3B16965   3.008  16.960   7.981
 1103POPC   C4B16966   3.307  16.800   7.700
 1104POPC   NC316967  15.982  38.016   9.596
 1104POPC   PO416968  15.888  37.329   9.497
 1104POPC   GL116969  15.829  37.648   9.209
 1104POPC   GL216970  16.101  37.875   9.111
 1104POPC   C1A16971  15.876  37.579   8.774
 1104POPC   D2A16972  16.131  37.759   8.486
 1104POPC   C3A16973  15.907  37.804   8.124
 1104POPC   C4A16974  15.962  37.514   7.817
 1104POPC   C1B16975  16.381  38.064   8.807
 1104POPC   C2B16976  16.593  37.988   8.406
 1104POPC   C3B16977  16.413  37.772   8.042
 1104POPC   C4B16978  16.293  37.858   7.616
 1105POPC   NC316979  12.221  30.856   9.467
 1105POPC   PO416980  11.902  30.370   9.604
 1105POPC   GL116981  11.865  30.579   9.160
 1105POPC   GL216982  11.881  30.937   9.055
 1105POPC   C1A16983  11.725  30.620   8.700
 1105POPC   D2A16984  11.838  30.805   8.298
 1105POPC   C3A16985  11.989  30.606   7.913
 1105POPC   C4A16986  11.998  30.782   7.478
 1105POPC   C1B16987  12.180  30.880   8.669
 1105POPC   C2B16988  12.362  30.847   8.204
 1105POPC   C3B16989  12.481  30.695   7.760
 1105POPC   C4B16990  12.500  30.889   7.337
 1106POPC   NC316991  27.797  23.198   9.349
 1106POPC   PO416992  27.295  22.797   9.505
 1106POPC   GL116993  27.534  22.819   9.101
 1106POPC   GL216994  27.825  22.593   9.055
 1106POPC   C1A16995  27.610  23.070   8.710
 1106POPC   D2A16996  27.477  23.210   8.311
 1106POPC   C3A16997  27.318  22.901   7.989
 1106POPC   C4A16998  27.256  23.040   7.569
 1106POPC   C1B16999  27.980  22.726   8.659
 1106POPC   C2B17000  27.889  22.847   8.217
 1106POPC   C3B17001  27.761  23.097   7.847
 1106POPC   C4B17002  27.646  22.735   7.601
 1107POPC   NC317003  32.818  17.916   9.405
 1107POPC   PO417004  32.724  18.589   9.542
 1107POPC   GL117005  32.866  18.350   9.137
 1107POPC   GL217006  32.586  18.141   9.006
 1107POPC   C1A17007  33.021  18.061   8.762
 1107POPC   D2A17008  32.836  18.031   8.320
 1107POPC   C3A17009  33.117  17.989   7.964
 1107POPC   C4A17010  33.324  18.299   7.692
 1107POPC   C1B17011  32.720  18.445   8.651
 1107POPC   C2B17012  32.761  18.543   8.229
 1107POPC   C3B17013  32.705  18.323   7.857
 1107POPC   C4B17014  32.870  18.412   7.483
 1108POPC   NC317015  13.647   0.714   9.783
 1108POPC   PO417016  13.524   1.361   9.504
 1108POPC   GL117017  13.637   1.328   9.078
 1108POPC   GL217018  13.314   1.188   9.015
 1108POPC   C1A17019  13.786   1.101   8.692
 1108POPC   D2A17020  13.997   1.063   8.282
 1108POPC   C3A17021  13.778   0.965   7.890
 1108POPC   C4A17022  13.669   1.213   7.553
 1108POPC   C1B17023  13.412   1.450   8.655
 1108POPC   C2B17024  13.611   1.483   8.280
 1108POPC   C3B17025  13.383   1.287   7.975
 1108POPC   C4B17026  13.254   0.967   7.713
 1109POPC   NC317027   8.710  36.229   9.403
 1109POPC   PO417028   9.176  35.755   9.493
 1109POPC   GL117029   9.158  35.971   9.132
 1109POPC   GL217030   9.458  36.181   9.198
 1109POPC   C1A17031   8.939  36.182   8.791
 1109POPC   D2A17032   8.755  36.130   8.416
 1109POPC   C3A17033   8.751  36.413   8.095
 1109POPC   C4A17034   8.612  36.146   7.809
 1109POPC   C1B17035   9.439  36.176   8.749
 1109POPC   C2B17036   9.272  35.929   8.432
 1109POPC   C3B17037   9.101  36.027   8.053
 1109POPC   C4B17038   9.257  36.223   7.774
 1110POPC   NC317039  15.452  38.529   9.716
 1110POPC   PO417040  16.058  38.493   9.663
 1110POPC   GL117041  15.801  38.395   9.323
 1110POPC   GL217042  15.746  38.689   9.184
 1110POPC   C1A17043  15.729  38.199   8.941
 1110POPC   D2A17044  15.895  38.204   8.526
 1110POPC   C3A17045  15.678  38.254   8.120
 1110POPC   C4A17046  15.910  38.188   7.751
 1110POPC   C1B17047  15.740  38.675   8.735
 1110POPC   C2B17048  15.915  38.676   8.321
 1110POPC   C3B17049  15.789  38.715   7.915
 1110POPC   C4B17050  15.809  38.628   7.491
 1111POPC   NC317051  40.359  38.367   9.695
 1111POPC   PO417052  40.988  38.632   9.494
 1111POPC   GL117053  40.728  38.613   9.140
 1111POPC   GL217054  40.857  38.280   9.158
 1111POPC   C1A17055  40.534  38.666   8.707
 1111POPC   D2A17056  40.370  38.605   8.283
 1111POPC   C3A17057  40.731  38.516   8.037
 1111POPC   C4A17058  40.752  38.315   7.669
 1111POPC   C1B17059  40.861  38.195   8.747
 1111POPC   C2B17060  40.989  38.141   8.356
 1111POPC   C3B17061  41.233  38.369   8.085
 1111POPC   C4B17062  41.267  38.245   7.698
 1112POPC   NC317063  36.754  10.587   9.609
 1112POPC   PO417064  36.838   9.887   9.694
 1112POPC   GL117065  36.591  10.047   9.270
 1112POPC   GL217066  36.530  10.425   9.175
 1112POPC   C1A17067  36.660  10.113   8.780
 1112POPC   D2A17068  36.679  10.484   8.429
 1112POPC   C3A17069  36.664  10.401   7.939
 1112POPC   C4A17070  36.871  10.222   7.544
 1112POPC   C1B17071  36.717  10.744   8.896
 1112POPC   C2B17072  36.902  10.945   8.502
 1112POPC   C3B17073  36.916  10.845   8.071
 1112POPC   C4B17074  36.985  10.861   7.648
 1113POPC   NC317075  16.106   8.063   9.724
 1113POPC   PO417076  15.508   8.427   9.548
 1113POPC   GL117077  15.687   8.106   9.237
 1113POPC   GL217078  16.033   8.005   9.202
 1113POPC   C1A17079  15.640   8.099   8.768
 1113POPC   D2A17080  15.785   7.917   8.352
 1113POPC   C3A17081  15.954   8.109   7.957
 1113POPC   C4A17082  15.919   7.964   7.519
 1113POPC   C1B17083  16.145   8.162   8.781
 1113POPC   C2B17084  16.115   8.394   8.387
 1113POPC   C3B17085  16.302   8.497   7.976
 1113POPC   C4B17086  16.254   8.339   7.538
 1114POPC   NC317087  19.354  26.808   9.590
 1114POPC   PO417088  18.738  26.542   9.780
 1114POPC   GL117089  18.834  26.572   9.295
 1114POPC   GL217090  19.206  26.571   9.171
 1114POPC   C1A17091  18.836  26.534   8.825
 1114POPC   D2A17092  18.865  26.875   8.547
 1114POPC   C3A17093  18.910  26.842   8.118
 1114POPC   C4A17094  19.100  26.625   7.801
 1114POPC   C1B17095  19.219  26.997   8.916
 1114POPC   C2B17096  19.309  27.112   8.495
 1114POPC   C3B17097  19.418  26.802   8.202
 1114POPC   C4B17098  19.437  27.030   7.868
 1115POPC   NC317099  22.193  39.655   9.549
 1115POPC   PO417100  22.216  38.955   9.614
 1115POPC   GL117101  22.314  39.026   9.217
 1115POPC   GL217102  22.340  39.371   9.147
 1115POPC   C1A17103  22.074  39.076   8.821
 1115POPC   D2A17104  22.026  39.310   8.479
 1115POPC   C3A17105  22.352  39.305   8.166
 1115POPC   C4A17106  22.194  39.213   7.784
 1115POPC   C1B17107  22.456  39.536   8.710
 1115POPC   C2B17108  22.235  39.771   8.387
 1115POPC   C3B17109  21.933  39.574   8.052
 1115POPC   C4B17110  22.143  39.706   7.727
 1116POPC   NC317111   1.582  11.084   9.564
 1116POPC   PO417112   0.904  11.334   9.538
 1116POPC   GL117113   1.083  11.235   9.160
 1116POPC   GL217114   1.229  10.927   9.187
 1116POPC   C1A17115   1.229  11.370   8.768
 1116POPC   D2A17116   1.087  11.210   8.395
 1116POPC   C3A17117   1.188  11.463   8.081
 1116POPC   C4A17118   1.008  11.429   7.707
 1116POPC   C1B17119   1.516  10.948   8.816
 1116POPC   C2B17120   1.586  11.082   8.361
 1116POPC   C3B17121   1.427  11.053   7.930
 1116POPC   C4B17122   1.422  11.050   7.485
 1117POPC   NC317123  17.113  40.536   9.535
 1117POPC   PO417124  16.600  40.098   9.451
 1117POPC   GL117125  16.658  40.101   9.064
 1117POPC   GL217126  16.991  40.035   8.971
 1117POPC   C1A17127  16.662  40.299   8.682
 1117POPC   D2A17128  16.873  40.152   8.322
 1117POPC   C3A17129  16.596  40.227   7.998
 1117POPC   C4A17130  16.710  40.191   7.596
 1117POPC   C1B17131  16.766  39.786   8.673
 1117POPC   C2B17132  16.712  39.625   8.268
 1117POPC   C3B17133  16.763  39.738   7.837
 1117POPC   C4B17134  16.761  39.723   7.364
 1118POPC   NC317135   0.752   1.166   9.577
 1118POPC   PO417136   0.229   1.582   9.586
 1118POPC   GL117137   0.340   1.330   9.233
 1118POPC   GL217138   0.178   1.020   9.237
 1118POPC   C1A17139   0.485   1.375   8.809
 1118POPC   D2A17140   0.315   1.252   8.432
 1118POPC   C3A17141   0.515   1.356   8.055
 1118POPC   C4A17142   0.464   1.606   7.683
 1118POPC   C1B17143   0.139   0.885   8.799
 1118POPC   C2B17144  44.881   0.981   8.430
 1118POPC   C3B17145   0.106   1.023   8.029
 1118POPC   C4B17146   0.191   1.183   7.623
 1119POPC   NC317147  43.918  39.210   9.575
 1119POPC   PO417148  43.802  39.820   9.625
 1119POPC   GL117149  43.880  39.555   9.194
 1119POPC   GL217150  43.765  39.168   9.105
 1119POPC   C1A17151  44.014  39.391   8.751
 1119POPC   D2A17152  43.733  39.249   8.403
 1119POPC   C3A17153  43.809  39.405   7.993
 1119POPC   C4A17154  44.224  39.364   7.783
 1119POPC   C1B17155  43.552  38.948   8.783
 1119POPC   C2B17156  43.546  38.776   8.356
 1119POPC   C3B17157  43.467  39.003   7.975
 1119POPC   C4B17158  43.513  38.822   7.593
 1120POPC   NC317159   7.228  11.157   9.508
 1120POPC   PO417160   7.695  10.711   9.555
 1120POPC   GL117161   7.663  10.605   9.120
 1120POPC   GL217162   7.369  10.373   9.099
 1120POPC   C1A17163   7.685  10.704   8.686
 1120POPC   D2A17164   7.747  10.942   8.318
 1120POPC   C3A17165   7.616  10.682   7.986
 1120POPC   C4A17166   7.642  10.280   7.702
 1120POPC   C1B17167   7.297  10.225   8.674
 1120POPC   C2B17168   7.386  10.200   8.215
 1120POPC   C3B17169   7.190  10.400   7.867
 1120POPC   C4B17170   7.253  10.815   7.688
 1121POPC   NC317171   7.060   8.368   9.475
 1121POPC   PO417172   6.499   8.054   9.502
 1121POPC   GL117173   6.511   8.212   9.124
 1121POPC   GL217174   6.825   8.069   8.991
 1121POPC   C1A17175   6.454   8.408   8.733
 1121POPC   D2A17176   6.334   8.597   8.325
 1121POPC   C3A17177   6.316   8.326   7.971
 1121POPC   C4A17178   6.528   8.136   7.650
 1121POPC   C1B17179   6.873   7.744   8.636
 1121POPC   C2B17180   6.876   7.761   8.185
 1121POPC   C3B17181   6.812   7.693   7.737
 1121POPC   C4B17182   6.794   7.844   7.301
 1122POPC   NC317183   4.897  31.305   9.667
 1122POPC   PO417184   5.526  31.533   9.705
 1122POPC   GL117185   5.357  31.462   9.262
 1122POPC   GL217186   5.111  31.184   9.197
 1122POPC   C1A17187   5.052  31.608   8.945
 1122POPC   D2A17188   4.916  31.511   8.535
 1122POPC   C3A17189   5.164  31.658   8.214
 1122POPC   C4A17190   4.835  31.753   7.980
 1122POPC   C1B17191   5.271  31.158   8.753
 1122POPC   C2B17192   5.222  31.157   8.286
 1122POPC   C3B17193   5.146  31.159   7.842
 1122POPC   C4B17194   4.874  31.413   7.600
 1123POPC   NC317195  33.257  25.507   9.713
 1123POPC   PO417196  33.179  26.152   9.671
 1123POPC   GL117197  33.073  25.862   9.280
 1123POPC   GL217198  32.981  26.168   9.164
 1123POPC   C1A17199  32.922  25.859   8.798
 1123POPC   D2A17200  32.672  25.919   8.403
 1123POPC   C3A17201  32.904  25.925   8.010
 1123POPC   C4A17202  32.892  25.858   7.558
 1123POPC   C1B17203  33.071  26.380   8.783
 1123POPC   C2B17204  32.957  26.355   8.404
 1123POPC   C3B17205  33.082  26.401   8.042
 1123POPC   C4B17206  33.167  26.272   7.649
 1124POPC   NC317207  29.525  15.018   9.508
 1124POPC   PO417208  29.105  15.505   9.446
 1124POPC   GL117209  29.113  15.199   9.095
 1124POPC   GL217210  29.155  14.820   9.136
 1124POPC   C1A17211  28.879  15.082   8.709
 1124POPC   D2A17212  28.977  15.122   8.276
 1124POPC   C3A17213  29.267  15.405   8.108
 1124POPC   C4A17214  29.122  15.276   7.714
 1124POPC   C1B17215  29.510  14.873   8.842
 1124POPC   C2B17216  29.540  15.056   8.440
 1124POPC   C3B17217  29.391  14.897   8.068
 1124POPC   C4B17218  29.512  14.931   7.699
 1125POPC   NC317219  28.052   4.523   9.362
 1125POPC   PO417220  27.591   4.209   9.689
 1125POPC   GL117221  27.640   4.200   9.244
 1125POPC   GL217222  27.524   4.539   9.217
 1125POPC   C1A17223  27.788   4.276   8.791
 1125POPC   D2A17224  27.865   4.424   8.353
 1125POPC   C3A17225  27.812   4.118   8.022
 1125POPC   C4A17226  27.457   4.029   7.756
 1125POPC   C1B17227  27.273   4.376   8.907
 1125POPC   C2B17228  27.375   4.499   8.511
 1125POPC   C3B17229  27.362   4.392   8.101
 1125POPC   C4B17230  27.661   4.535   7.802
 1126POPC   NC317231  36.563  14.728   9.339
 1126POPC   PO417232  37.136  14.327   9.619
 1126POPC   GL117233  36.999  14.450   9.216
 1126POPC   GL217234  37.054  14.795   9.159
 1126POPC   C1A17235  36.742  14.275   8.863
 1126POPC   D2A17236  36.912  14.209   8.468
 1126POPC   C3A17237  36.672  14.380   8.160
 1126POPC   C4A17238  36.806  14.221   7.792
 1126POPC   C1B17239  37.098  14.620   8.748
 1126POPC   C2B17240  36.982  14.759   8.341
 1126POPC   C3B17241  36.983  14.711   7.903
 1126POPC   C4B17242  37.249  14.450   7.695
 1127POPC   NC317243   6.439   9.508   9.406
 1127POPC   PO417244   6.988   9.106   9.388
 1127POPC   GL117245   6.820   9.381   9.045
 1127POPC   GL217246   6.455   9.402   8.924
 1127POPC   C1A17247   6.848   9.474   8.597
 1127POPC   D2A17248   6.783   9.471   8.148
 1127POPC   C3A17249   6.525   9.797   8.009
 1127POPC   C4A17250   6.395   9.965   7.646
 1127POPC   C1B17251   6.355   9.667   8.579
 1127POPC   C2B17252   6.169   9.498   8.225
 1127POPC   C3B17253   6.335   9.340   7.851
 1127POPC   C4B17254   6.381   9.446   7.394
 1128POPC   NC317255  25.038   5.645   9.507
 1128POPC   PO417256  25.552   6.191   9.616
 1128POPC   GL117257  25.387   6.256   9.174
 1128POPC   GL217258  25.306   5.918   9.155
 1128POPC   C1A17259  25.212   6.204   8.747
 1128POPC   D2A17260  24.984   6.089   8.368
 1128POPC   C3A17261  25.162   6.111   7.922
 1128POPC   C4A17262  25.242   6.105   7.459
 1128POPC   C1B17263  25.391   5.663   8.800
 1128POPC   C2B17264  25.257   5.545   8.412
 1128POPC   C3B17265  25.319   5.639   8.005
 1128POPC   C4B17266  25.094   5.648   7.636
 1129POPC   NC317267  19.307  41.951   9.650
 1129POPC   PO417268  18.867  41.396   9.632
 1129POPC   GL117269  19.068  41.611   9.269
 1129POPC   GL217270  18.937  41.963   9.273
 1129POPC   C1A17271  19.199  41.435   8.836
 1129POPC   D2A17272  18.933  41.294   8.499
 1129POPC   C3A17273  19.075  41.313   8.090
 1129POPC   C4A17274  19.433  41.552   7.930
 1129POPC   C1B17275  18.913  41.842   8.835
 1129POPC   C2B17276  19.213  41.835   8.499
 1129POPC   C3B17277  19.066  41.884   8.109
 1129POPC   C4B17278  18.922  41.672   7.767
 1130POPC   NC317279  18.530   3.217   9.483
 1130POPC   PO417280  17.924   3.537   9.521
 1130POPC   GL117281  18.204   3.487   9.202
 1130POPC   GL217282  18.131   3.141   9.157
 1130POPC   C1A17283  18.412   3.631   8.826
 1130POPC   D2A17284  18.200   3.676   8.438
 1130POPC   C3A17285  18.480   3.677   8.089
 1130POPC   C4A17286  18.378   3.516   7.707
 1130POPC   C1B17287  18.015   3.292   8.766
 1130POPC   C2B17288  17.812   3.274   8.398
 1130POPC   C3B17289  18.079   3.323   8.078
 1130POPC   C4B17290  17.979   3.762   7.953
 1131POPC   NC317291  32.868  43.953   9.542
 1131POPC   PO417292  33.507  43.866   9.383
 1131POPC   GL117293  33.160  43.773   9.160
 1131POPC   GL217294  33.372  43.693   8.913
 1131POPC   C1A17295  32.853  43.709   8.829
 1131POPC   D2A17296  32.866  43.855   8.409
 1131POPC   C3A17297  32.973  43.645   8.026
 1131POPC   C4A17298  32.975  43.768   7.590
 1131POPC   C1B17299  33.177  44.089   8.760
 1131POPC   C2B17300  33.107  44.307   8.350
 1131POPC   C3B17301  32.983  44.161   7.924
 1131POPC   C4B17302  33.220  44.185   7.500
 1132POPC   NC317303  32.641  24.028   9.481
 1132POPC   PO417304  33.378  24.054   9.569
 1132POPC   GL117305  33.199  23.857   9.199
 1132POPC   GL217306  32.849  23.941   9.033
 1132POPC   C1A17307  33.199  23.657   8.794
 1132POPC   D2A17308  32.848  23.508   8.528
 1132POPC   C3A17309  32.687  23.724   8.185
 1132POPC   C4A17310  32.828  23.853   7.758
 1132POPC   C1B17311  32.866  24.036   8.583
 1132POPC   C2B17312  33.176  23.857   8.329
 1132POPC   C3B17313  33.310  23.889   7.955
 1132POPC   C4B17314  33.287  23.852   7.517
 1133POPC   NC317315   1.567  41.863   9.582
 1133POPC   PO417316   1.200  41.293   9.431
 1133POPC   GL117317   1.462  41.403   9.121
 1133POPC   GL217318   1.461  41.769   9.098
 1133POPC   C1A17319   1.290  41.475   8.713
 1133POPC   D2A17320   1.081  41.702   8.394
 1133POPC   C3A17321   1.335  41.599   8.075
 1133POPC   C4A17322   1.367  41.578   7.652
 1133POPC   C1B17323   1.321  41.992   8.748
 1133POPC   C2B17324   1.486  42.102   8.355
 1133POPC   C3B17325   1.684  41.945   7.984
 1133POPC   C4B17326   1.648  41.993   7.555
 1134POPC   NC317327  33.478  43.402   9.346
 1134POPC   PO417328  32.812  43.510   9.445
 1134POPC   GL117329  33.051  43.265   9.137
 1134POPC   GL217330  33.053  42.916   9.272
 1134POPC   C1A17331  33.135  43.312   8.713
 1134POPC   D2A17332  32.836  43.339   8.420
 1134POPC   C3A17333  32.889  43.129   8.060
 1134POPC   C4A17334  32.858  43.288   7.637
 1134POPC   C1B17335  33.226  42.851   8.876
 1134POPC   C2B17336  33.207  42.903   8.429
 1134POPC   C3B17337  33.303  42.734   8.048
 1134POPC   C4B17338  32.999  42.771   7.725
 1135POPC   NC317339  40.202  33.578   9.439
 1135POPC   PO417340  40.142  34.222   9.437
 1135POPC   GL117341  39.892  34.046   9.100
 1135POPC   GL217342  40.164  33.810   8.977
 1135POPC   C1A17343  39.751  33.859   8.694
 1135POPC   D2A17344  40.084  33.684   8.383
 1135POPC   C3A17345  40.085  33.887   7.965
 1135POPC   C4A17346  39.668  33.859   7.760
 1135POPC   C1B17347  39.925  33.413   8.838
 1135POPC   C2B17348  39.647  33.337   8.476
 1135POPC   C3B17349  39.672  33.432   8.035
 1135POPC   C4B17350  39.996  33.448   7.751
 1136POPC   NC317351  29.471  19.291   9.619
 1136POPC   PO417352  28.887  19.090   9.380
 1136POPC   GL117353  29.255  19.191   9.166
 1136POPC   GL217354  29.435  18.912   9.166
 1136POPC   C1A17355  29.251  19.233   8.753
 1136POPC   D2A17356  29.077  19.354   8.381
 1136POPC   C3A17357  29.239  19.223   7.988
 1136POPC   C4A17358  28.915  19.361   7.707
 1136POPC   C1B17359  29.370  18.730   8.781
 1136POPC   C2B17360  29.361  18.888   8.373
 1136POPC   C3B17361  29.390  18.722   7.967
 1136POPC   C4B17362  29.093  18.851   7.661
 1137POPC   NC317363  32.520  19.005   9.538
 1137POPC   PO417364  31.980  18.647   9.613
 1137POPC   GL117365  32.153  18.890   9.228
 1137POPC   GL217366  31.965  19.181   9.078
 1137POPC   C1A17367  32.355  19.008   8.830
 1137POPC   D2A17368  32.090  19.018   8.485
 1137POPC   C3A17369  32.169  19.247   8.126
 1137POPC   C4A17370  32.253  19.151   7.685
 1137POPC   C1B17371  31.664  19.151   8.751
 1137POPC   C2B17372  31.686  19.288   8.316
 1137POPC   C3B17373  31.765  19.303   7.828
 1137POPC   C4B17374  31.830  19.424   7.393
 1138POPC   NC317375  10.277  18.448   9.475
 1138POPC   PO417376  10.570  17.835   9.628
 1138POPC   GL117377  10.589  18.083   9.246
 1138POPC   GL217378  10.751  17.852   9.022
 1138POPC   C1A17379  10.510  18.356   8.866
 1138POPC   D2A17380  10.329  18.225   8.491
 1138POPC   C3A17381  10.433  18.381   8.094
 1138POPC   C4A17382  10.183  18.582   7.811
 1138POPC   C1B17383  10.841  18.040   8.640
 1138POPC   C2B17384  11.016  18.078   8.234
 1138POPC   C3B17385  10.802  18.110   7.841
 1138POPC   C4B17386  10.575  18.347   7.594
 1139POPC   NC317387  11.510   2.484   9.590
 1139POPC   PO417388  10.971   2.787   9.441
 1139POPC   GL117389  11.115   2.680   9.074
 1139POPC   GL217390  11.468   2.725   9.142
 1139POPC   C1A17391  11.067   2.926   8.728
 1139POPC   D2A17392  10.777   2.988   8.389
 1139POPC   C3A17393  11.000   2.826   8.055
 1139POPC   C4A17394  11.183   2.935   7.674
 1139POPC   C1B17395  11.619   2.868   8.776
 1139POPC   C2B17396  11.422   2.923   8.385
 1139POPC   C3B17397  11.532   2.834   8.017
 1139POPC   C4B17398  11.648   2.750   7.619
 1140POPC   NC317399  15.695   2.260   9.406
 1140POPC   PO417400  15.968   1.659   9.528
 1140POPC   GL117401  15.693   1.804   9.184
 1140POPC   GL217402  15.872   2.114   8.958
 1140POPC   C1A17403  15.777   1.658   8.796
 1140POPC   D2A17404  16.155   1.816   8.593
 1140POPC   C3A17405  16.153   1.850   8.138
 1140POPC   C4A17406  16.003   1.855   7.695
 1140POPC   C1B17407  16.211   2.325   8.684
 1140POPC   C2B17408  16.175   2.492   8.289
 1140POPC   C3B17409  15.981   2.316   7.934
 1140POPC   C4B17410  15.782   2.381   7.527
 1141POPC   NC317411  41.685  36.693   9.388
 1141POPC   PO417412  41.167  37.085   9.635
 1141POPC   GL117413  41.381  37.086   9.247
 1141POPC   GL217414  41.291  36.753   9.088
 1141POPC   C1A17415  41.470  37.166   8.802
 1141POPC   D2A17416  41.479  36.839   8.446
 1141POPC   C3A17417  41.654  36.955   8.035
 1141POPC   C4A17418  41.500  37.219   7.699
 1141POPC   C1B17419  41.210  36.472   8.772
 1141POPC   C2B17420  41.323  36.272   8.386
 1141POPC   C3B17421  41.340  36.491   8.008
 1141POPC   C4B17422  41.386  36.738   7.640
 1142POPC   NC317423   9.639  16.889   9.419
 1142POPC   PO417424  10.056  16.331   9.416
 1142POPC   GL117425   9.910  16.598   9.092
 1142POPC   GL217426   9.528  16.602   9.044
 1142POPC   C1A17427   9.878  16.688   8.676
 1142POPC   D2A17428   9.728  16.426   8.342
 1142POPC   C3A17429   9.757  16.590   7.935
 1142POPC   C4A17430   9.984  16.967   7.804
 1142POPC   C1B17431   9.351  16.659   8.650
 1142POPC   C2B17432   9.356  16.751   8.226
 1142POPC   C3B17433   9.329  16.821   7.813
 1142POPC   C4B17434   9.203  17.155   7.609
 1143POPC   NC317435  23.931  37.058   9.652
 1143POPC   PO417436  23.561  36.660   9.349
 1143POPC   GL117437  23.636  37.037   9.140
 1143POPC   GL217438  23.996  37.151   9.169
 1143POPC   C1A17439  23.468  36.920   8.744
 1143POPC   D2A17440  23.671  36.784   8.393
 1143POPC   C3A17441  23.437  36.747   8.042
 1143POPC   C4A17442  23.325  37.040   7.728
 1143POPC   C1B17443  24.035  36.944   8.752
 1143POPC   C2B17444  24.097  37.052   8.295
 1143POPC   C3B17445  23.926  36.816   7.923
 1143POPC   C4B17446  23.975  36.863   7.447
 1144POPC   NC317447  43.449  40.787   9.410
 1144POPC   PO417448  42.778  40.811   9.439
 1144POPC   GL117449  43.030  40.936   9.099
 1144POPC   GL217450  43.133  40.590   9.072
 1144POPC   C1A17451  43.239  40.914   8.686
 1144POPC   D2A17452  43.403  40.683   8.313
 1144POPC   C3A17453  43.461  40.933   7.927
 1144POPC   C4A17454  43.207  41.250   7.745
 1144POPC   C1B17455  42.787  40.583   8.798
 1144POPC   C2B17456  42.687  40.389   8.437
 1144POPC   C3B17457  42.811  40.367   8.075
 1144POPC   C4B17458  43.130  40.550   7.887
 1145POPC   NC317459  13.796  35.283   9.543
 1145POPC   PO417460  13.702  35.909   9.557
 1145POPC   GL117461  13.509  35.624   9.205
 1145POPC   GL217462  13.472  35.256   9.141
 1145POPC   C1A17463  13.643  35.532   8.758
 1145POPC   D2A17464  13.438  35.504   8.382
 1145POPC   C3A17465  13.642  35.403   8.004
 1145POPC   C4A17466  13.639  35.607   7.620
 1145POPC   C1B17467  13.544  35.012   8.760
 1145POPC   C2B17468  13.435  34.988   8.329
 1145POPC   C3B17469  13.689  34.861   7.994
 1145POPC   C4B17470  13.598  35.052   7.628
 1146POPC   NC317471   8.774  12.085   9.378
 1146POPC   PO417472   8.256  11.738   9.453
 1146POPC   GL117473   8.324  12.105   9.127
 1146POPC   GL217474   8.048  12.320   9.010
 1146POPC   C1A17475   8.394  12.163   8.676
 1146POPC   D2A17476   8.477  12.074   8.263
 1146POPC   C3A17477   8.354  12.217   7.911
 1146POPC   C4A17478   8.606  11.928   7.712
 1146POPC   C1B17479   7.877  12.167   8.679
 1146POPC   C2B17480   8.021  12.299   8.307
 1146POPC   C3B17481   7.865  12.053   8.001
 1146POPC   C4B17482   7.619  12.092   7.668
 1147POPC   NC317483  26.304  29.782   9.380
 1147POPC   PO417484  25.629  29.780   9.469
 1147POPC   GL117485  25.911  30.012   9.148
 1147POPC   GL217486  26.232  30.179   9.039
 1147POPC   C1A17487  25.810  29.947   8.723
 1147POPC   D2A17488  25.853  29.579   8.504
 1147POPC   C3A17489  25.847  29.587   8.049
 1147POPC   C4A17490  25.953  29.834   7.636
 1147POPC   C1B17491  26.303  29.866   8.716
 1147POPC   C2B17492  26.203  29.865   8.272
 1147POPC   C3B17493  26.365  29.986   7.873
 1147POPC   C4B17494  26.382  30.066   7.411
 1148POPC   NC317495  43.523  33.300   9.610
 1148POPC   PO417496  43.978  32.836   9.732
 1148POPC   GL117497  43.974  32.803   9.303
 1148POPC   GL217498  43.870  33.120   9.237
 1148POPC   C1A17499  44.090  32.843   8.862
 1148POPC   D2A17500  43.858  33.034   8.528
 1148POPC   C3A17501  44.043  32.946   8.162
 1148POPC   C4A17502  43.870  32.911   7.776
 1148POPC   C1B17503  43.788  33.380   8.896
 1148POPC   C2B17504  43.725  33.519   8.482
 1148POPC   C3B17505  43.694  33.325   8.101
 1148POPC   C4B17506  43.691  33.381   7.693
 1149POPC   NC317507  38.005  36.973   9.541
 1149POPC   PO417508  38.529  36.529   9.508
 1149POPC   GL117509  38.426  36.844   9.216
 1149POPC   GL217510  38.644  36.702   8.964
 1149POPC   C1A17511  38.255  37.050   8.865
 1149POPC   D2A17512  38.169  36.915   8.474
 1149POPC   C3A17513  38.280  37.060   8.109
 1149POPC   C4A17514  38.188  36.942   7.704
 1149POPC   C1B17515  38.766  37.013   8.687
 1149POPC   C2B17516  38.777  36.949   8.251
 1149POPC   C3B17517  38.605  36.734   7.889
 1149POPC   C4B17518  38.616  36.893   7.451
 1150POPC   NC317519   5.748   9.152   9.558
 1150POPC   PO417520   5.670   8.451   9.712
 1150POPC   GL117521   5.874   8.748   9.279
 1150POPC   GL217522   6.022   9.113   9.125
 1150POPC   C1A17523   5.638   8.931   8.842
 1150POPC   D2A17524   5.411   8.798   8.424
 1150POPC   C3A17525   5.626   8.834   8.007
 1150POPC   C4A17526   5.738   8.803   7.543
 1150POPC   C1B17527   6.067   9.180   8.666
 1150POPC   C2B17528   6.038   9.010   8.235
 1150POPC   C3B17529   6.165   8.850   7.831
 1150POPC   C4B17530   6.276   8.944   7.363
 1151POPC   NC317531  28.301  21.741   9.665
 1151POPC   PO417532  28.764  22.204   9.624
 1151POPC   GL117533  28.457  22.226   9.255
 1151POPC   GL217534  28.170  21.958   9.208
 1151POPC   C1A17535  28.419  22.204   8.789
 1151POPC   D2A17536  28.349  22.446   8.407
 1151POPC   C3A17537  28.383  22.284   7.986
 1151POPC   C4A17538  28.026  22.429   7.753
 1151POPC   C1B17539  28.054  21.781   8.786
 1151POPC   C2B17540  28.261  21.874   8.381
 1151POPC   C3B17541  28.424  21.744   7.967
 1151POPC   C4B17542  28.162  21.560   7.648
 1152POPC   NC317543  21.628   4.195   9.650
 1152POPC   PO417544  22.331   4.273   9.562
 1152POPC   GL117545  22.360   4.211   9.123
 1152POPC   GL217546  22.004   4.318   9.045
 1152POPC   C1A17547  22.330   4.120   8.680
 1152POPC   D2A17548  21.991   4.325   8.449
 1152POPC   C3A17549  21.865   4.206   8.046
 1152POPC   C4A17550  22.155   4.093   7.782
 1152POPC   C1B17551  22.296   4.608   8.818
 1152POPC   C2B17552  22.484   4.602   8.421
 1152POPC   C3B17553  22.507   4.334   8.045
 1152POPC   C4B17554  22.387   4.503   7.614
 1153POPC   NC317555  19.989  14.385   9.670
 1153POPC   PO417556  19.320  14.299   9.474
 1153POPC   GL117557  19.713  14.413   9.218
 1153POPC   GL217558  20.069  14.432   9.150
 1153POPC   C1A17559  19.751  14.623   8.797
 1153POPC   D2A17560  20.013  14.724   8.450
 1153POPC   C3A17561  19.821  14.615   8.037
 1153POPC   C4A17562  19.666  14.645   7.630
 1153POPC   C1B17563  19.848  14.130   8.825
 1153POPC   C2B17564  19.721  13.952   8.443
 1153POPC   C3B17565  19.653  14.104   8.025
 1153POPC   C4B17566  19.874  14.204   7.679
 1154POPC   NC317567  25.536  16.046   9.396
 1154POPC   PO417568  26.063  15.879   9.658
 1154POPC   GL117569  26.010  16.124   9.222
 1154POPC   GL217570  25.706  16.352   9.067
 1154POPC   C1A17571  25.975  15.869   8.847
 1154POPC   D2A17572  25.976  15.561   8.501
 1154POPC   C3A17573  26.123  15.755   8.139
 1154POPC   C4A17574  25.985  15.718   7.754
 1154POPC   C1B17575  25.559  16.125   8.719
 1154POPC   C2B17576  25.769  16.052   8.376
 1154POPC   C3B17577  25.643  15.988   8.017
 1154POPC   C4B17578  25.642  16.058   7.624
 1155POPC   NC317579   3.888  18.946   9.528
 1155POPC   PO417580   3.319  19.231   9.597
 1155POPC   GL117581   3.413  19.088   9.187
 1155POPC   GL217582   3.688  19.298   9.170
 1155POPC   C1A17583   3.529  19.125   8.725
 1155POPC   D2A17584   3.507  19.034   8.285
 1155POPC   C3A17585   3.326  19.302   8.015
 1155POPC   C4A17586   3.102  19.054   7.788
 1155POPC   C1B17587   3.996  19.296   8.854
 1155POPC   C2B17588   4.005  19.144   8.429
 1155POPC   C3B17589   3.885  19.265   7.994
 1155POPC   C4B17590   3.621  18.956   7.781
 1156POPC   NC317591  38.983  26.334   9.569
 1156POPC   PO417592  39.406  25.807   9.569
 1156POPC   GL117593  39.343  26.103   9.278
 1156POPC   GL217594  39.030  25.961   9.204
 1156POPC   C1A17595  39.330  26.203   8.837
 1156POPC   D2A17596  39.523  26.271   8.423
 1156POPC   C3A17597  39.286  26.405   8.052
 1156POPC   C4A17598  38.929  26.283   7.820
 1156POPC   C1B17599  38.867  25.892   8.803
 1156POPC   C2B17600  39.029  26.079   8.410
 1156POPC   C3B17601  39.338  25.908   8.110
 1156POPC   C4B17602  39.179  25.865   7.717
 1157POPC   NC317603  35.939  30.339   9.514
 1157POPC   PO417604  36.259  30.973   9.581
 1157POPC   GL117605  36.014  30.792   9.263
 1157POPC   GL217606  36.302  30.586   9.203
 1157POPC   C1A17607  35.823  30.712   8.858
 1157POPC   D2A17608  35.858  30.623   8.414
 1157POPC   C3A17609  35.794  30.862   8.028
 1157POPC   C4A17610  36.105  31.005   7.743
 1157POPC   C1B17611  36.331  30.832   8.851
 1157POPC   C2B17612  36.409  30.712   8.462
 1157POPC   C3B17613  36.278  30.686   8.093
 1157POPC   C4B17614  36.418  30.604   7.698
 1158POPC   NC317615  28.628  29.367   9.786
 1158POPC   PO417616  28.138  29.002   9.550
 1158POPC   GL117617  28.228  28.876   9.107
 1158POPC   GL217618  28.605  28.844   9.069
 1158POPC   C1A17619  28.287  28.750   8.684
 1158POPC   D2A17620  28.280  29.034   8.360
 1158POPC   C3A17621  28.213  28.883   7.994
 1158POPC   C4A17622  28.279  28.994   7.606
 1158POPC   C1B17623  28.707  29.057   8.665
 1158POPC   C2B17624  28.672  29.368   8.322
 1158POPC   C3B17625  28.497  29.328   7.922
 1158POPC   C4B17626  28.730  29.226   7.535
 1159POPC   NC317627   7.867  23.771   9.242
 1159POPC   PO417628   7.330  23.398   9.524
 1159POPC   GL117629   7.343  23.595   9.133
 1159POPC   GL217630   7.354  23.960   9.188
 1159POPC   C1A17631   7.503  23.503   8.718
 1159POPC   D2A17632   7.411  23.628   8.303
 1159POPC   C3A17633   7.637  23.487   7.937
 1159POPC   C4A17634   7.435  23.540   7.560
 1159POPC   C1B17635   7.261  23.972   8.719
 1159POPC   C2B17636   7.287  24.149   8.280
 1159POPC   C3B17637   7.429  23.955   7.889
 1159POPC   C4B17638   7.390  24.034   7.438
 1160POPC   NC317639  10.124  29.906   9.567
 1160POPC   PO417640   9.405  29.952   9.566
 1160POPC   GL117641   9.722  30.094   9.274
 1160POPC   GL217642   9.868  29.766   9.140
 1160POPC   C1A17643   9.750  30.144   8.836
 1160POPC   D2A17644   9.781  29.881   8.479
 1160POPC   C3A17645   9.711  30.163   8.136
 1160POPC   C4A17646  10.002  30.046   7.816
 1160POPC   C1B17647   9.483  29.658   8.888
 1160POPC   C2B17648   9.414  29.519   8.434
 1160POPC   C3B17649   9.559  29.696   8.030
 1160POPC   C4B17650   9.396  29.598   7.636
 1161POPC   NC317651  25.162  30.486   9.426
 1161POPC   PO417652  24.907  31.084   9.461
 1161POPC   GL117653  25.116  30.912   9.107
 1161POPC   GL217654  25.426  30.775   9.106
 1161POPC   C1A17655  25.085  30.661   8.729
 1161POPC   D2A17656  25.299  30.630   8.356
 1161POPC   C3A17657  25.128  30.674   7.982
 1161POPC   C4A17658  25.327  30.587   7.568
 1161POPC   C1B17659  25.584  30.885   8.707
 1161POPC   C2B17660  25.790  30.685   8.342
 1161POPC   C3B17661  25.658  30.771   7.928
 1161POPC   C4B17662  25.363  31.077   7.730
 1162POPC   NC317663  37.506  32.069   9.585
 1162POPC   PO417664  37.579  32.715   9.597
 1162POPC   GL117665  37.757  32.491   9.226
 1162POPC   GL217666  37.777  32.130   9.160
 1162POPC   C1A17667  37.538  32.410   8.806
 1162POPC   D2A17668  37.543  32.145   8.420
 1162POPC   C3A17669  37.469  32.299   7.986
 1162POPC   C4A17670  37.608  32.100   7.595
 1162POPC   C1B17671  37.967  32.142   8.710
 1162POPC   C2B17672  38.040  32.346   8.303
 1162POPC   C3B17673  37.982  32.344   7.856
 1162POPC   C4B17674  38.106  32.049   7.495
 1163POPC   NC317675  41.917  42.868   9.726
 1163POPC   PO417676  41.396  43.290   9.440
 1163POPC   GL117677  41.397  43.104   9.032
 1163POPC   GL217678  41.723  43.201   8.927
 1163POPC   C1A17679  41.381  43.226   8.571
 1163POPC   D2A17680  41.731  43.336   8.329
 1163POPC   C3A17681  41.627  43.259   7.925
 1163POPC   C4A17682  41.367  42.982   7.682
 1163POPC   C1B17683  41.712  42.845   8.613
 1163POPC   C2B17684  41.584  42.769   8.214
 1163POPC   C3B17685  41.849  42.780   7.889
 1163POPC   C4B17686  41.881  43.036   7.551
 1164POPC   NC317687  12.498   1.796   9.471
 1164POPC   PO417688  13.134   2.036   9.574
 1164POPC   GL117689  12.974   2.177   9.156
 1164POPC   GL217690  12.725   1.979   9.085
 1164POPC   C1A17691  12.852   2.232   8.697
 1164POPC   D2A17692  13.084   2.238   8.383
 1164POPC   C3A17693  12.869   2.095   8.027
 1164POPC   C4A17694  12.981   2.217   7.619
 1164POPC   C1B17695  12.554   1.732   8.757
 1164POPC   C2B17696  12.527   1.806   8.334
 1164POPC   C3B17697  12.608   1.627   7.934
 1164POPC   C4B17698  12.722   1.785   7.493
 1165POPC   NC317699  16.230  27.340   9.913
 1165POPC   PO417700  16.085  27.887   9.618
 1165POPC   GL117701  16.026  27.665   9.239
 1165POPC   GL217702  16.333  27.563   9.242
 1165POPC   C1A17703  15.885  27.469   8.840
 1165POPC   D2A17704  15.900  27.617   8.420
 1165POPC   C3A17705  15.859  27.430   8.011
 1165POPC   C4A17706  15.549  27.460   7.723
 1165POPC   C1B17707  16.367  27.621   8.803
 1165POPC   C2B17708  16.414  27.692   8.381
 1165POPC   C3B17709  16.278  27.724   7.964
 1165POPC   C4B17710  16.017  27.755   7.641
 1166POPC   NC317711   7.955  39.399   9.389
 1166POPC   PO417712   8.525  39.040   9.438
 1166POPC   GL117713   8.392  39.358   9.125
 1166POPC   GL217714   8.180  39.095   9.057
 1166POPC   C1A17715   8.150  39.457   8.723
 1166POPC   D2A17716   7.943  39.265   8.349
 1166POPC   C3A17717   8.079  39.474   7.994
 1166POPC   C4A17718   7.931  39.546   7.615
 1166POPC   C1B17719   8.128  38.940   8.686
 1166POPC   C2B17720   8.410  38.804   8.387
 1166POPC   C3B17721   8.303  39.031   8.037
 1166POPC   C4B17722   8.291  39.152   7.608
 1167POPC   NC317723   2.455  17.832   9.673
 1167POPC   PO417724   2.789  18.403   9.472
 1167POPC   GL117725   2.673  18.325   9.092
 1167POPC   GL217726   2.538  18.023   9.210
 1167POPC   C1A17727   2.893  18.367   8.703
 1167POPC   D2A17728   2.978  18.640   8.372
 1167POPC   C3A17729   2.917  18.335   8.066
 1167POPC   C4A17730   2.809  18.191   7.695
 1167POPC   C1B17731   2.467  17.843   8.834
 1167POPC   C2B17732   2.643  17.992   8.427
 1167POPC   C3B17733   2.417  18.003   8.027
 1167POPC   C4B17734   2.386  17.910   7.585
 1168POPC   NC317735  28.037  33.666   9.461
 1168POPC   PO417736  27.449  33.656   9.590
 1168POPC   GL117737  27.559  33.660   9.162
 1168POPC   GL217738  27.672  33.996   9.066
 1168POPC   C1A17739  27.647  33.597   8.735
 1168POPC   D2A17740  27.524  33.675   8.309
 1168POPC   C3A17741  27.784  33.538   7.988
 1168POPC   C4A17742  27.797  33.606   7.557
 1168POPC   C1B17743  27.443  34.073   8.650
 1168POPC   C2B17744  27.642  34.187   8.240
 1168POPC   C3B17745  27.730  34.050   7.797
 1168POPC   C4B17746  27.653  34.072   7.319
 1169POPC   NC317747  13.070   1.224   9.475
 1169POPC   PO417748  12.439   1.340   9.394
 1169POPC   GL117749  12.802   1.462   9.124
 1169POPC   GL217750  13.132   1.656   9.204
 1169POPC   C1A17751  12.899   1.321   8.727
 1169POPC   D2A17752  12.633   1.288   8.380
 1169POPC   C3A17753  12.801   1.109   7.994
 1169POPC   C4A17754  12.644   1.224   7.599
 1169POPC   C1B17755  13.078   1.796   8.764
 1169POPC   C2B17756  13.038   1.660   8.306
 1169POPC   C3B17757  13.093   1.662   7.819
 1169POPC   C4B17758  13.171   1.395   7.447
 1170POPC   NC317759  32.715   6.092   9.378
 1170POPC   PO417760  32.342   5.555   9.488
 1170POPC   GL117761  32.240   5.687   9.064
 1170POPC   GL217762  31.992   5.964   9.048
 1170POPC   C1A17763  32.276   5.741   8.627
 1170POPC   D2A17764  32.259   5.510   8.249
 1170POPC   C3A17765  32.393   5.694   7.894
 1170POPC   C4A17766  32.384   6.101   7.826
 1170POPC   C1B17767  31.766   5.959   8.683
 1170POPC   C2B17768  31.935   5.951   8.283
 1170POPC   C3B17769  31.898   5.781   7.911
 1170POPC   C4B17770  32.063   5.785   7.502
 1171POPC   NC317771  42.297  15.769   9.554
 1171POPC   PO417772  42.250  16.345   9.374
 1171POPC   GL117773  42.311  16.009   9.081
 1171POPC   GL217774  42.535  15.726   9.106
 1171POPC   C1A17775  42.160  15.818   8.717
 1171POPC   D2A17776  42.025  15.991   8.354
 1171POPC   C3A17777  42.073  15.758   7.990
 1171POPC   C4A17778  42.060  15.995   7.609
 1171POPC   C1B17779  42.658  15.865   8.696
 1171POPC   C2B17780  42.545  15.757   8.257
 1171POPC   C3B17781  42.539  15.808   7.801
 1171POPC   C4B17782  42.464  15.815   7.358
 1172POPC   NC317783   3.451   8.538   9.544
 1172POPC   PO417784   3.663   9.172   9.535
 1172POPC   GL117785   3.454   8.938   9.189
 1172POPC   GL217786   3.741   8.740   9.116
 1172POPC   C1A17787   3.428   8.907   8.721
 1172POPC   D2A17788   3.228   9.153   8.403
 1172POPC   C3A17789   3.429   9.107   8.023
 1172POPC   C4A17790   3.380   8.815   7.713
 1172POPC   C1B17791   3.931   8.948   8.726
 1172POPC   C2B17792   3.802   8.878   8.293
 1172POPC   C3B17793   3.885   8.987   7.851
 1172POPC   C4B17794   4.029   9.387   7.697
 1173POPC   NC317795   3.452   2.562   9.423
 1173POPC   PO417796   3.455   1.871   9.439
 1173POPC   GL117797   3.444   2.069   9.099
 1173POPC   GL217798   3.757   2.236   9.148
 1173POPC   C1A17799   3.624   1.882   8.740
 1173POPC   D2A17800   3.758   1.621   8.398
 1173POPC   C3A17801   3.632   1.850   8.030
 1173POPC   C4A17802   3.404   1.798   7.669
 1173POPC   C1B17803   3.612   2.384   8.744
 1173POPC   C2B17804   3.421   2.213   8.394
 1173POPC   C3B17805   3.591   2.382   8.042
 1173POPC   C4B17806   3.614   2.260   7.644
 1174POPC   NC317807   3.239  40.131   9.518
 1174POPC   PO417808   3.442  39.528   9.509
 1174POPC   GL117809   3.519  39.838   9.120
 1174POPC   GL217810   3.352  40.183   9.046
 1174POPC   C1A17811   3.577  39.969   8.660
 1174POPC   D2A17812   3.457  39.838   8.248
 1174POPC   C3A17813   3.606  40.083   7.888
 1174POPC   C4A17814   3.580  40.192   7.424
 1174POPC   C1B17815   3.175  40.332   8.678
 1174POPC   C2B17816   3.253  40.291   8.278
 1174POPC   C3B17817   3.110  40.168   7.865
 1174POPC   C4B17818   3.073  40.195   7.403
 1175POPC   NC317819  37.312   6.018   9.570
 1175POPC   PO417820  37.929   5.967   9.617
 1175POPC   GL117821  37.755   5.726   9.274
 1175POPC   GL217822  37.400   5.574   9.256
 1175POPC   C1A17823  37.768   5.833   8.850
 1175POPC   D2A17824  37.601   5.740   8.461
 1175POPC   C3A17825  37.724   6.024   8.142
 1175POPC   C4A17826  37.947   6.081   7.760
 1175POPC   C1B17827  37.250   5.815   8.885
 1175POPC   C2B17828  37.144   5.995   8.474
 1175POPC   C3B17829  37.246   5.780   8.080
 1175POPC   C4B17830  37.536   5.735   7.756
 1176POPC   NC317831  12.426  34.420   9.536
 1176POPC   PO417832  11.764  34.620   9.490
 1176POPC   GL117833  11.966  34.688   9.132
 1176POPC   GL217834  12.066  34.338   9.146
 1176POPC   C1A17835  12.147  34.602   8.719
 1176POPC   D2A17836  11.937  34.774   8.406
 1176POPC   C3A17837  12.082  34.651   8.050
 1176POPC   C4A17838  11.978  34.779   7.668
 1176POPC   C1B17839  12.396  34.170   8.870
 1176POPC   C2B17840  12.582  34.353   8.515
 1176POPC   C3B17841  12.484  34.340   8.080
 1176POPC   C4B17842  12.377  34.461   7.662
 1177POPC   NC317843   7.759  19.207   9.338
 1177POPC   PO417844   7.266  18.671   9.475
 1177POPC   GL117845   7.422  18.878   9.113
 1177POPC   GL217846   7.673  18.643   9.064
 1177POPC   C1A17847   7.296  19.122   8.725
 1177POPC   D2A17848   7.232  18.964   8.292
 1177POPC   C3A17849   7.237  19.239   7.974
 1177POPC   C4A17850   7.672  19.363   7.867
 1177POPC   C1B17851   7.540  18.684   8.633
 1177POPC   C2B17852   7.679  18.702   8.214
 1177POPC   C3B17853   7.554  18.869   7.813
 1177POPC   C4B17854   7.665  18.764   7.360
 1178POPC   NC317855  39.652  23.195   9.485
 1178POPC   PO417856  39.985  22.664   9.387
 1178POPC   GL117857  40.213  22.831   9.074
 1178POPC   GL217858  40.415  22.568   8.950
 1178POPC   C1A17859  40.032  23.088   8.749
 1178POPC   D2A17860  39.742  23.223   8.434
 1178POPC   C3A17861  39.868  23.142   8.027
 1178POPC   C4A17862  39.909  23.019   7.623
 1178POPC   C1B17863  40.511  22.927   8.668
 1178POPC   C2B17864  40.293  23.000   8.295
 1178POPC   C3B17865  40.164  22.719   7.956
 1178POPC   C4B17866  40.340  22.722   7.525
 1179POPC   NC317867  13.891  21.260   9.534
 1179POPC   PO417868  13.567  21.929   9.702
 1179POPC   GL117869  13.782  21.714   9.356
 1179POPC   GL217870  13.496  21.517   9.291
 1179POPC   C1A17871  13.800  21.479   8.921
 1179POPC   D2A17872  13.742  21.557   8.515
 1179POPC   C3A17873  13.657  21.282   8.176
 1179POPC   C4A17874  13.708  21.414   7.735
 1179POPC   C1B17875  13.301  21.644   8.911
 1179POPC   C2B17876  13.224  21.652   8.462
 1179POPC   C3B17877  13.366  21.681   8.018
 1179POPC   C4B17878  13.262  21.590   7.557
 1180POPC   NC317879  16.493  28.073   9.530
 1180POPC   PO417880  16.630  27.381   9.660
 1180POPC   GL117881  16.829  27.503   9.240
 1180POPC   GL217882  16.918  27.872   9.219
 1180POPC   C1A17883  16.818  27.389   8.789
 1180POPC   D2A17884  16.695  27.252   8.362
 1180POPC   C3A17885  16.741  27.534   8.029
 1180POPC   C4A17886  17.045  27.774   7.856
 1180POPC   C1B17887  16.999  28.054   8.797
 1180POPC   C2B17888  16.917  27.899   8.376
 1180POPC   C3B17889  16.671  28.066   8.044
 1180POPC   C4B17890  16.610  27.949   7.641
 1181POPC   NC317891   3.274  43.579   9.365
 1181POPC   PO417892   2.824  43.093   9.523
 1181POPC   GL117893   2.655  42.933   9.184
 1181POPC   GL217894   2.501  42.617   9.264
 1181POPC   C1A17895   2.424  43.099   8.822
 1181POPC   D2A17896   2.333  43.292   8.418
 1181POPC   C3A17897   2.476  43.141   8.019
 1181POPC   C4A17898   2.899  43.196   7.815
 1181POPC   C1B17899   2.673  42.620   8.815
 1181POPC   C2B17900   2.591  42.807   8.433
 1181POPC   C3B17901   2.788  42.755   8.060
 1181POPC   C4B17902   2.597  42.750   7.696
 1182POPC   NC317903  43.640  30.986   9.356
 1182POPC   PO417904  44.212  30.564   9.495
 1182POPC   GL117905  43.935  30.580   9.128
 1182POPC   GL217906  43.825  30.851   8.914
 1182POPC   C1A17907  43.970  30.451   8.672
 1182POPC   D2A17908  43.944  30.826   8.395
 1182POPC   C3A17909  43.934  30.751   7.966
 1182POPC   C4A17910  43.973  30.397   7.692
 1182POPC   C1B17911  43.497  31.100   8.697
 1182POPC   C2B17912  43.520  31.200   8.254
 1182POPC   C3B17913  43.542  31.043   7.802
 1182POPC   C4B17914  43.857  30.867   7.476
 1183POPC   NC317915   7.512  36.921   9.474
 1183POPC   PO417916   6.984  36.504   9.433
 1183POPC   GL117917   7.164  36.834   9.097
 1183POPC   GL217918   7.467  37.082   9.011
 1183POPC   C1A17919   7.072  37.065   8.705
 1183POPC   D2A17920   7.034  37.386   8.415
 1183POPC   C3A17921   7.195  37.290   8.019
 1183POPC   C4A17922   7.115  37.054   7.645
 1183POPC   C1B17923   7.601  36.948   8.651
 1183POPC   C2B17924   7.361  36.868   8.284
 1183POPC   C3B17925   7.283  36.621   7.900
 1183POPC   C4B17926   7.465  36.726   7.475
 1184POPC   NC317927  22.153  35.523   9.621
 1184POPC   PO417928  22.008  34.861   9.577
 1184POPC   GL117929  22.024  35.162   9.203
 1184POPC   GL217930  22.113  35.532   9.121
 1184POPC   C1A17931  21.952  35.220   8.748
 1184POPC   D2A17932  22.222  35.178   8.386
 1184POPC   C3A17933  21.993  35.292   8.034
 1184POPC   C4A17934  22.106  35.519   7.688
 1184POPC   C1B17935  22.402  35.521   8.814
 1184POPC   C2B17936  22.473  35.657   8.413
 1184POPC   C3B17937  22.538  35.516   8.002
 1184POPC   C4B17938  22.529  35.756   7.611
 1185POPC   NC317939  20.462  32.474   9.514
 1185POPC   PO417940  20.220  31.877   9.155
 1185POPC   GL117941  20.567  32.162   9.033
 1185POPC   GL217942  20.758  32.504   9.108
 1185POPC   C1A17943  20.764  32.183   8.629
 1185POPC   D2A17944  20.884  31.845   8.327
 1185POPC   C3A17945  20.897  31.954   7.888
 1185POPC   C4A17946  20.516  32.141   7.714
 1185POPC   C1B17947  20.498  32.601   8.793
 1185POPC   C2B17948  20.378  32.576   8.347
 1185POPC   C3B17949  20.562  32.593   7.934
 1185POPC   C4B17950  20.362  32.641   7.533
 1186POPC   NC317951  16.961  11.076   9.923
 1186POPC   PO417952  16.461  11.260   9.487
 1186POPC   GL117953  16.678  11.412   9.144
 1186POPC   GL217954  17.007  11.268   9.225
 1186POPC   C1A17955  16.553  11.407   8.700
 1186POPC   D2A17956  16.239  11.352   8.358
 1186POPC   C3A17957  16.411  11.398   7.928
 1186POPC   C4A17958  16.767  11.585   7.659
 1186POPC   C1B17959  17.073  11.300   8.803
 1186POPC   C2B17960  16.901  11.073   8.451
 1186POPC   C3B17961  16.894  11.295   8.064
 1186POPC   C4B17962  16.907  11.097   7.645
 1187POPC   NC317963  13.645  39.621   9.849
 1187POPC   PO417964  13.584  39.053   9.569
 1187POPC   GL117965  13.434  39.154   9.166
 1187POPC   GL217966  13.569  38.856   9.066
 1187POPC   C1A17967  13.409  39.441   8.784
 1187POPC   D2A17968  13.662  39.458   8.383
 1187POPC   C3A17969  13.533  39.345   7.938
 1187POPC   C4A17970  13.240  39.369   7.585
 1187POPC   C1B17971  13.534  38.969   8.628
 1187POPC   C2B17972  13.593  38.946   8.238
 1187POPC   C3B17973  13.638  38.790   7.889
 1187POPC   C4B17974  13.555  38.995   7.530
 1188POPC   NC317975  29.229  22.096   9.642
 1188POPC   PO417976  29.104  22.723   9.537
 1188POPC   GL117977  29.036  22.396   9.182
 1188POPC   GL217978  29.243  22.097   9.147
 1188POPC   C1A17979  28.985  22.195   8.731
 1188POPC   D2A17980  28.720  22.099   8.354
 1188POPC   C3A17981  28.886  22.017   7.932
 1188POPC   C4A17982  28.872  22.264   7.538
 1188POPC   C1B17983  29.474  21.936   8.826
 1188POPC   C2B17984  29.633  21.983   8.422
 1188POPC   C3B17985  29.541  22.230   8.088
 1188POPC   C4B17986  29.344  22.173   7.703
 1189POPC   NC317987  40.564  34.340   9.317
 1189POPC   PO417988  41.124  34.658   9.579
 1189POPC   GL117989  40.803  34.710   9.133
 1189POPC   GL217990  40.513  34.860   9.146
 1189POPC   C1A17991  40.834  34.320   8.751
 1189POPC   D2A17992  41.009  34.501   8.418
 1189POPC   C3A17993  40.793  34.371   8.101
 1189POPC   C4A17994  40.891  34.424   7.720
 1189POPC   C1B17995  40.489  34.666   8.708
 1189POPC   C2B17996  40.584  34.810   8.302
 1189POPC   C3B17997  40.535  34.753   7.863
 1189POPC   C4B17998  40.420  34.257   7.756
 1190POPC   NC317999  28.843   3.911   9.332
 1190POPC   PO418000  28.994   3.267   9.537
 1190POPC   GL118001  29.144   3.454   9.137
 1190POPC   GL218002  29.397   3.726   9.126
 1190POPC   C1A18003  29.119   3.592   8.706
 1190POPC   D2A18004  29.068   3.563   8.281
 1190POPC   C3A18005  29.042   3.223   8.028
 1190POPC   C4A18006  29.124   3.514   7.742
 1190POPC   C1B18007  29.481   3.947   8.733
 1190POPC   C2B18008  29.233   4.035   8.369
 1190POPC   C3B18009  29.395   3.919   7.947
 1190POPC   C4B18010  29.269   3.961   7.513
 1191POPC   NC318011  12.200  11.577   9.500
 1191POPC   PO418012  12.382  12.245   9.407
 1191POPC   GL118013  12.103  12.024   9.160
 1191POPC   GL218014  12.319  11.716   9.046
 1191POPC   C1A18015  11.943  12.246   8.793
 1191POPC   D2A18016  11.952  12.100   8.368
 1191POPC   C3A18017  11.841  12.250   7.975
 1191POPC   C4A18018  12.001  12.011   7.588
 1191POPC   C1B18019  12.410  11.989   8.754
 1191POPC   C2B18020  12.403  11.909   8.356
 1191POPC   C3B18021  12.340  12.092   7.977
 1191POPC   C4B18022  12.580  12.112   7.615
 1192POPC   NC318023  20.810  14.813   9.482
 1192POPC   PO418024  20.404  14.234   9.525
 1192POPC   GL118025  20.633  14.152   9.152
 1192POPC   GL218026  20.569  14.477   9.008
 1192POPC   C1A18027  20.972  14.096   8.838
 1192POPC   D2A18028  21.084  14.153   8.375
 1192POPC   C3A18029  20.715  14.181   8.078
 1192POPC   C4A18030  20.378  14.243   7.760
 1192POPC   C1B18031  20.565  14.296   8.587
 1192POPC   C2B18032  20.255  14.305   8.283
 1192POPC   C3B18033  20.323  14.665   8.028
 1192POPC   C4B18034  20.538  14.720   7.650
 1193POPC   NC318035  19.481   2.627   9.492
 1193POPC   PO418036  18.953   2.994   9.477
 1193POPC   GL118037  19.087   2.667   9.142
 1193POPC   GL218038  19.410   2.677   8.994
 1193POPC   C1A18039  18.882   2.655   8.744
 1193POPC   D2A18040  18.611   2.789   8.410
 1193POPC   C3A18041  18.689   2.651   8.002
 1193POPC   C4A18042  18.938   2.830   7.698
 1193POPC   C1B18043  19.414   2.874   8.621
 1193POPC   C2B18044  19.145   2.793   8.260
 1193POPC   C3B18045  19.386   2.843   7.890
 1193POPC   C4B18046  19.415   2.701   7.463
 1194POPC   NC318047  24.919   4.324   9.562
 1194POPC   PO418048  25.637   4.336   9.637
 1194POPC   GL118049  25.369   4.381   9.241
 1194POPC   GL218050  25.430   4.691   9.048
 1194POPC   C1A18051  25.151   4.254   8.833
 1194POPC   D2A18052  24.973   4.115   8.410
 1194POPC   C3A18053  25.258   4.313   8.105
 1194POPC   C4A18054  25.558   4.290   7.746
 1194POPC   C1B18055  25.092   4.769   8.781
 1194POPC   C2B18056  24.924   4.626   8.401
 1194POPC   C3B18057  25.037   4.764   7.998
 1194POPC   C4B18058  25.351   4.759   7.674
 1195POPC   NC318059  41.783  22.386   9.291
 1195POPC   PO418060  41.635  21.799   9.319
 1195POPC   GL118061  41.354  21.939   8.976
 1195POPC   GL218062  41.271  22.270   9.135
 1195POPC   C1A18063  41.333  21.975   8.527
 1195POPC   D2A18064  41.704  22.231   8.351
 1195POPC   C3A18065  41.765  22.034   7.993
 1195POPC   C4A18066  41.328  21.963   7.881
 1195POPC   C1B18067  41.380  22.427   8.753
 1195POPC   C2B18068  41.172  22.462   8.374
 1195POPC   C3B18069  41.242  22.467   7.952
 1195POPC   C4B18070  41.652  22.508   7.790
 1196POPC   NC318071  29.295   3.604   9.630
 1196POPC   PO418072  29.988   3.484   9.765
 1196POPC   GL118073  29.845   3.507   9.298
 1196POPC   GL218074  29.600   3.233   9.259
 1196POPC   C1A18075  30.084   3.390   8.890
 1196POPC   D2A18076  30.308   3.470   8.494
 1196POPC   C3A18077  30.096   3.443   8.127
 1196POPC   C4A18078  30.057   3.484   7.723
 1196POPC   C1B18079  29.580   3.359   8.823
 1196POPC   C2B18080  29.679   3.576   8.418
 1196POPC   C3B18081  29.595   3.445   7.986
 1196POPC   C4B18082  29.575   3.538   7.528
 1197POPC   NC318083   7.571  38.147   9.412
 1197POPC   PO418084   7.437  37.399   9.397
 1197POPC   GL118085   7.412  37.727   9.130
 1197POPC   GL218086   7.774  37.787   9.089
 1197POPC   C1A18087   7.227  37.801   8.728
 1197POPC   D2A18088   7.361  37.741   8.323
 1197POPC   C3A18089   7.425  37.898   7.958
 1197POPC   C4A18090   7.848  37.958   7.852
 1197POPC   C1B18091   7.663  37.498   8.733
 1197POPC   C2B18092   7.608  37.318   8.326
 1197POPC   C3B18093   7.704  37.449   7.945
 1197POPC   C4B18094   7.786  37.223   7.604
 1198POPC   NC318095  19.815  36.977   9.443
 1198POPC   PO418096  19.493  36.462   9.526
 1198POPC   GL118097  19.659  36.600   9.146
 1198POPC   GL218098  19.485  36.916   9.064
 1198POPC   C1A18099  19.909  36.821   8.800
 1198POPC   D2A18100  19.910  37.071   8.438
 1198POPC   C3A18101  19.960  36.856   8.043
 1198POPC   C4A18102  19.978  36.745   7.608
 1198POPC   C1B18103  19.422  36.681   8.710
 1198POPC   C2B18104  19.514  36.751   8.299
 1198POPC   C3B18105  19.456  36.868   7.881
 1198POPC   C4B18106  19.493  36.579   7.571
 1199POPC   NC318107  10.115  12.981   9.364
 1199POPC   PO418108   9.556  12.773   9.674
 1199POPC   GL118109   9.548  12.742   9.226
 1199POPC   GL218110   9.653  13.058   9.147
 1199POPC   C1A18111   9.456  12.705   8.753
 1199POPC   D2A18112   9.759  12.642   8.382
 1199POPC   C3A18113   9.727  12.854   7.960
 1199POPC   C4A18114   9.382  12.757   7.641
 1199POPC   C1B18115   9.888  12.989   8.748
 1199POPC   C2B18116  10.071  13.062   8.317
 1199POPC   C3B18117  10.080  13.229   7.899
 1199POPC   C4B18118  10.050  13.187   7.435
 1200POPC   NC318119  38.672   4.760   9.367
 1200POPC   PO418120  39.237   5.029   9.507
 1200POPC   GL118121  39.208   5.145   9.101
 1200POPC   GL218122  38.863   5.164   9.078
 1200POPC   C1A18123  39.178   5.284   8.666
 1200POPC   D2A18124  39.440   5.461   8.368
 1200POPC   C3A18125  39.397   5.363   7.941
 1200POPC   C4A18126  39.425   5.034   7.661
 1200POPC   C1B18127  38.906   4.853   8.749
 1200POPC   C2B18128  38.816   5.017   8.352
 1200POPC   C3B18129  38.966   4.985   7.928
 1200POPC   C4B18130  38.906   5.102   7.495
 1201POPC   NC318131  21.634  29.744   9.355
 1201POPC   PO418132  21.131  30.196   9.352
 1201POPC   GL118133  21.177  29.878   9.119
 1201POPC   GL218134  20.874  29.677   9.206
 1201POPC   C1A18135  21.393  29.916   8.730
 1201POPC   D2A18136  21.457  29.805   8.317
 1201POPC   C3A18137  21.445  30.062   7.923
 1201POPC   C4A18138  21.547  29.746   7.615
 1201POPC   C1B18139  20.950  29.601   8.761
 1201POPC   C2B18140  21.072  29.448   8.345
 1201POPC   C3B18141  21.131  29.657   7.959
 1201POPC   C4B18142  20.949  29.844   7.609
 1202POPC   NC318143  33.403   3.236   9.935
 1202POPC   PO418144  33.987   3.378   9.537
 1202POPC   GL118145  33.824   3.562   9.157
 1202POPC   GL218146  34.088   3.755   9.081
 1202POPC   C1A18147  33.767   3.713   8.712
 1202POPC   D2A18148  34.083   3.781   8.387
 1202POPC   C3A18149  33.839   3.706   8.033
 1202POPC   C4A18150  33.575   3.526   7.720
 1202POPC   C1B18151  34.239   3.478   8.770
 1202POPC   C2B18152  34.456   3.417   8.374
 1202POPC   C3B18153  34.270   3.310   7.996
 1202POPC   C4B18154  34.107   3.499   7.650
 1203POPC   NC318155   6.757  15.204   9.484
 1203POPC   PO418156   6.167  14.943   9.583
 1203POPC   GL118157   6.395  14.933   9.205
 1203POPC   GL218158   6.754  14.779   9.220
 1203POPC   C1A18159   6.444  15.141   8.820
 1203POPC   D2A18160   6.764  15.153   8.548
 1203POPC   C3A18161   6.740  15.170   8.138
 1203POPC   C4A18162   6.992  15.303   7.854
 1203POPC   C1B18163   6.637  14.672   8.822
 1203POPC   C2B18164   6.728  14.655   8.403
 1203POPC   C3B18165   6.510  14.705   8.021
 1203POPC   C4B18166   6.569  15.003   7.687
 1204POPC   NC318167  42.245  32.046   9.362
 1204POPC   PO418168  41.987  31.612   9.772
 1204POPC   GL118169  41.996  31.570   9.275
 1204POPC   GL218170  42.297  31.559   9.147
 1204POPC   C1A18171  42.048  31.278   8.839
 1204POPC   D2A18172  42.061  31.483   8.424
 1204POPC   C3A18173  42.337  31.401   8.082
 1204POPC   C4A18174  42.244  31.323   7.644
 1204POPC   C1B18175  42.496  31.509   8.757
 1204POPC   C2B18176  42.665  31.751   8.485
 1204POPC   C3B18177  42.617  31.851   8.068
 1204POPC   C4B18178  42.716  31.539   7.735
 1205POPC   NC318179  35.934  14.262   9.522
 1205POPC   PO418180  36.627  14.311   9.522
 1205POPC   GL118181  36.318  14.296   9.145
 1205POPC   GL218182  35.938  14.255   9.027
 1205POPC   C1A18183  36.262  14.575   8.768
 1205POPC   D2A18184  35.999  14.750   8.443
 1205POPC   C3A18185  36.197  14.557   8.051
 1205POPC   C4A18186  36.498  14.649   7.721
 1205POPC   C1B18187  36.179  14.050   8.713
 1205POPC   C2B18188  36.022  13.893   8.322
 1205POPC   C3B18189  36.021  14.088   7.922
 1205POPC   C4B18190  36.146  14.070   7.516
 1206POPC   NC318191  19.048  33.432   9.467
 1206POPC   PO418192  19.279  34.130   9.431
 1206POPC   GL118193  19.061  33.889   9.175
 1206POPC   GL218194  18.742  33.966   9.250
 1206POPC   C1A18195  19.141  33.821   8.752
 1206POPC   D2A18196  19.359  33.952   8.377
 1206POPC   C3A18197  19.105  33.849   7.993
 1206POPC   C4A18198  19.114  33.475   7.724
 1206POPC   C1B18199  18.723  34.166   8.845
 1206POPC   C2B18200  18.877  34.154   8.413
 1206POPC   C3B18201  18.791  34.308   8.003
 1206POPC   C4B18202  18.930  34.214   7.593
 1207POPC   NC318203   0.599   5.561   9.398
 1207POPC   PO418204   0.436   4.974   9.674
 1207POPC   GL118205   0.414   5.096   9.231
 1207POPC   GL218206   0.079   5.044   9.054
 1207POPC   C1A18207   0.500   5.221   8.817
 1207POPC   D2A18208   0.500   4.981   8.455
 1207POPC   C3A18209   0.652   5.202   8.131
 1207POPC   C4A18210   0.734   5.323   7.731
 1207POPC   C1B18211   0.030   5.098   8.622
 1207POPC   C2B18212   0.103   5.189   8.194
 1207POPC   C3B18213   0.273   5.105   7.775
 1207POPC   C4B18214   0.191   4.881   7.400
 1208POPC   NC318215   3.345  25.159   9.587
 1208POPC   PO418216   3.777  25.689   9.471
 1208POPC   GL118217   3.665  25.425   9.103
 1208POPC   GL218218   3.343  25.248   9.106
 1208POPC   C1A18219   3.506  25.372   8.659
 1208POPC   D2A18220   3.341  25.254   8.269
 1208POPC   C3A18221   3.556  25.298   7.920
 1208POPC   C4A18222   3.722  25.017   7.632
 1208POPC   C1B18223   3.190  25.009   8.792
 1208POPC   C2B18224   3.190  24.789   8.438
 1208POPC   C3B18225   3.051  24.886   8.031
 1208POPC   C4B18226   3.120  25.148   7.710
 1209POPC   NC318227   4.095  16.637   9.556
 1209POPC   PO418228   4.657  16.502   9.262
 1209POPC   GL118229   4.236  16.532   9.053
 1209POPC   GL218230   4.085  16.870   9.113
 1209POPC   C1A18231   4.239  16.599   8.599
 1209POPC   D2A18232   4.571  16.809   8.348
 1209POPC   C3A18233   4.540  16.731   7.891
 1209POPC   C4A18234   4.495  16.733   7.429
 1209POPC   C1B18235   4.295  17.074   8.764
 1209POPC   C2B18236   4.093  17.044   8.376
 1209POPC   C3B18237   3.933  17.085   7.987
 1209POPC   C4B18238   4.179  17.076   7.644
 1210POPC   NC318239  44.183  14.223   9.495
 1210POPC   PO418240  43.543  14.354   9.609
 1210POPC   GL118241  43.712  14.227   9.242
 1210POPC   GL218242  43.911  14.514   9.168
 1210POPC   C1A18243  43.770  14.206   8.788
 1210POPC   D2A18244  43.519  14.538   8.564
 1210POPC   C3A18245  43.537  14.399   8.157
 1210POPC   C4A18246  43.652  14.148   7.804
 1210POPC   C1B18247  43.949  14.724   8.794
 1210POPC   C2B18248  44.008  14.498   8.413
 1210POPC   C3B18249  44.025  14.441   7.981
 1210POPC   C4B18250  44.385  14.492   7.721
 1211POPC   NC318251   1.996  33.249   9.437
 1211POPC   PO418252   2.169  33.915   9.637
 1211POPC   GL118253   1.993  34.032   9.272
 1211POPC   GL218254   1.956  33.694   9.166
 1211POPC   C1A18255   1.993  34.089   8.818
 1211POPC   D2A18256   2.237  34.112   8.440
 1211POPC   C3A18257   2.089  33.922   8.085
 1211POPC   C4A18258   2.089  33.950   7.669
 1211POPC   C1B18259   1.950  33.414   8.826
 1211POPC   C2B18260   1.961  33.559   8.455
 1211POPC   C3B18261   1.773  33.460   8.123
 1211POPC   C4B18262   2.059  33.471   7.807
 1212POPC   NC318263   4.003  10.946   9.425
 1212POPC   PO418264   4.369  11.451   9.700
 1212POPC   GL118265   4.410  11.290   9.266
 1212POPC   GL218266   4.746  11.167   9.195
 1212POPC   C1A18267   4.447  11.506   8.862
 1212POPC   D2A18268   4.551  11.510   8.408
 1212POPC   C3A18269   4.236  11.273   8.176
 1212POPC   C4A18270   4.002  11.390   7.802
 1212POPC   C1B18271   4.837  11.198   8.777
 1212POPC   C2B18272   4.669  11.005   8.411
 1212POPC   C3B18273   4.720  11.168   8.026
 1212POPC   C4B18274   4.500  11.448   7.756
 1213POPC   NC318275  15.188   3.630   9.549
 1213POPC   PO418276  15.623   3.273   9.447
 1213POPC   GL118277  15.351   3.399   9.102
 1213POPC   GL218278  14.966   3.428   9.143
 1213POPC   C1A18279  15.347   3.724   8.773
 1213POPC   D2A18280  15.188   3.727   8.334
 1213POPC   C3A18281  15.317   3.422   8.013
 1213POPC   C4A18282  15.187   3.606   7.648
 1213POPC   C1B18283  14.934   3.403   8.698
 1213POPC   C2B18284  14.935   3.228   8.294
 1213POPC   C3B18285  14.775   3.390   7.900
 1213POPC   C4B18286  14.733   3.463   7.424
 1214POPC   NC318287  32.504  21.904   9.368
 1214POPC   PO418288  31.925  21.810   9.469
 1214POPC   GL118289  32.069  21.870   9.083
 1214POPC   GL218290  32.168  22.226   9.110
 1214POPC   C1A18291  32.296  21.940   8.707
 1214POPC   D2A18292  32.507  21.975   8.313
 1214POPC   C3A18293  32.258  22.120   7.985
 1214POPC   C4A18294  32.155  21.893   7.636
 1214POPC   C1B18295  32.224  22.447   8.695
 1214POPC   C2B18296  32.468  22.514   8.318
 1214POPC   C3B18297  32.466  22.573   7.861
 1214POPC   C4B18298  32.461  22.268   7.521
 1215POPC   NC318299  36.438  41.325   9.497
 1215POPC   PO418300  35.896  41.749   9.494
 1215POPC   GL118301  36.102  41.734   9.107
 1215POPC   GL218302  36.106  41.405   9.115
 1215POPC   C1A18303  35.922  41.579   8.683
 1215POPC   D2A18304  35.994  41.312   8.317
 1215POPC   C3A18305  35.937  41.588   7.974
 1215POPC   C4A18306  35.773  41.709   7.547
 1215POPC   C1B18307  36.408  41.437   8.779
 1215POPC   C2B18308  36.565  41.313   8.406
 1215POPC   C3B18309  36.427  41.369   8.027
 1215POPC   C4B18310  36.621  41.235   7.674
 1216POPC   NC318311  31.192  15.660   9.539
 1216POPC   PO418312  31.688  16.167   9.559
 1216POPC   GL118313  31.414  16.045   9.246
 1216POPC   GL218314  31.505  15.720   9.154
 1216POPC   C1A18315  31.492  16.133   8.830
 1216POPC   D2A18316  31.553  16.278   8.438
 1216POPC   C3A18317  31.398  16.010   8.109
 1216POPC   C4A18318  31.367  16.198   7.725
 1216POPC   C1B18319  31.727  15.680   8.779
 1216POPC   C2B18320  31.813  15.846   8.379
 1216POPC   C3B18321  31.976  15.805   7.951
 1216POPC   C4B18322  31.663  15.788   7.612
 1217POPC   NC318323  41.794  41.255   9.527
 1217POPC   PO418324  41.289  41.731   9.408
 1217POPC   GL118325  41.463  41.394   9.176
 1217POPC   GL218326  41.746  41.622   9.171
 1217POPC   C1A18327  41.603  41.296   8.771
 1217POPC   D2A18328  41.433  41.609   8.465
 1217POPC   C3A18329  41.511  41.361   8.141
 1217POPC   C4A18330  41.532  41.360   7.739
 1217POPC   C1B18331  41.957  41.660   8.812
 1217POPC   C2B18332  41.926  41.558   8.404
 1217POPC   C3B18333  41.782  41.798   8.030
 1217POPC   C4B18334  41.994  41.973   7.672
 1218POPC   NC318335  41.172  14.246   9.211
 1218POPC   PO418336  40.731  14.601   9.552
 1218POPC   GL118337  40.753  14.566   9.115
 1218POPC   GL218338  41.061  14.727   9.036
 1218POPC   C1A18339  40.686  14.282   8.750
 1218POPC   D2A18340  40.407  14.114   8.434
 1218POPC   C3A18341  40.650  14.068   8.062
 1218POPC   C4A18342  40.673  14.387   7.744
 1218POPC   C1B18343  40.939  14.730   8.627
 1218POPC   C2B18344  40.775  14.558   8.250
 1218POPC   C3B18345  41.074  14.602   7.938
 1218POPC   C4B18346  41.327  14.878   7.813
 1219POPC   NC318347  29.458  42.453   9.475
 1219POPC   PO418348  28.806  42.393   9.569
 1219POPC   GL118349  29.013  42.510   9.211
 1219POPC   GL218350  29.134  42.158   9.186
 1219POPC   C1A18351  29.297  42.533   8.838
 1219POPC   D2A18352  29.103  42.556   8.421
 1219POPC   C3A18353  29.122  42.297   8.047
 1219POPC   C4A18354  29.349  42.400   7.727
 1219POPC   C1B18355  28.921  42.190   8.785
 1219POPC   C2B18356  28.945  41.998   8.412
 1219POPC   C3B18357  28.664  41.837   8.114
 1219POPC   C4B18358  28.719  42.090   7.806
 1220POPC   NC318359   5.547  39.001   9.390
 1220POPC   PO418360   6.018  39.373   9.747
 1220POPC   GL118361   5.982  39.373   9.280
 1220POPC   GL218362   5.925  39.086   9.065
 1220POPC   C1A18363   6.032  39.540   8.838
 1220POPC   D2A18364   5.779  39.538   8.460
 1220POPC   C3A18365   5.886  39.379   8.089
 1220POPC   C4A18366   5.713  39.355   7.665
 1220POPC   C1B18367   5.535  39.142   8.735
 1220POPC   C2B18368   5.435  39.169   8.268
 1220POPC   C3B18369   5.643  38.940   7.925
 1220POPC   C4B18370   5.596  38.892   7.473
 1221POPC   NC318371   4.022  30.993  10.038
 1221POPC   PO418372   3.525  30.756   9.524
 1221POPC   GL118373   3.758  30.806   9.125
 1221POPC   GL218374   3.480  30.696   9.005
 1221POPC   C1A18375   3.959  30.617   8.781
 1221POPC   D2A18376   3.901  30.356   8.408
 1221POPC   C3A18377   3.924  30.503   7.968
 1221POPC   C4A18378   3.776  30.590   7.541
 1221POPC   C1B18379   3.497  30.744   8.592
 1221POPC   C2B18380   3.608  30.800   8.216
 1221POPC   C3B18381   3.425  30.709   7.882
 1221POPC   C4B18382   3.292  30.955   7.595
 1222POPC   NC318383  14.652  37.135   9.464
 1222POPC   PO418384  14.277  36.580   9.473
 1222POPC   GL118385  14.278  36.773   9.089
 1222POPC   GL218386  14.208  37.105   9.105
 1222POPC   C1A18387  14.499  36.952   8.729
 1222POPC   D2A18388  14.726  36.843   8.361
 1222POPC   C3A18389  14.487  36.952   8.023
 1222POPC   C4A18390  14.229  36.895   7.702
 1222POPC   C1B18391  14.084  37.299   8.770
 1222POPC   C2B18392  14.159  37.163   8.382
 1222POPC   C3B18393  14.010  37.232   8.001
 1222POPC   C4B18394  14.149  37.406   7.628
 1223POPC   NC318395  38.932  31.320   9.358
 1223POPC   PO418396  39.573  31.436   9.465
 1223POPC   GL118397  39.554  31.776   9.134
 1223POPC   GL218398  39.204  31.791   9.154
 1223POPC   C1A18399  39.418  31.728   8.668
 1223POPC   D2A18400  39.179  31.349   8.486
 1223POPC   C3A18401  39.225  31.194   8.060
 1223POPC   C4A18402  39.428  31.463   7.776
 1223POPC   C1B18403  38.935  31.676   8.801
 1223POPC   C2B18404  38.841  31.731   8.398
 1223POPC   C3B18405  39.096  31.683   8.075
 1223POPC   C4B18406  39.061  31.758   7.629
 1224POPC   NC318407  12.357  19.753   9.316
 1224POPC   PO418408  11.712  20.012   9.467
 1224POPC   GL118409  11.908  19.888   9.079
 1224POPC   GL218410  11.954  19.529   9.029
 1224POPC   C1A18411  12.098  19.945   8.655
 1224POPC   D2A18412  12.033  20.144   8.239
 1224POPC   C3A18413  12.198  19.844   7.929
 1224POPC   C4A18414  12.486  20.169   7.777
 1224POPC   C1B18415  11.672  19.642   8.678
 1224POPC   C2B18416  11.784  19.709   8.256
 1224POPC   C3B18417  11.698  19.932   7.886
 1224POPC   C4B18418  11.788  19.577   7.688
 1225POPC   NC318419  26.270  13.658   9.400
 1225POPC   PO418420  25.974  14.033   9.851
 1225POPC   GL118421  25.865  13.895   9.242
 1225POPC   GL218422  25.766  14.043   9.019
 1225POPC   C1A18423  26.107  13.742   8.792
 1225POPC   D2A18424  26.120  13.355   8.511
 1225POPC   C3A18425  26.156  13.346   8.046
 1225POPC   C4A18426  25.880  13.192   7.730
 1225POPC   C1B18427  25.768  14.017   8.551
 1225POPC   C2B18428  25.887  13.742   8.200
 1225POPC   C3B18429  25.834  13.707   7.717
 1225POPC   C4B18430  25.656  13.853   7.274
 1226POPC   NC318431  38.314  39.762   9.415
 1226POPC   PO418432  38.854  40.150   9.448
 1226POPC   GL118433  38.672  40.021   9.109
 1226POPC   GL218434  38.731  39.683   9.136
 1226POPC   C1A18435  38.375  40.069   8.773
 1226POPC   D2A18436  38.399  40.218   8.360
 1226POPC   C3A18437  38.136  40.014   8.062
 1226POPC   C4A18438  37.932  40.092   7.679
 1226POPC   C1B18439  38.538  39.606   8.784
 1226POPC   C2B18440  38.437  39.703   8.381
 1226POPC   C3B18441  38.636  39.800   8.006
 1226POPC   C4B18442  38.413  39.845   7.649
 1227POPC   NC318443  22.769   1.253   9.729
 1227POPC   PO418444  22.923   1.444   9.140
 1227POPC   GL118445  22.940   1.068   9.009
 1227POPC   GL218446  22.627   0.924   9.134
 1227POPC   C1A18447  23.084   1.072   8.575
 1227POPC   D2A18448  23.002   1.379   8.226
 1227POPC   C3A18449  23.089   1.336   7.785
 1227POPC   C4A18450  23.094   1.034   7.408
 1227POPC   C1B18451  22.525   1.045   8.677
 1227POPC   C2B18452  22.677   0.992   8.259
 1227POPC   C3B18453  22.766   0.957   7.810
 1227POPC   C4B18454  22.548   0.897   7.410
 1228POPC   NC318455  39.847   1.755   9.483
 1228POPC   PO418456  40.266   2.323   9.478
 1228POPC   GL118457  40.161   2.049   9.170
 1228POPC   GL218458  39.816   2.128   9.125
 1228POPC   C1A18459  40.143   1.806   8.808
 1228POPC   D2A18460  40.037   1.671   8.407
 1228POPC   C3A18461  40.163   1.870   8.013
 1228POPC   C4A18462  40.101   1.583   7.748
 1228POPC   C1B18463  39.666   2.006   8.731
 1228POPC   C2B18464  39.487   2.001   8.312
 1228POPC   C3B18465  39.681   1.723   8.027
 1228POPC   C4B18466  39.610   1.532   7.643
 1229POPC   NC318467  25.252  28.565   9.361
 1229POPC   PO418468  25.416  27.980   9.559
 1229POPC   GL118469  25.616  28.103   9.178
 1229POPC   GL218470  25.749  28.454   9.150
 1229POPC   C1A18471  25.500  28.139   8.772
 1229POPC   D2A18472  25.323  28.254   8.407
 1229POPC   C3A18473  25.317  28.019   8.038
 1229POPC   C4A18474  25.052  27.984   7.689
 1229POPC   C1B18475  25.553  28.681   8.782
 1229POPC   C2B18476  25.264  28.771   8.448
 1229POPC   C3B18477  25.252  28.589   8.033
 1229POPC   C4B18478  25.507  28.664   7.717
 1230POPC   NC318479  27.413   3.045   9.380
 1230POPC   PO418480  27.452   2.427   9.518
 1230POPC   GL118481  27.461   2.603   9.088
 1230POPC   GL218482  27.751   2.452   8.984
 1230POPC   C1A18483  27.606   2.921   8.744
 1230POPC   D2A18484  27.731   3.276   8.465
 1230POPC   C3A18485  27.688   3.153   8.032
 1230POPC   C4A18486  27.348   2.924   7.839
 1230POPC   C1B18487  27.793   2.448   8.545
 1230POPC   C2B18488  27.631   2.648   8.183
 1230POPC   C3B18489  27.726   2.586   7.760
 1230POPC   C4B18490  27.780   2.564   7.309
 1231POPC   NC318491  32.375  36.245   9.518
 1231POPC   PO418492  32.418  35.720   9.185
 1231POPC   GL118493  32.122  36.020   9.048
 1231POPC   GL218494  32.310  36.324   9.019
 1231POPC   C1A18495  31.925  35.997   8.626
 1231POPC   D2A18496  32.060  35.831   8.228
 1231POPC   C3A18497  32.394  35.982   7.978
 1231POPC   C4A18498  32.345  36.047   7.538
 1231POPC   C1B18499  31.952  36.490   8.807
 1231POPC   C2B18500  31.761  36.446   8.410
 1231POPC   C3B18501  31.868  36.256   8.028
 1231POPC   C4B18502  31.976  36.398   7.638
 1232POPC   NC318503  26.654  33.372   9.524
 1232POPC   PO418504  26.519  34.010   9.540
 1232POPC   GL118505  26.808  33.878   9.209
 1232POPC   GL218506  27.050  33.572   9.262
 1232POPC   C1A18507  26.741  33.882   8.768
 1232POPC   D2A18508  26.509  33.670   8.452
 1232POPC   C3A18509  26.640  33.735   8.026
 1232POPC   C4A18510  26.778  34.051   7.768
 1232POPC   C1B18511  26.976  33.452   8.825
 1232POPC   C2B18512  27.023  33.652   8.390
 1232POPC   C3B18513  27.162  33.742   7.935
 1232POPC   C4B18514  26.979  33.528   7.579
 1233POPC   NC318515   5.956  34.839   9.508
 1233POPC   PO418516   5.339  34.786   9.473
 1233POPC   GL118517   5.611  34.537   9.212
 1233POPC   GL218518   6.005  34.491   9.138
 1233POPC   C1A18519   5.631  34.542   8.804
 1233POPC   D2A18520   5.689  34.833   8.480
 1233POPC   C3A18521   5.791  34.605   8.133
 1233POPC   C4A18522   5.709  34.446   7.741
 1233POPC   C1B18523   6.090  34.816   8.822
 1233POPC   C2B18524   6.334  34.919   8.446
 1233POPC   C3B18525   6.393  34.798   8.007
 1233POPC   C4B18526   6.194  34.527   7.728
 1234POPC   NC318527  32.765  13.390   9.542
 1234POPC   PO418528  33.477  13.574   9.578
 1234POPC   GL118529  33.160  13.572   9.272
 1234POPC   GL218530  33.085  13.221   9.191
 1234POPC   C1A18531  33.046  13.622   8.848
 1234POPC   D2A18532  32.910  13.754   8.453
 1234POPC   C3A18533  33.025  13.515   8.125
 1234POPC   C4A18534  33.194  13.640   7.755
 1234POPC   C1B18535  32.757  13.210   8.811
 1234POPC   C2B18536  32.730  13.115   8.340
 1234POPC   C3B18537  32.736  13.181   7.868
 1234POPC   C4B18538  32.751  13.449   7.506
 1235POPC   NC318539  31.295  34.824   9.423
 1235POPC   PO418540  31.695  34.383   9.590
 1235POPC   GL118541  31.647  34.505   9.166
 1235POPC   GL218542  31.295  34.485   9.036
 1235POPC   C1A18543  31.724  34.630   8.727
 1235POPC   D2A18544  31.871  34.590   8.281
 1235POPC   C3A18545  31.553  34.459   8.004
 1235POPC   C4A18546  31.267  34.540   7.674
 1235POPC   C1B18547  31.278  34.873   8.768
 1235POPC   C2B18548  31.496  34.938   8.380
 1235POPC   C3B18549  31.411  34.958   7.953
 1235POPC   C4B18550  31.360  35.055   7.527
 1236POPC   NC318551   0.813  24.694   9.383
 1236POPC   PO418552   0.563  25.300   9.477
 1236POPC   GL118553   0.333  25.304   9.129
 1236POPC   GL218554  44.995  25.370   9.070
 1236POPC   C1A18555   0.235  25.072   8.732
 1236POPC   D2A18556   0.082  25.228   8.341
 1236POPC   C3A18557   0.305  25.087   7.962
 1236POPC   C4A18558   0.733  25.151   7.799
 1236POPC   C1B18559   0.222  25.593   8.741
 1236POPC   C2B18560   0.149  25.730   8.384
 1236POPC   C3B18561   0.324  25.596   8.000
 1236POPC   C4B18562   0.200  25.440   7.586
 1237POPC   NC318563  16.928  39.709   9.407
 1237POPC   PO418564  16.769  39.189   9.760
 1237POPC   GL118565  16.790  39.253   9.244
 1237POPC   GL218566  16.586  39.552   9.085
 1237POPC   C1A18567  16.970  39.336   8.795
 1237POPC   D2A18568  16.816  39.121   8.409
 1237POPC   C3A18569  17.008  39.089   8.009
 1237POPC   C4A18570  16.928  39.298   7.614
 1237POPC   C1B18571  16.416  39.392   8.729
 1237POPC   C2B18572  16.222  39.488   8.369
 1237POPC   C3B18573  16.419  39.315   7.994
 1237POPC   C4B18574  16.436  39.421   7.576
 1238POPC   NC318575  11.774   0.096   9.426
 1238POPC   PO418576  12.300   0.514   9.647
 1238POPC   GL118577  12.298   0.520   9.175
 1238POPC   GL218578  12.157   0.186   9.100
 1238POPC   C1A18579  12.131   0.587   8.736
 1238POPC   D2A18580  12.227   0.334   8.358
 1238POPC   C3A18581  12.057   0.406   7.947
 1238POPC   C4A18582  12.179   0.276   7.529
 1238POPC   C1B18583  11.814   0.158   8.780
 1238POPC   C2B18584  11.812   0.037   8.372
 1238POPC   C3B18585  11.607   0.170   8.058
 1238POPC   C4B18586  11.662   0.178   7.660
 1239POPC   NC318587  20.117  17.820   9.506
 1239POPC   PO418588  19.717  17.333   9.410
 1239POPC   GL118589  19.947  17.276   9.044
 1239POPC   GL218590  20.065  17.567   9.068
 1239POPC   C1A18591  19.891  17.277   8.610
 1239POPC   D2A18592  19.519  17.420   8.425
 1239POPC   C3A18593  19.647  17.506   8.017
 1239POPC   C4A18594  19.865  17.283   7.722
 1239POPC   C1B18595  20.241  17.622   8.705
 1239POPC   C2B18596  20.049  17.752   8.326
 1239POPC   C3B18597  20.162  17.656   7.914
 1239POPC   C4B18598  20.084  17.860   7.534
 1240POPC   NC318599  12.245  15.331   9.662
 1240POPC   PO418600  11.705  14.874   9.526
 1240POPC   GL118601  12.021  15.054   9.198
 1240POPC   GL218602  12.233  15.377   9.143
 1240POPC   C1A18603  12.093  15.081   8.745
 1240POPC   D2A18604  12.080  15.329   8.366
 1240POPC   C3A18605  12.191  15.161   7.978
 1240POPC   C4A18606  11.899  15.023   7.703
 1240POPC   C1B18607  11.982  15.580   8.809
 1240POPC   C2B18608  11.743  15.704   8.400
 1240POPC   C3B18609  11.699  15.447   8.014
 1240POPC   C4B18610  11.799  15.493   7.581
 1241POPC   NC318611  41.015   3.917   9.603
 1241POPC   PO418612  40.895   4.530   9.917
 1241POPC   GL118613  40.947   4.357   9.421
 1241POPC   GL218614  41.256   4.396   9.378
 1241POPC   C1A18615  40.803   4.253   8.929
 1241POPC   D2A18616  40.897   4.491   8.511
 1241POPC   C3A18617  40.664   4.404   8.114
 1241POPC   C4A18618  40.762   4.057   7.845
 1241POPC   C1B18619  41.262   4.449   8.912
 1241POPC   C2B18620  41.330   4.164   8.555
 1241POPC   C3B18621  41.178   4.228   8.119
 1241POPC   C4B18622  41.230   4.200   7.666
 1242POPC   NC318623   8.687  15.359   9.750
 1242POPC   PO418624   9.289  15.001   9.643
 1242POPC   GL118625   8.956  14.943   9.341
 1242POPC   GL218626   8.888  15.289   9.261
 1242POPC   C1A18627   8.909  14.777   8.921
 1242POPC   D2A18628   8.779  14.987   8.539
 1242POPC   C3A18629   8.919  14.859   8.138
 1242POPC   C4A18630   8.897  14.971   7.704
 1242POPC   C1B18631   8.944  15.392   8.825
 1242POPC   C2B18632   8.758  15.480   8.403
 1242POPC   C3B18633   8.969  15.402   8.013
 1242POPC   C4B18634   8.819  15.519   7.614
 1243POPC   NC318635  28.574  18.744   9.433
 1243POPC   PO418636  28.203  19.261   9.605
 1243POPC   GL118637  28.345  19.164   9.209
 1243POPC   GL218638  28.139  18.866   9.152
 1243POPC   C1A18639  28.452  19.065   8.773
 1243POPC   D2A18640  28.424  18.848   8.362
 1243POPC   C3A18641  28.539  19.052   7.947
 1243POPC   C4A18642  28.597  18.807   7.556
 1243POPC   C1B18643  27.975  18.612   8.829
 1243POPC   C2B18644  27.898  18.709   8.399
 1243POPC   C3B18645  28.065  18.793   7.996
 1243POPC   C4B18646  28.142  18.992   7.616
 1244POPC   NC318647  32.648   7.045   9.455
 1244POPC   PO418648  32.928   7.727   9.451
 1244POPC   GL118649  33.019   7.360   9.182
 1244POPC   GL218650  32.791   7.316   8.984
 1244POPC   C1A18651  33.202   7.149   8.764
 1244POPC   D2A18652  33.292   7.270   8.344
 1244POPC   C3A18653  33.212   7.070   7.950
 1244POPC   C4A18654  32.956   7.283   7.647
 1244POPC   C1B18655  33.065   7.662   8.770
 1244POPC   C2B18656  33.047   7.721   8.333
 1244POPC   C3B18657  32.816   7.472   8.088
 1244POPC   C4B18658  32.537   7.678   7.853
 1245POPC   NC318659  29.383   6.667   9.500
 1245POPC   PO418660  28.699   6.755   9.594
 1245POPC   GL118661  28.932   6.667   9.223
 1245POPC   GL218662  29.012   6.322   9.168
 1245POPC   C1A18663  29.140   6.697   8.813
 1245POPC   D2A18664  29.272   6.666   8.375
 1245POPC   C3A18665  29.156   6.847   7.935
 1245POPC   C4A18666  28.968   6.716   7.503
 1245POPC   C1B18667  29.373   6.254   8.937
 1245POPC   C2B18668  29.376   6.168   8.498
 1245POPC   C3B18669  29.157   6.254   8.095
 1245POPC   C4B18670  29.286   6.370   7.687
 1246POPC   NC318671   2.312  40.481   9.385
 1246POPC   PO418672   1.716  40.753   9.437
 1246POPC   GL118673   1.919  40.705   9.079
 1246POPC   GL218674   1.566  40.640   8.943
 1246POPC   C1A18675   2.095  40.570   8.713
 1246POPC   D2A18676   1.909  40.436   8.339
 1246POPC   C3A18677   2.241  40.460   8.058
 1246POPC   C4A18678   2.289  40.586   7.649
 1246POPC   C1B18679   1.752  41.012   8.711
 1246POPC   C2B18680   1.953  41.031   8.314
 1246POPC   C3B18681   1.894  40.812   7.934
 1246POPC   C4B18682   1.546  40.707   7.702
 1247POPC   NC318683  30.678   8.642   9.560
 1247POPC   PO418684  30.535   9.313   9.411
 1247POPC   GL118685  30.722   8.957   9.177
 1247POPC   GL218686  30.464   8.669   9.102
 1247POPC   C1A18687  30.936   8.843   8.822
 1247POPC   D2A18688  30.836   9.049   8.462
 1247POPC   C3A18689  30.731   8.877   8.059
 1247POPC   C4A18690  31.015   8.778   7.752
 1247POPC   C1B18691  30.376   8.978   8.792
 1247POPC   C2B18692  30.313   8.916   8.364
 1247POPC   C3B18693  30.274   9.106   7.943
 1247POPC   C4B18694  30.537   9.054   7.565
 1248POPC   NC318695  37.591  43.799   9.550
 1248POPC   PO418696  38.147  44.192   9.477
 1248POPC   GL118697  37.879  43.975   9.078
 1248POPC   GL218698  37.497  43.915   9.063
 1248POPC   C1A18699  37.693  43.766   8.624
 1248POPC   D2A18700  37.641  43.681   8.138
 1248POPC   C3A18701  37.869  43.940   7.864
 1248POPC   C4A18702  38.021  43.996   7.426
 1248POPC   C1B18703  37.222  43.976   8.717
 1248POPC   C2B18704  37.306  44.037   8.279
 1248POPC   C3B18705  37.356  43.989   7.826
 1248POPC   C4B18706  37.547  44.200   7.452
 1249POPC   NC318707   7.907   7.167   9.449
 1249POPC   PO418708   7.190   7.167   9.568
 1249POPC   GL118709   7.469   7.214   9.173
 1249POPC   GL218710   7.691   7.534   9.136
 1249POPC   C1A18711   7.367   7.326   8.744
 1249POPC   D2A18712   7.421   7.633   8.380
 1249POPC   C3A18713   7.266   7.501   7.960
 1249POPC   C4A18714   7.115   7.323   7.549
 1249POPC   C1B18715   7.840   7.510   8.715
 1249POPC   C2B18716   7.951   7.231   8.355
 1249POPC   C3B18717   7.733   7.215   7.949
 1249POPC   C4B18718   7.682   7.559   7.697
 1250POPC   NC318719   0.608  23.047   9.862
 1250POPC   PO418720   0.115  23.425   9.501
 1250POPC   GL118721   0.263  23.211   9.162
 1250POPC   GL218722   0.607  23.102   9.341
 1250POPC   C1A18723   0.118  23.075   8.768
 1250POPC   D2A18724   0.420  22.955   8.462
 1250POPC   C3A18725   0.354  22.967   8.041
 1250POPC   C4A18726   0.306  22.577   7.821
 1250POPC   C1B18727   0.668  23.132   8.892
 1250POPC   C2B18728   0.869  23.163   8.508
 1250POPC   C3B18729   0.854  22.862   8.152
 1250POPC   C4B18730   0.728  22.849   7.724
 1251POPC   NC318731  14.670  25.932   9.730
 1251POPC   PO418732  15.318  26.318   9.525
 1251POPC   GL118733  15.249  26.147   9.113
 1251POPC   GL218734  14.985  25.934   9.166
 1251POPC   C1A18735  15.300  25.932   8.718
 1251POPC   D2A18736  15.250  26.099   8.325
 1251POPC   C3A18737  15.438  25.903   7.990
 1251POPC   C4A18738  15.291  25.893   7.574
 1251POPC   C1B18739  14.812  25.741   8.774
 1251POPC   C2B18740  14.997  25.653   8.380
 1251POPC   C3B18741  14.938  25.797   7.976
 1251POPC   C4B18742  14.733  25.800   7.610
 1252POPC   NC318743  19.172  43.624   9.577
 1252POPC   PO418744  18.651  44.017   9.654
 1252POPC   GL118745  18.893  43.969   9.262
 1252POPC   GL218746  18.791  43.628   9.213
 1252POPC   C1A18747  19.198  43.960   8.895
 1252POPC   D2A18748  19.341  43.915   8.436
 1252POPC   C3A18749  19.216  44.141   8.067
 1252POPC   C4A18750  18.955  44.007   7.736
 1252POPC   C1B18751  18.960  43.516   8.823
 1252POPC   C2B18752  18.850  43.385   8.421
 1252POPC   C3B18753  18.991  43.496   7.995
 1252POPC   C4B18754  18.775  43.561   7.596
 1253POPC   NC318755  23.053  42.694   9.702
 1253POPC   PO418756  23.171  41.993   9.595
 1253POPC   GL118757  23.127  42.310   9.258
 1253POPC   GL218758  22.837  42.501   9.259
 1253POPC   C1A18759  23.067  42.307   8.803
 1253POPC   D2A18760  23.338  42.507   8.470
 1253POPC   C3A18761  23.143  42.504   8.072
 1253POPC   C4A18762  23.085  42.114   7.869
 1253POPC   C1B18763  22.652  42.602   8.848
 1253POPC   C2B18764  22.717  42.481   8.441
 1253POPC   C3B18765  22.613  42.595   8.030
 1253POPC   C4B18766  22.826  42.504   7.655
 1254POPC   NC318767  22.003  30.538   9.467
 1254POPC   PO418768  22.520  30.974   9.536
 1254POPC   GL118769  22.263  30.898   9.207
 1254POPC   GL218770  22.427  30.571   9.194
 1254POPC   C1A18771  22.030  30.971   8.815
 1254POPC   D2A18772  21.932  30.715   8.436
 1254POPC   C3A18773  22.140  30.872   8.053
 1254POPC   C4A18774  22.038  30.871   7.613
 1254POPC   C1B18775  22.201  30.492   8.844
 1254POPC   C2B18776  22.201  30.226   8.523
 1254POPC   C3B18777  22.211  30.218   8.095
 1254POPC   C4B18778  22.333  30.469   7.782
 1255POPC   NC318779  32.821   0.820   9.540
 1255POPC   PO418780  33.355   0.330   9.514
 1255POPC   GL118781  33.098   0.506   9.205
 1255POPC   GL218782  32.761   0.339   9.216
 1255POPC   C1A18783  33.286   0.670   8.825
 1255POPC   D2A18784  33.422   0.835   8.427
 1255POPC   C3A18785  33.284   0.627   8.075
 1255POPC   C4A18786  33.155   0.824   7.718
 1255POPC   C1B18787  32.923   0.296   8.776
 1255POPC   C2B18788  32.901   0.679   8.474
 1255POPC   C3B18789  32.770   0.717   8.047
 1255POPC   C4B18790  32.859   0.300   7.861
 1256POPC   NC318791  22.018  16.522   9.400
 1256POPC   PO418792  22.600  16.602   9.826
 1256POPC   GL118793  22.501  16.806   9.325
 1256POPC   GL218794  22.353  16.587   9.046
 1256POPC   C1A18795  22.486  17.009   8.859
 1256POPC   D2A18796  22.170  16.947   8.548
 1256POPC   C3A18797  22.340  16.844   8.137
 1256POPC   C4A18798  22.264  16.976   7.701
 1256POPC   C1B18799  22.294  16.458   8.617
 1256POPC   C2B18800  21.946  16.569   8.318
 1256POPC   C3B18801  21.861  16.792   7.956
 1256POPC   C4B18802  21.956  16.547   7.634
 1257POPC   NC318803  33.295   7.487   9.605
 1257POPC   PO418804  33.938   7.249   9.392
 1257POPC   GL118805  33.810   7.460   9.063
 1257POPC   GL218806  33.476   7.559   9.110
 1257POPC   C1A18807  33.709   7.288   8.648
 1257POPC   D2A18808  33.767   7.137   8.214
 1257POPC   C3A18809  33.845   7.462   7.889
 1257POPC   C4A18810  33.914   7.545   7.449
 1257POPC   C1B18811  33.578   7.772   8.742
 1257POPC   C2B18812  33.584   7.677   8.299
 1257POPC   C3B18813  33.331   7.583   7.924
 1257POPC   C4B18814  33.454   7.390   7.563
 1258POPC   NC318815  11.808  41.171   9.335
 1258POPC   PO418816  11.936  40.483   9.357
 1258POPC   GL118817  12.232  40.779   9.195
 1258POPC   GL218818  12.425  40.526   9.055
 1258POPC   C1A18819  12.284  40.984   8.781
 1258POPC   D2A18820  11.903  40.999   8.482
 1258POPC   C3A18821  11.733  40.790   8.104
 1258POPC   C4A18822  11.577  40.963   7.725
 1258POPC   C1B18823  12.046  40.540   8.729
 1258POPC   C2B18824  12.212  40.615   8.323
 1258POPC   C3B18825  12.198  40.769   7.912
 1258POPC   C4B18826  12.044  40.807   7.512
 1259POPC   NC318827  36.218  42.079   9.563
 1259POPC   PO418828  36.663  42.465   9.316
 1259POPC   GL118829  36.405  42.175   9.085
 1259POPC   GL218830  36.068  42.253   9.109
 1259POPC   C1A18831  36.196  42.019   8.684
 1259POPC   D2A18832  36.307  41.773   8.329
 1259POPC   C3A18833  36.209  42.022   7.967
 1259POPC   C4A18834  35.834  42.161   7.744
 1259POPC   C1B18835  36.018  42.499   8.738
 1259POPC   C2B18836  35.960  42.352   8.308
 1259POPC   C3B18837  36.088  42.566   7.935
 1259POPC   C4B18838  35.969  42.583   7.480
 1260POPC   NC318839   1.249  32.878   9.589
 1260POPC   PO418840   1.494  33.487   9.330
 1260POPC   GL118841   1.209  33.298   8.990
 1260POPC   GL218842   1.104  32.946   9.063
 1260POPC   C1A18843   1.118  33.114   8.552
 1260POPC   D2A18844   1.385  32.882   8.263
 1260POPC   C3A18845   1.405  33.142   7.919
 1260POPC   C4A18846   1.283  33.016   7.516
 1260POPC   C1B18847   0.780  32.804   8.771
 1260POPC   C2B18848   0.885  32.620   8.356
 1260POPC   C3B18849   0.985  32.823   7.941
 1260POPC   C4B18850   0.792  32.812   7.524
 1261POPC   NC318851  18.907  18.111   9.692
 1261POPC   PO418852  19.154  18.637   9.447
 1261POPC   GL118853  19.122  18.320   9.137
 1261POPC   GL218854  19.485  18.370   9.127
 1261POPC   C1A18855  18.933  17.996   8.817
 1261POPC   D2A18856  18.735  18.005   8.388
 1261POPC   C3A18857  18.715  18.470   8.255
 1261POPC   C4A18858  18.998  18.682   7.976
 1261POPC   C1B18859  19.404  18.246   8.705
 1261POPC   C2B18860  19.192  18.271   8.314
 1261POPC   C3B18861  19.369  18.342   7.929
 1261POPC   C4B18862  19.300  18.240   7.527
 1262POPC   NC318863  44.196  31.587   9.297
 1262POPC   PO418864  44.756  31.378   9.700
 1262POPC   GL118865  44.803  31.308   9.278
 1262POPC   GL218866  44.722  31.647   9.157
 1262POPC   C1A18867  44.645  31.198   8.877
 1262POPC   D2A18868  44.614  31.483   8.541
 1262POPC   C3A18869  44.666  31.423   8.085
 1262POPC   C4A18870  44.383  31.644   7.774
 1262POPC   C1B18871  44.859  31.873   8.771
 1262POPC   C2B18872  44.925  31.845   8.321
 1262POPC   C3B18873  44.862  31.868   7.874
 1262POPC   C4B18874  44.923  31.825   7.393
 1263POPC   NC318875  27.862  37.238   9.399
 1263POPC   PO418876  27.821  36.577   9.466
 1263POPC   GL118877  27.741  36.804   9.104
 1263POPC   GL218878  27.446  37.031   9.131
 1263POPC   C1A18879  27.841  36.803   8.675
 1263POPC   D2A18880  27.436  36.807   8.378
 1263POPC   C3A18881  27.443  36.582   7.993
 1263POPC   C4A18882  27.838  36.628   7.828
 1263POPC   C1B18883  27.551  37.214   8.705
 1263POPC   C2B18884  27.817  37.142   8.297
 1263POPC   C3B18885  27.690  37.106   7.893
 1263POPC   C4B18886  27.347  37.000   7.630
 1264POPC   NC318887   6.767   2.410   9.490
 1264POPC   PO418888   6.297   2.903   9.437
 1264POPC   GL118889   6.503   2.702   9.124
 1264POPC   GL218890   6.283   2.432   9.091
 1264POPC   C1A18891   6.782   2.526   8.799
 1264POPC   D2A18892   6.845   2.481   8.352
 1264POPC   C3A18893   6.855   2.872   8.133
 1264POPC   C4A18894   7.029   3.011   7.759
 1264POPC   C1B18895   6.294   2.623   8.661
 1264POPC   C2B18896   6.363   2.727   8.225
 1264POPC   C3B18897   6.501   2.649   7.805
 1264POPC   C4B18898   6.355   2.430   7.391
 1265POPC   NC318899   9.802   7.430   9.542
 1265POPC   PO418900   9.286   7.035   9.236
 1265POPC   GL118901   9.582   7.389   9.088
 1265POPC   GL218902   9.978   7.538   9.086
 1265POPC   C1A18903   9.646   7.639   8.722
 1265POPC   D2A18904   9.914   7.612   8.379
 1265POPC   C3A18905   9.690   7.526   8.022
 1265POPC   C4A18906   9.958   7.617   7.704
 1265POPC   C1B18907   9.941   7.201   8.780
 1265POPC   C2B18908   9.881   7.041   8.371
 1265POPC   C3B18909  10.020   7.144   7.974
 1265POPC   C4B18910   9.824   7.134   7.598
 1266POPC   NC318911  15.688  12.531   9.592
 1266POPC   PO418912  16.306  12.928   9.601
 1266POPC   GL118913  16.154  12.667   9.264
 1266POPC   GL218914  15.822  12.775   9.163
 1266POPC   C1A18915  16.194  12.676   8.813
 1266POPC   D2A18916  16.176  12.864   8.415
 1266POPC   C3A18917  16.106  12.719   8.005
 1266POPC   C4A18918  16.058  12.939   7.604
 1266POPC   C1B18919  15.678  12.863   8.753
 1266POPC   C2B18920  15.649  12.753   8.320
 1266POPC   C3B18921  15.643  12.991   7.945
 1266POPC   C4B18922  15.552  12.863   7.550
 1267POPC   NC318923  27.632  10.768   9.721
 1267POPC   PO418924  28.260  10.641   9.621
 1267POPC   GL118925  27.914  10.819   9.311
 1267POPC   GL218926  27.642  10.572   9.226
 1267POPC   C1A18927  27.955  10.802   8.878
 1267POPC   D2A18928  27.899  10.549   8.499
 1267POPC   C3A18929  27.751  10.717   8.096
 1267POPC   C4A18930  27.783  10.532   7.678
 1267POPC   C1B18931  27.469  10.620   8.797
 1267POPC   C2B18932  27.431  10.395   8.385
 1267POPC   C3B18933  27.492  10.203   7.964
 1267POPC   C4B18934  27.411  10.225   7.508
 1268POPC   NC318935  40.525  15.719   9.539
 1268POPC   PO418936  40.924  16.147   9.813
 1268POPC   GL118937  40.789  16.093   9.287
 1268POPC   GL218938  40.744  15.794   9.087
 1268POPC   C1A18939  40.658  16.179   8.791
 1268POPC   D2A18940  40.486  15.961   8.398
 1268POPC   C3A18941  40.596  16.051   7.962
 1268POPC   C4A18942  40.997  16.242   7.817
 1268POPC   C1B18943  41.135  15.975   8.932
 1268POPC   C2B18944  41.218  15.959   8.499
 1268POPC   C3B18945  41.034  15.827   8.118
 1268POPC   C4B18946  41.201  15.679   7.744
 1269POPC   NC318947  27.916  12.883   9.478
 1269POPC   PO418948  27.123  12.783   9.454
 1269POPC   GL118949  27.453  12.926   9.170
 1269POPC   GL218950  27.609  12.623   9.170
 1269POPC   C1A18951  27.725  12.964   8.785
 1269POPC   D2A18952  27.817  13.207   8.420
 1269POPC   C3A18953  27.769  12.969   8.048
 1269POPC   C4A18954  27.922  12.591   7.863
 1269POPC   C1B18955  27.466  12.519   8.772
 1269POPC   C2B18956  27.488  12.655   8.357
 1269POPC   C3B18957  27.393  12.631   7.936
 1269POPC   C4B18958  27.520  12.433   7.568
 1270POPC   NC318959   4.729  30.496   9.539
 1270POPC   PO418960   4.047  30.668   9.731
 1270POPC   GL118961   4.239  30.866   9.316
 1270POPC   GL218962   4.590  30.942   9.294
 1270POPC   C1A18963   4.152  31.094   8.908
 1270POPC   D2A18964   3.976  31.026   8.496
 1270POPC   C3A18965   4.100  31.029   8.098
 1270POPC   C4A18966   3.805  31.044   7.764
 1270POPC   C1B18967   4.487  30.725   8.874
 1270POPC   C2B18968   4.341  30.669   8.450
 1270POPC   C3B18969   4.459  30.666   8.046
 1270POPC   C4B18970   4.296  30.667   7.660
 1271POPC   NC318971   3.138   3.498   9.594
 1271POPC   PO418972   2.491   3.432   9.674
 1271POPC   GL118973   2.613   3.269   9.267
 1271POPC   GL218974   2.854   3.531   9.161
 1271POPC   C1A18975   2.430   3.303   8.823
 1271POPC   D2A18976   2.628   3.200   8.418
 1271POPC   C3A18977   2.467   3.305   8.021
 1271POPC   C4A18978   2.609   3.432   7.629
 1271POPC   C1B18979   2.903   3.518   8.730
 1271POPC   C2B18980   3.049   3.495   8.300
 1271POPC   C3B18981   2.954   3.672   7.898
 1271POPC   C4B18982   2.880   3.790   7.397
 1272POPC   NC318983  28.533  25.386   9.624
 1272POPC   PO418984  28.281  24.919   9.218
 1272POPC   GL118985  28.249  25.385   9.187
 1272POPC   GL218986  27.952  25.511   9.045
 1272POPC   C1A18987  28.482  25.590   8.860
 1272POPC   D2A18988  28.624  25.387   8.455
 1272POPC   C3A18989  28.458  25.437   8.038
 1272POPC   C4A18990  28.497  25.370   7.602
 1272POPC   C1B18991  28.112  25.273   8.643
 1272POPC   C2B18992  28.182  25.053   8.220
 1272POPC   C3B18993  28.082  25.133   7.770
 1272POPC   C4B18994  27.976  24.867   7.403
 1273POPC   NC318995  36.457   9.571   9.588
 1273POPC   PO418996  35.891   9.833   9.379
 1273POPC   GL118997  36.191   9.737   9.097
 1273POPC   GL218998  36.131   9.396   9.081
 1273POPC   C1A18999  36.119   9.831   8.663
 1273POPC   D2A19000  35.835   9.970   8.326
 1273POPC   C3A19001  36.034   9.938   7.954
 1273POPC   C4A19002  36.040   9.818   7.564
 1273POPC   C1B19003  36.015   9.302   8.659
 1273POPC   C2B19004  36.045   9.479   8.265
 1273POPC   C3B19005  36.130   9.393   7.843
 1273POPC   C4B19006  36.369   9.434   7.444
 1274POPC   NC319007  44.512  13.462   9.485
 1274POPC   PO419008  44.651  14.151   9.468
 1274POPC   GL119009  44.534  13.840   9.175
 1274POPC   GL219010  44.787  13.854   8.991
 1274POPC   C1A19011  44.489  13.491   8.817
 1274POPC   D2A19012  44.487  13.635   8.362
 1274POPC   C3A19013  44.547  13.352   7.980
 1274POPC   C4A19014  44.942  13.325   7.776
 1274POPC   C1B19015  44.321  13.961   8.737
 1274POPC   C2B19016  44.091  13.994   8.354
 1274POPC   C3B19017  44.296  14.023   7.943
 1274POPC   C4B19018  44.286  13.997   7.496
 1275POPC   NC319019  12.698  17.369   9.580
 1275POPC   PO419020  13.135  17.872   9.556
 1275POPC   GL119021  12.849  17.918   9.226
 1275POPC   GL219022  12.738  17.575   9.116
 1275POPC   C1A19023  12.909  17.930   8.817
 1275POPC   D2A19024  12.672  17.645   8.550
 1275POPC   C3A19025  12.658  17.588   8.099
 1275POPC   C4A19026  12.841  17.529   7.686
 1275POPC   C1B19027  12.543  17.248   8.847
 1275POPC   C2B19028  12.359  17.191   8.409
 1275POPC   C3B19029  12.467  17.139   7.967
 1275POPC   C4B19030  12.358  17.371   7.623
 1276POPC   NC319031  17.892  20.260   9.228
 1276POPC   PO419032  18.306  20.721   9.506
 1276POPC   GL119033  18.260  20.644   9.071
 1276POPC   GL219034  18.028  20.530   8.829
 1276POPC   C1A19035  18.504  20.576   8.696
 1276POPC   D2A19036  18.294  20.666   8.344
 1276POPC   C3A19037  18.374  20.451   8.027
 1276POPC   C4A19038  18.534  20.652   7.686
 1276POPC   C1B19039  18.129  20.972   8.712
 1276POPC   C2B19040  17.937  21.110   8.323
 1276POPC   C3B19041  18.051  20.874   7.927
 1276POPC   C4B19042  18.005  20.478   7.686
 1277POPC   NC319043   2.734  38.219   9.510
 1277POPC   PO419044   2.473  37.599   9.388
 1277POPC   GL119045   2.597  37.736   9.026
 1277POPC   GL219046   2.854  37.916   9.112
 1277POPC   C1A19047   2.777  37.661   8.635
 1277POPC   D2A19048   2.604  37.772   8.242
 1277POPC   C3A19049   2.770  37.474   7.924
 1277POPC   C4A19050   2.804  37.537   7.484
 1277POPC   C1B19051   3.096  38.051   8.783
 1277POPC   C2B19052   3.239  37.887   8.401
 1277POPC   C3B19053   3.048  37.909   8.032
 1277POPC   C4B19054   2.960  38.099   7.672
 1278POPC   NC319055  21.991  33.754   9.605
 1278POPC   PO419056  22.538  34.110   9.575
 1278POPC   GL119057  22.256  33.862   9.194
 1278POPC   GL219058  21.951  33.595   9.150
 1278POPC   C1A19059  22.343  33.540   8.843
 1278POPC   D2A19060  22.258  33.725   8.446
 1278POPC   C3A19061  22.321  33.558   8.070
 1278POPC   C4A19062  22.218  33.748   7.729
 1278POPC   C1B19063  21.847  33.671   8.760
 1278POPC   C2B19064  21.802  33.443   8.390
 1278POPC   C3B19065  21.806  33.650   8.025
 1278POPC   C4B19066  21.741  33.982   7.730
 1279POPC   NC319067  44.982  10.538   9.364
 1279POPC   PO419068   0.665  10.331   9.581
 1279POPC   GL119069   0.500  10.490   9.170
 1279POPC   GL219070   0.829  10.600   9.079
 1279POPC   C1A19071   0.245  10.773   8.834
 1279POPC   D2A19072   0.194  10.923   8.397
 1279POPC   C3A19073   0.339  10.581   8.099
 1279POPC   C4A19074   0.734  10.530   7.892
 1279POPC   C1B19075   0.684  10.607   8.663
 1279POPC   C2B19076   0.706  10.873   8.299
 1279POPC   C3B19077   0.923  10.992   7.940
 1279POPC   C4B19078   0.910  10.974   7.496
 1280POPC   NC319079  21.190  30.634   9.458
 1280POPC   PO419080  21.771  30.958   9.455
 1280POPC   GL119081  21.633  30.669   9.115
 1280POPC   GL219082  21.585  30.312   9.164
 1280POPC   C1A19083  21.289  30.561   8.805
 1280POPC   D2A19084  21.144  30.751   8.441
 1280POPC   C3A19085  21.318  30.589   8.045
 1280POPC   C4A19086  21.163  30.622   7.632
 1280POPC   C1B19087  21.730  30.314   8.740
 1280POPC   C2B19088  21.726  30.252   8.305
 1280POPC   C3B19089  21.805  30.497   7.927
 1280POPC   C4B19090  21.676  30.500   7.493
 1281POPC   NC319091   2.192  27.526   9.443
 1281POPC   PO419092   1.525  27.661   9.668
 1281POPC   GL119093   1.782  27.687   9.175
 1281POPC   GL219094   1.605  27.819   8.925
 1281POPC   C1A19095   2.028  27.527   8.769
 1281POPC   D2A19096   2.306  27.545   8.378
 1281POPC   C3A19097   2.158  27.413   7.960
 1281POPC   C4A19098   1.959  27.203   7.580
 1281POPC   C1B19099   1.814  28.045   8.651
 1281POPC   C2B19100   1.875  28.239   8.287
 1281POPC   C3B19101   2.040  27.937   8.038
 1281POPC   C4B19102   1.833  27.840   7.684
 1282POPC   NC319103  18.268  19.443   9.268
 1282POPC   PO419104  18.301  20.128   9.409
 1282POPC   GL119105  18.327  20.131   8.987
 1282POPC   GL219106  18.095  19.858   9.012
 1282POPC   C1A19107  18.252  20.142   8.545
 1282POPC   D2A19108  18.462  19.809   8.357
 1282POPC   C3A19109  18.558  19.868   7.955
 1282POPC   C4A19110  18.382  20.143   7.623
 1282POPC   C1B19111  18.083  19.640   8.679
 1282POPC   C2B19112  17.962  19.769   8.311
 1282POPC   C3B19113  18.071  20.024   8.005
 1282POPC   C4B19114  18.150  19.691   7.689
 1283POPC   NC319115  30.520  34.850   9.467
 1283POPC   PO419116  30.991  34.373   9.446
 1283POPC   GL119117  30.757  34.519   9.148
 1283POPC   GL219118  30.888  34.833   9.091
 1283POPC   C1A19119  30.604  34.521   8.745
 1283POPC   D2A19120  30.474  34.672   8.329
 1283POPC   C3A19121  30.656  34.425   7.993
 1283POPC   C4A19122  30.475  34.462   7.579
 1283POPC   C1B19123  30.756  35.004   8.691
 1283POPC   C2B19124  30.692  35.142   8.260
 1283POPC   C3B19125  30.583  34.901   7.861
 1283POPC   C4B19126  30.853  34.827   7.471
 1284POPC   NC319127  27.947  19.656   9.524
 1284POPC   PO419128  28.511  20.013   9.458
 1284POPC   GL119129  28.346  19.727   9.136
 1284POPC   GL219130  28.337  20.011   8.950
 1284POPC   C1A19131  28.592  19.577   8.761
 1284POPC   D2A19132  28.702  19.748   8.337
 1284POPC   C3A19133  28.529  19.616   7.926
 1284POPC   C4A19134  28.479  19.819   7.540
 1284POPC   C1B19135  28.173  19.814   8.618
 1284POPC   C2B19136  28.169  19.732   8.258
 1284POPC   C3B19137  27.923  19.895   7.978
 1284POPC   C4B19138  27.993  20.062   7.560
 1285POPC   NC319139  33.713  31.693   9.456
 1285POPC   PO419140  33.895  31.044   9.420
 1285POPC   GL119141  33.943  31.336   9.083
 1285POPC   GL219142  33.924  31.710   9.015
 1285POPC   C1A19143  33.909  31.347   8.660
 1285POPC   D2A19144  33.823  31.619   8.389
 1285POPC   C3A19145  33.904  31.386   8.014
 1285POPC   C4A19146  34.151  31.363   7.668
 1285POPC   C1B19147  33.522  31.839   8.807
 1285POPC   C2B19148  33.326  31.901   8.393
 1285POPC   C3B19149  33.564  31.823   8.010
 1285POPC   C4B19150  33.773  31.700   7.623
 1286POPC   NC319151  21.715  43.146   9.680
 1286POPC   PO419152  21.152  42.946   9.731
 1286POPC   GL119153  21.389  42.913   9.348
 1286POPC   GL219154  21.144  43.043   9.131
 1286POPC   C1A19155  21.600  42.869   8.924
 1286POPC   D2A19156  21.571  43.127   8.543
 1286POPC   C3A19157  21.536  42.926   8.144
 1286POPC   C4A19158  21.615  42.939   7.707
 1286POPC   C1B19159  21.018  43.079   8.699
 1286POPC   C2B19160  21.076  43.098   8.273
 1286POPC   C3B19161  21.243  43.373   7.972
 1286POPC   C4B19162  20.978  43.642   7.700
 1287POPC   NC319163  29.602  27.311   9.402
 1287POPC   PO419164  28.953  27.509   9.562
 1287POPC   GL119165  29.171  27.609   9.158
 1287POPC   GL219166  29.318  27.342   9.007
 1287POPC   C1A19167  29.010  27.634   8.726
 1287POPC   D2A19168  28.795  27.751   8.334
 1287POPC   C3A19169  29.006  27.670   7.931
 1287POPC   C4A19170  29.309  27.833   7.573
 1287POPC   C1B19171  29.299  27.156   8.643
 1287POPC   C2B19172  29.119  27.297   8.318
 1287POPC   C3B19173  29.158  27.122   7.988
 1287POPC   C4B19174  29.364  27.352   7.726
 1288POPC   NC319175  10.874  16.055   9.464
 1288POPC   PO419176  10.324  15.987   9.782
 1288POPC   GL119177  10.317  15.865   9.303
 1288POPC   GL219178  10.478  16.130   9.152
 1288POPC   C1A19179  10.457  15.699   8.844
 1288POPC   D2A19180  10.591  15.624   8.371
 1288POPC   C3A19181  10.592  15.957   8.015
 1288POPC   C4A19182  10.865  15.911   7.595
 1288POPC   C1B19183  10.775  16.105   8.786
 1288POPC   C2B19184  10.724  16.311   8.396
 1288POPC   C3B19185  10.614  16.543   8.023
 1288POPC   C4B19186  10.646  16.362   7.624
 1289POPC   NC319187  14.046  36.190   9.371
 1289POPC   PO419188  14.679  36.046   9.720
 1289POPC   GL119189  14.558  36.135   9.263
 1289POPC   GL219190  14.368  35.824   9.196
 1289POPC   C1A19191  14.346  36.267   8.818
 1289POPC   D2A19192  14.016  36.215   8.485
 1289POPC   C3A19193  14.168  36.189   8.057
 1289POPC   C4A19194  14.414  36.400   7.745
 1289POPC   C1B19195  14.632  35.841   8.817
 1289POPC   C2B19196  14.466  35.913   8.400
 1289POPC   C3B19197  14.527  35.709   8.013
 1289POPC   C4B19198  14.659  35.934   7.654
 1290POPC   NC319199  31.680   9.901   9.384
 1290POPC   PO419200  31.090  10.143   9.370
 1290POPC   GL119201  31.297   9.962   9.050
 1290POPC   GL219202  31.286   9.622   9.215
 1290POPC   C1A19203  31.548  10.166   8.748
 1290POPC   D2A19204  31.442  10.208   8.335
 1290POPC   C3A19205  31.743  10.015   8.094
 1290POPC   C4A19206  31.438  10.033   7.778
 1290POPC   C1B19207  31.587   9.512   8.881
 1290POPC   C2B19208  31.527   9.692   8.505
 1290POPC   C3B19209  31.471   9.583   8.103
 1290POPC   C4B19210  31.732   9.613   7.756
 1291POPC   NC319211  31.719  33.933   9.586
 1291POPC   PO419212  31.169  33.553   9.774
 1291POPC   GL119213  31.328  33.744   9.339
 1291POPC   GL219214  31.637  33.568   9.201
 1291POPC   C1A19215  31.413  33.946   8.927
 1291POPC   D2A19216  31.602  33.678   8.570
 1291POPC   C3A19217  31.363  33.592   8.188
 1291POPC   C4A19218  31.415  33.433   7.759
 1291POPC   C1B19219  31.910  33.877   8.946
 1291POPC   C2B19220  31.805  34.145   8.578
 1291POPC   C3B19221  31.723  33.993   8.154
 1291POPC   C4B19222  31.494  33.968   7.755
 1292POPC   NC319223   3.946   3.774  10.114
 1292POPC   PO419224   3.604   3.416   9.578
 1292POPC   GL119225   3.482   3.475   9.178
 1292POPC   GL219226   3.809   3.544   9.060
 1292POPC   C1A19227   3.404   3.429   8.747
 1292POPC   D2A19228   3.509   3.267   8.342
 1292POPC   C3A19229   3.396   3.386   7.933
 1292POPC   C4A19230   3.225   3.465   7.550
 1292POPC   C1B19231   3.915   3.450   8.633
 1292POPC   C2B19232   3.989   3.150   8.279
 1292POPC   C3B19233   3.880   3.218   7.865
 1292POPC   C4B19234   3.727   3.389   7.477
 1293POPC   NC319235  33.537   7.069   9.292
 1293POPC   PO419236  33.994   6.503   9.323
 1293POPC   GL119237  33.693   6.634   9.066
 1293POPC   GL219238  33.407   6.570   9.280
 1293POPC   C1A19239  33.770   6.774   8.652
 1293POPC   D2A19240  34.165   6.855   8.429
 1293POPC   C3A19241  34.088   6.668   8.040
 1293POPC   C4A19242  34.023   6.568   7.610
 1293POPC   C1B19243  33.263   6.617   8.811
 1293POPC   C2B19244  33.310   6.759   8.400
 1293POPC   C3B19245  33.575   6.689   8.037
 1293POPC   C4B19246  33.717   6.975   7.710
 1294POPC   NC319247  41.675  27.296   9.591
 1294POPC   PO419248  41.276  27.787   9.495
 1294POPC   GL119249  41.390  27.515   9.139
 1294POPC   GL219250  41.754  27.527   9.144
 1294POPC   C1A19251  41.510  27.642   8.700
 1294POPC   D2A19252  41.644  27.870   8.349
 1294POPC   C3A19253  41.391  27.741   8.023
 1294POPC   C4A19254  41.436  27.421   7.738
 1294POPC   C1B19255  41.940  27.349   8.792
 1294POPC   C2B19256  41.847  27.353   8.381
 1294POPC   C3B19257  41.869  27.549   7.999
 1294POPC   C4B19258  41.931  27.327   7.623
 1295POPC   NC319259  36.713  37.269   9.614
 1295POPC   PO419260  36.773  36.607   9.453
 1295POPC   GL119261  36.832  36.934   9.157
 1295POPC   GL219262  37.116  37.117   9.253
 1295POPC   C1A19263  36.824  36.943   8.679
 1295POPC   D2A19264  36.890  36.678   8.298
 1295POPC   C3A19265  36.814  36.849   7.883
 1295POPC   C4A19266  36.753  37.211   7.607
 1295POPC   C1B19267  37.265  37.241   8.833
 1295POPC   C2B19268  37.249  37.103   8.386
 1295POPC   C3B19269  37.300  36.842   8.005
 1295POPC   C4B19270  37.220  37.007   7.597
 1296POPC   NC319271  15.364   5.398   9.632
 1296POPC   PO419272  15.176   4.676   9.605
 1296POPC   GL119273  15.342   4.914   9.259
 1296POPC   GL219274  15.054   5.104   9.237
 1296POPC   C1A19275  15.407   5.262   8.919
 1296POPC   D2A19276  15.415   5.522   8.532
 1296POPC   C3A19277  15.380   5.239   8.174
 1296POPC   C4A19278  15.265   5.087   7.768
 1296POPC   C1B19279  14.925   4.973   8.823
 1296POPC   C2B19280  15.024   4.899   8.390
 1296POPC   C3B19281  14.858   4.723   8.019
 1296POPC   C4B19282  14.848   4.863   7.599
 1297POPC   NC319283  14.285   3.223   9.468
 1297POPC   PO419284  14.740   3.776   9.569
 1297POPC   GL119285  14.465   3.656   9.196
 1297POPC   GL219286  14.179   3.873   9.115
 1297POPC   C1A19287  14.435   3.605   8.741
 1297POPC   D2A19288  14.451   3.248   8.459
 1297POPC   C3A19289  14.256   3.260   8.061
 1297POPC   C4A19290  14.293   3.494   7.708
 1297POPC   C1B19291  13.974   3.853   8.769
 1297POPC   C2B19292  14.045   3.633   8.374
 1297POPC   C3B19293  14.030   3.819   8.003
 1297POPC   C4B19294  14.164   3.982   7.659
 1298POPC   NC319295  41.000   4.930   9.615
 1298POPC   PO419296  41.702   4.973   9.529
 1298POPC   GL119297  41.846   5.126   9.124
 1298POPC   GL219298  41.540   5.248   8.973
 1298POPC   C1A19299  41.953   5.155   8.686
 1298POPC   D2A19300  41.967   4.792   8.396
 1298POPC   C3A19301  41.894   4.942   8.010
 1298POPC   C4A19302  41.879   5.300   7.775
 1298POPC   C1B19303  41.573   5.554   8.633
 1298POPC   C2B19304  41.517   5.363   8.245
 1298POPC   C3B19305  41.374   5.027   7.989
 1298POPC   C4B19306  41.322   5.013   7.549
 1299POPC   NC319307  38.646  22.488   9.482
 1299POPC   PO419308  38.073  22.093   9.512
 1299POPC   GL119309  38.379  22.152   9.204
 1299POPC   GL219310  38.219  22.509   9.213
 1299POPC   C1A19311  38.573  22.112   8.773
 1299POPC   D2A19312  38.357  22.173   8.378
 1299POPC   C3A19313  38.588  21.918   8.100
 1299POPC   C4A19314  38.645  21.947   7.704
 1299POPC   C1B19315  38.120  22.352   8.831
 1299POPC   C2B19316  37.968  22.560   8.529
 1299POPC   C3B19317  38.032  22.497   8.109
 1299POPC   C4B19318  38.170  22.124   7.863
 1300POPC   NC319319  39.053  33.773   9.497
 1300POPC   PO419320  39.744  33.713   9.472
 1300POPC   GL119321  39.466  33.739   9.134
 1300POPC   GL219322  39.154  33.559   9.045
 1300POPC   C1A19323  39.347  34.110   8.928
 1300POPC   D2A19324  39.146  34.169   8.560
 1300POPC   C3A19325  39.352  34.031   8.197
 1300POPC   C4A19326  39.308  34.240   7.824
 1300POPC   C1B19327  39.277  33.661   8.646
 1300POPC   C2B19328  39.218  33.525   8.248
 1300POPC   C3B19329  39.193  33.667   7.849
 1300POPC   C4B19330  39.061  33.900   7.542
 1301POPC   NC319331  39.103   1.700   9.531
 1301POPC   PO419332  39.533   2.204   9.533
 1301POPC   GL119333  39.299   2.214   9.151
 1301POPC   GL219334  39.130   1.907   9.057
 1301POPC   C1A19335  39.244   2.286   8.695
 1301POPC   D2A19336  39.029   2.481   8.374
 1301POPC   C3A19337  39.109   2.274   7.978
 1301POPC   C4A19338  39.489   2.134   7.782
 1301POPC   C1B19339  39.326   1.631   8.757
 1301POPC   C2B19340  39.243   1.525   8.335
 1301POPC   C3B19341  39.187   1.715   7.957
 1301POPC   C4B19342  39.062   1.907   7.630
 1302POPC   NC319343  34.008  29.308   9.739
 1302POPC   PO419344  33.567  28.837   9.660
 1302POPC   GL119345  33.629  29.021   9.228
 1302POPC   GL219346  33.929  29.222   9.233
 1302POPC   C1A19347  33.596  28.852   8.796
 1302POPC   D2A19348  33.948  28.897   8.527
 1302POPC   C3A19349  33.894  29.019   8.103
 1302POPC   C4A19350  33.559  28.967   7.807
 1302POPC   C1B19351  33.780  29.331   8.819
 1302POPC   C2B19352  33.779  29.489   8.423
 1302POPC   C3B19353  34.040  29.676   8.149
 1302POPC   C4B19354  34.052  29.411   7.802
 1303POPC   NC319355  28.104  43.532   9.668
 1303POPC   PO419356  27.645  43.004   9.561
 1303POPC   GL119357  27.655  43.191   9.166
 1303POPC   GL219358  27.939  43.434   9.162
 1303POPC   C1A19359  27.452  43.033   8.796
 1303POPC   D2A19360  27.229  42.929   8.418
 1303POPC   C3A19361  27.442  42.730   8.091
 1303POPC   C4A19362  27.402  42.959   7.757
 1303POPC   C1B19363  27.922  43.242   8.721
 1303POPC   C2B19364  27.664  43.172   8.315
 1303POPC   C3B19365  27.563  43.415   7.923
 1303POPC   C4B19366  27.736  43.258   7.526
 1304POPC   NC319367  22.428   2.153   9.520
 1304POPC   PO419368  21.754   1.832   9.423
 1304POPC   GL119369  22.137   1.878   9.186
 1304POPC   GL219370  21.909   1.873   8.928
 1304POPC   C1A19371  22.348   2.067   8.805
 1304POPC   D2A19372  22.546   2.281   8.457
 1304POPC   C3A19373  22.556   2.030   8.082
 1304POPC   C4A19374  22.642   2.195   7.651
 1304POPC   C1B19375  21.900   2.272   8.734
 1304POPC   C2B19376  22.058   2.135   8.348
 1304POPC   C3B19377  22.097   1.788   8.067
 1304POPC   C4B19378  22.142   2.113   7.762
 1305POPC   NC319379  18.688  20.980   9.541
 1305POPC   PO419380  19.281  20.899   9.373
 1305POPC   GL119381  19.104  21.224   9.131
 1305POPC   GL219382  18.735  21.291   9.121
 1305POPC   C1A19383  19.286  21.467   8.828
 1305POPC   D2A19384  19.324  21.335   8.416
 1305POPC   C3A19385  19.452  21.568   8.074
 1305POPC   C4A19386  19.171  21.654   7.772
 1305POPC   C1B19387  18.849  21.246   8.694
 1305POPC   C2B19388  18.852  21.495   8.345
 1305POPC   C3B19389  18.958  21.268   8.027
 1305POPC   C4B19390  18.865  21.114   7.630
 1306POPC   NC319391  29.428  18.537   9.495
 1306POPC   PO419392  28.890  18.204   9.599
 1306POPC   GL119393  29.001  18.431   9.211
 1306POPC   GL219394  29.309  18.308   9.050
 1306POPC   C1A19395  28.919  18.403   8.752
 1306POPC   D2A19396  29.237  18.388   8.415
 1306POPC   C3A19397  29.117  18.288   8.018
 1306POPC   C4A19398  28.894  18.371   7.655
 1306POPC   C1B19399  29.611  18.207   8.701
 1306POPC   C2B19400  29.497  17.936   8.342
 1306POPC   C3B19401  29.541  17.949   7.925
 1306POPC   C4B19402  29.489  18.302   7.670
 1307POPC   NC319403   3.627  41.145   9.537
 1307POPC   PO419404   3.237  40.585   9.584
 1307POPC   GL119405   3.528  40.670   9.223
 1307POPC   GL219406   3.605  41.014   9.052
 1307POPC   C1A19407   3.627  40.573   8.794
 1307POPC   D2A19408   3.497  40.774   8.424
 1307POPC   C3A19409   3.670  40.550   8.090
 1307POPC   C4A19410   3.783  40.567   7.676
 1307POPC   C1B19411   3.612  41.249   8.664
 1307POPC   C2B19412   3.612  41.261   8.203
 1307POPC   C3B19413   3.561  40.997   7.840
 1307POPC   C4B19414   3.625  40.950   7.363
 1308POPC   NC319415  21.185  23.555   9.621
 1308POPC   PO419416  21.545  23.990   9.617
 1308POPC   GL119417  21.316  23.893   9.219
 1308POPC   GL219418  21.475  23.601   9.191
 1308POPC   C1A19419  21.287  23.919   8.756
 1308POPC   D2A19420  20.964  23.870   8.414
 1308POPC   C3A19421  21.046  23.759   7.971
 1308POPC   C4A19422  21.348  24.057   7.764
 1308POPC   C1B19423  21.435  23.404   8.808
 1308POPC   C2B19424  21.313  23.503   8.423
 1308POPC   C3B19425  21.519  23.730   8.115
 1308POPC   C4B19426  21.487  23.554   7.704
 1309POPC   NC319427  10.347   3.995   9.446
 1309POPC   PO419428  10.370   3.396   9.559
 1309POPC   GL119429  10.696   3.462   9.237
 1309POPC   GL219430  10.554   3.712   9.089
 1309POPC   C1A19431  10.771   3.409   8.750
 1309POPC   D2A19432  10.527   3.442   8.338
 1309POPC   C3A19433  10.788   3.606   7.989
 1309POPC   C4A19434  10.772   3.870   7.618
 1309POPC   C1B19435  10.304   3.687   8.738
 1309POPC   C2B19436  10.307   3.943   8.349
 1309POPC   C3B19437  10.240   3.792   7.945
 1309POPC   C4B19438   9.921   3.784   7.615
 1310POPC   NC319439  31.991  20.117   9.606
 1310POPC   PO419440  31.348  19.893   9.545
 1310POPC   GL119441  31.309  19.732   9.137
 1310POPC   GL219442  31.377  20.059   9.028
 1310POPC   C1A19443  31.475  19.693   8.705
 1310POPC   D2A19444  31.480  19.958   8.357
 1310POPC   C3A19445  31.456  19.651   8.042
 1310POPC   C4A19446  31.291  19.510   7.660
 1310POPC   C1B19447  31.828  20.081   8.889
 1310POPC   C2B19448  31.950  20.234   8.509
 1310POPC   C3B19449  31.828  20.247   8.099
 1310POPC   C4B19450  31.470  20.119   7.831
 1311POPC   NC319451  33.778  32.690   9.405
 1311POPC   PO419452  33.808  33.381   9.483
 1311POPC   GL119453  33.693  33.194   9.106
 1311POPC   GL219454  33.952  32.968   9.002
 1311POPC   C1A19455  33.640  33.157   8.660
 1311POPC   D2A19456  33.904  33.012   8.334
 1311POPC   C3A19457  33.660  33.036   7.983
 1311POPC   C4A19458  33.622  33.280   7.605
 1311POPC   C1B19459  34.212  32.703   8.741
 1311POPC   C2B19460  34.183  32.511   8.352
 1311POPC   C3B19461  34.055  32.614   7.928
 1311POPC   C4B19462  34.041  32.986   7.673
 1312POPC   NC319463  23.699   2.922   9.546
 1312POPC   PO419464  23.391   2.370   9.524
 1312POPC   GL119465  23.592   2.507   9.120
 1312POPC   GL219466  23.775   2.827   9.065
 1312POPC   C1A19467  23.718   2.484   8.685
 1312POPC   D2A19468  23.894   2.453   8.276
 1312POPC   C3A19469  23.593   2.485   7.955
 1312POPC   C4A19470  23.572   2.587   7.560
 1312POPC   C1B19471  24.000   2.918   8.707
 1312POPC   C2B19472  23.869   3.005   8.316
 1312POPC   C3B19473  23.790   2.946   7.872
 1312POPC   C4B19474  23.647   3.060   7.404
 1313POPC   NC319475   8.812  13.928   9.395
 1313POPC   PO419476   9.350  13.555   9.451
 1313POPC   GL119477   9.124  13.616   9.083
 1313POPC   GL219478   8.863  13.396   9.215
 1313POPC   C1A19479   8.904  13.803   8.690
 1313POPC   D2A19480   8.679  13.961   8.323
 1313POPC   C3A19481   8.843  13.972   7.902
 1313POPC   C4A19482   9.222  13.861   7.725
 1313POPC   C1B19483   8.838  13.325   8.778
 1313POPC   C2B19484   9.055  13.378   8.390
 1313POPC   C3B19485   8.899  13.479   7.968
 1313POPC   C4B19486   8.558  13.296   7.721
 1314POPC   NC319487  35.235  26.883   9.714
 1314POPC   PO419488  35.744  26.848   9.292
 1314POPC   GL119489  35.454  26.581   9.113
 1314POPC   GL219490  35.184  26.834   9.191
 1314POPC   C1A19491  35.264  26.639   8.707
 1314POPC   D2A19492  35.281  26.952   8.393
 1314POPC   C3A19493  35.454  26.922   7.978
 1314POPC   C4A19494  35.475  26.559   7.728
 1314POPC   C1B19495  34.880  26.937   8.861
 1314POPC   C2B19496  34.748  27.043   8.460
 1314POPC   C3B19497  34.871  26.838   8.085
 1314POPC   C4B19498  35.021  26.832   7.693
 1315POPC   NC319499  19.260   0.948   9.552
 1315POPC   PO419500  18.747   1.356   9.419
 1315POPC   GL119501  19.079   1.323   9.169
 1315POPC   GL219502  19.044   0.975   9.096
 1315POPC   C1A19503  18.974   1.430   8.746
 1315POPC   D2A19504  19.233   1.462   8.364
 1315POPC   C3A19505  19.038   1.423   7.965
 1315POPC   C4A19506  18.782   1.416   7.626
 1315POPC   C1B19507  19.078   0.691   8.762
 1315POPC   C2B19508  19.220   0.764   8.379
 1315POPC   C3B19509  19.125   0.702   7.983
 1315POPC   C4B19510  19.097   0.989   7.660
 1316POPC   NC319511  17.988   2.374   9.504
 1316POPC   PO419512  18.645   2.043   9.499
 1316POPC   GL119513  18.456   2.115   9.122
 1316POPC   GL219514  18.115   2.190   9.039
 1316POPC   C1A19515  18.579   2.223   8.724
 1316POPC   D2A19516  18.421   2.321   8.315
 1316POPC   C3A19517  18.600   2.006   8.037
 1316POPC   C4A19518  18.494   1.850   7.614
 1316POPC   C1B19519  18.062   1.799   8.793
 1316POPC   C2B19520  18.087   1.679   8.368
 1316POPC   C3B19521  18.088   1.985   8.070
 1316POPC   C4B19522  17.917   2.054   7.696
 1317POPC   NC319523  21.430  16.272   9.571
 1317POPC   PO419524  21.156  15.688   9.541
 1317POPC   GL119525  21.441  15.902   9.170
 1317POPC   GL219526  21.569  16.271   9.101
 1317POPC   C1A19527  21.382  16.041   8.703
 1317POPC   D2A19528  21.281  15.930   8.272
 1317POPC   C3A19529  21.266  16.147   7.897
 1317POPC   C4A19530  21.276  16.111   7.470
 1317POPC   C1B19531  21.807  16.315   8.730
 1317POPC   C2B19532  21.760  16.095   8.345
 1317POPC   C3B19533  21.736  16.258   7.978
 1317POPC   C4B19534  21.773  16.088   7.583
 1318POPC   NC319535  28.664  19.502   9.450
 1318POPC   PO419536  29.351  19.753   9.548
 1318POPC   GL119537  29.100  19.681   9.179
 1318POPC   GL219538  28.834  19.903   9.101
 1318POPC   C1A19539  29.126  19.732   8.733
 1318POPC   D2A19540  29.167  19.974   8.385
 1318POPC   C3A19541  29.140  19.719   8.029
 1318POPC   C4A19542  29.229  19.768   7.608
 1318POPC   C1B19543  28.779  20.125   8.702
 1318POPC   C2B19544  28.745  20.271   8.275
 1318POPC   C3B19545  28.836  20.068   7.866
 1318POPC   C4B19546  28.892  20.085   7.411
 1319POPC   NC319547  17.603  14.325   9.609
 1319POPC   PO419548  16.959  14.491   9.475
 1319POPC   GL119549  17.311  14.335   9.188
 1319POPC   GL219550  17.551  14.607   9.108
 1319POPC   C1A19551  17.427  14.274   8.731
 1319POPC   D2A19552  17.437  14.553   8.332
 1319POPC   C3A19553  17.278  14.368   7.914
 1319POPC   C4A19554  16.874  14.251   7.724
 1319POPC   C1B19555  17.820  14.614   8.738
 1319POPC   C2B19556  17.973  14.575   8.303
 1319POPC   C3B19557  17.763  14.574   7.934
 1319POPC   C4B19558  17.681  14.246   7.625
 1320POPC   NC319559  22.723   4.575   9.656
 1320POPC   PO419560  22.976   3.997   9.658
 1320POPC   GL119561  22.832   4.224   9.307
 1320POPC   GL219562  22.969   4.577   9.216
 1320POPC   C1A19563  22.821   4.199   8.869
 1320POPC   D2A19564  22.829   4.216   8.439
 1320POPC   C3A19565  22.745   3.870   8.174
 1320POPC   C4A19566  22.670   3.941   7.759
 1320POPC   C1B19567  22.803   4.731   8.840
 1320POPC   C2B19568  22.999   4.713   8.455
 1320POPC   C3B19569  22.886   4.652   8.057
 1320POPC   C4B19570  22.873   4.498   7.648
 1321POPC   NC319571  44.443  40.844   9.603
 1321POPC   PO419572  43.807  40.817   9.701
 1321POPC   GL119573  43.940  40.693   9.297
 1321POPC   GL219574  44.172  40.898   9.174
 1321POPC   C1A19575  43.794  40.806   8.856
 1321POPC   D2A19576  43.925  40.674   8.457
 1321POPC   C3A19577  43.936  40.975   8.147
 1321POPC   C4A19578  43.954  40.794   7.765
 1321POPC   C1B19579  44.322  40.743   8.808
 1321POPC   C2B19580  44.403  40.890   8.391
 1321POPC   C3B19581  44.409  40.707   7.987
 1321POPC   C4B19582  44.445  40.891   7.616
 1322POPC   NC319583   1.580  14.246   9.556
 1322POPC   PO419584   2.140  14.570   9.455
 1322POPC   GL119585   1.830  14.482   9.156
 1322POPC   GL219586   1.555  14.707   9.237
 1322POPC   C1A19587   1.945  14.384   8.703
 1322POPC   D2A19588   2.245  14.352   8.338
 1322POPC   C3A19589   2.016  14.238   7.970
 1322POPC   C4A19590   1.559  14.183   7.925
 1322POPC   C1B19591   1.829  14.866   8.862
 1322POPC   C2B19592   1.696  14.963   8.434
 1322POPC   C3B19593   1.728  14.695   8.060
 1322POPC   C4B19594   2.081  14.700   7.783
 1323POPC   NC319595   5.409   1.288   9.383
 1323POPC   PO419596   5.941   0.846   9.429
 1323POPC   GL119597   5.799   1.094   9.066
 1323POPC   GL219598   5.795   1.457   9.060
 1323POPC   C1A19599   5.605   1.156   8.655
 1323POPC   D2A19600   5.438   1.121   8.255
 1323POPC   C3A19601   5.742   0.887   8.029
 1323POPC   C4A19602   6.032   1.106   7.747
 1323POPC   C1B19603   6.070   1.324   8.705
 1323POPC   C2B19604   5.978   1.260   8.282
 1323POPC   C3B19605   5.841   1.517   7.968
 1323POPC   C4B19606   6.098   1.614   7.583
 1324POPC   NC319607  25.757   7.041   9.465
 1324POPC   PO419608  25.983   7.673   9.584
 1324POPC   GL119609  26.042   7.425   9.190
 1324POPC   GL219610  25.784   7.212   9.004
 1324POPC   C1A19611  26.044   7.630   8.787
 1324POPC   D2A19612  26.260   7.830   8.460
 1324POPC   C3A19613  26.231   7.542   8.123
 1324POPC   C4A19614  26.033   7.594   7.726
 1324POPC   C1B19615  25.581   7.406   8.656
 1324POPC   C2B19616  25.599   7.547   8.225
 1324POPC   C3B19617  25.606   7.303   7.837
 1324POPC   C4B19618  25.815   7.247   7.433
 1325POPC   NC319619  35.819  44.004   9.447
 1325POPC   PO419620  36.496  44.130   9.493
 1325POPC   GL119621  36.244  44.143   9.119
 1325POPC   GL219622  36.163  43.811   9.074
 1325POPC   C1A19623  36.359  44.038   8.670
 1325POPC   D2A19624  36.145  43.809   8.318
 1325POPC   C3A19625  36.188  43.987   7.921
 1325POPC   C4A19626  36.585  44.178   7.843
 1325POPC   C1B19627  36.188  43.511   8.737
 1325POPC   C2B19628  36.196  43.294   8.346
 1325POPC   C3B19629  36.127  43.461   7.907
 1325POPC   C4B19630  35.971  43.686   7.538
 1326POPC   NC319631  37.910   0.723   9.623
 1326POPC   PO419632  37.586   0.164   9.554
 1326POPC   GL119633  37.775   0.394   9.219
 1326POPC   GL219634  37.645   0.751   9.196
 1326POPC   C1A19635  37.696   0.432   8.780
 1326POPC   D2A19636  37.565   0.213   8.419
 1326POPC   C3A19637  37.714   0.453   8.091
 1326POPC   C4A19638  37.961   0.345   7.755
 1326POPC   C1B19639  37.344   0.799   8.869
 1326POPC   C2B19640  37.506   0.810   8.450
 1326POPC   C3B19641  37.307   0.813   8.073
 1326POPC   C4B19642  37.469   0.687   7.692
 1327POPC   NC319643  14.792   7.346   9.468
 1327POPC   PO419644  14.271   7.254   9.790
 1327POPC   GL119645  14.295   7.405   9.225
 1327POPC   GL219646  14.490   7.665   9.163
 1327POPC   C1A19647  14.498   7.241   8.789
 1327POPC   D2A19648  14.330   7.114   8.360
 1327POPC   C3A19649  14.441   7.256   7.929
 1327POPC   C4A19650  14.783   7.596   7.846
 1327POPC   C1B19651  14.326   7.711   8.772
 1327POPC   C2B19652  14.043   7.538   8.495
 1327POPC   C3B19653  14.097   7.577   8.116
 1327POPC   C4B19654  14.286   7.726   7.788
 1328POPC   NC319655  27.768  25.839   9.650
 1328POPC   PO419656  27.160  25.834   9.333
 1328POPC   GL119657  27.538  25.844   9.146
 1328POPC   GL219658  27.654  26.150   9.250
 1328POPC   C1A19659  27.619  25.753   8.720
 1328POPC   D2A19660  27.743  25.861   8.309
 1328POPC   C3A19661  27.431  25.756   7.959
 1328POPC   C4A19662  27.378  25.990   7.589
 1328POPC   C1B19663  27.669  26.273   8.832
 1328POPC   C2B19664  27.549  26.403   8.405
 1328POPC   C3B19665  27.591  26.241   8.003
 1328POPC   C4B19666  27.890  26.116   7.714
 1329POPC   NC319667  22.828   9.658   9.713
 1329POPC   PO419668  22.949  10.298   9.613
 1329POPC   GL119669  22.903  10.110   9.191
 1329POPC   GL219670  22.797   9.773   9.190
 1329POPC   C1A19671  23.080  10.002   8.757
 1329POPC   D2A19672  22.873   9.920   8.344
 1329POPC   C3A19673  23.030   9.874   7.893
 1329POPC   C4A19674  22.954   9.934   7.431
 1329POPC   C1B19675  22.802   9.559   8.784
 1329POPC   C2B19676  22.890   9.359   8.381
 1329POPC   C3B19677  22.677   9.536   8.054
 1329POPC   C4B19678  22.659   9.573   7.639
 1330POPC   NC319679  20.164  16.269   9.580
 1330POPC   PO419680  19.673  15.811   9.516
 1330POPC   GL119681  19.761  16.143   9.197
 1330POPC   GL219682  19.531  16.376   9.038
 1330POPC   C1A19683  19.753  15.998   8.762
 1330POPC   D2A19684  19.892  15.679   8.490
 1330POPC   C3A19685  19.733  15.742   8.086
 1330POPC   C4A19686  20.097  15.620   7.929
 1330POPC   C1B19687  19.832  16.488   8.668
 1330POPC   C2B19688  19.924  16.234   8.297
 1330POPC   C3B19689  19.719  16.224   7.899
 1330POPC   C4B19690  19.406  16.358   7.639
 1331POPC   NC319691  32.026  21.028   9.439
 1331POPC   PO419692  32.683  21.157   9.497
 1331POPC   GL119693  32.519  21.407   9.170
 1331POPC   GL219694  32.217  21.282   9.051
 1331POPC   C1A19695  32.552  21.497   8.727
 1331POPC   D2A19696  32.201  21.533   8.429
 1331POPC   C3A19697  32.340  21.579   8.004
 1331POPC   C4A19698  32.362  21.427   7.564
 1331POPC   C1B19699  32.220  21.074   8.658
 1331POPC   C2B19700  32.238  21.081   8.206
 1331POPC   C3B19701  31.988  21.233   7.873
 1331POPC   C4B19702  31.967  21.098   7.458
 1332POPC   NC319703  38.650  27.989   9.284
 1332POPC   PO419704  38.459  28.586   9.494
 1332POPC   GL119705  38.328  28.377   9.098
 1332POPC   GL219706  38.114  28.048   9.121
 1332POPC   C1A19707  38.434  28.559   8.691
 1332POPC   D2A19708  38.645  28.624   8.294
 1332POPC   C3A19709  38.305  28.761   8.046
 1332POPC   C4A19710  37.983  28.528   7.838
 1332POPC   C1B19711  38.285  28.032   8.676
 1332POPC   C2B19712  38.255  28.259   8.266
 1332POPC   C3B19713  38.441  28.291   7.849
 1332POPC   C4B19714  38.597  28.133   7.447
 1333POPC   NC319715  23.847  40.274   9.696
 1333POPC   PO419716  23.461  40.709   9.542
 1333POPC   GL119717  23.682  40.566   9.175
 1333POPC   GL219718  23.555  40.236   9.176
 1333POPC   C1A19719  23.776  40.765   8.745
 1333POPC   D2A19720  23.513  40.917   8.384
 1333POPC   C3A19721  23.638  41.175   8.025
 1333POPC   C4A19722  23.833  41.040   7.637
 1333POPC   C1B19723  23.789  40.215   8.796
 1333POPC   C2B19724  23.835  40.403   8.394
 1333POPC   C3B19725  23.854  40.650   8.029
 1333POPC   C4B19726  23.983  40.550   7.615
 1334POPC   NC319727  22.233  11.543   9.738
 1334POPC   PO419728  21.772  11.077   9.484
 1334POPC   GL119729  21.943  11.400   9.171
 1334POPC   GL219730  22.148  11.684   9.246
 1334POPC   C1A19731  22.283  11.376   8.824
 1334POPC   D2A19732  22.286  11.068   8.525
 1334POPC   C3A19733  22.391  11.181   8.147
 1334POPC   C4A19734  22.281  11.105   7.726
 1334POPC   C1B19735  21.976  11.759   8.814
 1334POPC   C2B19736  22.109  11.605   8.399
 1334POPC   C3B19737  22.161  11.588   7.953
 1334POPC   C4B19738  22.453  11.682   7.604
 1335POPC   NC319739  37.303  12.080   9.493
 1335POPC   PO419740  36.715  11.740   9.652
 1335POPC   GL119741  36.838  11.942   9.229
 1335POPC   GL219742  36.647  12.266   9.159
 1335POPC   C1A19743  36.978  11.929   8.766
 1335POPC   D2A19744  37.260  11.928   8.363
 1335POPC   C3A19745  37.164  11.787   7.946
 1335POPC   C4A19746  36.920  11.733   7.559
 1335POPC   C1B19747  36.892  12.419   8.807
 1335POPC   C2B19748  36.871  12.277   8.378
 1335POPC   C3B19749  36.774  12.132   7.970
 1335POPC   C4B19750  36.715  12.415   7.645
 1336POPC   NC319751  13.265  42.999   9.481
 1336POPC   PO419752  13.813  43.487   9.520
 1336POPC   GL119753  13.640  43.278   9.179
 1336POPC   GL219754  13.696  42.942   9.174
 1336POPC   C1A19755  13.765  43.240   8.757
 1336POPC   D2A19756  13.567  43.335   8.407
 1336POPC   C3A19757  13.833  43.328   8.095
 1336POPC   C4A19758  13.626  43.364   7.754
 1336POPC   C1B19759  13.603  42.749   8.768
 1336POPC   C2B19760  13.737  42.864   8.359
 1336POPC   C3B19761  13.746  42.860   7.923
 1336POPC   C4B19762  13.892  42.671   7.618
 1337POPC   NC319763  30.842  39.860   9.574
 1337POPC   PO419764  30.324  40.349   9.542
 1337POPC   GL119765  30.550  40.075   9.208
 1337POPC   GL219766  30.512  39.684   9.177
 1337POPC   C1A19767  30.896  40.103   8.891
 1337POPC   D2A19768  30.797  40.117   8.441
 1337POPC   C3A19769  30.954  39.960   8.033
 1337POPC   C4A19770  30.713  40.107   7.667
 1337POPC   C1B19771  30.557  39.751   8.717
 1337POPC   C2B19772  30.531  39.697   8.249
 1337POPC   C3B19773  30.546  39.643   7.784
 1337POPC   C4B19774  30.433  39.739   7.352
 1338POPC   NC319775  29.832  44.180   9.508
 1338POPC   PO419776  30.433  43.874   9.524
 1338POPC   GL119777  30.155  43.920   9.178
 1338POPC   GL219778  29.833  43.725   9.197
 1338POPC   C1A19779  30.148  43.751   8.773
 1338POPC   D2A19780  30.364  43.824   8.408
 1338POPC   C3A19781  30.109  44.114   8.168
 1338POPC   C4A19782  29.953  44.166   7.742
 1338POPC   C1B19783  29.674  43.923   8.799
 1338POPC   C2B19784  29.806  43.763   8.385
 1338POPC   C3B19785  29.623  43.862   7.987
 1338POPC   C4B19786  29.563  43.709   7.563
 1339POPC   NC319787   5.188  12.323   9.795
 1339POPC   PO419788   4.831  12.899   9.524
 1339POPC   GL119789   5.007  12.655   9.212
 1339POPC   GL219790   4.752  12.844   9.031
 1339POPC   C1A19791   5.393  12.670   8.970
 1339POPC   D2A19792   5.500  13.004   8.652
 1339POPC   C3A19793   5.412  12.866   8.208
 1339POPC   C4A19794   5.239  12.893   7.790
 1339POPC   C1B19795   4.991  12.826   8.692
 1339POPC   C2B19796   4.789  12.954   8.378
 1339POPC   C3B19797   4.801  13.030   7.998
 1339POPC   C4B19798   4.761  12.592   7.806
 1340POPC   NC319799  23.312   3.701   9.530
 1340POPC   PO419800  23.793   3.317   9.765
 1340POPC   GL119801  23.595   3.343   9.292
 1340POPC   GL219802  23.579   3.682   9.077
 1340POPC   C1A19803  23.641   3.260   8.838
 1340POPC   D2A19804  23.646   3.557   8.512
 1340POPC   C3A19805  23.718   3.446   8.111
 1340POPC   C4A19806  23.448   3.351   7.767
 1340POPC   C1B19807  23.929   3.863   8.793
 1340POPC   C2B19808  24.131   3.712   8.381
 1340POPC   C3B19809  24.047   3.813   7.952
 1340POPC   C4B19810  23.696   3.802   7.692
 1341POPC   NC319811  43.495   1.871   9.209
 1341POPC   PO419812  42.957   2.026   9.541
 1341POPC   GL119813  42.861   1.929   9.139
 1341POPC   GL219814  43.042   1.677   9.101
 1341POPC   C1A19815  42.918   2.164   8.794
 1341POPC   D2A19816  43.260   2.248   8.494
 1341POPC   C3A19817  43.129   2.079   8.104
 1341POPC   C4A19818  43.323   1.818   7.815
 1341POPC   C1B19819  43.198   1.750   8.662
 1341POPC   C2B19820  43.186   1.578   8.284
 1341POPC   C3B19821  42.925   1.569   7.952
 1341POPC   C4B19822  42.984   1.638   7.476
 1342POPC   NC319823  36.885  13.921   9.575
 1342POPC   PO419824  36.595  13.348   9.787
 1342POPC   GL119825  36.717  13.372   9.323
 1342POPC   GL219826  36.412  13.278   9.143
 1342POPC   C1A19827  36.925  13.424   8.913
 1342POPC   D2A19828  36.934  13.275   8.492
 1342POPC   C3A19829  36.768  13.439   8.099
 1342POPC   C4A19830  37.029  13.733   7.866
 1342POPC   C1B19831  36.503  13.718   8.987
 1342POPC   C2B19832  36.591  13.783   8.538
 1342POPC   C3B19833  36.493  13.893   8.107
 1342POPC   C4B19834  36.542  13.798   7.680
 1343POPC   NC319835  32.958  35.085   9.502
 1343POPC   PO419836  33.326  35.672   9.405
 1343POPC   GL119837  33.160  35.356   9.122
 1343POPC   GL219838  33.108  35.617   8.949
 1343POPC   C1A19839  32.952  35.132   8.745
 1343POPC   D2A19840  32.731  35.129   8.288
 1343POPC   C3A19841  33.035  35.120   7.934
 1343POPC   C4A19842  33.172  34.880   7.526
 1343POPC   C1B19843  32.845  35.622   8.677
 1343POPC   C2B19844  33.057  35.517   8.340
 1343POPC   C3B19845  33.137  35.608   7.940
 1343POPC   C4B19846  32.707  35.544   7.861
 1344POPC   NC319847  10.666  28.060   9.350
 1344POPC   PO419848  10.307  28.563   9.460
 1344POPC   GL119849  10.413  28.523   9.049
 1344POPC   GL219850  10.395  28.175   8.919
 1344POPC   C1A19851  10.497  28.593   8.627
 1344POPC   D2A19852  10.499  28.302   8.301
 1344POPC   C3A19853  10.468  28.616   8.025
 1344POPC   C4A19854  10.644  28.486   7.677
 1344POPC   C1B19855  10.821  28.205   8.709
 1344POPC   C2B19856  10.960  28.006   8.314
 1344POPC   C3B19857  10.798  28.023   7.896
 1344POPC   C4B19858  10.892  28.108   7.457
 1345POPC   NC319859  18.128  23.363   9.749
 1345POPC   PO419860  18.248  23.953   9.383
 1345POPC   GL119861  18.270  23.762   9.027
 1345POPC   GL219862  18.411  23.449   9.079
 1345POPC   C1A19863  18.462  23.732   8.634
 1345POPC   D2A19864  18.407  23.556   8.241
 1345POPC   C3A19865  18.148  23.763   7.960
 1345POPC   C4A19866  18.328  23.793   7.539
 1345POPC   C1B19867  18.086  23.371   8.707
 1345POPC   C2B19868  18.001  23.251   8.237
 1345POPC   C3B19869  18.215  23.297   7.791
 1345POPC   C4B19870  18.306  23.287   7.329
 1346POPC   NC319871  24.147   9.830   9.443
 1346POPC   PO419872  24.675  10.125   9.664
 1346POPC   GL119873  24.573   9.932   9.219
 1346POPC   GL219874  24.535   9.622   9.198
 1346POPC   C1A19875  24.453   9.961   8.775
 1346POPC   D2A19876  24.250   9.681   8.476
 1346POPC   C3A19877  24.327   9.899   8.114
 1346POPC   C4A19878  24.028   9.975   7.834
 1346POPC   C1B19879  24.642   9.484   8.777
 1346POPC   C2B19880  24.733   9.626   8.347
 1346POPC   C3B19881  24.664   9.568   7.901
 1346POPC   C4B19882  24.395   9.734   7.597
 1347POPC   NC319883   3.434  38.259   9.584
 1347POPC   PO419884   3.009  38.630   9.431
 1347POPC   GL119885   3.262  38.380   9.124
 1347POPC   GL219886   3.632  38.310   9.122
 1347POPC   C1A19887   3.387  38.457   8.691
 1347POPC   D2A19888   3.589  38.608   8.327
 1347POPC   C3A19889   3.436  38.309   8.025
 1347POPC   C4A19890   3.365  38.428   7.616
 1347POPC   C1B19891   3.890  38.364   8.737
 1347POPC   C2B19892   3.916  38.226   8.282
 1347POPC   C3B19893   3.895  38.531   7.925
 1347POPC   C4B19894   3.847  38.536   7.472
 1348POPC   NC319895  16.964  37.958   9.484
 1348POPC   PO419896  16.351  37.664   9.502
 1348POPC   GL119897  16.628  37.719   9.128
 1348POPC   GL219898  16.846  38.012   9.006
 1348POPC   C1A19899  16.823  37.585   8.719
 1348POPC   D2A19900  17.068  37.642   8.334
 1348POPC   C3A19901  16.856  37.524   7.942
 1348POPC   C4A19902  16.478  37.336   7.768
 1348POPC   C1B19903  17.065  38.077   8.612
 1348POPC   C2B19904  17.028  38.105   8.130
 1348POPC   C3B19905  16.724  38.071   7.766
 1348POPC   C4B19906  16.591  38.106   7.273
 1349POPC   NC319907   1.496  28.018   9.392
 1349POPC   PO419908   2.194  27.956   9.221
 1349POPC   GL119909   2.043  28.327   9.094
 1349POPC   GL219910   1.700  28.334   9.040
 1349POPC   C1A19911   2.074  28.500   8.691
 1349POPC   D2A19912   2.233  28.634   8.309
 1349POPC   C3A19913   2.034  28.592   7.934
 1349POPC   C4A19914   2.113  28.268   7.651
 1349POPC   C1B19915   1.603  28.662   8.748
 1349POPC   C2B19916   1.693  28.748   8.310
 1349POPC   C3B19917   1.550  28.743   7.860
 1349POPC   C4B19918   1.729  28.556   7.479
 1350POPC   NC319919  38.336   2.284   9.472
 1350POPC   PO419920  38.875   2.029   9.777
 1350POPC   GL119921  38.696   1.955   9.329
 1350POPC   GL219922  38.822   2.267   9.311
 1350POPC   C1A19923  38.633   1.842   8.841
 1350POPC   D2A19924  38.803   1.794   8.356
 1350POPC   C3A19925  38.561   1.808   7.922
 1350POPC   C4A19926  38.232   1.947   7.529
 1350POPC   C1B19927  38.790   2.340   8.905
 1350POPC   C2B19928  38.590   2.249   8.511
 1350POPC   C3B19929  38.615   2.309   8.064
 1350POPC   C4B19930  38.676   2.206   7.622
 1351POPC   NC319931  25.874   6.143   9.279
 1351POPC   PO419932  26.319   5.693   9.437
 1351POPC   GL119933  26.074   5.702   9.034
 1351POPC   GL219934  26.146   6.009   8.843
 1351POPC   C1A19935  25.872   5.593   8.643
 1351POPC   D2A19936  26.012   5.841   8.314
 1351POPC   C3A19937  26.014   5.700   7.888
 1351POPC   C4A19938  26.075   6.096   7.685
 1351POPC   C1B19939  25.712   6.084   8.689
 1351POPC   C2B19940  25.489   6.014   8.359
 1351POPC   C3B19941  25.649   6.013   7.997
 1351POPC   C4B19942  25.608   5.787   7.593
 1352POPC   NC319943  33.555  25.218   9.399
 1352POPC   PO419944  32.923  25.195   9.535
 1352POPC   GL119945  33.105  25.308   9.127
 1352POPC   GL219946  32.862  25.189   8.890
 1352POPC   C1A19947  33.242  25.489   8.704
 1352POPC   D2A19948  33.008  25.543   8.366
 1352POPC   C3A19949  33.243  25.549   8.012
 1352POPC   C4A19950  33.106  25.399   7.690
 1352POPC   C1B19951  33.161  24.997   8.651
 1352POPC   C2B19952  33.221  25.093   8.244
 1352POPC   C3B19953  32.809  25.094   7.994
 1352POPC   C4B19954  32.543  24.693   7.932
 1353POPC   NC319955  15.010  35.781   9.553
 1353POPC   PO419956  15.030  35.109   9.702
 1353POPC   GL119957  15.094  35.189   9.253
 1353POPC   GL219958  15.442  35.050   9.239
 1353POPC   C1A19959  14.978  35.375   8.814
 1353POPC   D2A19960  14.882  35.602   8.402
 1353POPC   C3A19961  15.003  35.508   7.951
 1353POPC   C4A19962  14.922  35.502   7.490
 1353POPC   C1B19963  15.252  34.933   8.828
 1353POPC   C2B19964  15.058  35.050   8.402
 1353POPC   C3B19965  15.034  35.015   7.934
 1353POPC   C4B19966  15.319  35.226   7.630
 1354POPC   NC319967  12.310  40.251   9.485
 1354POPC   PO419968  11.668  39.906   9.474
 1354POPC   GL119969  11.959  39.823   9.115
 1354POPC   GL219970  12.155  40.087   9.050
 1354POPC   C1A19971  12.101  39.749   8.677
 1354POPC   D2A19972  12.264  39.557   8.272
 1354POPC   C3A19973  12.085  39.792   7.933
 1354POPC   C4A19974  11.653  39.831   7.903
 1354POPC   C1B19975  12.376  40.172   8.687
 1354POPC   C2B19976  12.055  40.123   8.349
 1354POPC   C3B19977  11.979  40.304   7.974
 1354POPC   C4B19978  12.402  40.280   7.812
 1355POPC   NC319979  31.246  43.754   9.443
 1355POPC   PO419980  31.843  43.744   9.365
 1355POPC   GL119981  31.566  43.848   9.073
 1355POPC   GL219982  31.420  43.525   9.033
 1355POPC   C1A19983  31.444  44.082   8.754
 1355POPC   D2A19984  31.657  44.187   8.386
 1355POPC   C3A19985  31.518  44.055   8.031
 1355POPC   C4A19986  31.264  43.852   7.749
 1355POPC   C1B19987  31.530  43.596   8.596
 1355POPC   C2B19988  31.457  43.553   8.161
 1355POPC   C3B19989  31.146  43.380   7.909
 1355POPC   C4B19990  31.156  43.434   7.469
 1356POPC   NC319991  27.946   0.550   9.470
 1356POPC   PO419992  27.274   0.214   9.557
 1356POPC   GL119993  27.411   0.327   9.115
 1356POPC   GL219994  27.787   0.312   9.021
 1356POPC   C1A19995  27.314   0.560   8.712
 1356POPC   D2A19996  27.115   0.512   8.316
 1356POPC   C3A19997  27.269   0.677   7.962
 1356POPC   C4A19998  27.622   0.566   7.725
 1356POPC   C1B19999  27.889   0.585   8.655
 1356POPC   C2B20000  27.641   0.610   8.304
 1356POPC   C3B20001  27.514   0.225   8.118
 1356POPC   C4B20002  27.764  44.936   7.916
 1357POPC   NC320003   9.643   3.406   9.492
 1357POPC   PO420004   9.894   4.080   9.536
 1357POPC   GL120005   9.770   3.834   9.186
 1357POPC   GL220006  10.051   3.594   9.183
 1357POPC   C1A20007   9.604   3.735   8.763
 1357POPC   D2A20008   9.905   3.638   8.425
 1357POPC   C3A20009   9.797   3.517   8.040
 1357POPC   C4A20010   9.553   3.858   7.971
 1357POPC   C1B20011   9.917   3.311   8.833
 1357POPC   C2B20012   9.740   3.148   8.435
 1357POPC   C3B20013   9.535   3.072   8.028
 1357POPC   C4B20014   9.321   3.434   7.818
 1358POPC   NC320015  20.872  12.824   9.531
 1358POPC   PO420016  20.447  13.280   9.529
 1358POPC   GL120017  20.520  13.109   9.139
 1358POPC   GL220018  20.540  12.779   9.147
 1358POPC   C1A20019  20.648  12.991   8.712
 1358POPC   D2A20020  20.913  13.135   8.442
 1358POPC   C3A20021  20.875  13.001   8.055
 1358POPC   C4A20022  20.601  13.092   7.763
 1358POPC   C1B20023  20.462  12.507   8.792
 1358POPC   C2B20024  20.284  12.483   8.415
 1358POPC   C3B20025  20.391  12.495   8.011
 1358POPC   C4B20026  20.684  12.599   7.728
 1359POPC   NC320027  28.869  14.277   9.650
 1359POPC   PO420028  29.489  14.571   9.442
 1359POPC   GL120029  29.218  14.213   9.267
 1359POPC   GL220030  29.375  13.946   9.043
 1359POPC   C1A20031  28.940  14.189   8.901
 1359POPC   D2A20032  28.978  14.239   8.441
 1359POPC   C3A20033  28.951  14.622   8.186
 1359POPC   C4A20034  29.066  14.674   7.722
 1359POPC   C1B20035  29.425  14.340   8.810
 1359POPC   C2B20036  29.455  14.520   8.416
 1359POPC   C3B20037  29.350  14.356   8.018
 1359POPC   C4B20038  29.528  14.444   7.615
 1360POPC   NC320039  38.661  15.325   9.325
 1360POPC   PO420040  39.265  15.057   9.601
 1360POPC   GL120041  39.243  15.197   9.204
 1360POPC   GL220042  38.975  14.982   9.141
 1360POPC   C1A20043  39.467  15.138   8.812
 1360POPC   D2A20044  39.329  15.271   8.407
 1360POPC   C3A20045  39.559  15.170   8.032
 1360POPC   C4A20046  39.447  15.253   7.632
 1360POPC   C1B20047  38.953  15.196   8.751
 1360POPC   C2B20048  38.908  15.000   8.358
 1360POPC   C3B20049  39.076  15.041   7.985
 1360POPC   C4B20050  39.120  14.868   7.623
 1361POPC   NC320051  16.263  29.045   9.417
 1361POPC   PO420052  15.930  29.604   9.511
 1361POPC   GL120053  16.001  29.370   9.122
 1361POPC   GL220054  15.859  29.027   9.109
 1361POPC   C1A20055  16.291  29.262   8.774
 1361POPC   D2A20056  16.355  29.492   8.372
 1361POPC   C3A20057  16.135  29.268   8.009
 1361POPC   C4A20058  15.844  29.304   7.662
 1361POPC   C1B20059  15.900  28.940   8.663
 1361POPC   C2B20060  15.783  28.949   8.212
 1361POPC   C3B20061  15.577  28.853   7.792
 1361POPC   C4B20062  15.389  28.678   7.396
 1362POPC   NC320063  22.089  14.753   9.357
 1362POPC   PO420064  21.787  14.236   9.743
 1362POPC   GL120065  21.972  14.245   9.295
 1362POPC   GL220066  21.753  14.467   9.118
 1362POPC   C1A20067  22.261  14.315   8.882
 1362POPC   D2A20068  22.379  14.586   8.477
 1362POPC   C3A20069  22.283  14.413   8.008
 1362POPC   C4A20070  22.140  14.055   7.724
 1362POPC   C1B20071  21.872  14.664   8.730
 1362POPC   C2B20072  21.891  14.544   8.327
 1362POPC   C3B20073  21.782  14.660   7.934
 1362POPC   C4B20074  21.780  14.386   7.589
 1363POPC   NC320075  14.570  35.150   9.786
 1363POPC   PO420076  14.161  35.599   9.629
 1363POPC   GL120077  14.276  35.305   9.322
 1363POPC   GL220078  14.007  35.447   9.121
 1363POPC   C1A20079  14.477  35.368   8.927
 1363POPC   D2A20080  14.381  35.406   8.489
 1363POPC   C3A20081  14.614  35.209   8.176
 1363POPC   C4A20082  14.564  35.195   7.747
 1363POPC   C1B20083  14.039  35.132   8.815
 1363POPC   C2B20084  13.903  35.192   8.393
 1363POPC   C3B20085  14.101  35.170   7.973
 1363POPC   C4B20086  14.052  34.842   7.610
 1364POPC   NC320087  43.548  21.868   9.553
 1364POPC   PO420088  43.120  22.343   9.670
 1364POPC   GL120089  43.350  22.211   9.244
 1364POPC   GL220090  43.149  21.962   9.215
 1364POPC   C1A20091  43.381  21.972   8.776
 1364POPC   D2A20092  43.081  21.976   8.440
 1364POPC   C3A20093  43.149  22.040   8.015
 1364POPC   C4A20094  42.976  22.266   7.720
 1364POPC   C1B20095  42.937  22.189   8.894
 1364POPC   C2B20096  42.717  22.375   8.541
 1364POPC   C3B20097  42.632  22.363   8.085
 1364POPC   C4B20098  42.512  22.513   7.650
 1365POPC   NC320099   4.498  39.843   9.413
 1365POPC   PO420100   4.082  40.343   9.496
 1365POPC   GL120101   4.332  40.224   9.106
 1365POPC   GL220102   4.191  39.876   9.018
 1365POPC   C1A20103   4.232  40.227   8.646
 1365POPC   D2A20104   3.925  40.126   8.324
 1365POPC   C3A20105   4.083  40.262   7.964
 1365POPC   C4A20106   4.194  40.295   7.565
 1365POPC   C1B20107   4.506  39.760   8.706
 1365POPC   C2B20108   4.358  39.826   8.279
 1365POPC   C3B20109   4.485  39.947   7.896
 1365POPC   C4B20110   4.890  39.857   7.782
 1366POPC   NC320111  11.490  25.135   9.439
 1366POPC   PO420112  11.354  24.505   9.543
 1366POPC   GL120113  11.226  24.547   9.153
 1366POPC   GL220114  11.109  24.884   9.162
 1366POPC   C1A20115  11.233  24.267   8.805
 1366POPC   D2A20116  11.318  24.182   8.377
 1366POPC   C3A20117  11.244  24.541   8.096
 1366POPC   C4A20118  11.268  24.412   7.688
 1366POPC   C1B20119  11.030  24.754   8.725
 1366POPC   C2B20120  10.920  24.933   8.322
 1366POPC   C3B20121  10.806  24.785   7.902
 1366POPC   C4B20122  10.859  24.589   7.490
 1367POPC   NC320123  15.724  35.524   9.336
 1367POPC   PO420124  16.291  35.474   9.654
 1367POPC   GL120125  16.257  35.527   9.199
 1367POPC   GL220126  16.080  35.284   9.021
 1367POPC   C1A20127  16.173  35.705   8.756
 1367POPC   D2A20128  15.852  35.527   8.448
 1367POPC   C3A20129  15.990  35.454   8.040
 1367POPC   C4A20130  16.174  35.767   7.842
 1367POPC   C1B20131  15.905  35.050   8.658
 1367POPC   C2B20132  15.809  35.023   8.228
 1367POPC   C3B20133  15.481  35.250   8.105
 1367POPC   C4B20134  15.524  35.645   7.910
 1368POPC   NC320135  19.062  22.123   9.524
 1368POPC   PO420136  18.841  21.425   9.605
 1368POPC   GL120137  19.024  21.696   9.262
 1368POPC   GL220138  18.727  21.831   9.200
 1368POPC   C1A20139  19.208  21.959   8.900
 1368POPC   D2A20140  19.355  21.868   8.479
 1368POPC   C3A20141  19.288  22.206   8.208
 1368POPC   C4A20142  19.263  22.156   7.769
 1368POPC   C1B20143  18.761  21.747   8.800
 1368POPC   C2B20144  18.876  22.007   8.490
 1368POPC   C3B20145  18.864  21.946   8.085
 1368POPC   C4B20146  18.759  22.068   7.716
 1369POPC   NC320147  41.816   0.241   9.583
 1369POPC   PO420148  41.420   0.776   9.519
 1369POPC   GL120149  41.726   0.621   9.227
 1369POPC   GL220150  41.639   0.286   9.124
 1369POPC   C1A20151  41.836   0.623   8.802
 1369POPC   D2A20152  41.586   0.751   8.446
 1369POPC   C3A20153  41.722   0.616   8.051
 1369POPC   C4A20154  41.536   0.697   7.682
 1369POPC   C1B20155  41.442   0.235   8.731
 1369POPC   C2B20156  41.373   0.135   8.305
 1369POPC   C3B20157  41.202   0.098   7.902
 1369POPC   C4B20158  41.530   0.194   7.632
 1370POPC   NC320159  41.802  24.019   9.522
 1370POPC   PO420160  41.714  24.612   9.304
 1370POPC   GL120161  41.516  24.369   9.050
 1370POPC   GL220162  41.809  24.169   9.044
 1370POPC   C1A20163  41.478  24.483   8.615
 1370POPC   D2A20164  41.293  24.415   8.209
 1370POPC   C3A20165  41.298  24.703   7.835
 1370POPC   C4A20166  41.429  24.598   7.421
 1370POPC   C1B20167  41.958  24.281   8.684
 1370POPC   C2B20168  41.789  24.194   8.312
 1370POPC   C3B20169  41.968  24.335   7.979
 1370POPC   C4B20170  41.823  24.618   7.728
 1371POPC   NC320171  42.099  26.835   9.716
 1371POPC   PO420172  42.564  26.445   9.485
 1371POPC   GL120173  42.366  26.703   9.182
 1371POPC   GL220174  42.014  26.657   9.225
 1371POPC   C1A20175  42.538  26.704   8.748
 1371POPC   D2A20176  42.707  26.947   8.417
 1371POPC   C3A20177  42.553  26.824   8.026
 1371POPC   C4A20178  42.626  26.806   7.587
 1371POPC   C1B20179  41.981  26.837   8.839
 1371POPC   C2B20180  42.138  26.886   8.460
 1371POPC   C3B20181  42.017  26.778   8.076
 1371POPC   C4B20182  42.102  26.837   7.652
 1372POPC   NC320183  35.987   2.984   9.403
 1372POPC   PO420184  36.559   2.681   9.618
 1372POPC   GL120185  36.426   2.787   9.194
 1372POPC   GL220186  36.137   2.582   9.080
 1372POPC   C1A20187  36.297   2.979   8.781
 1372POPC   D2A20188  36.215   2.697   8.459
 1372POPC   C3A20189  36.265   2.876   8.053
 1372POPC   C4A20190  36.507   2.841   7.666
 1372POPC   C1B20191  35.810   2.773   8.771
 1372POPC   C2B20192  35.844   3.074   8.409
 1372POPC   C3B20193  35.723   2.992   7.988
 1372POPC   C4B20194  35.927   2.692   7.718
 1373POPC   NC320195   6.356  42.529   9.401
 1373POPC   PO420196   6.335  41.835   9.534
 1373POPC   GL120197   6.669  42.061   9.209
 1373POPC   GL220198   6.643  42.398   9.010
 1373POPC   C1A20199   6.840  42.032   8.737
 1373POPC   D2A20200   6.582  42.173   8.411
 1373POPC   C3A20201   6.727  42.373   8.065
 1373POPC   C4A20202   6.612  42.266   7.683
 1373POPC   C1B20203   6.433  42.642   8.658
 1373POPC   C2B20204   6.236  42.529   8.253
 1373POPC   C3B20205   6.232  42.616   7.816
 1373POPC   C4B20206   6.234  42.585   7.374
 1374POPC   NC320207   6.111  13.441   9.409
 1374POPC   PO420208   6.764  13.605   9.675
 1374POPC   GL120209   6.794  13.747   9.265
 1374POPC   GL220210   6.562  13.509   9.178
 1374POPC   C1A20211   6.643  13.878   8.849
 1374POPC   D2A20212   6.697  13.698   8.464
 1374POPC   C3A20213   6.798  13.787   8.072
 1374POPC   C4A20214   6.665  13.806   7.663
 1374POPC   C1B20215   6.500  13.346   8.765
 1374POPC   C2B20216   6.730  13.217   8.403
 1374POPC   C3B20217   6.625  13.292   7.941
 1374POPC   C4B20218   6.775  13.279   7.495
 1375POPC   NC320219   8.474  21.101   9.747
 1375POPC   PO420220   7.854  21.228   9.422
 1375POPC   GL120221   8.096  21.257   9.094
 1375POPC   GL220222   8.440  21.320   9.178
 1375POPC   C1A20223   8.157  21.505   8.745
 1375POPC   D2A20224   8.169  21.349   8.349
 1375POPC   C3A20225   7.952  21.536   8.031
 1375POPC   C4A20226   8.135  21.489   7.646
 1375POPC   C1B20227   8.462  21.099   8.756
 1375POPC   C2B20228   8.623  21.080   8.325
 1375POPC   C3B20229   8.539  20.985   7.867
 1375POPC   C4B20230   8.626  21.039   7.425
 1376POPC   NC320231  14.944  40.868   9.401
 1376POPC   PO420232  15.371  40.467   9.449
 1376POPC   GL120233  15.268  40.637   9.089
 1376POPC   GL220234  15.362  40.933   9.089
 1376POPC   C1A20235  14.961  40.739   8.743
 1376POPC   D2A20236  15.087  40.645   8.294
 1376POPC   C3A20237  14.898  40.894   7.944
 1376POPC   C4A20238  14.813  40.951   7.501
 1376POPC   C1B20239  15.477  40.799   8.672
 1376POPC   C2B20240  15.445  41.043   8.309
 1376POPC   C3B20241  15.422  40.898   7.904
 1376POPC   C4B20242  15.248  41.158   7.623
 1377POPC   NC320243   1.386   5.194   9.536
 1377POPC   PO420244   1.581   4.650   9.370
 1377POPC   GL120245   1.302   4.982   9.109
 1377POPC   GL220246   0.947   5.045   9.245
 1377POPC   C1A20247   1.225   5.302   8.780
 1377POPC   D2A20248   1.067   5.439   8.366
 1377POPC   C3A20249   1.165   5.219   7.977
 1377POPC   C4A20250   1.198   5.299   7.521
 1377POPC   C1B20251   0.885   4.887   8.827
 1377POPC   C2B20252   1.003   4.855   8.408
 1377POPC   C3B20253   0.806   4.717   8.022
 1377POPC   C4B20254   0.997   4.848   7.669
 1378POPC   NC320255   4.407   6.204   9.365
 1378POPC   PO420256   4.363   5.556   9.523
 1378POPC   GL120257   4.422   5.605   9.111
 1378POPC   GL220258   4.626   5.883   8.990
 1378POPC   C1A20259   4.168   5.751   8.780
 1378POPC   D2A20260   4.047   5.902   8.408
 1378POPC   C3A20261   4.267   5.637   8.111
 1378POPC   C4A20262   4.556   5.748   7.812
 1378POPC   C1B20263   4.462   6.151   8.654
 1378POPC   C2B20264   4.289   6.326   8.277
 1378POPC   C3B20265   4.206   6.105   7.896
 1378POPC   C4B20266   4.396   6.058   7.462
 1379POPC   NC320267  16.001   2.966   9.480
 1379POPC   PO420268  16.149   2.310   9.325
 1379POPC   GL120269  16.147   2.648   9.098
 1379POPC   GL220270  15.805   2.669   9.085
 1379POPC   C1A20271  16.113   2.889   8.736
 1379POPC   D2A20272  15.887   2.994   8.380
 1379POPC   C3A20273  16.159   2.950   8.045
 1379POPC   C4A20274  16.184   2.696   7.676
 1379POPC   C1B20275  15.734   2.532   8.663
 1379POPC   C2B20276  15.624   2.561   8.232
 1379POPC   C3B20277  15.692   2.786   7.837
 1379POPC   C4B20278  15.416   2.764   7.472
 1380POPC   NC320279  20.747  40.253   9.559
 1380POPC   PO420280  20.815  39.620   9.453
 1380POPC   GL120281  20.676  39.723   9.061
 1380POPC   GL220282  20.578  40.059   9.113
 1380POPC   C1A20283  20.802  39.892   8.689
 1380POPC   D2A20284  20.653  40.006   8.313
 1380POPC   C3A20285  20.820  39.899   7.927
 1380POPC   C4A20286  20.477  39.810   7.704
 1380POPC   C1B20287  20.540  40.340   8.723
 1380POPC   C2B20288  20.539  40.491   8.301
 1380POPC   C3B20289  20.449  40.310   7.918
 1380POPC   C4B20290  20.472  40.306   7.477
 1381POPC   NC320291  20.521   9.280   9.869
 1381POPC   PO420292  20.791   9.840   9.745
 1381POPC   GL120293  20.642   9.810   9.327
 1381POPC   GL220294  20.488  10.108   9.186
 1381POPC   C1A20295  20.548   9.702   8.887
 1381POPC   D2A20296  20.492   9.666   8.445
 1381POPC   C3A20297  20.664   9.333   8.185
 1381POPC   C4A20298  20.868   9.343   7.788
 1381POPC   C1B20299  20.863  10.116   8.957
 1381POPC   C2B20300  20.779  10.113   8.541
 1381POPC   C3B20301  20.697  10.071   8.110
 1381POPC   C4B20302  20.589   9.786   7.777
 1382POPC   NC320303  37.132   1.084   9.525
 1382POPC   PO420304  36.592   1.404   9.674
 1382POPC   GL120305  36.739   1.286   9.247
 1382POPC   GL220306  37.072   1.483   9.174
 1382POPC   C1A20307  36.822   1.151   8.821
 1382POPC   D2A20308  36.978   0.976   8.444
 1382POPC   C3A20309  36.911   1.171   8.052
 1382POPC   C4A20310  37.003   0.946   7.692
 1382POPC   C1B20311  37.186   1.707   8.777
 1382POPC   C2B20312  37.000   1.603   8.392
 1382POPC   C3B20313  37.134   1.652   7.977
 1382POPC   C4B20314  36.957   1.530   7.625
 1383POPC   NC320315  10.011  34.219   9.627
 1383POPC   PO420316   9.727  34.921   9.509
 1383POPC   GL120317   9.769  34.703   9.147
 1383POPC   GL220318   9.776  34.352   9.155
 1383POPC   C1A20319   9.764  34.670   8.716
 1383POPC   D2A20320  10.039  34.684   8.380
 1383POPC   C3A20321   9.925  34.774   7.965
 1383POPC   C4A20322   9.570  34.628   7.771
 1383POPC   C1B20323  10.009  34.229   8.748
 1383POPC   C2B20324   9.785  34.242   8.370
 1383POPC   C3B20325   9.791  34.174   7.946
 1383POPC   C4B20326   9.950  34.327   7.559
 1384POPC   NC320327  32.703  27.384   9.444
 1384POPC   PO420328  33.027  28.015   9.482
 1384POPC   GL120329  32.998  27.688   9.147
 1384POPC   GL220330  33.274  27.750   8.958
 1384POPC   C1A20331  33.062  27.309   8.825
 1384POPC   D2A20332  33.183  27.339   8.367
 1384POPC   C3A20333  32.856  27.253   8.063
 1384POPC   C4A20334  32.962  27.116   7.634
 1384POPC   C1B20335  33.010  27.773   8.600
 1384POPC   C2B20336  33.176  27.855   8.179
 1384POPC   C3B20337  33.209  27.555   7.844
 1384POPC   C4B20338  32.814  27.613   7.687
 1385POPC   NC320339  44.456  20.143   9.644
 1385POPC   PO420340  44.640  19.564   9.465
 1385POPC   GL120341  44.676  19.921   9.211
 1385POPC   GL220342  44.348  19.966   9.173
 1385POPC   C1A20343  44.839  19.869   8.817
 1385POPC   D2A20344  44.696  19.665   8.485
 1385POPC   C3A20345  44.817  19.881   8.120
 1385POPC   C4A20346  44.962  19.830   7.720
 1385POPC   C1B20347  44.337  20.064   8.759
 1385POPC   C2B20348  44.312  19.949   8.324
 1385POPC   C3B20349  44.389  19.903   7.872
 1385POPC   C4B20350  44.353  20.120   7.460
 1386POPC   NC320351  42.366  44.341   9.497
 1386POPC   PO420352  42.184  44.971   9.579
 1386POPC   GL120353  42.187  44.723   9.177
 1386POPC   GL220354  42.532  44.590   9.058
 1386POPC   C1A20355  42.128  44.661   8.725
 1386POPC   D2A20356  42.252  44.947   8.395
 1386POPC   C3A20357  42.245  44.776   7.998
 1386POPC   C4A20358  42.567  44.829   7.691
 1386POPC   C1B20359  42.806  44.256   8.808
 1386POPC   C2B20360  42.635  44.052   8.390
 1386POPC   C3B20361  42.372  44.152   8.023
 1386POPC   C4B20362  42.217  44.393   7.669
 1387POPC   NC320363  36.046   3.882   9.533
 1387POPC   PO420364  36.412   3.328   9.324
 1387POPC   GL120365  35.998   3.459   9.158
 1387POPC   GL220366  35.829   3.793   9.096
 1387POPC   C1A20367  35.713   3.376   8.820
 1387POPC   D2A20368  35.623   3.579   8.433
 1387POPC   C3A20369  35.943   3.527   8.109
 1387POPC   C4A20370  36.091   3.473   7.683
 1387POPC   C1B20371  36.084   3.800   8.734
 1387POPC   C2B20372  36.185   3.987   8.340
 1387POPC   C3B20373  36.197   3.962   7.909
 1387POPC   C4B20374  36.495   3.773   7.663
 1388POPC   NC320375  10.322  27.365   9.786
 1388POPC   PO420376  10.872  27.716   9.581
 1388POPC   GL120377  10.580  27.457   9.295
 1388POPC   GL220378  10.226  27.315   9.274
 1388POPC   C1A20379  10.404  27.633   8.901
 1388POPC   D2A20380  10.527  27.827   8.536
 1388POPC   C3A20381  10.377  27.703   8.152
 1388POPC   C4A20382  10.513  27.622   7.757
 1388POPC   C1B20383  10.326  27.144   8.877
 1388POPC   C2B20384  10.420  27.286   8.479
 1388POPC   C3B20385  10.335  27.174   8.065
 1388POPC   C4B20386  10.042  27.324   7.787
 1389POPC   NC320387  13.561  41.452   9.531
 1389POPC   PO420388  13.623  41.991   9.288
 1389POPC   GL120389  13.619  41.667   9.023
 1389POPC   GL220390  13.626  41.281   9.068
 1389POPC   C1A20391  13.568  41.834   8.593
 1389POPC   D2A20392  13.594  41.989   8.169
 1389POPC   C3A20393  13.666  41.693   7.860
 1389POPC   C4A20394  13.465  41.291   7.772
 1389POPC   C1B20395  13.663  41.327   8.650
 1389POPC   C2B20396  13.842  41.471   8.310
 1389POPC   C3B20397  13.950  41.273   7.942
 1389POPC   C4B20398  13.898  41.233   7.506
 1390POPC   NC320399  32.048  34.673   9.543
 1390POPC   PO420400  32.676  34.436   9.772
 1390POPC   GL120401  32.452  34.308   9.360
 1390POPC   GL220402  32.094  34.187   9.325
 1390POPC   C1A20403  32.631  34.413   8.930
 1390POPC   D2A20404  32.601  34.767   8.632
 1390POPC   C3A20405  32.501  34.660   8.203
 1390POPC   C4A20406  32.448  34.480   7.799
 1390POPC   C1B20407  32.110  34.375   8.945
 1390POPC   C2B20408  32.264  34.375   8.551
 1390POPC   C3B20409  32.193  34.208   8.153
 1390POPC   C4B20410  31.972  34.294   7.756
 1391POPC   NC320411  27.325   4.607   9.695
 1391POPC   PO420412  26.627   4.480   9.643
 1391POPC   GL120413  26.578   4.502   9.199
 1391POPC   GL220414  26.842   4.228   9.183
 1391POPC   C1A20415  26.759   4.501   8.769
 1391POPC   D2A20416  26.949   4.233   8.458
 1391POPC   C3A20417  26.847   4.427   8.095
 1391POPC   C4A20418  26.433   4.570   7.996
 1391POPC   C1B20419  26.649   3.993   8.834
 1391POPC   C2B20420  26.457   3.949   8.453
 1391POPC   C3B20421  26.535   4.040   8.063
 1391POPC   C4B20422  26.617   3.823   7.723
 1392POPC   NC320423  29.483  11.704   9.689
 1392POPC   PO420424  28.902  12.020   9.803
 1392POPC   GL120425  28.960  12.077   9.321
 1392POPC   GL220426  29.164  11.794   9.186
 1392POPC   C1A20427  28.888  12.050   8.839
 1392POPC   D2A20428  28.891  11.777   8.448
 1392POPC   C3A20429  29.031  11.964   8.035
 1392POPC   C4A20430  28.825  12.182   7.740
 1392POPC   C1B20431  29.321  11.741   8.748
 1392POPC   C2B20432  29.393  11.779   8.327
 1392POPC   C3B20433  29.450  11.706   7.898
 1392POPC   C4B20434  29.439  12.157   7.756
 1393POPC   NC320435  23.049  35.115   9.446
 1393POPC   PO420436  22.584  35.677   9.532
 1393POPC   GL120437  22.795  35.502   9.189
 1393POPC   GL220438  22.715  35.175   9.070
 1393POPC   C1A20439  22.943  35.538   8.773
 1393POPC   D2A20440  22.972  35.635   8.382
 1393POPC   C3A20441  23.202  35.543   8.048
 1393POPC   C4A20442  22.976  35.534   7.668
 1393POPC   C1B20443  23.148  35.094   8.811
 1393POPC   C2B20444  23.153  35.126   8.375
 1393POPC   C3B20445  22.904  35.119   7.977
 1393POPC   C4B20446  23.019  35.040   7.535
 1394POPC   NC320447   4.823  23.269   9.252
 1394POPC   PO420448   5.054  22.962   9.748
 1394POPC   GL120449   5.070  22.819   9.264
 1394POPC   GL220450   5.266  23.068   9.119
 1394POPC   C1A20451   4.862  22.829   8.787
 1394POPC   D2A20452   4.748  22.992   8.347
 1394POPC   C3A20453   4.976  22.910   7.931
 1394POPC   C4A20454   4.909  23.172   7.539
 1394POPC   C1B20455   5.353  22.871   8.758
 1394POPC   C2B20456   5.304  23.042   8.337
 1394POPC   C3B20457   5.411  23.217   7.946
 1394POPC   C4B20458   5.372  22.991   7.576
 1395POPC   NC320459  17.441  33.450   9.920
 1395POPC   PO420460  17.195  34.040   9.563
 1395POPC   GL120461  17.374  33.928   9.151
 1395POPC   GL220462  17.256  34.254   9.056
 1395POPC   C1A20463  17.645  33.668   8.835
 1395POPC   D2A20464  17.623  33.346   8.481
 1395POPC   C3A20465  17.720  33.429   8.045
 1395POPC   C4A20466  17.483  33.655   7.750
 1395POPC   C1B20467  17.450  34.113   8.665
 1395POPC   C2B20468  17.474  33.935   8.248
 1395POPC   C3B20469  17.463  34.151   7.853
 1395POPC   C4B20470  17.595  34.046   7.411
 1396POPC   NC320471  35.555   8.462   9.373
 1396POPC   PO420472  35.318   9.018   9.465
 1396POPC   GL120473  35.407   8.963   9.071
 1396POPC   GL220474  35.644   9.204   8.969
 1396POPC   C1A20475  35.224   8.701   8.768
 1396POPC   D2A20476  35.332   8.460   8.430
 1396POPC   C3A20477  35.460   8.709   8.086
 1396POPC   C4A20478  35.464   8.657   7.649
 1396POPC   C1B20479  35.416   9.117   8.575
 1396POPC   C2B20480  35.119   9.372   8.325
 1396POPC   C3B20481  35.275   9.216   7.974
 1396POPC   C4B20482  35.677   9.106   7.794
 1397POPC   NC320483  30.915  22.191   9.447
 1397POPC   PO420484  30.257  22.214   9.295
 1397POPC   GL120485  30.593  22.077   9.062
 1397POPC   GL220486  30.728  22.415   9.019
 1397POPC   C1A20487  30.841  22.021   8.691
 1397POPC   D2A20488  30.899  22.331   8.389
 1397POPC   C3A20489  30.850  22.228   7.988
 1397POPC   C4A20490  30.930  22.141   7.567
 1397POPC   C1B20491  30.445  22.398   8.663
 1397POPC   C2B20492  30.437  22.111   8.339
 1397POPC   C3B20493  30.415  21.970   7.939
 1397POPC   C4B20494  30.437  22.351   7.708
 1398POPC   NC320495  35.297  13.939   9.553
 1398POPC   PO420496  35.046  13.355   9.434
 1398POPC   GL120497  35.396  13.553   9.181
 1398POPC   GL220498  35.520  13.910   9.109
 1398POPC   C1A20499  35.252  13.618   8.762
 1398POPC   D2A20500  35.078  13.365   8.453
 1398POPC   C3A20501  35.224  13.465   8.045
 1398POPC   C4A20502  35.190  13.774   7.723
 1398POPC   C1B20503  35.704  13.836   8.739
 1398POPC   C2B20504  35.491  13.880   8.352
 1398POPC   C3B20505  35.637  13.760   7.969
 1398POPC   C4B20506  35.666  13.902   7.565
 1399POPC   NC320507  39.795  29.272   9.451
 1399POPC   PO420508  40.342  28.936   9.583
 1399POPC   GL120509  40.143  28.966   9.200
 1399POPC   GL220510  39.819  28.782   9.277
 1399POPC   C1A20511  40.303  28.972   8.762
 1399POPC   D2A20512  40.404  29.056   8.353
 1399POPC   C3A20513  40.099  29.007   8.042
 1399POPC   C4A20514  39.900  29.422   7.948
 1399POPC   C1B20515  39.868  28.723   8.851
 1399POPC   C2B20516  39.847  29.006   8.482
 1399POPC   C3B20517  39.580  29.067   8.100
 1399POPC   C4B20518  39.577  29.194   7.645
 1400POPC   NC320519  11.837  10.232   9.480
 1400POPC   PO420520  12.238  10.702   9.566
 1400POPC   GL120521  12.241  10.762   9.132
 1400POPC   GL220522  11.933  10.576   9.114
 1400POPC   C1A20523  12.196  10.684   8.695
 1400POPC   D2A20524  11.968  10.491   8.367
 1400POPC   C3A20525  12.100  10.656   8.023
 1400POPC   C4A20526  12.189  10.472   7.662
 1400POPC   C1B20527  11.696  10.675   8.766
 1400POPC   C2B20528  11.765  10.956   8.423
 1400POPC   C3B20529  11.601  10.848   8.057
 1400POPC   C4B20530  11.706  10.642   7.683
 1401POPC   NC320531   0.311  34.966   9.505
 1401POPC   PO420532   0.251  35.740   9.482
 1401POPC   GL120533   0.363  35.394   9.192
 1401POPC   GL220534   0.696  35.242   9.273
 1401POPC   C1A20535   0.489  35.214   8.776
 1401POPC   D2A20536   0.717  35.069   8.412
 1401POPC   C3A20537   0.477  35.138   8.033
 1401POPC   C4A20538   0.132  35.471   7.945
 1401POPC   C1B20539   0.807  35.565   8.969
 1401POPC   C2B20540   0.803  35.574   8.512
 1401POPC   C3B20541   0.594  35.633   8.109
 1401POPC   C4B20542   0.720  35.691   7.699
 1402POPC   NC320543  35.035  37.318   9.507
 1402POPC   PO420544  35.435  37.829   9.706
 1402POPC   GL120545  35.274  37.810   9.306
 1402POPC   GL220546  35.585  37.949   9.218
 1402POPC   C1A20547  35.307  37.713   8.861
 1402POPC   D2A20548  35.210  37.879   8.469
 1402POPC   C3A20549  35.187  37.561   8.146
 1402POPC   C4A20550  35.162  37.769   7.760
 1402POPC   C1B20551  35.822  37.835   8.867
 1402POPC   C2B20552  35.700  37.701   8.463
 1402POPC   C3B20553  35.578  37.887   8.059
 1402POPC   C4B20554  35.611  37.532   7.788
 1403POPC   NC320555   3.975   4.277   9.381
 1403POPC   PO420556   3.447   4.688   9.552
 1403POPC   GL120557   3.439   4.532   9.130
 1403POPC   GL220558   3.792   4.511   8.963
 1403POPC   C1A20559   3.324   4.556   8.702
 1403POPC   D2A20560   3.373   4.343   8.317
 1403POPC   C3A20561   3.335   4.455   7.877
 1403POPC   C4A20562   3.159   4.154   7.591
 1403POPC   C1B20563   3.575   4.115   8.836
 1403POPC   C2B20564   3.402   3.865   8.493
 1403POPC   C3B20565   3.414   3.893   8.054
 1403POPC   C4B20566   3.692   3.803   7.751
 1404POPC   NC320567  16.706  33.988   9.508
 1404POPC   PO420568  16.434  33.399   9.469
 1404POPC   GL120569  16.492  33.710   9.137
 1404POPC   GL220570  16.866  33.812   9.051
 1404POPC   C1A20571  16.474  33.840   8.717
 1404POPC   D2A20572  16.637  33.919   8.293
 1404POPC   C3A20573  16.998  33.711   8.201
 1404POPC   C4A20574  16.989  33.528   7.806
 1404POPC   C1B20575  16.938  34.077   8.678
 1404POPC   C2B20576  17.045  34.242   8.274
 1404POPC   C3B20577  16.948  34.105   7.872
 1404POPC   C4B20578  16.684  34.155   7.540
 1405POPC   NC320579  23.967  16.809   9.490
 1405POPC   PO420580  23.488  16.477   9.491
 1405POPC   GL120581  23.602  16.700   9.133
 1405POPC   GL220582  23.922  16.776   8.984
 1405POPC   C1A20583  23.525  16.640   8.712
 1405POPC   D2A20584  23.790  16.714   8.397
 1405POPC   C3A20585  23.559  16.519   8.076
 1405POPC   C4A20586  23.572  16.584   7.662
 1405POPC   C1B20587  24.114  17.058   8.693
 1405POPC   C2B20588  24.115  17.083   8.235
 1405POPC   C3B20589  24.002  16.818   7.898
 1405POPC   C4B20590  23.963  16.894   7.459
 1406POPC   NC320591  22.516  15.152   9.628
 1406POPC   PO420592  23.204  14.894   9.542
 1406POPC   GL120593  23.018  15.104   9.182
 1406POPC   GL220594  22.696  15.303   9.200
 1406POPC   C1A20595  23.138  15.058   8.753
 1406POPC   D2A20596  23.401  14.922   8.443
 1406POPC   C3A20597  23.120  14.966   8.125
 1406POPC   C4A20598  22.926  15.003   7.738
 1406POPC   C1B20599  22.710  15.284   8.792
 1406POPC   C2B20600  22.651  15.056   8.433
 1406POPC   C3B20601  22.618  15.237   8.060
 1406POPC   C4B20602  22.608  15.398   7.661
 1407POPC   NC320603   5.380  22.537   9.644
 1407POPC   PO420604   4.957  21.998   9.731
 1407POPC   GL120605   5.061  22.073   9.273
 1407POPC   GL220606   4.937  21.733   9.206
 1407POPC   C1A20607   5.250  22.344   8.869
 1407POPC   D2A20608   5.105  22.549   8.430
 1407POPC   C3A20609   5.090  22.391   7.988
 1407POPC   C4A20610   5.381  22.375   7.604
 1407POPC   C1B20611   5.219  21.815   8.858
 1407POPC   C2B20612   5.196  22.021   8.446
 1407POPC   C3B20613   4.989  21.869   8.079
 1407POPC   C4B20614   5.121  21.957   7.696
 1408POPC   NC320615  43.746  13.127   9.431
 1408POPC   PO420616  44.400  12.957   9.511
 1408POPC   GL120617  44.152  12.955   9.172
 1408POPC   GL220618  44.115  13.330   9.142
 1408POPC   C1A20619  44.024  12.651   8.835
 1408POPC   D2A20620  43.943  12.481   8.401
 1408POPC   C3A20621  43.688  12.768   8.136
 1408POPC   C4A20622  43.665  12.792   7.715
 1408POPC   C1B20623  43.850  13.144   8.801
 1408POPC   C2B20624  44.028  12.987   8.444
 1408POPC   C3B20625  44.094  13.065   8.019
 1408POPC   C4B20626  43.755  13.256   7.871
 1409POPC   NC320627   2.538  41.630   9.537
 1409POPC   PO420628   3.141  41.472   9.609
 1409POPC   GL120629   2.941  41.652   9.225
 1409POPC   GL220630   2.768  41.317   9.184
 1409POPC   C1A20631   2.813  41.653   8.784
 1409POPC   D2A20632   2.922  41.781   8.355
 1409POPC   C3A20633   2.663  41.471   8.155
 1409POPC   C4A20634   2.384  41.326   7.829
 1409POPC   C1B20635   3.148  41.296   8.913
 1409POPC   C2B20636   3.132  41.293   8.450
 1409POPC   C3B20637   3.068  41.182   8.012
 1409POPC   C4B20638   2.972  40.981   7.642
 1410POPC   NC320639  25.359  18.218   9.523
 1410POPC   PO420640  24.848  18.606   9.264
 1410POPC   GL120641  25.283  18.656   9.158
 1410POPC   GL220642  25.535  18.385   9.082
 1410POPC   C1A20643  25.267  18.591   8.729
 1410POPC   D2A20644  25.013  18.325   8.505
 1410POPC   C3A20645  25.164  18.399   8.137
 1410POPC   C4A20646  25.260  18.619   7.769
 1410POPC   C1B20647  25.326  18.077   8.821
 1410POPC   C2B20648  25.369  17.846   8.392
 1410POPC   C3B20649  25.581  17.853   8.019
 1410POPC   C4B20650  25.299  18.080   7.782
 1411POPC   NC320651   0.769   2.743   9.599
 1411POPC   PO420652   0.095   2.545   9.487
 1411POPC   GL120653   0.416   2.716   9.206
 1411POPC   GL220654   0.770   2.547   9.127
 1411POPC   C1A20655   0.309   2.824   8.791
 1411POPC   D2A20656   0.021   2.701   8.466
 1411POPC   C3A20657   0.173   2.881   8.081
 1411POPC   C4A20658   0.360   2.756   7.699
 1411POPC   C1B20659   0.820   2.879   8.797
 1411POPC   C2B20660   0.631   2.889   8.363
 1411POPC   C3B20661   0.808   2.822   7.932
 1411POPC   C4B20662   0.807   2.504   7.584
 1412POPC   NC320663  17.737   3.082   9.541
 1412POPC   PO420664  17.496   2.481   9.588
 1412POPC   GL120665  17.481   2.767   9.226
 1412POPC   GL220666  17.835   2.725   9.174
 1412POPC   C1A20667  17.604   2.978   8.809
 1412POPC   D2A20668  17.564   2.766   8.405
 1412POPC   C3A20669  17.694   2.921   8.013
 1412POPC   C4A20670  17.484   2.991   7.615
 1412POPC   C1B20671  17.778   2.506   8.812
 1412POPC   C2B20672  17.921   2.358   8.419
 1412POPC   C3B20673  17.755   2.416   8.010
 1412POPC   C4B20674  17.833   2.600   7.604
 1413POPC   NC320675  24.409  15.005   9.568
 1413POPC   PO420676  25.013  15.365   9.665
 1413POPC   GL120677  24.759  15.289   9.219
 1413POPC   GL220678  24.384  15.269   9.145
 1413POPC   C1A20679  24.642  15.399   8.755
 1413POPC   D2A20680  24.568  15.642   8.399
 1413POPC   C3A20681  24.547  15.386   8.045
 1413POPC   C4A20682  24.514  14.935   7.962
 1413POPC   C1B20683  24.296  14.937   8.892
 1413POPC   C2B20684  24.343  14.991   8.444
 1413POPC   C3B20685  24.079  15.157   8.100
 1413POPC   C4B20686  24.011  14.941   7.700
 1414POPC   NC320687  29.459  34.381   9.471
 1414POPC   PO420688  30.064  34.736   9.541
 1414POPC   GL120689  30.012  34.566   9.140
 1414POPC   GL220690  29.685  34.678   9.147
 1414POPC   C1A20691  30.104  34.584   8.684
 1414POPC   D2A20692  29.908  34.703   8.304
 1414POPC   C3A20693  30.120  34.711   7.927
 1414POPC   C4A20694  29.955  34.501   7.604
 1414POPC   C1B20695  29.660  34.787   8.767
 1414POPC   C2B20696  29.671  35.105   8.535
 1414POPC   C3B20697  29.588  35.110   8.138
 1414POPC   C4B20698  29.637  34.858   7.804
 1415POPC   NC320699  34.182  30.657   9.499
 1415POPC   PO420700  34.688  31.130   9.553
 1415POPC   GL120701  34.565  30.901   9.200
 1415POPC   GL220702  34.445  31.171   9.016
 1415POPC   C1A20703  34.555  30.609   8.846
 1415POPC   D2A20704  34.553  30.759   8.423
 1415POPC   C3A20705  34.687  30.476   8.113
 1415POPC   C4A20706  34.538  30.505   7.729
 1415POPC   C1B20707  34.169  30.928   8.754
 1415POPC   C2B20708  34.077  30.990   8.312
 1415POPC   C3B20709  34.378  31.002   7.968
 1415POPC   C4B20710  34.373  30.931   7.510
 1416POPC   NC320711   7.462   3.126   9.418
 1416POPC   PO420712   7.214   2.505   9.546
 1416POPC   GL120713   7.448   2.471   9.180
 1416POPC   GL220714   7.567   2.810   9.043
 1416POPC   C1A20715   7.310   2.487   8.771
 1416POPC   D2A20716   7.289   2.779   8.439
 1416POPC   C3A20717   7.296   2.633   8.017
 1416POPC   C4A20718   6.968   2.436   7.798
 1416POPC   C1B20719   7.779   2.715   8.638
 1416POPC   C2B20720   7.740   2.911   8.214
 1416POPC   C3B20721   7.686   2.897   7.725
 1416POPC   C4B20722   7.564   3.031   7.278
 1417POPC   NC320723  39.064  21.322   9.527
 1417POPC   PO420724  39.485  21.836   9.642
 1417POPC   GL120725  39.405  21.574   9.235
 1417POPC   GL220726  39.598  21.260   9.355
 1417POPC   C1A20727  39.177  21.638   8.794
 1417POPC   D2A20728  39.075  21.755   8.315
 1417POPC   C3A20729  39.071  21.407   8.047
 1417POPC   C4A20730  39.090  21.379   7.577
 1417POPC   C1B20731  39.513  21.166   8.918
 1417POPC   C2B20732  39.299  21.218   8.522
 1417POPC   C3B20733  39.509  21.178   8.141
 1417POPC   C4B20734  39.446  21.034   7.725
 1418POPC   NC320735  35.436  41.769   9.506
 1418POPC   PO420736  34.999  41.398   9.761
 1418POPC   GL120737  35.139  41.399   9.320
 1418POPC   GL220738  35.026  41.665   9.112
 1418POPC   C1A20739  35.371  41.343   8.898
 1418POPC   D2A20740  35.460  41.510   8.457
 1418POPC   C3A20741  35.490  41.209   8.144
 1418POPC   C4A20742  35.641  41.256   7.747
 1418POPC   C1B20743  35.331  41.867   8.817
 1418POPC   C2B20744  35.538  42.033   8.437
 1418POPC   C3B20745  35.499  41.866   8.008
 1418POPC   C4B20746  35.264  41.608   7.717
 1419POPC   NC320747   1.283  40.847   9.519
 1419POPC   PO420748   1.084  40.207   9.482
 1419POPC   GL120749   0.941  40.477   9.095
 1419POPC   GL220750   1.045  40.825   9.070
 1419POPC   C1A20751   0.927  40.558   8.620
 1419POPC   D2A20752   1.236  40.630   8.263
 1419POPC   C3A20753   1.082  40.533   7.842
 1419POPC   C4A20754   1.092  40.851   7.527
 1419POPC   C1B20755   1.241  40.966   8.691
 1419POPC   C2B20756   1.429  41.145   8.311
 1419POPC   C3B20757   1.329  41.128   7.872
 1419POPC   C4B20758   1.507  41.134   7.413
 1420POPC   NC320759   5.524  20.958   9.317
 1420POPC   PO420760   6.111  20.595   9.439
 1420POPC   GL120761   5.898  20.655   9.071
 1420POPC   GL220762   6.009  20.969   9.079
 1420POPC   C1A20763   5.639  20.604   8.703
 1420POPC   D2A20764   5.731  20.687   8.305
 1420POPC   C3A20765   5.583  20.529   7.954
 1420POPC   C4A20766   5.960  20.546   7.821
 1420POPC   C1B20767   5.884  21.075   8.656
 1420POPC   C2B20768   5.628  21.183   8.283
 1420POPC   C3B20769   5.531  21.058   7.870
 1420POPC   C4B20770   5.643  21.095   7.435
 1421POPC   NC320771  41.011   9.662   9.759
 1421POPC   PO420772  40.592   9.991   9.387
 1421POPC   GL120773  40.892   9.988   9.077
 1421POPC   GL220774  41.002   9.668   9.136
 1421POPC   C1A20775  40.991   9.951   8.657
 1421POPC   D2A20776  41.179   9.916   8.248
 1421POPC   C3A20777  40.801   9.871   7.992
 1421POPC   C4A20778  40.395   9.967   7.782
 1421POPC   C1B20779  40.819   9.479   8.744
 1421POPC   C2B20780  40.576   9.640   8.391
 1421POPC   C3B20781  40.475   9.474   7.977
 1421POPC   C4B20782  40.821   9.450   7.688
 1422POPC   NC320783   9.673  14.842   9.431
 1422POPC   PO420784   9.896  15.462   9.563
 1422POPC   GL120785   9.685  15.368   9.183
 1422POPC   GL220786   9.388  15.175   9.168
 1422POPC   C1A20787   9.637  15.440   8.753
 1422POPC   D2A20788   9.765  15.048   8.564
 1422POPC   C3A20789   9.806  15.146   8.193
 1422POPC   C4A20790   9.803  15.299   7.812
 1422POPC   C1B20791   9.313  15.048   8.795
 1422POPC   C2B20792   9.263  15.173   8.394
 1422POPC   C3B20793   9.362  15.035   7.985
 1422POPC   C4B20794   9.317  15.251   7.637
 1423POPC   NC320795  18.446  35.838   9.578
 1423POPC   PO420796  18.485  35.212   9.551
 1423POPC   GL120797  18.348  35.402   9.170
 1423POPC   GL220798  17.996  35.442   9.263
 1423POPC   C1A20799  18.380  35.290   8.721
 1423POPC   D2A20800  18.398  35.034   8.336
 1423POPC   C3A20801  18.239  35.253   7.972
 1423POPC   C4A20802  18.441  35.442   7.609
 1423POPC   C1B20803  17.949  35.536   8.824
 1423POPC   C2B20804  17.829  35.473   8.404
 1423POPC   C3B20805  17.890  35.618   7.963
 1423POPC   C4B20806  17.944  35.425   7.556
 1424POPC   NC320807  10.692  32.889   9.433
 1424POPC   PO420808  10.001  33.127   9.396
 1424POPC   GL120809  10.303  33.071   9.147
 1424POPC   GL220810  10.343  32.721   9.105
 1424POPC   C1A20811  10.526  33.239   8.806
 1424POPC   D2A20812  10.615  33.044   8.428
 1424POPC   C3A20813  10.636  33.232   8.016
 1424POPC   C4A20814  10.492  33.144   7.598
 1424POPC   C1B20815  10.692  32.711   8.819
 1424POPC   C2B20816  10.811  32.467   8.459
 1424POPC   C3B20817  10.786  32.715   8.098
 1424POPC   C4B20818  10.900  32.841   7.734
 1425POPC   NC320819  37.602  30.355   9.591
 1425POPC   PO420820  37.834  30.985   9.534
 1425POPC   GL120821  37.668  30.903   9.175
 1425POPC   GL220822  37.909  31.121   9.048
 1425POPC   C1A20823  37.621  30.521   8.938
 1425POPC   D2A20824  37.639  30.377   8.520
 1425POPC   C3A20825  37.570  30.598   8.116
 1425POPC   C4A20826  37.809  30.612   7.734
 1425POPC   C1B20827  37.864  30.874   8.679
 1425POPC   C2B20828  38.113  30.983   8.349
 1425POPC   C3B20829  37.929  31.009   8.033
 1425POPC   C4B20830  37.778  31.156   7.699
 1426POPC   NC320831  34.753   1.441   9.477
 1426POPC   PO420832  34.169   1.206   9.686
 1426POPC   GL120833  34.450   1.139   9.226
 1426POPC   GL220834  34.681   1.408   8.983
 1426POPC   C1A20835  34.495   0.997   8.796
 1426POPC   D2A20836  34.346   1.136   8.409
 1426POPC   C3A20837  34.637   1.222   8.085
 1426POPC   C4A20838  34.456   1.204   7.685
 1426POPC   C1B20839  34.422   1.605   8.623
 1426POPC   C2B20840  34.399   1.686   8.154
 1426POPC   C3B20841  34.673   1.656   7.772
 1426POPC   C4B20842  34.957   1.285   7.643
 1427POPC   NC320843   4.220  31.892  10.008
 1427POPC   PO420844   4.704  32.011   9.471
 1427POPC   GL120845   4.607  32.357   9.179
 1427POPC   GL220846   4.297  32.548   9.226
 1427POPC   C1A20847   4.515  32.286   8.742
 1427POPC   D2A20848   4.339  32.343   8.338
 1427POPC   C3A20849   4.410  32.055   8.013
 1427POPC   C4A20850   4.671  32.086   7.648
 1427POPC   C1B20851   4.027  32.523   8.862
 1427POPC   C2B20852   3.826  32.473   8.468
 1427POPC   C3B20853   3.960  32.547   8.062
 1427POPC   C4B20854   4.237  32.429   7.715
 1428POPC   NC320855  16.422  22.440   9.498
 1428POPC   PO420856  17.031  22.208   9.469
 1428POPC   GL120857  16.873  22.245   9.058
 1428POPC   GL220858  16.550  22.277   9.031
 1428POPC   C1A20859  17.008  22.015   8.669
 1428POPC   D2A20860  16.768  21.943   8.253
 1428POPC   C3A20861  16.916  22.183   7.903
 1428POPC   C4A20862  16.896  22.117   7.418
 1428POPC   C1B20863  16.605  22.310   8.591
 1428POPC   C2B20864  16.325  22.377   8.266
 1428POPC   C3B20865  16.293  22.479   7.852
 1428POPC   C4B20866  16.653  22.499   7.630
 1429POPC   NC320867  31.535  21.691   9.236
 1429POPC   PO420868  31.433  22.282   9.507
 1429POPC   GL120869  31.291  22.159   9.081
 1429POPC   GL220870  31.651  22.186   9.023
 1429POPC   C1A20871  31.344  22.178   8.608
 1429POPC   D2A20872  31.712  22.400   8.395
 1429POPC   C3A20873  31.738  22.279   7.964
 1429POPC   C4A20874  31.442  22.290   7.621
 1429POPC   C1B20875  31.793  21.957   8.663
 1429POPC   C2B20876  31.873  21.875   8.250
 1429POPC   C3B20877  31.726  21.743   7.863
 1429POPC   C4B20878  31.709  21.927   7.431
 1430POPC   NC320879   0.670  36.743   9.588
 1430POPC   PO420880   0.184  37.245   9.595
 1430POPC   GL120881   0.236  36.852   9.301
 1430POPC   GL220882  44.983  36.569   9.219
 1430POPC   C1A20883   0.470  36.721   8.918
 1430POPC   D2A20884   0.600  36.928   8.544
 1430POPC   C3A20885   0.783  36.856   8.136
 1430POPC   C4A20886   0.790  37.050   7.758
 1430POPC   C1B20887   0.054  36.414   8.760
 1430POPC   C2B20888   0.330  36.514   8.395
 1430POPC   C3B20889   0.284  36.865   8.089
 1430POPC   C4B20890   0.015  36.820   7.756
 1431POPC   NC320891  42.579  10.125   9.431
 1431POPC   PO420892  42.132   9.555   9.358
 1431POPC   GL120893  42.327   9.816   9.102
 1431POPC   GL220894  42.109  10.114   9.124
 1431POPC   C1A20895  42.527   9.742   8.715
 1431POPC   D2A20896  42.760   9.942   8.379
 1431POPC   C3A20897  42.561   9.674   8.086
 1431POPC   C4A20898  42.432   9.589   7.684
 1431POPC   C1B20899  42.327  10.197   8.728
 1431POPC   C2B20900  42.250  10.049   8.296
 1431POPC   C3B20901  42.241  10.042   7.839
 1431POPC   C4B20902  42.120   9.896   7.424
 1432POPC   NC320903  31.030  41.365   9.388
 1432POPC   PO420904  31.462  41.788   9.724
 1432POPC   GL120905  31.635  41.808   9.278
 1432POPC   GL220906  31.310  41.845   9.168
 1432POPC   C1A20907  31.768  41.824   8.858
 1432POPC   D2A20908  31.608  41.866   8.438
 1432POPC   C3A20909  31.820  41.609   8.129
 1432POPC   C4A20910  31.992  41.421   7.762
 1432POPC   C1B20911  31.303  41.625   8.771
 1432POPC   C2B20912  31.354  41.421   8.356
 1432POPC   C3B20913  31.335  41.372   7.889
 1432POPC   C4B20914  31.108  41.524   7.485
 1433POPC   NC320915   5.223  41.247   9.489
 1433POPC   PO420916   4.727  41.687   9.351
 1433POPC   GL120917   5.139  41.658   9.187
 1433POPC   GL220918   5.319  41.991   9.173
 1433POPC   C1A20919   5.137  41.400   8.816
 1433POPC   D2A20920   4.859  41.496   8.459
 1433POPC   C3A20921   5.040  41.363   8.072
 1433POPC   C4A20922   4.950  41.622   7.723
 1433POPC   C1B20923   5.454  41.795   8.792
 1433POPC   C2B20924   5.379  41.616   8.400
 1433POPC   C3B20925   5.116  41.864   8.159
 1433POPC   C4B20926   5.323  42.092   7.868
 1434POPC   NC320927  11.670   3.277   9.471
 1434POPC   PO420928  12.165   3.722   9.709
 1434POPC   GL120929  12.173   3.599   9.254
 1434POPC   GL220930  12.389   3.282   9.208
 1434POPC   C1A20931  12.074   3.791   8.854
 1434POPC   D2A20932  11.780   3.810   8.516
 1434POPC   C3A20933  11.988   3.672   8.132
 1434POPC   C4A20934  11.754   3.585   7.754
 1434POPC   C1B20935  12.148   3.213   8.811
 1434POPC   C2B20936  11.949   3.042   8.400
 1434POPC   C3B20937  11.932   3.145   7.955
 1434POPC   C4B20938  12.265   3.381   7.756
 1435POPC   NC320939  15.368  19.742   9.413
 1435POPC   PO420940  14.756  19.630   9.331
 1435POPC   GL120941  14.941  19.986   9.126
 1435POPC   GL220942  15.231  20.202   9.233
 1435POPC   C1A20943  15.036  19.874   8.720
 1435POPC   D2A20944  14.915  19.585   8.416
 1435POPC   C3A20945  14.831  19.794   8.021
 1435POPC   C4A20946  15.106  19.849   7.688
 1435POPC   C1B20947  15.332  20.273   8.801
 1435POPC   C2B20948  15.352  20.059   8.370
 1435POPC   C3B20949  15.343  20.237   7.954
 1435POPC   C4B20950  15.445  20.171   7.515
 1436POPC   NC320951  38.245   5.654   9.508
 1436POPC   PO420952  38.863   5.898   9.407
 1436POPC   GL120953  38.629   5.664   9.135
 1436POPC   GL220954  38.332   5.890   9.075
 1436POPC   C1A20955  38.734   5.542   8.743
 1436POPC   D2A20956  38.681   5.689   8.354
 1436POPC   C3A20957  38.992   5.644   8.065
 1436POPC   C4A20958  38.805   5.800   7.700
 1436POPC   C1B20959  38.237   5.661   8.726
 1436POPC   C2B20960  38.158   5.793   8.320
 1436POPC   C3B20961  38.272   5.706   7.945
 1436POPC   C4B20962  38.298   5.793   7.538
 1437POPC   NC320963  14.592  23.125   9.627
 1437POPC   PO420964  14.296  22.604   9.424
 1437POPC   GL120965  14.407  22.782   9.086
 1437POPC   GL220966  14.367  23.148   9.147
 1437POPC   C1A20967  14.235  22.734   8.679
 1437POPC   D2A20968  14.202  22.924   8.288
 1437POPC   C3A20969  14.305  22.688   7.927
 1437POPC   C4A20970  14.094  22.629   7.529
 1437POPC   C1B20971  14.579  23.114   8.734
 1437POPC   C2B20972  14.570  23.280   8.339
 1437POPC   C3B20973  14.486  23.162   7.917
 1437POPC   C4B20974  14.518  22.917   7.504
 1438POPC   NC320975  21.468  32.156   9.575
 1438POPC   PO420976  20.766  32.132   9.498
 1438POPC   GL120977  21.156  32.220   9.184
 1438POPC   GL220978  21.537  32.313   9.112
 1438POPC   C1A20979  21.172  32.450   8.800
 1438POPC   D2A20980  21.438  32.467   8.463
 1438POPC   C3A20981  21.282  32.341   8.061
 1438POPC   C4A20982  21.467  32.391   7.670
 1438POPC   C1B20983  21.459  32.011   8.777
 1438POPC   C2B20984  21.569  31.962   8.355
 1438POPC   C3B20985  21.608  31.953   7.903
 1438POPC   C4B20986  21.741  31.867   7.469
 1439POPC   NC320987   7.089  39.789   9.378
 1439POPC   PO420988   7.473  40.322   9.620
 1439POPC   GL120989   7.512  40.086   9.229
 1439POPC   GL220990   7.827  39.901   9.286
 1439POPC   C1A20991   7.485  40.236   8.793
 1439POPC   D2A20992   7.595  40.206   8.364
 1439POPC   C3A20993   7.339  39.896   8.151
 1439POPC   C4A20994   6.995  39.940   7.862
 1439POPC   C1B20995   7.835  39.863   8.837
 1439POPC   C2B20996   7.893  39.784   8.391
 1439POPC   C3B20997   7.815  39.924   7.964
 1439POPC   C4B20998   7.490  39.844   7.642
 1440POPC   NC320999  38.606  20.796   9.792
 1440POPC   PO421000  39.306  20.971   9.697
 1440POPC   GL121001  39.179  20.853   9.283
 1440POPC   GL221002  39.498  20.707   9.195
 1440POPC   C1A21003  39.098  20.820   8.832
 1440POPC   D2A21004  38.929  20.891   8.405
 1440POPC   C3A21005  39.215  20.753   8.086
 1440POPC   C4A21006  39.175  20.605   7.633
 1440POPC   C1B21007  39.472  20.439   8.811
 1440POPC   C2B21008  39.591  20.342   8.364
 1440POPC   C3B21009  39.552  20.411   7.923
 1440POPC   C4B21010  39.722  20.624   7.567
 1441POPC   NC321011  14.043  33.543   9.602
 1441POPC   PO421012  14.734  33.570   9.586
 1441POPC   GL121013  14.432  33.644   9.237
 1441POPC   GL221014  14.234  33.977   9.248
 1441POPC   C1A21015  14.481  33.718   8.786
 1441POPC   D2A21016  14.701  33.720   8.356
 1441POPC   C3A21017  14.455  33.611   7.968
 1441POPC   C4A21018  14.486  33.617   7.472
 1441POPC   C1B21019  14.059  34.050   8.840
 1441POPC   C2B21020  14.177  33.905   8.427
 1441POPC   C3B21021  13.999  33.799   8.064
 1441POPC   C4B21022  14.172  33.990   7.677
 1442POPC   NC321023  41.417  42.171   9.389
 1442POPC   PO421024  41.549  42.799   9.444
 1442POPC   GL121025  41.499  42.587   9.067
 1442POPC   GL221026  41.763  42.351   9.025
 1442POPC   C1A21027  41.314  42.500   8.663
 1442POPC   D2A21028  41.095  42.625   8.281
 1442POPC   C3A21029  41.277  42.498   7.875
 1442POPC   C4A21030  41.660  42.314   7.787
 1442POPC   C1B21031  41.617  42.062   8.690
 1442POPC   C2B21032  41.441  42.160   8.269
 1442POPC   C3B21033  41.288  41.972   7.884
 1442POPC   C4B21034  41.521  41.811   7.532
 1443POPC   NC321035  27.042  24.465   9.436
 1443POPC   PO421036  26.385  24.357   9.370
 1443POPC   GL121037  26.667  24.329   9.032
 1443POPC   GL221038  26.952  24.533   8.957
 1443POPC   C1A21039  26.730  24.255   8.599
 1443POPC   D2A21040  26.953  24.408   8.277
 1443POPC   C3A21041  26.731  24.356   7.920
 1443POPC   C4A21042  26.389  24.451   7.683
 1443POPC   C1B21043  26.814  24.792   8.648
 1443POPC   C2B21044  26.862  24.949   8.240
 1443POPC   C3B21045  27.108  24.764   7.920
 1443POPC   C4B21046  27.141  24.778   7.484
 1444POPC   NC321047  39.739  26.917   9.642
 1444POPC   PO421048  40.144  26.481   9.561
 1444POPC   GL121049  40.026  26.718   9.178
 1444POPC   GL221050  39.791  26.964   9.134
 1444POPC   C1A21051  40.197  26.849   8.769
 1444POPC   D2A21052  40.176  27.063   8.376
 1444POPC   C3A21053  40.190  26.810   7.992
 1444POPC   C4A21054  39.919  26.854   7.609
 1444POPC   C1B21055  39.772  27.160   8.739
 1444POPC   C2B21056  39.663  27.199   8.334
 1444POPC   C3B21057  39.839  27.238   7.931
 1444POPC   C4B21058  39.811  27.345   7.469
 1445POPC   NC321059   8.552   8.070   9.590
 1445POPC   PO421060   8.943   8.617   9.412
 1445POPC   GL121061   8.932   8.353   9.042
 1445POPC   GL221062   8.673   8.091   9.086
 1445POPC   C1A21063   9.082   8.318   8.632
 1445POPC   D2A21064   8.992   8.096   8.229
 1445POPC   C3A21065   9.111   8.200   7.799
 1445POPC   C4A21066   9.185   8.001   7.375
 1445POPC   C1B21067   8.523   8.426   8.782
 1445POPC   C2B21068   8.681   8.503   8.406
 1445POPC   C3B21069   8.598   8.414   7.987
 1445POPC   C4B21070   8.688   8.376   7.564
 1446POPC   NC321071  24.649  37.199   9.572
 1446POPC   PO421072  24.277  36.659   9.503
 1446POPC   GL121073  24.433  36.848   9.128
 1446POPC   GL221074  24.756  36.972   9.119
 1446POPC   C1A21075  24.578  36.646   8.718
 1446POPC   D2A21076  24.555  36.824   8.285
 1446POPC   C3A21077  24.830  37.071   8.024
 1446POPC   C4A21078  24.826  36.772   7.685
 1446POPC   C1B21079  24.517  37.140   8.712
 1446POPC   C2B21080  24.539  37.371   8.347
 1446POPC   C3B21081  24.399  37.368   7.967
 1446POPC   C4B21082  24.361  37.002   7.780
 1447POPC   NC321083  43.391  36.472   9.532
 1447POPC   PO421084  43.343  35.810   9.445
 1447POPC   GL121085  43.063  36.129   9.255
 1447POPC   GL221086  43.372  36.198   9.069
 1447POPC   C1A21087  42.964  36.368   8.856
 1447POPC   D2A21088  43.187  36.259   8.447
 1447POPC   C3A21089  43.101  36.466   8.056
 1447POPC   C4A21090  42.990  36.363   7.628
 1447POPC   C1B21091  43.165  35.871   8.782
 1447POPC   C2B21092  43.212  35.682   8.350
 1447POPC   C3B21093  43.349  35.965   8.026
 1447POPC   C4B21094  43.264  35.945   7.601
 1448POPC   NC321095  22.051   3.896   9.360
 1448POPC   PO421096  22.275   3.297   9.519
 1448POPC   GL121097  22.283   3.470   9.132
 1448POPC   GL221098  22.621   3.368   9.133
 1448POPC   C1A21099  22.187   3.614   8.682
 1448POPC   D2A21100  22.224   3.840   8.264
 1448POPC   C3A21101  21.994   3.625   7.962
 1448POPC   C4A21102  21.918   3.191   7.840
 1448POPC   C1B21103  22.695   3.571   8.758
 1448POPC   C2B21104  22.637   3.386   8.362
 1448POPC   C3B21105  22.482   3.440   7.930
 1448POPC   C4B21106  22.375   3.196   7.548
 1449POPC   NC321107  20.428  11.953   9.321
 1449POPC   PO421108  20.893  12.454   9.258
 1449POPC   GL121109  20.771  12.093   8.975
 1449POPC   GL221110  20.908  11.786   9.200
 1449POPC   C1A21111  20.357  12.008   8.693
 1449POPC   D2A21112  20.250  12.001   8.252
 1449POPC   C3A21113  20.641  12.029   8.007
 1449POPC   C4A21114  20.947  12.161   7.737
 1449POPC   C1B21115  20.820  11.603   8.815
 1449POPC   C2B21116  20.693  11.741   8.438
 1449POPC   C3B21117  20.490  11.543   8.129
 1449POPC   C4B21118  20.696  11.551   7.769
 1450POPC   NC321119  41.280  38.246   9.507
 1450POPC   PO421120  41.760  38.713   9.597
 1450POPC   GL121121  41.523  38.602   9.241
 1450POPC   GL221122  41.823  38.490   9.089
 1450POPC   C1A21123  41.442  38.643   8.797
 1450POPC   D2A21124  41.808  38.564   8.549
 1450POPC   C3A21125  41.753  38.418   8.148
 1450POPC   C4A21126  41.624  38.601   7.795
 1450POPC   C1B21127  41.905  38.115   8.865
 1450POPC   C2B21128  41.985  38.058   8.435
 1450POPC   C3B21129  41.963  37.977   7.985
 1450POPC   C4B21130  41.762  38.148   7.612
 1451POPC   NC321131  31.608  14.827   9.891
 1451POPC   PO421132  31.344  15.236   9.429
 1451POPC   GL121133  31.496  15.204   9.041
 1451POPC   GL221134  31.821  15.321   9.141
 1451POPC   C1A21135  31.191  15.086   8.720
 1451POPC   D2A21136  31.234  15.229   8.303
 1451POPC   C3A21137  31.121  15.022   7.941
 1451POPC   C4A21138  31.308  15.328   7.668
 1451POPC   C1B21139  32.014  15.245   8.742
 1451POPC   C2B21140  32.031  15.386   8.312
 1451POPC   C3B21141  31.733  15.378   7.970
 1451POPC   C4B21142  31.819  15.302   7.518
 1452POPC   NC321143  38.500  32.092   9.461
 1452POPC   PO421144  38.362  32.727   9.384
 1452POPC   GL121145  38.259  32.358   9.083
 1452POPC   GL221146  38.231  31.943   9.082
 1452POPC   C1A21147  38.449  32.330   8.677
 1452POPC   D2A21148  38.718  32.420   8.318
 1452POPC   C3A21149  38.486  32.329   7.954
 1452POPC   C4A21150  38.383  32.444   7.540
 1452POPC   C1B21151  38.418  31.816   8.713
 1452POPC   C2B21152  38.393  31.959   8.311
 1452POPC   C3B21153  38.568  31.802   7.951
 1452POPC   C4B21154  38.617  31.994   7.591
 1453POPC   NC321155  10.665  20.173   9.598
 1453POPC   PO421156  10.190  19.627   9.572
 1453POPC   GL121157  10.408  19.705   9.213
 1453POPC   GL221158  10.319  20.042   9.214
 1453POPC   C1A21159  10.245  19.682   8.796
 1453POPC   D2A21160  10.194  19.913   8.421
 1453POPC   C3A21161  10.487  19.954   8.125
 1453POPC   C4A21162  10.541  19.855   7.726
 1453POPC   C1B21163  10.493  20.120   8.843
 1453POPC   C2B21164  10.325  20.416   8.561
 1453POPC   C3B21165  10.144  20.367   8.181
 1453POPC   C4B21166  10.236  20.408   7.768
 1454POPC   NC321167  17.172  31.992   9.528
 1454POPC   PO421168  17.707  32.411   9.346
 1454POPC   GL121169  17.450  32.128   9.101
 1454POPC   GL221170  17.189  32.353   9.180
 1454POPC   C1A21171  17.397  32.089   8.652
 1454POPC   D2A21172  17.591  31.933   8.316
 1454POPC   C3A21173  17.458  32.026   7.922
 1454POPC   C4A21174  17.698  32.229   7.619
 1454POPC   C1B21175  17.261  32.540   8.826
 1454POPC   C2B21176  17.054  32.495   8.440
 1454POPC   C3B21177  17.209  32.494   8.018
 1454POPC   C4B21178  17.138  32.390   7.591
 1455POPC   NC321179  38.609  27.985   9.832
 1455POPC   PO421180  38.047  27.675   9.518
 1455POPC   GL121181  38.353  27.582   9.157
 1455POPC   GL221182  38.405  27.207   9.054
 1455POPC   C1A21183  38.603  27.602   8.765
 1455POPC   D2A21184  38.828  27.614   8.360
 1455POPC   C3A21185  38.700  27.896   8.043
 1455POPC   C4A21186  38.412  27.777   7.745
 1455POPC   C1B21187  38.808  27.127   8.796
 1455POPC   C2B21188  38.795  27.084   8.343
 1455POPC   C3B21189  38.539  27.270   8.031
 1455POPC   C4B21190  38.403  27.294   7.612
 1456POPC   NC321191   3.608  13.303   9.459
 1456POPC   PO421192   3.166  12.813   9.718
 1456POPC   GL121193   3.309  12.911   9.248
 1456POPC   GL221194   3.492  12.582   9.089
 1456POPC   C1A21195   3.525  13.064   8.822
 1456POPC   D2A21196   3.725  12.957   8.386
 1456POPC   C3A21197   3.455  12.982   8.014
 1456POPC   C4A21198   3.509  13.213   7.645
 1456POPC   C1B21199   3.608  12.568   8.686
 1456POPC   C2B21200   3.993  12.529   8.415
 1456POPC   C3B21201   3.881  12.601   8.001
 1456POPC   C4B21202   3.482  12.461   7.814
 1457POPC   NC321203  10.232  24.147   9.540
 1457POPC   PO421204   9.647  24.549   9.540
 1457POPC   GL121205   9.816  24.575   9.167
 1457POPC   GL221206   9.507  24.738   9.051
 1457POPC   C1A21207   9.899  24.320   8.811
 1457POPC   D2A21208   9.853  24.531   8.409
 1457POPC   C3A21209   9.910  24.341   8.014
 1457POPC   C4A21210   9.722  24.216   7.633
 1457POPC   C1B21211   9.329  24.894   8.691
 1457POPC   C2B21212   9.479  24.877   8.296
 1457POPC   C3B21213   9.594  24.816   7.882
 1457POPC   C4B21214   9.367  24.750   7.475
 1458POPC   NC321215  19.577  22.979   9.470
 1458POPC   PO421216  20.145  22.630   9.480
 1458POPC   GL121217  20.002  22.889   9.128
 1458POPC   GL221218  19.674  22.820   8.999
 1458POPC   C1A21219  20.058  22.863   8.680
 1458POPC   D2A21220  19.685  22.717   8.460
 1458POPC   C3A21221  19.756  22.829   8.057
 1458POPC   C4A21222  20.064  22.858   7.758
 1458POPC   C1B21223  19.459  23.145   8.774
 1458POPC   C2B21224  19.297  23.153   8.366
 1458POPC   C3B21225  19.396  23.161   7.942
 1458POPC   C4B21226  19.590  22.946   7.554
 1459POPC   NC321227  30.317  42.573   9.823
 1459POPC   PO421228  29.874  42.234   9.531
 1459POPC   GL121229  29.968  42.201   9.129
 1459POPC   GL221230  29.640  42.113   9.067
 1459POPC   C1A21231  29.963  42.557   8.851
 1459POPC   D2A21232  30.109  42.791   8.508
 1459POPC   C3A21233  30.048  42.537   8.168
 1459POPC   C4A21234  29.819  42.551   7.803
 1459POPC   C1B21235  29.644  42.210   8.643
 1459POPC   C2B21236  29.583  42.321   8.254
 1459POPC   C3B21237  29.586  42.021   7.962
 1459POPC   C4B21238  29.723  42.040   7.589
 1460POPC   NC321239  32.611  37.815   9.516
 1460POPC   PO421240  31.909  37.653   9.547
 1460POPC   GL121241  32.052  37.614   9.165
 1460POPC   GL221242  32.254  37.904   9.121
 1460POPC   C1A21243  31.938  37.684   8.771
 1460POPC   D2A21244  32.052  37.943   8.437
 1460POPC   C3A21245  32.158  37.766   8.046
 1460POPC   C4A21246  31.910  37.605   7.745
 1460POPC   C1B21247  32.452  37.797   8.772
 1460POPC   C2B21248  32.578  37.849   8.365
 1460POPC   C3B21249  32.649  37.953   7.953
 1460POPC   C4B21250  32.448  37.753   7.607
 1461POPC   NC321251  19.601  28.561   9.596
 1461POPC   PO421252  20.090  28.044   9.652
 1461POPC   GL121253  19.970  28.387   9.262
 1461POPC   GL221254  19.622  28.391   9.100
 1461POPC   C1A21255  20.058  28.596   8.804
 1461POPC   D2A21256  20.051  28.584   8.354
 1461POPC   C3A21257  19.861  28.217   8.140
 1461POPC   C4A21258  19.922  28.154   7.710
 1461POPC   C1B21259  19.597  28.410   8.650
 1461POPC   C2B21260  19.537  28.600   8.236
 1461POPC   C3B21261  19.630  28.560   7.827
 1461POPC   C4B21262  19.484  28.384   7.441
 1462POPC   NC321263  13.650  10.946   9.450
 1462POPC   PO421264  13.546  11.560   9.430
 1462POPC   GL121265  13.721  11.323   9.091
 1462POPC   GL221266  13.613  10.979   8.956
 1462POPC   C1A21267  13.654  11.452   8.682
 1462POPC   D2A21268  13.504  11.395   8.302
 1462POPC   C3A21269  13.811  11.164   8.108
 1462POPC   C4A21270  13.895  10.962   7.740
 1462POPC   C1B21271  13.573  10.899   8.541
 1462POPC   C2B21272  13.279  10.952   8.249
 1462POPC   C3B21273  13.387  11.009   7.858
 1462POPC   C4B21274  13.490  11.371   7.709
 1463POPC   NC321275  14.017  34.427   9.580
 1463POPC   PO421276  13.501  34.911   9.519
 1463POPC   GL121277  13.639  34.685   9.173
 1463POPC   GL221278  13.745  34.320   9.171
 1463POPC   C1A21279  13.458  34.501   8.793
 1463POPC   D2A21280  13.642  34.537   8.398
 1463POPC   C3A21281  13.379  34.445   8.037
 1463POPC   C4A21282  13.308  34.487   7.577
 1463POPC   C1B21283  13.972  34.569   8.820
 1463POPC   C2B21284  14.144  34.407   8.447
 1463POPC   C3B21285  13.966  34.299   8.075
 1463POPC   C4B21286  13.783  34.397   7.729
 1464POPC   NC321287   8.640  33.374   9.346
 1464POPC   PO421288   8.270  32.868   9.626
 1464POPC   GL121289   8.061  32.794   9.229
 1464POPC   GL221290   8.097  33.152   9.208
 1464POPC   C1A21291   8.180  32.809   8.800
 1464POPC   D2A21292   7.950  32.779   8.419
 1464POPC   C3A21293   8.171  32.981   8.123
 1464POPC   C4A21294   8.471  32.954   7.811
 1464POPC   C1B21295   8.057  33.368   8.845
 1464POPC   C2B21296   8.097  33.428   8.413
 1464POPC   C3B21297   7.903  33.446   8.014
 1464POPC   C4B21298   8.033  33.205   7.687
 1465POPC   NC321299  33.929   1.560   9.473
 1465POPC   PO421300  33.973   2.318   9.464
 1465POPC   GL121301  34.001   1.990   9.170
 1465POPC   GL221302  33.646   1.901   9.119
 1465POPC   C1A21303  34.009   2.065   8.744
 1465POPC   D2A21304  33.723   2.231   8.436
 1465POPC   C3A21305  33.904   2.171   8.042
 1465POPC   C4A21306  33.763   2.143   7.624
 1465POPC   C1B21307  33.688   1.675   8.725
 1465POPC   C2B21308  33.901   1.717   8.309
 1465POPC   C3B21309  33.912   1.709   7.827
 1465POPC   C4B21310  33.701   1.695   7.387
 1466POPC   NC321311  28.682  42.056   9.869
 1466POPC   PO421312  28.437  41.614   9.411
 1466POPC   GL121313  28.553  41.647   9.015
 1466POPC   GL221314  28.303  41.945   8.979
 1466POPC   C1A21315  28.560  41.739   8.605
 1466POPC   D2A21316  28.404  41.433   8.339
 1466POPC   C3A21317  28.351  41.411   7.901
 1466POPC   C4A21318  28.349  41.778   7.648
 1466POPC   C1B21319  28.094  41.598   8.761
 1466POPC   C2B21320  27.902  41.518   8.358
 1466POPC   C3B21321  27.948  41.710   7.967
 1466POPC   C4B21322  27.974  41.476   7.542
 1467POPC   NC321323   6.657  12.602   9.400
 1467POPC   PO421324   6.547  11.966   9.587
 1467POPC   GL121325   6.777  12.100   9.252
 1467POPC   GL221326   6.458  12.185   9.095
 1467POPC   C1A21327   6.855  12.036   8.811
 1467POPC   D2A21328   6.986  12.223   8.436
 1467POPC   C3A21329   6.774  12.085   8.071
 1467POPC   C4A21330   6.641  11.897   7.688
 1467POPC   C1B21331   6.217  12.315   8.718
 1467POPC   C2B21332   6.339  12.408   8.264
 1467POPC   C3B21333   6.435  12.360   7.790
 1467POPC   C4B21334   6.345  12.514   7.363
 1468POPC   NC321335  11.507  40.353   9.428
 1468POPC   PO421336  10.951  40.114   9.618
 1468POPC   GL121337  11.150  40.107   9.162
 1468POPC   GL221338  11.413  39.846   9.037
 1468POPC   C1A21339  11.203  40.191   8.696
 1468POPC   D2A21340  11.367  39.885   8.358
 1468POPC   C3A21341  11.122  39.849   7.951
 1468POPC   C4A21342  10.887  40.189   7.768
 1468POPC   C1B21343  11.706  40.124   8.777
 1468POPC   C2B21344  11.622  40.387   8.408
 1468POPC   C3B21345  11.460  40.279   8.013
 1468POPC   C4B21346  11.377  40.119   7.588
 1469POPC   NC321347  35.753   9.393   9.455
 1469POPC   PO421348  35.468   9.972   9.720
 1469POPC   GL121349  35.397   9.823   9.237
 1469POPC   GL221350  35.316   9.496   9.215
 1469POPC   C1A21351  35.222  10.027   8.805
 1469POPC   D2A21352  35.102   9.885   8.358
 1469POPC   C3A21353  35.270   9.955   7.944
 1469POPC   C4A21354  35.586  10.002   7.652
 1469POPC   C1B21355  35.276   9.531   8.804
 1469POPC   C2B21356  35.565   9.581   8.454
 1469POPC   C3B21357  35.636   9.595   7.986
 1469POPC   C4B21358  35.380   9.536   7.609
 1470POPC   NC321359  25.617  11.440   9.552
 1470POPC   PO421360  25.022  11.199   9.367
 1470POPC   GL121361  25.282  11.159   9.035
 1470POPC   GL221362  25.647  11.192   9.112
 1470POPC   C1A21363  25.183  11.084   8.613
 1470POPC   D2A21364  25.292  11.029   8.189
 1470POPC   C3A21365  24.970  10.995   7.881
 1470POPC   C4A21366  24.967  11.284   7.521
 1470POPC   C1B21367  25.590  11.435   8.729
 1470POPC   C2B21368  25.711  11.412   8.298
 1470POPC   C3B21369  25.575  11.341   7.876
 1470POPC   C4B21370  25.425  10.995   7.657
 1471POPC   NC321371  24.457  31.035   9.608
 1471POPC   PO421372  24.312  30.379   9.577
 1471POPC   GL121373  24.420  30.447   9.152
 1471POPC   GL221374  24.615  30.742   9.194
 1471POPC   C1A21375  24.588  30.460   8.714
 1471POPC   D2A21376  24.640  30.384   8.266
 1471POPC   C3A21377  24.400  30.682   8.029
 1471POPC   C4A21378  24.359  30.774   7.600
 1471POPC   C1B21379  24.706  30.978   8.820
 1471POPC   C2B21380  24.739  30.895   8.392
 1471POPC   C3B21381  24.799  31.082   8.001
 1471POPC   C4B21382  24.858  30.912   7.637
 1472POPC   NC321383   2.927  25.948   9.715
 1472POPC   PO421384   2.363  26.239   9.519
 1472POPC   GL121385   2.617  26.173   9.148
 1472POPC   GL221386   2.699  25.780   9.105
 1472POPC   C1A21387   2.547  26.461   8.777
 1472POPC   D2A21388   2.347  26.526   8.340
 1472POPC   C3A21389   2.555  26.189   8.119
 1472POPC   C4A21390   2.791  26.044   7.768
 1472POPC   C1B21391   3.027  25.560   8.797
 1472POPC   C2B21392   3.130  25.704   8.388
 1472POPC   C3B21393   3.118  25.618   7.938
 1472POPC   C4B21394   2.983  25.585   7.498
 1473POPC   NC321395  15.692  10.380   9.602
 1473POPC   PO421396  16.343  10.607   9.518
 1473POPC   GL121397  15.974  10.573   9.189
 1473POPC   GL221398  15.617  10.416   9.107
 1473POPC   C1A21399  15.976  10.377   8.759
 1473POPC   D2A21400  15.880  10.122   8.390
 1473POPC   C3A21401  16.246  10.155   8.139
 1473POPC   C4A21402  16.327  10.474   7.843
 1473POPC   C1B21403  15.522  10.653   8.689
 1473POPC   C2B21404  15.492  10.491   8.272
 1473POPC   C3B21405  15.768  10.376   7.940
 1473POPC   C4B21406  15.916  10.603   7.597
 1474POPC   NC321407  18.134  19.293   9.760
 1474POPC   PO421408  18.539  19.067   9.262
 1474POPC   GL121409  18.295  18.840   9.037
 1474POPC   GL221410  17.988  18.986   9.152
 1474POPC   C1A21411  18.375  18.717   8.595
 1474POPC   D2A21412  18.282  18.825   8.183
 1474POPC   C3A21413  18.613  19.012   7.963
 1474POPC   C4A21414  18.620  19.390   7.780
 1474POPC   C1B21415  17.994  19.040   8.699
 1474POPC   C2B21416  17.946  19.273   8.374
 1474POPC   C3B21417  18.178  19.338   8.049
 1474POPC   C4B21418  18.173  19.052   7.717
 1475POPC   NC321419  39.645  24.724   9.568
 1475POPC   PO421420  39.071  24.328   9.452
 1475POPC   GL121421  39.434  24.420   9.202
 1475POPC   GL221422  39.390  24.747   9.132
 1475POPC   C1A21423  39.491  24.345   8.792
 1475POPC   D2A21424  39.125  24.197   8.552
 1475POPC   C3A21425  39.123  24.211   8.099
 1475POPC   C4A21426  39.397  24.460   7.808
 1475POPC   C1B21427  39.240  24.771   8.738
 1475POPC   C2B21428  39.318  24.631   8.332
 1475POPC   C3B21429  39.033  24.716   8.010
 1475POPC   C4B21430  39.138  24.950   7.720
 1476POPC   NC321431  29.792  35.111   9.539
 1476POPC   PO421432  30.080  35.661   9.461
 1476POPC   GL121433  29.843  35.506   9.112
 1476POPC   GL221434  29.658  35.188   9.071
 1476POPC   C1A21435  29.957  35.507   8.677
 1476POPC   D2A21436  29.730  35.570   8.313
 1476POPC   C3A21437  29.956  35.701   7.991
 1476POPC   C4A21438  29.760  35.721   7.623
 1476POPC   C1B21439  30.067  35.054   8.932
 1476POPC   C2B21440  30.253  35.083   8.548
 1476POPC   C3B21441  30.090  35.166   8.163
 1476POPC   C4B21442  29.956  35.240   7.755
 1477POPC   NC321443  25.726  16.754   9.599
 1477POPC   PO421444  26.284  16.484   9.482
 1477POPC   GL121445  26.100  16.850   9.234
 1477POPC   GL221446  26.120  16.620   9.001
 1477POPC   C1A21447  25.950  17.019   8.773
 1477POPC   D2A21448  26.047  17.126   8.345
 1477POPC   C3A21449  26.053  16.889   7.954
 1477POPC   C4A21450  26.395  16.663   7.840
 1477POPC   C1B21451  26.059  16.358   8.655
 1477POPC   C2B21452  26.180  16.304   8.190
 1477POPC   C3B21453  26.070  16.289   7.754
 1477POPC   C4B21454  25.763  16.502   7.448
 1478POPC   NC321455  43.417  17.176   9.490
 1478POPC   PO421456  42.789  17.060   9.492
 1478POPC   GL121457  42.860  16.890   9.094
 1478POPC   GL221458  43.214  16.920   9.037
 1478POPC   C1A21459  42.890  16.647   8.704
 1478POPC   D2A21460  43.162  16.527   8.358
 1478POPC   C3A21461  43.058  16.755   7.982
 1478POPC   C4A21462  42.777  16.783   7.618
 1478POPC   C1B21463  43.503  17.064   8.717
 1478POPC   C2B21464  43.536  16.936   8.262
 1478POPC   C3B21465  43.491  16.949   7.801
 1478POPC   C4B21466  43.343  16.960   7.349
 1479POPC   NC321467  42.165  26.222   9.416
 1479POPC   PO421468  41.910  25.850   9.011
 1479POPC   GL121469  42.380  25.884   9.068
 1479POPC   GL221470  42.472  26.238   9.020
 1479POPC   C1A21471  42.744  25.915   8.775
 1479POPC   D2A21472  42.517  25.990   8.439
 1479POPC   C3A21473  42.615  25.941   8.043
 1479POPC   C4A21474  42.301  25.914   7.744
 1479POPC   C1B21475  42.182  26.357   8.706
 1479POPC   C2B21476  42.333  26.442   8.300
 1479POPC   C3B21477  42.274  26.395   7.875
 1479POPC   C4B21478  42.363  26.387   7.457
 1480POPC   NC321479   0.741  32.276   9.540
 1480POPC   PO421480   0.159  32.512   9.492
 1480POPC   GL121481   0.414  32.366   9.155
 1480POPC   GL221482   0.242  32.073   9.018
 1480POPC   C1A21483   0.514  32.365   8.716
 1480POPC   D2A21484   0.159  32.263   8.493
 1480POPC   C3A21485   0.279  32.178   8.085
 1480POPC   C4A21486   0.560  32.491   7.886
 1480POPC   C1B21487   0.373  31.827   8.650
 1480POPC   C2B21488   0.684  31.979   8.344
 1480POPC   C3B21489   0.808  31.987   7.908
 1480POPC   C4B21490   0.622  32.152   7.499
 1481POPC   NC321491  14.139   8.472   9.612
 1481POPC   PO421492  14.611   7.985   9.540
 1481POPC   GL121493  14.301   8.149   9.252
 1481POPC   GL221494  14.036   7.923   9.200
 1481POPC   C1A21495  14.293   8.217   8.817
 1481POPC   D2A21496  14.316   8.392   8.416
 1481POPC   C3A21497  14.380   8.186   8.039
 1481POPC   C4A21498  14.577   8.385   7.717
 1481POPC   C1B21499  13.859   7.908   8.798
 1481POPC   C2B21500  13.929   8.048   8.368
 1481POPC   C3B21501  13.908   8.046   7.921
 1481POPC   C4B21502  14.172   8.136   7.523
 1482POPC   NC321503   7.417   9.300   9.407
 1482POPC   PO421504   7.195   8.730   9.743
 1482POPC   GL121505   7.309   8.740   9.240
 1482POPC   GL221506   7.614   8.887   9.142
 1482POPC   C1A21507   7.233   8.947   8.803
 1482POPC   D2A21508   7.029   9.030   8.416
 1482POPC   C3A21509   7.247   9.055   8.037
 1482POPC   C4A21510   7.154   9.401   7.791
 1482POPC   C1B21511   7.714   9.128   8.793
 1482POPC   C2B21512   7.911   9.036   8.410
 1482POPC   C3B21513   7.778   9.051   7.998
 1482POPC   C4B21514   7.629   9.305   7.663
 1483POPC   NC321515  39.937  39.921   9.551
 1483POPC   PO421516  40.476  39.645   9.751
 1483POPC   GL121517  40.352  39.830   9.273
 1483POPC   GL221518  40.200  40.173   9.167
 1483POPC   C1A21519  40.055  39.775   8.875
 1483POPC   D2A21520  39.878  39.684   8.450
 1483POPC   C3A21521  39.880  40.001   8.117
 1483POPC   C4A21522  39.896  39.997   7.642
 1483POPC   C1B21523  39.947  40.323   8.777
 1483POPC   C2B21524  40.020  40.457   8.329
 1483POPC   C3B21525  40.213  40.341   7.893
 1483POPC   C4B21526  40.213  40.350   7.419
 1484POPC   NC321527   1.925  24.949   9.366
 1484POPC   PO421528   1.585  24.416   9.610
 1484POPC   GL121529   1.889  24.442   9.237
 1484POPC   GL221530   1.746  24.631   9.023
 1484POPC   C1A21531   2.070  24.305   8.806
 1484POPC   D2A21532   2.032  24.046   8.421
 1484POPC   C3A21533   2.126  24.289   8.027
 1484POPC   C4A21534   2.012  24.195   7.620
 1484POPC   C1B21535   1.806  24.792   8.636
 1484POPC   C2B21536   2.047  24.731   8.264
 1484POPC   C3B21537   1.810  24.778   7.900
 1484POPC   C4B21538   1.744  24.628   7.464
 1485POPC   NC321539  43.502  27.411   9.468
 1485POPC   PO421540  43.016  27.647   9.803
 1485POPC   GL121541  42.957  27.566   9.305
 1485POPC   GL221542  43.185  27.348   9.085
 1485POPC   C1A21543  42.876  27.702   8.842
 1485POPC   D2A21544  42.837  27.502   8.423
 1485POPC   C3A21545  43.001  27.717   8.050
 1485POPC   C4A21546  43.272  28.036   7.846
 1485POPC   C1B21547  43.381  27.285   8.674
 1485POPC   C2B21548  43.261  27.284   8.227
 1485POPC   C3B21549  43.443  27.434   7.838
 1485POPC   C4B21550  43.422  27.252   7.384
 1486POPC   NC321551   5.866  41.997   9.638
 1486POPC   PO421552   5.897  42.625   9.430
 1486POPC   GL121553   5.799  42.267   9.188
 1486POPC   GL221554   6.115  42.105   9.178
 1486POPC   C1A21555   5.719  42.234   8.757
 1486POPC   D2A21556   5.536  42.145   8.357
 1486POPC   C3A21557   5.783  42.317   8.008
 1486POPC   C4A21558   5.717  42.508   7.612
 1486POPC   C1B21559   6.227  42.189   8.784
 1486POPC   C2B21560   6.068  42.061   8.400
 1486POPC   C3B21561   6.227  42.060   8.008
 1486POPC   C4B21562   6.103  42.161   7.626
 1487POPC   NC321563   2.759  10.811   9.865
 1487POPC   PO421564   2.649  11.338   9.540
 1487POPC   GL121565   2.593  11.285   9.132
 1487POPC   GL221566   2.822  10.999   9.081
 1487POPC   C1A21567   2.753  11.432   8.736
 1487POPC   D2A21568   2.875  11.471   8.286
 1487POPC   C3A21569   2.593  11.246   8.013
 1487POPC   C4A21570   2.334  11.339   7.686
 1487POPC   C1B21571   2.525  10.930   8.760
 1487POPC   C2B21572   2.398  10.761   8.388
 1487POPC   C3B21573   2.668  10.730   8.044
 1487POPC   C4B21574   2.582  10.881   7.647
 1488POPC   NC321575  18.385  11.690   9.585
 1488POPC   PO421576  18.345  10.984   9.610
 1488POPC   GL121577  18.322  11.302   9.221
 1488POPC   GL221578  17.996  11.287   9.009
 1488POPC   C1A21579  18.413  11.431   8.785
 1488POPC   D2A21580  18.420  11.682   8.439
 1488POPC   C3A21581  18.575  11.461   8.092
 1488POPC   C4A21582  18.352  11.275   7.754
 1488POPC   C1B21583  18.237  10.930   8.810
 1488POPC   C2B21584  18.421  10.846   8.399
 1488POPC   C3B21585  18.225  10.841   7.970
 1488POPC   C4B21586  18.473  10.801   7.578
 1489POPC   NC321587  38.349  43.772   9.485
 1489POPC   PO421588  38.915  44.174   9.598
 1489POPC   GL121589  38.639  44.115   9.251
 1489POPC   GL221590  38.691  43.773   9.113
 1489POPC   C1A21591  38.458  44.278   8.892
 1489POPC   D2A21592  38.564  44.349   8.471
 1489POPC   C3A21593  38.327  44.151   8.136
 1489POPC   C4A21594  38.368  43.895   7.771
 1489POPC   C1B21595  38.319  43.781   8.810
 1489POPC   C2B21596  38.135  43.713   8.380
 1489POPC   C3B21597  38.071  43.389   8.077
 1489POPC   C4B21598  38.052  43.502   7.648
 1490POPC   NC321599  20.170   0.535   9.528
 1490POPC   PO421600  20.813   0.312   9.481
 1490POPC   GL121601  20.680   0.375   9.126
 1490POPC   GL221602  20.323   0.262   9.083
 1490POPC   C1A21603  20.722   0.261   8.722
 1490POPC   D2A21604  20.570   0.265   8.312
 1490POPC   C3A21605  20.821   0.567   8.117
 1490POPC   C4A21606  20.846   0.690   7.729
 1490POPC   C1B21607  20.369   0.686   8.893
 1490POPC   C2B21608  20.494   0.766   8.463
 1490POPC   C3B21609  20.307   0.643   8.084
 1490POPC   C4B21610  20.387   0.902   7.788
 1491POPC   NC321611  19.535  13.913   9.361
 1491POPC   PO421612  20.057  13.770   9.717
 1491POPC   GL121613  20.050  13.648   9.276
 1491POPC   GL221614  20.141  13.938   9.204
 1491POPC   C1A21615  19.878  13.606   8.848
 1491POPC   D2A21616  19.875  13.369   8.468
 1491POPC   C3A21617  19.726  13.570   8.085
 1491POPC   C4A21618  19.827  13.360   7.705
 1491POPC   C1B21619  20.308  13.922   8.803
 1491POPC   C2B21620  20.210  13.767   8.409
 1491POPC   C3B21621  20.123  13.886   8.015
 1491POPC   C4B21622  20.119  13.780   7.593
 1492POPC   NC321623  40.014  41.470   9.408
 1492POPC   PO421624  39.443  41.867   9.370
 1492POPC   GL121625  39.795  41.793   9.063
 1492POPC   GL221626  40.155  41.929   9.140
 1492POPC   C1A21627  39.807  41.446   8.743
 1492POPC   D2A21628  39.639  41.348   8.327
 1492POPC   C3A21629  39.713  41.592   7.950
 1492POPC   C4A21630  39.761  41.350   7.585
 1492POPC   C1B21631  40.259  41.710   8.762
 1492POPC   C2B21632  40.173  41.494   8.343
 1492POPC   C3B21633  40.197  41.498   7.862
 1492POPC   C4B21634  40.034  41.781   7.565
 1493POPC   NC321635  33.152  22.601   9.674
 1493POPC   PO421636  32.945  21.925   9.497
 1493POPC   GL121637  32.877  22.180   9.148
 1493POPC   GL221638  33.111  22.449   9.175
 1493POPC   C1A21639  32.716  22.216   8.722
 1493POPC   D2A21640  32.952  22.241   8.318
 1493POPC   C3A21641  32.800  22.202   7.906
 1493POPC   C4A21642  32.683  21.819   7.703
 1493POPC   C1B21643  33.218  22.267   8.771
 1493POPC   C2B21644  33.411  22.466   8.399
 1493POPC   C3B21645  33.527  22.464   7.973
 1493POPC   C4B21646  33.256  22.330   7.640
 1494POPC   NC321647  42.577  27.713   9.701
 1494POPC   PO421648  42.103  27.290   9.755
 1494POPC   GL121649  42.246  27.444   9.334
 1494POPC   GL221650  42.099  27.151   9.241
 1494POPC   C1A21651  42.328  27.674   8.898
 1494POPC   D2A21652  42.163  27.782   8.457
 1494POPC   C3A21653  42.448  27.667   8.103
 1494POPC   C4A21654  42.281  27.688   7.726
 1494POPC   C1B21655  42.408  27.165   8.900
 1494POPC   C2B21656  42.362  27.324   8.481
 1494POPC   C3B21657  42.256  27.221   8.040
 1494POPC   C4B21658  42.629  27.302   7.772
 1495POPC   NC321659  12.426  13.230   9.526
 1495POPC   PO421660  13.039  12.977   9.586
 1495POPC   GL121661  13.040  12.782   9.200
 1495POPC   GL221662  12.680  12.825   9.221
 1495POPC   C1A21663  12.857  12.670   8.772
 1495POPC   D2A21664  12.600  12.861   8.435
 1495POPC   C3A21665  12.716  12.816   8.032
 1495POPC   C4A21666  12.811  12.547   7.724
 1495POPC   C1B21667  12.568  13.098   8.875
 1495POPC   C2B21668  12.381  13.329   8.530
 1495POPC   C3B21669  12.468  13.307   8.099
 1495POPC   C4B21670  12.583  13.215   7.685
 1496POPC   NC321671   1.259  30.613   9.537
 1496POPC   PO421672   0.733  31.125   9.532
 1496POPC   GL121673   1.020  30.863   9.185
 1496POPC   GL221674   1.374  30.972   9.154
 1496POPC   C1A21675   1.232  30.575   8.837
 1496POPC   D2A21676   1.328  30.339   8.443
 1496POPC   C3A21677   1.200  30.480   8.002
 1496POPC   C4A21678   1.100  30.733   7.604
 1496POPC   C1B21679   1.619  30.916   8.776
 1496POPC   C2B21680   1.409  30.841   8.392
 1496POPC   C3B21681   1.393  30.964   7.984
 1496POPC   C4B21682   1.609  30.730   7.701
 1497POPC   NC321683  20.198  33.132   9.560
 1497POPC   PO421684  19.524  33.364   9.395
 1497POPC   GL121685  19.787  33.198   9.078
 1497POPC   GL221686  20.010  32.947   9.103
 1497POPC   C1A21687  19.986  33.287   8.719
 1497POPC   D2A21688  19.801  33.348   8.375
 1497POPC   C3A21689  20.023  33.310   8.035
 1497POPC   C4A21690  19.753  33.107   7.815
 1497POPC   C1B21691  20.034  32.782   8.703
 1497POPC   C2B21692  19.933  32.857   8.297
 1497POPC   C3B21693  20.037  32.700   7.920
 1497POPC   C4B21694  19.825  32.691   7.512
 1498POPC   NC321695  27.441   5.467   9.563
 1498POPC   PO421696  27.760   4.836   9.560
 1498POPC   GL121697  27.758   5.014   9.198
 1498POPC   GL221698  27.422   5.094   9.199
 1498POPC   C1A21699  27.639   4.835   8.811
 1498POPC   D2A21700  27.439   5.042   8.487
 1498POPC   C3A21701  27.499   4.885   8.132
 1498POPC   C4A21702  27.556   5.009   7.716
 1498POPC   C1B21703  27.168   5.370   8.936
 1498POPC   C2B21704  26.981   5.325   8.546
 1498POPC   C3B21705  27.129   5.273   8.140
 1498POPC   C4B21706  27.233   5.394   7.710
 1499POPC   NC321707  11.756   4.942   9.278
 1499POPC   PO421708  11.236   5.247   9.591
 1499POPC   GL121709  11.286   5.124   9.145
 1499POPC   GL221710  11.075   4.849   9.109
 1499POPC   C1A21711  11.409   5.262   8.704
 1499POPC   D2A21712  11.654   5.179   8.291
 1499POPC   C3A21713  11.501   5.285   7.922
 1499POPC   C4A21714  11.091   5.404   7.939
 1499POPC   C1B21715  11.172   4.803   8.658
 1499POPC   C2B21716  11.176   4.999   8.243
 1499POPC   C3B21717  11.262   4.794   7.823
 1499POPC   C4B21718  11.095   4.695   7.346
 1500POPC   NC321719   1.406  39.310   9.612
 1500POPC   PO421720   1.060  38.831   9.332
 1500POPC   GL121721   1.388  39.097   9.157
 1500POPC   GL221722   1.146  39.352   9.134
 1500POPC   C1A21723   1.539  39.348   8.782
 1500POPC   D2A21724   1.309  39.425   8.373
 1500POPC   C3A21725   1.309  39.211   7.945
 1500POPC   C4A21726   1.407  39.274   7.510
 1500POPC   C1B21727   1.086  39.092   8.729
 1500POPC   C2B21728   1.082  38.923   8.303
 1500POPC   C3B21729   0.833  39.055   7.912
 1500POPC   C4B21730   0.912  39.176   7.468
 1501POPC   NC321731  34.984   9.327   9.536
 1501POPC   PO421732  34.456   8.896   9.618
 1501POPC   GL121733  34.570   9.077   9.225
 1501POPC   GL221734  34.893   8.972   9.150
 1501POPC   C1A21735  34.396   9.081   8.794
 1501POPC   D2A21736  34.519   8.925   8.377
 1501POPC   C3A21737  34.481   9.118   7.975
 1501POPC   C4A21738  34.070   9.263   7.812
 1501POPC   C1B21739  34.915   9.126   8.724
 1501POPC   C2B21740  35.026   8.878   8.322
 1501POPC   C3B21741  35.009   8.808   7.865
 1501POPC   C4B21742  34.717   8.899   7.522
 1502POPC   NC321743  28.347  36.635   9.499
 1502POPC   PO421744  28.251  37.375   9.613
 1502POPC   GL121745  28.501  37.159   9.260
 1502POPC   GL221746  28.242  36.958   9.107
 1502POPC   C1A21747  28.546  37.270   8.790
 1502POPC   D2A21748  28.354  37.160   8.373
 1502POPC   C3A21749  28.577  37.235   7.981
 1502POPC   C4A21750  28.538  37.531   7.642
 1502POPC   C1B21751  28.405  36.777   8.726
 1502POPC   C2B21752  28.225  36.659   8.341
 1502POPC   C3B21753  28.247  36.854   7.975
 1502POPC   C4B21754  28.361  36.790   7.548
 1503POPC   NC321755  31.643  18.348   9.490
 1503POPC   PO421756  31.306  17.782   9.508
 1503POPC   GL121757  31.244  18.125   9.182
 1503POPC   GL221758  31.573  18.268   9.002
 1503POPC   C1A21759  31.178  18.114   8.737
 1503POPC   D2A21760  31.495  18.255   8.456
 1503POPC   C3A21761  31.422  18.095   8.058
 1503POPC   C4A21762  31.732  17.983   7.730
 1503POPC   C1B21763  31.312  18.616   8.807
 1503POPC   C2B21764  31.149  18.621   8.406
 1503POPC   C3B21765  31.360  18.598   8.027
 1503POPC   C4B21766  31.316  18.366   7.640
 1504POPC   NC321767  36.555  32.353   9.466
 1504POPC   PO421768  37.087  31.845   9.584
 1504POPC   GL121769  36.983  32.149   9.244
 1504POPC   GL221770  37.252  32.379   9.220
 1504POPC   C1A21771  36.963  32.206   8.766
 1504POPC   D2A21772  36.728  32.234   8.398
 1504POPC   C3A21773  36.936  32.372   8.021
 1504POPC   C4A21774  36.771  32.379   7.585
 1504POPC   C1B21775  37.356  31.973   8.952
 1504POPC   C2B21776  37.234  31.770   8.581
 1504POPC   C3B21777  37.201  31.837   8.130
 1504POPC   C4B21778  37.106  31.992   7.719
 1505POPC   NC321779   4.603  14.025   9.407
 1505POPC   PO421780   4.077  13.553   9.464
 1505POPC   GL121781   4.409  13.606   9.134
 1505POPC   GL221782   4.687  13.362   9.182
 1505POPC   C1A21783   4.530  13.868   8.754
 1505POPC   D2A21784   4.570  13.950   8.314
 1505POPC   C3A21785   4.266  13.695   8.027
 1505POPC   C4A21786   4.398  13.309   7.804
 1505POPC   C1B21787   4.569  13.246   8.757
 1505POPC   C2B21788   4.540  13.404   8.346
 1505POPC   C3B21789   4.786  13.576   8.024
 1505POPC   C4B21790   4.598  13.755   7.646
 1506POPC   NC321791   2.331   7.267   9.584
 1506POPC   PO421792   1.762   7.604   9.285
 1506POPC   GL121793   1.867   7.387   8.952
 1506POPC   GL221794   2.178   7.320   9.096
 1506POPC   C1A21795   1.898   7.446   8.478
 1506POPC   D2A21796   2.140   7.722   8.165
 1506POPC   C3A21797   2.181   7.558   7.761
 1506POPC   C4A21798   1.880   7.298   7.585
 1506POPC   C1B21799   2.312   7.185   8.754
 1506POPC   C2B21800   2.364   7.241   8.337
 1506POPC   C3B21801   2.149   7.119   7.996
 1506POPC   C4B21802   2.364   7.078   7.580
 1507POPC   NC321803  23.875  11.936   9.765
 1507POPC   PO421804  24.539  12.020   9.550
 1507POPC   GL121805  24.522  11.923   9.152
 1507POPC   GL221806  24.441  12.268   9.038
 1507POPC   C1A21807  24.739  11.963   8.773
 1507POPC   D2A21808  24.634  12.210   8.432
 1507POPC   C3A21809  24.667  12.084   8.018
 1507POPC   C4A21810  24.615  12.480   7.777
 1507POPC   C1B21811  24.222  12.053   8.769
 1507POPC   C2B21812  24.106  12.172   8.398
 1507POPC   C3B21813  24.202  12.312   8.031
 1507POPC   C4B21814  24.253  12.028   7.703
 1508POPC   NC321815  34.380   6.293   9.531
 1508POPC   PO421816  34.730   5.733   9.428
 1508POPC   GL121817  34.618   6.055   9.102
 1508POPC   GL221818  34.269   6.095   9.075
 1508POPC   C1A21819  34.509   6.015   8.625
 1508POPC   D2A21820  34.749   5.692   8.434
 1508POPC   C3A21821  34.705   5.703   8.030
 1508POPC   C4A21822  34.629   6.109   7.996
 1508POPC   C1B21823  34.354   5.635   8.893
 1508POPC   C2B21824  34.251   5.537   8.464
 1508POPC   C3B21825  34.186   5.845   8.145
 1508POPC   C4B21826  34.181   6.108   7.777
 1509POPC   NC321827   2.036   4.656   9.450
 1509POPC   PO421828   1.827   5.353   9.512
 1509POPC   GL121829   1.813   5.076   9.185
 1509POPC   GL221830   2.155   5.058   9.136
 1509POPC   C1A21831   1.672   5.012   8.755
 1509POPC   D2A21832   1.469   5.104   8.359
 1509POPC   C3A21833   1.730   5.005   8.002
 1509POPC   C4A21834   2.076   5.275   7.801
 1509POPC   C1B21835   2.373   4.808   8.847
 1509POPC   C2B21836   2.323   4.617   8.449
 1509POPC   C3B21837   2.187   4.728   8.044
 1509POPC   C4B21838   2.033   4.798   7.630
 1510POPC   NC321839  16.598  40.555   9.336
 1510POPC   PO421840  17.031  41.008   9.493
 1510POPC   GL121841  17.034  40.875   9.081
 1510POPC   GL221842  16.971  40.556   8.984
 1510POPC   C1A21843  17.029  40.919   8.616
 1510POPC   D2A21844  16.809  40.658   8.313
 1510POPC   C3A21845  16.953  40.578   7.890
 1510POPC   C4A21846  17.051  40.943   7.654
 1510POPC   C1B21847  16.562  40.813   8.765
 1510POPC   C2B21848  16.417  41.007   8.362
 1510POPC   C3B21849  16.471  40.821   7.942
 1510POPC   C4B21850  16.570  40.914   7.513
 1511POPC   NC321851   3.061  42.673   9.507
 1511POPC   PO421852   2.737  42.057   9.537
 1511POPC   GL121853   2.837  42.217   9.158
 1511POPC   GL221854   3.171  42.160   9.125
 1511POPC   C1A21855   2.766  42.139   8.728
 1511POPC   D2A21856   2.807  42.334   8.359
 1511POPC   C3A21857   2.775  42.151   7.984
 1511POPC   C4A21858   2.524  42.246   7.625
 1511POPC   C1B21859   3.185  42.438   8.780
 1511POPC   C2B21860   3.135  42.706   8.443
 1511POPC   C3B21861   3.248  42.584   8.005
 1511POPC   C4B21862   3.002  42.470   7.657
 1512POPC   NC321863  28.375  23.476   9.415
 1512POPC   PO421864  28.643  24.128   9.475
 1512POPC   GL121865  28.500  23.879   9.129
 1512POPC   GL221866  28.154  23.809   9.028
 1512POPC   C1A21867  28.555  23.744   8.719
 1512POPC   D2A21868  28.463  23.515   8.377
 1512POPC   C3A21869  28.188  23.787   8.173
 1512POPC   C4A21870  28.415  23.881   7.830
 1512POPC   C1B21871  28.012  23.466   8.735
 1512POPC   C2B21872  27.991  23.326   8.318
 1512POPC   C3B21873  28.214  23.355   7.923
 1512POPC   C4B21874  28.069  23.313   7.471
 1513POPC   NC321875   8.335  38.549   9.466
 1513POPC   PO421876   7.773  38.971   9.338
 1513POPC   GL121877   8.010  38.607   9.070
 1513POPC   GL221878   8.386  38.627   8.972
 1513POPC   C1A21879   8.076  38.449   8.607
 1513POPC   D2A21880   7.913  38.682   8.241
 1513POPC   C3A21881   8.231  38.557   7.939
 1513POPC   C4A21882   8.705  38.576   7.988
 1513POPC   C1B21883   8.576  38.331   8.677
 1513POPC   C2B21884   8.398  38.063   8.344
 1513POPC   C3B21885   8.354  38.060   7.886
 1513POPC   C4B21886   8.110  38.265   7.547
 1514POPC   NC321887  37.305  21.568   9.526
 1514POPC   PO421888  37.908  21.192   9.531
 1514POPC   GL121889  37.664  21.346   9.229
 1514POPC   GL221890  37.867  21.620   9.092
 1514POPC   C1A21891  37.558  21.320   8.815
 1514POPC   D2A21892  37.769  21.393   8.442
 1514POPC   C3A21893  37.552  21.264   8.063
 1514POPC   C4A21894  37.611  21.001   7.690
 1514POPC   C1B21895  38.060  21.244   8.867
 1514POPC   C2B21896  38.266  21.182   8.477
 1514POPC   C3B21897  38.081  21.233   8.070
 1514POPC   C4B21898  38.132  21.142   7.664
 1515POPC   NC321899  44.327  31.555   9.809
 1515POPC   PO421900  44.090  31.131   9.341
 1515POPC   GL121901  43.869  31.331   9.024
 1515POPC   GL221902  43.594  31.458   9.155
 1515POPC   C1A21903  43.996  31.281   8.614
 1515POPC   D2A21904  44.166  31.413   8.218
 1515POPC   C3A21905  43.994  31.281   7.823
 1515POPC   C4A21906  44.030  31.358   7.381
 1515POPC   C1B21907  43.586  31.669   8.774
 1515POPC   C2B21908  43.768  31.676   8.385
 1515POPC   C3B21909  43.607  31.627   7.980
 1515POPC   C4B21910  43.744  31.729   7.592
 1516POPC   NC321911  33.398  31.028   9.369
 1516POPC   PO421912  33.759  30.486   9.642
 1516POPC   GL121913  33.770  30.551   9.225
 1516POPC   GL221914  33.444  30.547   9.180
 1516POPC   C1A21915  34.021  30.431   8.842
 1516POPC   D2A21916  33.886  30.515   8.416
 1516POPC   C3A21917  34.152  30.538   8.067
 1516POPC   C4A21918  34.042  30.424   7.618
 1516POPC   C1B21919  33.662  30.827   8.817
 1516POPC   C2B21920  33.536  30.922   8.413
 1516POPC   C3B21921  33.601  30.777   8.024
 1516POPC   C4B21922  33.926  30.892   7.779
 1517POPC   NC321923  25.712   8.025   9.641
 1517POPC   PO421924  25.528   8.593   9.443
 1517POPC   GL121925  25.918   8.305   9.258
 1517POPC   GL221926  25.881   7.925   9.167
 1517POPC   C1A21927  26.136   8.201   8.845
 1517POPC   D2A21928  26.081   8.523   8.554
 1517POPC   C3A21929  25.996   8.471   8.127
 1517POPC   C4A21930  26.317   8.362   7.841
 1517POPC   C1B21931  25.624   7.899   8.800
 1517POPC   C2B21932  25.793   8.065   8.434
 1517POPC   C3B21933  25.861   7.982   8.009
 1517POPC   C4B21934  25.944   8.158   7.588
 1518POPC   NC321935  13.236  22.295   9.655
 1518POPC   PO421936  12.731  21.876   9.550
 1518POPC   GL121937  12.925  22.007   9.192
 1518POPC   GL221938  13.032  22.364   9.206
 1518POPC   C1A21939  12.774  21.969   8.795
 1518POPC   D2A21940  12.595  22.117   8.416
 1518POPC   C3A21941  12.954  21.987   8.175
 1518POPC   C4A21942  13.081  22.053   7.762
 1518POPC   C1B21943  12.839  22.469   8.863
 1518POPC   C2B21944  12.982  22.477   8.467
 1518POPC   C3B21945  12.848  22.451   8.076
 1518POPC   C4B21946  12.974  22.595   7.739
 1519POPC   NC321947  36.402  36.426   9.649
 1519POPC   PO421948  36.011  35.989   9.410
 1519POPC   GL121949  35.740  36.207   9.093
 1519POPC   GL221950  36.021  36.442   9.034
 1519POPC   C1A21951  35.713  36.340   8.653
 1519POPC   D2A21952  36.019  36.298   8.321
 1519POPC   C3A21953  35.958  36.148   7.912
 1519POPC   C4A21954  35.887  36.152   7.453
 1519POPC   C1B21955  36.123  36.036   8.752
 1519POPC   C2B21956  36.381  35.915   8.370
 1519POPC   C3B21957  36.467  35.925   7.910
 1519POPC   C4B21958  36.383  36.004   7.449
 1520POPC   NC321959  22.308  40.607   9.730
 1520POPC   PO421960  21.943  41.115   9.438
 1520POPC   GL121961  22.212  40.769   9.218
 1520POPC   GL221962  22.083  40.471   9.199
 1520POPC   C1A21963  22.400  40.823   8.784
 1520POPC   D2A21964  22.475  40.740   8.338
 1520POPC   C3A21965  22.534  40.908   7.894
 1520POPC   C4A21966  22.545  40.840   7.371
 1520POPC   C1B21967  21.917  40.651   8.820
 1520POPC   C2B21968  21.802  40.815   8.428
 1520POPC   C3B21969  21.971  40.773   8.034
 1520POPC   C4B21970  22.156  40.699   7.654
 1521POPC   NC321971  40.466   1.365  10.019
 1521POPC   PO421972  40.926   1.215   9.526
 1521POPC   GL121973  40.762   1.275   9.125
 1521POPC   GL221974  40.468   1.535   9.187
 1521POPC   C1A21975  40.809   0.960   8.779
 1521POPC   D2A21976  40.634   0.820   8.397
 1521POPC   C3A21977  40.785   0.868   7.984
 1521POPC   C4A21978  40.668   0.884   7.535
 1521POPC   C1B21979  40.623   1.643   8.793
 1521POPC   C2B21980  40.754   1.392   8.504
 1521POPC   C3B21981  40.739   1.371   8.116
 1521POPC   C4B21982  40.849   1.307   7.727
 1522POPC   NC321983  35.592  21.258   9.371
 1522POPC   PO421984  36.134  21.309   9.561
 1522POPC   GL121985  36.140  21.658   9.202
 1522POPC   GL221986  36.464  21.670   9.052
 1522POPC   C1A21987  36.124  21.818   8.709
 1522POPC   D2A21988  36.025  21.526   8.344
 1522POPC   C3A21989  35.767  21.583   7.971
 1522POPC   C4A21990  35.697  21.488   7.529
 1522POPC   C1B21991  36.597  21.564   8.599
 1522POPC   C2B21992  36.490  21.536   8.150
 1522POPC   C3B21993  36.227  21.257   7.885
 1522POPC   C4B21994  36.242  21.080   7.443
 1523POPC   NC321995   5.365  14.247   9.533
 1523POPC   PO421996   4.726  14.373   9.688
 1523POPC   GL121997   4.800  14.474   9.234
 1523POPC   GL221998   5.064  14.730   9.201
 1523POPC   C1A21999   4.791  14.315   8.797
 1523POPC   D2A22000   5.042  14.267   8.441
 1523POPC   C3A22001   4.903  14.305   8.064
 1523POPC   C4A22002   4.978  14.009   7.814
 1523POPC   C1B22003   5.228  14.578   8.797
 1523POPC   C2B22004   5.365  14.713   8.342
 1523POPC   C3B22005   5.176  14.697   7.899
 1523POPC   C4B22006   5.202  14.849   7.454
 1524POPC   NC322007  35.019  43.269   9.523
 1524POPC   PO422008  34.474  42.938   9.587
 1524POPC   GL122009  34.450  43.134   9.184
 1524POPC   GL222010  34.263  42.868   9.078
 1524POPC   C1A22011  34.634  43.195   8.768
 1524POPC   D2A22012  34.872  43.285   8.400
 1524POPC   C3A22013  34.764  43.120   8.000
 1524POPC   C4A22014  34.697  43.153   7.529
 1524POPC   C1B22015  34.150  43.097   8.705
 1524POPC   C2B22016  34.302  43.334   8.357
 1524POPC   C3B22017  34.269  43.090   7.983
 1524POPC   C4B22018  34.207  43.036   7.559
 1525POPC   NC322019  32.424  24.958   9.777
 1525POPC   PO422020  32.019  25.376   9.412
 1525POPC   GL122021  32.272  25.340   9.087
 1525POPC   GL222022  32.609  25.533   9.182
 1525POPC   C1A22023  32.163  25.192   8.687
 1525POPC   D2A22024  32.007  25.246   8.266
 1525POPC   C3A22025  32.266  25.146   7.896
 1525POPC   C4A22026  32.233  25.317   7.491
 1525POPC   C1B22027  32.535  25.551   8.720
 1525POPC   C2B22028  32.510  25.410   8.286
 1525POPC   C3B22029  32.594  25.535   7.838
 1525POPC   C4B22030  32.713  25.387   7.403
 1526POPC   NC322031  29.773   4.228   9.522
 1526POPC   PO422032  30.379   4.251   9.256
 1526POPC   GL122033  30.007   4.348   9.069
 1526POPC   GL222034  29.845   4.008   9.076
 1526POPC   C1A22035  29.889   4.328   8.649
 1526POPC   D2A22036  29.687   4.214   8.277
 1526POPC   C3A22037  29.733   4.456   7.888
 1526POPC   C4A22038  30.069   4.419   7.578
 1526POPC   C1B22039  30.021   3.852   8.701
 1526POPC   C2B22040  30.151   3.942   8.284
 1526POPC   C3B22041  29.924   3.951   7.903
 1526POPC   C4B22042  29.771   4.011   7.483
 1527POPC   NC322043  28.045   9.096   9.845
 1527POPC   PO422044  28.436   9.671   9.536
 1527POPC   GL122045  28.274   9.761   9.142
 1527POPC   GL222046  28.464  10.037   9.051
 1527POPC   C1A22047  28.242   9.708   8.716
 1527POPC   D2A22048  28.486   9.710   8.382
 1527POPC   C3A22049  28.296   9.628   8.045
 1527POPC   C4A22050  28.328   9.683   7.636
 1527POPC   C1B22051  28.680  10.104   8.676
 1527POPC   C2B22052  28.876  10.019   8.277
 1527POPC   C3B22053  28.622  10.084   7.886
 1527POPC   C4B22054  28.814  10.267   7.514
 1528POPC   NC322055  28.261  14.626   9.781
 1528POPC   PO422056  28.502  14.142   9.408
 1528POPC   GL122057  28.506  14.432   9.088
 1528POPC   GL222058  28.198  14.358   8.894
 1528POPC   C1A22059  28.613  14.550   8.665
 1528POPC   D2A22060  28.306  14.458   8.363
 1528POPC   C3A22061  28.498  14.522   7.994
 1528POPC   C4A22062  28.741  14.285   7.735
 1528POPC   C1B22063  28.481  14.037   8.727
 1528POPC   C2B22064  28.581  13.910   8.329
 1528POPC   C3B22065  28.352  14.039   7.977
 1528POPC   C4B22066  28.311  14.060   7.531
 1529POPC   NC322067  34.039  33.785   9.436
 1529POPC   PO422068  33.379  34.008   9.530
 1529POPC   GL122069  33.672  34.054   9.214
 1529POPC   GL222070  33.659  33.715   9.122
 1529POPC   C1A22071  33.816  34.056   8.778
 1529POPC   D2A22072  33.685  33.835   8.409
 1529POPC   C3A22073  33.895  33.922   8.032
 1529POPC   C4A22074  33.675  34.064   7.688
 1529POPC   C1B22075  33.933  33.553   8.797
 1529POPC   C2B22076  34.084  33.521   8.371
 1529POPC   C3B22077  33.990  33.419   7.966
 1529POPC   C4B22078  33.961  33.658   7.597
 1530POPC   NC322079  18.824  36.389   9.542
 1530POPC   PO422080  18.111  36.162   9.576
 1530POPC   GL122081  18.363  36.220   9.222
 1530POPC   GL222082  18.210  35.912   9.110
 1530POPC   C1A22083  18.323  36.345   8.790
 1530POPC   D2A22084  18.197  36.223   8.401
 1530POPC   C3A22085  18.402  36.379   8.058
 1530POPC   C4A22086  18.159  36.522   7.718
 1530POPC   C1B22087  18.354  35.821   8.708
 1530POPC   C2B22088  18.276  35.731   8.276
 1530POPC   C3B22089  18.360  35.894   7.852
 1530POPC   C4B22090  18.416  35.880   7.380
 1531POPC   NC322091  26.590  28.832   9.503
 1531POPC   PO422092  27.225  29.080   9.454
 1531POPC   GL122093  26.945  29.120   9.083
 1531POPC   GL222094  26.615  28.947   9.016
 1531POPC   C1A22095  26.942  29.013   8.637
 1531POPC   D2A22096  26.697  29.053   8.263
 1531POPC   C3A22097  26.975  28.860   7.958
 1531POPC   C4A22098  27.306  28.712   7.674
 1531POPC   C1B22099  26.560  29.318   8.725
 1531POPC   C2B22100  26.630  29.615   8.414
 1531POPC   C3B22101  26.512  29.517   8.034
 1531POPC   C4B22102  26.648  29.189   7.758
 1532POPC   NC322103   5.276  19.434   9.412
 1532POPC   PO422104   4.776  18.934   9.335
 1532POPC   GL122105   5.159  19.017   9.116
 1532POPC   GL222106   4.996  19.331   8.992
 1532POPC   C1A22107   5.409  19.051   8.723
 1532POPC   D2A22108   5.503  19.257   8.314
 1532POPC   C3A22109   5.358  19.021   7.952
 1532POPC   C4A22110   5.039  18.806   7.732
 1532POPC   C1B22111   4.681  19.488   8.692
 1532POPC   C2B22112   4.810  19.469   8.257
 1532POPC   C3B22113   4.838  19.259   7.828
 1532POPC   C4B22114   5.076  19.422   7.454
 1533POPC   NC322115  27.542  11.758   9.614
 1533POPC   PO422116  27.915  12.361   9.554
 1533POPC   GL122117  27.605  12.126   9.257
 1533POPC   GL222118  27.239  12.252   9.233
 1533POPC   C1A22119  27.606  12.024   8.813
 1533POPC   D2A22120  27.804  12.239   8.440
 1533POPC   C3A22121  27.654  12.170   8.022
 1533POPC   C4A22122  27.532  11.928   7.655
 1533POPC   C1B22123  27.104  12.174   8.796
 1533POPC   C2B22124  27.294  12.157   8.394
 1533POPC   C3B22125  27.152  12.164   7.965
 1533POPC   C4B22126  27.031  11.887   7.631
 1534POPC   NC322127  17.580  21.114   9.550
 1534POPC   PO422128  17.132  21.530   9.416
 1534POPC   GL122129  17.469  21.620   9.225
 1534POPC   GL222130  17.487  21.290   9.078
 1534POPC   C1A22131  17.500  21.744   8.817
 1534POPC   D2A22132  17.508  21.435   8.481
 1534POPC   C3A22133  17.423  21.668   8.083
 1534POPC   C4A22134  17.322  21.942   7.726
 1534POPC   C1B22135  17.181  21.033   8.862
 1534POPC   C2B22136  16.996  21.034   8.441
 1534POPC   C3B22137  17.267  21.184   8.123
 1534POPC   C4B22138  17.688  21.254   7.886
 1535POPC   NC322139  13.895  18.826   9.568
 1535POPC   PO422140  13.478  19.368   9.477
 1535POPC   GL122141  13.391  19.245   9.052
 1535POPC   GL222142  13.481  18.866   9.023
 1535POPC   C1A22143  13.426  19.219   8.631
 1535POPC   D2A22144  13.412  18.909   8.347
 1535POPC   C3A22145  13.535  19.083   7.977
 1535POPC   C4A22146  13.358  19.325   7.616
 1535POPC   C1B22147  13.808  18.838   8.671
 1535POPC   C2B22148  13.909  18.766   8.214
 1535POPC   C3B22149  13.933  18.798   7.757
 1535POPC   C4B22150  13.966  18.708   7.288
 1536POPC   NC322151  11.182  39.697   9.505
 1536POPC   PO422152  11.655  39.189   9.534
 1536POPC   GL122153  11.392  39.296   9.171
 1536POPC   GL222154  11.052  39.469   9.064
 1536POPC   C1A22155  11.371  39.155   8.742
 1536POPC   D2A22156  11.174  39.397   8.464
 1536POPC   C3A22157  11.372  39.420   8.068
 1536POPC   C4A22158  11.320  39.470   7.644
 1536POPC   C1B22159  10.941  39.025   8.976
 1536POPC   C2B22160  10.919  38.914   8.519
 1536POPC   C3B22161  11.080  39.004   8.110
 1536POPC   C4B22162  10.992  39.064   7.687
 1537POPC   NC322163  29.936  28.219   9.517
 1537POPC   PO422164  30.122  28.882   9.527
 1537POPC   GL122165  29.900  28.592   9.148
 1537POPC   GL222166  29.642  28.253   9.106
 1537POPC   C1A22167  29.968  28.321   8.742
 1537POPC   D2A22168  29.724  28.142   8.399
 1537POPC   C3A22169  29.894  28.246   8.019
 1537POPC   C4A22170  29.997  28.398   7.616
 1537POPC   C1B22171  29.474  27.945   8.790
 1537POPC   C2B22172  29.376  27.747   8.385
 1537POPC   C3B22173  29.359  28.018   8.045
 1537POPC   C4B22174  29.502  28.276   7.711
 1538POPC   NC322175   2.016  37.792   9.451
 1538POPC   PO422176   1.750  37.101   9.503
 1538POPC   GL122177   2.076  37.269   9.193
 1538POPC   GL222178   1.868  37.546   9.036
 1538POPC   C1A22179   2.275  37.412   8.764
 1538POPC   D2A22180   2.121  37.628   8.388
 1538POPC   C3A22181   1.980  37.457   7.977
 1538POPC   C4A22182   1.573  37.355   7.772
 1538POPC   C1B22183   1.692  37.782   8.688
 1538POPC   C2B22184   1.581  37.707   8.240
 1538POPC   C3B22185   1.669  37.904   7.841
 1538POPC   C4B22186   1.638  38.029   7.403
 1539POPC   NC322187   9.232  44.022   9.721
 1539POPC   PO422188   8.861  44.378   9.279
 1539POPC   GL122189   9.258  44.242   9.209
 1539POPC   GL222190   9.245  43.906   9.218
 1539POPC   C1A22191   9.359  44.202   8.796
 1539POPC   D2A22192   9.115  44.024   8.501
 1539POPC   C3A22193   9.124  43.986   8.103
 1539POPC   C4A22194   8.972  44.049   7.728
 1539POPC   C1B22195   8.981  43.723   8.864
 1539POPC   C2B22196   8.945  43.521   8.434
 1539POPC   C3B22197   8.764  43.566   8.006
 1539POPC   C4B22198   8.942  43.577   7.587
 1540POPC   NC322199  41.700   7.317   9.319
 1540POPC   PO422200  41.171   7.563   9.597
 1540POPC   GL122201  41.344   7.772   9.224
 1540POPC   GL222202  41.679   7.871   9.150
 1540POPC   C1A22203  41.367   7.635   8.794
 1540POPC   D2A22204  41.235   7.638   8.382
 1540POPC   C3A22205  41.390   7.320   8.106
 1540POPC   C4A22206  41.380   7.332   7.677
 1540POPC   C1B22207  41.871   7.786   8.759
 1540POPC   C2B22208  41.754   7.540   8.395
 1540POPC   C3B22209  41.691   7.707   7.945
 1540POPC   C4B22210  41.863   7.576   7.517
 1541POPC   NC322211   9.838   9.187   9.697
 1541POPC   PO422212   9.554   9.618   9.267
 1541POPC   GL122213   9.861   9.804   9.011
 1541POPC   GL222214   9.957  10.152   8.994
 1541POPC   C1A22215   9.859   9.690   8.590
 1541POPC   D2A22216   9.914   9.747   8.167
 1541POPC   C3A22217   9.626   9.542   7.895
 1541POPC   C4A22218   9.682   9.376   7.503
 1541POPC   C1B22219   9.574  10.115   8.696
 1541POPC   C2B22220   9.463  10.004   8.273
 1541POPC   C3B22221   9.643  10.073   7.880
 1541POPC   C4B22222   9.936   9.840   7.606
 1542POPC   NC322223  24.752   1.696   9.358
 1542POPC   PO422224  24.234   2.148   9.544
 1542POPC   GL122225  24.425   2.036   9.161
 1542POPC   GL222226  24.180   1.786   9.185
 1542POPC   C1A22227  24.630   2.161   8.746
 1542POPC   D2A22228  24.738   2.459   8.382
 1542POPC   C3A22229  24.845   2.300   7.981
 1542POPC   C4A22230  24.869   2.175   7.551
 1542POPC   C1B22231  24.076   1.997   8.815
 1542POPC   C2B22232  24.331   1.849   8.464
 1542POPC   C3B22233  24.480   1.939   8.082
 1542POPC   C4B22234  24.416   1.988   7.683
 1543POPC   NC322235  36.617   6.168   9.530
 1543POPC   PO422236  37.002   5.592   9.603
 1543POPC   GL122237  36.890   5.840   9.254
 1543POPC   GL222238  36.524   5.766   9.212
 1543POPC   C1A22239  36.776   6.039   8.850
 1543POPC   D2A22240  36.602   5.984   8.432
 1543POPC   C3A22241  36.842   6.086   8.051
 1543POPC   C4A22242  36.995   6.083   7.635
 1543POPC   C1B22243  36.330   5.713   8.811
 1543POPC   C2B22244  36.432   5.453   8.452
 1543POPC   C3B22245  36.577   5.630   8.061
 1543POPC   C4B22246  36.511   5.855   7.710
 1544POPC   NC322247  39.727  26.180   9.632
 1544POPC   PO422248  40.220  25.692   9.478
 1544POPC   GL122249  39.856  25.884   9.222
 1544POPC   GL222250  39.838  26.250   9.155
 1544POPC   C1A22251  39.763  25.946   8.772
 1544POPC   D2A22252  40.025  25.968   8.437
 1544POPC   C3A22253  39.894  25.917   8.029
 1544POPC   C4A22254  40.247  25.756   7.790
 1544POPC   C1B22255  39.782  26.512   8.797
 1544POPC   C2B22256  39.773  26.715   8.398
 1544POPC   C3B22257  39.818  26.456   8.024
 1544POPC   C4B22258  40.014  26.341   7.612
 1545POPC   NC322259  32.692  31.380   9.363
 1545POPC   PO422260  33.305  31.500   9.502
 1545POPC   GL122261  33.122  31.648   9.137
 1545POPC   GL222262  33.071  31.277   9.054
 1545POPC   C1A22263  32.972  31.619   8.704
 1545POPC   D2A22264  32.917  31.243   8.450
 1545POPC   C3A22265  32.911  31.448   8.053
 1545POPC   C4A22266  32.892  31.258   7.670
 1545POPC   C1B22267  33.419  31.328   8.807
 1545POPC   C2B22268  33.385  31.401   8.413
 1545POPC   C3B22269  33.417  31.295   8.021
 1545POPC   C4B22270  33.302  31.529   7.701
 1546POPC   NC322271  22.481   1.425   9.203
 1546POPC   PO422272  22.101   1.018   9.518
 1546POPC   GL122273  22.119   1.094   9.086
 1546POPC   GL222274  22.004   1.405   9.051
 1546POPC   C1A22275  21.950   1.083   8.660
 1546POPC   D2A22276  22.112   1.215   8.291
 1546POPC   C3A22277  21.922   1.267   7.951
 1546POPC   C4A22278  21.897   1.061   7.600
 1546POPC   C1B22279  22.203   1.576   8.642
 1546POPC   C2B22280  22.511   1.505   8.304
 1546POPC   C3B22281  22.480   1.373   7.904
 1546POPC   C4B22282  22.441   1.721   7.671
 1547POPC   NC322283  13.331  10.440   9.593
 1547POPC   PO422284  14.011  10.666   9.434
 1547POPC   GL122285  13.691  10.476   9.169
 1547POPC   GL222286  13.373  10.248   9.142
 1547POPC   C1A22287  13.831  10.425   8.757
 1547POPC   D2A22288  13.666  10.303   8.362
 1547POPC   C3A22289  13.680  10.632   8.092
 1547POPC   C4A22290  13.589  10.555   7.696
 1547POPC   C1B22291  13.321  10.515   8.797
 1547POPC   C2B22292  13.005  10.588   8.487
 1547POPC   C3B22293  13.167  10.508   8.061
 1547POPC   C4B22294  13.084  10.656   7.672
 1548POPC   NC322295  42.432  13.806   9.756
 1548POPC   PO422296  42.136  13.204   9.556
 1548POPC   GL122297  42.272  13.407   9.201
 1548POPC   GL222298  42.547  13.189   9.133
 1548POPC   C1A22299  42.138  13.635   8.825
 1548POPC   D2A22300  41.974  13.784   8.416
 1548POPC   C3A22301  42.093  13.649   7.997
 1548POPC   C4A22302  42.270  13.850   7.636
 1548POPC   C1B22303  42.568  13.348   8.694
 1548POPC   C2B22304  42.561  13.502   8.252
 1548POPC   C3B22305  42.531  13.426   7.803
 1548POPC   C4B22306  42.512  13.337   7.379
 1549POPC   NC322307  40.879  10.987   9.529
 1549POPC   PO422308  40.443  11.480   9.458
 1549POPC   GL122309  40.613  11.212   9.130
 1549POPC   GL222310  40.994  11.228   9.044
 1549POPC   C1A22311  40.648  11.368   8.692
 1549POPC   D2A22312  40.545  11.466   8.265
 1549POPC   C3A22313  40.677  11.147   7.960
 1549POPC   C4A22314  40.547  10.862   7.630
 1549POPC   C1B22315  41.134  11.550   8.676
 1549POPC   C2B22316  41.100  11.563   8.212
 1549POPC   C3B22317  41.152  11.319   7.817
 1549POPC   C4B22318  41.233  11.423   7.388
 1550POPC   NC322319  20.831  17.903   9.419
 1550POPC   PO422320  20.375  17.421   9.453
 1550POPC   GL122321  20.471  17.261   9.054
 1550POPC   GL222322  20.692  17.528   9.029
 1550POPC   C1A22323  20.561  17.219   8.637
 1550POPC   D2A22324  20.335  17.322   8.276
 1550POPC   C3A22325  20.575  17.319   7.889
 1550POPC   C4A22326  20.801  17.362   7.494
 1550POPC   C1B22327  20.699  17.831   8.701
 1550POPC   C2B22328  20.569  17.766   8.288
 1550POPC   C3B22329  20.670  17.822   7.867
 1550POPC   C4B22330  20.571  17.837   7.450
 1551POPC   NC322331  29.483  25.013   9.642
 1551POPC   PO422332  28.985  25.433   9.708
 1551POPC   GL122333  29.078  25.424   9.276
 1551POPC   GL222334  29.408  25.319   9.188
 1551POPC   C1A22335  29.023  25.402   8.821
 1551POPC   D2A22336  29.160  25.415   8.392
 1551POPC   C3A22337  28.925  25.171   8.086
 1551POPC   C4A22338  28.945  25.507   7.825
 1551POPC   C1B22339  29.505  25.172   8.735
 1551POPC   C2B22340  29.497  25.036   8.259
 1551POPC   C3B22341  29.357  25.152   7.818
 1551POPC   C4B22342  29.503  25.188   7.367
 1552POPC   NC322343   3.938  18.241   9.431
 1552POPC   PO422344   4.602  18.001   9.520
 1552POPC   GL122345   4.505  18.010   9.102
 1552POPC   GL222346   4.367  18.323   9.139
 1552POPC   C1A22347   4.292  18.080   8.685
 1552POPC   D2A22348   4.005  18.200   8.328
 1552POPC   C3A22349   4.283  18.316   7.989
 1552POPC   C4A22350   4.532  18.073   7.709
 1552POPC   C1B22351   4.573  18.529   8.822
 1552POPC   C2B22352   4.681  18.443   8.419
 1552POPC   C3B22353   4.651  18.673   8.042
 1552POPC   C4B22354   4.558  18.609   7.621
 1553POPC   NC322355   5.147  13.190   9.329
 1553POPC   PO422356   5.112  13.857   9.418
 1553POPC   GL122357   4.945  13.785   9.045
 1553POPC   GL222358   5.265  13.583   9.014
 1553POPC   C1A22359   4.937  13.597   8.619
 1553POPC   D2A22360   5.173  13.307   8.361
 1553POPC   C3A22361   5.261  13.408   7.925
 1553POPC   C4A22362   4.994  13.434   7.534
 1553POPC   C1B22363   5.310  13.953   8.743
 1553POPC   C2B22364   5.259  13.833   8.299
 1553POPC   C3B22365   5.445  13.935   7.944
 1553POPC   C4B22366   5.382  13.779   7.564
 1554POPC   NC322367  20.596  22.548   9.571
 1554POPC   PO422368  20.963  23.149   9.611
 1554POPC   GL122369  20.688  22.960   9.270
 1554POPC   GL222370  20.437  23.143   9.138
 1554POPC   C1A22371  20.525  22.716   8.882
 1554POPC   D2A22372  20.554  22.847   8.438
 1554POPC   C3A22373  20.510  22.739   7.999
 1554POPC   C4A22374  20.838  22.924   7.736
 1554POPC   C1B22375  20.436  23.244   8.728
 1554POPC   C2B22376  20.310  23.257   8.277
 1554POPC   C3B22377  20.411  23.230   7.816
 1554POPC   C4B22378  20.493  23.333   7.359
 1555POPC   NC322379  17.179  14.877   9.370
 1555POPC   PO422380  17.568  15.262   9.664
 1555POPC   GL122381  17.666  15.138   9.227
 1555POPC   GL222382  17.381  15.347   9.141
 1555POPC   C1A22383  17.572  15.063   8.764
 1555POPC   D2A22384  17.436  15.387   8.453
 1555POPC   C3A22385  17.360  15.310   8.028
 1555POPC   C4A22386  17.628  15.067   7.815
 1555POPC   C1B22387  17.087  15.226   8.789
 1555POPC   C2B22388  17.107  14.992   8.371
 1555POPC   C3B22389  17.158  14.851   7.929
 1555POPC   C4B22390  17.013  14.759   7.504
 1556POPC   NC322391  20.470  28.231   9.923
 1556POPC   PO422392  20.662  28.769   9.484
 1556POPC   GL122393  20.575  28.684   9.055
 1556POPC   GL222394  20.448  28.368   9.092
 1556POPC   C1A22395  20.514  28.836   8.654
 1556POPC   D2A22396  20.544  28.685   8.240
 1556POPC   C3A22397  20.908  28.561   7.984
 1556POPC   C4A22398  20.917  28.377   7.553
 1556POPC   C1B22399  20.465  28.333   8.646
 1556POPC   C2B22400  20.642  28.186   8.264
 1556POPC   C3B22401  20.356  28.299   7.941
 1556POPC   C4B22402  20.404  28.294   7.483
 1557POPC   NC322403  10.428  11.126   9.632
 1557POPC   PO422404  10.964  11.418   9.617
 1557POPC   GL122405  10.706  11.302   9.221
 1557POPC   GL222406  10.331  11.278   9.175
 1557POPC   C1A22407  10.613  11.385   8.778
 1557POPC   D2A22408  10.528  11.132   8.413
 1557POPC   C3A22409  10.612  11.325   8.028
 1557POPC   C4A22410  10.969  11.208   7.805
 1557POPC   C1B22411  10.179  11.075   8.838
 1557POPC   C2B22412  10.024  11.025   8.423
 1557POPC   C3B22413  10.139  11.009   7.979
 1557POPC   C4B22414  10.298  11.239   7.633
 1558POPC   NC322415   1.229  14.996   9.662
 1558POPC   PO422416   0.938  15.451   9.314
 1558POPC   GL122417   1.224  15.132   9.177
 1558POPC   GL222418   1.038  14.828   9.224
 1558POPC   C1A22419   1.332  14.918   8.813
 1558POPC   D2A22420   1.159  14.975   8.436
 1558POPC   C3A22421   1.352  15.107   8.051
 1558POPC   C4A22422   1.102  15.387   7.811
 1558POPC   C1B22423   0.798  14.864   8.858
 1558POPC   C2B22424   0.653  14.863   8.421
 1558POPC   C3B22425   0.853  14.944   8.016
 1558POPC   C4B22426   0.943  14.940   7.596
 1559POPC   NC322427  44.462  37.950   9.648
 1559POPC   PO422428  44.293  37.243   9.576
 1559POPC   GL122429  44.324  37.576   9.298
 1559POPC   GL222430  44.702  37.577   9.245
 1559POPC   C1A22431  44.368  37.812   8.926
 1559POPC   D2A22432  44.614  37.873   8.557
 1559POPC   C3A22433  44.450  37.798   8.142
 1559POPC   C4A22434  44.593  37.717   7.756
 1559POPC   C1B22435  44.869  37.474   8.797
 1559POPC   C2B22436  44.754  37.402   8.327
 1559POPC   C3B22437  44.958  37.344   7.890
 1559POPC   C4B22438  44.959  37.554   7.460
 1560POPC   NC322439  15.353  18.004   9.636
 1560POPC   PO422440  15.207  18.564   9.578
 1560POPC   GL122441  15.332  18.431   9.191
 1560POPC   GL222442  15.355  18.083   9.118
 1560POPC   C1A22443  15.441  18.578   8.797
 1560POPC   D2A22444  15.244  18.529   8.397
 1560POPC   C3A22445  15.365  18.574   8.015
 1560POPC   C4A22446  15.335  18.245   7.791
 1560POPC   C1B22447  15.057  18.203   8.755
 1560POPC   C2B22448  14.769  18.345   8.381
 1560POPC   C3B22449  14.827  18.329   7.922
 1560POPC   C4B22450  14.941  17.978   7.632
 1561POPC   NC322451  14.539  20.300   9.378
 1561POPC   PO422452  14.141  20.847   9.513
 1561POPC   GL122453  14.345  20.860   9.074
 1561POPC   GL222454  14.655  20.676   9.032
 1561POPC   C1A22455  14.508  20.911   8.617
 1561POPC   D2A22456  14.535  20.578   8.284
 1561POPC   C3A22457  14.242  20.590   7.934
 1561POPC   C4A22458  14.014  20.603   7.526
 1561POPC   C1B22459  14.806  20.348   8.737
 1561POPC   C2B22460  14.891  20.214   8.308
 1561POPC   C3B22461  14.849  20.358   7.899
 1561POPC   C4B22462  14.725  20.769   7.825
 1562POPC   NC322463  36.712   2.303   9.401
 1562POPC   PO422464  37.260   2.016   9.360
 1562POPC   GL122465  36.935   1.988   9.105
 1562POPC   GL222466  36.652   1.788   9.277
 1562POPC   C1A22467  37.028   2.262   8.794
 1562POPC   D2A22468  37.133   2.139   8.434
 1562POPC   C3A22469  36.833   2.050   8.150
 1562POPC   C4A22470  36.721   2.042   7.735
 1562POPC   C1B22471  36.689   1.654   8.826
 1562POPC   C2B22472  36.468   1.672   8.415
 1562POPC   C3B22473  36.625   1.606   8.007
 1562POPC   C4B22474  36.418   1.659   7.594
 1563POPC   NC322475  33.541  20.978   9.696
 1563POPC   PO422476  33.709  21.593   9.561
 1563POPC   GL122477  33.540  21.451   9.173
 1563POPC   GL222478  33.691  21.150   9.091
 1563POPC   C1A22479  33.535  21.543   8.717
 1563POPC   D2A22480  33.778  21.534   8.311
 1563POPC   C3A22481  33.585  21.516   7.904
 1563POPC   C4A22482  33.670  21.532   7.440
 1563POPC   C1B22483  33.841  21.127   8.635
 1563POPC   C2B22484  34.140  21.164   8.264
 1563POPC   C3B22485  34.053  21.284   7.839
 1563POPC   C4B22486  33.720  21.073   7.649
 1564POPC   NC322487  19.822  44.373   9.450
 1564POPC   PO422488  20.014   0.086   9.478
 1564POPC   GL122489  19.851  44.836   9.191
 1564POPC   GL222490  20.162  44.709   9.097
 1564POPC   C1A22491  19.655  44.809   8.804
 1564POPC   D2A22492  19.925  44.843   8.469
 1564POPC   C3A22493  19.791  44.818   8.022
 1564POPC   C4A22494  20.210  44.925   7.813
 1564POPC   C1B22495  20.006  44.414   8.788
 1564POPC   C2B22496  20.112  44.383   8.353
 1564POPC   C3B22497  20.058  44.394   7.911
 1564POPC   C4B22498  19.664  44.178   7.795
 1565POPC   NC322499  43.422  19.504   9.294
 1565POPC   PO422500  42.865  19.721   9.578
 1565POPC   GL122501  43.042  19.866   9.196
 1565POPC   GL222502  43.309  20.049   9.267
 1565POPC   C1A22503  43.118  19.778   8.747
 1565POPC   D2A22504  43.050  19.515   8.382
 1565POPC   C3A22505  43.066  19.727   7.991
 1565POPC   C4A22506  43.136  19.599   7.547
 1565POPC   C1B22507  43.343  20.238   8.861
 1565POPC   C2B22508  43.181  20.254   8.434
 1565POPC   C3B22509  43.211  20.218   7.986
 1565POPC   C4B22510  43.041  20.104   7.599
 1566POPC   NC322511  18.632  20.432   9.313
 1566POPC   PO422512  19.173  20.223   9.526
 1566POPC   GL122513  19.108  20.482   9.117
 1566POPC   GL222514  18.877  20.791   9.046
 1566POPC   C1A22515  19.007  20.512   8.662
 1566POPC   D2A22516  18.835  20.828   8.389
 1566POPC   C3A22517  18.928  20.745   7.988
 1566POPC   C4A22518  19.084  20.648   7.561
 1566POPC   C1B22519  19.252  20.935   8.735
 1566POPC   C2B22520  19.363  20.819   8.308
 1566POPC   C3B22521  19.370  21.011   7.891
 1566POPC   C4B22522  19.535  20.924   7.500
 1567POPC   NC322523  26.618  36.023   9.444
 1567POPC   PO422524  27.370  36.060   9.495
 1567POPC   GL122525  27.076  36.168   9.197
 1567POPC   GL222526  26.988  35.845   9.131
 1567POPC   C1A22527  26.963  36.214   8.764
 1567POPC   D2A22528  27.175  36.331   8.395
 1567POPC   C3A22529  26.872  36.262   8.083
 1567POPC   C4A22530  26.847  35.945   7.763
 1567POPC   C1B22531  26.651  35.790   8.799
 1567POPC   C2B22532  26.549  35.831   8.350
 1567POPC   C3B22533  26.569  35.574   7.974
 1567POPC   C4B22534  26.515  35.628   7.497
 1568POPC   NC322535  20.213  28.849   9.373
 1568POPC   PO422536  20.570  29.397   9.549
 1568POPC   GL122537  20.437  29.342   9.122
 1568POPC   GL222538  20.738  29.175   9.070
 1568POPC   C1A22539  20.522  29.345   8.640
 1568POPC   D2A22540  20.288  29.146   8.286
 1568POPC   C3A22541  20.537  29.087   7.946
 1568POPC   C4A22542  20.521  28.725   7.709
 1568POPC   C1B22543  20.969  29.074   8.705
 1568POPC   C2B22544  21.083  28.923   8.319
 1568POPC   C3B22545  21.058  29.085   7.946
 1568POPC   C4B22546  20.886  29.346   7.657
 1569POPC   NC322547   8.083  28.708   9.953
 1569POPC   PO422548   8.499  28.620   9.409
 1569POPC   GL122549   8.381  28.371   9.058
 1569POPC   GL222550   8.022  28.235   9.027
 1569POPC   C1A22551   8.286  28.461   8.630
 1569POPC   D2A22552   8.076  28.274   8.275
 1569POPC   C3A22553   8.096  28.527   7.904
 1569POPC   C4A22554   8.171  28.377   7.499
 1569POPC   C1B22555   7.793  28.519   8.731
 1569POPC   C2B22556   7.776  28.678   8.307
 1569POPC   C3B22557   7.600  28.477   7.939
 1569POPC   C4B22558   7.657  28.370   7.480
 1570POPC   NC322559  41.865  13.585   9.500
 1570POPC   PO422560  41.241  13.855   9.474
 1570POPC   GL122561  41.444  13.575   9.212
 1570POPC   GL222562  41.532  13.237   9.289
 1570POPC   C1A22563  41.635  13.771   8.870
 1570POPC   D2A22564  41.398  13.895   8.532
 1570POPC   C3A22565  41.544  13.822   8.120
 1570POPC   C4A22566  41.401  13.643   7.768
 1570POPC   C1B22567  41.665  13.263   8.865
 1570POPC   C2B22568  41.615  13.439   8.465
 1570POPC   C3B22569  41.728  13.298   8.065
 1570POPC   C4B22570  41.584  13.170   7.684
 1571POPC   NC322571  26.654  11.167   9.708
 1571POPC   PO422572  26.002  11.172   9.565
 1571POPC   GL122573  26.157  11.094   9.180
 1571POPC   GL222574  26.182  11.452   9.147
 1571POPC   C1A22575  26.016  11.160   8.750
 1571POPC   D2A22576  26.193  11.241   8.343
 1571POPC   C3A22577  26.020  11.076   7.984
 1571POPC   C4A22578  26.295  10.929   7.701
 1571POPC   C1B22579  26.180  11.648   8.765
 1571POPC   C2B22580  26.145  11.744   8.356
 1571POPC   C3B22581  26.176  11.563   7.943
 1571POPC   C4B22582  25.909  11.602   7.592
 1572POPC   NC322583  25.359  25.779   9.632
 1572POPC   PO422584  25.430  26.386   9.866
 1572POPC   GL122585  25.312  26.270   9.368
 1572POPC   GL222586  25.347  25.967   9.173
 1572POPC   C1A22587  25.291  26.352   8.874
 1572POPC   D2A22588  25.480  26.264   8.458
 1572POPC   C3A22589  25.277  26.080   8.076
 1572POPC   C4A22590  25.509  25.959   7.707
 1572POPC   C1B22591  25.514  25.836   8.793
 1572POPC   C2B22592  25.484  25.685   8.354
 1572POPC   C3B22593  25.331  25.526   7.934
 1572POPC   C4B22594  25.506  25.491   7.505
 1573POPC   NC322595  27.401   6.426   9.514
 1573POPC   PO422596  27.620   7.064   9.666
 1573POPC   GL122597  27.726   6.747   9.260
 1573POPC   GL222598  27.762   6.364   9.167
 1573POPC   C1A22599  27.696   6.757   8.796
 1573POPC   D2A22600  27.568   7.036   8.447
 1573POPC   C3A22601  27.724   6.958   8.001
 1573POPC   C4A22602  27.494   6.899   7.604
 1573POPC   C1B22603  27.858   6.272   8.729
 1573POPC   C2B22604  27.784   6.513   8.330
 1573POPC   C3B22605  27.581   6.462   7.888
 1573POPC   C4B22606  27.569   6.402   7.407
 1574POPC   NC322607  18.528   0.063   9.374
 1574POPC   PO422608  18.945   0.592   9.447
 1574POPC   GL122609  18.820   0.400   9.092
 1574POPC   GL222610  19.080   0.147   9.134
 1574POPC   C1A22611  18.850   0.215   8.677
 1574POPC   D2A22612  19.054   0.266   8.297
 1574POPC   C3A22613  18.791   0.313   7.963
 1574POPC   C4A22614  18.716   0.625   7.662
 1574POPC   C1B22615  19.358   0.248   8.775
 1574POPC   C2B22616  19.515   0.110   8.380
 1574POPC   C3B22617  19.469   0.271   7.953
 1574POPC   C4B22618  19.544   0.048   7.544
 1575POPC   NC322619  37.584   2.355   9.355
 1575POPC   PO422620  38.024   1.861   9.483
 1575POPC   GL122621  37.935   2.037   9.086
 1575POPC   GL222622  37.976   1.686   8.969
 1575POPC   C1A22623  37.607   2.007   8.734
 1575POPC   D2A22624  37.479   1.786   8.345
 1575POPC   C3A22625  37.412   2.080   8.013
 1575POPC   C4A22626  37.746   2.173   7.724
 1575POPC   C1B22627  37.814   1.493   8.595
 1575POPC   C2B22628  37.857   1.502   8.119
 1575POPC   C3B22629  37.621   1.676   7.757
 1575POPC   C4B22630  37.397   1.556   7.362
 1576POPC   NC322631   5.679   0.425   9.520
 1576POPC   PO422632   6.254   0.224   9.291
 1576POPC   GL122633   5.882   0.266   9.077
 1576POPC   GL222634   5.596   0.067   9.137
 1576POPC   C1A22635   5.811   0.609   8.821
 1576POPC   D2A22636   5.991   0.800   8.493
 1576POPC   C3A22637   6.096   0.508   8.164
 1576POPC   C4A22638   6.028   0.583   7.730
 1576POPC   C1B22639   5.469   0.232   8.758
 1576POPC   C2B22640   5.582   0.445   8.376
 1576POPC   C3B22641   5.613   0.397   7.963
 1576POPC   C4B22642   5.450   0.214   7.640
 1577POPC   NC322643  28.998  33.587   9.722
 1577POPC   PO422644  29.043  34.304   9.719
 1577POPC   GL122645  29.134  34.005   9.329
 1577POPC   GL222646  28.969  33.706   9.222
 1577POPC   C1A22647  29.240  33.985   8.849
 1577POPC   D2A22648  29.406  33.914   8.398
 1577POPC   C3A22649  29.325  33.701   7.963
 1577POPC   C4A22650  29.437  33.919   7.588
 1577POPC   C1B22651  28.786  33.725   8.788
 1577POPC   C2B22652  28.893  33.799   8.331
 1577POPC   C3B22653  28.807  33.725   7.872
 1577POPC   C4B22654  28.744  33.318   7.655
 1578POPC   NC322655   8.319  14.463   9.501
 1578POPC   PO422656   7.755  14.796   9.191
 1578POPC   GL122657   8.071  14.442   9.045
 1578POPC   GL222658   8.492  14.454   9.032
 1578POPC   C1A22659   7.925  14.359   8.638
 1578POPC   D2A22660   7.908  14.724   8.364
 1578POPC   C3A22661   7.992  14.604   7.956
 1578POPC   C4A22662   7.783  14.203   7.885
 1578POPC   C1B22663   8.385  14.160   8.686
 1578POPC   C2B22664   8.256  14.285   8.262
 1578POPC   C3B22665   8.314  14.208   7.823
 1578POPC   C4B22666   8.476  14.295   7.392
 1579POPC   NC322667  26.342  30.619   9.302
 1579POPC   PO422668  25.659  30.704   9.561
 1579POPC   GL122669  25.852  30.528   9.246
 1579POPC   GL222670  25.936  30.849   9.108
 1579POPC   C1A22671  25.840  30.439   8.818
 1579POPC   D2A22672  26.139  30.330   8.487
 1579POPC   C3A22673  25.961  30.284   8.041
 1579POPC   C4A22674  26.141  30.455   7.649
 1579POPC   C1B22675  26.128  30.837   8.690
 1579POPC   C2B22676  26.118  31.053   8.267
 1579POPC   C3B22677  26.137  30.948   7.821
 1579POPC   C4B22678  26.258  31.016   7.393
 1580POPC   NC322679   4.654  17.546   9.499
 1580POPC   PO422680   4.196  17.091   9.634
 1580POPC   GL122681   4.294  17.306   9.247
 1580POPC   GL222682   4.602  17.148   9.157
 1580POPC   C1A22683   4.263  17.595   8.904
 1580POPC   D2A22684   4.264  17.525   8.451
 1580POPC   C3A22685   4.232  17.787   8.078
 1580POPC   C4A22686   4.183  17.657   7.635
 1580POPC   C1B22687   4.824  17.099   8.763
 1580POPC   C2B22688   4.744  17.313   8.370
 1580POPC   C3B22689   4.471  17.239   8.032
 1580POPC   C4B22690   4.681  17.160   7.628
 1581POPC   NC322691   7.016  36.084   9.232
 1581POPC   PO422692   6.487  36.130   9.735
 1581POPC   GL122693   6.435  36.090   9.267
 1581POPC   GL222694   6.303  35.753   9.285
 1581POPC   C1A22695   6.514  36.248   8.813
 1581POPC   D2A22696   6.764  36.166   8.417
 1581POPC   C3A22697   6.721  36.394   7.995
 1581POPC   C4A22698   6.551  36.287   7.573
 1581POPC   C1B22699   6.378  35.757   8.832
 1581POPC   C2B22700   6.267  35.969   8.438
 1581POPC   C3B22701   6.409  36.004   8.025
 1581POPC   C4B22702   6.522  35.715   7.744
 1582POPC   NC322703  26.383  18.465   9.846
 1582POPC   PO422704  25.793  18.433   9.536
 1582POPC   GL122705  26.018  18.252   9.165
 1582POPC   GL222706  26.332  18.400   8.993
 1582POPC   C1A22707  25.889  18.229   8.739
 1582POPC   D2A22708  25.589  18.287   8.418
 1582POPC   C3A22709  25.677  18.379   7.985
 1582POPC   C4A22710  26.062  18.380   7.739
 1582POPC   C1B22711  26.118  18.675   8.732
 1582POPC   C2B22712  26.026  18.573   8.290
 1582POPC   C3B22713  26.158  18.826   7.935
 1582POPC   C4B22714  26.504  18.666   7.701
 1583POPC   NC322715  35.679  28.668   9.519
 1583POPC   PO422716  35.670  27.951   9.381
 1583POPC   GL122717  35.478  28.327   9.190
 1583POPC   GL222718  35.751  28.536   9.044
 1583POPC   C1A22719  35.285  28.578   8.842
 1583POPC   D2A22720  34.943  28.605   8.548
 1583POPC   C3A22721  35.019  28.741   8.138
 1583POPC   C4A22722  35.202  28.682   7.727
 1583POPC   C1B22723  35.635  28.211   8.725
 1583POPC   C2B22724  35.322  28.270   8.432
 1583POPC   C3B22725  35.322  28.298   8.027
 1583POPC   C4B22726  35.599  28.204   7.725
 1584POPC   NC322727  35.581   7.863   9.649
 1584POPC   PO422728  35.126   8.223   9.450
 1584POPC   GL122729  35.104   8.365   9.100
 1584POPC   GL222730  35.408   8.251   8.949
 1584POPC   C1A22731  34.969   8.201   8.724
 1584POPC   D2A22732  35.064   8.028   8.336
 1584POPC   C3A22733  35.169   8.274   7.964
 1584POPC   C4A22734  35.088   8.023   7.614
 1584POPC   C1B22735  35.703   8.171   8.657
 1584POPC   C2B22736  35.846   8.419   8.310
 1584POPC   C3B22737  35.758   8.344   7.886
 1584POPC   C4B22738  35.933   8.489   7.491
 1585POPC   NC322739  15.250   0.751   9.795
 1585POPC   PO422740  15.417   0.153   9.401
 1585POPC   GL122741  15.084   0.224   9.041
 1585POPC   GL222742  14.938   0.562   8.998
 1585POPC   C1A22743  15.034   0.270   8.616
 1585POPC   D2A22744  15.107   0.058   8.316
 1585POPC   C3A22745  14.954   0.273   8.048
 1585POPC   C4A22746  15.046   0.387   7.692
 1585POPC   C1B22747  15.225   0.744   8.676
 1585POPC   C2B22748  15.259   0.631   8.255
 1585POPC   C3B22749  15.347   0.771   7.841
 1585POPC   C4B22750  15.391   0.635   7.404
 1586POPC   NC322751   0.239  31.222   9.570
 1586POPC   PO422752   0.510  31.869   9.459
 1586POPC   GL122753   0.251  31.600   9.219
 1586POPC   GL222754   0.495  31.347   9.139
 1586POPC   C1A22755   0.094  31.416   8.833
 1586POPC   D2A22756   0.086  31.344   8.389
 1586POPC   C3A22757   0.354  31.613   8.144
 1586POPC   C4A22758   0.354  31.777   7.741
 1586POPC   C1B22759   0.513  31.103   8.765
 1586POPC   C2B22760   0.524  31.073   8.329
 1586POPC   C3B22761   0.291  31.136   7.944
 1586POPC   C4B22762   0.448  31.323   7.540
 1587POPC   NC322763  17.328  26.621   9.542
 1587POPC   PO422764  17.614  27.269   9.512
 1587POPC   GL122765  17.540  26.938   9.212
 1587POPC   GL222766  17.714  26.612   9.217
 1587POPC   C1A22767  17.330  26.826   8.850
 1587POPC   D2A22768  17.451  27.129   8.563
 1587POPC   C3A22769  17.503  26.989   8.160
 1587POPC   C4A22770  17.326  26.643   7.862
 1587POPC   C1B22771  17.830  26.702   8.801
 1587POPC   C2B22772  17.692  26.569   8.409
 1587POPC   C3B22773  17.845  26.655   7.980
 1587POPC   C4B22774  17.695  26.979   7.695
 1588POPC   NC322775   9.314  26.248   9.234
 1588POPC   PO422776   8.735  25.855   9.443
 1588POPC   GL122777   8.998  25.838   9.090
 1588POPC   GL222778   8.872  26.139   8.976
 1588POPC   C1A22779   9.199  25.849   8.673
 1588POPC   D2A22780   9.261  26.158   8.361
 1588POPC   C3A22781   9.098  26.021   7.972
 1588POPC   C4A22782   9.116  26.108   7.542
 1588POPC   C1B22783   8.706  26.010   8.564
 1588POPC   C2B22784   8.630  25.878   8.122
 1588POPC   C3B22785   8.648  26.096   7.729
 1588POPC   C4B22786   8.739  26.420   7.364
 1589POPC   NC322787  36.680  12.944   9.593
 1589POPC   PO422788  37.024  12.463   9.472
 1589POPC   GL122789  36.908  12.773   9.171
 1589POPC   GL222790  37.175  13.024   9.167
 1589POPC   C1A22791  36.694  12.957   8.828
 1589POPC   D2A22792  36.518  13.012   8.402
 1589POPC   C3A22793  36.639  12.770   8.056
 1589POPC   C4A22794  36.812  12.935   7.649
 1589POPC   C1B22795  37.259  12.783   8.798
 1589POPC   C2B22796  37.007  12.777   8.439
 1589POPC   C3B22797  37.143  12.775   8.026
 1589POPC   C4B22798  37.264  12.673   7.614
 1590POPC   NC322799  20.621  10.964   9.448
 1590POPC   PO422800  20.531  11.559   9.517
 1590POPC   GL122801  20.510  11.361   9.140
 1590POPC   GL222802  20.213  11.525   9.076
 1590POPC   C1A22803  20.692  11.063   8.798
 1590POPC   D2A22804  20.879  10.961   8.374
 1590POPC   C3A22805  20.687  11.034   7.956
 1590POPC   C4A22806  20.617  11.127   7.495
 1590POPC   C1B22807  20.342  11.407   8.651
 1590POPC   C2B22808  20.281  11.106   8.286
 1590POPC   C3B22809  20.211  11.197   7.817
 1590POPC   C4B22810  20.283  11.518   7.455
 1591POPC   NC322811  32.743   3.516   9.605
 1591POPC   PO422812  33.456   3.696   9.530
 1591POPC   GL122813  33.293   3.630   9.104
 1591POPC   GL222814  32.927   3.575   9.132
 1591POPC   C1A22815  33.320   3.475   8.688
 1591POPC   D2A22816  33.365   3.782   8.336
 1591POPC   C3A22817  33.138   3.714   7.929
 1591POPC   C4A22818  33.064   3.294   7.785
 1591POPC   C1B22819  32.893   3.786   8.732
 1591POPC   C2B22820  32.902   3.495   8.386
 1591POPC   C3B22821  32.674   3.493   8.057
 1591POPC   C4B22822  32.605   3.894   7.890
 1592POPC   NC322823  13.489  24.900   9.574
 1592POPC   PO422824  13.878  25.387   9.166
 1592POPC   GL122825  13.485  25.188   9.132
 1592POPC   GL222826  13.442  24.853   9.073
 1592POPC   C1A22827  13.324  25.210   8.707
 1592POPC   D2A22828  13.633  25.359   8.396
 1592POPC   C3A22829  13.619  25.396   7.948
 1592POPC   C4A22830  13.702  25.627   7.555
 1592POPC   C1B22831  13.745  24.923   8.720
 1592POPC   C2B22832  13.935  24.933   8.303
 1592POPC   C3B22833  13.855  24.892   7.869
 1592POPC   C4B22834  13.710  25.118   7.527
 1593POPC   NC322835   3.334  10.349   9.516
 1593POPC   PO422836   3.559  10.960   9.584
 1593POPC   GL122837   3.622  10.670   9.217
 1593POPC   GL222838   3.806  10.353   9.214
 1593POPC   C1A22839   3.567  10.534   8.784
 1593POPC   D2A22840   3.820  10.386   8.426
 1593POPC   C3A22841   3.613  10.446   8.023
 1593POPC   C4A22842   3.480  10.819   7.804
 1593POPC   C1B22843   3.757  10.047   8.854
 1593POPC   C2B22844   3.841   9.854   8.463
 1593POPC   C3B22845   3.958  10.037   8.074
 1593POPC   C4B22846   3.787  10.065   7.689
 1594POPC   NC322847   2.060   0.343   9.438
 1594POPC   PO422848   2.307   0.875   9.663
 1594POPC   GL122849   2.082   0.861   9.200
 1594POPC   GL222850   1.853   0.592   9.043
 1594POPC   C1A22851   2.082   0.861   8.694
 1594POPC   D2A22852   2.176   0.767   8.258
 1594POPC   C3A22853   1.962   0.566   7.901
 1594POPC   C4A22854   1.923   0.551   7.440
 1594POPC   C1B22855   2.154   0.348   8.776
 1594POPC   C2B22856   2.218   0.248   8.341
 1594POPC   C3B22857   2.251   0.156   7.914
 1594POPC   C4B22858   1.820   0.106   7.723
 1595POPC   NC322859  17.145  34.506   9.509
 1595POPC   PO422860  17.668  34.917   9.476
 1595POPC   GL122861  17.569  34.664   9.150
 1595POPC   GL222862  17.280  34.815   9.049
 1595POPC   C1A22863  17.682  34.591   8.724
 1595POPC   D2A22864  17.517  34.460   8.294
 1595POPC   C3A22865  17.576  34.658   7.907
 1595POPC   C4A22866  17.879  34.415   7.686
 1595POPC   C1B22867  17.186  34.573   8.666
 1595POPC   C2B22868  17.112  34.753   8.262
 1595POPC   C3B22869  17.022  34.629   7.863
 1595POPC   C4B22870  17.125  34.867   7.502
 1596POPC   NC322871  36.542  35.770   9.341
 1596POPC   PO422872  36.671  35.164   9.614
 1596POPC   GL122873  36.298  35.338   9.278
 1596POPC   GL222874  36.057  35.135   9.095
 1596POPC   C1A22875  36.278  35.476   8.796
 1596POPC   D2A22876  36.008  35.564   8.450
 1596POPC   C3A22877  36.160  35.502   8.052
 1596POPC   C4A22878  36.042  35.696   7.695
 1596POPC   C1B22879  36.110  34.926   8.717
 1596POPC   C2B22880  36.239  35.065   8.333
 1596POPC   C3B22881  36.351  35.036   7.916
 1596POPC   C4B22882  36.106  35.144   7.576
 1597POPC   NC322883  20.761  44.047   9.492
 1597POPC   PO422884  20.363  43.412   9.538
 1597POPC   GL122885  20.599  43.636   9.228
 1597POPC   GL222886  20.415  43.486   8.999
 1597POPC   C1A22887  20.586  43.963   8.874
 1597POPC   D2A22888  20.364  43.925   8.481
 1597POPC   C3A22889  20.466  44.134   8.097
 1597POPC   C4A22890  20.663  44.065   7.728
 1597POPC   C1B22891  20.772  43.530   8.699
 1597POPC   C2B22892  20.868  43.644   8.258
 1597POPC   C3B22893  20.530  43.632   7.964
 1597POPC   C4B22894  20.413  43.516   7.562
 1598POPC   NC322895  12.753  25.264   9.657
 1598POPC   PO422896  13.379  25.291   9.787
 1598POPC   GL122897  13.086  25.424   9.336
 1598POPC   GL222898  12.739  25.213   9.158
 1598POPC   C1A22899  12.978  25.536   8.891
 1598POPC   D2A22900  12.859  25.296   8.504
 1598POPC   C3A22901  13.134  25.340   8.148
 1598POPC   C4A22902  13.241  25.116   7.741
 1598POPC   C1B22903  12.560  24.986   8.781
 1598POPC   C2B22904  12.377  25.115   8.385
 1598POPC   C3B22905  12.484  24.982   8.006
 1598POPC   C4B22906  12.764  25.259   7.789
 1599POPC   NC322907  34.856  40.298   9.451
 1599POPC   PO422908  34.362  39.812   9.590
 1599POPC   GL122909  34.329  39.913   9.106
 1599POPC   GL222910  34.469  40.189   9.144
 1599POPC   C1A22911  34.355  40.022   8.645
 1599POPC   D2A22912  34.799  39.976   8.387
 1599POPC   C3A22913  34.668  39.868   7.997
 1599POPC   C4A22914  34.224  39.999   8.010
 1599POPC   C1B22915  34.760  40.259   8.802
 1599POPC   C2B22916  34.601  40.452   8.401
 1599POPC   C3B22917  34.674  40.392   7.959
 1599POPC   C4B22918  34.987  40.199   7.697
 1600POPC   NC322919  30.853  17.863   9.445
 1600POPC   PO422920  30.513  18.394   9.490
 1600POPC   GL122921  30.698  18.253   9.134
 1600POPC   GL222922  30.504  17.953   9.056
 1600POPC   C1A22923  30.817  18.463   8.784
 1600POPC   D2A22924  30.676  18.424   8.372
 1600POPC   C3A22925  30.912  18.383   8.012
 1600POPC   C4A22926  30.808  18.388   7.615
 1600POPC   C1B22927  30.658  17.996   8.653
 1600POPC   C2B22928  30.933  17.965   8.294
 1600POPC   C3B22929  30.792  17.916   7.853
 1600POPC   C4B22930  30.477  17.983   7.520
 1601POPC   NC322931  13.048  20.842   9.486
 1601POPC   PO422932  13.349  20.219   9.633
 1601POPC   GL122933  13.079  20.341   9.236
 1601POPC   GL222934  12.756  20.578   9.180
 1601POPC   C1A22935  13.016  20.390   8.789
 1601POPC   D2A22936  13.213  20.679   8.523
 1601POPC   C3A22937  13.174  20.684   8.066
 1601POPC   C4A22938  12.826  20.549   7.830
 1601POPC   C1B22939  12.826  20.891   8.837
 1601POPC   C2B22940  12.742  20.842   8.396
 1601POPC   C3B22941  12.737  21.019   7.997
 1601POPC   C4B22942  12.522  20.954   7.625
 1602POPC   NC322943  43.671   5.599   9.379
 1602POPC   PO422944  43.108   6.016   9.489
 1602POPC   GL122945  42.960   5.941   9.121
 1602POPC   GL222946  43.265   5.736   9.076
 1602POPC   C1A22947  42.912   5.980   8.697
 1602POPC   D2A22948  42.839   5.653   8.463
 1602POPC   C3A22949  42.963   5.684   8.087
 1602POPC   C4A22950  43.123   5.980   7.811
 1602POPC   C1B22951  43.317   5.680   8.668
 1602POPC   C2B22952  43.290   5.390   8.376
 1602POPC   C3B22953  43.407   5.465   7.976
 1602POPC   C4B22954  43.127   5.464   7.666
 1603POPC   NC322955  32.820  29.836   9.543
 1603POPC   PO422956  33.150  30.400   9.595
 1603POPC   GL122957  33.150  30.082   9.198
 1603POPC   GL222958  32.830  29.969   9.041
 1603POPC   C1A22959  33.297  29.885   8.799
 1603POPC   D2A22960  33.278  29.639   8.440
 1603POPC   C3A22961  33.110  29.876   8.113
 1603POPC   C4A22962  32.866  30.127   7.830
 1603POPC   C1B22963  32.823  29.644   8.699
 1603POPC   C2B22964  32.809  29.480   8.261
 1603POPC   C3B22965  32.645  29.674   7.865
 1603POPC   C4B22966  32.786  29.825   7.433
 1604POPC   NC322967  17.160  27.330   9.588
 1604POPC   PO422968  17.509  27.830   9.819
 1604POPC   GL122969  17.454  27.692   9.288
 1604POPC   GL222970  17.305  27.395   9.090
 1604POPC   C1A22971  17.720  27.577   8.852
 1604POPC   D2A22972  17.707  27.539   8.353
 1604POPC   C3A22973  17.513  27.820   8.038
 1604POPC   C4A22974  17.459  27.816   7.560
 1604POPC   C1B22975  17.254  27.612   8.670
 1604POPC   C2B22976  17.194  27.455   8.250
 1604POPC   C3B22977  17.372  27.368   7.841
 1604POPC   C4B22978  17.293  27.197   7.450
 1605POPC   NC322979  12.020   4.075   9.453
 1605POPC   PO422980  12.082   4.721   9.507
 1605POPC   GL122981  12.283   4.517   9.140
 1605POPC   GL222982  11.985   4.413   9.019
 1605POPC   C1A22983  12.399   4.220   8.774
 1605POPC   D2A22984  12.319   3.971   8.438
 1605POPC   C3A22985  12.298   4.114   8.038
 1605POPC   C4A22986  12.189   3.884   7.698
 1605POPC   C1B22987  12.033   4.479   8.562
 1605POPC   C2B22988  11.847   4.245   8.264
 1605POPC   C3B22989  11.713   4.058   7.925
 1605POPC   C4B22990  11.794   4.118   7.496
 1606POPC   NC322991  13.129   7.187   9.450
 1606POPC   PO422992  12.674   7.628   9.587
 1606POPC   GL122993  12.689   7.674   9.115
 1606POPC   GL222994  12.748   7.326   9.150
 1606POPC   C1A22995  12.754   7.534   8.685
 1606POPC   D2A22996  13.083   7.485   8.381
 1606POPC   C3A22997  13.025   7.534   7.938
 1606POPC   C4A22998  12.713   7.635   7.608
 1606POPC   C1B22999  12.885   7.040   8.842
 1606POPC   C2B23000  12.774   7.052   8.440
 1606POPC   C3B23001  12.571   7.002   8.092
 1606POPC   C4B23002  12.858   7.077   7.763
 1607POPC   NC323003  41.543   7.805   9.740
 1607POPC   PO423004  41.250   8.384   9.554
 1607POPC   GL123005  41.398   8.304   9.165
 1607POPC   GL223006  41.742   8.387   9.130
 1607POPC   C1A23007  41.501   8.164   8.760
 1607POPC   D2A23008  41.590   8.013   8.376
 1607POPC   C3A23009  41.547   8.236   8.028
 1607POPC   C4A23010  41.252   8.285   7.694
 1607POPC   C1B23011  41.845   8.625   8.802
 1607POPC   C2B23012  41.890   8.446   8.435
 1607POPC   C3B23013  41.878   8.613   8.039
 1607POPC   C4B23014  41.750   8.472   7.631
 1608POPC   NC323015  37.406   2.911   9.473
 1608POPC   PO423016  38.013   2.568   9.291
 1608POPC   GL123017  37.703   2.781   9.080
 1608POPC   GL223018  37.425   2.600   8.943
 1608POPC   C1A23019  37.718   2.999   8.712
 1608POPC   D2A23020  37.862   2.987   8.280
 1608POPC   C3A23021  37.516   2.959   8.008
 1608POPC   C4A23022  37.454   3.046   7.612
 1608POPC   C1B23023  37.161   2.736   8.611
 1608POPC   C2B23024  37.225   2.594   8.219
 1608POPC   C3B23025  37.675   2.506   8.096
 1608POPC   C4B23026  37.849   2.713   7.726
 1609POPC   NC323027  17.432  10.275   9.555
 1609POPC   PO423028  17.876  10.709   9.339
 1609POPC   GL123029  17.508  10.597   9.166
 1609POPC   GL223030  17.206  10.773   9.298
 1609POPC   C1A23031  17.431  10.379   8.821
 1609POPC   D2A23032  17.593  10.298   8.415
 1609POPC   C3A23033  17.449  10.458   8.056
 1609POPC   C4A23034  17.451  10.279   7.680
 1609POPC   C1B23035  17.164  10.806   8.846
 1609POPC   C2B23036  17.361  10.779   8.444
 1609POPC   C3B23037  17.162  10.866   8.038
 1609POPC   C4B23038  17.329  10.761   7.641
 1610POPC   NC323039   4.749   3.661   9.526
 1610POPC   PO423040   5.395   3.323   9.543
 1610POPC   GL123041   5.124   3.553   9.204
 1610POPC   GL223042   4.801   3.445   9.065
 1610POPC   C1A23043   5.124   3.682   8.762
 1610POPC   D2A23044   5.341   3.777   8.388
 1610POPC   C3A23045   5.261   3.556   8.046
 1610POPC   C4A23046   5.397   3.298   7.765
 1610POPC   C1B23047   4.743   3.279   8.675
 1610POPC   C2B23048   4.840   3.540   8.329
 1610POPC   C3B23049   4.705   3.542   7.899
 1610POPC   C4B23050   4.937   3.578   7.494
 1611POPC   NC323051  26.519  21.034   9.252
 1611POPC   PO423052  26.221  21.604   9.545
 1611POPC   GL123053  26.178  21.781   9.154
 1611POPC   GL223054  26.128  21.425   9.027
 1611POPC   C1A23055  26.238  21.800   8.707
 1611POPC   D2A23056  26.116  21.471   8.428
 1611POPC   C3A23057  25.991  21.643   8.057
 1611POPC   C4A23058  26.117  21.592   7.639
 1611POPC   C1B23059  25.871  21.123   8.761
 1611POPC   C2B23060  25.793  20.873   8.376
 1611POPC   C3B23061  25.589  21.014   8.006
 1611POPC   C4B23062  25.662  21.370   7.757
 1612POPC   NC323063  37.987  42.863   9.282
 1612POPC   PO423064  37.692  43.341   9.588
 1612POPC   GL123065  37.629  43.219   9.174
 1612POPC   GL223066  37.787  43.476   9.037
 1612POPC   C1A23067  37.618  43.036   8.768
 1612POPC   D2A23068  37.666  43.272   8.416
 1612POPC   C3A23069  37.598  43.157   7.999
 1612POPC   C4A23070  37.539  42.798   7.775
 1612POPC   C1B23071  38.066  43.315   8.735
 1612POPC   C2B23072  38.077  42.956   8.484
 1612POPC   C3B23073  37.976  42.803   8.097
 1612POPC   C4B23074  38.033  42.988   7.718
 1613POPC   NC323075  12.384  22.688   9.647
 1613POPC   PO423076  12.075  23.238   9.482
 1613POPC   GL123077  11.997  23.050   9.131
 1613POPC   GL223078  11.764  22.820   9.238
 1613POPC   C1A23079  12.059  22.998   8.705
 1613POPC   D2A23080  11.986  22.773   8.359
 1613POPC   C3A23081  12.062  23.072   8.046
 1613POPC   C4A23082  12.327  23.018   7.662
 1613POPC   C1B23083  11.618  22.745   8.808
 1613POPC   C2B23084  11.525  22.572   8.402
 1613POPC   C3B23085  11.646  22.657   7.975
 1613POPC   C4B23086  11.847  22.860   7.644
 1614POPC   NC323087  35.984  26.460   9.350
 1614POPC   PO423088  36.488  26.877   9.419
 1614POPC   GL123089  36.220  26.860   9.065
 1614POPC   GL223090  35.947  27.099   8.906
 1614POPC   C1A23091  36.303  26.858   8.650
 1614POPC   D2A23092  36.095  27.065   8.335
 1614POPC   C3A23093  36.354  26.964   8.016
 1614POPC   C4A23094  36.331  26.699   7.677
 1614POPC   C1B23095  35.777  26.722   8.673
 1614POPC   C2B23096  35.620  26.532   8.302
 1614POPC   C3B23097  35.910  26.698   8.011
 1614POPC   C4B23098  35.936  27.026   7.706
 1615POPC   NC323099  39.682  38.956   9.500
 1615POPC   PO423100  39.986  39.481   9.438
 1615POPC   GL123101  40.020  39.158   9.116
 1615POPC   GL223102  40.336  38.985   9.082
 1615POPC   C1A23103  39.879  39.162   8.658
 1615POPC   D2A23104  39.586  39.289   8.299
 1615POPC   C3A23105  39.775  39.191   7.894
 1615POPC   C4A23106  40.213  39.098   7.881
 1615POPC   C1B23107  40.363  39.342   8.749
 1615POPC   C2B23108  40.293  39.417   8.294
 1615POPC   C3B23109  40.114  39.597   7.921
 1615POPC   C4B23110  40.061  39.466   7.532
 1616POPC   NC323111  17.342  11.843   9.564
 1616POPC   PO423112  17.833  12.353   9.483
 1616POPC   GL123113  17.690  12.049   9.233
 1616POPC   GL223114  17.365  12.209   9.219
 1616POPC   C1A23115  17.623  12.008   8.803
 1616POPC   D2A23116  17.710  12.265   8.440
 1616POPC   C3A23117  17.706  12.052   8.063
 1616POPC   C4A23118  17.631  12.192   7.678
 1616POPC   C1B23119  17.162  12.234   8.818
 1616POPC   C2B23120  17.220  12.019   8.439
 1616POPC   C3B23121  17.202  12.160   8.019
 1616POPC   C4B23122  17.236  11.870   7.729
 1617POPC   NC323123   2.052  19.253   9.328
 1617POPC   PO423124   1.824  18.656   9.402
 1617POPC   GL123125   2.084  18.827   9.041
 1617POPC   GL223126   2.268  19.129   8.892
 1617POPC   C1A23127   2.069  18.717   8.636
 1617POPC   D2A23128   1.754  18.695   8.375
 1617POPC   C3A23129   1.941  18.697   7.986
 1617POPC   C4A23130   2.211  18.954   7.759
 1617POPC   C1B23131   1.895  19.194   8.669
 1617POPC   C2B23132   1.849  19.187   8.279
 1617POPC   C3B23133   1.756  19.413   7.983
 1617POPC   C4B23134   1.817  19.408   7.583
 1618POPC   NC323135  32.447   8.902   9.499
 1618POPC   PO423136  31.872   9.465   9.527
 1618POPC   GL123137  32.085   9.153   9.242
 1618POPC   GL223138  32.433   9.227   9.110
 1618POPC   C1A23139  32.164   8.838   8.876
 1618POPC   D2A23140  32.400   8.911   8.495
 1618POPC   C3A23141  32.189   8.802   8.079
 1618POPC   C4A23142  32.337   8.932   7.675
 1618POPC   C1B23143  32.102   9.329   8.786
 1618POPC   C2B23144  31.951   9.129   8.442
 1618POPC   C3B23145  31.850   9.217   8.046
 1618POPC   C4B23146  31.838   8.969   7.683
 1619POPC   NC323147   9.344  12.380   9.573
 1619POPC   PO423148   9.092  11.760   9.479
 1619POPC   GL123149   9.245  12.031   9.149
 1619POPC   GL223150   9.181  12.409   9.096
 1619POPC   C1A23151   9.172  12.099   8.718
 1619POPC   D2A23152   8.942  12.099   8.406
 1619POPC   C3A23153   9.114  12.029   8.036
 1619POPC   C4A23154   9.102  11.814   7.686
 1619POPC   C1B23155   8.805  12.434   8.827
 1619POPC   C2B23156   8.661  12.529   8.422
 1619POPC   C3B23157   8.984  12.538   8.120
 1619POPC   C4B23158   8.850  12.360   7.765
 1620POPC   NC323159  41.068  42.926   9.445
 1620POPC   PO423160  40.402  43.236   9.531
 1620POPC   GL123161  40.599  43.055   9.173
 1620POPC   GL223162  40.848  43.349   9.232
 1620POPC   C1A23163  40.460  43.105   8.720
 1620POPC   D2A23164  40.466  43.380   8.363
 1620POPC   C3A23165  40.579  43.108   8.014
 1620POPC   C4A23166  40.876  42.809   7.835
 1620POPC   C1B23167  40.940  43.235   8.831
 1620POPC   C2B23168  40.900  43.073   8.438
 1620POPC   C3B23169  41.129  43.178   8.099
 1620POPC   C4B23170  40.967  43.301   7.705
 1621POPC   NC323171  32.753  10.450   9.516
 1621POPC   PO423172  33.286  10.802   9.258
 1621POPC   GL123173  32.921  10.714   9.029
 1621POPC   GL223174  32.940  10.403   9.024
 1621POPC   C1A23175  32.804  10.944   8.647
 1621POPC   D2A23176  32.825  10.867   8.222
 1621POPC   C3A23177  33.065  10.534   8.038
 1621POPC   C4A23178  33.230  10.693   7.618
 1621POPC   C1B23179  32.938  10.429   8.580
 1621POPC   C2B23180  32.606  10.412   8.302
 1621POPC   C3B23181  32.649  10.196   7.925
 1621POPC   C4B23182  32.932  10.295   7.604
 1622POPC   NC323183  12.139  44.240   9.448
 1622POPC   PO423184  12.153  43.556   9.509
 1622POPC   GL123185  12.199  43.804   9.188
 1622POPC   GL223186  11.857  43.899   9.213
 1622POPC   C1A23187  12.208  43.817   8.767
 1622POPC   D2A23188  11.978  43.675   8.453
 1622POPC   C3A23189  12.143  43.764   8.033
 1622POPC   C4A23190  12.179  44.000   7.639
 1622POPC   C1B23191  11.838  44.192   8.867
 1622POPC   C2B23192  11.936  44.183   8.431
 1622POPC   C3B23193  11.880  44.246   7.981
 1622POPC   C4B23194  11.755  44.307   7.520
 1623POPC   NC323195  36.432  44.561   9.657
 1623POPC   PO423196  35.783  44.460   9.540
 1623POPC   GL123197  36.035  44.612   9.204
 1623POPC   GL223198  36.073  44.996   9.257
 1623POPC   C1A23199  35.912  44.433   8.779
 1623POPC   D2A23200  36.040  44.309   8.359
 1623POPC   C3A23201  36.210  44.508   7.979
 1623POPC   C4A23202  36.212  44.359   7.545
 1623POPC   C1B23203  35.909  44.943   8.828
 1623POPC   C2B23204  36.161  44.854   8.454
 1623POPC   C3B23205  36.096  44.994   8.049
 1623POPC   C4B23206  36.178  44.969   7.603
 1624POPC   NC323207  22.132  42.322   9.584
 1624POPC   PO423208  22.581  42.800   9.603
 1624POPC   GL123209  22.318  42.582   9.200
 1624POPC   GL223210  22.400  42.240   9.148
 1624POPC   C1A23211  22.166  42.417   8.752
 1624POPC   D2A23212  22.284  42.208   8.341
 1624POPC   C3A23213  22.128  42.270   7.931
 1624POPC   C4A23214  22.280  42.572   7.638
 1624POPC   C1B23215  22.560  42.069   8.754
 1624POPC   C2B23216  22.497  41.756   8.414
 1624POPC   C3B23217  22.592  41.931   7.966
 1624POPC   C4B23218  22.482  42.123   7.559
 1625POPC   NC323219  38.867  28.837   9.501
 1625POPC   PO423220  38.418  29.342   9.559
 1625POPC   GL123221  38.542  29.121   9.210
 1625POPC   GL223222  38.903  29.244   9.205
 1625POPC   C1A23223  38.380  29.128   8.781
 1625POPC   D2A23224  38.071  29.202   8.439
 1625POPC   C3A23225  38.216  29.280   7.994
 1625POPC   C4A23226  38.065  28.984   7.653
 1625POPC   C1B23227  38.876  28.947   8.841
 1625POPC   C2B23228  38.760  29.110   8.444
 1625POPC   C3B23229  38.700  29.104   8.026
 1625POPC   C4B23230  38.748  28.701   7.785
 1626POPC   NC323231  31.937  41.243   9.310
 1626POPC   PO423232  31.802  40.606   9.520
 1626POPC   GL123233  32.046  40.757   9.177
 1626POPC   GL223234  32.233  40.445   9.092
 1626POPC   C1A23235  32.210  40.874   8.790
 1626POPC   D2A23236  32.157  40.673   8.389
 1626POPC   C3A23237  32.103  40.909   7.972
 1626POPC   C4A23238  32.353  40.945   7.617
 1626POPC   C1B23239  31.832  40.484   8.821
 1626POPC   C2B23240  31.670  40.548   8.401
 1626POPC   C3B23241  31.890  40.402   8.047
 1626POPC   C4B23242  32.096  40.487   7.698
 1627POPC   NC323243  39.853   2.556   9.560
 1627POPC   PO423244  40.337   2.986   9.335
 1627POPC   GL123245  39.978   2.915   9.164
 1627POPC   GL223246  40.060   2.583   9.093
 1627POPC   C1A23247  39.919   2.909   8.737
 1627POPC   D2A23248  39.937   2.709   8.383
 1627POPC   C3A23249  39.801   2.949   8.053
 1627POPC   C4A23250  39.876   2.790   7.682
 1627POPC   C1B23251  40.064   2.335   8.739
 1627POPC   C2B23252  39.965   2.191   8.345
 1627POPC   C3B23253  39.938   2.330   7.921
 1627POPC   C4B23254  40.185   2.410   7.526
 1628POPC   NC323255  17.305  35.176   9.452
 1628POPC   PO423256  17.204  35.847   9.489
 1628POPC   GL123257  17.331  35.588   9.154
 1628POPC   GL223258  17.617  35.777   9.110
 1628POPC   C1A23259  17.533  35.252   8.854
 1628POPC   D2A23260  17.479  35.027   8.456
 1628POPC   C3A23261  17.676  35.141   8.048
 1628POPC   C4A23262  17.520  35.148   7.621
 1628POPC   C1B23263  17.441  35.739   8.690
 1628POPC   C2B23264  17.308  35.570   8.295
 1628POPC   C3B23265  17.406  35.577   7.858
 1628POPC   C4B23266  17.513  35.649   7.410
 1629POPC   NC323267   1.434  36.725   9.466
 1629POPC   PO423268   0.927  37.184   9.646
 1629POPC   GL123269   1.149  37.195   9.279
 1629POPC   GL223270   0.973  36.889   9.164
 1629POPC   C1A23271   1.341  37.131   8.880
 1629POPC   D2A23272   1.121  36.904   8.552
 1629POPC   C3A23273   1.271  37.018   8.153
 1629POPC   C4A23274   1.280  36.917   7.751
 1629POPC   C1B23275   0.971  36.530   8.867
 1629POPC   C2B23276   0.848  36.448   8.434
 1629POPC   C3B23277   1.048  36.440   8.015
 1629POPC   C4B23278   0.865  36.538   7.659
 1630POPC   NC323279  44.497  38.747   9.434
 1630POPC   PO423280  44.856  38.189   9.624
 1630POPC   GL123281  44.950  38.424   9.259
 1630POPC   GL223282   0.020  38.785   9.290
 1630POPC   C1A23283  44.821  38.233   8.891
 1630POPC   D2A23284  44.707  38.393   8.505
 1630POPC   C3A23285  44.825  38.162   8.176
 1630POPC   C4A23286  44.581  38.273   7.882
 1630POPC   C1B23287  44.949  38.729   8.820
 1630POPC   C2B23288   0.124  38.659   8.377
 1630POPC   C3B23289  44.805  38.695   8.083
 1630POPC   C4B23290  44.358  38.650   8.155
 1631POPC   NC323291  34.336  36.220   9.534
 1631POPC   PO423292  34.292  35.594   9.368
 1631POPC   GL123293  34.483  35.875   9.065
 1631POPC   GL223294  34.477  36.238   9.067
 1631POPC   C1A23295  34.822  35.918   8.777
 1631POPC   D2A23296  34.894  36.112   8.339
 1631POPC   C3A23297  34.813  35.838   8.002
 1631POPC   C4A23298  34.572  35.679   7.669
 1631POPC   C1B23299  34.501  36.283   8.649
 1631POPC   C2B23300  34.268  36.357   8.305
 1631POPC   C3B23301  34.431  36.348   7.894
 1631POPC   C4B23302  34.540  36.176   7.532
 1632POPC   NC323303  32.652   9.707   9.519
 1632POPC   PO423304  33.163  10.177   9.491
 1632POPC   GL123305  32.963   9.921   9.191
 1632POPC   GL223306  32.625  10.041   9.155
 1632POPC   C1A23307  32.996   9.802   8.782
 1632POPC   D2A23308  33.304   9.904   8.500
 1632POPC   C3A23309  33.114  10.039   8.138
 1632POPC   C4A23310  33.251   9.928   7.747
 1632POPC   C1B23311  32.547  10.141   8.760
 1632POPC   C2B23312  32.650   9.914   8.397
 1632POPC   C3B23313  32.775   9.640   8.084
 1632POPC   C4B23314  32.780   9.770   7.680
 1633POPC   NC323315   7.738  19.336   9.864
 1633POPC   PO423316   8.176  18.911   9.507
 1633POPC   GL123317   8.245  19.223   9.166
 1633POPC   GL223318   8.077  18.965   9.015
 1633POPC   C1A23319   8.359  19.214   8.702
 1633POPC   D2A23320   8.499  19.086   8.297
 1633POPC   C3A23321   8.479  19.239   7.903
 1633POPC   C4A23322   8.157  19.451   7.701
 1633POPC   C1B23323   7.845  19.093   8.673
 1633POPC   C2B23324   7.981  19.223   8.281
 1633POPC   C3B23325   8.061  18.954   7.976
 1633POPC   C4B23326   8.107  18.940   7.586
 1634POPC   NC323327  34.405  37.976   9.426
 1634POPC   PO423328  34.539  37.288   9.550
 1634POPC   GL123329  34.575  37.543   9.198
 1634POPC   GL223330  34.215  37.548   9.155
 1634POPC   C1A23331  34.785  37.784   8.852
 1634POPC   D2A23332  34.758  37.623   8.432
 1634POPC   C3A23333  34.743  37.814   8.026
 1634POPC   C4A23334  34.602  37.913   7.573
 1634POPC   C1B23335  34.284  37.740   8.772
 1634POPC   C2B23336  34.303  37.864   8.349
 1634POPC   C3B23337  34.246  37.714   7.923
 1634POPC   C4B23338  34.368  37.477   7.543
 1635POPC   NC323339  23.977  10.997   9.511
 1635POPC   PO423340  23.654  11.575   9.551
 1635POPC   GL123341  23.535  11.405   9.148
 1635POPC   GL223342  23.798  11.190   9.082
 1635POPC   C1A23343  23.451  11.545   8.709
 1635POPC   D2A23344  23.510  11.451   8.254
 1635POPC   C3A23345  23.236  11.436   7.862
 1635POPC   C4A23346  23.353  11.608   7.390
 1635POPC   C1B23347  24.137  11.089   8.833
 1635POPC   C2B23348  24.238  11.237   8.450
 1635POPC   C3B23349  23.988  11.266   8.104
 1635POPC   C4B23350  24.121  11.301   7.694
 1636POPC   NC323351   4.313  11.851   9.896
 1636POPC   PO423352   4.080  12.408   9.688
 1636POPC   GL123353   4.243  12.256   9.253
 1636POPC   GL223354   4.567  12.386   9.159
 1636POPC   C1A23355   4.357  12.030   8.834
 1636POPC   D2A23356   4.208  12.066   8.396
 1636POPC   C3A23357   4.231  11.780   8.061
 1636POPC   C4A23358   4.190  11.841   7.602
 1636POPC   C1B23359   4.727  12.372   8.713
 1636POPC   C2B23360   4.541  12.479   8.298
 1636POPC   C3B23361   4.320  12.306   7.930
 1636POPC   C4B23362   4.481  12.272   7.498
 1637POPC   NC323363   4.688  10.177   9.750
 1637POPC   PO423364   4.366   9.658   9.626
 1637POPC   GL123365   4.475   9.788   9.222
 1637POPC   GL223366   4.754  10.005   9.242
 1637POPC   C1A23367   4.208   9.720   8.853
 1637POPC   D2A23368   4.166   9.443   8.518
 1637POPC   C3A23369   4.246   9.618   8.110
 1637POPC   C4A23370   4.264   9.854   7.690
 1637POPC   C1B23371   4.607  10.040   8.805
 1637POPC   C2B23372   4.335  10.011   8.454
 1637POPC   C3B23373   4.499  10.089   8.091
 1637POPC   C4B23374   4.764  10.012   7.764
 1638POPC   NC323375   4.060  28.475   9.633
 1638POPC   PO423376   4.612  28.769   9.641
 1638POPC   GL123377   4.455  28.492   9.267
 1638POPC   GL223378   4.238  28.180   9.242
 1638POPC   C1A23379   4.505  28.307   8.830
 1638POPC   D2A23380   4.307  28.342   8.415
 1638POPC   C3A23381   4.523  28.255   8.005
 1638POPC   C4A23382   4.372  28.044   7.630
 1638POPC   C1B23383   4.006  28.188   8.824
 1638POPC   C2B23384   3.878  28.051   8.410
 1638POPC   C3B23385   4.004  28.195   8.016
 1638POPC   C4B23386   3.880  28.209   7.634
 1639POPC   NC323387  33.228  13.943   9.733
 1639POPC   PO423388  33.138  14.620   9.668
 1639POPC   GL123389  33.162  14.482   9.209
 1639POPC   GL223390  33.078  14.099   9.241
 1639POPC   C1A23391  33.235  14.583   8.750
 1639POPC   D2A23392  33.007  14.410   8.357
 1639POPC   C3A23393  33.069  14.467   7.911
 1639POPC   C4A23394  33.250  14.814   7.685
 1639POPC   C1B23395  33.034  14.124   8.817
 1639POPC   C2B23396  33.378  14.105   8.522
 1639POPC   C3B23397  33.252  14.001   8.110
 1639POPC   C4B23398  32.835  13.962   7.899
 1640POPC   NC323399   5.834  31.302   9.461
 1640POPC   PO423400   5.935  30.622   9.638
 1640POPC   GL123401   5.851  30.753   9.205
 1640POPC   GL223402   5.593  31.001   9.145
 1640POPC   C1A23403   6.000  30.575   8.804
 1640POPC   D2A23404   5.840  30.649   8.405
 1640POPC   C3A23405   5.876  30.389   8.083
 1640POPC   C4A23406   5.838  30.488   7.675
 1640POPC   C1B23407   5.795  31.043   8.745
 1640POPC   C2B23408   5.745  31.155   8.331
 1640POPC   C3B23409   5.719  30.921   7.956
 1640POPC   C4B23410   5.671  31.010   7.501
 1641POPC   NC323411  24.583   2.473   9.415
 1641POPC   PO423412  24.132   3.028   9.391
 1641POPC   GL123413  24.333   2.793   9.085
 1641POPC   GL223414  24.143   2.465   9.110
 1641POPC   C1A23415  24.641   2.866   8.737
 1641POPC   D2A23416  24.815   3.142   8.404
 1641POPC   C3A23417  24.726   2.966   8.047
 1641POPC   C4A23418  24.384   2.925   7.761
 1641POPC   C1B23419  24.258   2.490   8.671
 1641POPC   C2B23420  24.325   2.744   8.301
 1641POPC   C3B23421  24.327   2.452   7.963
 1641POPC   C4B23422  23.985   2.313   7.689
 1642POPC   NC323423  13.272   2.472   9.459
 1642POPC   PO423424  12.827   3.011   9.473
 1642POPC   GL123425  12.921   2.707   9.155
 1642POPC   GL223426  12.627   2.556   8.995
 1642POPC   C1A23427  13.098   2.665   8.754
 1642POPC   D2A23428  13.248   2.741   8.352
 1642POPC   C3A23429  13.019   2.606   8.030
 1642POPC   C4A23430  12.796   2.723   7.678
 1642POPC   C1B23431  12.663   3.012   8.820
 1642POPC   C2B23432  12.501   3.143   8.419
 1642POPC   C3B23433  12.693   3.115   8.021
 1642POPC   C4B23434  12.808   3.388   7.699
 1643POPC   NC323435  24.485  18.704   9.551
 1643POPC   PO423436  24.260  19.332   9.622
 1643POPC   GL123437  24.253  19.110   9.205
 1643POPC   GL223438  24.575  19.079   9.142
 1643POPC   C1A23439  24.276  19.050   8.704
 1643POPC   D2A23440  24.578  19.057   8.293
 1643POPC   C3A23441  24.416  19.010   7.832
 1643POPC   C4A23442  24.442  18.988   7.355
 1643POPC   C1B23443  24.653  19.361   8.799
 1643POPC   C2B23444  24.534  19.557   8.398
 1643POPC   C3B23445  24.630  19.465   7.945
 1643POPC   C4B23446  24.503  19.484   7.502
 1644POPC   NC323447  12.513   9.865   9.564
 1644POPC   PO423448  12.897   9.244   9.590
 1644POPC   GL123449  12.763   9.541   9.246
 1644POPC   GL223450  12.938   9.850   9.156
 1644POPC   C1A23451  12.666   9.630   8.804
 1644POPC   D2A23452  12.412   9.772   8.468
 1644POPC   C3A23453  12.616   9.649   8.110
 1644POPC   C4A23454  12.788   9.747   7.706
 1644POPC   C1B23455  12.999  10.114   8.817
 1644POPC   C2B23456  13.185  10.106   8.436
 1644POPC   C3B23457  12.942  10.066   8.070
 1644POPC   C4B23458  13.149  10.140   7.661
 1645POPC   NC323459   2.082  20.197   9.453
 1645POPC   PO423460   2.037  20.869   9.605
 1645POPC   GL123461   2.148  20.655   9.224
 1645POPC   GL223462   1.812  20.549   9.193
 1645POPC   C1A23463   2.292  20.616   8.803
 1645POPC   D2A23464   2.145  20.524   8.397
 1645POPC   C3A23465   2.217  20.760   8.044
 1645POPC   C4A23466   1.906  20.987   7.820
 1645POPC   C1B23467   1.775  20.495   8.763
 1645POPC   C2B23468   1.710  20.261   8.343
 1645POPC   C3B23469   1.835  20.427   7.951
 1645POPC   C4B23470   1.886  20.250   7.571
 1646POPC   NC323471  14.965  34.717   9.451
 1646POPC   PO423472  14.335  34.779   9.624
 1646POPC   GL123473  14.311  34.727   9.189
 1646POPC   GL223474  14.616  34.919   9.136
 1646POPC   C1A23475  14.453  34.406   8.872
 1646POPC   D2A23476  14.632  34.221   8.485
 1646POPC   C3A23477  14.465  34.154   8.078
 1646POPC   C4A23478  14.647  34.183   7.672
 1646POPC   C1B23479  14.617  34.928   8.692
 1646POPC   C2B23480  14.301  34.880   8.402
 1646POPC   C3B23481  14.303  34.684   8.009
 1646POPC   C4B23482  14.524  34.686   7.593
 1647POPC   NC323483  38.093  16.616   9.550
 1647POPC   PO423484  37.490  16.777   9.706
 1647POPC   GL123485  37.661  16.761   9.299
 1647POPC   GL223486  37.680  16.442   9.213
 1647POPC   C1A23487  37.760  16.815   8.865
 1647POPC   D2A23488  37.991  16.878   8.514
 1647POPC   C3A23489  37.959  16.696   8.112
 1647POPC   C4A23490  37.813  16.441   7.798
 1647POPC   C1B23491  37.386  16.456   8.855
 1647POPC   C2B23492  37.561  16.594   8.452
 1647POPC   C3B23493  37.455  16.714   8.063
 1647POPC   C4B23494  37.297  16.562   7.688
 1648POPC   NC323495  35.554  35.876   9.448
 1648POPC   PO423496  34.865  36.142   9.431
 1648POPC   GL123497  35.193  36.098   9.134
 1648POPC   GL223498  35.250  35.776   9.025
 1648POPC   C1A23499  35.254  36.171   8.692
 1648POPC   D2A23500  35.185  36.568   8.447
 1648POPC   C3A23501  35.189  36.482   8.024
 1648POPC   C4A23502  35.495  36.350   7.728
 1648POPC   C1B23503  35.621  35.795   8.765
 1648POPC   C2B23504  35.637  35.916   8.359
 1648POPC   C3B23505  35.340  35.945   8.056
 1648POPC   C4B23506  35.561  35.857   7.701
 1649POPC   NC323507   7.878  21.693   9.332
 1649POPC   PO423508   7.231  21.577   9.579
 1649POPC   GL123509   7.184  21.659   9.142
 1649POPC   GL223510   7.481  21.467   9.096
 1649POPC   C1A23511   7.291  21.736   8.704
 1649POPC   D2A23512   7.619  21.708   8.398
 1649POPC   C3A23513   7.461  21.707   7.994
 1649POPC   C4A23514   7.680  21.724   7.625
 1649POPC   C1B23515   7.684  21.311   8.732
 1649POPC   C2B23516   7.692  21.176   8.292
 1649POPC   C3B23517   7.538  21.228   7.879
 1649POPC   C4B23518   7.221  20.987   7.698
 1650POPC   NC323519  25.756  27.181   9.525
 1650POPC   PO423520  26.275  27.645   9.488
 1650POPC   GL123521  26.294  27.565   9.082
 1650POPC   GL223522  25.958  27.715   9.088
 1650POPC   C1A23523  26.227  27.675   8.649
 1650POPC   D2A23524  26.055  27.449   8.300
 1650POPC   C3A23525  26.297  27.509   7.948
 1650POPC   C4A23526  26.276  27.635   7.558
 1650POPC   C1B23527  25.735  27.698   8.701
 1650POPC   C2B23528  25.723  27.902   8.348
 1650POPC   C3B23529  25.859  27.806   7.954
 1650POPC   C4B23530  25.804  27.791   7.519
 1651POPC   NC323531   2.842  24.334   9.648
 1651POPC   PO423532   2.283  24.654   9.493
 1651POPC   GL123533   2.588  24.489   9.194
 1651POPC   GL223534   2.948  24.440   9.181
 1651POPC   C1A23535   2.664  24.213   8.829
 1651POPC   D2A23536   2.482  24.241   8.435
 1651POPC   C3A23537   2.676  24.249   8.047
 1651POPC   C4A23538   2.525  24.322   7.624
 1651POPC   C1B23539   3.179  24.445   8.832
 1651POPC   C2B23540   3.029  24.316   8.457
 1651POPC   C3B23541   3.162  24.400   8.069
 1651POPC   C4B23542   3.055  24.270   7.659
 1652POPC   NC323543  23.445  13.702   9.487
 1652POPC   PO423544  24.017  13.291   9.358
 1652POPC   GL123545  23.658  13.531   9.043
 1652POPC   GL223546  23.515  13.885   9.037
 1652POPC   C1A23547  23.515  13.620   8.608
 1652POPC   D2A23548  23.476  13.688   8.154
 1652POPC   C3A23549  23.805  13.623   7.891
 1652POPC   C4A23550  23.873  13.596   7.459
 1652POPC   C1B23551  23.429  14.132   8.700
 1652POPC   C2B23552  23.557  14.239   8.300
 1652POPC   C3B23553  23.372  14.121   7.913
 1652POPC   C4B23554  23.474  13.886   7.579
 1653POPC   NC323555   8.617  19.197   9.532
 1653POPC   PO423556   9.139  18.881   9.283
 1653POPC   GL123557   8.851  19.126   9.065
 1653POPC   GL223558   8.602  18.876   9.133
 1653POPC   C1A23559   8.869  19.216   8.623
 1653POPC   D2A23560   9.109  19.026   8.301
 1653POPC   C3A23561   8.966  19.021   7.904
 1653POPC   C4A23562   9.048  19.142   7.523
 1653POPC   C1B23563   8.528  18.676   8.782
 1653POPC   C2B23564   8.747  18.674   8.424
 1653POPC   C3B23565   8.624  18.681   8.000
 1653POPC   C4B23566   8.606  18.820   7.584
 1654POPC   NC323567  14.547  32.680   9.654
 1654POPC   PO423568  13.973  33.011   9.789
 1654POPC   GL123569  14.232  33.134   9.373
 1654POPC   GL223570  14.321  32.839   9.218
 1654POPC   C1A23571  14.253  33.243   8.892
 1654POPC   D2A23572  14.241  33.394   8.434
 1654POPC   C3A23573  14.359  33.120   8.095
 1654POPC   C4A23574  14.446  33.139   7.676
 1654POPC   C1B23575  14.615  32.845   8.884
 1654POPC   C2B23576  14.571  32.687   8.472
 1654POPC   C3B23577  14.699  32.747   8.066
 1654POPC   C4B23578  14.531  32.620   7.688
 1655POPC   NC323579   0.836   9.215   9.462
 1655POPC   PO423580   0.458   8.704   9.688
 1655POPC   GL123581   0.530   8.746   9.238
 1655POPC   GL223582   0.519   9.065   9.094
 1655POPC   C1A23583   0.479   8.681   8.774
 1655POPC   D2A23584   0.685   8.478   8.427
 1655POPC   C3A23585   0.778   8.832   8.187
 1655POPC   C4A23586   0.527   8.935   7.844
 1655POPC   C1B23587   0.706   9.261   8.748
 1655POPC   C2B23588   0.752   9.399   8.319
 1655POPC   C3B23589   0.830   9.622   7.959
 1655POPC   C4B23590   0.822   9.304   7.682
 1656POPC   NC323591  32.018  26.751   9.696
 1656POPC   PO423592  32.289  27.369   9.677
 1656POPC   GL123593  32.310  27.022   9.351
 1656POPC   GL223594  32.069  27.150   9.170
 1656POPC   C1A23595  32.208  26.696   8.980
 1656POPC   D2A23596  32.044  26.733   8.546
 1656POPC   C3A23597  32.257  26.689   8.162
 1656POPC   C4A23598  32.297  26.531   7.741
 1656POPC   C1B23599  32.230  27.167   8.749
 1656POPC   C2B23600  32.121  27.169   8.275
 1656POPC   C3B23601  32.179  27.044   7.817
 1656POPC   C4B23602  32.474  26.998   7.519
 1657POPC   NC323603   2.789  10.068   9.990
 1657POPC   PO423604   2.712   9.480   9.546
 1657POPC   GL123605   2.696   9.676   9.142
 1657POPC   GL223606   2.974   9.516   9.054
 1657POPC   C1A23607   2.733   9.969   8.811
 1657POPC   D2A23608   2.868  10.255   8.483
 1657POPC   C3A23609   2.911  10.024   8.105
 1657POPC   C4A23610   2.742   9.764   7.792
 1657POPC   C1B23611   2.971   9.534   8.654
 1657POPC   C2B23612   2.892   9.507   8.242
 1657POPC   C3B23613   3.145   9.496   7.894
 1657POPC   C4B23614   3.088   9.227   7.523
 1658POPC   NC323615  23.479  38.640   9.484
 1658POPC   PO423616  24.053  38.241   9.582
 1658POPC   GL123617  23.860  38.409   9.196
 1658POPC   GL223618  23.604  38.139   9.202
 1658POPC   C1A23619  23.912  38.651   8.766
 1658POPC   D2A23620  23.985  38.475   8.317
 1658POPC   C3A23621  23.886  38.691   7.914
 1658POPC   C4A23622  23.430  38.776   7.828
 1658POPC   C1B23623  23.678  38.206   8.761
 1658POPC   C2B23624  23.487  38.354   8.377
 1658POPC   C3B23625  23.631  38.267   7.970
 1658POPC   C4B23626  23.706  38.064   7.561
 1659POPC   NC323627   1.016  22.650   9.549
 1659POPC   PO423628   1.258  22.107   9.514
 1659POPC   GL123629   1.336  22.419   9.214
 1659POPC   GL223630   1.019  22.340   9.084
 1659POPC   C1A23631   1.425  22.432   8.802
 1659POPC   D2A23632   1.372  22.101   8.525
 1659POPC   C3A23633   1.227  22.259   8.158
 1659POPC   C4A23634   1.226  22.137   7.743
 1659POPC   C1B23635   0.941  21.943   8.876
 1659POPC   C2B23636   0.977  21.674   8.517
 1659POPC   C3B23637   1.054  21.758   8.093
 1659POPC   C4B23638   0.823  21.853   7.703
 1660POPC   NC323639  39.688   4.975   9.430
 1660POPC   PO423640  40.256   5.299   9.700
 1660POPC   GL123641  40.160   5.173   9.234
 1660POPC   GL223642  40.138   4.798   9.203
 1660POPC   C1A23643  39.888   5.145   8.827
 1660POPC   D2A23644  40.062   5.104   8.431
 1660POPC   C3A23645  39.792   5.112   8.120
 1660POPC   C4A23646  39.918   5.197   7.722
 1660POPC   C1B23647  40.336   4.886   8.807
 1660POPC   C2B23648  40.479   4.803   8.404
 1660POPC   C3B23649  40.236   4.796   8.043
 1660POPC   C4B23650  40.267   4.839   7.586
 1661POPC   NC323651  31.504  16.604   9.643
 1661POPC   PO423652  31.006  16.948   9.971
 1661POPC   GL123653  31.162  16.907   9.440
 1661POPC   GL223654  31.486  16.811   9.180
 1661POPC   C1A23655  31.063  16.759   8.966
 1661POPC   D2A23656  31.313  16.694   8.597
 1661POPC   C3A23657  31.198  16.554   8.175
 1661POPC   C4A23658  31.303  16.703   7.768
 1661POPC   C1B23659  31.767  16.655   8.843
 1661POPC   C2B23660  31.791  16.856   8.429
 1661POPC   C3B23661  31.852  16.770   8.000
 1661POPC   C4B23662  31.728  16.967   7.660
 1662POPC   NC323663  32.623  34.036   9.999
 1662POPC   PO423664  32.137  33.753   9.621
 1662POPC   GL123665  32.339  33.743   9.219
 1662POPC   GL223666  32.159  33.436   9.190
 1662POPC   C1A23667  32.327  33.654   8.761
 1662POPC   D2A23668  32.115  33.775   8.428
 1662POPC   C3A23669  32.325  33.631   8.095
 1662POPC   C4A23670  32.447  33.935   7.815
 1662POPC   C1B23671  31.937  33.348   8.852
 1662POPC   C2B23672  32.011  33.288   8.436
 1662POPC   C3B23673  31.844  33.461   8.072
 1662POPC   C4B23674  31.959  33.760   7.761
 1663POPC   NC323675   2.470   9.026   9.584
 1663POPC   PO423676   2.985   8.563   9.497
 1663POPC   GL123677   2.913   8.986   9.261
 1663POPC   GL223678   2.604   9.165   9.139
 1663POPC   C1A23679   2.942   9.021   8.809
 1663POPC   D2A23680   2.774   8.890   8.412
 1663POPC   C3A23681   2.934   8.998   8.009
 1663POPC   C4A23682   2.877   8.777   7.624
 1663POPC   C1B23683   2.515   9.321   8.760
 1663POPC   C2B23684   2.260   9.258   8.429
 1663POPC   C3B23685   2.437   9.348   8.075
 1663POPC   C4B23686   2.563   9.181   7.720
 1664POPC   NC323687  40.333   3.432   9.505
 1664POPC   PO423688  39.592   3.501   9.553
 1664POPC   GL123689  39.923   3.493   9.216
 1664POPC   GL223690  40.155   3.803   9.198
 1664POPC   C1A23691  40.145   3.370   8.838
 1664POPC   D2A23692  39.954   3.312   8.416
 1664POPC   C3A23693  39.849   3.493   8.010
 1664POPC   C4A23694  39.772   3.302   7.613
 1664POPC   C1B23695  39.944   3.821   8.809
 1664POPC   C2B23696  40.115   3.836   8.369
 1664POPC   C3B23697  40.252   3.798   7.936
 1664POPC   C4B23698  39.936   3.872   7.624
 1665POPC   NC323699  35.953  11.009   9.492
 1665POPC   PO423700  35.982  11.657   9.395
 1665POPC   GL123701  36.147  11.365   9.114
 1665POPC   GL223702  36.336  11.031   9.134
 1665POPC   C1A23703  36.047  11.461   8.723
 1665POPC   D2A23704  35.968  11.199   8.422
 1665POPC   C3A23705  36.090  11.343   8.042
 1665POPC   C4A23706  36.200  11.465   7.652
 1665POPC   C1B23707  36.423  11.107   8.687
 1665POPC   C2B23708  36.514  11.152   8.238
 1665POPC   C3B23709  36.422  10.904   7.857
 1665POPC   C4B23710  36.361  11.063   7.388
 1666POPC   NC323711   7.206  13.870   9.644
 1666POPC   PO423712   7.458  13.273   9.565
 1666POPC   GL123713   7.248  13.489   9.265
 1666POPC   GL223714   7.562  13.545   9.105
 1666POPC   C1A23715   7.037  13.533   8.856
 1666POPC   D2A23716   7.208  13.559   8.435
 1666POPC   C3A23717   7.117  13.328   8.085
 1666POPC   C4A23718   7.115  13.548   7.738
 1666POPC   C1B23719   7.678  13.443   8.662
 1666POPC   C2B23720   7.588  13.241   8.254
 1666POPC   C3B23721   7.583  13.307   7.795
 1666POPC   C4B23722   7.671  13.288   7.336
 1667POPC   NC323723  11.996  39.537   9.528
 1667POPC   PO423724  12.418  39.013   9.554
 1667POPC   GL123725  12.352  39.294   9.212
 1667POPC   GL223726  12.031  39.146   9.173
 1667POPC   C1A23727  12.330  39.319   8.755
 1667POPC   D2A23728  12.152  39.039   8.438
 1667POPC   C3A23729  12.331  39.064   8.015
 1667POPC   C4A23730  12.324  39.396   7.718
 1667POPC   C1B23731  11.806  39.392   8.879
 1667POPC   C2B23732  11.731  39.474   8.445
 1667POPC   C3B23733  11.870  39.286   8.070
 1667POPC   C4B23734  11.815  39.405   7.690
 1668POPC   NC323735  24.234   3.350   9.695
 1668POPC   PO423736  24.701   3.778   9.477
 1668POPC   GL123737  24.449   3.461   9.238
 1668POPC   GL223738  24.064   3.514   9.230
 1668POPC   C1A23739  24.636   3.388   8.839
 1668POPC   D2A23740  24.633   3.717   8.535
 1668POPC   C3A23741  24.642   3.560   8.140
 1668POPC   C4A23742  24.471   3.593   7.752
 1668POPC   C1B23743  24.130   3.401   8.813
 1668POPC   C2B23744  24.322   3.242   8.457
 1668POPC   C3B23745  24.206   3.288   8.056
 1668POPC   C4B23746  23.972   3.368   7.686
 1669POPC   NC323747  28.857  36.103   9.451
 1669POPC   PO423748  29.465  36.400   9.555
 1669POPC   GL123749  29.302  36.145   9.211
 1669POPC   GL223750  29.031  36.329   9.042
 1669POPC   C1A23751  29.162  35.912   8.830
 1669POPC   D2A23752  29.353  35.897   8.434
 1669POPC   C3A23753  29.147  36.074   8.103
 1669POPC   C4A23754  29.219  35.920   7.709
 1669POPC   C1B23755  28.848  36.485   8.696
 1669POPC   C2B23756  28.655  36.380   8.335
 1669POPC   C3B23757  28.683  36.568   7.952
 1669POPC   C4B23758  28.962  36.371   7.735
 1670POPC   NC323759  14.581  38.666   9.849
 1670POPC   PO423760  14.166  38.240   9.552
 1670POPC   GL123761  14.407  38.584   9.321
 1670POPC   GL223762  14.768  38.497   9.295
 1670POPC   C1A23763  14.528  38.739   8.897
 1670POPC   D2A23764  14.825  38.582   8.571
 1670POPC   C3A23765  14.670  38.540   8.161
 1670POPC   C4A23766  14.473  38.753   7.807
 1670POPC   C1B23767  14.612  38.249   8.931
 1670POPC   C2B23768  14.573  38.095   8.517
 1670POPC   C3B23769  14.653  38.016   8.098
 1670POPC   C4B23770  14.467  38.233   7.747
 1671POPC   NC323771  12.380   4.998   9.319
 1671POPC   PO423772  13.053   4.916   9.516
 1671POPC   GL123773  12.905   4.897   9.121
 1671POPC   GL223774  12.803   5.226   9.114
 1671POPC   C1A23775  12.983   5.029   8.681
 1671POPC   D2A23776  12.691   5.028   8.303
 1671POPC   C3A23777  12.905   4.941   7.891
 1671POPC   C4A23778  13.283   4.728   7.782
 1671POPC   C1B23779  12.532   5.272   8.751
 1671POPC   C2B23780  12.514   5.535   8.417
 1671POPC   C3B23781  12.431   5.611   8.025
 1671POPC   C4B23782  12.479   5.242   7.820
 1672POPC   NC323783  26.204   0.494   9.472
 1672POPC   PO423784  25.564   0.643   9.731
 1672POPC   GL123785  25.802   0.237   9.361
 1672POPC   GL223786  25.971   0.361   9.044
 1672POPC   C1A23787  25.730  44.925   8.984
 1672POPC   D2A23788  25.753   0.023   8.531
 1672POPC   C3A23789  25.785  44.911   8.087
 1672POPC   C4A23790  25.889   0.171   7.733
 1672POPC   C1B23791  26.208   0.076   8.756
 1672POPC   C2B23792  26.229   0.252   8.331
 1672POPC   C3B23793  26.245   0.488   7.917
 1672POPC   C4B23794  26.140   0.552   7.445
 1673POPC   NC323795  13.824  20.481   9.454
 1673POPC   PO423796  13.473  21.040   9.450
 1673POPC   GL123797  13.529  20.841   9.039
 1673POPC   GL223798  13.866  20.695   8.997
 1673POPC   C1A23799  13.670  20.886   8.582
 1673POPC   D2A23800  13.652  20.533   8.308
 1673POPC   C3A23801  13.717  20.652   7.940
 1673POPC   C4A23802  13.507  20.792   7.623
 1673POPC   C1B23803  14.092  20.572   8.591
 1673POPC   C2B23804  14.074  20.233   8.272
 1673POPC   C3B23805  13.921  20.182   7.842
 1673POPC   C4B23806  13.663  20.265   7.457
 1674POPC   NC323807  20.721  17.087   9.442
 1674POPC   PO423808  21.228  16.673   9.693
 1674POPC   GL123809  21.413  16.730   9.288
 1674POPC   GL223810  21.213  17.000   9.202
 1674POPC   C1A23811  21.496  16.712   8.827
 1674POPC   D2A23812  21.428  16.482   8.427
 1674POPC   C3A23813  21.386  16.653   8.041
 1674POPC   C4A23814  21.435  16.571   7.629
 1674POPC   C1B23815  21.032  16.980   8.826
 1674POPC   C2B23816  21.121  16.920   8.388
 1674POPC   C3B23817  21.034  17.010   7.910
 1674POPC   C4B23818  21.132  16.948   7.448
 1675POPC   NC323819   8.681   4.881   9.563
 1675POPC   PO423820   7.997   5.026   9.496
 1675POPC   GL123821   8.308   5.067   9.185
 1675POPC   GL223822   8.527   5.354   9.183
 1675POPC   C1A23823   8.309   4.980   8.755
 1675POPC   D2A23824   8.060   5.059   8.411
 1675POPC   C3A23825   8.189   5.004   8.026
 1675POPC   C4A23826   8.176   5.261   7.680
 1675POPC   C1B23827   8.646   5.339   8.735
 1675POPC   C2B23828   8.615   5.164   8.285
 1675POPC   C3B23829   8.653   5.125   7.814
 1675POPC   C4B23830   8.477   4.998   7.368
 1676POPC   NC323831  10.084   4.954   9.340
 1676POPC   PO423832   9.562   5.354   9.442
 1676POPC   GL123833   9.810   5.314   9.100
 1676POPC   GL223834   9.662   4.966   9.059
 1676POPC   C1A23835  10.036   5.147   8.712
 1676POPC   D2A23836   9.954   4.830   8.376
 1676POPC   C3A23837   9.998   5.052   7.992
 1676POPC   C4A23838   9.873   5.062   7.546
 1676POPC   C1B23839   9.533   5.197   8.698
 1676POPC   C2B23840   9.649   5.270   8.290
 1676POPC   C3B23841   9.552   5.309   7.862
 1676POPC   C4B23842   9.507   5.365   7.392
 1677POPC   NC323843  36.090  38.803   9.568
 1677POPC   PO423844  35.825  38.276   9.556
 1677POPC   GL123845  36.077  38.146   9.213
 1677POPC   GL223846  36.113  38.506   9.145
 1677POPC   C1A23847  36.181  38.188   8.766
 1677POPC   D2A23848  36.390  38.132   8.403
 1677POPC   C3A23849  36.130  38.211   8.084
 1677POPC   C4A23850  36.283  38.411   7.761
 1677POPC   C1B23851  35.890  38.629   8.759
 1677POPC   C2B23852  36.085  38.620   8.384
 1677POPC   C3B23853  35.980  38.736   7.972
 1677POPC   C4B23854  35.927  38.766   7.499
 1678POPC   NC323855  16.779   5.730   9.478
 1678POPC   PO423856  16.858   6.358   9.507
 1678POPC   GL123857  16.581   6.063   9.135
 1678POPC   GL223858  16.766   5.767   8.969
 1678POPC   C1A23859  16.458   5.968   8.646
 1678POPC   D2A23860  16.606   6.225   8.310
 1678POPC   C3A23861  16.692   6.112   7.902
 1678POPC   C4A23862  16.569   5.798   7.633
 1678POPC   C1B23863  16.788   5.544   8.565
 1678POPC   C2B23864  16.827   5.687   8.158
 1678POPC   C3B23865  17.025   5.654   7.766
 1678POPC   C4B23866  17.153   5.706   7.315
 1679POPC   NC323867  44.912  25.108   9.507
 1679POPC   PO423868  44.309  24.792   9.439
 1679POPC   GL123869  44.539  25.101   9.151
 1679POPC   GL223870  44.476  25.451   9.171
 1679POPC   C1A23871  44.703  25.163   8.720
 1679POPC   D2A23872  44.472  25.098   8.335
 1679POPC   C3A23873  44.733  25.169   7.988
 1679POPC   C4A23874  44.887  25.022   7.604
 1679POPC   C1B23875  44.230  25.361   8.770
 1679POPC   C2B23876  44.046  25.388   8.334
 1679POPC   C3B23877  44.281  25.480   7.940
 1679POPC   C4B23878  44.565  25.422   7.577
 1680POPC   NC323879  29.648  28.916   9.549
 1680POPC   PO423880  29.748  29.486   9.500
 1680POPC   GL123881  29.872  29.133   9.123
 1680POPC   GL223882  30.250  29.005   9.070
 1680POPC   C1A23883  29.729  29.034   8.652
 1680POPC   D2A23884  29.882  29.267   8.257
 1680POPC   C3A23885  30.082  29.153   7.856
 1680POPC   C4A23886  29.959  29.374   7.451
 1680POPC   C1B23887  30.173  28.781   8.687
 1680POPC   C2B23888  29.920  28.707   8.281
 1680POPC   C3B23889  29.763  28.766   7.836
 1680POPC   C4B23890  29.991  28.874   7.411
 1681POPC   NC323891  23.896  18.114   9.521
 1681POPC   PO423892  23.672  18.634   9.213
 1681POPC   GL123893  23.760  18.230   9.047
 1681POPC   GL223894  23.459  18.071   8.988
 1681POPC   C1A23895  23.980  18.069   8.718
 1681POPC   D2A23896  24.183  18.197   8.325
 1681POPC   C3A23897  23.972  18.131   7.957
 1681POPC   C4A23898  24.080  18.123   7.504
 1681POPC   C1B23899  23.465  18.374   8.619
 1681POPC   C2B23900  23.678  18.600   8.277
 1681POPC   C3B23901  23.680  18.534   7.847
 1681POPC   C4B23902  23.528  18.153   7.653
 1682POPC   NC323903   6.561  20.433   9.404
 1682POPC   PO423904   6.814  21.063   9.584
 1682POPC   GL123905   6.611  20.875   9.170
 1682POPC   GL223906   6.893  20.637   9.079
 1682POPC   C1A23907   6.369  20.712   8.809
 1682POPC   D2A23908   6.232  20.728   8.379
 1682POPC   C3A23909   6.406  20.470   8.036
 1682POPC   C4A23910   6.384  20.425   7.569
 1682POPC   C1B23911   6.792  20.470   8.656
 1682POPC   C2B23912   6.768  20.731   8.282
 1682POPC   C3B23913   6.792  20.738   7.827
 1682POPC   C4B23914   6.846  20.604   7.395
 1683POPC   NC323915  40.452   4.425   9.512
 1683POPC   PO423916  39.771   4.474   9.410
 1683POPC   GL123917  39.735   4.281   9.012
 1683POPC   GL223918  40.110   4.313   8.961
 1683POPC   C1A23919  39.789   4.213   8.560
 1683POPC   D2A23920  40.202   4.351   8.391
 1683POPC   C3A23921  40.115   4.293   7.982
 1683POPC   C4A23922  39.669   4.211   7.860
 1683POPC   C1B23923  39.911   4.661   8.695
 1683POPC   C2B23924  39.770   4.621   8.250
 1683POPC   C3B23925  39.815   4.704   7.798
 1683POPC   C4B23926  39.813   4.835   7.340
 1684POPC   NC323927  19.544  37.803   9.425
 1684POPC   PO423928  19.609  38.494   9.425
 1684POPC   GL123929  19.757  38.533   9.067
 1684POPC   GL223930  19.952  38.197   9.010
 1684POPC   C1A23931  19.681  38.555   8.645
 1684POPC   D2A23932  19.757  38.153   8.469
 1684POPC   C3A23933  19.907  38.210   8.070
 1684POPC   C4A23934  19.825  38.444   7.683
 1684POPC   C1B23935  20.168  38.533   8.780
 1684POPC   C2B23936  20.300  38.717   8.398
 1684POPC   C3B23937  20.232  38.605   7.986
 1684POPC   C4B23938  20.293  38.258   7.718
 1685POPC   NC323939  39.785  43.554   9.980
 1685POPC   PO423940  40.168  43.891   9.537
 1685POPC   GL123941  40.130  43.802   9.127
 1685POPC   GL223942  39.781  43.697   9.047
 1685POPC   C1A23943  40.317  43.923   8.778
 1685POPC   D2A23944  40.413  44.098   8.443
 1685POPC   C3A23945  40.308  43.859   8.092
 1685POPC   C4A23946  40.081  43.847   7.706
 1685POPC   C1B23947  39.828  44.100   8.834
 1685POPC   C2B23948  39.920  44.023   8.421
 1685POPC   C3B23949  39.744  44.007   8.036
 1685POPC   C4B23950  39.611  43.602   7.910
 1686POPC   NC323951  27.140  19.071   9.604
 1686POPC   PO423952  26.488  18.930   9.679
 1686POPC   GL123953  26.675  18.867   9.256
 1686POPC   GL223954  27.039  18.817   9.197
 1686POPC   C1A23955  26.629  19.064   8.855
 1686POPC   D2A23956  26.570  19.262   8.471
 1686POPC   C3A23957  26.625  19.030   8.096
 1686POPC   C4A23958  26.707  19.315   7.781
 1686POPC   C1B23959  27.147  19.040   8.857
 1686POPC   C2B23960  26.979  18.902   8.453
 1686POPC   C3B23961  27.115  18.870   8.021
 1686POPC   C4B23962  27.207  19.224   7.785
 1687POPC   NC323963  30.056   9.408   9.401
 1687POPC   PO423964  30.117   8.736   9.519
 1687POPC   GL123965  29.970   8.920   9.160
 1687POPC   GL223966  29.626   9.078   9.188
 1687POPC   C1A23967  29.833   8.914   8.746
 1687POPC   D2A23968  29.821   9.024   8.335
 1687POPC   C3A23969  29.932   8.736   8.044
 1687POPC   C4A23970  29.700   8.712   7.708
 1687POPC   C1B23971  29.448   9.261   8.755
 1687POPC   C2B23972  29.390   9.269   8.302
 1687POPC   C3B23973  29.593   9.197   7.886
 1687POPC   C4B23974  29.501   9.099   7.440
 1688POPC   NC323975  40.778   7.190   9.554
 1688POPC   PO423976  40.520   7.708   9.452
 1688POPC   GL123977  40.869   7.558   9.147
 1688POPC   GL223978  41.137   7.293   9.161
 1688POPC   C1A23979  40.815   7.547   8.691
 1688POPC   D2A23980  40.737   7.702   8.253
 1688POPC   C3A23981  40.677   7.476   7.835
 1688POPC   C4A23982  40.628   7.773   7.448
 1688POPC   C1B23983  41.112   7.148   8.724
 1688POPC   C2B23984  40.954   7.205   8.311
 1688POPC   C3B23985  40.965   7.026   7.920
 1688POPC   C4B23986  40.955   7.058   7.478
 1689POPC   NC323987  37.590   3.642   9.536
 1689POPC   PO423988  37.858   3.012   9.558
 1689POPC   GL123989  37.661   3.273   9.186
 1689POPC   GL223990  37.838   3.560   9.100
 1689POPC   C1A23991  37.464   3.436   8.780
 1689POPC   D2A23992  37.353   3.204   8.422
 1689POPC   C3A23993  37.373   3.419   8.004
 1689POPC   C4A23994  37.580   3.551   7.636
 1689POPC   C1B23995  37.980   3.464   8.708
 1689POPC   C2B23996  37.775   3.493   8.337
 1689POPC   C3B23997  37.937   3.398   7.948
 1689POPC   C4B23998  38.055   3.760   7.695
 1690POPC   NC323999  20.736   1.504   9.517
 1690POPC   PO424000  20.470   0.894   9.542
 1690POPC   GL124001  20.653   1.053   9.196
 1690POPC   GL224002  20.388   1.312   9.167
 1690POPC   C1A24003  20.848   0.867   8.830
 1690POPC   D2A24004  20.907   1.118   8.474
 1690POPC   C3A24005  20.794   1.091   8.062
 1690POPC   C4A24006  20.880   1.511   7.941
 1690POPC   C1B24007  20.439   1.203   8.740
 1690POPC   C2B24008  20.472   1.384   8.334
 1690POPC   C3B24009  20.382   1.405   7.884
 1690POPC   C4B24010  20.278   1.266   7.447
 1691POPC   NC324011  40.333  38.266   9.185
 1691POPC   PO424012  40.118  38.781   9.568
 1691POPC   GL124013  39.961  38.630   9.177
 1691POPC   GL224014  39.652  38.446   9.162
 1691POPC   C1A24015  40.007  38.646   8.725
 1691POPC   D2A24016  39.856  38.499   8.327
 1691POPC   C3A24017  39.945  38.654   7.937
 1691POPC   C4A24018  40.334  38.628   7.729
 1691POPC   C1B24019  39.761  38.159   8.804
 1691POPC   C2B24020  39.616  38.053   8.380
 1691POPC   C3B24021  39.807  38.097   7.966
 1691POPC   C4B24022  39.823  38.311   7.578
 1692POPC   NC324023   4.199  34.259   9.508
 1692POPC   PO424024   4.387  34.912   9.601
 1692POPC   GL124025   4.212  34.671   9.198
 1692POPC   GL224026   4.410  34.367   9.063
 1692POPC   C1A24027   4.038  34.571   8.752
 1692POPC   D2A24028   4.180  34.804   8.369
 1692POPC   C3A24029   4.066  34.823   7.914
 1692POPC   C4A24030   4.223  34.823   7.457
 1692POPC   C1B24031   4.550  34.512   8.650
 1692POPC   C2B24032   4.378  34.367   8.241
 1692POPC   C3B24033   4.445  34.510   7.838
 1692POPC   C4B24034   4.588  34.473   7.396
 1693POPC   NC324035   2.461  17.167   9.434
 1693POPC   PO424036   2.880  17.662   9.599
 1693POPC   GL124037   2.754  17.553   9.188
 1693POPC   GL224038   2.962  17.267   9.174
 1693POPC   C1A24039   2.951  17.699   8.787
 1693POPC   D2A24040   3.143  17.825   8.380
 1693POPC   C3A24041   2.887  17.798   8.023
 1693POPC   C4A24042   2.835  17.507   7.710
 1693POPC   C1B24043   2.755  17.209   8.771
 1693POPC   C2B24044   2.678  17.470   8.388
 1693POPC   C3B24045   2.429  17.464   8.002
 1693POPC   C4B24046   2.545  17.085   7.777
 1694POPC   NC324047  20.902  41.791   9.467
 1694POPC   PO424048  20.404  41.328   9.387
 1694POPC   GL124049  20.613  41.587   9.111
 1694POPC   GL224050  20.930  41.371   9.154
 1694POPC   C1A24051  20.545  41.761   8.699
 1694POPC   D2A24052  20.312  41.698   8.331
 1694POPC   C3A24053  20.555  41.791   7.995
 1694POPC   C4A24054  20.472  41.699   7.598
 1694POPC   C1B24055  20.748  41.273   8.745
 1694POPC   C2B24056  20.776  41.398   8.297
 1694POPC   C3B24057  20.713  41.328   7.844
 1694POPC   C4B24058  20.920  41.452   7.443
 1695POPC   NC324059  12.268  38.565   9.494
 1695POPC   PO424060  11.721  38.410   9.165
 1695POPC   GL124061  12.182  38.338   9.038
 1695POPC   GL224062  12.427  38.121   9.234
 1695POPC   C1A24063  12.384  38.504   8.662
 1695POPC   D2A24064  12.296  38.574   8.213
 1695POPC   C3A24065  11.888  38.660   7.980
 1695POPC   C4A24066  11.829  38.571   7.522
 1695POPC   C1B24067  12.594  38.050   8.805
 1695POPC   C2B24068  12.410  38.045   8.379
 1695POPC   C3B24069  12.336  38.139   7.924
 1695POPC   C4B24070  12.310  38.102   7.438
 1696POPC   NC324071  29.539  10.012   9.435
 1696POPC   PO424072  30.202   9.839   9.538
 1696POPC   GL124073  30.036   9.853   9.093
 1696POPC   GL224074  29.672   9.887   8.919
 1696POPC   C1A24075  30.113   9.680   8.663
 1696POPC   D2A24076  29.806   9.555   8.344
 1696POPC   C3A24077  29.904   9.640   7.911
 1696POPC   C4A24078  30.239   9.523   7.621
 1696POPC   C1B24079  29.869  10.147   8.692
 1696POPC   C2B24080  29.980  10.037   8.298
 1696POPC   C3B24081  29.751  10.141   7.959
 1696POPC   C4B24082  29.586   9.971   7.600
 1697POPC   NC324083  18.746  31.699   9.600
 1697POPC   PO424084  18.280  31.209   9.600
 1697POPC   GL124085  18.166  31.503   9.264
 1697POPC   GL224086  18.488  31.467   9.180
 1697POPC   C1A24087  18.097  31.408   8.814
 1697POPC   D2A24088  18.052  31.178   8.439
 1697POPC   C3A24089  18.170  31.350   8.054
 1697POPC   C4A24090  17.976  31.299   7.673
 1697POPC   C1B24091  18.601  31.651   8.813
 1697POPC   C2B24092  18.510  31.531   8.423
 1697POPC   C3B24093  18.579  31.665   8.001
 1697POPC   C4B24094  18.406  31.563   7.593
 1698POPC   NC324095  15.074  13.316   9.502
 1698POPC   PO424096  15.327  12.709   9.363
 1698POPC   GL124097  15.199  12.784   9.005
 1698POPC   GL224098  15.041  13.074   9.050
 1698POPC   C1A24099  15.203  12.810   8.591
 1698POPC   D2A24100  15.141  12.538   8.316
 1698POPC   C3A24101  15.220  12.684   7.939
 1698POPC   C4A24102  15.063  12.752   7.562
 1698POPC   C1B24103  14.767  13.017   8.707
 1698POPC   C2B24104  14.834  12.983   8.257
 1698POPC   C3B24105  14.863  13.115   7.857
 1698POPC   C4B24106  15.012  13.424   7.588
 1699POPC   NC324107  43.478   0.472   9.367
 1699POPC   PO424108  44.080   0.711   9.215
 1699POPC   GL124109  44.007   0.518   8.861
 1699POPC   GL224110  43.817   0.278   9.029
 1699POPC   C1A24111  44.182   0.172   8.616
 1699POPC   D2A24112  44.280   0.158   8.178
 1699POPC   C3A24113  43.998   0.461   8.032
 1699POPC   C4A24114  43.630   0.482   7.795
 1699POPC   C1B24115  43.587   0.282   8.642
 1699POPC   C2B24116  43.639   0.100   8.233
 1699POPC   C3B24117  43.848   0.007   7.851
 1699POPC   C4B24118  43.727   0.031   7.385
 1700POPC   NC324119  25.805  12.218   9.646
 1700POPC   PO424120  26.413  12.082   9.511
 1700POPC   GL124121  26.157  12.002   9.153
 1700POPC   GL224122  25.887  12.261   9.144
 1700POPC   C1A24123  26.153  12.200   8.719
 1700POPC   D2A24124  26.318  12.220   8.329
 1700POPC   C3A24125  26.107  12.066   7.954
 1700POPC   C4A24126  25.873  12.123   7.575
 1700POPC   C1B24127  25.751  11.921   8.844
 1700POPC   C2B24128  25.727  12.073   8.412
 1700POPC   C3B24129  25.732  12.372   8.067
 1700POPC   C4B24130  25.501  12.448   7.722
 1701POPC   NC324131  34.267  10.563   9.617
 1701POPC   PO424132  34.897  10.588   9.486
 1701POPC   GL124133  34.532  10.635   9.187
 1701POPC   GL224134  34.415  10.285   9.199
 1701POPC   C1A24135  34.330  10.586   8.752
 1701POPC   D2A24136  34.124  10.417   8.373
 1701POPC   C3A24137  34.394  10.294   8.015
 1701POPC   C4A24138  34.666  10.584   7.728
 1701POPC   C1B24139  34.749  10.263   8.883
 1701POPC   C2B24140  34.704  10.212   8.448
 1701POPC   C3B24141  34.898  10.276   8.052
 1701POPC   C4B24142  34.752  10.091   7.659
 1702POPC   NC324143   2.968  32.896   9.467
 1702POPC   PO424144   2.388  33.211   9.683
 1702POPC   GL124145   2.343  32.910   9.213
 1702POPC   GL224146   2.611  32.637   9.165
 1702POPC   C1A24147   2.382  33.111   8.729
 1702POPC   D2A24148   2.776  33.346   8.533
 1702POPC   C3A24149   2.720  33.272   8.065
 1702POPC   C4A24150   2.440  33.140   7.738
 1702POPC   C1B24151   2.946  32.734   8.829
 1702POPC   C2B24152   2.895  32.862   8.404
 1702POPC   C3B24153   3.032  32.883   7.986
 1702POPC   C4B24154   2.881  32.859   7.592
 1703POPC   NC324155  42.790   8.494   9.248
 1703POPC   PO424156  42.856   9.020   9.620
 1703POPC   GL124157  42.960   8.973   9.182
 1703POPC   GL224158  42.888   9.286   9.080
 1703POPC   C1A24159  42.815   8.943   8.711
 1703POPC   D2A24160  42.957   9.194   8.329
 1703POPC   C3A24161  42.837   9.041   7.908
 1703POPC   C4A24162  43.124   8.722   7.748
 1703POPC   C1B24163  43.262   9.163   8.770
 1703POPC   C2B24164  43.482   9.246   8.368
 1703POPC   C3B24165  43.284   9.331   7.928
 1703POPC   C4B24166  43.304   9.161   7.512
 1704POPC   NC324167  34.778  44.897   9.558
 1704POPC   PO424168  34.083  44.681   9.440
 1704POPC   GL124169  34.457  44.727   9.182
 1704POPC   GL224170  34.675   0.027   9.094
 1704POPC   C1A24171  34.527  44.705   8.746
 1704POPC   D2A24172  34.229  44.737   8.411
 1704POPC   C3A24173  34.336  44.627   7.991
 1704POPC   C4A24174  34.420  44.274   7.773
 1704POPC   C1B24175  34.965   0.021   8.799
 1704POPC   C2B24176  34.985  44.744   8.536
 1704POPC   C3B24177  34.750  44.773   8.230
 1704POPC   C4B24178  34.815  44.793   7.845
 1705POPC   NC324179  38.135  24.981   9.473
 1705POPC   PO424180  37.552  24.497   9.455
 1705POPC   GL124181  37.526  24.681   9.098
 1705POPC   GL224182  37.867  24.741   9.104
 1705POPC   C1A24183  37.571  24.472   8.743
 1705POPC   D2A24184  37.761  24.419   8.380
 1705POPC   C3A24185  37.693  24.170   8.068
 1705POPC   C4A24186  37.718  24.396   7.674
 1705POPC   C1B24187  37.981  24.785   8.691
 1705POPC   C2B24188  38.250  24.527   8.432
 1705POPC   C3B24189  38.115  24.475   8.000
 1705POPC   C4B24190  38.100  24.752   7.644
 1706POPC   NC324191   0.966  41.678   9.297
 1706POPC   PO424192   0.297  41.585   9.541
 1706POPC   GL124193   0.385  41.435   9.132
 1706POPC   GL224194   0.048  41.292   9.129
 1706POPC   C1A24195   0.645  41.452   8.708
 1706POPC   D2A24196   0.693  41.407   8.220
 1706POPC   C3A24197   0.882  41.629   7.855
 1706POPC   C4A24198   0.764  41.692   7.414
 1706POPC   C1B24199   0.049  41.447   8.751
 1706POPC   C2B24200   0.224  41.411   8.408
 1706POPC   C3B24201   0.199  41.608   8.043
 1706POPC   C4B24202   0.338  41.471   7.645
 1707POPC   NC324203  34.210  15.150   9.543
 1707POPC   PO424204  34.894  15.039   9.503
 1707POPC   GL124205  34.717  15.237   9.174
 1707POPC   GL224206  34.408  15.302   9.076
 1707POPC   C1A24207  34.727  15.035   8.764
 1707POPC   D2A24208  34.534  14.947   8.393
 1707POPC   C3A24209  34.706  15.055   8.020
 1707POPC   C4A24210  34.405  15.138   7.710
 1707POPC   C1B24211  34.757  15.553   8.795
 1707POPC   C2B24212  34.703  15.703   8.379
 1707POPC   C3B24213  34.467  15.593   8.038
 1707POPC   C4B24214  34.766  15.493   7.778
 1708POPC   NC324215  19.985   2.462   9.235
 1708POPC   PO424216  19.694   3.043   9.427
 1708POPC   GL124217  19.861   2.947   9.043
 1708POPC   GL224218  20.203   2.902   9.053
 1708POPC   C1A24219  19.960   2.976   8.608
 1708POPC   D2A24220  19.747   3.085   8.250
 1708POPC   C3A24221  19.782   2.676   8.109
 1708POPC   C4A24222  19.819   2.490   7.696
 1708POPC   C1B24223  20.300   2.587   8.695
 1708POPC   C2B24224  20.237   2.524   8.247
 1708POPC   C3B24225  20.205   2.773   7.860
 1708POPC   C4B24226  20.237   2.699   7.422
 1709POPC   NC324227  34.905  31.504   9.715
 1709POPC   PO424228  35.535  31.659   9.510
 1709POPC   GL124229  35.233  31.584   9.191
 1709POPC   GL224230  35.059  31.251   9.217
 1709POPC   C1A24231  35.313  31.509   8.750
 1709POPC   D2A24232  35.697  31.563   8.495
 1709POPC   C3A24233  35.560  31.728   8.091
 1709POPC   C4A24234  35.152  31.599   7.871
 1709POPC   C1B24235  35.415  31.059   8.964
 1709POPC   C2B24236  35.536  31.034   8.519
 1709POPC   C3B24237  35.446  31.234   8.134
 1709POPC   C4B24238  35.332  31.153   7.713
 1710POPC   NC324239  41.566  37.241   9.804
 1710POPC   PO424240  41.428  37.786   9.458
 1710POPC   GL124241  41.505  37.858   9.042
 1710POPC   GL224242  41.356  38.173   8.993
 1710POPC   C1A24243  41.676  37.671   8.660
 1710POPC   D2A24244  41.501  37.405   8.320
 1710POPC   C3A24245  41.785  37.502   7.995
 1710POPC   C4A24246  41.841  37.635   7.543
 1710POPC   C1B24247  41.473  38.160   8.559
 1710POPC   C2B24248  41.472  37.912   8.185
 1710POPC   C3B24249  41.407  37.772   7.757
 1710POPC   C4B24250  41.418  37.981   7.280
 1711POPC   NC324251  25.918   5.467   9.455
 1711POPC   PO424252  26.063   4.837   9.576
 1711POPC   GL124253  26.013   5.000   9.182
 1711POPC   GL224254  26.291   5.238   9.151
 1711POPC   C1A24255  25.888   4.800   8.798
 1711POPC   D2A24256  26.035   4.629   8.409
 1711POPC   C3A24257  26.094   4.943   8.102
 1711POPC   C4A24258  25.811   5.079   7.769
 1711POPC   C1B24259  26.200   5.208   8.675
 1711POPC   C2B24260  26.258   5.395   8.224
 1711POPC   C3B24261  26.267   5.296   7.722
 1711POPC   C4B24262  26.381   5.308   7.241
 1712POPC   NC324263  27.556  14.659   9.479
 1712POPC   PO424264  27.931  14.178   9.657
 1712POPC   GL124265  27.775  14.276   9.200
 1712POPC   GL224266  27.389  14.231   9.173
 1712POPC   C1A24267  27.750  14.552   8.765
 1712POPC   D2A24268  27.810  14.644   8.293
 1712POPC   C3A24269  27.999  14.398   7.926
 1712POPC   C4A24270  27.891  14.318   7.458
 1712POPC   C1B24271  27.273  14.386   8.756
 1712POPC   C2B24272  27.387  14.312   8.349
 1712POPC   C3B24273  27.487  14.440   7.930
 1712POPC   C4B24274  27.319  14.071   7.758
 1713POPC   NC324275   0.030  12.333   9.407
 1713POPC   PO424276   0.002  11.687   9.598
 1713POPC   GL124277   0.234  11.754   9.206
 1713POPC   GL224278   0.579  11.892   9.229
 1713POPC   C1A24279   0.287  11.787   8.747
 1713POPC   D2A24280   0.403  11.805   8.296
 1713POPC   C3A24281   0.392  12.185   8.030
 1713POPC   C4A24282   0.175  12.207   7.633
 1713POPC   C1B24283   0.708  12.111   8.811
 1713POPC   C2B24284   0.988  12.220   8.441
 1713POPC   C3B24285   1.100  12.284   8.015
 1713POPC   C4B24286   0.834  12.229   7.680
 1714POPC   NC324287  10.273   0.915   9.430
 1714POPC   PO424288  10.661   0.342   9.525
 1714POPC   GL124289  10.405   0.231   9.173
 1714POPC   GL224290  10.457   0.572   9.059
 1714POPC   C1A24291  10.272   0.195   8.722
 1714POPC   D2A24292  10.251   0.325   8.277
 1714POPC   C3A24293  10.625   0.550   8.092
 1714POPC   C4A24294  10.879   0.426   7.778
 1714POPC   C1B24295  10.204   0.750   8.726
 1714POPC   C2B24296  10.303   0.868   8.309
 1714POPC   C3B24297  10.238   0.773   7.842
 1714POPC   C4B24298  10.259   0.809   7.336
 1715POPC   NC324299  27.813  18.101   9.516
 1715POPC   PO424300  27.399  18.666   9.619
 1715POPC   GL124301  27.661  18.523   9.292
 1715POPC   GL224302  27.522  18.682   9.091
 1715POPC   C1A24303  27.621  18.211   8.920
 1715POPC   D2A24304  27.762  18.217   8.519
 1715POPC   C3A24305  27.517  18.071   8.207
 1715POPC   C4A24306  27.684  18.062   7.803
 1715POPC   C1B24307  27.341  18.598   8.711
 1715POPC   C2B24308  27.423  18.579   8.306
 1715POPC   C3B24309  27.604  18.552   7.921
 1715POPC   C4B24310  27.382  18.699   7.555
 1716POPC   NC324311  16.117  13.397   9.584
 1716POPC   PO424312  15.485  13.498   9.567
 1716POPC   GL124313  15.791  13.326   9.199
 1716POPC   GL224314  16.051  13.597   9.111
 1716POPC   C1A24315  16.053  13.190   8.817
 1716POPC   D2A24316  15.835  13.223   8.385
 1716POPC   C3A24317  16.050  13.307   7.978
 1716POPC   C4A24318  16.185  13.639   7.659
 1716POPC   C1B24319  15.782  13.622   8.708
 1716POPC   C2B24320  15.776  13.699   8.219
 1716POPC   C3B24321  15.738  13.826   7.778
 1716POPC   C4B24322  15.951  14.178   7.535
 1717POPC   NC324323  33.393   2.354   9.499
 1717POPC   PO424324  33.049   3.049   9.430
 1717POPC   GL124325  33.200   2.735   9.170
 1717POPC   GL224326  32.906   2.524   9.111
 1717POPC   C1A24327  33.335   2.886   8.777
 1717POPC   D2A24328  33.145   3.006   8.384
 1717POPC   C3A24329  33.115   2.643   8.102
 1717POPC   C4A24330  33.074   2.767   7.685
 1717POPC   C1B24331  32.858   2.651   8.662
 1717POPC   C2B24332  32.625   2.516   8.274
 1717POPC   C3B24333  32.647   2.497   7.802
 1717POPC   C4B24334  32.691   2.690   7.366
 1718POPC   NC324335  25.656  13.781   9.657
 1718POPC   PO424336  24.942  13.655   9.471
 1718POPC   GL124337  25.120  13.624   9.115
 1718POPC   GL224338  25.426  13.574   9.218
 1718POPC   C1A24339  24.972  13.627   8.716
 1718POPC   D2A24340  25.020  13.437   8.326
 1718POPC   C3A24341  25.063  13.848   8.132
 1718POPC   C4A24342  24.846  14.004   7.771
 1718POPC   C1B24343  25.618  13.602   8.839
 1718POPC   C2B24344  25.451  13.644   8.452
 1718POPC   C3B24345  25.453  13.508   8.025
 1718POPC   C4B24346  25.332  13.777   7.708
 1719POPC   NC324347   2.361  43.194   9.500
 1719POPC   PO424348   1.961  42.650   9.490
 1719POPC   GL124349   2.071  42.922   9.161
 1719POPC   GL224350   1.919  43.244   9.209
 1719POPC   C1A24351   1.941  42.942   8.736
 1719POPC   D2A24352   2.021  42.869   8.319
 1719POPC   C3A24353   1.662  42.897   7.970
 1719POPC   C4A24354   1.820  42.982   7.491
 1719POPC   C1B24355   2.015  43.453   8.821
 1719POPC   C2B24356   1.818  43.363   8.420
 1719POPC   C3B24357   1.980  43.280   8.006
 1719POPC   C4B24358   2.210  43.510   7.732
 1720POPC   NC324359  31.842  29.745   9.353
 1720POPC   PO424360  32.380  30.123   9.609
 1720POPC   GL124361  32.334  29.962   9.205
 1720POPC   GL224362  32.414  30.302   9.126
 1720POPC   C1A24363  32.390  29.961   8.739
 1720POPC   D2A24364  32.468  29.856   8.316
 1720POPC   C3A24365  32.126  29.811   7.955
 1720POPC   C4A24366  32.287  29.870   7.511
 1720POPC   C1B24367  32.541  30.453   8.740
 1720POPC   C2B24368  32.353  30.361   8.377
 1720POPC   C3B24369  32.381  30.222   7.978
 1720POPC   C4B24370  32.460  30.376   7.610
 1721POPC   NC324371  22.416  29.714   9.564
 1721POPC   PO424372  21.931  30.088   9.454
 1721POPC   GL124373  22.036  30.049   9.056
 1721POPC   GL224374  22.378  30.069   9.111
 1721POPC   C1A24375  21.898  29.824   8.683
 1721POPC   D2A24376  21.877  29.538   8.351
 1721POPC   C3A24377  21.898  29.811   7.998
 1721POPC   C4A24378  21.932  30.097   7.638
 1721POPC   C1B24379  22.421  29.818   8.750
 1721POPC   C2B24380  22.341  29.765   8.319
 1721POPC   C3B24381  22.466  29.797   7.913
 1721POPC   C4B24382  22.558  29.458   7.633
 1722POPC   NC324383   4.853  20.335   9.317
 1722POPC   PO424384   4.829  19.653   9.374
 1722POPC   GL124385   5.004  19.889   9.064
 1722POPC   GL224386   5.336  19.999   9.194
 1722POPC   C1A24387   5.060  19.891   8.623
 1722POPC   D2A24388   5.401  19.762   8.352
 1722POPC   C3A24389   5.212  19.587   7.971
 1722POPC   C4A24390   4.819  19.759   7.812
 1722POPC   C1B24391   5.501  20.113   8.779
 1722POPC   C2B24392   5.351  20.282   8.362
 1722POPC   C3B24393   5.391  20.066   7.938
 1722POPC   C4B24394   5.382  19.842   7.539
 1723POPC   NC324395  35.069   7.017   9.493
 1723POPC   PO424396  35.433   6.444   9.452
 1723POPC   GL124397  35.303   6.704   9.156
 1723POPC   GL224398  35.538   6.988   9.233
 1723POPC   C1A24399  35.362   6.542   8.766
 1723POPC   D2A24400  35.183   6.520   8.381
 1723POPC   C3A24401  35.425   6.369   8.057
 1723POPC   C4A24402  35.320   6.492   7.691
 1723POPC   C1B24403  35.442   7.076   8.818
 1723POPC   C2B24404  35.285   7.050   8.422
 1723POPC   C3B24405  35.236   6.893   8.015
 1723POPC   C4B24406  35.553   6.939   7.714
 1724POPC   NC324407  27.425  23.943   9.902
 1724POPC   PO424408  27.943  23.649   9.457
 1724POPC   GL124409  27.554  23.640   9.222
 1724POPC   GL224410  27.256  23.694   9.437
 1724POPC   C1A24411  27.434  23.549   8.782
 1724POPC   D2A24412  27.672  23.733   8.440
 1724POPC   C3A24413  27.682  23.593   8.029
 1724POPC   C4A24414  27.934  23.725   7.715
 1724POPC   C1B24415  27.192  23.951   9.049
 1724POPC   C2B24416  27.131  23.936   8.614
 1724POPC   C3B24417  27.314  24.050   8.259
 1724POPC   C4B24418  27.285  23.869   7.884
 1725POPC   NC324419  13.073  32.062   9.476
 1725POPC   PO424420  12.417  32.269   9.534
 1725POPC   GL124421  12.710  32.350   9.189
 1725POPC   GL224422  13.022  32.527   9.318
 1725POPC   C1A24423  12.767  32.128   8.766
 1725POPC   D2A24424  12.632  31.927   8.353
 1725POPC   C3A24425  12.822  32.158   8.006
 1725POPC   C4A24426  12.644  32.513   7.787
 1725POPC   C1B24427  13.074  32.535   8.870
 1725POPC   C2B24428  13.245  32.436   8.489
 1725POPC   C3B24429  13.296  32.336   8.067
 1725POPC   C4B24430  13.187  32.577   7.714
 1726POPC   NC324431  18.284  37.208   9.350
 1726POPC   PO424432  18.238  37.815   9.543
 1726POPC   GL124433  18.291  37.675   9.161
 1726POPC   GL224434  17.951  37.520   9.131
 1726POPC   C1A24435  18.336  37.503   8.755
 1726POPC   D2A24436  18.394  37.701   8.382
 1726POPC   C3A24437  18.467  37.448   8.035
 1726POPC   C4A24438  18.469  37.647   7.652
 1726POPC   C1B24439  17.930  37.834   8.835
 1726POPC   C2B24440  17.881  37.758   8.433
 1726POPC   C3B24441  17.997  37.681   8.030
 1726POPC   C4B24442  18.024  37.873   7.653
 1727POPC   NC324443  26.118  24.012   9.500
 1727POPC   PO424444  25.692  23.454   9.706
 1727POPC   GL124445  25.910  23.529   9.304
 1727POPC   GL224446  26.271  23.648   9.178
 1727POPC   C1A24447  25.880  23.611   8.867
 1727POPC   D2A24448  26.086  23.669   8.468
 1727POPC   C3A24449  25.866  23.932   8.154
 1727POPC   C4A24450  25.877  23.694   7.781
 1727POPC   C1B24451  26.256  23.996   8.840
 1727POPC   C2B24452  26.274  24.137   8.408
 1727POPC   C3B24453  26.352  23.984   7.996
 1727POPC   C4B24454  26.259  23.966   7.555
 1728POPC   NC324455  33.667  38.757   9.177
 1728POPC   PO424456  33.607  39.157   9.637
 1728POPC   GL124457  33.637  39.475   9.279
 1728POPC   GL224458  33.983  39.556   9.207
 1728POPC   C1A24459  33.652  39.443   8.818
 1728POPC   D2A24460  33.808  39.223   8.431
 1728POPC   C3A24461  33.678  39.312   8.004
 1728POPC   C4A24462  33.806  39.457   7.576
 1728POPC   C1B24463  34.173  39.433   8.802
 1728POPC   C2B24464  34.310  39.129   8.464
 1728POPC   C3B24465  34.116  38.945   8.093
 1728POPC   C4B24466  34.151  39.089   7.684
 1729POPC   NC324467  13.274  13.393   9.552
 1729POPC   PO424468  12.671  13.708   9.529
 1729POPC   GL124469  12.663  13.522   9.150
 1729POPC   GL224470  12.937  13.296   9.170
 1729POPC   C1A24471  12.796  13.551   8.737
 1729POPC   D2A24472  12.895  13.403   8.342
 1729POPC   C3A24473  12.905  13.571   7.920
 1729POPC   C4A24474  13.123  13.747   7.552
 1729POPC   C1B24475  13.088  13.130   8.762
 1729POPC   C2B24476  13.100  12.958   8.342
 1729POPC   C3B24477  13.097  13.095   7.874
 1729POPC   C4B24478  13.039  13.254   7.434
 1730POPC   NC324479   7.285   0.245   9.616
 1730POPC   PO424480   7.699   0.774   9.496
 1730POPC   GL124481   7.503   0.570   9.208
 1730POPC   GL224482   7.190   0.748   9.187
 1730POPC   C1A24483   7.641   0.298   8.876
 1730POPC   D2A24484   7.500   0.144   8.472
 1730POPC   C3A24485   7.597   0.243   8.026
 1730POPC   C4A24486   7.209   0.192   7.778
 1730POPC   C1B24487   7.331   0.697   8.742
 1730POPC   C2B24488   7.430   0.640   8.300
 1730POPC   C3B24489   7.345   0.690   7.842
 1730POPC   C4B24490   7.436   0.890   7.453
 1731POPC   NC324491  43.024  33.705   9.446
 1731POPC   PO424492  43.429  34.274   9.577
 1731POPC   GL124493  43.306  34.020   9.191
 1731POPC   GL224494  43.476  33.666   9.192
 1731POPC   C1A24495  43.080  34.076   8.765
 1731POPC   D2A24496  42.923  34.265   8.349
 1731POPC   C3A24497  43.010  34.018   8.024
 1731POPC   C4A24498  43.043  33.795   7.639
 1731POPC   C1B24499  43.579  33.893   8.789
 1731POPC   C2B24500  43.435  33.994   8.356
 1731POPC   C3B24501  43.494  33.833   7.937
 1731POPC   C4B24502  43.532  33.829   7.499
 1732POPC   NC324503  10.537  14.538   9.764
 1732POPC   PO424504  11.045  14.354   9.397
 1732POPC   GL124505  10.593  14.463   9.222
 1732POPC   GL224506  10.287  14.259   9.371
 1732POPC   C1A24507  10.382  14.731   8.850
 1732POPC   D2A24508  10.174  14.735   8.396
 1732POPC   C3A24509  10.470  14.565   8.057
 1732POPC   C4A24510  10.710  14.428   7.690
 1732POPC   C1B24511  10.227  14.212   8.920
 1732POPC   C2B24512  10.126  14.102   8.499
 1732POPC   C3B24513  10.050  14.258   8.078
 1732POPC   C4B24514  10.275  14.174   7.708
 1733POPC   NC324515  23.714  25.202   9.584
 1733POPC   PO424516  24.216  25.438   9.473
 1733POPC   GL124517  24.037  25.131   9.131
 1733POPC   GL224518  23.654  25.011   9.110
 1733POPC   C1A24519  23.918  25.104   8.699
 1733POPC   D2A24520  23.777  25.345   8.386
 1733POPC   C3A24521  23.849  25.216   8.001
 1733POPC   C4A24522  23.838  25.469   7.647
 1733POPC   C1B24523  23.403  25.029   8.683
 1733POPC   C2B24524  23.357  25.080   8.215
 1733POPC   C3B24525  23.246  25.121   7.769
 1733POPC   C4B24526  22.903  25.281   7.444
 1734POPC   NC324527  37.510  26.515   9.466
 1734POPC   PO424528  38.027  26.938   9.483
 1734POPC   GL124529  37.754  26.837   9.149
 1734POPC   GL224530  37.624  27.121   8.979
 1734POPC   C1A24531  37.785  26.539   8.811
 1734POPC   D2A24532  37.662  26.451   8.377
 1734POPC   C3A24533  37.644  26.861   8.155
 1734POPC   C4A24534  37.496  26.942   7.730
 1734POPC   C1B24535  37.358  26.806   8.792
 1734POPC   C2B24536  37.212  26.703   8.406
 1734POPC   C3B24537  37.273  26.548   7.990
 1734POPC   C4B24538  37.080  26.645   7.607
 1735POPC   NC324539  11.182  11.003   9.584
 1735POPC   PO424540  11.679  11.531   9.524
 1735POPC   GL124541  11.508  11.236   9.262
 1735POPC   GL224542  11.221  11.364   9.176
 1735POPC   C1A24543  11.571  11.163   8.849
 1735POPC   D2A24544  11.428  11.446   8.560
 1735POPC   C3A24545  11.350  11.372   8.123
 1735POPC   C4A24546  11.486  11.218   7.734
 1735POPC   C1B24547  11.071  11.641   8.857
 1735POPC   C2B24548  10.935  11.593   8.411
 1735POPC   C3B24549  10.955  11.716   7.979
 1735POPC   C4B24550  11.227  11.629   7.665
 1736POPC   NC324551  12.244   0.082   9.776
 1736POPC   PO424552  11.869  44.604   9.545
 1736POPC   GL124553  11.925  44.664   9.117
 1736POPC   GL224554  12.280  44.659   9.112
 1736POPC   C1A24555  12.013  44.662   8.675
 1736POPC   D2A24556  12.357  44.706   8.406
 1736POPC   C3A24557  12.201  44.890   8.020
 1736POPC   C4A24558  11.817  44.739   7.853
 1736POPC   C1B24559  12.353  44.307   8.801
 1736POPC   C2B24560  12.445  44.147   8.373
 1736POPC   C3B24561  12.378  44.392   7.991
 1736POPC   C4B24562  12.200  44.524   7.607
 1737POPC   NC324563  44.163  43.927   9.599
 1737POPC   PO424564  43.635  44.378   9.543
 1737POPC   GL124565  43.879  44.138   9.188
 1737POPC   GL224566  43.972  43.780   9.161
 1737POPC   C1A24567  43.827  44.038   8.730
 1737POPC   D2A24568  44.062  44.148   8.347
 1737POPC   C3A24569  43.853  44.060   7.972
 1737POPC   C4A24570  43.532  43.751   7.896
 1737POPC   C1B24571  43.942  43.553   8.785
 1737POPC   C2B24572  43.771  43.600   8.368
 1737POPC   C3B24573  43.986  43.547   7.998
 1737POPC   C4B24574  44.057  43.735   7.611
 1738POPC   NC324575   4.703   5.308   9.696
 1738POPC   PO424576   5.071   4.768   9.555
 1738POPC   GL124577   5.245   4.883   9.151
 1738POPC   GL224578   5.014   5.176   9.207
 1738POPC   C1A24579   5.121   5.004   8.728
 1738POPC   D2A24580   5.171   5.390   8.451
 1738POPC   C3A24581   5.284   5.357   8.006
 1738POPC   C4A24582   5.101   5.045   7.734
 1738POPC   C1B24583   4.862   5.440   8.882
 1738POPC   C2B24584   4.708   5.613   8.446
 1738POPC   C3B24585   4.766   5.357   8.043
 1738POPC   C4B24586   4.855   5.437   7.568
 1739POPC   NC324587  19.305  13.007   9.576
 1739POPC   PO424588  18.783  12.664   9.483
 1739POPC   GL124589  19.094  12.699   9.216
 1739POPC   GL224590  19.349  12.487   9.334
 1739POPC   C1A24591  19.071  12.876   8.817
 1739POPC   D2A24592  18.963  12.750   8.400
 1739POPC   C3A24593  18.869  13.084   8.095
 1739POPC   C4A24594  19.167  13.047   7.771
 1739POPC   C1B24595  19.514  12.605   8.922
 1739POPC   C2B24596  19.446  12.521   8.482
 1739POPC   C3B24597  19.347  12.637   8.050
 1739POPC   C4B24598  19.348  12.542   7.605
 1740POPC   NC324599  17.209  21.863   9.716
 1740POPC   PO424600  17.609  22.426   9.565
 1740POPC   GL124601  17.623  22.470   9.157
 1740POPC   GL224602  17.303  22.501   9.093
 1740POPC   C1A24603  17.764  22.234   8.796
 1740POPC   D2A24604  17.527  22.063   8.417
 1740POPC   C3A24605  17.793  22.037   8.041
 1740POPC   C4A24606  17.790  22.318   7.713
 1740POPC   C1B24607  17.055  22.567   8.736
 1740POPC   C2B24608  17.068  22.405   8.338
 1740POPC   C3B24609  17.376  22.391   8.020
 1740POPC   C4B24610  17.244  22.447   7.600
 1741POPC   NC324611   2.380   5.391   9.472
 1741POPC   PO424612   2.336   6.112   9.487
 1741POPC   GL124613   2.133   5.795   9.233
 1741POPC   GL224614   1.909   6.048   9.062
 1741POPC   C1A24615   2.190   5.720   8.786
 1741POPC   D2A24616   1.985   6.021   8.503
 1741POPC   C3A24617   1.858   5.921   8.071
 1741POPC   C4A24618   2.039   5.785   7.680
 1741POPC   C1B24619   1.667   5.730   8.806
 1741POPC   C2B24620   1.563   5.606   8.386
 1741POPC   C3B24621   1.587   5.500   7.924
 1741POPC   C4B24622   1.599   5.617   7.491
 1742POPC   NC324623   1.516  20.856   9.513
 1742POPC   PO424624   1.556  20.175   9.467
 1742POPC   GL124625   1.372  20.312   9.058
 1742POPC   GL224626   1.189  20.636   9.134
 1742POPC   C1A24627   1.290  20.363   8.626
 1742POPC   D2A24628   1.502  20.729   8.405
 1742POPC   C3A24629   1.429  20.736   7.989
 1742POPC   C4A24630   1.242  20.734   7.613
 1742POPC   C1B24631   0.932  20.700   8.759
 1742POPC   C2B24632   1.008  20.687   8.316
 1742POPC   C3B24633   0.859  20.857   7.929
 1742POPC   C4B24634   0.515  21.036   7.659
 1743POPC   NC324635   6.949  19.514   9.467
 1743POPC   PO424636   6.928  20.158   9.320
 1743POPC   GL124637   6.633  20.026   9.036
 1743POPC   GL224638   6.444  19.708   9.164
 1743POPC   C1A24639   6.769  19.808   8.647
 1743POPC   D2A24640   6.610  19.577   8.273
 1743POPC   C3A24641   6.853  19.726   7.898
 1743POPC   C4A24642   6.807  20.170   7.696
 1743POPC   C1B24643   6.283  19.795   8.754
 1743POPC   C2B24644   6.364  20.076   8.398
 1743POPC   C3B24645   6.398  19.967   7.964
 1743POPC   C4B24646   6.353  19.574   7.791
 1744POPC   NC324647  13.995  44.821   9.500
 1744POPC   PO424648  13.475  44.427   9.481
 1744POPC   GL124649  13.669  44.585   9.093
 1744POPC   GL224650  14.019  44.575   9.039
 1744POPC   C1A24651  13.678  44.730   8.648
 1744POPC   D2A24652  13.853  44.668   8.255
 1744POPC   C3A24653  13.567  44.595   7.989
 1744POPC   C4A24654  13.526  44.354   7.640
 1744POPC   C1B24655  14.087  44.980   8.797
 1744POPC   C2B24656  14.083   0.126   8.375
 1744POPC   C3B24657  14.243  44.922   8.005
 1744POPC   C4B24658  14.031  44.619   7.722
 1745POPC   NC324659   3.158  18.002   9.410
 1745POPC   PO424660   3.576  18.575   9.470
 1745POPC   GL124661   3.520  18.341   9.139
 1745POPC   GL224662   3.188  18.425   9.111
 1745POPC   C1A24663   3.609  18.203   8.726
 1745POPC   D2A24664   3.356  18.281   8.356
 1745POPC   C3A24665   3.527  18.014   8.054
 1745POPC   C4A24666   3.888  18.066   7.792
 1745POPC   C1B24667   3.370  18.651   8.748
 1745POPC   C2B24668   3.725  18.624   8.431
 1745POPC   C3B24669   3.680  18.500   7.999
 1745POPC   C4B24670   3.276  18.553   7.773
 1746POPC   NC324671  42.151  33.808   9.607
 1746POPC   PO424672  42.771  34.132   9.454
 1746POPC   GL124673  42.385  34.001   9.201
 1746POPC   GL224674  42.438  33.630   9.195
 1746POPC   C1A24675  42.058  33.782   8.888
 1746POPC   D2A24676  41.942  33.568   8.454
 1746POPC   C3A24677  42.096  33.734   8.026
 1746POPC   C4A24678  42.096  33.664   7.559
 1746POPC   C1B24679  42.578  33.789   8.793
 1746POPC   C2B24680  42.762  33.795   8.419
 1746POPC   C3B24681  42.733  33.607   8.045
 1746POPC   C4B24682  42.548  33.762   7.731
 1747POPC   NC324683  21.583   6.986   9.712
 1747POPC   PO424684  22.193   6.805   9.401
 1747POPC   GL124685  22.178   6.529   9.071
 1747POPC   GL224686  21.926   6.341   9.142
 1747POPC   C1A24687  22.174   6.529   8.616
 1747POPC   D2A24688  22.061   6.801   8.258
 1747POPC   C3A24689  22.414   6.868   7.995
 1747POPC   C4A24690  22.652   6.495   7.856
 1747POPC   C1B24691  21.769   6.253   8.738
 1747POPC   C2B24692  21.759   6.329   8.298
 1747POPC   C3B24693  21.948   6.281   7.906
 1747POPC   C4B24694  22.044   6.649   7.704
 1748POPC   NC324695  27.304  17.293   9.423
 1748POPC   PO424696  27.325  17.947   9.498
 1748POPC   GL124697  27.634  17.703   9.191
 1748POPC   GL224698  27.532  17.375   8.994
 1748POPC   C1A24699  27.885  17.692   8.788
 1748POPC   D2A24700  27.972  17.754   8.331
 1748POPC   C3A24701  27.671  17.603   8.027
 1748POPC   C4A24702  27.267  17.771   7.834
 1748POPC   C1B24703  27.815  17.147   8.747
 1748POPC   C2B24704  27.880  17.224   8.341
 1748POPC   C3B24705  27.765  17.058   7.930
 1748POPC   C4B24706  27.414  17.251   7.765
 1749POPC   NC324707  25.128  44.190   9.356
 1749POPC   PO424708  25.366  43.533   9.581
 1749POPC   GL124709  25.394  43.770   9.254
 1749POPC   GL224710  25.638  44.072   9.370
 1749POPC   C1A24711  25.059  43.737   8.905
 1749POPC   D2A24712  24.999  43.925   8.510
 1749POPC   C3A24713  24.938  43.678   8.146
 1749POPC   C4A24714  25.007  43.836   7.755
 1749POPC   C1B24715  25.650  44.044   8.925
 1749POPC   C2B24716  25.512  44.003   8.514
 1749POPC   C3B24717  25.323  44.036   8.119
 1749POPC   C4B24718  25.489  44.085   7.715
 1750POPC   NC324719   8.763  43.134   9.566
 1750POPC   PO424720   9.251  43.565   9.710
 1750POPC   GL124721   9.086  43.433   9.268
 1750POPC   GL224722   8.709  43.507   9.223
 1750POPC   C1A24723   9.137  43.219   8.838
 1750POPC   D2A24724   8.873  43.001   8.509
 1750POPC   C3A24725   8.999  43.095   8.091
 1750POPC   C4A24726   9.170  42.987   7.697
 1750POPC   C1B24727   8.619  43.336   8.812
 1750POPC   C2B24728   8.461  43.329   8.395
 1750POPC   C3B24729   8.492  43.101   8.012
 1750POPC   C4B24730   8.704  43.139   7.604
 1751POPC   NC324731  22.824   5.483   9.531
 1751POPC   PO424732  23.166   4.812   9.629
 1751POPC   GL124733  23.079   5.115   9.287
 1751POPC   GL224734  22.738   5.188   9.122
 1751POPC   C1A24735  23.161   5.103   8.840
 1751POPC   D2A24736  22.879   5.197   8.496
 1751POPC   C3A24737  23.090   5.101   8.109
 1751POPC   C4A24738  22.823   5.059   7.754
 1751POPC   C1B24739  22.585   5.516   8.823
 1751POPC   C2B24740  22.622   5.668   8.386
 1751POPC   C3B24741  22.704   5.562   7.953
 1751POPC   C4B24742  22.757   5.487   7.498
 1752POPC   NC324743  16.551  32.986   9.629
 1752POPC   PO424744  17.184  33.166   9.651
 1752POPC   GL124745  17.007  32.932   9.253
 1752POPC   GL224746  16.623  32.983   9.136
 1752POPC   C1A24747  16.987  32.951   8.787
 1752POPC   D2A24748  16.670  32.897   8.476
 1752POPC   C3A24749  16.747  32.716   8.072
 1752POPC   C4A24750  16.876  32.824   7.625
 1752POPC   C1B24751  16.626  33.318   8.841
 1752POPC   C2B24752  16.609  33.424   8.444
 1752POPC   C3B24753  16.647  33.229   8.079
 1752POPC   C4B24754  16.589  33.243   7.689
 1753POPC   NC324755   8.133  10.629   9.429
 1753POPC   PO424756   8.519  10.174   9.733
 1753POPC   GL124757   8.558  10.370   9.289
 1753POPC   GL224758   8.607  10.123   9.076
 1753POPC   C1A24759   8.458  10.624   8.887
 1753POPC   D2A24760   8.188  10.766   8.536
 1753POPC   C3A24761   8.043  10.492   8.216
 1753POPC   C4A24762   8.044  10.559   7.774
 1753POPC   C1B24763   8.602  10.211   8.653
 1753POPC   C2B24764   8.560  10.456   8.359
 1753POPC   C3B24765   8.498  10.517   7.981
 1753POPC   C4B24766   8.338  10.163   7.824
 1754POPC   NC324767  37.432  25.720   9.437
 1754POPC   PO424768  37.900  26.198   9.474
 1754POPC   GL124769  37.684  26.095   9.091
 1754POPC   GL224770  37.378  26.323   9.018
 1754POPC   C1A24771  37.899  26.072   8.675
 1754POPC   D2A24772  38.032  26.090   8.244
 1754POPC   C3A24773  37.856  25.848   7.948
 1754POPC   C4A24774  37.584  25.838   7.636
 1754POPC   C1B24775  37.367  26.104   8.667
 1754POPC   C2B24776  37.547  25.878   8.357
 1754POPC   C3B24777  37.421  26.085   8.041
 1754POPC   C4B24778  37.167  26.151   7.671
 1755POPC   NC324779  11.300  27.569   9.751
 1755POPC   PO424780  11.739  27.249   9.410
 1755POPC   GL124781  11.447  27.480   9.134
 1755POPC   GL224782  11.134  27.408   9.262
 1755POPC   C1A24783  11.370  27.635   8.693
 1755POPC   D2A24784  11.357  27.440   8.287
 1755POPC   C3A24785  11.524  27.628   7.921
 1755POPC   C4A24786  11.320  27.956   7.704
 1755POPC   C1B24787  10.917  27.569   8.920
 1755POPC   C2B24788  10.892  27.460   8.521
 1755POPC   C3B24789  10.816  27.360   8.120
 1755POPC   C4B24790  11.040  27.524   7.802
 1756POPC   NC324791   1.162  24.233   9.586
 1756POPC   PO424792   1.197  24.929   9.501
 1756POPC   GL124793   1.270  24.544   9.199
 1756POPC   GL224794   1.443  24.212   9.139
 1756POPC   C1A24795   1.028  24.382   8.838
 1756POPC   D2A24796   0.923  24.528   8.439
 1756POPC   C3A24797   1.157  24.354   8.114
 1756POPC   C4A24798   1.035  24.376   7.708
 1756POPC   C1B24799   1.524  24.332   8.685
 1756POPC   C2B24800   1.670  24.399   8.269
 1756POPC   C3B24801   1.579  24.320   7.846
 1756POPC   C4B24802   1.398  23.974   7.674
 1757POPC   NC324803  30.886  33.103   9.691
 1757POPC   PO424804  30.484  32.552   9.564
 1757POPC   GL124805  30.693  32.796   9.208
 1757POPC   GL224806  30.695  33.156   9.193
 1757POPC   C1A24807  30.881  32.818   8.761
 1757POPC   D2A24808  30.993  32.768   8.309
 1757POPC   C3A24809  30.689  32.794   7.962
 1757POPC   C4A24810  30.314  32.871   7.709
 1757POPC   C1B24811  30.643  33.281   8.726
 1757POPC   C2B24812  30.579  33.230   8.251
 1757POPC   C3B24813  30.591  33.289   7.780
 1757POPC   C4B24814  30.901  33.347   7.460
 1758POPC   NC324815  21.087  38.413   9.514
 1758POPC   PO424816  21.688  38.316   9.481
 1758POPC   GL124817  21.472  38.546   9.129
 1758POPC   GL224818  21.093  38.698   9.076
 1758POPC   C1A24819  21.615  38.410   8.691
 1758POPC   D2A24820  21.462  38.361   8.254
 1758POPC   C3A24821  21.715  38.408   7.855
 1758POPC   C4A24822  21.560  38.266   7.422
 1758POPC   C1B24823  21.146  38.583   8.640
 1758POPC   C2B24824  21.271  38.850   8.299
 1758POPC   C3B24825  21.335  38.741   7.892
 1758POPC   C4B24826  21.431  38.751   7.469
 1759POPC   NC324827  32.995  40.174   9.550
 1759POPC   PO424828  32.775  39.618   9.546
 1759POPC   GL124829  32.922  39.828   9.182
 1759POPC   GL224830  33.190  39.655   9.083
 1759POPC   C1A24831  32.966  40.145   8.841
 1759POPC   D2A24832  32.927  39.905   8.426
 1759POPC   C3A24833  33.151  40.069   8.058
 1759POPC   C4A24834  32.996  40.234   7.682
 1759POPC   C1B24835  33.344  39.835   8.739
 1759POPC   C2B24836  33.387  39.623   8.399
 1759POPC   C3B24837  33.227  39.570   8.017
 1759POPC   C4B24838  33.330  39.786   7.651
 1760POPC   NC324839   0.443  11.446   9.613
 1760POPC   PO424840   0.293  10.833   9.510
 1760POPC   GL124841   0.555  11.034   9.176
 1760POPC   GL224842   0.576  11.377   9.141
 1760POPC   C1A24843   0.748  11.091   8.776
 1760POPC   D2A24844   0.557  11.355   8.484
 1760POPC   C3A24845   0.590  11.363   8.053
 1760POPC   C4A24846   0.395  11.016   7.855
 1760POPC   C1B24847   0.793  11.611   8.859
 1760POPC   C2B24848   0.918  11.711   8.443
 1760POPC   C3B24849   0.842  11.836   8.024
 1760POPC   C4B24850   0.516  11.793   7.722
 1761POPC   NC324851   2.622  19.653   9.365
 1761POPC   PO424852   2.540  20.347   9.444
 1761POPC   GL124853   2.658  20.142   9.088
 1761POPC   GL224854   2.344  19.987   9.061
 1761POPC   C1A24855   2.893  19.999   8.704
 1761POPC   D2A24856   2.739  19.876   8.315
 1761POPC   C3A24857   2.931  19.970   7.921
 1761POPC   C4A24858   2.989  19.562   7.695
 1761POPC   C1B24859   2.387  20.131   8.662
 1761POPC   C2B24860   2.231  20.035   8.303
 1761POPC   C3B24861   2.403  19.924   7.932
 1761POPC   C4B24862   2.597  19.889   7.538
 1762POPC   NC324863  13.475  43.974   9.550
 1762POPC   PO424864  14.150  44.319   9.511
 1762POPC   GL124865  13.820  44.093   9.187
 1762POPC   GL224866  13.418  44.139   9.068
 1762POPC   C1A24867  13.650  43.733   8.909
 1762POPC   D2A24868  13.442  43.813   8.524
 1762POPC   C3A24869  13.652  43.804   8.138
 1762POPC   C4A24870  13.549  43.860   7.725
 1762POPC   C1B24871  13.730  44.219   8.714
 1762POPC   C2B24872  14.042  44.169   8.387
 1762POPC   C3B24873  13.974  44.153   7.940
 1762POPC   C4B24874  13.975  44.091   7.504
 1763POPC   NC324875  41.139  21.863   9.415
 1763POPC   PO424876  40.917  22.484   9.444
 1763POPC   GL124877  40.739  22.229   9.163
 1763POPC   GL224878  40.649  21.870   9.203
 1763POPC   C1A24879  40.892  22.124   8.798
 1763POPC   D2A24880  40.727  21.937   8.489
 1763POPC   C3A24881  40.928  22.060   8.184
 1763POPC   C4A24882  40.774  22.166   7.833
 1763POPC   C1B24883  40.427  21.669   8.842
 1763POPC   C2B24884  40.366  21.596   8.410
 1763POPC   C3B24885  40.409  21.872   8.065
 1763POPC   C4B24886  40.415  21.817   7.611
 1764POPC   NC324887   4.809   0.591   9.508
 1764POPC   PO424888   5.281   0.167   9.513
 1764POPC   GL124889   5.224   0.452   9.181
 1764POPC   GL224890   5.455   0.732   9.174
 1764POPC   C1A24891   4.974   0.381   8.805
 1764POPC   D2A24892   5.083   0.134   8.418
 1764POPC   C3A24893   5.074   0.293   7.986
 1764POPC   C4A24894   4.888   0.278   7.558
 1764POPC   C1B24895   5.325   0.733   8.732
 1764POPC   C2B24896   5.127   0.687   8.341
 1764POPC   C3B24897   5.242   0.773   7.920
 1764POPC   C4B24898   5.056   0.756   7.528
 1765POPC   NC324899  43.262   2.496   9.540
 1765POPC   PO424900  42.802   3.001   9.625
 1765POPC   GL124901  43.003   2.839   9.244
 1765POPC   GL224902  42.835   2.504   9.223
 1765POPC   C1A24903  43.191   2.790   8.806
 1765POPC   D2A24904  43.014   3.030   8.415
 1765POPC   C3A24905  43.267   3.080   8.028
 1765POPC   C4A24906  43.604   2.875   7.807
 1765POPC   C1B24907  42.692   2.745   8.852
 1765POPC   C2B24908  42.851   2.545   8.467
 1765POPC   C3B24909  43.124   2.600   8.134
 1765POPC   C4B24910  43.239   2.480   7.748
 1766POPC   NC324911  44.981   5.783   9.660
 1766POPC   PO424912   0.595   6.116   9.557
 1766POPC   GL124913   0.446   6.000   9.181
 1766POPC   GL224914   0.163   6.151   9.162
 1766POPC   C1A24915   0.651   5.911   8.801
 1766POPC   D2A24916   0.599   5.606   8.479
 1766POPC   C3A24917   0.721   5.724   8.078
 1766POPC   C4A24918   0.571   5.809   7.689
 1766POPC   C1B24919   0.116   5.948   8.752
 1766POPC   C2B24920   0.116   5.727   8.337
 1766POPC   C3B24921   0.184   5.597   7.902
 1766POPC   C4B24922   0.010   5.749   7.471
 1767POPC   NC324923  10.357  15.520   9.700
 1767POPC   PO424924  10.733  14.949   9.751
 1767POPC   GL124925  10.718  15.224   9.350
 1767POPC   GL224926  10.372  15.337   9.233
 1767POPC   C1A24927  10.733  15.265   8.878
 1767POPC   D2A24928  10.526  15.127   8.490
 1767POPC   C3A24929  10.754  15.180   8.088
 1767POPC   C4A24930  10.593  14.963   7.742
 1767POPC   C1B24931  10.144  15.270   8.858
 1767POPC   C2B24932  10.098  15.459   8.459
 1767POPC   C3B24933  10.265  15.331   8.055
 1767POPC   C4B24934  10.505  15.533   7.762
 1768POPC   NC324935  28.281  11.095   9.497
 1768POPC   PO424936  28.610  11.674   9.344
 1768POPC   GL124937  28.565  11.305   9.112
 1768POPC   GL224938  28.230  11.439   9.085
 1768POPC   C1A24939  28.380  11.081   8.777
 1768POPC   D2A24940  28.151  10.986   8.439
 1768POPC   C3A24941  28.433  10.931   8.158
 1768POPC   C4A24942  28.619  11.186   7.837
 1768POPC   C1B24943  28.470  11.595   8.706
 1768POPC   C2B24944  28.521  11.425   8.314
 1768POPC   C3B24945  28.172  11.354   8.070
 1768POPC   C4B24946  28.204  11.506   7.714
 1769POPC   NC324947  29.534  16.923   9.630
 1769POPC   PO424948  30.172  16.696   9.740
 1769POPC   GL124949  29.883  16.619   9.339
 1769POPC   GL224950  29.812  16.917   9.157
 1769POPC   C1A24951  29.839  16.520   8.856
 1769POPC   D2A24952  29.989  16.417   8.428
 1769POPC   C3A24953  30.095  16.728   8.126
 1769POPC   C4A24954  30.267  16.550   7.756
 1769POPC   C1B24955  29.625  16.990   8.755
 1769POPC   C2B24956  29.627  16.860   8.336
 1769POPC   C3B24957  29.583  16.991   7.914
 1769POPC   C4B24958  29.918  16.909   7.663
 1770POPC   NC324959  44.060   4.034  10.027
 1770POPC   PO424960  43.946   4.358   9.481
 1770POPC   GL124961  43.921   4.387   9.076
 1770POPC   GL224962  43.582   4.422   9.075
 1770POPC   C1A24963  43.883   4.098   8.743
 1770POPC   D2A24964  44.071   3.932   8.369
 1770POPC   C3A24965  44.197   4.258   8.082
 1770POPC   C4A24966  44.186   4.411   7.680
 1770POPC   C1B24967  43.670   4.603   8.687
 1770POPC   C2B24968  43.774   4.407   8.331
 1770POPC   C3B24969  43.755   4.522   7.941
 1770POPC   C4B24970  43.714   4.403   7.530
 1771POPC   NC324971  19.293  17.202   9.532
 1771POPC   PO424972  18.848  17.668   9.766
 1771POPC   GL124973  18.966  17.568   9.297
 1771POPC   GL224974  18.912  17.220   9.164
 1771POPC   C1A24975  19.198  17.526   8.864
 1771POPC   D2A24976  19.003  17.517   8.442
 1771POPC   C3A24977  19.140  17.451   8.049
 1771POPC   C4A24978  19.200  17.863   7.914
 1771POPC   C1B24979  18.912  17.035   8.737
 1771POPC   C2B24980  18.980  16.940   8.312
 1771POPC   C3B24981  18.881  17.028   7.874
 1771POPC   C4B24982  18.901  17.343   7.581
 1772POPC   NC324983  31.105   7.153   9.394
 1772POPC   PO424984  30.485   7.160   9.664
 1772POPC   GL124985  30.716   7.378   9.219
 1772POPC   GL224986  30.778   7.103   8.992
 1772POPC   C1A24987  30.631   7.559   8.765
 1772POPC   D2A24988  30.492   7.702   8.337
 1772POPC   C3A24989  30.634   7.538   7.910
 1772POPC   C4A24990  30.982   7.325   7.738
 1772POPC   C1B24991  30.510   7.018   8.638
 1772POPC   C2B24992  30.437   7.188   8.229
 1772POPC   C3B24993  30.569   7.010   7.811
 1772POPC   C4B24994  30.542   7.196   7.392
 1773POPC   NC324995  32.483  44.364   9.465
 1773POPC   PO424996  31.870  44.742   9.425
 1773POPC   GL124997  32.272  44.760   9.207
 1773POPC   GL224998  32.161  44.434   9.081
 1773POPC   C1A24999  32.506  44.884   8.799
 1773POPC   D2A25000  32.305  44.913   8.360
 1773POPC   C3A25001  32.480  44.904   7.945
 1773POPC   C4A25002  32.028  44.939   7.818
 1773POPC   C1B25003  32.042  44.689   8.755
 1773POPC   C2B25004  32.092  44.449   8.400
 1773POPC   C3B25005  32.235  44.480   8.002
 1773POPC   C4B25006  32.064  44.474   7.621
 1774POPC   NC325007  11.450  44.453   9.701
 1774POPC   PO425008  11.342   0.072   9.596
 1774POPC   GL125009  11.444  44.807   9.199
 1774POPC   GL225010  11.383  44.472   9.180
 1774POPC   C1A25011  11.515  44.722   8.741
 1774POPC   D2A25012  11.631  44.572   8.326
 1774POPC   C3A25013  11.349  44.719   8.031
 1774POPC   C4A25014  11.107   0.050   7.998
 1774POPC   C1B25015  11.050  44.552   8.841
 1774POPC   C2B25016  11.006  44.715   8.437
 1774POPC   C3B25017  10.853  44.588   8.035
 1774POPC   C4B25018  10.991  44.443   7.613
 1775POPC   NC325019  44.054  28.386   9.530
 1775POPC   PO425020  43.602  27.923   9.707
 1775POPC   GL125021  43.614  28.266   9.286
 1775POPC   GL225022  43.794  28.604   9.156
 1775POPC   C1A25023  43.896  28.206   8.879
 1775POPC   D2A25024  44.006  28.023   8.486
 1775POPC   C3A25025  44.045  28.241   8.138
 1775POPC   C4A25026  43.690  28.414   7.976
 1775POPC   C1B25027  44.143  28.673   8.843
 1775POPC   C2B25028  44.345  28.575   8.432
 1775POPC   C3B25029  44.171  28.702   8.013
 1775POPC   C4B25030  44.079  28.906   7.642
 1776POPC   NC325031   6.383   0.651   9.467
 1776POPC   PO425032   6.843   0.148   9.565
 1776POPC   GL125033   6.763   0.403   9.228
 1776POPC   GL225034   6.673   0.131   9.013
 1776POPC   C1A25035   6.819   0.601   8.835
 1776POPC   D2A25036   6.986   0.412   8.463
 1776POPC   C3A25037   6.904   0.625   8.089
 1776POPC   C4A25038   6.818   0.534   7.682
 1776POPC   C1B25039   6.461   0.267   8.630
 1776POPC   C2B25040   6.556   0.242   8.189
 1776POPC   C3B25041   6.414   0.270   7.779
 1776POPC   C4B25042   6.345   0.459   7.356
 1777POPC   NC325043   7.870   4.582   9.458
 1777POPC   PO425044   8.292   4.072   9.437
 1777POPC   GL125045   8.550   4.223   9.114
 1777POPC   GL225046   8.562   4.598   9.134
 1777POPC   C1A25047   8.429   4.086   8.697
 1777POPC   D2A25048   8.046   3.966   8.434
 1777POPC   C3A25049   8.067   4.094   8.003
 1777POPC   C4A25050   8.421   4.266   7.767
 1777POPC   C1B25051   8.179   4.505   8.860
 1777POPC   C2B25052   8.042   4.527   8.407
 1777POPC   C3B25053   7.872   4.568   7.976
 1777POPC   C4B25054   8.142   4.689   7.635
 1778POPC   NC325055  17.319  19.446   9.583
 1778POPC   PO425056  17.716  19.962   9.527
 1778POPC   GL125057  17.677  19.608   9.229
 1778POPC   GL225058  17.365  19.759   9.114
 1778POPC   C1A25059  17.631  19.374   8.826
 1778POPC   D2A25060  17.486  19.524   8.436
 1778POPC   C3A25061  17.440  19.342   8.040
 1778POPC   C4A25062  17.733  19.319   7.714
 1778POPC   C1B25063  17.629  19.891   8.757
 1778POPC   C2B25064  17.539  20.006   8.313
 1778POPC   C3B25065  17.646  19.792   7.892
 1778POPC   C4B25066  17.810  20.027   7.526
 1779POPC   NC325067  19.849  19.609   9.518
 1779POPC   PO425068  20.020  19.005   9.588
 1779POPC   GL125069  19.847  19.103   9.165
 1779POPC   GL225070  19.501  19.133   9.156
 1779POPC   C1A25071  19.828  18.983   8.702
 1779POPC   D2A25072  19.928  18.869   8.266
 1779POPC   C3A25073  19.957  19.005   7.848
 1779POPC   C4A25074  19.994  18.746   7.488
 1779POPC   C1B25075  19.543  19.390   8.779
 1779POPC   C2B25076  19.620  19.289   8.313
 1779POPC   C3B25077  19.555  19.341   7.860
 1779POPC   C4B25078  19.677  19.182   7.437
 1780POPC   NC325079   3.007   4.503   9.493
 1780POPC   PO425080   2.787   3.887   9.535
 1780POPC   GL125081   2.762   4.140   9.201
 1780POPC   GL225082   2.498   4.440   9.220
 1780POPC   C1A25083   3.058   4.100   8.847
 1780POPC   D2A25084   2.900   3.963   8.461
 1780POPC   C3A25085   2.972   4.137   8.082
 1780POPC   C4A25086   2.689   4.078   7.775
 1780POPC   C1B25087   2.667   4.401   8.789
 1780POPC   C2B25088   2.865   4.483   8.440
 1780POPC   C3B25089   2.652   4.516   8.062
 1780POPC   C4B25090   2.859   4.591   7.686
 1781POPC   NC325091  36.468   0.349   9.389
 1781POPC   PO425092  35.799   0.453   9.428
 1781POPC   GL125093  36.092   0.549   9.123
 1781POPC   GL225094  35.867   0.647   8.886
 1781POPC   C1A25095  36.233   0.322   8.756
 1781POPC   D2A25096  35.901   0.327   8.451
 1781POPC   C3A25097  36.114   0.506   8.143
 1781POPC   C4A25098  36.457   0.312   7.860
 1781POPC   C1B25099  36.252   0.833   8.675
 1781POPC   C2B25100  36.446   0.962   8.267
 1781POPC   C3B25101  36.357   0.811   7.828
 1781POPC   C4B25102  35.958   0.621   7.678
 1782POPC   NC325103  31.917   6.685   9.449
 1782POPC   PO425104  32.588   6.523   9.530
 1782POPC   GL125105  32.417   6.683   9.153
 1782POPC   GL225106  32.184   6.432   9.098
 1782POPC   C1A25107  32.255   6.773   8.722
 1782POPC   D2A25108  32.310   6.946   8.318
 1782POPC   C3A25109  32.117   6.817   7.955
 1782POPC   C4A25110  32.393   6.592   7.726
 1782POPC   C1B25111  32.200   6.263   8.677
 1782POPC   C2B25112  32.184   6.411   8.260
 1782POPC   C3B25113  31.936   6.317   7.898
 1782POPC   C4B25114  32.069   6.297   7.463
 1783POPC   NC325115   8.889  42.451   9.435
 1783POPC   PO425116   9.194  42.988   9.461
 1783POPC   GL125117   9.259  42.609   9.127
 1783POPC   GL225118   8.924  42.490   8.935
 1783POPC   C1A25119   9.377  42.368   8.731
 1783POPC   D2A25120   9.054  42.366   8.435
 1783POPC   C3A25121   9.078  42.567   8.067
 1783POPC   C4A25122   8.756  42.697   7.839
 1783POPC   C1B25123   8.966  42.023   8.851
 1783POPC   C2B25124   9.106  41.858   8.449
 1783POPC   C3B25125   8.927  41.984   8.082
 1783POPC   C4B25126   8.914  42.223   7.694
 1784POPC   NC325127  17.816  23.768   9.316
 1784POPC   PO425128  17.336  24.082   9.771
 1784POPC   GL125129  17.235  23.838   9.281
 1784POPC   GL225130  17.393  23.498   9.280
 1784POPC   C1A25131  17.399  23.884   8.800
 1784POPC   D2A25132  17.751  23.746   8.549
 1784POPC   C3A25133  17.653  23.678   8.119
 1784POPC   C4A25134  17.729  23.966   7.747
 1784POPC   C1B25135  17.520  23.366   8.860
 1784POPC   C2B25136  17.337  23.391   8.439
 1784POPC   C3B25137  17.321  23.239   8.003
 1784POPC   C4B25138  17.707  23.281   7.808
 1785POPC   NC325139  41.309  28.247   9.547
 1785POPC   PO425140  41.897  28.590   9.565
 1785POPC   GL125141  41.514  28.619   9.267
 1785POPC   GL225142  41.709  28.766   9.109
 1785POPC   C1A25143  41.341  28.640   8.789
 1785POPC   D2A25144  41.149  28.642   8.338
 1785POPC   C3A25145  41.344  28.508   7.931
 1785POPC   C4A25146  41.615  28.174   7.913
 1785POPC   C1B25147  41.863  28.618   8.741
 1785POPC   C2B25148  41.657  28.601   8.377
 1785POPC   C3B25149  41.839  28.630   8.028
 1785POPC   C4B25150  41.726  28.739   7.657
 1786POPC   NC325151  16.025   9.395   9.514
 1786POPC   PO425152  15.594   9.945   9.533
 1786POPC   GL125153  15.765   9.764   9.210
 1786POPC   GL225154  16.144   9.746   9.152
 1786POPC   C1A25155  15.768   9.867   8.816
 1786POPC   D2A25156  15.858   9.577   8.507
 1786POPC   C3A25157  15.663   9.588   8.101
 1786POPC   C4A25158  15.608   9.910   7.778
 1786POPC   C1B25159  16.270   9.888   8.733
 1786POPC   C2B25160  16.349   9.662   8.369
 1786POPC   C3B25161  16.191   9.649   7.986
 1786POPC   C4B25162  16.132   9.462   7.620
 1787POPC   NC325163  12.798  35.246   9.580
 1787POPC   PO425164  12.884  35.863   9.460
 1787POPC   GL125165  12.982  35.469   9.161
 1787POPC   GL225166  12.727  35.189   9.094
 1787POPC   C1A25167  13.085  35.243   8.741
 1787POPC   D2A25168  12.939  35.102   8.328
 1787POPC   C3A25169  13.132  35.334   7.986
 1787POPC   C4A25170  13.214  35.363   7.555
 1787POPC   C1B25171  12.592  35.449   8.772
 1787POPC   C2B25172  12.502  35.344   8.372
 1787POPC   C3B25173  12.629  35.390   7.988
 1787POPC   C4B25174  12.771  35.588   7.632
 1788POPC   NC325175  33.573  13.876   9.241
 1788POPC   PO425176  34.162  13.670   9.421
 1788POPC   GL125177  33.891  13.514   9.121
 1788POPC   GL225178  33.639  13.244   9.231
 1788POPC   C1A25179  33.890  13.715   8.710
 1788POPC   D2A25180  33.926  13.543   8.340
 1788POPC   C3A25181  33.751  13.820   8.035
 1788POPC   C4A25182  33.944  13.930   7.674
 1788POPC   C1B25183  33.494  13.370   8.827
 1788POPC   C2B25184  33.428  13.602   8.447
 1788POPC   C3B25185  33.514  13.383   8.064
 1788POPC   C4B25186  33.664  13.437   7.658
 1789POPC   NC325187  14.868   6.843   9.596
 1789POPC   PO425188  15.479   6.802   9.433
 1789POPC   GL125189  15.335   6.655   9.136
 1789POPC   GL225190  15.101   6.404   9.263
 1789POPC   C1A25191  15.328   6.877   8.762
 1789POPC   D2A25192  15.090   6.886   8.413
 1789POPC   C3A25193  15.360   6.971   8.103
 1789POPC   C4A25194  15.258   6.867   7.714
 1789POPC   C1B25195  15.022   6.455   8.808
 1789POPC   C2B25196  15.299   6.415   8.458
 1789POPC   C3B25197  15.164   6.478   8.036
 1789POPC   C4B25198  15.011   6.319   7.642
 1790POPC   NC325199   0.300   6.505   9.537
 1790POPC   PO425200   0.916   6.861   9.561
 1790POPC   GL125201   0.621   6.804   9.255
 1790POPC   GL225202   0.639   6.475   9.163
 1790POPC   C1A25203   0.463   6.878   8.837
 1790POPC   D2A25204   0.242   6.767   8.421
 1790POPC   C3A25205   0.419   6.922   8.017
 1790POPC   C4A25206   0.563   6.790   7.600
 1790POPC   C1B25207   0.419   6.377   8.792
 1790POPC   C2B25208   0.448   6.181   8.405
 1790POPC   C3B25209   0.315   6.377   8.061
 1790POPC   C4B25210   0.450   6.300   7.659
 1791POPC   NC325211  13.545  16.954   9.911
 1791POPC   PO425212  13.859  17.521   9.581
 1791POPC   GL125213  13.638  17.577   9.121
 1791POPC   GL225214  13.271  17.595   9.148
 1791POPC   C1A25215  13.645  17.490   8.653
 1791POPC   D2A25216  13.682  17.701   8.222
 1791POPC   C3A25217  13.872  17.473   7.849
 1791POPC   C4A25218  14.026  17.642   7.417
 1791POPC   C1B25219  13.133  17.472   8.741
 1791POPC   C2B25220  13.171  17.650   8.319
 1791POPC   C3B25221  13.322  17.540   7.881
 1791POPC   C4B25222  13.497  17.472   7.449
 1792POPC   NC325223  25.992  28.032   9.523
 1792POPC   PO425224  26.158  28.637   9.426
 1792POPC   GL125225  26.426  28.407   9.188
 1792POPC   GL225226  26.339  28.074   9.133
 1792POPC   C1A25227  26.438  28.511   8.759
 1792POPC   D2A25228  26.596  28.445   8.333
 1792POPC   C3A25229  26.468  28.667   7.956
 1792POPC   C4A25230  26.029  28.678   7.805
 1792POPC   C1B25231  26.023  28.153   8.806
 1792POPC   C2B25232  25.827  28.401   8.456
 1792POPC   C3B25233  25.740  28.317   8.024
 1792POPC   C4B25234  26.057  28.193   7.696
 1793POPC   NC325235  21.351  13.257   9.414
 1793POPC   PO425236  21.301  12.665   9.653
 1793POPC   GL125237  21.261  12.829   9.161
 1793POPC   GL225238  21.022  13.066   9.064
 1793POPC   C1A25239  21.130  12.737   8.704
 1793POPC   D2A25240  20.824  12.596   8.388
 1793POPC   C3A25241  21.094  12.534   8.041
 1793POPC   C4A25242  21.495  12.636   7.930
 1793POPC   C1B25243  21.335  13.223   8.724
 1793POPC   C2B25244  21.386  13.049   8.275
 1793POPC   C3B25245  21.330  13.097   7.837
 1793POPC   C4B25246  21.041  12.919   7.533
 1794POPC   NC325247  30.301  27.575   9.512
 1794POPC   PO425248  29.644  27.824   9.471
 1794POPC   GL125249  29.739  27.681   9.097
 1794POPC   GL225250  30.013  27.522   9.109
 1794POPC   C1A25251  29.700  27.485   8.704
 1794POPC   D2A25252  29.885  27.639   8.364
 1794POPC   C3A25253  29.699  27.641   7.980
 1794POPC   C4A25254  29.884  27.322   7.751
 1794POPC   C1B25255  30.150  27.836   8.794
 1794POPC   C2B25256  30.210  28.025   8.370
 1794POPC   C3B25257  30.179  27.821   7.962
 1794POPC   C4B25258  30.275  27.627   7.558
 1795POPC   NC325259  21.557   6.184   9.964
 1795POPC   PO425260  21.337   5.711   9.555
 1795POPC   GL125261  21.238   5.783   9.140
 1795POPC   GL225262  21.520   5.568   9.025
 1795POPC   C1A25263  21.354   5.966   8.755
 1795POPC   D2A25264  21.661   5.781   8.461
 1795POPC   C3A25265  21.593   5.905   8.044
 1795POPC   C4A25266  21.321   6.223   7.872
 1795POPC   C1B25267  21.225   5.491   8.656
 1795POPC   C2B25268  21.133   5.572   8.227
 1795POPC   C3B25269  21.308   5.532   7.821
 1795POPC   C4B25270  21.755   5.529   7.723
 1796POPC   NC325271  27.354  36.544   9.424
 1796POPC   PO425272  26.704  36.548   9.429
 1796POPC   GL125273  26.934  36.797   9.157
 1796POPC   GL225274  26.689  37.082   9.064
 1796POPC   C1A25275  27.115  36.704   8.756
 1796POPC   D2A25276  26.879  36.754   8.357
 1796POPC   C3A25277  26.963  36.734   7.897
 1796POPC   C4A25278  26.662  36.454   7.641
 1796POPC   C1B25279  27.055  37.192   8.830
 1796POPC   C2B25280  27.103  37.211   8.411
 1796POPC   C3B25281  26.789  37.195   8.069
 1796POPC   C4B25282  26.858  37.192   7.641
 1797POPC   NC325283   8.880  28.903   9.381
 1797POPC   PO425284   9.031  29.410   9.716
 1797POPC   GL125285   9.199  29.354   9.250
 1797POPC   GL225286   8.883  29.370   9.148
 1797POPC   C1A25287   9.272  29.166   8.800
 1797POPC   D2A25288   9.237  28.971   8.369
 1797POPC   C3A25289   8.919  28.938   8.046
 1797POPC   C4A25290   8.538  28.769   7.889
 1797POPC   C1B25291   8.968  29.565   8.756
 1797POPC   C2B25292   8.920  29.375   8.379
 1797POPC   C3B25293   9.104  29.414   8.011
 1797POPC   C4B25294   8.910  29.629   7.693
 1798POPC   NC325295  22.841  33.381   9.466
 1798POPC   PO425296  23.061  32.747   9.693
 1798POPC   GL125297  23.042  32.949   9.267
 1798POPC   GL225298  22.668  32.947   9.250
 1798POPC   C1A25299  22.982  33.078   8.812
 1798POPC   D2A25300  23.101  32.991   8.372
 1798POPC   C3A25301  23.045  33.261   7.992
 1798POPC   C4A25302  22.709  33.482   7.725
 1798POPC   C1B25303  22.648  32.688   8.892
 1798POPC   C2B25304  22.750  32.633   8.465
 1798POPC   C3B25305  22.699  32.859   8.048
 1798POPC   C4B25306  22.948  32.818   7.665
 1799POPC   NC325307  24.723  19.333   9.575
 1799POPC   PO425308  24.421  20.080   9.561
 1799POPC   GL125309  24.337  19.945   9.165
 1799POPC   GL225310  24.400  19.604   9.205
 1799POPC   C1A25311  24.584  19.926   8.788
 1799POPC   D2A25312  24.813  20.018   8.410
 1799POPC   C3A25313  24.537  19.963   8.054
 1799POPC   C4A25314  24.701  19.996   7.642
 1799POPC   C1B25315  24.201  19.587   8.797
 1799POPC   C2B25316  24.083  19.775   8.387
 1799POPC   C3B25317  24.112  19.601   7.971
 1799POPC   C4B25318  24.198  19.884   7.661
 1800POPC   NC325319  10.072  35.085   9.800
 1800POPC   PO425320  10.615  35.084   9.361
 1800POPC   GL125321  10.571  35.445   9.084
 1800POPC   GL225322  10.683  35.185   8.851
 1800POPC   C1A25323  10.668  35.638   8.666
 1800POPC   D2A25324  10.638  35.334   8.331
 1800POPC   C3A25325  10.399  35.462   7.980
 1800POPC   C4A25326  10.534  35.666   7.660
 1800POPC   C1B25327  10.309  35.038   8.651
 1800POPC   C2B25328  10.128  35.165   8.291
 1800POPC   C3B25329  10.421  34.950   8.030
 1800POPC   C4B25330  10.793  35.151   7.852
 1801POPC   NC325331  31.942   0.205   9.469
 1801POPC   PO425332  32.399   0.604   9.612
 1801POPC   GL125333  32.298   0.604   9.202
 1801POPC   GL225334  32.263   0.259   9.066
 1801POPC   C1A25335  32.528   0.645   8.839
 1801POPC   D2A25336  32.471   0.345   8.540
 1801POPC   C3A25337  32.394   0.376   8.100
 1801POPC   C4A25338  32.284   0.685   7.812
 1801POPC   C1B25339  31.988   0.485   8.795
 1801POPC   C2B25340  32.046   0.621   8.379
 1801POPC   C3B25341  31.884   0.393   8.003
 1801POPC   C4B25342  31.899   0.387   7.557
 1802POPC   NC325343  16.946  41.521   9.508
 1802POPC   PO425344  16.368  41.708   9.729
 1802POPC   GL125345  16.563  41.326   9.284
 1802POPC   GL225346  16.314  41.240   9.048
 1802POPC   C1A25347  16.794  41.291   8.883
 1802POPC   D2A25348  17.002  41.416   8.511
 1802POPC   C3A25349  16.935  41.167   8.148
 1802POPC   C4A25350  16.735  41.323   7.801
 1802POPC   C1B25351  16.329  41.444   8.626
 1802POPC   C2B25352  16.579  41.574   8.243
 1802POPC   C3B25353  16.622  41.826   7.866
 1802POPC   C4B25354  16.334  41.910   7.551
 1803POPC   NC325355  15.063  33.907   9.620
 1803POPC   PO425356  15.463  33.385   9.458
 1803POPC   GL125357  15.329  33.729   9.215
 1803POPC   GL225358  14.973  33.691   9.145
 1803POPC   C1A25359  15.388  33.763   8.792
 1803POPC   D2A25360  15.210  33.518   8.454
 1803POPC   C3A25361  15.240  33.660   8.033
 1803POPC   C4A25362  14.889  33.716   7.764
 1803POPC   C1B25363  14.925  33.990   8.843
 1803POPC   C2B25364  15.123  34.044   8.459
 1803POPC   C3B25365  14.986  34.108   8.074
 1803POPC   C4B25366  15.192  34.106   7.695
 1804POPC   NC325367  17.459  41.188   9.586
 1804POPC   PO425368  17.777  40.625   9.789
 1804POPC   GL125369  17.557  40.737   9.334
 1804POPC   GL225370  17.732  41.041   9.191
 1804POPC   C1A25371  17.473  40.770   8.842
 1804POPC   D2A25372  17.331  40.583   8.407
 1804POPC   C3A25373  17.339  40.840   8.078
 1804POPC   C4A25374  17.477  40.686   7.692
 1804POPC   C1B25375  17.920  41.019   8.781
 1804POPC   C2B25376  17.802  40.802   8.413
 1804POPC   C3B25377  17.818  40.972   8.010
 1804POPC   C4B25378  17.692  41.171   7.633
 1805POPC   NC325379  27.923  24.782  10.137
 1805POPC   PO425380  27.689  24.293   9.725
 1805POPC   GL125381  27.508  24.290   9.266
 1805POPC   GL225382  27.686  24.538   9.115
 1805POPC   C1A25383  27.384  24.369   8.760
 1805POPC   D2A25384  27.346  24.696   8.406
 1805POPC   C3A25385  27.504  24.469   8.034
 1805POPC   C4A25386  27.788  24.108   8.068
 1805POPC   C1B25387  27.794  24.731   8.723
 1805POPC   C2B25388  27.966  24.580   8.334
 1805POPC   C3B25389  27.945  24.670   7.894
 1805POPC   C4B25390  27.607  24.932   7.782
 1806POPC   NC325391  21.095   8.585   9.576
 1806POPC   PO425392  20.778   9.217   9.455
 1806POPC   GL125393  21.152   9.107   9.221
 1806POPC   GL225394  21.361   8.781   9.172
 1806POPC   C1A25395  21.166   9.050   8.784
 1806POPC   D2A25396  21.104   8.799   8.430
 1806POPC   C3A25397  21.169   9.042   8.061
 1806POPC   C4A25398  21.255   9.039   7.613
 1806POPC   C1B25399  21.459   8.620   8.745
 1806POPC   C2B25400  21.636   8.645   8.317
 1806POPC   C3B25401  21.579   8.782   7.909
 1806POPC   C4B25402  21.723   9.231   7.859
 1807POPC   NC325403  17.916  22.777   9.569
 1807POPC   PO425404  18.459  23.048   9.753
 1807POPC   GL125405  18.311  22.977   9.297
 1807POPC   GL225406  18.000  23.145   9.177
 1807POPC   C1A25407  18.421  22.997   8.845
 1807POPC   D2A25408  18.545  22.802   8.481
 1807POPC   C3A25409  18.417  22.932   8.099
 1807POPC   C4A25410  18.527  22.919   7.670
 1807POPC   C1B25411  17.975  22.766   8.912
 1807POPC   C2B25412  18.058  22.611   8.511
 1807POPC   C3B25413  18.094  22.503   8.094
 1807POPC   C4B25414  18.036  22.796   7.755
 1808POPC   NC325415   2.223   7.757   9.323
 1808POPC   PO425416   1.869   8.260   9.638
 1808POPC   GL125417   1.995   8.323   9.200
 1808POPC   GL225418   1.781   8.590   9.075
 1808POPC   C1A25419   2.107   8.406   8.743
 1808POPC   D2A25420   2.220   8.215   8.336
 1808POPC   C3A25421   2.120   8.381   7.951
 1808POPC   C4A25422   2.026   8.046   7.708
 1808POPC   C1B25423   1.574   8.371   8.719
 1808POPC   C2B25424   1.683   8.269   8.290
 1808POPC   C3B25425   1.619   8.330   7.859
 1808POPC   C4B25426   1.635   8.221   7.425
 1809POPC   NC325427   8.867   5.804   9.610
 1809POPC   PO425428   9.418   6.236   9.601
 1809POPC   GL125429   9.220   5.933   9.229
 1809POPC   GL225430   8.835   5.791   9.125
 1809POPC   C1A25431   9.139   5.988   8.779
 1809POPC   D2A25432   8.971   6.181   8.414
 1809POPC   C3A25433   8.817   6.066   8.035
 1809POPC   C4A25434   8.688   6.276   7.677
 1809POPC   C1B25435   8.639   5.845   8.739
 1809POPC   C2B25436   8.806   5.669   8.363
 1809POPC   C3B25437   8.586   5.607   7.971
 1809POPC   C4B25438   8.626   5.565   7.529
 1810POPC   NC325439   5.243  40.510   9.393
 1810POPC   PO425440   4.867  40.948   9.635
 1810POPC   GL125441   4.878  40.852   9.203
 1810POPC   GL225442   4.796  41.214   9.188
 1810POPC   C1A25443   5.017  40.666   8.779
 1810POPC   D2A25444   5.013  40.532   8.329
 1810POPC   C3A25445   5.193  40.845   8.033
 1810POPC   C4A25446   5.330  40.739   7.613
 1810POPC   C1B25447   4.699  41.112   8.797
 1810POPC   C2B25448   4.842  40.995   8.420
 1810POPC   C3B25449   4.680  40.989   8.035
 1810POPC   C4B25450   4.910  41.083   7.642
 1811POPC   NC325451   3.664  35.087   9.595
 1811POPC   PO425452   3.871  35.644   9.663
 1811POPC   GL125453   3.648  35.404   9.220
 1811POPC   GL225454   3.483  35.047   9.125
 1811POPC   C1A25455   3.514  35.472   8.805
 1811POPC   D2A25456   3.518  35.586   8.381
 1811POPC   C3A25457   3.316  35.279   8.160
 1811POPC   C4A25458   3.333  35.229   7.739
 1811POPC   C1B25459   3.805  35.052   8.780
 1811POPC   C2B25460   3.781  35.133   8.334
 1811POPC   C3B25461   3.813  35.299   7.935
 1811POPC   C4B25462   3.785  35.079   7.535
 1812POPC   NC325463  44.599  30.824   9.433
 1812POPC   PO425464  44.953  30.174   9.475
 1812POPC   GL125465  44.809  30.440   9.154
 1812POPC   GL225466  44.460  30.498   9.072
 1812POPC   C1A25467  44.813  30.697   8.775
 1812POPC   D2A25468   0.107  30.846   8.522
 1812POPC   C3A25469  44.900  30.842   8.159
 1812POPC   C4A25470  44.822  30.948   7.780
 1812POPC   C1B25471  44.311  30.817   8.799
 1812POPC   C2B25472  44.451  31.017   8.436
 1812POPC   C3B25473  44.383  30.993   8.034
 1812POPC   C4B25474  44.404  30.644   7.802
 1813POPC   NC325475  40.972   0.747   9.417
 1813POPC   PO425476  40.611   0.195   9.428
 1813POPC   GL125477  40.831   0.206   9.066
 1813POPC   GL225478  41.150   0.329   9.179
 1813POPC   C1A25479  40.708   0.263   8.630
 1813POPC   D2A25480  40.779   0.070   8.234
 1813POPC   C3A25481  40.657   0.364   7.938
 1813POPC   C4A25482  40.627   0.374   7.497
 1813POPC   C1B25483  41.278   0.688   8.867
 1813POPC   C2B25484  41.100   0.569   8.486
 1813POPC   C3B25485  41.206   0.582   8.081
 1813POPC   C4B25486  41.063   0.551   7.672
 1814POPC   NC325487  36.764  39.483   9.856
 1814POPC   PO425488  36.855  40.038   9.466
 1814POPC   GL125489  36.937  40.084   9.074
 1814POPC   GL225490  36.803  39.738   9.020
 1814POPC   C1A25491  37.145  39.938   8.723
 1814POPC   D2A25492  36.988  39.872   8.338
 1814POPC   C3A25493  37.055  40.108   7.986
 1814POPC   C4A25494  37.193  39.827   7.696
 1814POPC   C1B25495  36.605  39.973   8.678
 1814POPC   C2B25496  36.476  39.930   8.258
 1814POPC   C3B25497  36.703  39.752   7.926
 1814POPC   C4B25498  36.715  39.950   7.537
 1815POPC   NC325499  23.932  12.919   9.591
 1815POPC   PO425500  23.292  13.217   9.533
 1815POPC   GL125501  23.604  13.051   9.186
 1815POPC   GL225502  23.697  12.714   9.162
 1815POPC   C1A25503  23.736  13.104   8.741
 1815POPC   D2A25504  23.768  13.296   8.324
 1815POPC   C3A25505  23.563  13.183   7.968
 1815POPC   C4A25506  23.758  13.011   7.638
 1815POPC   C1B25507  23.912  12.576   8.808
 1815POPC   C2B25508  23.722  12.500   8.423
 1815POPC   C3B25509  23.793  12.638   8.008
 1815POPC   C4B25510  23.845  12.346   7.674
 1816POPC   NC325511  37.065  35.385   9.489
 1816POPC   PO425512  36.601  34.981   9.122
 1816POPC   GL125513  36.881  35.270   9.025
 1816POPC   GL225514  37.181  35.071   9.082
 1816POPC   C1A25515  36.873  35.374   8.603
 1816POPC   D2A25516  36.649  35.398   8.238
 1816POPC   C3A25517  36.866  35.573   7.900
 1816POPC   C4A25518  36.513  35.460   7.666
 1816POPC   C1B25519  37.199  34.939   8.649
 1816POPC   C2B25520  37.192  35.135   8.242
 1816POPC   C3B25521  36.902  35.068   7.886
 1816POPC   C4B25522  36.942  35.230   7.486
 1817POPC   NC325523  41.683  44.331   9.506
 1817POPC   PO425524  41.430  44.981   9.512
 1817POPC   GL125525  41.640  44.766   9.179
 1817POPC   GL225526  41.397  44.508   9.135
 1817POPC   C1A25527  41.595  44.752   8.727
 1817POPC   D2A25528  41.765  44.746   8.345
 1817POPC   C3A25529  41.542  44.714   7.978
 1817POPC   C4A25530  41.821  44.754   7.641
 1817POPC   C1B25531  41.258  44.332   8.759
 1817POPC   C2B25532  41.406  44.324   8.319
 1817POPC   C3B25533  41.300  44.189   7.917
 1817POPC   C4B25534  41.415  44.419   7.550
 1818POPC   NC325535  11.081  13.903   9.301
 1818POPC   PO425536  11.178  13.381   9.699
 1818POPC   GL125537  11.235  13.422   9.197
 1818POPC   GL225538  11.562  13.354   9.095
 1818POPC   C1A25539  11.329  13.613   8.724
 1818POPC   D2A25540  11.560  13.733   8.334
 1818POPC   C3A25541  11.302  13.715   8.036
 1818POPC   C4A25542  11.308  13.556   7.662
 1818POPC   C1B25543  11.639  13.202   8.707
 1818POPC   C2B25544  11.892  13.192   8.369
 1818POPC   C3B25545  11.643  13.305   8.055
 1818POPC   C4B25546  11.715  13.270   7.649
 1819POPC   NC325547  34.598  32.326   9.538
 1819POPC   PO425548  34.126  31.878   9.544
 1819POPC   GL125549  34.239  32.236   9.195
 1819POPC   GL225550  34.496  32.542   9.119
 1819POPC   C1A25551  34.433  32.226   8.749
 1819POPC   D2A25552  34.572  32.095   8.346
 1819POPC   C3A25553  34.499  32.323   7.962
 1819POPC   C4A25554  34.489  32.220   7.515
 1819POPC   C1B25555  34.797  32.605   8.796
 1819POPC   C2B25556  34.674  32.694   8.381
 1819POPC   C3B25557  34.922  32.671   8.010
 1819POPC   C4B25558  34.921  32.429   7.634
 1820POPC   NC325559  44.417  10.417   9.565
 1820POPC   PO425560  44.950  10.068   9.283
 1820POPC   GL125561  44.609  10.355   9.092
 1820POPC   GL225562  44.286  10.222   9.126
 1820POPC   C1A25563  44.715  10.633   8.747
 1820POPC   D2A25564  44.991  10.445   8.453
 1820POPC   C3A25565  44.876  10.389   8.003
 1820POPC   C4A25566  44.989  10.720   7.734
 1820POPC   C1B25567  44.208  10.572   8.816
 1820POPC   C2B25568  44.163  10.567   8.351
 1820POPC   C3B25569  44.428  10.646   7.977
 1820POPC   C4B25570  44.392  10.590   7.515
 1821POPC   NC325571  15.119   8.658   9.683
 1821POPC   PO425572  15.545   9.175   9.425
 1821POPC   GL125573  15.170   9.122   9.188
 1821POPC   GL225574  14.965   8.806   9.120
 1821POPC   C1A25575  15.058   9.186   8.777
 1821POPC   D2A25576  15.097   8.956   8.410
 1821POPC   C3A25577  15.221   9.133   8.040
 1821POPC   C4A25578  15.039   9.108   7.664
 1821POPC   C1B25579  14.753   8.689   8.700
 1821POPC   C2B25580  14.789   8.569   8.227
 1821POPC   C3B25581  15.036   8.599   7.820
 1821POPC   C4B25582  14.858   8.693   7.398
 1822POPC   NC325583  11.508  33.162   9.484
 1822POPC   PO425584  10.825  33.315   9.541
 1822POPC   GL125585  11.071  33.335   9.187
 1822POPC   GL225586  11.151  32.956   9.167
 1822POPC   C1A25587  11.033  33.218   8.760
 1822POPC   D2A25588  11.083  32.898   8.494
 1822POPC   C3A25589  11.124  33.114   8.133
 1822POPC   C4A25590  11.301  33.150   7.749
 1822POPC   C1B25591  11.465  32.920   8.826
 1822POPC   C2B25592  11.573  33.013   8.386
 1822POPC   C3B25593  11.752  32.913   7.973
 1822POPC   C4B25594  11.780  33.273   7.751
 1823POPC   NC325595  16.560   4.173   9.495
 1823POPC   PO425596  16.811   4.701   9.606
 1823POPC   GL125597  16.722   4.522   9.182
 1823POPC   GL225598  16.969   4.676   9.048
 1823POPC   C1A25599  16.472   4.284   8.830
 1823POPC   D2A25600  16.454   4.081   8.406
 1823POPC   C3A25601  16.528   4.257   7.969
 1823POPC   C4A25602  16.652   4.043   7.577
 1823POPC   C1B25603  16.902   4.511   8.678
 1823POPC   C2B25604  16.688   4.547   8.360
 1823POPC   C3B25605  16.875   4.626   7.986
 1823POPC   C4B25606  16.803   4.505   7.579
 1824POPC   NC325607  38.670  38.967   9.905
 1824POPC   PO425608  39.256  38.817   9.599
 1824POPC   GL125609  39.283  39.045   9.196
 1824POPC   GL225610  39.067  39.312   9.213
 1824POPC   C1A25611  39.356  39.169   8.755
 1824POPC   D2A25612  39.107  39.026   8.387
 1824POPC   C3A25613  39.328  38.965   8.022
 1824POPC   C4A25614  39.277  39.211   7.648
 1824POPC   C1B25615  38.856  39.220   8.813
 1824POPC   C2B25616  38.904  39.486   8.445
 1824POPC   C3B25617  39.069  39.464   8.048
 1824POPC   C4B25618  38.784  39.351   7.725
 1825POPC   NC325619  28.225  39.356   9.632
 1825POPC   PO425620  28.908  39.242   9.537
 1825POPC   GL125621  28.696  39.281   9.173
 1825POPC   GL225622  28.404  39.105   9.228
 1825POPC   C1A25623  28.623  39.053   8.785
 1825POPC   D2A25624  28.467  38.828   8.438
 1825POPC   C3A25625  28.466  39.041   8.048
 1825POPC   C4A25626  28.674  39.335   7.796
 1825POPC   C1B25627  28.231  39.357   8.882
 1825POPC   C2B25628  28.376  39.375   8.429
 1825POPC   C3B25629  28.319  39.604   8.031
 1825POPC   C4B25630  28.102  39.651   7.645
 1826POPC   NC325631  40.973  44.913   9.498
 1826POPC   PO425632  40.534  44.450   9.610
 1826POPC   GL125633  40.550  44.696   9.232
 1826POPC   GL225634  40.884  44.560   9.163
 1826POPC   C1A25635  40.601  44.791   8.782
 1826POPC   D2A25636  40.600  44.569   8.383
 1826POPC   C3A25637  40.525  44.691   7.951
 1826POPC   C4A25638  40.761  44.916   7.675
 1826POPC   C1B25639  41.104  44.828   8.862
 1826POPC   C2B25640  41.112  44.729   8.450
 1826POPC   C3B25641  41.029  44.619   8.044
 1826POPC   C4B25642  40.914  44.421   7.664
 1827POPC   NC325643  22.498  16.125   9.857
 1827POPC   PO425644  21.872  16.077   9.476
 1827POPC   GL125645  22.054  16.069   9.062
 1827POPC   GL225646  22.400  16.093   8.964
 1827POPC   C1A25647  22.076  15.859   8.648
 1827POPC   D2A25648  22.285  16.068   8.287
 1827POPC   C3A25649  22.174  15.999   7.889
 1827POPC   C4A25650  21.823  15.730   7.965
 1827POPC   C1B25651  22.558  15.758   8.795
 1827POPC   C2B25652  22.569  15.613   8.402
 1827POPC   C3B25653  22.635  15.769   7.999
 1827POPC   C4B25654  22.640  15.966   7.586
 1828POPC   NC325655   8.106  26.864   9.663
 1828POPC   PO425656   7.935  26.349   9.424
 1828POPC   GL125657   8.246  26.620   9.197
 1828POPC   GL225658   8.345  26.980   9.146
 1828POPC   C1A25659   8.340  26.648   8.737
 1828POPC   D2A25660   8.465  26.753   8.289
 1828POPC   C3A25661   8.145  26.648   7.922
 1828POPC   C4A25662   7.777  26.418   7.658
 1828POPC   C1B25663   8.632  27.065   8.767
 1828POPC   C2B25664   8.613  27.250   8.336
 1828POPC   C3B25665   8.413  27.133   7.928
 1828POPC   C4B25666   8.549  27.334   7.539
 1829POPC   NC325667   0.493  29.185   9.689
 1829POPC   PO425668   0.553  28.538   9.558
 1829POPC   GL125669   0.300  28.891   9.299
 1829POPC   GL225670   0.337  29.283   9.220
 1829POPC   C1A25671   0.208  28.947   8.855
 1829POPC   D2A25672   0.457  29.054   8.481
 1829POPC   C3A25673   0.271  29.059   8.058
 1829POPC   C4A25674   0.144  29.183   7.635
 1829POPC   C1B25675   0.306  29.462   8.799
 1829POPC   C2B25676   0.115  29.434   8.384
 1829POPC   C3B25677   0.215  29.579   7.972
 1829POPC   C4B25678   0.584  29.426   7.786
 1830POPC   NC325679   5.555  15.927   9.424
 1830POPC   PO425680   6.156  16.226   9.547
 1830POPC   GL125681   6.058  15.937   9.225
 1830POPC   GL225682   5.813  16.188   9.093
 1830POPC   C1A25683   6.001  15.794   8.790
 1830POPC   D2A25684   5.893  16.076   8.439
 1830POPC   C3A25685   5.886  15.977   8.016
 1830POPC   C4A25686   5.518  15.834   7.795
 1830POPC   C1B25687   6.156  16.293   8.832
 1830POPC   C2B25688   6.220  16.462   8.420
 1830POPC   C3B25689   5.999  16.503   8.011
 1830POPC   C4B25690   5.810  16.330   7.645
 1831POPC   NC325691  18.385  14.287   9.377
 1831POPC   PO425692  17.880  14.681   9.480
 1831POPC   GL125693  18.176  14.688   9.103
 1831POPC   GL225694  18.549  14.620   9.053
 1831POPC   C1A25695  18.303  14.722   8.647
 1831POPC   D2A25696  18.457  14.826   8.274
 1831POPC   C3A25697  18.467  14.540   7.989
 1831POPC   C4A25698  18.156  14.248   7.862
 1831POPC   C1B25699  18.739  14.420   8.649
 1831POPC   C2B25700  18.855  14.267   8.224
 1831POPC   C3B25701  18.659  14.105   7.808
 1831POPC   C4B25702  18.505  14.405   7.465
 1832POPC   NC325703  27.105  15.154   9.404
 1832POPC   PO425704  26.658  15.590   9.727
 1832POPC   GL125705  26.576  15.281   9.262
 1832POPC   GL225706  26.713  14.930   9.161
 1832POPC   C1A25707  26.778  15.274   8.791
 1832POPC   D2A25708  27.113  15.285   8.470
 1832POPC   C3A25709  26.951  15.340   8.031
 1832POPC   C4A25710  26.763  15.455   7.594
 1832POPC   C1B25711  26.942  14.803   8.759
 1832POPC   C2B25712  26.737  14.954   8.391
 1832POPC   C3B25713  26.636  14.919   8.002
 1832POPC   C4B25714  26.894  14.956   7.682
 1833POPC   NC325715  26.182   1.899   9.662
 1833POPC   PO425716  25.605   2.172   9.903
 1833POPC   GL125717  25.802   1.915   9.351
 1833POPC   GL225718  26.134   2.005   9.181
 1833POPC   C1A25719  25.807   1.880   8.833
 1833POPC   D2A25720  25.676   1.859   8.362
 1833POPC   C3A25721  25.892   2.058   7.958
 1833POPC   C4A25722  26.304   2.230   7.723
 1833POPC   C1B25723  26.312   1.759   8.865
 1833POPC   C2B25724  26.184   1.738   8.417
 1833POPC   C3B25725  26.351   1.831   8.026
 1833POPC   C4B25726  26.639   1.851   7.690
 1834POPC   NC325727  40.350  28.481   9.709
 1834POPC   PO425728  39.752  28.129   9.577
 1834POPC   GL125729  39.934  28.266   9.207
 1834POPC   GL225730  40.223  28.463   9.208
 1834POPC   C1A25731  39.855  28.194   8.783
 1834POPC   D2A25732  40.052  28.063   8.405
 1834POPC   C3A25733  39.826  28.168   8.053
 1834POPC   C4A25734  39.956  28.225   7.616
 1834POPC   C1B25735  40.318  28.444   8.774
 1834POPC   C2B25736  40.133  28.581   8.410
 1834POPC   C3B25737  40.200  28.500   8.001
 1834POPC   C4B25738  40.290  28.692   7.628
 1835POPC   NC325739  38.160   1.370   9.581
 1835POPC   PO425740  38.757   1.449   9.372
 1835POPC   GL125741  38.412   1.412   9.129
 1835POPC   GL225742  38.382   1.067   9.124
 1835POPC   C1A25743  38.295   1.339   8.714
 1835POPC   D2A25744  38.334   1.524   8.344
 1835POPC   C3A25745  38.329   1.249   8.007
 1835POPC   C4A25746  38.330   1.466   7.628
 1835POPC   C1B25747  38.635   0.951   8.755
 1835POPC   C2B25748  38.428   0.842   8.382
 1835POPC   C3B25749  38.190   0.732   8.041
 1835POPC   C4B25750  38.366   0.818   7.711
 1836POPC   NC325751  41.638  21.445   9.617
 1836POPC   PO425752  41.136  21.043   9.459
 1836POPC   GL125753  41.411  21.309   9.178
 1836POPC   GL225754  41.734  21.154   9.208
 1836POPC   C1A25755  41.440  21.479   8.746
 1836POPC   D2A25756  41.436  21.242   8.361
 1836POPC   C3A25757  41.367  21.466   7.989
 1836POPC   C4A25758  41.727  21.596   7.729
 1836POPC   C1B25759  41.652  21.027   8.791
 1836POPC   C2B25760  41.915  21.105   8.405
 1836POPC   C3B25761  41.778  21.152   7.969
 1836POPC   C4B25762  41.872  21.023   7.546
 1837POPC   NC325763  29.830  19.935   9.660
 1837POPC   PO425764  30.162  20.258   9.255
 1837POPC   GL125765  30.004  19.803   9.168
 1837POPC   GL225766  29.792  19.537   9.315
 1837POPC   C1A25767  30.131  19.422   8.924
 1837POPC   D2A25768  30.121  19.260   8.491
 1837POPC   C3A25769  30.079  19.635   8.253
 1837POPC   C4A25770  30.033  19.861   7.859
 1837POPC   C1B25771  29.594  19.587   8.925
 1837POPC   C2B25772  29.651  19.867   8.575
 1837POPC   C3B25773  29.613  19.847   8.132
 1837POPC   C4B25774  29.626  19.520   7.832
 1838POPC   NC325775   7.123  32.812   9.379
 1838POPC   PO425776   6.494  32.817   9.665
 1838POPC   GL125777   6.681  33.056   9.276
 1838POPC   GL225778   6.452  33.315   9.169
 1838POPC   C1A25779   6.717  32.929   8.844
 1838POPC   D2A25780   6.586  32.991   8.435
 1838POPC   C3A25781   6.629  32.837   8.015
 1838POPC   C4A25782   6.816  32.983   7.620
 1838POPC   C1B25783   6.269  33.251   8.746
 1838POPC   C2B25784   6.097  33.023   8.356
 1838POPC   C3B25785   6.306  33.216   8.073
 1838POPC   C4B25786   6.361  33.303   7.699
 1839POPC   NC325787  38.703  11.306   9.726
 1839POPC   PO425788  38.100  11.114   9.592
 1839POPC   GL125789  38.347  11.447   9.277
 1839POPC   GL225790  38.742  11.450   9.184
 1839POPC   C1A25791  38.407  11.532   8.799
 1839POPC   D2A25792  38.430  11.287   8.382
 1839POPC   C3A25793  38.417  11.478   7.958
 1839POPC   C4A25794  38.401  11.387   7.514
 1839POPC   C1B25795  38.703  11.125   8.817
 1839POPC   C2B25796  38.802  10.922   8.393
 1839POPC   C3B25797  38.661  11.032   7.968
 1839POPC   C4B25798  38.872  11.306   7.728
 1840POPC   NC325799  20.413  35.798   9.800
 1840POPC   PO425800  20.304  35.189   9.432
 1840POPC   GL125801  20.720  35.228   9.222
 1840POPC   GL225802  20.868  35.580   9.204
 1840POPC   C1A25803  20.813  35.237   8.785
 1840POPC   D2A25804  20.567  35.423   8.459
 1840POPC   C3A25805  20.443  35.249   8.072
 1840POPC   C4A25806  20.424  35.484   7.694
 1840POPC   C1B25807  20.774  35.753   8.802
 1840POPC   C2B25808  20.895  35.847   8.393
 1840POPC   C3B25809  20.851  35.616   8.016
 1840POPC   C4B25810  20.874  35.223   7.833
 1841POPC   NC325811  27.065  13.230   9.307
 1841POPC   PO425812  26.532  12.826   9.625
 1841POPC   GL125813  26.691  12.822   9.155
 1841POPC   GL225814  27.000  12.652   8.989
 1841POPC   C1A25815  26.702  12.969   8.701
 1841POPC   D2A25816  26.803  13.122   8.268
 1841POPC   C3A25817  26.520  13.005   7.925
 1841POPC   C4A25818  26.470  12.827   7.519
 1841POPC   C1B25819  27.212  12.962   8.684
 1841POPC   C2B25820  27.322  13.155   8.267
 1841POPC   C3B25821  27.191  13.114   7.814
 1841POPC   C4B25822  27.117  12.763   7.489
 1842POPC   NC325823  34.121  32.259   9.812
 1842POPC   PO425824  33.484  32.343   9.555
 1842POPC   GL125825  33.718  32.178   9.222
 1842POPC   GL225826  33.526  32.406   9.013
 1842POPC   C1A25827  33.931  32.173   8.809
 1842POPC   D2A25828  33.782  32.121   8.424
 1842POPC   C3A25829  34.042  32.093   8.094
 1842POPC   C4A25830  34.020  32.149   7.684
 1842POPC   C1B25831  33.717  32.618   8.664
 1842POPC   C2B25832  33.664  32.574   8.254
 1842POPC   C3B25833  33.601  32.315   7.936
 1842POPC   C4B25834  33.673  32.508   7.569
 1843POPC   NC325835  26.578  11.672   9.404
 1843POPC   PO425836  26.982  11.158   9.369
 1843POPC   GL125837  26.660  11.237   9.137
 1843POPC   GL225838  26.801  11.550   8.985
 1843POPC   C1A25839  26.521  11.249   8.719
 1843POPC   D2A25840  26.644  11.507   8.350
 1843POPC   C3A25841  26.884  11.199   8.094
 1843POPC   C4A25842  26.813  11.105   7.671
 1843POPC   C1B25843  27.029  11.697   8.642
 1843POPC   C2B25844  27.226  11.456   8.404
 1843POPC   C3B25845  27.224  11.631   8.034
 1843POPC   C4B25846  27.231  11.403   7.685
 1844POPC   NC325847  20.776  25.065   9.506
 1844POPC   PO425848  20.328  25.589   9.613
 1844POPC   GL125849  20.552  25.423   9.219
 1844POPC   GL225850  20.494  25.050   9.092
 1844POPC   C1A25851  20.662  25.374   8.758
 1844POPC   D2A25852  20.921  25.218   8.405
 1844POPC   C3A25853  20.713  25.384   8.041
 1844POPC   C4A25854  20.388  25.507   7.733
 1844POPC   C1B25855  20.795  24.854   8.779
 1844POPC   C2B25856  20.774  24.729   8.331
 1844POPC   C3B25857  20.847  24.895   7.914
 1844POPC   C4B25858  20.790  24.797   7.481
 1845POPC   NC325859   9.647  10.804   9.675
 1845POPC   PO425860  10.022  11.457   9.563
 1845POPC   GL125861   9.841  11.151   9.292
 1845POPC   GL225862   9.741  11.388   9.104
 1845POPC   C1A25863   9.688  11.002   8.827
 1845POPC   D2A25864   9.538  11.262   8.503
 1845POPC   C3A25865   9.656  11.144   8.093
 1845POPC   C4A25866   9.765  11.083   7.630
 1845POPC   C1B25867   9.952  11.527   8.739
 1845POPC   C2B25868   9.861  11.641   8.308
 1845POPC   C3B25869   9.907  11.516   7.864
 1845POPC   C4B25870   9.911  11.533   7.405
 1846POPC   NC325871   1.684   5.808   9.463
 1846POPC   PO425872   1.080   5.514   9.417
 1846POPC   GL125873   1.277   5.794   9.137
 1846POPC   GL225874   1.174   6.143   9.157
 1846POPC   C1A25875   1.159   5.835   8.718
 1846POPC   D2A25876   0.985   6.057   8.397
 1846POPC   C3A25877   1.228   5.851   8.080
 1846POPC   C4A25878   1.137   5.759   7.699
 1846POPC   C1B25879   1.474   6.228   8.812
 1846POPC   C2B25880   1.501   6.123   8.406
 1846POPC   C3B25881   1.514   6.293   7.990
 1846POPC   C4B25882   1.390   6.218   7.565
 1847POPC   NC325883  39.638  35.915   9.474
 1847POPC   PO425884  39.059  36.304   9.391
 1847POPC   GL125885  39.047  36.113   9.036
 1847POPC   GL225886  39.299  35.895   9.112
 1847POPC   C1A25887  39.307  36.149   8.670
 1847POPC   D2A25888  39.172  36.193   8.249
 1847POPC   C3A25889  39.389  36.368   7.891
 1847POPC   C4A25890  39.326  36.304   7.438
 1847POPC   C1B25891  39.557  35.684   8.818
 1847POPC   C2B25892  39.474  35.520   8.450
 1847POPC   C3B25893  39.428  35.745   8.070
 1847POPC   C4B25894  39.208  35.904   7.771
 1848POPC   NC325895  13.531   4.906   9.544
 1848POPC   PO425896  13.942   5.368   9.594
 1848POPC   GL125897  13.687   5.344   9.201
 1848POPC   GL225898  13.314   5.272   9.221
 1848POPC   C1A25899  13.748   5.141   8.774
 1848POPC   D2A25900  14.040   5.099   8.398
 1848POPC   C3A25901  13.917   4.970   7.975
 1848POPC   C4A25902  13.663   5.049   7.632
 1848POPC   C1B25903  13.374   5.508   8.822
 1848POPC   C2B25904  13.535   5.442   8.402
 1848POPC   C3B25905  13.380   5.184   8.081
 1848POPC   C4B25906  13.262   5.345   7.714
 1849POPC   NC325907   9.341   4.933   9.481
 1849POPC   PO425908   8.821   5.337   9.620
 1849POPC   GL125909   9.046   5.306   9.272
 1849POPC   GL225910   8.958   4.966   9.112
 1849POPC   C1A25911   9.119   5.430   8.880
 1849POPC   D2A25912   9.059   5.127   8.538
 1849POPC   C3A25913   9.120   5.290   8.166
 1849POPC   C4A25914   9.063   5.427   7.779
 1849POPC   C1B25915   9.273   4.752   8.814
 1849POPC   C2B25916   9.424   4.793   8.369
 1849POPC   C3B25917   9.162   4.826   7.976
 1849POPC   C4B25918   9.306   4.956   7.568
 1850POPC   NC325919  40.694  21.117   9.579
 1850POPC   PO425920  40.726  20.428   9.525
 1850POPC   GL125921  40.786  20.437   9.097
 1850POPC   GL225922  40.815  20.827   9.099
 1850POPC   C1A25923  40.838  20.516   8.671
 1850POPC   D2A25924  40.522  20.776   8.518
 1850POPC   C3A25925  40.403  20.714   8.127
 1850POPC   C4A25926  40.581  20.370   7.882
 1850POPC   C1B25927  41.098  21.068   8.820
 1850POPC   C2B25928  41.049  20.935   8.430
 1850POPC   C3B25929  40.904  20.670   8.144
 1850POPC   C4B25930  40.749  20.897   7.786
 1851POPC   NC325931   7.261   4.958   9.728
 1851POPC   PO425932   7.016   5.435   9.287
 1851POPC   GL125933   7.399   5.197   9.155
 1851POPC   GL225934   7.546   4.893   9.215
 1851POPC   C1A25935   7.350   4.912   8.753
 1851POPC   D2A25936   7.101   5.056   8.415
 1851POPC   C3A25937   7.300   5.073   8.013
 1851POPC   C4A25938   7.188   5.223   7.561
 1851POPC   C1B25939   7.806   5.135   8.852
 1851POPC   C2B25940   7.777   5.471   8.482
 1851POPC   C3B25941   7.769   5.379   8.013
 1851POPC   C4B25942   7.715   5.005   7.732
 1852POPC   NC325943  42.183   1.129   9.415
 1852POPC   PO425944  42.767   1.425   9.483
 1852POPC   GL125945  42.486   1.452   9.108
 1852POPC   GL225946  42.124   1.458   9.042
 1852POPC   C1A25947  42.378   1.162   8.733
 1852POPC   D2A25948  42.080   0.933   8.468
 1852POPC   C3A25949  42.198   0.836   8.041
 1852POPC   C4A25950  42.302   1.052   7.659
 1852POPC   C1B25951  42.049   1.564   8.667
 1852POPC   C2B25952  42.132   1.431   8.286
 1852POPC   C3B25953  41.943   1.605   7.937
 1852POPC   C4B25954  42.081   1.555   7.545
 1853POPC   NC325955   7.386  21.106   9.457
 1853POPC   PO425956   7.733  20.453   9.431
 1853POPC   GL125957   7.452  20.627   9.169
 1853POPC   GL225958   7.672  20.890   9.053
 1853POPC   C1A25959   7.286  20.446   8.794
 1853POPC   D2A25960   7.277  20.618   8.401
 1853POPC   C3A25961   7.118  20.369   8.080
 1853POPC   C4A25962   7.237  20.488   7.699
 1853POPC   C1B25963   7.783  20.503   8.773
 1853POPC   C2B25964   7.805  20.524   8.341
 1853POPC   C3B25965   7.609  20.742   8.007
 1853POPC   C4B25966   7.674  20.814   7.575
 1854POPC   NC325967  36.571  21.424   9.488
 1854POPC   PO425968  37.163  21.110   9.579
 1854POPC   GL125969  37.144  21.277   9.127
 1854POPC   GL225970  36.792  21.274   9.044
 1854POPC   C1A25971  37.096  21.535   8.720
 1854POPC   D2A25972  37.048  21.418   8.296
 1854POPC   C3A25973  36.932  21.609   7.927
 1854POPC   C4A25974  37.126  21.343   7.638
 1854POPC   C1B25975  36.874  21.086   8.653
 1854POPC   C2B25976  36.682  21.059   8.246
 1854POPC   C3B25977  36.711  21.070   7.804
 1854POPC   C4B25978  36.782  21.063   7.339
 1855POPC   NC325979  30.338   3.260   9.990
 1855POPC   PO425980  30.652   3.468   9.425
 1855POPC   GL125981  30.711   3.567   9.000
 1855POPC   GL225982  31.062   3.518   8.979
 1855POPC   C1A25983  30.544   3.876   8.690
 1855POPC   D2A25984  30.672   3.982   8.284
 1855POPC   C3A25985  30.527   3.683   7.953
 1855POPC   C4A25986  30.496   3.237   7.816
 1855POPC   C1B25987  31.015   3.696   8.594
 1855POPC   C2B25988  30.802   3.467   8.345
 1855POPC   C3B25989  30.990   3.310   8.035
 1855POPC   C4B25990  30.936   3.443   7.621
 1856POPC   NC325991  35.253  11.995   9.610
 1856POPC   PO425992  35.015  11.531   9.174
 1856POPC   GL125993  35.169  11.983   9.077
 1856POPC   GL225994  35.110  11.866   8.741
 1856POPC   C1A25995  35.456  12.240   8.762
 1856POPC   D2A25996  35.416  12.077   8.324
 1856POPC   C3A25997  35.368  12.237   7.901
 1856POPC   C4A25998  34.968  12.146   7.722
 1856POPC   C1B25999  35.440  11.581   8.569
 1856POPC   C2B26000  35.762  11.662   8.287
 1856POPC   C3B26001  35.677  11.829   7.905
 1856POPC   C4B26002  35.364  11.780   7.586
 1857POPC   NC326003  30.208  41.127   9.340
 1857POPC   PO426004  29.863  40.648   9.641
 1857POPC   GL126005  29.905  40.593   9.197
 1857POPC   GL226006  30.210  40.442   9.067
 1857POPC   C1A26007  29.822  40.470   8.744
 1857POPC   D2A26008  29.492  40.612   8.450
 1857POPC   C3A26009  29.632  40.859   8.084
 1857POPC   C4A26010  29.545  40.782   7.681
 1857POPC   C1B26011  30.193  40.815   8.811
 1857POPC   C2B26012  29.925  40.904   8.504
 1857POPC   C3B26013  30.092  40.671   8.195
 1857POPC   C4B26014  30.166  40.620   7.779
 1858POPC   NC326015  41.859  35.913   9.364
 1858POPC   PO426016  41.313  36.376   9.453
 1858POPC   GL126017  41.396  36.097   9.119
 1858POPC   GL226018  41.629  36.310   9.032
 1858POPC   C1A26019  41.536  35.896   8.719
 1858POPC   D2A26020  41.815  35.997   8.369
 1858POPC   C3A26021  41.607  36.021   8.001
 1858POPC   C4A26022  41.187  35.971   7.941
 1858POPC   C1B26023  41.759  36.438   8.639
 1858POPC   C2B26024  41.847  36.482   8.183
 1858POPC   C3B26025  41.762  36.417   7.736
 1858POPC   C4B26026  41.536  36.347   7.348
 1859POPC   NC326027  22.877  24.427   9.931
 1859POPC   PO426028  23.291  24.068   9.517
 1859POPC   GL126029  23.093  24.284   9.185
 1859POPC   GL226030  23.325  24.565   9.096
 1859POPC   C1A26031  22.942  24.373   8.759
 1859POPC   D2A26032  22.969  24.401   8.309
 1859POPC   C3A26033  23.036  24.711   8.008
 1859POPC   C4A26034  22.906  24.779   7.580
 1859POPC   C1B26035  23.449  24.208   8.831
 1859POPC   C2B26036  23.342  24.081   8.419
 1859POPC   C3B26037  23.336  24.252   8.002
 1859POPC   C4B26038  23.003  24.260   7.688
 1860POPC   NC326039  38.688  42.099   9.487
 1860POPC   PO426040  38.191  42.548   9.549
 1860POPC   GL126041  38.313  42.423   9.159
 1860POPC   GL226042  38.644  42.521   9.177
 1860POPC   C1A26043  38.433  42.335   8.720
 1860POPC   D2A26044  38.369  42.556   8.319
 1860POPC   C3A26045  38.389  42.371   7.882
 1860POPC   C4A26046  38.278  42.204   7.464
 1860POPC   C1B26047  38.878  42.591   8.802
 1860POPC   C2B26048  39.037  42.542   8.404
 1860POPC   C3B26049  38.824  42.616   8.051
 1860POPC   C4B26050  38.990  42.615   7.660
 1861POPC   NC326051  38.240  42.913   9.823
 1861POPC   PO426052  38.690  43.355   9.536
 1861POPC   GL126053  38.480  43.014   9.303
 1861POPC   GL226054  38.238  43.300   9.235
 1861POPC   C1A26055  38.436  42.845   8.839
 1861POPC   D2A26056  38.693  42.941   8.474
 1861POPC   C3A26057  38.463  43.036   8.112
 1861POPC   C4A26058  38.523  42.864   7.723
 1861POPC   C1B26059  38.551  43.326   8.905
 1861POPC   C2B26060  38.527  43.417   8.497
 1861POPC   C3B26061  38.562  43.551   8.105
 1861POPC   C4B26062  38.571  43.405   7.726
 1862POPC   NC326063  40.977  13.423   9.453
 1862POPC   PO426064  40.496  13.951   9.342
 1862POPC   GL126065  40.709  13.691   9.043
 1862POPC   GL226066  41.026  13.796   9.023
 1862POPC   C1A26067  40.804  13.785   8.578
 1862POPC   D2A26068  41.031  13.732   8.201
 1862POPC   C3A26069  40.746  13.504   7.978
 1862POPC   C4A26070  40.539  13.451   7.617
 1862POPC   C1B26071  41.189  13.490   8.766
 1862POPC   C2B26072  41.070  13.279   8.421
 1862POPC   C3B26073  41.200  13.262   8.032
 1862POPC   C4B26074  41.046  13.226   7.628
 1863POPC   NC326075  18.377   1.664   9.405
 1863POPC   PO426076  18.082   1.056   9.408
 1863POPC   GL126077  18.300   1.255   9.101
 1863POPC   GL226078  18.280   0.974   8.907
 1863POPC   C1A26079  18.407   1.419   8.696
 1863POPC   D2A26080  18.329   1.180   8.319
 1863POPC   C3A26081  18.420   1.480   8.004
 1863POPC   C4A26082  18.091   1.577   7.751
 1863POPC   C1B26083  18.681   1.002   8.742
 1863POPC   C2B26084  18.850   1.127   8.355
 1863POPC   C3B26085  18.708   1.044   7.968
 1863POPC   C4B26086  18.328   1.051   7.736
 1864POPC   NC326087  17.805  39.450   9.457
 1864POPC   PO426088  17.378  39.191   9.824
 1864POPC   GL126089  17.326  39.219   9.348
 1864POPC   GL226090  17.376  39.513   9.173
 1864POPC   C1A26091  17.389  39.047   8.912
 1864POPC   D2A26092  17.367  39.204   8.465
 1864POPC   C3A26093  17.525  38.999   8.088
 1864POPC   C4A26094  17.426  39.170   7.689
 1864POPC   C1B26095  17.712  39.429   8.812
 1864POPC   C2B26096  17.714  39.596   8.390
 1864POPC   C3B26097  17.771  39.449   7.971
 1864POPC   C4B26098  17.987  39.593   7.629
 1865POPC   NC326099  29.101  24.092   9.560
 1865POPC   PO426100  29.553  23.563   9.566
 1865POPC   GL126101  29.308  23.724   9.259
 1865POPC   GL226102  29.471  24.038   9.194
 1865POPC   C1A26103  28.999  23.611   8.961
 1865POPC   D2A26104  28.994  23.564   8.520
 1865POPC   C3A26105  29.071  23.602   8.097
 1865POPC   C4A26106  28.929  23.797   7.721
 1865POPC   C1B26107  29.397  23.891   8.787
 1865POPC   C2B26108  29.218  24.009   8.429
 1865POPC   C3B26109  29.242  24.080   8.038
 1865POPC   C4B26110  29.450  23.855   7.737
 1866POPC   NC326111  32.635  30.538   9.587
 1866POPC   PO426112  32.004  30.750   9.855
 1866POPC   GL126113  32.166  30.674   9.393
 1866POPC   GL226114  32.470  30.848   9.222
 1866POPC   C1A26115  32.115  30.665   8.910
 1866POPC   D2A26116  31.968  30.674   8.456
 1866POPC   C3A26117  32.195  30.701   8.030
 1866POPC   C4A26118  32.083  30.713   7.599
 1866POPC   C1B26119  32.644  30.950   8.821
 1866POPC   C2B26120  32.502  30.871   8.419
 1866POPC   C3B26121  32.571  31.067   8.054
 1866POPC   C4B26122  32.522  30.941   7.659
 1867POPC   NC326123  44.810   1.463   9.732
 1867POPC   PO426124  44.332   0.996   9.702
 1867POPC   GL126125  44.439   1.382   9.368
 1867POPC   GL226126  44.810   1.498   9.236
 1867POPC   C1A26127  44.408   1.458   8.891
 1867POPC   D2A26128  44.368   1.176   8.498
 1867POPC   C3A26129  44.577   1.247   8.085
 1867POPC   C4A26130  44.714   0.967   7.733
 1867POPC   C1B26131  44.941   1.364   8.829
 1867POPC   C2B26132  44.880   1.539   8.423
 1867POPC   C3B26133   0.036   1.516   8.006
 1867POPC   C4B26134  44.779   1.455   7.642
 1868POPC   NC326135  25.437  17.243   9.439
 1868POPC   PO426136  25.043  17.792   9.465
 1868POPC   GL126137  25.197  17.574   9.135
 1868POPC   GL226138  25.069  17.221   9.072
 1868POPC   C1A26139  25.135  17.604   8.742
 1868POPC   D2A26140  25.063  17.343   8.403
 1868POPC   C3A26141  25.215  17.496   8.033
 1868POPC   C4A26142  25.090  17.198   7.795
 1868POPC   C1B26143  25.464  17.227   8.797
 1868POPC   C2B26144  25.597  17.372   8.408
 1868POPC   C3B26145  25.632  17.189   8.010
 1868POPC   C4B26146  25.543  17.339   7.609
 1869POPC   NC326147  15.321  44.042   9.574
 1869POPC   PO426148  15.439  43.424   9.310
 1869POPC   GL126149  15.229  43.823   9.116
 1869POPC   GL226150  15.372  44.187   9.093
 1869POPC   C1A26151  15.210  43.924   8.680
 1869POPC   D2A26152  14.993  43.822   8.321
 1869POPC   C3A26153  15.130  43.866   7.901
 1869POPC   C4A26154  14.946  43.716   7.524
 1869POPC   C1B26155  15.510  44.346   8.699
 1869POPC   C2B26156  15.597  44.127   8.309
 1869POPC   C3B26157  15.468  44.254   7.892
 1869POPC   C4B26158  15.412  44.306   7.443
 1870POPC   NC326159  15.554  11.959   9.663
 1870POPC   PO426160  16.176  12.216   9.551
 1870POPC   GL126161  15.881  12.216   9.210
 1870POPC   GL226162  15.760  11.873   9.151
 1870POPC   C1A26163  15.778  12.368   8.780
 1870POPC   D2A26164  15.708  12.243   8.330
 1870POPC   C3A26165  15.683  12.440   7.887
 1870POPC   C4A26166  15.888  12.486   7.468
 1870POPC   C1B26167  16.119  11.704   8.854
 1870POPC   C2B26168  16.030  11.849   8.438
 1870POPC   C3B26169  16.029  11.984   8.004
 1870POPC   C4B26170  16.352  11.874   7.699
 1871POPC   NC326171  22.270   7.362   9.457
 1871POPC   PO426172  21.640   7.508   9.748
 1871POPC   GL126173  21.822   7.555   9.283
 1871POPC   GL226174  21.908   7.227   9.110
 1871POPC   C1A26175  21.764   7.597   8.798
 1871POPC   D2A26176  21.853   7.219   8.514
 1871POPC   C3A26177  21.845   7.278   8.080
 1871POPC   C4A26178  21.944   7.700   7.993
 1871POPC   C1B26179  22.235   7.372   8.795
 1871POPC   C2B26180  22.261   7.520   8.377
 1871POPC   C3B26181  22.411   7.454   7.971
 1871POPC   C4B26182  22.654   7.217   7.678
 1872POPC   NC326183  43.116  18.976   9.786
 1872POPC   PO426184  42.666  18.882   9.373
 1872POPC   GL126185  43.043  19.050   9.173
 1872POPC   GL226186  42.918  19.373   9.043
 1872POPC   C1A26187  43.321  19.063   8.784
 1872POPC   D2A26188  43.422  19.167   8.358
 1872POPC   C3A26189  43.170  19.090   8.045
 1872POPC   C4A26190  43.371  19.169   7.683
 1872POPC   C1B26191  42.649  19.512   8.684
 1872POPC   C2B26192  42.580  19.561   8.198
 1872POPC   C3B26193  42.779  19.346   7.833
 1872POPC   C4B26194  42.934  19.136   7.447
 1873POPC   NC326195  28.103  17.128   9.506
 1873POPC   PO426196  28.147  17.776   9.559
 1873POPC   GL126197  28.304  17.696   9.138
 1873POPC   GL226198  28.662  17.624   9.206
 1873POPC   C1A26199  28.362  17.475   8.725
 1873POPC   D2A26200  28.380  17.217   8.343
 1873POPC   C3A26201  28.154  17.375   7.962
 1873POPC   C4A26202  27.909  17.427   7.598
 1873POPC   C1B26203  28.883  17.505   8.817
 1873POPC   C2B26204  28.847  17.440   8.381
 1873POPC   C3B26205  28.607  17.550   8.018
 1873POPC   C4B26206  28.427  17.474   7.550
 1874POPC   NC326207  28.278  44.189   9.690
 1874POPC   PO426208  28.650  43.654   9.337
 1874POPC   GL126209  28.446  43.887   9.072
 1874POPC   GL226210  28.183  43.901   9.268
 1874POPC   C1A26211  28.578  43.882   8.677
 1874POPC   D2A26212  28.379  43.706   8.355
 1874POPC   C3A26213  28.563  43.866   8.016
 1874POPC   C4A26214  28.442  43.657   7.694
 1874POPC   C1B26215  28.005  44.184   8.949
 1874POPC   C2B26216  27.924  44.138   8.503
 1874POPC   C3B26217  28.039  44.002   8.064
 1874POPC   C4B26218  28.099  44.242   7.709
 1875POPC   NC326219  14.340  25.443   9.259
 1875POPC   PO426220  13.959  24.978   9.558
 1875POPC   GL126221  14.127  24.945   9.091
 1875POPC   GL226222  14.471  24.847   9.030
 1875POPC   C1A26223  14.235  25.190   8.664
 1875POPC   D2A26224  14.455  25.583   8.432
 1875POPC   C3A26225  14.514  25.466   7.992
 1875POPC   C4A26226  14.118  25.339   7.783
 1875POPC   C1B26227  14.734  25.083   8.796
 1875POPC   C2B26228  14.791  25.198   8.392
 1875POPC   C3B26229  14.830  24.993   8.041
 1875POPC   C4B26230  14.695  25.107   7.655
 1876POPC   NC326231  36.645  25.710   9.359
 1876POPC   PO426232  37.183  26.159   9.455
 1876POPC   GL126233  36.921  26.084   9.127
 1876POPC   GL226234  37.079  25.786   9.063
 1876POPC   C1A26235  36.830  26.118   8.697
 1876POPC   D2A26236  36.985  26.258   8.309
 1876POPC   C3A26237  36.774  26.047   7.988
 1876POPC   C4A26238  36.745  25.809   7.600
 1876POPC   C1B26239  37.232  25.616   8.699
 1876POPC   C2B26240  37.056  25.747   8.308
 1876POPC   C3B26241  37.147  25.696   7.879
 1876POPC   C4B26242  37.174  25.667   7.407
 1877POPC   NC326243  42.500  36.928   9.556
 1877POPC   PO426244  41.881  37.166   9.476
 1877POPC   GL126245  42.125  36.903   9.161
 1877POPC   GL226246  42.409  36.642   9.161
 1877POPC   C1A26247  42.314  36.963   8.743
 1877POPC   D2A26248  42.425  36.794   8.328
 1877POPC   C3A26249  42.396  37.096   7.949
 1877POPC   C4A26250  42.020  37.155   7.694
 1877POPC   C1B26251  42.453  36.453   8.774
 1877POPC   C2B26252  42.667  36.319   8.420
 1877POPC   C3B26253  42.588  36.432   7.996
 1877POPC   C4B26254  42.209  36.645   7.816
 1878POPC   NC326255  23.916  31.819   9.584
 1878POPC   PO426256  23.410  31.375   9.754
 1878POPC   GL126257  23.342  31.388   9.303
 1878POPC   GL226258  23.716  31.448   9.221
 1878POPC   C1A26259  23.394  31.382   8.851
 1878POPC   D2A26260  23.601  31.276   8.472
 1878POPC   C3A26261  23.388  31.257   8.118
 1878POPC   C4A26262  23.471  31.450   7.730
 1878POPC   C1B26263  23.937  31.310   8.840
 1878POPC   C2B26264  24.071  31.500   8.452
 1878POPC   C3B26265  23.871  31.494   8.066
 1878POPC   C4B26266  23.976  31.417   7.657
 1879POPC   NC326267  32.842  41.151   9.480
 1879POPC   PO426268  32.423  41.651   9.560
 1879POPC   GL126269  32.750  41.622   9.214
 1879POPC   GL226270  32.874  41.283   9.008
 1879POPC   C1A26271  32.765  41.694   8.766
 1879POPC   D2A26272  32.705  41.387   8.460
 1879POPC   C3A26273  32.871  41.533   8.065
 1879POPC   C4A26274  33.248  41.781   7.906
 1879POPC   C1B26275  33.180  41.217   8.676
 1879POPC   C2B26276  33.112  41.086   8.249
 1879POPC   C3B26277  33.220  41.260   7.828
 1879POPC   C4B26278  33.271  41.171   7.396
 1880POPC   NC326279  16.609  44.957   9.490
 1880POPC   PO426280  17.060  44.755   9.936
 1880POPC   GL126281  16.777  44.513   9.372
 1880POPC   GL226282  16.634  44.727   9.063
 1880POPC   C1A26283  16.886  44.344   8.893
 1880POPC   D2A26284  16.830  44.275   8.443
 1880POPC   C3A26285  16.780  44.561   8.094
 1880POPC   C4A26286  16.708  44.527   7.645
 1880POPC   C1B26287  16.787  44.796   8.633
 1880POPC   C2B26288  16.582  44.999   8.282
 1880POPC   C3B26289  16.392  44.868   7.894
 1880POPC   C4B26290  16.452  44.967   7.438
 1881POPC   NC326291  13.877  42.216   9.595
 1881POPC   PO426292  13.372  42.608   9.702
 1881POPC   GL126293  13.419  42.490   9.243
 1881POPC   GL226294  13.768  42.449   9.145
 1881POPC   C1A26295  13.334  42.296   8.811
 1881POPC   D2A26296  13.149  42.321   8.400
 1881POPC   C3A26297  13.426  42.489   8.104
 1881POPC   C4A26298  13.567  42.271   7.709
 1881POPC   C1B26299  13.916  42.328   8.732
 1881POPC   C2B26300  13.896  42.390   8.261
 1881POPC   C3B26301  14.040  42.245   7.864
 1881POPC   C4B26302  13.982  42.187   7.417
 1882POPC   NC326303  32.411   7.908   9.399
 1882POPC   PO426304  32.161   7.141   9.439
 1882POPC   GL126305  32.309   7.177   9.073
 1882POPC   GL226306  32.345   7.513   9.114
 1882POPC   C1A26307  32.378   7.301   8.662
 1882POPC   D2A26308  32.078   7.418   8.358
 1882POPC   C3A26309  32.222   7.314   7.962
 1882POPC   C4A26310  32.441   7.138   7.613
 1882POPC   C1B26311  32.156   7.776   8.770
 1882POPC   C2B26312  32.209   7.943   8.353
 1882POPC   C3B26313  32.039   7.812   7.937
 1882POPC   C4B26314  32.169   7.591   7.516
 1883POPC   NC326315  18.103  38.551   9.450
 1883POPC   PO426316  18.720  38.790   9.336
 1883POPC   GL126317  18.472  38.526   9.116
 1883POPC   GL226318  18.403  38.192   9.239
 1883POPC   C1A26319  18.373  38.571   8.727
 1883POPC   D2A26320  18.412  38.843   8.420
 1883POPC   C3A26321  18.403  38.606   8.066
 1883POPC   C4A26322  18.458  38.803   7.700
 1883POPC   C1B26323  18.403  38.052   8.810
 1883POPC   C2B26324  18.197  38.163   8.420
 1883POPC   C3B26325  18.365  38.074   8.005
 1883POPC   C4B26326  18.363  38.292   7.612
 1884POPC   NC326327  43.022  20.992   9.596
 1884POPC   PO426328  42.976  21.596   9.533
 1884POPC   GL126329  43.195  21.455   9.171
 1884POPC   GL226330  43.127  21.119   9.098
 1884POPC   C1A26331  42.981  21.651   8.835
 1884POPC   D2A26332  42.784  21.562   8.463
 1884POPC   C3A26333  43.073  21.519   8.138
 1884POPC   C4A26334  42.914  21.637   7.748
 1884POPC   C1B26335  43.125  21.200   8.649
 1884POPC   C2B26336  43.425  21.107   8.336
 1884POPC   C3B26337  43.442  21.207   7.935
 1884POPC   C4B26338  43.060  21.129   7.772
 1885POPC   NC326339   9.290  38.690   9.444
 1885POPC   PO426340   8.746  38.346   9.635
 1885POPC   GL126341   8.757  38.337   9.203
 1885POPC   GL226342   8.847  38.685   9.181
 1885POPC   C1A26343   9.064  38.317   8.868
 1885POPC   D2A26344   9.191  38.045   8.535
 1885POPC   C3A26345   9.010  38.185   8.135
 1885POPC   C4A26346   9.274  38.410   7.835
 1885POPC   C1B26347   9.091  38.843   8.813
 1885POPC   C2B26348   8.967  38.832   8.393
 1885POPC   C3B26349   9.161  38.875   8.003
 1885POPC   C4B26350   9.046  38.732   7.544
 1886POPC   NC326351   8.618  25.394   9.447
 1886POPC   PO426352   8.043  25.015   9.596
 1886POPC   GL126353   8.135  24.935   9.175
 1886POPC   GL226354   8.509  24.985   9.135
 1886POPC   C1A26355   7.995  25.092   8.773
 1886POPC   D2A26356   8.190  25.116   8.376
 1886POPC   C3A26357   7.992  25.014   7.994
 1886POPC   C4A26358   8.081  25.138   7.592
 1886POPC   C1B26359   8.458  25.330   8.806
 1886POPC   C2B26360   8.325  25.598   8.439
 1886POPC   C3B26361   8.306  25.464   7.982
 1886POPC   C4B26362   8.454  25.486   7.537
 1887POPC   NC326363   1.499  42.688   9.484
 1887POPC   PO426364   1.154  42.078   9.391
 1887POPC   GL126365   1.208  42.442   9.134
 1887POPC   GL226366   0.948  42.691   9.217
 1887POPC   C1A26367   1.278  42.500   8.679
 1887POPC   D2A26368   0.991  42.231   8.406
 1887POPC   C3A26369   1.121  42.069   8.006
 1887POPC   C4A26370   1.118  42.035   7.581
 1887POPC   C1B26371   0.790  42.629   8.782
 1887POPC   C2B26372   0.947  42.731   8.334
 1887POPC   C3B26373   1.180  42.600   7.933
 1887POPC   C4B26374   1.070  42.542   7.460
 1888POPC   NC326375   0.603  18.444   9.556
 1888POPC   PO426376   0.475  17.784   9.628
 1888POPC   GL126377   0.349  18.078   9.269
 1888POPC   GL226378   0.657  18.084   9.156
 1888POPC   C1A26379   0.122  18.157   8.843
 1888POPC   D2A26380   0.092  18.339   8.389
 1888POPC   C3A26381   0.326  18.138   7.996
 1888POPC   C4A26382   0.223  17.921   7.583
 1888POPC   C1B26383   0.599  18.367   8.787
 1888POPC   C2B26384   0.830  18.722   8.596
 1888POPC   C3B26385   0.787  18.862   8.169
 1888POPC   C4B26386   0.658  18.545   7.861
 1889POPC   NC326387   2.962  13.567   9.504
 1889POPC   PO426388   2.654  14.159   9.453
 1889POPC   GL126389   2.746  13.878   9.145
 1889POPC   GL226390   3.105  13.870   9.067
 1889POPC   C1A26391   2.679  13.633   8.791
 1889POPC   D2A26392   2.405  13.648   8.447
 1889POPC   C3A26393   2.661  13.532   8.106
 1889POPC   C4A26394   2.802  13.662   7.723
 1889POPC   C1B26395   3.178  13.469   8.840
 1889POPC   C2B26396   2.936  13.292   8.496
 1889POPC   C3B26397   2.943  13.098   8.118
 1889POPC   C4B26398   3.020  13.191   7.730
 1890POPC   NC326399   2.521  12.679   9.613
 1890POPC   PO426400   2.836  13.186   9.312
 1890POPC   GL126401   2.820  12.778   9.198
 1890POPC   GL226402   2.476  12.809   9.131
 1890POPC   C1A26403   3.092  12.712   8.846
 1890POPC   D2A26404   3.220  12.857   8.472
 1890POPC   C3A26405   3.130  12.599   8.150
 1890POPC   C4A26406   2.956  12.687   7.778
 1890POPC   C1B26407   2.661  12.930   8.732
 1890POPC   C2B26408   2.664  12.733   8.347
 1890POPC   C3B26409   2.504  12.898   7.955
 1890POPC   C4B26410   2.513  13.222   7.695
 1891POPC   NC326411  16.038  18.645   9.525
 1891POPC   PO426412  15.787  18.009   9.535
 1891POPC   GL126413  15.836  18.309   9.161
 1891POPC   GL226414  16.163  18.452   9.071
 1891POPC   C1A26415  15.855  18.316   8.692
 1891POPC   D2A26416  15.790  18.578   8.318
 1891POPC   C3A26417  15.853  18.312   7.924
 1891POPC   C4A26418  16.118  17.907   7.827
 1891POPC   C1B26419  16.253  18.637   8.661
 1891POPC   C2B26420  16.174  18.938   8.343
 1891POPC   C3B26421  16.283  18.774   7.962
 1891POPC   C4B26422  16.376  18.341   7.870
 1892POPC   NC326423  26.032  30.984   9.668
 1892POPC   PO426424  26.018  31.628   9.693
 1892POPC   GL126425  26.086  31.672   9.284
 1892POPC   GL226426  26.043  31.329   9.239
 1892POPC   C1A26427  26.176  31.708   8.872
 1892POPC   D2A26428  26.186  31.528   8.456
 1892POPC   C3A26429  25.996  31.721   8.146
 1892POPC   C4A26430  25.933  31.718   7.697
 1892POPC   C1B26431  25.918  31.273   8.801
 1892POPC   C2B26432  25.697  31.329   8.393
 1892POPC   C3B26433  25.767  31.302   7.935
 1892POPC   C4B26434  25.804  31.273   7.447
 1893POPC   NC326435   3.520  33.530   9.420
 1893POPC   PO426436   3.040  34.072   9.589
 1893POPC   GL126437   3.206  33.883   9.210
 1893POPC   GL226438   3.563  33.959   9.134
 1893POPC   C1A26439   3.308  33.698   8.787
 1893POPC   D2A26440   3.365  33.954   8.414
 1893POPC   C3A26441   3.481  33.867   7.997
 1893POPC   C4A26442   3.460  33.606   7.644
 1893POPC   C1B26443   3.710  34.167   8.778
 1893POPC   C2B26444   3.892  34.161   8.362
 1893POPC   C3B26445   3.840  34.281   7.945
 1893POPC   C4B26446   3.718  34.042   7.566
 1894POPC   NC326447   9.871  38.580   9.689
 1894POPC   PO426448   9.411  38.233   9.492
 1894POPC   GL126449   9.665  38.457   9.194
 1894POPC   GL226450  10.010  38.440   9.222
 1894POPC   C1A26451   9.530  38.527   8.787
 1894POPC   D2A26452   9.373  38.502   8.362
 1894POPC   C3A26453   9.550  38.116   8.156
 1894POPC   C4A26454   9.697  38.140   7.729
 1894POPC   C1B26455  10.048  38.595   8.804
 1894POPC   C2B26456   9.883  38.429   8.425
 1894POPC   C3B26457   9.779  38.552   8.010
 1894POPC   C4B26458  10.029  38.673   7.653
 1895POPC   NC326459  27.485  27.164   9.503
 1895POPC   PO426460  27.567  26.478   9.631
 1895POPC   GL126461  27.382  26.630   9.226
 1895POPC   GL226462  27.413  26.970   9.046
 1895POPC   C1A26463  27.253  26.592   8.778
 1895POPC   D2A26464  27.353  26.897   8.472
 1895POPC   C3A26465  27.399  26.788   8.072
 1895POPC   C4A26466  27.719  26.682   7.818
 1895POPC   C1B26467  27.757  26.766   8.748
 1895POPC   C2B26468  27.867  26.847   8.314
 1895POPC   C3B26469  27.862  27.164   7.969
 1895POPC   C4B26470  27.973  27.342   7.552
 1896POPC   NC326471  38.597  18.432   9.502
 1896POPC   PO426472  38.181  17.847   9.572
 1896POPC   GL126473  38.323  18.102   9.210
 1896POPC   GL226474  38.625  17.971   9.103
 1896POPC   C1A26475  38.449  18.377   8.821
 1896POPC   D2A26476  38.532  18.632   8.435
 1896POPC   C3A26477  38.320  18.455   8.077
 1896POPC   C4A26478  38.191  18.033   7.981
 1896POPC   C1B26479  38.814  18.015   8.713
 1896POPC   C2B26480  38.578  18.106   8.364
 1896POPC   C3B26481  38.703  18.116   7.948
 1896POPC   C4B26482  38.910  17.964   7.585
 1897POPC   NC326483  29.398  25.750   9.600
 1897POPC   PO426484  29.231  26.397   9.610
 1897POPC   GL126485  29.279  26.208   9.184
 1897POPC   GL226486  29.334  25.846   9.116
 1897POPC   C1A26487  29.199  26.198   8.729
 1897POPC   D2A26488  29.042  26.283   8.297
 1897POPC   C3A26489  29.141  26.024   7.912
 1897POPC   C4A26490  29.073  26.058   7.491
 1897POPC   C1B26491  28.909  25.869   8.996
 1897POPC   C2B26492  28.864  25.833   8.556
 1897POPC   C3B26493  28.737  25.850   8.152
 1897POPC   C4B26494  28.589  25.858   7.739
 1898POPC   NC326495  15.228  41.777   9.478
 1898POPC   PO426496  14.727  41.256   9.534
 1898POPC   GL126497  15.017  41.334   9.175
 1898POPC   GL226498  15.363  41.423   9.157
 1898POPC   C1A26499  15.123  41.242   8.743
 1898POPC   D2A26500  14.922  41.477   8.437
 1898POPC   C3A26501  15.100  41.401   8.042
 1898POPC   C4A26502  15.140  41.649   7.666
 1898POPC   C1B26503  15.377  41.701   8.829
 1898POPC   C2B26504  15.434  41.605   8.413
 1898POPC   C3B26505  15.418  41.829   8.056
 1898POPC   C4B26506  15.626  41.801   7.697
 1899POPC   NC326507  16.347  11.759   9.527
 1899POPC   PO426508  16.924  12.144   9.555
 1899POPC   GL126509  16.821  12.143   9.174
 1899POPC   GL226510  16.478  12.120   9.162
 1899POPC   C1A26511  16.779  11.869   8.821
 1899POPC   D2A26512  16.533  11.889   8.454
 1899POPC   C3A26513  16.761  11.873   8.073
 1899POPC   C4A26514  16.796  12.119   7.693
 1899POPC   C1B26515  16.238  12.176   8.816
 1899POPC   C2B26516  16.244  12.344   8.412
 1899POPC   C3B26517  16.428  12.290   8.033
 1899POPC   C4B26518  16.374  12.428   7.650
 1900POPC   NC326519   9.220  25.676   9.526
 1900POPC   PO426520   8.932  25.063   9.480
 1900POPC   GL126521   9.089  25.074   9.118
 1900POPC   GL226522   8.972  24.771   9.030
 1900POPC   C1A26523   9.015  25.392   8.838
 1900POPC   D2A26524   8.826  25.521   8.473
 1900POPC   C3A26525   9.048  25.535   8.094
 1900POPC   C4A26526   8.922  25.637   7.669
 1900POPC   C1B26527   8.796  24.964   8.687
 1900POPC   C2B26528   9.009  25.073   8.319
 1900POPC   C3B26529   9.141  25.067   7.885
 1900POPC   C4B26530   8.819  25.132   7.602
 1901POPC   NC326531   7.352  44.414   9.690
 1901POPC   PO426532   7.671  44.954   9.634
 1901POPC   GL126533   7.601  44.624   9.251
 1901POPC   GL226534   7.272  44.443   9.178
 1901POPC   C1A26535   7.601  44.536   8.786
 1901POPC   D2A26536   7.296  44.661   8.443
 1901POPC   C3A26537   7.416  44.764   8.001
 1901POPC   C4A26538   7.618  44.907   7.590
 1901POPC   C1B26539   7.124  44.258   8.770
 1901POPC   C2B26540   6.963  44.299   8.323
 1901POPC   C3B26541   7.143  44.336   7.902
 1901POPC   C4B26542   7.291  44.521   7.506
 1902POPC   NC326543  26.682  26.522   9.466
 1902POPC   PO426544  27.042  27.037   9.461
 1902POPC   GL126545  26.898  26.827   9.106
 1902POPC   GL226546  26.559  26.890   9.151
 1902POPC   C1A26547  26.749  26.616   8.736
 1902POPC   D2A26548  26.873  26.712   8.316
 1902POPC   C3A26549  26.637  26.567   7.973
 1902POPC   C4A26550  26.751  26.536   7.561
 1902POPC   C1B26551  26.536  27.075   8.785
 1902POPC   C2B26552  26.929  27.133   8.587
 1902POPC   C3B26553  27.067  27.178   8.144
 1902POPC   C4B26554  27.020  26.946   7.751
 1903POPC   NC326555   9.519  22.394   9.537
 1903POPC   PO426556  10.012  22.079   9.277
 1903POPC   GL126557   9.812  22.265   8.980
 1903POPC   GL226558   9.448  22.285   9.041
 1903POPC   C1A26559   9.883  22.026   8.631
 1903POPC   D2A26560  10.037  21.946   8.264
 1903POPC   C3A26561   9.811  22.030   7.897
 1903POPC   C4A26562   9.973  22.131   7.497
 1903POPC   C1B26563   9.396  21.931   8.764
 1903POPC   C2B26564   9.496  21.918   8.317
 1903POPC   C3B26565   9.339  22.204   8.032
 1903POPC   C4B26566   9.575  22.537   7.835
 1904POPC   NC326567  20.501   3.942   9.349
 1904POPC   PO426568  20.632   3.357   9.462
 1904POPC   GL126569  20.878   3.339   9.106
 1904POPC   GL226570  20.688   3.625   8.992
 1904POPC   C1A26571  20.897   3.300   8.660
 1904POPC   D2A26572  20.641   3.518   8.467
 1904POPC   C3A26573  20.518   3.397   8.104
 1904POPC   C4A26574  20.587   3.700   7.817
 1904POPC   C1B26575  20.358   3.855   8.720
 1904POPC   C2B26576  20.358   3.895   8.270
 1904POPC   C3B26577  20.223   4.053   7.852
 1904POPC   C4B26578  20.221   3.830   7.426
 1905POPC   NC326579  10.212  44.020   9.522
 1905POPC   PO426580   9.612  44.234   9.593
 1905POPC   GL126581   9.749  44.041   9.214
 1905POPC   GL226582   9.720  43.666   9.250
 1905POPC   C1A26583   9.848  44.092   8.774
 1905POPC   D2A26584   9.610  44.014   8.388
 1905POPC   C3A26585   9.820  44.120   8.022
 1905POPC   C4A26586   9.721  43.832   7.729
 1905POPC   C1B26587   9.503  43.671   8.837
 1905POPC   C2B26588   9.449  43.432   8.448
 1905POPC   C3B26589   9.293  43.508   8.022
 1905POPC   C4B26590   9.438  43.419   7.622
 1906POPC   NC326591  44.324  35.126   9.486
 1906POPC   PO426592  43.653  35.248   9.528
 1906POPC   GL126593  43.947  35.274   9.170
 1906POPC   GL226594  44.083  35.574   9.032
 1906POPC   C1A26595  44.205  35.123   8.827
 1906POPC   D2A26596  44.326  35.021   8.423
 1906POPC   C3A26597  44.111  35.247   8.124
 1906POPC   C4A26598  43.843  35.085   7.775
 1906POPC   C1B26599  43.976  35.533   8.587
 1906POPC   C2B26600  43.631  35.388   8.328
 1906POPC   C3B26601  43.556  35.494   7.911
 1906POPC   C4B26602  43.991  35.570   7.760
 1907POPC   NC326603  22.491  40.204   9.312
 1907POPC   PO426604  21.946  40.128   9.596
 1907POPC   GL126605  21.976  39.987   9.177
 1907POPC   GL226606  22.270  39.873   9.023
 1907POPC   C1A26607  21.824  40.081   8.786
 1907POPC   D2A26608  21.739  39.872   8.418
 1907POPC   C3A26609  21.923  40.067   8.052
 1907POPC   C4A26610  22.034  40.210   7.654
 1907POPC   C1B26611  22.290  40.264   8.737
 1907POPC   C2B26612  22.094  40.389   8.397
 1907POPC   C3B26613  22.316  40.393   8.019
 1907POPC   C4B26614  22.586  40.405   7.694
 1908POPC   NC326615  10.356  20.883   9.455
 1908POPC   PO426616  10.913  20.596   9.607
 1908POPC   GL126617  10.686  20.513   9.213
 1908POPC   GL226618  10.377  20.562   9.063
 1908POPC   C1A26619  10.825  20.504   8.792
 1908POPC   D2A26620  10.781  20.234   8.424
 1908POPC   C3A26621  10.692  20.439   8.009
 1908POPC   C4A26622  10.593  20.745   7.646
 1908POPC   C1B26623  10.474  20.877   8.761
 1908POPC   C2B26624  10.667  20.775   8.374
 1908POPC   C3B26625  10.339  20.846   8.072
 1908POPC   C4B26626  10.138  21.030   7.700
 1909POPC   NC326627  27.296   9.205   9.553
 1909POPC   PO426628  27.914   8.920   9.432
 1909POPC   GL126629  27.733   9.186   9.143
 1909POPC   GL226630  27.427   9.274   9.030
 1909POPC   C1A26631  27.905   9.184   8.763
 1909POPC   D2A26632  27.983   8.847   8.529
 1909POPC   C3A26633  27.807   9.046   8.217
 1909POPC   C4A26634  27.725   8.852   7.857
 1909POPC   C1B26635  27.477   8.863   8.755
 1909POPC   C2B26636  27.456   8.678   8.303
 1909POPC   C3B26637  27.248   8.669   7.892
 1909POPC   C4B26638  27.353   8.892   7.484
 1910POPC   NC326639  12.375  36.551   9.506
 1910POPC   PO426640  12.044  37.171   9.537
 1910POPC   GL126641  12.071  36.858   9.207
 1910POPC   GL226642  12.395  36.835   9.072
 1910POPC   C1A26643  11.969  36.754   8.778
 1910POPC   D2A26644  12.067  36.659   8.335
 1910POPC   C3A26645  11.812  36.867   8.034
 1910POPC   C4A26646  11.949  37.033   7.629
 1910POPC   C1B26647  12.383  37.139   8.756
 1910POPC   C2B26648  12.357  37.157   8.328
 1910POPC   C3B26649  12.335  36.985   7.966
 1910POPC   C4B26650  12.619  36.790   7.705
 1911POPC   NC326651   5.754  37.042   9.653
 1911POPC   PO426652   5.985  36.504   9.448
 1911POPC   GL126653   5.780  36.791   9.165
 1911POPC   GL226654   5.875  37.137   9.169
 1911POPC   C1A26655   5.707  36.789   8.728
 1911POPC   D2A26656   5.940  36.891   8.342
 1911POPC   C3A26657   5.980  36.619   7.970
 1911POPC   C4A26658   5.648  36.449   7.738
 1911POPC   C1B26659   6.052  37.183   8.764
 1911POPC   C2B26660   6.146  37.373   8.358
 1911POPC   C3B26661   5.835  37.306   8.050
 1911POPC   C4B26662   5.585  36.925   7.924
 1912POPC   NC326663  34.410   2.291   9.313
 1912POPC   PO426664  34.357   1.621   9.313
 1912POPC   GL126665  34.546   1.890   9.052
 1912POPC   GL226666  34.837   1.935   9.281
 1912POPC   C1A26667  34.527   2.121   8.657
 1912POPC   D2A26668  34.232   2.411   8.432
 1912POPC   C3A26669  34.376   2.354   8.036
 1912POPC   C4A26670  34.316   2.023   7.747
 1912POPC   C1B26671  35.002   1.968   8.866
 1912POPC   C2B26672  35.044   2.070   8.471
 1912POPC   C3B26673  34.795   2.047   8.127
 1912POPC   C4B26674  34.926   2.123   7.728
 1913POPC   NC326675  29.618  13.666   9.395
 1913POPC   PO426676  28.979  13.740   9.484
 1913POPC   GL126677  29.008  13.587   9.091
 1913POPC   GL226678  29.245  13.339   9.217
 1913POPC   C1A26679  29.036  13.740   8.641
 1913POPC   D2A26680  29.302  13.879   8.267
 1913POPC   C3A26681  29.022  13.856   7.889
 1913POPC   C4A26682  28.896  13.441   7.671
 1913POPC   C1B26683  29.412  13.412   8.798
 1913POPC   C2B26684  29.295  13.330   8.369
 1913POPC   C3B26685  29.328  13.460   7.961
 1913POPC   C4B26686  29.662  13.376   7.761
 1914POPC   NC326687  28.359   3.254   9.631
 1914POPC   PO426688  28.552   3.989   9.667
 1914POPC   GL126689  28.423   3.657   9.267
 1914POPC   GL226690  28.629   3.398   9.206
 1914POPC   C1A26691  28.158   3.376   8.963
 1914POPC   D2A26692  28.240   3.299   8.530
 1914POPC   C3A26693  28.103   3.487   8.142
 1914POPC   C4A26694  28.185   3.331   7.740
 1914POPC   C1B26695  28.611   3.578   8.784
 1914POPC   C2B26696  28.560   3.689   8.346
 1914POPC   C3B26697  28.636   3.530   7.921
 1914POPC   C4B26698  28.739   3.179   7.609
 1915POPC   NC326699  11.132  17.021   9.429
 1915POPC   PO426700  11.226  16.333   9.523
 1915POPC   GL126701  11.225  16.566   9.184
 1915POPC   GL226702  10.896  16.451   9.136
 1915POPC   C1A26703  11.391  16.843   8.864
 1915POPC   D2A26704  11.518  16.683   8.504
 1915POPC   C3A26705  11.369  16.610   8.126
 1915POPC   C4A26706  11.495  16.903   7.805
 1915POPC   C1B26707  10.924  16.638   8.756
 1915POPC   C2B26708  11.051  17.001   8.518
 1915POPC   C3B26709  11.044  17.010   8.078
 1915POPC   C4B26710  11.031  16.699   7.745
 1916POPC   NC326711  10.668   7.036   9.851
 1916POPC   PO426712  10.407   7.483   9.428
 1916POPC   GL126713  10.506   7.474   9.038
 1916POPC   GL226714  10.805   7.580   9.084
 1916POPC   C1A26715  10.327   7.525   8.676
 1916POPC   D2A26716  10.352   7.302   8.322
 1916POPC   C3A26717  10.408   7.496   7.920
 1916POPC   C4A26718  10.348   7.388   7.469
 1916POPC   C1B26719  10.929   7.299   8.763
 1916POPC   C2B26720  10.807   7.078   8.430
 1916POPC   C3B26721  10.845   7.276   8.073
 1916POPC   C4B26722  10.720   7.110   7.682
 1917POPC   NC326723  41.407  34.970   9.318
 1917POPC   PO426724  41.418  35.586   9.352
 1917POPC   GL126725  41.458  35.332   8.980
 1917POPC   GL226726  41.230  35.057   8.859
 1917POPC   C1A26727  41.552  35.263   8.567
 1917POPC   D2A26728  41.828  35.499   8.468
 1917POPC   C3A26729  41.853  35.567   8.052
 1917POPC   C4A26730  41.541  35.582   7.743
 1917POPC   C1B26731  41.075  35.490   8.701
 1917POPC   C2B26732  41.267  35.614   8.313
 1917POPC   C3B26733  41.416  35.236   8.082
 1917POPC   C4B26734  41.405  35.101   7.665
 1918POPC   NC326735   0.627  34.261   9.502
 1918POPC   PO426736   0.762  34.901   9.665
 1918POPC   GL126737   0.616  34.714   9.188
 1918POPC   GL226738   0.514  34.367   9.023
 1918POPC   C1A26739   0.260  34.768   8.846
 1918POPC   D2A26740   0.286  34.779   8.410
 1918POPC   C3A26741   0.172  34.578   8.030
 1918POPC   C4A26742   0.169  34.879   7.712
 1918POPC   C1B26743   0.722  34.602   8.688
 1918POPC   C2B26744   0.744  34.530   8.266
 1918POPC   C3B26745   0.672  34.619   7.854
 1918POPC   C4B26746   0.938  34.488   7.509
 1919POPC   NC326747  26.644  27.275   9.482
 1919POPC   PO426748  27.152  27.814   9.489
 1919POPC   GL126749  26.998  27.691   9.120
 1919POPC   GL226750  26.964  27.344   9.062
 1919POPC   C1A26751  27.135  27.822   8.757
 1919POPC   D2A26752  27.042  27.616   8.402
 1919POPC   C3A26753  27.017  27.785   8.029
 1919POPC   C4A26754  26.789  27.523   7.773
 1919POPC   C1B26755  26.694  27.549   8.761
 1919POPC   C2B26756  26.562  27.387   8.363
 1919POPC   C3B26757  26.592  27.085   8.053
 1919POPC   C4B26758  26.547  27.096   7.641
 1920POPC   NC326759  25.661   1.045   9.502
 1920POPC   PO426760  26.135   1.450   9.509
 1920POPC   GL126761  25.833   1.436   9.152
 1920POPC   GL226762  25.683   1.105   8.991
 1920POPC   C1A26763  25.977   1.399   8.732
 1920POPC   D2A26764  25.857   1.255   8.360
 1920POPC   C3A26765  26.175   1.338   8.067
 1920POPC   C4A26766  25.952   1.578   7.787
 1920POPC   C1B26767  26.008   0.877   8.771
 1920POPC   C2B26768  26.140   0.801   8.363
 1920POPC   C3B26769  25.944   0.891   8.004
 1920POPC   C4B26770  26.051   1.027   7.612
 1921POPC   NC326771  39.595  11.279   9.660
 1921POPC   PO426772  39.040  10.996   9.847
 1921POPC   GL126773  39.165  11.100   9.368
 1921POPC   GL226774  39.386  11.390   9.228
 1921POPC   C1A26775  39.192  11.109   8.882
 1921POPC   D2A26776  39.062  11.362   8.499
 1921POPC   C3A26777  39.156  11.183   8.111
 1921POPC   C4A26778  39.356  10.994   7.760
 1921POPC   C1B26779  39.332  11.601   8.855
 1921POPC   C2B26780  39.533  11.620   8.472
 1921POPC   C3B26781  39.313  11.675   8.104
 1921POPC   C4B26782  39.342  11.520   7.695
 1922POPC   NC326783  11.968  16.716   9.784
 1922POPC   PO426784  12.229  17.316   9.490
 1922POPC   GL126785  11.924  17.120   9.130
 1922POPC   GL226786  11.710  16.826   9.260
 1922POPC   C1A26787  11.926  16.994   8.636
 1922POPC   D2A26788  11.863  16.838   8.170
 1922POPC   C3A26789  12.187  16.722   7.919
 1922POPC   C4A26790  12.371  16.865   7.529
 1922POPC   C1B26791  11.824  16.551   8.873
 1922POPC   C2B26792  12.052  16.498   8.478
 1922POPC   C3B26793  11.991  16.276   8.083
 1922POPC   C4B26794  11.717  16.452   7.783
 1923POPC   NC326795  31.665   9.017   9.507
 1923POPC   PO426796  31.145   8.610   9.467
 1923POPC   GL126797  31.377   8.781   9.150
 1923POPC   GL226798  31.245   9.105   9.163
 1923POPC   C1A26799  31.625   9.006   8.835
 1923POPC   D2A26800  31.443   9.150   8.444
 1923POPC   C3A26801  31.604   8.800   8.202
 1923POPC   C4A26802  31.498   8.615   7.839
 1923POPC   C1B26803  31.097   9.364   8.814
 1923POPC   C2B26804  31.022   9.527   8.398
 1923POPC   C3B26805  31.088   9.248   8.059
 1923POPC   C4B26806  31.393   9.124   7.831
 1924POPC   NC326807   7.802  43.701   9.495
 1924POPC   PO426808   7.254  43.986   9.806
 1924POPC   GL126809   7.367  43.959   9.330
 1924POPC   GL226810   7.392  43.603   9.170
 1924POPC   C1A26811   7.550  44.012   8.888
 1924POPC   D2A26812   7.480  44.148   8.432
 1924POPC   C3A26813   7.245  43.883   8.131
 1924POPC   C4A26814   7.479  43.941   7.745
 1924POPC   C1B26815   7.707  43.522   8.819
 1924POPC   C2B26816   7.668  43.661   8.393
 1924POPC   C3B26817   7.541  43.476   8.013
 1924POPC   C4B26818   7.723  43.410   7.633
 1925POPC   NC326819   3.943   0.091   9.475
 1925POPC   PO426820   4.363   0.608   9.642
 1925POPC   GL126821   4.314   0.394   9.242
 1925POPC   GL226822   3.992   0.432   9.095
 1925POPC   C1A26823   4.438   0.336   8.799
 1925POPC   D2A26824   4.648   0.503   8.422
 1925POPC   C3A26825   4.573   0.369   8.011
 1925POPC   C4A26826   4.555   0.665   7.686
 1925POPC   C1B26827   3.982   0.085   8.809
 1925POPC   C2B26828   4.091   0.084   8.383
 1925POPC   C3B26829   3.879   0.079   7.985
 1925POPC   C4B26830   4.200   0.203   7.690
 1926POPC   NC326831   2.173  42.215   9.542
 1926POPC   PO426832   1.511  42.290   9.730
 1926POPC   GL126833   1.689  42.240   9.269
 1926POPC   GL226834   1.714  42.553   9.042
 1926POPC   C1A26835   1.813  42.098   8.838
 1926POPC   D2A26836   1.789  42.465   8.539
 1926POPC   C3A26837   1.821  42.428   8.101
 1926POPC   C4A26838   2.040  42.252   7.769
 1926POPC   C1B26839   2.159  42.484   8.895
 1926POPC   C2B26840   2.314  42.376   8.513
 1926POPC   C3B26841   2.358  42.480   8.091
 1926POPC   C4B26842   2.128  42.782   7.841
 1927POPC   NC326843  31.202  27.239   9.475
 1927POPC   PO426844  31.439  27.871   9.512
 1927POPC   GL126845  31.350  27.609   9.152
 1927POPC   GL226846  31.592  27.342   9.123
 1927POPC   C1A26847  31.388  27.554   8.704
 1927POPC   D2A26848  31.640  27.774   8.398
 1927POPC   C3A26849  31.496  27.679   8.009
 1927POPC   C4A26850  31.339  27.893   7.674
 1927POPC   C1B26851  31.702  27.087   8.763
 1927POPC   C2B26852  31.614  27.235   8.332
 1927POPC   C3B26853  31.752  27.275   7.891
 1927POPC   C4B26854  31.778  27.608   7.585
 1928POPC   NC326855  22.736  43.244   9.654
 1928POPC   PO426856  23.378  43.219   9.539
 1928POPC   GL126857  23.100  42.964   9.243
 1928POPC   GL226858  22.742  43.005   9.170
 1928POPC   C1A26859  23.097  42.830   8.790
 1928POPC   D2A26860  22.917  42.951   8.350
 1928POPC   C3A26861  22.984  42.970   7.884
 1928POPC   C4A26862  22.654  42.988   7.577
 1928POPC   C1B26863  22.782  43.221   8.763
 1928POPC   C2B26864  23.162  43.385   8.591
 1928POPC   C3B26865  23.216  43.401   8.169
 1928POPC   C4B26866  23.379  43.343   7.785
 1929POPC   NC326867  10.540  39.872   9.580
 1929POPC   PO426868  10.699  40.398   9.188
 1929POPC   GL126869  10.675  39.934   9.093
 1929POPC   GL226870  10.312  39.895   9.130
 1929POPC   C1A26871  10.842  39.811   8.696
 1929POPC   D2A26872  10.849  40.075   8.309
 1929POPC   C3A26873  10.499  40.292   8.086
 1929POPC   C4A26874  10.368  40.243   7.665
 1929POPC   C1B26875  10.320  39.706   8.739
 1929POPC   C2B26876  10.336  39.845   8.311
 1929POPC   C3B26877  10.498  39.805   7.892
 1929POPC   C4B26878  10.360  39.621   7.503
 1930POPC   NC326879  25.426  19.071   9.569
 1930POPC   PO426880  24.881  18.907   9.699
 1930POPC   GL126881  25.057  19.109   9.231
 1930POPC   GL226882  25.407  19.226   9.115
 1930POPC   C1A26883  25.076  19.076   8.760
 1930POPC   D2A26884  25.055  18.861   8.353
 1930POPC   C3A26885  25.058  19.116   7.988
 1930POPC   C4A26886  24.892  19.091   7.580
 1930POPC   C1B26887  25.485  19.416   8.786
 1930POPC   C2B26888  25.416  19.257   8.390
 1930POPC   C3B26889  25.449  19.437   7.994
 1930POPC   C4B26890  25.441  19.267   7.570
 1931POPC   NC326891  11.546  38.776   9.370
 1931POPC   PO426892  11.086  38.368   9.569
 1931POPC   GL126893  11.198  38.388   9.142
 1931POPC   GL226894  11.221  38.056   9.040
 1931POPC   C1A26895  11.247  38.640   8.787
 1931POPC   D2A26896  11.430  38.717   8.401
 1931POPC   C3A26897  11.284  38.526   8.036
 1931POPC   C4A26898  11.363  38.720   7.649
 1931POPC   C1B26899  11.385  38.164   8.618
 1931POPC   C2B26900  11.651  38.226   8.241
 1931POPC   C3B26901  11.591  38.212   7.778
 1931POPC   C4B26902  11.277  38.268   7.425
 1932POPC   NC326903  28.700  37.781   9.458
 1932POPC   PO426904  29.237  37.368   9.449
 1932POPC   GL126905  29.226  37.642   9.123
 1932POPC   GL226906  28.898  37.477   9.083
 1932POPC   C1A26907  29.513  37.681   8.762
 1932POPC   D2A26908  29.548  37.519   8.357
 1932POPC   C3A26909  29.283  37.817   8.175
 1932POPC   C4A26910  29.075  37.994   7.823
 1932POPC   C1B26911  29.041  37.496   8.658
 1932POPC   C2B26912  28.972  37.391   8.260
 1932POPC   C3B26913  29.019  37.483   7.854
 1932POPC   C4B26914  29.302  37.290   7.597
 1933POPC   NC326915   1.582   9.516   9.447
 1933POPC   PO426916   1.237   8.983   9.508
 1933POPC   GL126917   1.024   8.870   9.132
 1933POPC   GL226918   1.134   9.208   9.022
 1933POPC   C1A26919   0.976   8.841   8.675
 1933POPC   D2A26920   1.186   9.167   8.445
 1933POPC   C3A26921   1.181   9.168   8.008
 1933POPC   C4A26922   1.031   8.807   7.746
 1933POPC   C1B26923   1.448   8.903   8.829
 1933POPC   C2B26924   1.464   8.741   8.382
 1933POPC   C3B26925   1.563   8.833   7.939
 1933POPC   C4B26926   1.645   9.158   7.614
 1934POPC   NC326927   0.833  14.189   9.527
 1934POPC   PO426928   0.267  14.445   9.551
 1934POPC   GL126929   0.244  14.606   9.163
 1934POPC   GL226930  44.968  14.355   9.098
 1934POPC   C1A26931   0.438  14.507   8.758
 1934POPC   D2A26932   0.465  14.264   8.377
 1934POPC   C3A26933   0.712  14.447   8.080
 1934POPC   C4A26934   0.689  14.524   7.685
 1934POPC   C1B26935  44.944  14.646   8.762
 1934POPC   C2B26936  44.996  14.481   8.338
 1934POPC   C3B26937   0.219  14.509   7.940
 1934POPC   C4B26938   0.247  14.335   7.495
 1935POPC   NC326939  37.028   4.346   9.688
 1935POPC   PO426940  36.464   4.114   9.429
 1935POPC   GL126941  36.702   4.421   9.173
 1935POPC   GL226942  37.063   4.532   9.215
 1935POPC   C1A26943  36.885   4.348   8.766
 1935POPC   D2A26944  37.045   4.246   8.351
 1935POPC   C3A26945  36.799   3.984   8.065
 1935POPC   C4A26946  36.890   4.074   7.628
 1935POPC   C1B26947  37.267   4.710   8.833
 1935POPC   C2B26948  37.425   4.688   8.417
 1935POPC   C3B26949  37.286   4.793   8.038
 1935POPC   C4B26950  37.169   4.410   7.876
 1936POPC   NC326951  13.356  23.878   9.456
 1936POPC   PO426952  12.763  23.607   9.487
 1936POPC   GL126953  12.916  23.801   9.167
 1936POPC   GL226954  12.865  23.478   8.984
 1936POPC   C1A26955  12.860  23.997   8.777
 1936POPC   D2A26956  12.977  23.902   8.347
 1936POPC   C3A26957  12.573  23.863   8.132
 1936POPC   C4A26958  12.562  23.866   7.738
 1936POPC   C1B26959  12.533  23.295   8.689
 1936POPC   C2B26960  12.569  23.344   8.211
 1936POPC   C3B26961  12.935  23.537   7.949
 1936POPC   C4B26962  13.300  23.463   7.656
 1937POPC   NC326963   9.871   2.288   9.441
 1937POPC   PO426964   9.499   2.906   9.558
 1937POPC   GL126965   9.712   2.729   9.198
 1937POPC   GL226966   9.524   2.463   9.123
 1937POPC   C1A26967   9.938   2.734   8.779
 1937POPC   D2A26968   9.774   2.648   8.361
 1937POPC   C3A26969   9.967   2.666   7.984
 1937POPC   C4A26970   9.993   2.894   7.601
 1937POPC   C1B26971   9.555   2.362   8.743
 1937POPC   C2B26972   9.318   2.449   8.422
 1937POPC   C3B26973   9.497   2.284   8.117
 1937POPC   C4B26974   9.477   2.562   7.791
 1938POPC   NC326975   4.980  15.144   9.567
 1938POPC   PO426976   5.549  14.757   9.405
 1938POPC   GL126977   5.386  15.146   9.122
 1938POPC   GL226978   5.008  15.247   9.072
 1938POPC   C1A26979   5.335  15.495   8.771
 1938POPC   D2A26980   5.050  15.518   8.386
 1938POPC   C3A26981   5.140  15.141   8.153
 1938POPC   C4A26982   5.505  15.071   7.835
 1938POPC   C1B26983   5.111  15.045   8.674
 1938POPC   C2B26984   4.872  14.738   8.408
 1938POPC   C3B26985   4.705  14.874   8.057
 1938POPC   C4B26986   4.797  15.121   7.736
 1939POPC   NC326987   4.081  21.642   9.784
 1939POPC   PO426988   4.691  21.454   9.602
 1939POPC   GL126989   4.438  21.451   9.219
 1939POPC   GL226990   4.090  21.631   9.237
 1939POPC   C1A26991   4.229  21.129   8.923
 1939POPC   D2A26992   4.053  21.036   8.480
 1939POPC   C3A26993   4.300  21.150   8.115
 1939POPC   C4A26994   4.350  21.269   7.676
 1939POPC   C1B26995   4.209  21.628   8.777
 1939POPC   C2B26996   4.401  21.581   8.379
 1939POPC   C3B26997   4.183  21.646   7.986
 1939POPC   C4B26998   4.081  21.924   7.665
 1940POPC   NC326999  28.137   6.071   9.498
 1940POPC   PO427000  28.709   5.829   9.576
 1940POPC   GL127001  28.515   5.876   9.153
 1940POPC   GL227002  28.152   5.793   9.097
 1940POPC   C1A27003  28.442   5.995   8.704
 1940POPC   D2A27004  28.134   6.009   8.374
 1940POPC   C3A27005  28.369   6.100   8.011
 1940POPC   C4A27006  28.292   6.186   7.578
 1940POPC   C1B27007  28.097   5.618   8.741
 1940POPC   C2B27008  27.987   5.454   8.383
 1940POPC   C3B27009  28.137   5.431   7.989
 1940POPC   C4B27010  28.191   5.720   7.704
 1941POPC   NC327011  13.367  33.521   9.551
 1941POPC   PO427012  13.878  33.990   9.616
 1941POPC   GL127013  13.692  33.801   9.239
 1941POPC   GL227014  13.926  33.582   9.100
 1941POPC   C1A27015  13.511  33.979   8.840
 1941POPC   D2A27016  13.677  34.036   8.429
 1941POPC   C3A27017  13.499  33.949   8.024
 1941POPC   C4A27018  13.687  33.862   7.650
 1941POPC   C1B27019  13.845  33.612   8.689
 1941POPC   C2B27020  13.648  33.459   8.333
 1941POPC   C3B27021  13.657  33.437   7.914
 1941POPC   C4B27022  14.042  33.462   7.682
 1942POPC   NC327023  13.905  11.850   9.499
 1942POPC   PO427024  13.329  12.264   9.504
 1942POPC   GL127025  13.613  12.163   9.182
 1942POPC   GL227026  13.677  11.834   9.035
 1942POPC   C1A27027  13.463  12.202   8.780
 1942POPC   D2A27028  13.668  12.329   8.430
 1942POPC   C3A27029  13.703  12.454   8.016
 1942POPC   C4A27030  13.531  12.125   7.809
 1942POPC   C1B27031  13.903  11.936   8.667
 1942POPC   C2B27032  13.983  11.992   8.233
 1942POPC   C3B27033  13.791  11.705   7.978
 1942POPC   C4B27034  14.010  11.456   7.715
 1943POPC   NC327035  15.292  40.009   9.396
 1943POPC   PO427036  14.770  39.701   9.666
 1943POPC   GL127037  14.818  39.946   9.199
 1943POPC   GL227038  14.915  40.287   9.151
 1943POPC   C1A27039  14.909  39.863   8.766
 1943POPC   D2A27040  15.243  39.660   8.565
 1943POPC   C3A27041  15.213  39.625   8.125
 1943POPC   C4A27042  15.561  39.712   7.873
 1943POPC   C1B27043  15.187  40.281   8.743
 1943POPC   C2B27044  15.256  40.135   8.303
 1943POPC   C3B27045  15.076  40.196   7.863
 1943POPC   C4B27046  14.957  40.172   7.393
 1944POPC   NC327047  24.406   8.801   9.429
 1944POPC   PO427048  24.069   9.389   9.362
 1944POPC   GL127049  24.340   9.170   9.074
 1944POPC   GL227050  24.704   9.156   9.216
 1944POPC   C1A27051  24.299   8.848   8.769
 1944POPC   D2A27052  24.092   8.740   8.394
 1944POPC   C3A27053  24.285   8.900   8.049
 1944POPC   C4A27054  24.648   8.800   7.891
 1944POPC   C1B27055  24.794   8.992   8.831
 1944POPC   C2B27056  24.676   8.952   8.417
 1944POPC   C3B27057  24.880   9.182   8.143
 1944POPC   C4B27058  24.958   9.166   7.741
 1945POPC   NC327059  34.332  12.426   9.705
 1945POPC   PO427060  34.466  13.108   9.615
 1945POPC   GL127061  34.655  13.016   9.201
 1945POPC   GL227062  34.496  12.692   9.250
 1945POPC   C1A27063  34.704  13.087   8.755
 1945POPC   D2A27064  34.785  12.955   8.324
 1945POPC   C3A27065  34.799  13.196   7.982
 1945POPC   C4A27066  34.448  13.038   7.855
 1945POPC   C1B27067  34.857  12.612   8.965
 1945POPC   C2B27068  34.980  12.350   8.625
 1945POPC   C3B27069  35.042  12.501   8.190
 1945POPC   C4B27070  34.783  12.626   7.829
 1946POPC   NC327071  19.515  35.349   9.761
 1946POPC   PO427072  20.000  35.705   9.608
 1946POPC   GL127073  19.886  35.461   9.232
 1946POPC   GL227074  19.700  35.229   9.198
 1946POPC   C1A27075  20.065  35.340   8.814
 1946POPC   D2A27076  20.074  35.190   8.417
 1946POPC   C3A27077  19.985  35.458   8.053
 1946POPC   C4A27078  20.011  35.180   7.740
 1946POPC   C1B27079  19.561  35.233   8.780
 1946POPC   C2B27080  19.592  35.429   8.389
 1946POPC   C3B27081  19.533  35.253   7.950
 1946POPC   C4B27082  19.613  35.351   7.504
 1947POPC   NC327083  24.380  10.497   9.606
 1947POPC   PO427084  24.846  10.324   9.181
 1947POPC   GL127085  24.506  10.591   9.052
 1947POPC   GL227086  24.190  10.680   9.161
 1947POPC   C1A27087  24.302  10.623   8.648
 1947POPC   D2A27088  24.481  10.803   8.293
 1947POPC   C3A27089  24.641  10.574   7.940
 1947POPC   C4A27090  24.898  10.436   7.591
 1947POPC   C1B27091  24.056  10.277   8.951
 1947POPC   C2B27092  24.026  10.158   8.492
 1947POPC   C3B27093  24.172  10.400   8.118
 1947POPC   C4B27094  24.160  10.811   7.891
 1948POPC   NC327095  29.868  21.712   9.415
 1948POPC   PO427096  29.412  21.140   9.164
 1948POPC   GL127097  29.613  21.474   9.039
 1948POPC   GL227098  29.935  21.323   9.082
 1948POPC   C1A27099  29.720  21.519   8.633
 1948POPC   D2A27100  29.659  21.244   8.315
 1948POPC   C3A27101  29.755  21.339   7.913
 1948POPC   C4A27102  29.721  20.997   7.651
 1948POPC   C1B27103  30.221  21.429   8.744
 1948POPC   C2B27104  30.165  21.276   8.282
 1948POPC   C3B27105  30.246  21.467   7.859
 1948POPC   C4B27106  30.157  21.614   7.431
 1949POPC   NC327107   4.124  25.387   9.505
 1949POPC   PO427108   4.720  25.401   9.634
 1949POPC   GL127109   4.496  25.164   9.208
 1949POPC   GL227110   4.263  25.375   9.031
 1949POPC   C1A27111   4.347  24.957   8.763
 1949POPC   D2A27112   4.486  24.808   8.326
 1949POPC   C3A27113   4.497  25.102   7.950
 1949POPC   C4A27114   4.464  25.393   7.571
 1949POPC   C1B27115   4.011  25.410   8.684
 1949POPC   C2B27116   3.907  25.335   8.275
 1949POPC   C3B27117   4.058  25.370   7.872
 1949POPC   C4B27118   3.983  25.384   7.429
 1950POPC   NC327119  21.499  44.949   9.578
 1950POPC   PO427120  21.152  44.372   9.448
 1950POPC   GL127121  21.275  44.677   9.127
 1950POPC   GL227122  21.105   0.006   9.168
 1950POPC   C1A27123  21.415  44.596   8.701
 1950POPC   D2A27124  21.245  44.603   8.288
 1950POPC   C3A27125  21.512  44.504   7.931
 1950POPC   C4A27126  21.399  44.509   7.456
 1950POPC   C1B27127  21.296   0.093   8.766
 1950POPC   C2B27128  21.548   0.041   8.398
 1950POPC   C3B27129  21.404  44.996   7.991
 1950POPC   C4B27130  21.518  44.973   7.596
 1951POPC   NC327131   1.751  38.382   9.589
 1951POPC   PO427132   2.202  38.682   9.127
 1951POPC   GL127133   1.906  38.426   9.064
 1951POPC   GL227134   1.912  38.126   9.119
 1951POPC   C1A27135   1.750  38.299   8.689
 1951POPC   D2A27136   1.770  38.503   8.348
 1951POPC   C3A27137   1.876  38.386   7.955
 1951POPC   C4A27138   2.184  38.645   7.810
 1951POPC   C1B27139   2.150  37.956   8.798
 1951POPC   C2B27140   2.165  38.142   8.381
 1951POPC   C3B27141   2.166  37.956   7.990
 1951POPC   C4B27142   2.473  37.836   7.718
 1952POPC   NC327143   3.306  23.696   9.711
 1952POPC   PO427144   3.844  24.013   9.525
 1952POPC   GL127145   3.634  23.765   9.208
 1952POPC   GL227146   3.275  23.727   9.209
 1952POPC   C1A27147   3.603  23.605   8.810
 1952POPC   D2A27148   3.831  23.467   8.469
 1952POPC   C3A27149   3.792  23.726   8.107
 1952POPC   C4A27150   3.597  23.655   7.732
 1952POPC   C1B27151   3.201  23.930   8.822
 1952POPC   C2B27152   3.383  23.931   8.395
 1952POPC   C3B27153   3.247  23.912   7.961
 1952POPC   C4B27154   3.212  23.847   7.461
 1953POPC   NC327155   4.090   9.291   9.703
 1953POPC   PO427156   4.463   8.734   9.944
 1953POPC   GL127157   4.335   8.878   9.472
 1953POPC   GL227158   4.221   8.606   9.238
 1953POPC   C1A27159   4.344   9.068   9.021
 1953POPC   D2A27160   4.513   9.051   8.575
 1953POPC   C3A27161   4.283   9.093   8.169
 1953POPC   C4A27162   4.403   9.043   7.736
 1953POPC   C1B27163   4.098   8.465   8.830
 1953POPC   C2B27164   4.231   8.634   8.445
 1953POPC   C3B27165   4.161   8.597   8.032
 1953POPC   C4B27166   4.439   8.548   7.708
 1954POPC   NC327167  23.242  17.595   9.882
 1954POPC   PO427168  22.810  17.199   9.608
 1954POPC   GL127169  22.852  17.196   9.144
 1954POPC   GL227170  22.921  17.536   9.121
 1954POPC   C1A27171  22.829  17.334   8.653
 1954POPC   D2A27172  23.214  17.400   8.361
 1954POPC   C3A27173  23.087  17.371   7.973
 1954POPC   C4A27174  22.728  17.096   7.913
 1954POPC   C1B27175  23.182  17.679   8.766
 1954POPC   C2B27176  23.089  17.868   8.302
 1954POPC   C3B27177  23.067  17.887   7.837
 1954POPC   C4B27178  23.038  18.160   7.459
 1955POPC   NC327179  31.115  25.591   9.256
 1955POPC   PO427180  31.506  26.075   9.611
 1955POPC   GL127181  31.375  26.019   9.216
 1955POPC   GL227182  31.616  25.723   9.139
 1955POPC   C1A27183  31.293  26.180   8.809
 1955POPC   D2A27184  31.541  26.225   8.423
 1955POPC   C3A27185  31.459  26.049   8.029
 1955POPC   C4A27186  31.168  26.176   7.718
 1955POPC   C1B27187  31.802  26.100   8.941
 1955POPC   C2B27188  32.027  26.216   8.571
 1955POPC   C3B27189  31.989  26.264   8.122
 1955POPC   C4B27190  31.874  26.085   7.735
 1956POPC   NC327191  39.812  31.785   9.628
 1956POPC   PO427192  40.346  31.394   9.484
 1956POPC   GL127193  40.035  31.537   9.192
 1956POPC   GL227194  40.014  31.229   8.964
 1956POPC   C1A27195  39.936  31.699   8.786
 1956POPC   D2A27196  40.114  31.456   8.442
 1956POPC   C3A27197  40.134  31.641   8.065
 1956POPC   C4A27198  39.864  31.708   7.746
 1956POPC   C1B27199  39.676  31.284   8.675
 1956POPC   C2B27200  39.636  31.410   8.262
 1956POPC   C3B27201  39.842  31.240   7.935
 1956POPC   C4B27202  40.227  31.331   7.653
 1957POPC   NC327203  35.291  30.202   9.441
 1957POPC   PO427204  35.021  29.599   9.428
 1957POPC   GL127205  35.284  29.811   9.112
 1957POPC   GL227206  35.210  30.128   8.937
 1957POPC   C1A27207  35.426  29.749   8.694
 1957POPC   D2A27208  35.307  30.080   8.415
 1957POPC   C3A27209  35.492  29.859   8.080
 1957POPC   C4A27210  35.596  29.581   7.766
 1957POPC   C1B27211  35.658  30.175   8.831
 1957POPC   C2B27212  35.811  30.126   8.407
 1957POPC   C3B27213  35.617  30.347   8.068
 1957POPC   C4B27214  35.182  30.254   7.935
 1958POPC   NC327215  25.515   2.633   9.535
 1958POPC   PO427216  24.856   2.884   9.481
 1958POPC   GL127217  25.074   2.619   9.211
 1958POPC   GL227218  25.409   2.693   9.061
 1958POPC   C1A27219  25.033   2.497   8.795
 1958POPC   D2A27220  25.159   2.779   8.486
 1958POPC   C3A27221  25.182   2.676   8.071
 1958POPC   C4A27222  25.210   2.978   7.816
 1958POPC   C1B27223  25.617   2.812   8.720
 1958POPC   C2B27224  25.653   2.646   8.332
 1958POPC   C3B27225  25.686   2.852   7.945
 1958POPC   C4B27226  25.629   2.975   7.518
 1959POPC   NC327227  24.678  31.521   9.386
 1959POPC   PO427228  24.056  31.290   9.570
 1959POPC   GL127229  24.278  31.274   9.191
 1959POPC   GL227230  24.194  31.617   9.169
 1959POPC   C1A27231  24.451  31.408   8.777
 1959POPC   D2A27232  24.637  31.411   8.375
 1959POPC   C3A27233  24.359  31.338   8.026
 1959POPC   C4A27234  24.498  31.306   7.592
 1959POPC   C1B27235  24.260  31.899   8.863
 1959POPC   C2B27236  24.425  31.876   8.493
 1959POPC   C3B27237  24.324  31.865   8.110
 1959POPC   C4B27238  24.297  31.781   7.713
 1960POPC   NC327239  16.476  26.612   9.718
 1960POPC   PO427240  16.953  26.967   9.398
 1960POPC   GL127241  16.822  26.748   9.089
 1960POPC   GL227242  16.537  26.559   9.188
 1960POPC   C1A27243  16.846  26.878   8.678
 1960POPC   D2A27244  17.100  26.756   8.363
 1960POPC   C3A27245  17.006  27.006   8.028
 1960POPC   C4A27246  16.686  26.807   7.839
 1960POPC   C1B27247  16.428  26.611   8.746
 1960POPC   C2B27248  16.461  26.791   8.315
 1960POPC   C3B27249  16.218  26.664   7.951
 1960POPC   C4B27250  16.295  26.256   7.808
 1961POPC   NC327251  27.175   2.172   9.807
 1961POPC   PO427252  26.642   1.859   9.659
 1961POPC   GL127253  26.634   2.022   9.260
 1961POPC   GL227254  26.817   1.753   9.157
 1961POPC   C1A27255  26.686   2.095   8.809
 1961POPC   D2A27256  26.966   2.142   8.494
 1961POPC   C3A27257  26.687   2.235   8.160
 1961POPC   C4A27258  26.808   2.338   7.772
 1961POPC   C1B27259  27.081   1.708   8.797
 1961POPC   C2B27260  27.233   1.678   8.402
 1961POPC   C3B27261  27.052   1.876   8.053
 1961POPC   C4B27262  27.135   1.766   7.663
 1962POPC   NC327263  29.078   9.584   9.608
 1962POPC   PO427264  29.624   9.577   9.296
 1962POPC   GL127265  29.212   9.776   9.127
 1962POPC   GL227266  28.849   9.747   9.194
 1962POPC   C1A27267  29.164   9.921   8.726
 1962POPC   D2A27268  29.471   9.979   8.412
 1962POPC   C3A27269  29.379   9.752   8.073
 1962POPC   C4A27270  29.115   9.971   7.804
 1962POPC   C1B27271  28.786   9.586   8.795
 1962POPC   C2B27272  28.950   9.515   8.368
 1962POPC   C3B27273  28.794   9.616   7.942
 1962POPC   C4B27274  28.819   9.672   7.490
 1963POPC   NC327275  22.753  38.732   9.485
 1963POPC   PO427276  23.216  38.217   9.542
 1963POPC   GL127277  23.173  38.446   9.132
 1963POPC   GL227278  22.914  38.676   9.009
 1963POPC   C1A27279  23.371  38.661   8.776
 1963POPC   D2A27280  23.178  38.823   8.379
 1963POPC   C3A27281  23.065  38.497   8.106
 1963POPC   C4A27282  23.195  38.297   7.733
 1963POPC   C1B27283  22.779  38.553   8.583
 1963POPC   C2B27284  22.546  38.419   8.196
 1963POPC   C3B27285  22.687  38.446   7.767
 1963POPC   C4B27286  22.509  38.523   7.341
 1964POPC   NC327287  32.289  40.602   9.595
 1964POPC   PO427288  32.997  40.657   9.539
 1964POPC   GL127289  33.004  40.793   9.132
 1964POPC   GL227290  32.627  40.819   9.143
 1964POPC   C1A27291  33.114  40.717   8.699
 1964POPC   D2A27292  33.012  40.417   8.401
 1964POPC   C3A27293  32.985  40.612   8.013
 1964POPC   C4A27294  32.790  40.995   7.862
 1964POPC   C1B27295  32.638  40.600   8.780
 1964POPC   C2B27296  32.652  40.804   8.370
 1964POPC   C3B27297  32.490  40.594   8.000
 1964POPC   C4B27298  32.588  40.509   7.563
 1965POPC   NC327299  22.299  22.498   9.555
 1965POPC   PO427300  21.802  23.017   9.557
 1965POPC   GL127301  22.151  22.981   9.179
 1965POPC   GL227302  22.415  23.237   9.144
 1965POPC   C1A27303  22.320  22.854   8.723
 1965POPC   D2A27304  22.387  22.591   8.296
 1965POPC   C3A27305  22.141  22.769   7.921
 1965POPC   C4A27306  21.874  23.154   7.802
 1965POPC   C1B27307  22.273  23.376   8.736
 1965POPC   C2B27308  22.287  23.218   8.296
 1965POPC   C3B27309  22.408  23.178   7.866
 1965POPC   C4B27310  22.267  23.480   7.552
 1966POPC   NC327311  28.067  35.528   9.279
 1966POPC   PO427312  28.617  35.391   9.745
 1966POPC   GL127313  28.651  35.387   9.285
 1966POPC   GL227314  28.821  35.687   9.173
 1966POPC   C1A27315  28.458  35.164   8.906
 1966POPC   D2A27316  28.088  35.133   8.618
 1966POPC   C3A27317  28.202  35.034   8.209
 1966POPC   C4A27318  28.199  35.323   7.890
 1966POPC   C1B27319  28.885  35.450   8.801
 1966POPC   C2B27320  28.749  35.167   8.466
 1966POPC   C3B27321  28.690  35.357   8.075
 1966POPC   C4B27322  28.603  35.558   7.682
 1967POPC   NC327323  43.903  18.749   9.213
 1967POPC   PO427324  43.894  18.167   9.536
 1967POPC   GL127325  43.778  18.240   9.132
 1967POPC   GL227326  43.495  18.043   9.124
 1967POPC   C1A27327  43.933  18.279   8.698
 1967POPC   D2A27328  44.171  18.408   8.350
 1967POPC   C3A27329  44.016  18.450   7.947
 1967POPC   C4A27330  44.191  18.310   7.552
 1967POPC   C1B27331  43.420  18.223   8.734
 1967POPC   C2B27332  43.592  17.956   8.426
 1967POPC   C3B27333  43.566  17.823   8.028
 1967POPC   C4B27334  43.554  18.205   7.810
 1968POPC   NC327335  29.052   5.516   9.611
 1968POPC   PO427336  29.272   6.228   9.594
 1968POPC   GL127337  29.342   5.897   9.313
 1968POPC   GL227338  29.032   5.792   9.175
 1968POPC   C1A27339  29.459   5.751   8.888
 1968POPC   D2A27340  29.341   5.525   8.532
 1968POPC   C3A27341  29.294   5.758   8.152
 1968POPC   C4A27342  29.244   5.873   7.732
 1968POPC   C1B27343  28.968   5.975   8.777
 1968POPC   C2B27344  28.829   5.852   8.364
 1968POPC   C3B27345  28.780   5.820   7.918
 1968POPC   C4B27346  28.798   6.214   7.695
 1969POPC   NC327347   3.044  15.137   9.930
 1969POPC   PO427348   3.579  15.416   9.648
 1969POPC   GL127349   3.510  15.150   9.139
 1969POPC   GL227350   3.815  15.038   8.911
 1969POPC   C1A27351   3.427  14.993   8.637
 1969POPC   D2A27352   3.792  15.108   8.323
 1969POPC   C3A27353   3.731  14.982   7.893
 1969POPC   C4A27354   3.338  14.915   7.703
 1969POPC   C1B27355   3.670  15.438   8.688
 1969POPC   C2B27356   3.432  15.493   8.310
 1969POPC   C3B27357   3.302  15.363   7.903
 1969POPC   C4B27358   3.436  15.367   7.440
 1970POPC   NC327359  28.129   8.510   9.381
 1970POPC   PO427360  27.581   8.079   9.555
 1970POPC   GL127361  27.549   8.267   9.140
 1970POPC   GL227362  27.877   8.149   9.135
 1970POPC   C1A27363  27.405   8.310   8.673
 1970POPC   D2A27364  27.109   8.224   8.287
 1970POPC   C3A27365  27.312   8.161   7.867
 1970POPC   C4A27366  27.643   8.419   7.634
 1970POPC   C1B27367  28.001   8.035   8.766
 1970POPC   C2B27368  27.783   8.029   8.419
 1970POPC   C3B27369  27.805   8.229   8.060
 1970POPC   C4B27370  27.744   7.911   7.747
 1971POPC   NC327371  11.268  42.856   9.494
 1971POPC   PO427372  11.882  43.026   9.609
 1971POPC   GL127373  11.552  43.035   9.160
 1971POPC   GL227374  11.364  43.323   9.063
 1971POPC   C1A27375  11.244  42.906   8.812
 1971POPC   D2A27376  11.237  43.095   8.408
 1971POPC   C3A27377  11.169  42.886   8.026
 1971POPC   C4A27378  10.897  42.995   7.701
 1971POPC   C1B27379  11.143  43.520   8.699
 1971POPC   C2B27380  11.063  43.546   8.228
 1971POPC   C3B27381  11.245  43.367   7.828
 1971POPC   C4B27382  11.490  43.164   7.477
 1972POPC   NC327383   2.128  21.308   9.707
 1972POPC   PO427384   1.697  21.712   9.453
 1972POPC   GL127385   1.880  21.510   9.115
 1972POPC   GL227386   2.235  21.499   9.209
 1972POPC   C1A27387   1.852  21.386   8.668
 1972POPC   D2A27388   1.731  21.178   8.279
 1972POPC   C3A27389   1.793  21.471   7.941
 1972POPC   C4A27390   2.060  21.475   7.621
 1972POPC   C1B27391   2.191  21.107   8.954
 1972POPC   C2B27392   2.203  21.052   8.487
 1972POPC   C3B27393   2.256  21.281   8.071
 1972POPC   C4B27394   2.405  21.088   7.671
 1973POPC   NC327395  34.036   9.069   9.722
 1973POPC   PO427396  33.559   8.641   9.464
 1973POPC   GL127397  33.758   8.776   9.130
 1973POPC   GL227398  34.084   8.879   9.218
 1973POPC   C1A27399  33.843   9.086   8.810
 1973POPC   D2A27400  34.023   9.161   8.406
 1973POPC   C3A27401  33.666   9.123   8.136
 1973POPC   C4A27402  33.667   8.914   7.772
 1973POPC   C1B27403  34.126   8.619   8.804
 1973POPC   C2B27404  34.200   8.516   8.375
 1973POPC   C3B27405  34.104   8.782   8.044
 1973POPC   C4B27406  34.209   8.804   7.624
 1974POPC   NC327407  36.253   8.534   9.591
 1974POPC   PO427408  36.166   9.164   9.537
 1974POPC   GL127409  35.915   8.875   9.236
 1974POPC   GL227410  36.167   8.883   8.999
 1974POPC   C1A27411  35.755   8.754   8.744
 1974POPC   D2A27412  35.824   8.978   8.306
 1974POPC   C3A27413  36.037   8.782   7.953
 1974POPC   C4A27414  36.138   8.974   7.556
 1974POPC   C1B27415  36.239   8.814   8.548
 1974POPC   C2B27416  36.376   9.084   8.218
 1974POPC   C3B27417  36.583   9.029   7.816
 1974POPC   C4B27418  36.635   8.984   7.352
 1975POPC   NC327419  35.353   3.882   9.593
 1975POPC   PO427420  35.090   4.527   9.596
 1975POPC   GL127421  35.230   4.363   9.207
 1975POPC   GL227422  35.477   4.153   9.158
 1975POPC   C1A27423  35.314   4.454   8.768
 1975POPC   D2A27424  35.439   4.545   8.339
 1975POPC   C3A27425  35.173   4.344   8.027
 1975POPC   C4A27426  35.277   4.169   7.630
 1975POPC   C1B27427  35.741   4.190   8.790
 1975POPC   C2B27428  35.689   4.089   8.391
 1975POPC   C3B27429  35.718   4.226   7.982
 1975POPC   C4B27430  35.737   3.885   7.698
 1976POPC   NC327431  29.550  17.628   9.556
 1976POPC   PO427432  29.924  17.167   9.579
 1976POPC   GL127433  29.861  17.430   9.212
 1976POPC   GL227434  29.982  17.780   9.238
 1976POPC   C1A27435  29.873  17.433   8.786
 1976POPC   D2A27436  30.068  17.140   8.488
 1976POPC   C3A27437  30.043  17.241   8.053
 1976POPC   C4A27438  29.881  17.520   7.745
 1976POPC   C1B27439  30.036  17.918   8.803
 1976POPC   C2B27440  29.969  17.752   8.394
 1976POPC   C3B27441  30.051  17.918   8.008
 1976POPC   C4B27442  29.972  18.083   7.655
 1977POPC   NC327443  30.957  26.029   9.654
 1977POPC   PO427444  30.327  26.439   9.542
 1977POPC   GL127445  30.511  26.367   9.125
 1977POPC   GL227446  30.761  26.057   9.123
 1977POPC   C1A27447  30.539  26.240   8.702
 1977POPC   D2A27448  30.439  25.940   8.405
 1977POPC   C3A27449  30.382  26.147   8.040
 1977POPC   C4A27450  30.650  26.029   7.704
 1977POPC   C1B27451  30.869  25.855   8.732
 1977POPC   C2B27452  31.180  25.830   8.439
 1977POPC   C3B27453  30.978  25.886   8.077
 1977POPC   C4B27454  31.055  25.662   7.700
 1978POPC   NC327455  40.125  44.338   9.461
 1978POPC   PO427456  39.704  44.779   9.487
 1978POPC   GL127457  40.001  44.705   9.143
 1978POPC   GL227458  39.782  44.742   8.848
 1978POPC   C1A27459  40.219  44.457   8.816
 1978POPC   D2A27460  40.025  44.524   8.446
 1978POPC   C3A27461  40.160  44.355   8.080
 1978POPC   C4A27462  40.040  44.501   7.687
 1978POPC   C1B27463  40.123   0.008   8.760
 1978POPC   C2B27464  40.287  44.960   8.389
 1978POPC   C3B27465  40.066  44.888   8.034
 1978POPC   C4B27466  40.238   0.117   7.714
 1979POPC   NC327467  43.894  32.373   9.658
 1979POPC   PO427468  43.805  31.658   9.570
 1979POPC   GL127469  43.896  32.001   9.238
 1979POPC   GL227470  43.757  32.355   9.181
 1979POPC   C1A27471  43.893  32.086   8.774
 1979POPC   D2A27472  44.094  32.221   8.400
 1979POPC   C3A27473  43.963  32.007   8.023
 1979POPC   C4A27474  44.024  32.247   7.660
 1979POPC   C1B27475  43.616  32.656   8.887
 1979POPC   C2B27476  43.732  32.559   8.488
 1979POPC   C3B27477  43.794  32.500   8.055
 1979POPC   C4B27478  43.540  32.536   7.659
 1980POPC   NC327479  33.309  15.062   9.609
 1980POPC   PO427480  32.704  14.826   9.380
 1980POPC   GL127481  32.961  14.941   9.073
 1980POPC   GL227482  33.310  14.998   9.090
 1980POPC   C1A27483  32.918  15.024   8.672
 1980POPC   D2A27484  33.002  15.255   8.328
 1980POPC   C3A27485  32.938  14.944   8.070
 1980POPC   C4A27486  32.704  15.033   7.719
 1980POPC   C1B27487  33.295  15.361   8.761
 1980POPC   C2B27488  33.243  15.693   8.461
 1980POPC   C3B27489  33.133  15.691   8.020
 1980POPC   C4B27490  33.140  15.326   7.797
 1981POPC   NC327491  32.146   2.004   9.562
 1981POPC   PO427492  32.518   1.574   9.821
 1981POPC   GL127493  32.544   1.801   9.343
 1981POPC   GL227494  32.458   2.211   9.221
 1981POPC   C1A27495  32.405   1.845   8.885
 1981POPC   D2A27496  32.272   2.091   8.517
 1981POPC   C3A27497  32.380   1.889   8.142
 1981POPC   C4A27498  32.550   1.966   7.736
 1981POPC   C1B27499  32.021   2.211   8.959
 1981POPC   C2B27500  31.759   2.222   8.580
 1981POPC   C3B27501  31.775   2.238   8.137
 1981POPC   C4B27502  32.040   2.110   7.784
 1982POPC   NC327503   6.327  24.373   9.435
 1982POPC   PO427504   6.932  24.199   9.523
 1982POPC   GL127505   6.742  24.302   9.162
 1982POPC   GL227506   6.708  24.635   9.126
 1982POPC   C1A27507   6.833  24.282   8.754
 1982POPC   D2A27508   6.872  24.497   8.399
 1982POPC   C3A27509   6.787  24.339   8.031
 1982POPC   C4A27510   6.471  24.203   7.717
 1982POPC   C1B27511   6.486  24.680   8.712
 1982POPC   C2B27512   6.442  24.735   8.251
 1982POPC   C3B27513   6.524  24.734   7.839
 1982POPC   C4B27514   6.713  25.027   7.549
 1983POPC   NC327515   0.964   6.397   9.559
 1983POPC   PO427516   1.604   6.268   9.443
 1983POPC   GL127517   1.473   6.607   9.178
 1983POPC   GL227518   1.129   6.659   9.142
 1983POPC   C1A27519   1.427   6.730   8.734
 1983POPC   D2A27520   1.238   6.557   8.357
 1983POPC   C3A27521   1.255   6.725   7.948
 1983POPC   C4A27522   1.464   6.743   7.543
 1983POPC   C1B27523   0.961   6.440   8.779
 1983POPC   C2B27524   0.730   6.633   8.440
 1983POPC   C3B27525   0.784   6.569   8.030
 1983POPC   C4B27526   0.909   6.191   7.898
 1984POPC   NC327527  32.917  34.136   9.494
 1984POPC   PO427528  33.186  34.705   9.332
 1984POPC   GL127529  33.226  34.316   9.115
 1984POPC   GL227530  33.471  34.397   8.899
 1984POPC   C1A27531  33.141  34.082   8.706
 1984POPC   D2A27532  33.172  33.935   8.272
 1984POPC   C3A27533  32.871  34.201   8.004
 1984POPC   C4A27534  32.917  34.638   7.924
 1984POPC   C1B27535  33.103  34.607   8.700
 1984POPC   C2B27536  33.153  34.851   8.359
 1984POPC   C3B27537  33.416  34.756   8.016
 1984POPC   C4B27538  33.316  34.415   7.709
 1985POPC   NC327539   3.556   3.040   9.866
 1985POPC   PO427540   3.923   2.593   9.475
 1985POPC   GL127541   3.712   2.980   9.229
 1985POPC   GL227542   3.341   2.980   9.131
 1985POPC   C1A27543   3.690   2.990   8.752
 1985POPC   D2A27544   3.487   2.749   8.409
 1985POPC   C3A27545   3.536   2.889   7.995
 1985POPC   C4A27546   3.416   3.009   7.558
 1985POPC   C1B27547   3.177   2.622   8.853
 1985POPC   C2B27548   3.018   2.516   8.461
 1985POPC   C3B27549   3.067   2.370   8.048
 1985POPC   C4B27550   3.215   2.601   7.748
 1986POPC   NC327551  20.209  42.542   9.309
 1986POPC   PO427552  19.841  42.100   9.679
 1986POPC   GL127553  19.975  42.098   9.158
 1986POPC   GL227554  19.860  42.404   8.968
 1986POPC   C1A27555  19.782  42.010   8.687
 1986POPC   D2A27556  19.532  42.233   8.415
 1986POPC   C3A27557  19.567  42.064   8.032
 1986POPC   C4A27558  19.761  42.249   7.696
 1986POPC   C1B27559  20.005  42.674   8.654
 1986POPC   C2B27560  20.249  42.648   8.289
 1986POPC   C3B27561  20.097  42.616   7.881
 1986POPC   C4B27562  20.075  42.523   7.405
 1987POPC   NC327563  21.818  39.076   9.402
 1987POPC   PO427564  21.224  38.854   9.540
 1987POPC   GL127565  21.205  39.228   9.222
 1987POPC   GL227566  21.489  39.236   9.038
 1987POPC   C1A27567  21.103  39.491   8.837
 1987POPC   D2A27568  21.368  39.466   8.461
 1987POPC   C3A27569  21.188  39.396   8.052
 1987POPC   C4A27570  21.367  39.221   7.689
 1987POPC   C1B27571  21.522  38.913   8.775
 1987POPC   C2B27572  21.782  38.840   8.438
 1987POPC   C3B27573  21.725  39.095   8.097
 1987POPC   C4B27574  21.796  38.914   7.748
 1988POPC   NC327575  39.971  20.901   9.518
 1988POPC   PO427576  39.728  20.373   9.559
 1988POPC   GL127577  39.908  20.369   9.150
 1988POPC   GL227578  40.263  20.380   9.237
 1988POPC   C1A27579  39.906  20.721   8.851
 1988POPC   D2A27580  39.652  20.837   8.491
 1988POPC   C3A27581  39.858  20.820   8.067
 1988POPC   C4A27582  40.173  20.851   7.715
 1988POPC   C1B27583  40.326  20.368   8.798
 1988POPC   C2B27584  40.079  20.487   8.437
 1988POPC   C3B27585  40.046  20.358   8.024
 1988POPC   C4B27586  40.171  20.342   7.606
 1989POPC   NC327587   5.775  16.486   9.605
 1989POPC   PO427588   6.156  16.919   9.441
 1989POPC   GL127589   6.023  16.657   9.166
 1989POPC   GL227590   5.670  16.714   9.166
 1989POPC   C1A27591   5.985  16.765   8.755
 1989POPC   D2A27592   5.833  17.021   8.466
 1989POPC   C3A27593   6.029  17.016   8.083
 1989POPC   C4A27594   5.879  16.986   7.698
 1989POPC   C1B27595   5.532  16.492   8.813
 1989POPC   C2B27596   5.669  16.531   8.416
 1989POPC   C3B27597   5.549  16.793   8.098
 1989POPC   C4B27598   5.465  16.706   7.707
 1990POPC   NC327599   1.075  43.543   9.540
 1990POPC   PO427600   1.443  44.084   9.536
 1990POPC   GL127601   1.274  43.979   9.152
 1990POPC   GL227602   0.958  43.893   9.184
 1990POPC   C1A27603   1.178  44.093   8.734
 1990POPC   D2A27604   1.009  44.067   8.327
 1990POPC   C3A27605   1.324  43.986   8.064
 1990POPC   C4A27606   1.429  44.135   7.704
 1990POPC   C1B27607   1.020  43.607   8.834
 1990POPC   C2B27608   1.201  43.598   8.446
 1990POPC   C3B27609   0.989  43.609   8.039
 1990POPC   C4B27610   1.172  43.700   7.679
 1991POPC   NC327611  31.759  24.988   9.425
 1991POPC   PO427612  31.174  25.273   9.565
 1991POPC   GL127613  31.394  25.190   9.150
 1991POPC   GL227614  31.186  24.923   9.063
 1991POPC   C1A27615  31.638  25.348   8.757
 1991POPC   D2A27616  31.653  25.621   8.351
 1991POPC   C3A27617  31.599  25.374   7.945
 1991POPC   C4A27618  31.708  25.260   7.515
 1991POPC   C1B27619  31.127  25.202   8.725
 1991POPC   C2B27620  31.287  25.229   8.348
 1991POPC   C3B27621  31.089  25.241   7.975
 1991POPC   C4B27622  31.173  25.146   7.539
 1992POPC   NC327623  41.762  15.193   9.608
 1992POPC   PO427624  41.342  14.638   9.456
 1992POPC   GL127625  41.457  15.037   9.207
 1992POPC   GL227626  41.817  15.148   9.118
 1992POPC   C1A27627  41.451  15.260   8.785
 1992POPC   D2A27628  41.643  15.100   8.379
 1992POPC   C3A27629  41.539  15.299   7.970
 1992POPC   C4A27630  41.590  15.185   7.490
 1992POPC   C1B27631  42.036  14.917   8.842
 1992POPC   C2B27632  41.949  14.656   8.542
 1992POPC   C3B27633  41.902  14.711   8.105
 1992POPC   C4B27634  41.997  15.077   7.857
 1993POPC   NC327635  17.296  38.780   9.597
 1993POPC   PO427636  17.755  38.249   9.518
 1993POPC   GL127637  17.494  38.485   9.240
 1993POPC   GL227638  17.720  38.702   9.097
 1993POPC   C1A27639  17.252  38.551   8.852
 1993POPC   D2A27640  17.476  38.672   8.490
 1993POPC   C3A27641  17.403  38.483   8.071
 1993POPC   C4A27642  17.242  38.704   7.714
 1993POPC   C1B27643  17.883  38.470   8.765
 1993POPC   C2B27644  17.962  38.605   8.357
 1993POPC   C3B27645  17.942  38.390   7.985
 1993POPC   C4B27646  17.758  38.600   7.665
 1994POPC   NC327647   8.847   7.154   9.436
 1994POPC   PO427648   8.946   7.830   9.543
 1994POPC   GL127649   9.072   7.620   9.164
 1994POPC   GL227650   9.362   7.854   9.104
 1994POPC   C1A27651   8.826   7.422   8.780
 1994POPC   D2A27652   8.659   7.267   8.352
 1994POPC   C3A27653   8.907   7.263   7.950
 1994POPC   C4A27654   9.338   7.189   7.787
 1994POPC   C1B27655   9.147   7.821   8.703
 1994POPC   C2B27656   9.090   7.596   8.324
 1994POPC   C3B27657   9.189   7.698   7.893
 1994POPC   C4B27658   9.483   7.618   7.543
 1995POPC   NC327659   9.213  24.683   9.473
 1995POPC   PO427660   8.678  24.289   9.473
 1995POPC   GL127661   8.883  24.287   9.137
 1995POPC   GL227662   9.238  24.324   9.104
 1995POPC   C1A27663   8.751  24.425   8.742
 1995POPC   D2A27664   9.005  24.562   8.459
 1995POPC   C3A27665   8.959  24.627   8.070
 1995POPC   C4A27666   8.903  24.641   7.647
 1995POPC   C1B27667   9.413  24.387   8.683
 1995POPC   C2B27668   9.409  24.374   8.220
 1995POPC   C3B27669   9.306  24.380   7.805
 1995POPC   C4B27670   9.226  24.271   7.330
 1996POPC   NC327671  35.492  29.449   9.426
 1996POPC   PO427672  35.207  28.817   9.572
 1996POPC   GL127673  35.341  28.989   9.164
 1996POPC   GL227674  35.202  29.314   9.033
 1996POPC   C1A27675  35.485  29.039   8.713
 1996POPC   D2A27676  35.282  29.192   8.316
 1996POPC   C3A27677  35.452  29.100   7.897
 1996POPC   C4A27678  35.695  28.731   7.776
 1996POPC   C1B27679  34.954  29.556   8.719
 1996POPC   C2B27680  35.048  29.657   8.301
 1996POPC   C3B27681  35.067  29.651   7.877
 1996POPC   C4B27682  35.202  29.427   7.501
 1997POPC   NC327683   7.385  20.133   9.375
 1997POPC   PO427684   7.435  19.505   9.550
 1997POPC   GL127685   7.584  19.686   9.166
 1997POPC   GL227686   7.827  19.993   9.171
 1997POPC   C1A27687   7.270  19.666   8.813
 1997POPC   D2A27688   7.135  19.523   8.390
 1997POPC   C3A27689   7.363  19.736   8.048
 1997POPC   C4A27690   7.280  19.980   7.710
 1997POPC   C1B27691   7.647  20.014   8.765
 1997POPC   C2B27692   7.484  20.128   8.366
 1997POPC   C3B27693   7.629  20.246   7.946
 1997POPC   C4B27694   7.649  20.306   7.480
 1998POPC   NC327695  31.093   2.607  10.048
 1998POPC   PO427696  30.483   2.871   9.737
 1998POPC   GL127697  30.825   2.898   9.361
 1998POPC   GL227698  31.003   2.564   9.216
 1998POPC   C1A27699  30.821   3.032   8.907
 1998POPC   D2A27700  30.555   3.018   8.511
 1998POPC   C3A27701  30.713   2.867   8.112
 1998POPC   C4A27702  30.916   2.936   7.714
 1998POPC   C1B27703  30.881   2.514   8.763
 1998POPC   C2B27704  30.522   2.490   8.462
 1998POPC   C3B27705  30.431   2.456   8.027
 1998POPC   C4B27706  30.832   2.447   7.771
 1999POPC   NC327707  26.020  25.560   9.527
 1999POPC   PO427708  26.534  25.165   9.514
 1999POPC   GL127709  26.165  25.171   9.213
 1999POPC   GL227710  25.813  25.054   9.179
 1999POPC   C1A27711  26.039  25.430   8.872
 1999POPC   D2A27712  25.947  25.467   8.455
 1999POPC   C3A27713  25.832  25.416   8.044
 1999POPC   C4A27714  26.001  25.563   7.660
 1999POPC   C1B27715  25.910  24.898   8.789
 1999POPC   C2B27716  25.759  24.995   8.391
 1999POPC   C3B27717  25.846  24.881   7.994
 1999POPC   C4B27718  25.769  25.091   7.652
 2000POPC   NC327719  24.179   8.431   9.865
 2000POPC   PO427720  24.566   8.341   9.343
 2000POPC   GL127721  24.777   8.303   9.034
 2000POPC   GL227722  24.767   7.939   9.058
 2000POPC   C1A27723  24.736   8.503   8.674
 2000POPC   D2A27724  24.501   8.439   8.337
 2000POPC   C3A27725  24.785   8.343   8.033
 2000POPC   C4A27726  24.635   8.346   7.632
 2000POPC   C1B27727  24.538   8.018   8.685
 2000POPC   C2B27728  24.774   7.967   8.373
 2000POPC   C3B27729  24.715   7.842   7.993
 2000POPC   C4B27730  24.474   7.790   7.650
 2001POPC   NC327731   6.818  44.037   9.634
 2001POPC   PO427732   6.484  43.560   9.345
 2001POPC   GL127733   6.464  43.892   9.102
 2001POPC   GL227734   6.826  43.954   9.070
 2001POPC   C1A27735   6.460  43.771   8.676
 2001POPC   D2A27736   6.833  43.834   8.474
 2001POPC   C3A27737   6.693  43.829   8.084
 2001POPC   C4A27738   6.854  43.941   7.729
 2001POPC   C1B27739   6.625  44.249   8.755
 2001POPC   C2B27740   6.445  44.259   8.348
 2001POPC   C3B27741   6.588  44.336   7.933
 2001POPC   C4B27742   6.791  44.410   7.533
 2002POPC   NC327743  11.399  19.539   9.272
 2002POPC   PO427744  11.113  19.996   9.676
 2002POPC   GL127745  10.925  19.872   9.242
 2002POPC   GL227746  10.933  19.516   9.113
 2002POPC   C1A27747  10.964  19.889   8.770
 2002POPC   D2A27748  10.945  19.713   8.341
 2002POPC   C3A27749  10.993  20.023   8.014
 2002POPC   C4A27750  11.230  20.039   7.679
 2002POPC   C1B27751  11.174  19.352   8.703
 2002POPC   C2B27752  11.418  19.355   8.322
 2002POPC   C3B27753  11.321  19.616   7.991
 2002POPC   C4B27754  10.950  19.578   7.758
 2003POPC   NC327755  21.867   3.094   9.628
 2003POPC   PO427756  22.313   2.612   9.616
 2003POPC   GL127757  22.202   2.895   9.198
 2003POPC   GL227758  21.884   3.079   9.109
 2003POPC   C1A27759  22.290   3.112   8.774
 2003POPC   D2A27760  22.150   3.214   8.317
 2003POPC   C3A27761  22.327   2.939   7.981
 2003POPC   C4A27762  22.427   2.513   7.988
 2003POPC   C1B27763  21.864   2.808   8.715
 2003POPC   C2B27764  22.040   2.663   8.305
 2003POPC   C3B27765  21.913   2.634   7.835
 2003POPC   C4B27766  21.872   2.857   7.397
 2004POPC   NC327767   2.236  22.814   9.478
 2004POPC   PO427768   1.575  22.698   9.570
 2004POPC   GL127769   1.800  22.715   9.198
 2004POPC   GL227770   1.856  23.090   9.212
 2004POPC   C1A27771   2.035  22.831   8.799
 2004POPC   D2A27772   2.207  22.997   8.402
 2004POPC   C3A27773   2.051  22.758   8.034
 2004POPC   C4A27774   2.076  22.768   7.573
 2004POPC   C1B27775   1.910  23.343   8.820
 2004POPC   C2B27776   1.861  23.490   8.406
 2004POPC   C3B27777   1.720  23.151   8.172
 2004POPC   C4B27778   1.646  22.971   7.780
 2005POPC   NC327779  41.956  38.977   9.954
 2005POPC   PO427780  42.535  38.945   9.582
 2005POPC   GL127781  42.494  38.971   9.156
 2005POPC   GL227782  42.258  39.210   9.167
 2005POPC   C1A27783  42.509  39.126   8.740
 2005POPC   D2A27784  42.319  39.394   8.470
 2005POPC   C3A27785  42.480  39.166   8.145
 2005POPC   C4A27786  42.535  39.179   7.726
 2005POPC   C1B27787  42.036  38.961   8.840
 2005POPC   C2B27788  41.940  39.037   8.406
 2005POPC   C3B27789  41.996  39.237   8.051
 2005POPC   C4B27790  42.033  39.062   7.633
 2006POPC   NC327791  33.598  37.974   9.538
 2006POPC   PO427792  33.866  37.391   9.507
 2006POPC   GL127793  33.707  37.368   9.106
 2006POPC   GL227794  33.708  37.726   9.093
 2006POPC   C1A27795  33.869  37.458   8.681
 2006POPC   D2A27796  33.788  37.765   8.343
 2006POPC   C3A27797  33.567  37.534   8.050
 2006POPC   C4A27798  33.828  37.159   8.042
 2006POPC   C1B27799  33.470  37.862   8.738
 2006POPC   C2B27800  33.306  38.225   8.517
 2006POPC   C3B27801  33.565  38.224   8.195
 2006POPC   C4B27802  33.800  37.971   7.863
 2007POPC   NC327803  30.172  22.423   9.709
 2007POPC   PO427804  29.832  22.988   9.415
 2007POPC   GL127805  30.097  23.124   9.093
 2007POPC   GL227806  29.772  22.994   8.911
 2007POPC   C1A27807  30.159  23.301   8.715
 2007POPC   D2A27808  29.896  23.261   8.336
 2007POPC   C3A27809  30.027  23.210   7.909
 2007POPC   C4A27810  30.127  22.803   7.741
 2007POPC   C1B27811  30.064  22.801   8.656
 2007POPC   C2B27812  30.166  22.824   8.265
 2007POPC   C3B27813  29.745  22.802   8.098
 2007POPC   C4B27814  29.605  22.965   7.722
 2008POPC   NC327815  23.022   2.111   9.459
 2008POPC   PO427816  22.514   1.662   9.589
 2008POPC   GL127817  22.673   1.880   9.142
 2008POPC   GL227818  22.996   2.015   8.975
 2008POPC   C1A27819  22.721   1.785   8.652
 2008POPC   D2A27820  22.980   1.998   8.398
 2008POPC   C3A27821  23.015   1.840   7.987
 2008POPC   C4A27822  22.993   1.810   7.574
 2008POPC   C1B27823  23.155   2.395   8.783
 2008POPC   C2B27824  22.987   2.554   8.436
 2008POPC   C3B27825  22.964   2.382   8.035
 2008POPC   C4B27826  23.154   2.306   7.639
 2009POPC   NC327827  40.010  12.853   9.510
 2009POPC   PO427828  40.610  13.186   9.615
 2009POPC   GL127829  40.253  13.090   9.156
 2009POPC   GL227830  40.183  12.705   9.019
 2009POPC   C1A27831  40.172  13.074   8.694
 2009POPC   D2A27832  40.206  12.648   8.469
 2009POPC   C3A27833  40.227  12.766   8.047
 2009POPC   C4A27834  40.258  13.216   7.980
 2009POPC   C1B27835  39.782  12.713   8.837
 2009POPC   C2B27836  39.597  12.844   8.438
 2009POPC   C3B27837  39.705  12.864   8.003
 2009POPC   C4B27838  39.661  13.016   7.561
 2010POPC   NC327839   4.098  43.471   9.455
 2010POPC   PO427840   4.653  43.824   9.619
 2010POPC   GL127841   4.318  44.021   9.349
 2010POPC   GL227842   4.302  43.785   9.119
 2010POPC   C1A27843   4.158  44.219   8.927
 2010POPC   D2A27844   4.214  44.053   8.503
 2010POPC   C3A27845   4.094  44.157   8.084
 2010POPC   C4A27846   4.345  43.982   7.784
 2010POPC   C1B27847   4.395  43.624   8.746
 2010POPC   C2B27848   4.085  43.521   8.455
 2010POPC   C3B27849   4.104  43.646   8.089
 2010POPC   C4B27850   4.344  43.438   7.813
 2011POPC   NC327851  36.040  27.161   9.467
 2011POPC   PO427852  36.543  27.634   9.613
 2011POPC   GL127853  36.381  27.375   9.196
 2011POPC   GL227854  36.056  27.542   9.121
 2011POPC   C1A27855  36.348  27.379   8.697
 2011POPC   D2A27856  36.131  27.574   8.301
 2011POPC   C3A27857  36.249  27.443   7.880
 2011POPC   C4A27858  36.260  27.560   7.456
 2011POPC   C1B27859  35.867  27.596   8.744
 2011POPC   C2B27860  35.649  27.324   8.445
 2011POPC   C3B27861  35.704  27.394   8.013
 2011POPC   C4B27862  35.890  27.807   7.864
 2012POPC   NC327863  28.597  24.632   9.433
 2012POPC   PO427864  29.329  24.510   9.535
 2012POPC   GL127865  29.102  24.421   9.148
 2012POPC   GL227866  28.969  24.107   9.063
 2012POPC   C1A27867  29.293  24.411   8.732
 2012POPC   D2A27868  29.140  24.511   8.307
 2012POPC   C3A27869  29.435  24.622   7.958
 2012POPC   C4A27870  29.333  24.736   7.518
 2012POPC   C1B27871  28.807  24.182   8.660
 2012POPC   C2B27872  28.738  23.974   8.249
 2012POPC   C3B27873  28.785  24.276   7.938
 2012POPC   C4B27874  28.954  24.676   7.849
 2013POPC   NC327875   6.357  17.299   9.616
 2013POPC   PO427876   6.725  17.829   9.460
 2013POPC   GL127877   6.633  17.544   9.160
 2013POPC   GL227878   6.345  17.621   9.160
 2013POPC   C1A27879   6.719  17.419   8.740
 2013POPC   D2A27880   6.998  17.569   8.387
 2013POPC   C3A27881   6.836  17.426   8.000
 2013POPC   C4A27882   6.469  17.168   7.834
 2013POPC   C1B27883   6.316  17.770   8.747
 2013POPC   C2B27884   6.512  17.738   8.343
 2013POPC   C3B27885   6.386  17.667   7.891
 2013POPC   C4B27886   6.413  17.636   7.410
 2014POPC   NC327887   6.453  43.126   9.446
 2014POPC   PO427888   6.856  42.632   9.415
 2014POPC   GL127889   6.737  42.939   9.065
 2014POPC   GL227890   6.920  43.242   9.197
 2014POPC   C1A27891   6.389  43.154   8.782
 2014POPC   D2A27892   6.231  43.059   8.341
 2014POPC   C3A27893   6.579  42.878   8.101
 2014POPC   C4A27894   6.968  42.842   7.892
 2014POPC   C1B27895   6.841  43.432   8.798
 2014POPC   C2B27896   6.665  43.355   8.380
 2014POPC   C3B27897   6.487  43.359   7.969
 2014POPC   C4B27898   6.469  43.600   7.623
 2015POPC   NC327899  26.366  42.684   9.537
 2015POPC   PO427900  25.902  43.099   9.640
 2015POPC   GL127901  26.119  43.196   9.242
 2015POPC   GL227902  26.434  43.019   9.152
 2015POPC   C1A27903  26.031  43.023   8.829
 2015POPC   D2A27904  25.709  43.158   8.564
 2015POPC   C3A27905  25.770  43.196   8.146
 2015POPC   C4A27906  25.959  42.970   7.833
 2015POPC   C1B27907  26.458  43.324   8.788
 2015POPC   C2B27908  26.248  43.239   8.388
 2015POPC   C3B27909  26.407  42.932   8.066
 2015POPC   C4B27910  26.591  43.073   7.714
 2016POPC   NC327911   7.371  16.116   9.371
 2016POPC   PO427912   6.950  15.619   9.555
 2016POPC   GL127913   7.186  15.681   9.167
 2016POPC   GL227914   7.519  15.665   9.056
 2016POPC   C1A27915   7.091  15.804   8.750
 2016POPC   D2A27916   7.034  16.080   8.393
 2016POPC   C3A27917   7.279  15.952   7.998
 2016POPC   C4A27918   7.460  16.066   7.577
 2016POPC   C1B27919   7.814  15.597   8.674
 2016POPC   C2B27920   7.897  15.623   8.204
 2016POPC   C3B27921   7.879  15.858   7.798
 2016POPC   C4B27922   7.742  15.685   7.372
 2017POPC   NC327923  35.116   2.365   9.599
 2017POPC   PO427924  35.548   2.829   9.389
 2017POPC   GL127925  35.126   2.707   9.206
 2017POPC   GL227926  34.956   2.404   9.103
 2017POPC   C1A27927  35.049   2.868   8.818
 2017POPC   D2A27928  35.343   2.979   8.501
 2017POPC   C3A27929  35.203   2.868   8.104
 2017POPC   C4A27930  35.225   3.019   7.703
 2017POPC   C1B27931  35.285   2.426   8.795
 2017POPC   C2B27932  35.389   2.446   8.368
 2017POPC   C3B27933  35.478   2.503   7.927
 2017POPC   C4B27934  35.225   2.518   7.593
 2018POPC   NC327935  37.426  31.250   9.539
 2018POPC   PO427936  37.867  31.758   9.579
 2018POPC   GL127937  37.669  31.593   9.196
 2018POPC   GL227938  37.276  31.540   9.163
 2018POPC   C1A27939  37.725  31.686   8.755
 2018POPC   D2A27940  37.924  31.738   8.349
 2018POPC   C3A27941  37.664  31.574   8.019
 2018POPC   C4A27942  37.348  31.553   7.696
 2018POPC   C1B27943  37.451  31.252   8.842
 2018POPC   C2B27944  37.651  31.261   8.433
 2018POPC   C3B27945  37.439  31.108   8.072
 2018POPC   C4B27946  37.277  31.060   7.675
 2019POPC   NC327947  30.468   1.698   9.482
 2019POPC   PO427948  30.998   1.239   9.483
 2019POPC   GL127949  30.729   1.303   9.175
 2019POPC   GL227950  30.412   1.223   9.242
 2019POPC   C1A27951  30.841   1.117   8.803
 2019POPC   D2A27952  31.003   0.892   8.466
 2019POPC   C3A27953  30.909   1.135   8.116
 2019POPC   C4A27954  30.868   0.925   7.722
 2019POPC   C1B27955  30.334   0.996   8.843
 2019POPC   C2B27956  30.503   1.065   8.414
 2019POPC   C3B27957  30.432   1.108   7.961
 2019POPC   C4B27958  30.477   1.191   7.508
 2020POPC   NC327959  11.451  29.025   9.540
 2020POPC   PO427960  11.548  29.641   9.503
 2020POPC   GL127961  11.370  29.370   9.124
 2020POPC   GL227962  11.120  29.073   9.057
 2020POPC   C1A27963  11.430  29.202   8.675
 2020POPC   D2A27964  11.259  29.016   8.267
 2020POPC   C3A27965  11.329  29.246   7.875
 2020POPC   C4A27966  11.607  29.197   7.515
 2020POPC   C1B27967  10.996  28.756   8.699
 2020POPC   C2B27968  10.944  28.581   8.246
 2020POPC   C3B27969  10.916  28.884   7.859
 2020POPC   C4B27970  11.073  29.112   7.453
 2021POPC   NC327971   1.641  28.985   9.400
 2021POPC   PO427972   2.299  28.826   9.515
 2021POPC   GL127973   2.082  28.855   9.116
 2021POPC   GL227974   2.408  28.697   9.011
 2021POPC   C1A27975   1.806  29.123   8.790
 2021POPC   D2A27976   1.728  29.345   8.395
 2021POPC   C3A27977   1.839  29.143   8.008
 2021POPC   C4A27978   1.932  28.994   7.605
 2021POPC   C1B27979   2.271  28.984   8.672
 2021POPC   C2B27980   2.279  29.195   8.311
 2021POPC   C3B27981   2.339  29.126   7.884
 2021POPC   C4B27982   2.408  29.154   7.460
 2022POPC   NC327983  28.996   0.800   9.409
 2022POPC   PO427984  28.976   0.094   9.472
 2022POPC   GL127985  29.160   0.287   9.153
 2022POPC   GL227986  28.822   0.437   9.073
 2022POPC   C1A27987  29.533   0.305   8.847
 2022POPC   D2A27988  29.627   0.095   8.437
 2022POPC   C3A27989  29.510   0.312   8.061
 2022POPC   C4A27990  29.201   0.441   7.800
 2022POPC   C1B27991  29.059   0.414   8.679
 2022POPC   C2B27992  29.010   0.311   8.265
 2022POPC   C3B27993  28.804   0.652   8.060
 2022POPC   C4B27994  28.755   0.772   7.643
 2023POPC   NC327995  37.339  33.915   9.423
 2023POPC   PO427996  36.858  33.550   9.679
 2023POPC   GL127997  36.902  33.666   9.222
 2023POPC   GL227998  37.219  33.499   9.123
 2023POPC   C1A27999  36.844  33.737   8.750
 2023POPC   D2A28000  37.019  33.525   8.358
 2023POPC   C3A28001  36.991  33.763   7.964
 2023POPC   C4A28002  36.787  34.161   7.836
 2023POPC   C1B28003  37.343  33.766   8.776
 2023POPC   C2B28004  37.257  33.981   8.394
 2023POPC   C3B28005  37.348  34.160   8.013
 2023POPC   C4B28006  37.242  34.117   7.602
 2024POPC   NC328007  38.500  12.451   9.546
 2024POPC   PO428008  38.134  12.975   9.388
 2024POPC   GL128009  38.436  12.747   9.108
 2024POPC   GL228010  38.292  12.507   8.858
 2024POPC   C1A28011  38.708  12.817   8.741
 2024POPC   D2A28012  38.620  12.666   8.317
 2024POPC   C3A28013  38.699  12.883   7.958
 2024POPC   C4A28014  38.374  13.121   7.782
 2024POPC   C1B28015  38.189  12.900   8.670
 2024POPC   C2B28016  38.085  12.902   8.243
 2024POPC   C3B28017  38.197  12.586   7.959
 2024POPC   C4B28018  38.183  12.263   7.635
 2025POPC   NC328019   1.496   7.205   9.307
 2025POPC   PO428020   1.094   7.628   9.615
 2025POPC   GL128021   1.029   7.512   9.185
 2025POPC   GL228022   0.987   7.166   9.162
 2025POPC   C1A28023   1.128   7.458   8.744
 2025POPC   D2A28024   1.017   7.610   8.348
 2025POPC   C3A28025   1.326   7.427   8.109
 2025POPC   C4A28026   1.421   7.184   7.783
 2025POPC   C1B28027   0.966   6.969   8.754
 2025POPC   C2B28028   1.040   7.045   8.306
 2025POPC   C3B28029   0.904   7.066   7.866
 2025POPC   C4B28030   1.066   7.038   7.401
 2026POPC   NC328031  12.973  42.633   9.922
 2026POPC   PO428032  12.733  43.123   9.544
 2026POPC   GL128033  12.867  43.044   9.139
 2026POPC   GL228034  13.081  43.340   9.167
 2026POPC   C1A28035  12.758  43.079   8.690
 2026POPC   D2A28036  12.568  43.243   8.319
 2026POPC   C3A28037  12.798  43.202   7.947
 2026POPC   C4A28038  12.689  43.131   7.510
 2026POPC   C1B28039  13.263  43.134   8.808
 2026POPC   C2B28040  13.205  42.887   8.432
 2026POPC   C3B28041  13.291  43.061   8.037
 2026POPC   C4B28042  13.182  43.189   7.593
 2027POPC   NC328043  37.524  14.544   9.712
 2027POPC   PO428044  38.105  14.309   9.550
 2027POPC   GL128045  37.849  14.421   9.194
 2027POPC   GL228046  37.515  14.578   9.204
 2027POPC   C1A28047  37.658  14.252   8.804
 2027POPC   D2A28048  37.857  14.210   8.400
 2027POPC   C3A28049  37.629  14.270   8.029
 2027POPC   C4A28050  37.787  14.085   7.687
 2027POPC   C1B28051  37.571  14.755   8.782
 2027POPC   C2B28052  37.459  14.590   8.384
 2027POPC   C3B28053  37.524  14.773   7.968
 2027POPC   C4B28054  37.749  14.582   7.609
 2028POPC   NC328055   9.890  15.938   9.599
 2028POPC   PO428056   9.244  15.895   9.650
 2028POPC   GL128057   9.516  16.104   9.263
 2028POPC   GL228058   9.773  15.865   9.113
 2028POPC   C1A28059   9.606  16.204   8.785
 2028POPC   D2A28060   9.688  15.909   8.442
 2028POPC   C3A28061   9.566  16.070   8.028
 2028POPC   C4A28062   9.804  16.138   7.662
 2028POPC   C1B28063  10.085  16.043   8.814
 2028POPC   C2B28064  10.211  15.962   8.395
 2028POPC   C3B28065  10.003  15.773   8.018
 2028POPC   C4B28066  10.043  15.691   7.570
 2029POPC   NC328067  21.575  15.458   9.487
 2029POPC   PO428068  20.985  15.188   9.704
 2029POPC   GL128069  21.210  15.076   9.294
 2029POPC   GL228070  21.165  15.373   9.118
 2029POPC   C1A28071  21.300  14.966   8.820
 2029POPC   D2A28072  21.120  15.060   8.391
 2029POPC   C3A28073  21.331  14.958   7.998
 2029POPC   C4A28074  21.387  15.155   7.602
 2029POPC   C1B28075  21.399  15.542   8.798
 2029POPC   C2B28076  21.595  15.534   8.402
 2029POPC   C3B28077  21.366  15.489   8.008
 2029POPC   C4B28078  21.466  15.680   7.613
 2030POPC   NC328079  11.502  19.650   9.757
 2030POPC   PO428080  11.136  19.194   9.466
 2030POPC   GL128081  11.276  19.071   9.110
 2030POPC   GL228082  10.965  18.920   9.079
 2030POPC   C1A28083  11.399  18.827   8.793
 2030POPC   D2A28084  11.623  18.898   8.438
 2030POPC   C3A28085  11.446  18.839   8.034
 2030POPC   C4A28086  11.435  19.184   7.764
 2030POPC   C1B28087  10.836  18.946   8.713
 2030POPC   C2B28088  11.088  18.941   8.392
 2030POPC   C3B28089  10.992  19.193   8.092
 2030POPC   C4B28090  10.953  19.061   7.709
 2031POPC   NC328091  19.043   1.729   9.521
 2031POPC   PO428092  19.256   2.295   9.711
 2031POPC   GL128093  19.084   2.159   9.230
 2031POPC   GL228094  18.904   1.849   9.061
 2031POPC   C1A28095  19.130   2.210   8.757
 2031POPC   D2A28096  18.938   2.323   8.350
 2031POPC   C3A28097  19.120   2.392   7.951
 2031POPC   C4A28098  18.874   2.196   7.661
 2031POPC   C1B28099  19.347   1.748   8.887
 2031POPC   C2B28100  19.471   1.897   8.450
 2031POPC   C3B28101  19.204   1.894   8.025
 2031POPC   C4B28102  19.142   1.765   7.561
 2032POPC   NC328103  24.143  14.358   9.507
 2032POPC   PO428104  23.551  14.170   9.462
 2032POPC   GL128105  23.546  14.422   9.108
 2032POPC   GL228106  23.886  14.291   9.063
 2032POPC   C1A28107  23.698  14.580   8.690
 2032POPC   D2A28108  23.906  14.691   8.285
 2032POPC   C3A28109  23.675  14.568   7.909
 2032POPC   C4A28110  23.206  14.580   7.813
 2032POPC   C1B28111  23.909  14.001   8.752
 2032POPC   C2B28112  23.909  13.864   8.378
 2032POPC   C3B28113  24.024  14.075   8.064
 2032POPC   C4B28114  23.906  14.099   7.664
 2033POPC   NC328115  31.967  30.300   9.783
 2033POPC   PO428116  31.482  29.911   9.579
 2033POPC   GL128117  31.400  29.797   9.136
 2033POPC   GL228118  31.576  30.134   9.099
 2033POPC   C1A28119  31.574  29.821   8.705
 2033POPC   D2A28120  31.494  30.183   8.448
 2033POPC   C3A28121  31.356  30.014   8.079
 2033POPC   C4A28122  31.636  29.863   7.826
 2033POPC   C1B28123  31.935  30.182   8.819
 2033POPC   C2B28124  31.979  30.017   8.413
 2033POPC   C3B28125  31.872  30.267   8.070
 2033POPC   C4B28126  31.972  30.226   7.653
 2034POPC   NC328127  26.507  21.071   9.773
 2034POPC   PO428128  27.173  21.301   9.593
 2034POPC   GL128129  26.873  21.384   9.310
 2034POPC   GL228130  27.015  21.069   9.127
 2034POPC   C1A28131  26.637  21.594   8.959
 2034POPC   D2A28132  26.729  21.708   8.511
 2034POPC   C3A28133  26.542  21.586   8.117
 2034POPC   C4A28134  26.667  21.736   7.718
 2034POPC   C1B28135  26.943  20.829   8.753
 2034POPC   C2B28136  26.986  20.863   8.299
 2034POPC   C3B28137  26.840  21.103   7.931
 2034POPC   C4B28138  26.495  21.270   7.688
 2035POPC   NC328139   0.885  31.556   9.484
 2035POPC   PO428140   1.569  31.684   9.451
 2035POPC   GL128141   1.360  31.490   9.096
 2035POPC   GL228142   1.017  31.347   9.057
 2035POPC   C1A28143   1.255  31.535   8.649
 2035POPC   D2A28144   1.109  31.689   8.247
 2035POPC   C3A28145   1.305  31.456   7.904
 2035POPC   C4A28146   1.298  31.590   7.462
 2035POPC   C1B28147   1.054  31.059   8.722
 2035POPC   C2B28148   1.038  31.193   8.314
 2035POPC   C3B28149   0.790  31.362   7.965
 2035POPC   C4B28150   0.954  31.220   7.589
 2036POPC   NC328151  14.053  31.866   9.452
 2036POPC   PO428152  14.114  32.495   9.608
 2036POPC   GL128153  14.223  32.329   9.224
 2036POPC   GL228154  14.576  32.379   9.164
 2036POPC   C1A28155  14.195  32.512   8.823
 2036POPC   D2A28156  14.129  32.306   8.454
 2036POPC   C3A28157  14.209  32.518   8.093
 2036POPC   C4A28158  14.114  32.350   7.689
 2036POPC   C1B28159  14.529  32.121   8.745
 2036POPC   C2B28160  14.626  32.165   8.292
 2036POPC   C3B28161  14.747  31.918   7.907
 2036POPC   C4B28162  14.545  32.095   7.585
 2037POPC   NC328163  27.937  26.819   9.549
 2037POPC   PO428164  28.547  26.609   9.719
 2037POPC   GL128165  28.438  26.830   9.307
 2037POPC   GL228166  28.627  26.617   9.073
 2037POPC   C1A28167  28.337  26.962   8.859
 2037POPC   D2A28168  28.362  26.730   8.469
 2037POPC   C3A28169  28.315  26.886   8.025
 2037POPC   C4A28170  28.365  27.012   7.580
 2037POPC   C1B28171  28.188  26.473   8.904
 2037POPC   C2B28172  28.050  26.325   8.487
 2037POPC   C3B28173  28.069  26.435   8.079
 2037POPC   C4B28174  28.273  26.474   7.681
 2038POPC   NC328175  21.380  36.295   9.639
 2038POPC   PO428176  21.796  35.769   9.437
 2038POPC   GL128177  21.443  36.017   9.171
 2038POPC   GL228178  21.338  36.372   9.155
 2038POPC   C1A28179  21.223  35.999   8.787
 2038POPC   D2A28180  21.427  35.881   8.384
 2038POPC   C3A28181  21.445  36.161   8.016
 2038POPC   C4A28182  21.179  35.940   7.793
 2038POPC   C1B28183  21.205  36.534   8.799
 2038POPC   C2B28184  21.192  36.360   8.401
 2038POPC   C3B28185  21.144  36.604   8.011
 2038POPC   C4B28186  21.331  36.615   7.621
 2039POPC   NC328187   2.328  39.697   9.616
 2039POPC   PO428188   2.738  40.238   9.488
 2039POPC   GL128189   2.835  40.046   9.129
 2039POPC   GL228190   3.020  39.743   9.200
 2039POPC   C1A28191   2.703  40.164   8.727
 2039POPC   D2A28192   2.738  40.373   8.310
 2039POPC   C3A28193   2.606  40.119   8.005
 2039POPC   C4A28194   2.537  39.806   7.799
 2039POPC   C1B28195   3.087  39.829   8.745
 2039POPC   C2B28196   2.934  39.863   8.320
 2039POPC   C3B28197   3.027  39.667   7.918
 2039POPC   C4B28198   3.324  39.768   7.585
 2040POPC   NC328199  13.563  31.566  10.193
 2040POPC   PO428200  13.977  31.492   9.704
 2040POPC   GL128201  13.712  31.551   9.274
 2040POPC   GL228202  13.503  31.867   9.226
 2040POPC   C1A28203  13.673  31.662   8.796
 2040POPC   D2A28204  13.548  31.630   8.350
 2040POPC   C3A28205  13.779  31.539   7.954
 2040POPC   C4A28206  14.005  31.193   7.718
 2040POPC   C1B28207  13.285  32.048   8.851
 2040POPC   C2B28208  13.145  31.950   8.399
 2040POPC   C3B28209  13.260  31.805   7.971
 2040POPC   C4B28210  13.157  31.446   7.704
 2041POPC   NC328211   9.410  19.192   9.477
 2041POPC   PO428212  10.071  18.884   9.495
 2041POPC   GL128213   9.948  19.024   9.081
 2041POPC   GL228214   9.593  18.898   9.063
 2041POPC   C1A28215   9.825  18.984   8.633
 2041POPC   D2A28216   9.616  19.074   8.289
 2041POPC   C3A28217   9.789  18.890   7.991
 2041POPC   C4A28218  10.084  19.069   7.751
 2041POPC   C1B28219   9.369  19.189   8.751
 2041POPC   C2B28220   9.351  19.489   8.388
 2041POPC   C3B28221   9.335  19.369   7.941
 2041POPC   C4B28222   9.565  19.164   7.633
 2042POPC   NC328223  30.427   6.868   9.281
 2042POPC   PO428224  29.830   6.659   9.618
 2042POPC   GL128225  29.854   6.523   9.173
 2042POPC   GL228226  30.009   6.817   9.029
 2042POPC   C1A28227  29.663   6.621   8.741
 2042POPC   D2A28228  29.793   6.489   8.357
 2042POPC   C3A28229  29.616   6.637   7.993
 2042POPC   C4A28230  29.592   6.744   7.555
 2042POPC   C1B28231  29.992   7.027   8.612
 2042POPC   C2B28232  30.021   6.922   8.171
 2042POPC   C3B28233  30.073   6.736   7.770
 2042POPC   C4B28234  30.052   6.881   7.346
 2043POPC   NC328235  14.900  22.600   9.418
 2043POPC   PO428236  15.045  23.241   9.625
 2043POPC   GL128237  15.203  23.030   9.252
 2043POPC   GL228238  14.878  23.016   9.134
 2043POPC   C1A28239  15.294  22.781   8.828
 2043POPC   D2A28240  15.529  22.805   8.421
 2043POPC   C3A28241  15.380  22.915   7.997
 2043POPC   C4A28242  15.511  22.761   7.588
 2043POPC   C1B28243  15.081  23.228   8.794
 2043POPC   C2B28244  15.043  23.041   8.404
 2043POPC   C3B28245  14.870  22.873   8.031
 2043POPC   C4B28246  14.952  23.136   7.655
 2044POPC   NC328247  31.929  15.705   9.538
 2044POPC   PO428248  32.509  16.104   9.456
 2044POPC   GL128249  32.254  15.879   9.159
 2044POPC   GL228250  31.934  16.024   9.131
 2044POPC   C1A28251  32.244  15.726   8.740
 2044POPC   D2A28252  32.300  15.931   8.359
 2044POPC   C3A28253  32.451  15.647   8.064
 2044POPC   C4A28254  32.443  15.922   7.752
 2044POPC   C1B28255  32.012  16.187   8.746
 2044POPC   C2B28256  32.026  16.382   8.385
 2044POPC   C3B28257  31.830  16.279   7.994
 2044POPC   C4B28258  32.032  16.202   7.622
 2045POPC   NC328259   0.628  43.035   9.537
 2045POPC   PO428260  44.937  43.126   9.452
 2045POPC   GL128261   0.307  43.210   9.174
 2045POPC   GL228262   0.462  42.879   9.098
 2045POPC   C1A28263   0.532  43.351   8.795
 2045POPC   D2A28264   0.279  43.398   8.418
 2045POPC   C3A28265   0.482  43.342   7.999
 2045POPC   C4A28266   0.361  43.182   7.566
 2045POPC   C1B28267   0.274  42.912   8.726
 2045POPC   C2B28268   0.466  42.930   8.354
 2045POPC   C3B28269   0.543  42.830   7.958
 2045POPC   C4B28270   0.141  42.735   7.806
 2046POPC   NC328271  13.450   1.772   9.777
 2046POPC   PO428272  13.901   2.127   9.486
 2046POPC   GL128273  13.518   2.062   9.234
 2046POPC   GL228274  13.578   1.814   8.993
 2046POPC   C1A28275  13.368   2.219   8.822
 2046POPC   D2A28276  13.515   1.939   8.498
 2046POPC   C3A28277  13.385   1.969   8.086
 2046POPC   C4A28278  13.477   2.178   7.733
 2046POPC   C1B28279  13.910   1.635   8.720
 2046POPC   C2B28280  14.150   1.560   8.338
 2046POPC   C3B28281  13.981   1.450   7.931
 2046POPC   C4B28282  13.614   1.680   7.721
 2047POPC   NC328283   7.866   7.991   9.335
 2047POPC   PO428284   8.358   8.477   9.515
 2047POPC   GL128285   8.184   8.330   9.132
 2047POPC   GL228286   7.867   8.450   9.101
 2047POPC   C1A28287   8.217   8.033   8.772
 2047POPC   D2A28288   8.642   7.953   8.579
 2047POPC   C3A28289   8.607   7.746   8.184
 2047POPC   C4A28290   8.417   7.949   7.864
 2047POPC   C1B28291   8.009   8.498   8.652
 2047POPC   C2B28292   8.145   8.243   8.279
 2047POPC   C3B28293   7.945   8.176   7.865
 2047POPC   C4B28294   7.859   8.457   7.476
 2048POPC   NC328295  35.545  44.966   9.438
 2048POPC   PO428296  35.070  44.542   9.526
 2048POPC   GL128297  34.946  44.576   9.114
 2048POPC   GL228298  35.240  44.763   9.095
 2048POPC   C1A28299  35.015  44.292   8.753
 2048POPC   D2A28300  35.291  44.284   8.385
 2048POPC   C3A28301  35.236  44.635   8.118
 2048POPC   C4A28302  35.311  44.701   7.727
 2048POPC   C1B28303  35.451  44.707   8.728
 2048POPC   C2B28304  35.685  44.704   8.366
 2048POPC   C3B28305  35.705  44.476   7.995
 2048POPC   C4B28306  35.800  44.632   7.592
 2049POPC   NC328307  19.967  22.221   9.620
 2049POPC   PO428308  19.451  21.852   9.509
 2049POPC   GL128309  19.615  22.131   9.175
 2049POPC   GL228310  19.889  22.364   9.131
 2049POPC   C1A28311  19.584  22.277   8.734
 2049POPC   D2A28312  19.788  22.150   8.373
 2049POPC   C3A28313  19.721  22.339   7.990
 2049POPC   C4A28314  19.798  22.063   7.719
 2049POPC   C1B28315  20.107  22.357   8.740
 2049POPC   C2B28316  20.143  22.511   8.314
 2049POPC   C3B28317  20.223  22.279   7.971
 2049POPC   C4B28318  20.196  22.394   7.583
 2050POPC   NC328319   6.082  33.543   9.486
 2050POPC   PO428320   5.489  33.798   9.500
 2050POPC   GL128321   5.702  33.716   9.150
 2050POPC   GL228322   5.590  33.389   9.028
 2050POPC   C1A28323   5.964  34.003   8.861
 2050POPC   D2A28324   5.900  34.256   8.483
 2050POPC   C3A28325   6.051  34.160   8.063
 2050POPC   C4A28326   5.924  33.878   7.753
 2050POPC   C1B28327   5.765  33.573   8.679
 2050POPC   C2B28328   6.002  33.528   8.340
 2050POPC   C3B28329   5.857  33.409   7.940
 2050POPC   C4B28330   5.469  33.579   7.755
 2051POPC   NC328331  36.436  39.912   9.340
 2051POPC   PO428332  35.856  40.068   9.482
 2051POPC   GL128333  36.032  40.151   9.120
 2051POPC   GL228334  35.987  39.785   9.071
 2051POPC   C1A28335  36.126  40.147   8.705
 2051POPC   D2A28336  36.089  40.270   8.313
 2051POPC   C3A28337  35.907  39.981   8.058
 2051POPC   C4A28338  35.960  40.284   7.764
 2051POPC   C1B28339  36.262  39.574   8.798
 2051POPC   C2B28340  36.104  39.612   8.398
 2051POPC   C3B28341  36.244  39.550   7.990
 2051POPC   C4B28342  36.230  39.830   7.656
 2052POPC   NC328343  39.459   4.148   9.438
 2052POPC   PO428344  38.786   4.307   9.384
 2052POPC   GL128345  39.111   4.335   9.081
 2052POPC   GL228346  39.333   4.623   9.162
 2052POPC   C1A28347  39.210   4.394   8.652
 2052POPC   D2A28348  39.371   4.222   8.265
 2052POPC   C3A28349  39.138   4.180   7.834
 2052POPC   C4A28350  39.166   4.149   7.350
 2052POPC   C1B28351  39.442   4.842   8.771
 2052POPC   C2B28352  39.323   4.886   8.331
 2052POPC   C3B28353  39.332   4.631   7.956
 2052POPC   C4B28354  39.458   4.515   7.517
 2053POPC   NC328355  13.055  44.506   9.629
 2053POPC   PO428356  12.630  44.979   9.547
 2053POPC   GL128357  12.784  44.673   9.224
 2053POPC   GL228358  13.146  44.652   9.146
 2053POPC   C1A28359  12.745  44.652   8.784
 2053POPC   D2A28360  12.848  44.469   8.397
 2053POPC   C3A28361  12.765  44.734   8.079
 2053POPC   C4A28362  12.597  44.816   7.681
 2053POPC   C1B28363  13.241  44.481   8.749
 2053POPC   C2B28364  13.353  44.307   8.361
 2053POPC   C3B28365  13.118  44.315   7.977
 2053POPC   C4B28366  13.124  44.689   7.719
 2054POPC   NC328367  13.661   0.907   9.323
 2054POPC   PO428368  13.868   0.316   9.646
 2054POPC   GL128369  13.650   0.398   9.271
 2054POPC   GL228370  13.669   0.088   9.083
 2054POPC   C1A28371  13.502   0.494   8.837
 2054POPC   D2A28372  13.603   0.276   8.447
 2054POPC   C3A28373  13.515   0.564   8.113
 2054POPC   C4A28374  13.501   0.517   7.685
 2054POPC   C1B28375  13.282   0.014   8.793
 2054POPC   C2B28376  13.219  44.863   8.351
 2054POPC   C3B28377  13.373   0.077   7.982
 2054POPC   C4B28378  13.802   0.141   7.899
 2055POPC   NC328379  15.615   4.492   9.568
 2055POPC   PO428380  16.258   4.540   9.461
 2055POPC   GL128381  16.011   4.307   9.174
 2055POPC   GL228382  16.165   3.970   9.145
 2055POPC   C1A28383  15.936   4.382   8.726
 2055POPC   D2A28384  16.165   4.572   8.381
 2055POPC   C3A28385  16.056   4.450   7.941
 2055POPC   C4A28386  16.241   4.310   7.526
 2055POPC   C1B28387  15.996   3.872   8.725
 2055POPC   C2B28388  15.970   4.075   8.296
 2055POPC   C3B28389  16.148   3.938   7.908
 2055POPC   C4B28390  16.219   3.779   7.499
 2056POPC   NC328391  26.418  36.906   9.471
 2056POPC   PO428392  25.727  36.743   9.517
 2056POPC   GL128393  25.954  36.913   9.121
 2056POPC   GL228394  26.301  36.726   9.018
 2056POPC   C1A28395  26.197  37.172   8.795
 2056POPC   D2A28396  26.417  37.048   8.416
 2056POPC   C3A28397  26.198  37.151   8.009
 2056POPC   C4A28398  25.762  37.083   7.901
 2056POPC   C1B28399  26.049  36.691   8.647
 2056POPC   C2B28400  25.786  36.771   8.298
 2056POPC   C3B28401  26.037  36.645   7.940
 2056POPC   C4B28402  26.480  36.722   8.031
 2057POPC   NC328403   1.038  37.635   9.587
 2057POPC   PO428404   1.572  37.981   9.460
 2057POPC   GL128405   1.357  37.687   9.114
 2057POPC   GL228406   0.978  37.655   9.088
 2057POPC   C1A28407   1.217  37.617   8.649
 2057POPC   D2A28408   0.955  37.805   8.323
 2057POPC   C3A28409   1.180  37.947   7.964
 2057POPC   C4A28410   1.185  37.848   7.532
 2057POPC   C1B28411   0.851  37.296   8.821
 2057POPC   C2B28412   0.881  37.313   8.360
 2057POPC   C3B28413   1.064  37.442   7.946
 2057POPC   C4B28414   1.103  37.337   7.498
 2058POPC   NC328415  31.103   5.073   9.450
 2058POPC   PO428416  31.709   5.279   9.546
 2058POPC   GL128417  31.575   4.969   9.264
 2058POPC   GL228418  31.760   4.679   9.231
 2058POPC   C1A28419  31.398   4.962   8.855
 2058POPC   D2A28420  31.578   5.073   8.477
 2058POPC   C3A28421  31.317   5.181   8.141
 2058POPC   C4A28422  31.320   5.174   7.709
 2058POPC   C1B28423  31.909   4.783   8.827
 2058POPC   C2B28424  31.908   4.553   8.461
 2058POPC   C3B28425  31.761   4.754   8.104
 2058POPC   C4B28426  31.763   4.881   7.699
 2059POPC   NC328427  16.939  18.219   9.607
 2059POPC   PO428428  16.485  18.647   9.426
 2059POPC   GL128429  16.686  18.364   9.162
 2059POPC   GL228430  17.044  18.377   9.106
 2059POPC   C1A28431  16.484  18.126   8.858
 2059POPC   D2A28432  16.463  18.030   8.414
 2059POPC   C3A28433  16.837  18.057   8.167
 2059POPC   C4A28434  16.906  18.087   7.732
 2059POPC   C1B28435  16.907  18.310   8.652
 2059POPC   C2B28436  16.650  18.513   8.297
 2059POPC   C3B28437  16.800  18.596   7.843
 2059POPC   C4B28438  16.937  18.701   7.394
 2060POPC   NC328439   3.879   7.649   9.380
 2060POPC   PO428440   4.480   7.311   9.563
 2060POPC   GL128441   4.295   7.444   9.196
 2060POPC   GL228442   4.017   7.171   9.230
 2060POPC   C1A28443   4.274   7.663   8.796
 2060POPC   D2A28444   4.468   7.602   8.392
 2060POPC   C3A28445   4.309   7.739   7.979
 2060POPC   C4A28446   4.267   7.654   7.501
 2060POPC   C1B28447   3.890   7.094   8.807
 2060POPC   C2B28448   4.015   7.343   8.437
 2060POPC   C3B28449   4.262   7.254   8.064
 2060POPC   C4B28450   4.239   7.103   7.689
 2061POPC   NC328451   6.501  36.551   9.516
 2061POPC   PO428452   6.652  37.197   9.583
 2061POPC   GL128453   6.673  36.931   9.232
 2061POPC   GL228454   6.311  36.842   9.151
 2061POPC   C1A28455   6.722  36.714   8.825
 2061POPC   D2A28456   6.931  36.638   8.432
 2061POPC   C3A28457   6.881  36.864   8.075
 2061POPC   C4A28458   6.665  36.804   7.668
 2061POPC   C1B28459   6.211  36.673   8.765
 2061POPC   C2B28460   6.404  36.604   8.372
 2061POPC   C3B28461   6.367  36.906   8.057
 2061POPC   C4B28462   6.220  37.161   7.756
 2062POPC   NC328463  38.565  14.169   9.542
 2062POPC   PO428464  38.604  14.908   9.522
 2062POPC   GL128465  38.501  14.544   9.181
 2062POPC   GL228466  38.346  14.229   9.111
 2062POPC   C1A28467  38.671  14.358   8.756
 2062POPC   D2A28468  38.870  14.482   8.380
 2062POPC   C3A28469  38.660  14.468   7.987
 2062POPC   C4A28470  38.874  14.427   7.595
 2062POPC   C1B28471  38.160  14.371   8.783
 2062POPC   C2B28472  38.315  14.445   8.390
 2062POPC   C3B28473  38.135  14.406   7.977
 2062POPC   C4B28474  38.291  14.151   7.671
 2063POPC   NC328475  23.186  40.334   9.508
 2063POPC   PO428476  22.658  39.855   9.551
 2063POPC   GL128477  22.936  39.991   9.202
 2063POPC   GL228478  23.229  39.826   9.223
 2063POPC   C1A28479  22.822  40.089   8.765
 2063POPC   D2A28480  22.639  40.226   8.368
 2063POPC   C3A28481  22.562  39.938   8.019
 2063POPC   C4A28482  22.901  39.963   7.754
 2063POPC   C1B28483  23.321  39.964   8.804
 2063POPC   C2B28484  23.429  39.943   8.365
 2063POPC   C3B28485  23.351  39.817   7.924
 2063POPC   C4B28486  23.312  39.948   7.457
 2064POPC   NC328487   8.187   0.661   9.501
 2064POPC   PO428488   8.321   0.005   9.321
 2064POPC   GL128489   8.314   0.409   9.065
 2064POPC   GL228490   8.000   0.631   9.042
 2064POPC   C1A28491   8.229   0.355   8.632
 2064POPC   D2A28492   8.423   0.171   8.306
 2064POPC   C3A28493   8.208   0.221   7.938
 2064POPC   C4A28494   8.158   0.435   7.574
 2064POPC   C1B28495   7.853   0.694   8.623
 2064POPC   C2B28496   7.958   0.589   8.208
 2064POPC   C3B28497   7.865   0.788   7.816
 2064POPC   C4B28498   7.930   0.853   7.366
 2065POPC   NC328499  43.047  29.926   9.589
 2065POPC   PO428500  43.350  30.515   9.511
 2065POPC   GL128501  43.136  30.235   9.155
 2065POPC   GL228502  43.075  29.868   9.083
 2065POPC   C1A28503  43.022  30.241   8.711
 2065POPC   D2A28504  43.136  30.316   8.272
 2065POPC   C3A28505  43.232  29.987   7.946
 2065POPC   C4A28506  43.178  29.837   7.488
 2065POPC   C1B28507  42.850  29.693   8.716
 2065POPC   C2B28508  42.901  29.472   8.304
 2065POPC   C3B28509  42.930  29.568   7.847
 2065POPC   C4B28510  42.711  29.694   7.440
 2066POPC   NC328511  41.749  19.063   9.298
 2066POPC   PO428512  41.159  18.756   9.581
 2066POPC   GL128513  41.295  18.840   9.143
 2066POPC   GL228514  41.290  19.209   9.059
 2066POPC   C1A28515  41.410  18.858   8.684
 2066POPC   D2A28516  41.201  18.850   8.275
 2066POPC   C3A28517  41.315  19.048   7.881
 2066POPC   C4A28518  41.705  18.908   7.720
 2066POPC   C1B28519  41.581  19.323   8.698
 2066POPC   C2B28520  41.694  19.146   8.301
 2066POPC   C3B28521  41.740  19.374   7.931
 2066POPC   C4B28522  41.660  19.360   7.499
 2067POPC   NC328523  21.838   9.921   9.423
 2067POPC   PO428524  22.372   9.618   9.762
 2067POPC   GL128525  22.301   9.730   9.332
 2067POPC   GL228526  22.374  10.089   9.248
 2067POPC   C1A28527  22.286   9.690   8.884
 2067POPC   D2A28528  22.370   9.806   8.440
 2067POPC   C3A28529  22.055   9.746   8.097
 2067POPC   C4A28530  22.144   9.676   7.687
 2067POPC   C1B28531  22.586  10.150   8.804
 2067POPC   C2B28532  22.502  10.299   8.363
 2067POPC   C3B28533  22.492  10.036   7.982
 2067POPC   C4B28534  22.475  10.033   7.548
 2068POPC   NC328535  16.710  35.600   9.480
 2068POPC   PO428536  16.903  34.997   9.544
 2068POPC   GL128537  16.896  35.227   9.161
 2068POPC   GL228538  16.575  35.143   9.129
 2068POPC   C1A28539  17.045  35.381   8.756
 2068POPC   D2A28540  16.879  35.250   8.358
 2068POPC   C3A28541  17.107  35.181   7.969
 2068POPC   C4A28542  17.016  35.421   7.570
 2068POPC   C1B28543  16.524  35.327   8.760
 2068POPC   C2B28544  16.342  35.258   8.373
 2068POPC   C3B28545  16.518  35.404   7.987
 2068POPC   C4B28546  16.398  35.392   7.544
 2069POPC   NC328547  23.217  44.266   9.537
 2069POPC   PO428548  22.736  44.774   9.482
 2069POPC   GL128549  22.797  44.757   9.058
 2069POPC   GL228550  23.126  44.856   9.038
 2069POPC   C1A28551  22.924  44.609   8.624
 2069POPC   D2A28552  23.081  44.232   8.441
 2069POPC   C3A28553  23.197  44.309   8.038
 2069POPC   C4A28554  23.063  44.650   7.766
 2069POPC   C1B28555  22.941   0.109   8.716
 2069POPC   C2B28556  23.006   0.126   8.272
 2069POPC   C3B28557  22.971   0.141   7.818
 2069POPC   C4B28558  22.700  44.958   7.488
 2070POPC   NC328559  40.989   5.961   9.708
 2070POPC   PO428560  41.068   5.387   9.498
 2070POPC   GL128561  40.888   5.738   9.178
 2070POPC   GL228562  40.862   6.145   9.125
 2070POPC   C1A28563  40.654   5.745   8.815
 2070POPC   D2A28564  40.782   5.735   8.390
 2070POPC   C3A28565  40.621   5.752   7.985
 2070POPC   C4A28566  40.825   6.079   7.760
 2070POPC   C1B28567  40.691   6.224   8.677
 2070POPC   C2B28568  40.656   6.226   8.235
 2070POPC   C3B28569  40.471   6.439   7.900
 2070POPC   C4B28570  40.393   6.210   7.490
 2071POPC   NC328571  42.873  30.572   9.431
 2071POPC   PO428572  43.221  31.174   9.425
 2071POPC   GL128573  43.124  30.915   9.106
 2071POPC   GL228574  43.371  30.674   9.037
 2071POPC   C1A28575  42.977  30.768   8.724
 2071POPC   D2A28576  43.064  30.908   8.321
 2071POPC   C3A28577  42.986  30.654   7.939
 2071POPC   C4A28578  42.821  30.219   7.767
 2071POPC   C1B28579  43.460  30.581   8.623
 2071POPC   C2B28580  43.492  30.673   8.194
 2071POPC   C3B28581  43.483  30.531   7.782
 2071POPC   C4B28582  43.231  30.335   7.513
 2072POPC   NC328583  28.176  28.530   9.478
 2072POPC   PO428584  28.671  28.054   9.539
 2072POPC   GL128585  28.672  28.352   9.183
 2072POPC   GL228586  28.353  28.365   9.030
 2072POPC   C1A28587  28.727  28.473   8.713
 2072POPC   D2A28588  28.399  28.300   8.473
 2072POPC   C3A28589  28.315  28.400   8.092
 2072POPC   C4A28590  28.542  28.558   7.759
 2072POPC   C1B28591  28.046  28.136   8.812
 2072POPC   C2B28592  27.884  28.168   8.395
 2072POPC   C3B28593  27.851  28.289   7.959
 2072POPC   C4B28594  28.112  28.253   7.590
 2073POPC   NC328595   4.420   2.583   9.486
 2073POPC   PO428596   4.533   3.254   9.444
 2073POPC   GL128597   4.556   2.938   9.107
 2073POPC   GL228598   4.207   2.891   9.154
 2073POPC   C1A28599   4.527   2.545   8.819
 2073POPC   D2A28600   4.403   2.283   8.452
 2073POPC   C3A28601   4.459   2.475   8.045
 2073POPC   C4A28602   4.409   2.678   7.620
 2073POPC   C1B28603   4.036   2.621   8.844
 2073POPC   C2B28604   3.999   2.632   8.409
 2073POPC   C3B28605   4.025   2.723   7.981
 2073POPC   C4B28606   3.838   2.718   7.593
 2074POPC   NC328607  11.221  11.782   9.502
 2074POPC   PO428608  11.476  12.444   9.517
 2074POPC   GL128609  11.564  12.096   9.219
 2074POPC   GL228610  11.221  12.123   9.103
 2074POPC   C1A28611  11.537  11.944   8.770
 2074POPC   D2A28612  11.477  12.233   8.436
 2074POPC   C3A28613  11.413  11.967   8.081
 2074POPC   C4A28614  11.463  12.066   7.686
 2074POPC   C1B28615  11.033  12.291   8.733
 2074POPC   C2B28616  10.998  12.135   8.318
 2074POPC   C3B28617  10.993  12.233   7.880
 2074POPC   C4B28618  10.914  12.003   7.528
 2075POPC   NC328619  10.373  16.466   9.714
 2075POPC   PO428620  10.773  16.875   9.685
 2075POPC   GL128621  10.660  16.899   9.230
 2075POPC   GL228622  10.420  16.651   9.213
 2075POPC   C1A28623  10.541  16.984   8.772
 2075POPC   D2A28624  10.616  17.235   8.380
 2075POPC   C3A28625  10.449  17.053   8.006
 2075POPC   C4A28626  10.557  16.871   7.595
 2075POPC   C1B28627  10.391  16.482   8.795
 2075POPC   C2B28628  10.237  16.474   8.380
 2075POPC   C3B28629  10.171  16.279   7.990
 2075POPC   C4B28630  10.157  16.524   7.628
 2076POPC   NC328631   0.560   4.526   9.722
 2076POPC   PO428632   0.260   4.065   9.365
 2076POPC   GL128633   0.490   4.368   9.222
 2076POPC   GL228634   0.288   4.611   9.287
 2076POPC   C1A28635   0.687   4.420   8.850
 2076POPC   D2A28636   0.611   4.493   8.435
 2076POPC   C3A28637   0.764   4.174   8.146
 2076POPC   C4A28638   0.877   4.240   7.757
 2076POPC   C1B28639   0.197   4.596   8.852
 2076POPC   C2B28640   0.096   4.601   8.452
 2076POPC   C3B28641   0.253   4.699   8.074
 2076POPC   C4B28642   0.410   4.402   7.821
 2077POPC   NC328643  29.706  39.290   9.506
 2077POPC   PO428644  30.218  38.815   9.493
 2077POPC   GL128645  29.987  39.086   9.137
 2077POPC   GL228646  29.880  39.446   9.065
 2077POPC   C1A28647  29.820  39.054   8.733
 2077POPC   D2A28648  29.844  39.068   8.311
 2077POPC   C3A28649  30.032  38.861   8.007
 2077POPC   C4A28650  29.973  38.977   7.627
 2077POPC   C1B28651  30.184  39.422   8.792
 2077POPC   C2B28652  30.299  39.265   8.423
 2077POPC   C3B28653  30.155  39.379   8.029
 2077POPC   C4B28654  30.063  39.496   7.613
 2078POPC   NC328655  34.588  16.253   9.502
 2078POPC   PO428656  34.389  15.589   9.520
 2078POPC   GL128657  34.560  15.796   9.183
 2078POPC   GL228658  34.603  16.103   9.034
 2078POPC   C1A28659  34.285  15.735   8.848
 2078POPC   D2A28660  34.197  15.744   8.454
 2078POPC   C3A28661  34.341  16.091   8.193
 2078POPC   C4A28662  34.598  16.078   7.859
 2078POPC   C1B28663  34.571  16.113   8.633
 2078POPC   C2B28664  34.874  16.209   8.297
 2078POPC   C3B28665  34.927  16.451   7.963
 2078POPC   C4B28666  34.607  16.605   7.743
 2079POPC   NC328667  43.319  41.998   9.356
 2079POPC   PO428668  43.300  41.256   9.430
 2079POPC   GL128669  43.189  41.552   9.125
 2079POPC   GL228670  43.528  41.671   9.022
 2079POPC   C1A28671  43.131  41.554   8.679
 2079POPC   D2A28672  43.190  41.287   8.311
 2079POPC   C3A28673  42.825  41.331   8.074
 2079POPC   C4A28674  42.826  41.604   7.725
 2079POPC   C1B28675  43.526  41.897   8.640
 2079POPC   C2B28676  43.342  41.797   8.255
 2079POPC   C3B28677  43.294  41.831   7.833
 2079POPC   C4B28678  43.314  41.643   7.432
 2080POPC   NC328679  23.206  32.410   9.966
 2080POPC   PO428680  23.793  32.283   9.585
 2080POPC   GL128681  23.608  32.167   9.205
 2080POPC   GL228682  23.442  31.883   9.220
 2080POPC   C1A28683  23.639  32.308   8.780
 2080POPC   D2A28684  23.886  32.335   8.398
 2080POPC   C3A28685  23.639  32.475   8.060
 2080POPC   C4A28686  23.774  32.457   7.654
 2080POPC   C1B28687  23.741  31.797   8.853
 2080POPC   C2B28688  23.699  31.852   8.405
 2080POPC   C3B28689  23.832  31.998   7.988
 2080POPC   C4B28690  23.547  31.979   7.676
 2081POPC   NC328691   7.058  17.495   9.444
 2081POPC   PO428692   7.635  17.170   9.571
 2081POPC   GL128693   7.448  17.313   9.151
 2081POPC   GL228694   7.601  17.625   9.023
 2081POPC   C1A28695   7.337  17.326   8.694
 2081POPC   D2A28696   7.527  17.179   8.320
 2081POPC   C3A28697   7.440  17.388   7.924
 2081POPC   C4A28698   7.292  17.511   7.518
 2081POPC   C1B28699   7.357  17.829   8.703
 2081POPC   C2B28700   7.453  17.776   8.264
 2081POPC   C3B28701   7.264  17.915   7.864
 2081POPC   C4B28702   7.255  18.003   7.388
 2082POPC   NC328703  15.527  21.272   9.609
 2082POPC   PO428704  14.937  21.436   9.559
 2082POPC   GL128705  15.080  21.372   9.152
 2082POPC   GL228706  15.413  21.486   9.163
 2082POPC   C1A28707  14.933  21.273   8.722
 2082POPC   D2A28708  14.988  21.522   8.352
 2082POPC   C3A28709  14.934  21.272   8.012
 2082POPC   C4A28710  15.066  21.091   7.648
 2082POPC   C1B28711  15.429  21.271   8.764
 2082POPC   C2B28712  15.311  21.109   8.385
 2082POPC   C3B28713  15.485  21.162   7.998
 2082POPC   C4B28714  15.435  21.445   7.697
 2083POPC   NC328715   2.826  11.772   9.477
 2083POPC   PO428716   2.355  12.231   9.650
 2083POPC   GL128717   2.504  12.287   9.245
 2083POPC   GL228718   2.538  11.947   9.095
 2083POPC   C1A28719   2.663  12.424   8.856
 2083POPC   D2A28720   2.958  12.338   8.547
 2083POPC   C3A28721   2.802  12.174   8.172
 2083POPC   C4A28722   2.822  12.181   7.726
 2083POPC   C1B28723   2.655  11.934   8.665
 2083POPC   C2B28724   2.435  11.809   8.303
 2083POPC   C3B28725   2.603  11.744   7.917
 2083POPC   C4B28726   2.655  11.740   7.473
 2084POPC   NC328727  27.340   9.934   9.615
 2084POPC   PO428728  27.725   9.409   9.673
 2084POPC   GL128729  27.731   9.679   9.277
 2084POPC   GL228730  27.675  10.049   9.234
 2084POPC   C1A28731  27.737   9.662   8.816
 2084POPC   D2A28732  27.888   9.540   8.361
 2084POPC   C3A28733  27.840   9.818   7.954
 2084POPC   C4A28734  27.852   9.792   7.476
 2084POPC   C1B28735  27.475  10.104   8.823
 2084POPC   C2B28736  27.537   9.907   8.404
 2084POPC   C3B28737  27.347   9.686   8.061
 2084POPC   C4B28738  27.373   9.734   7.624
 2085POPC   NC328739  25.158  32.773   9.482
 2085POPC   PO428740  25.264  33.444   9.555
 2085POPC   GL128741  25.375  33.215   9.218
 2085POPC   GL228742  25.050  33.157   9.131
 2085POPC   C1A28743  25.400  33.083   8.786
 2085POPC   D2A28744  25.046  33.114   8.507
 2085POPC   C3A28745  25.219  33.175   8.114
 2085POPC   C4A28746  25.225  32.993   7.718
 2085POPC   C1B28747  24.992  32.756   8.875
 2085POPC   C2B28748  24.859  32.634   8.479
 2085POPC   C3B28749  24.952  32.724   8.072
 2085POPC   C4B28750  24.838  32.556   7.679
 2086POPC   NC328751  44.106  22.690   9.439
 2086POPC   PO428752  43.641  23.073   9.720
 2086POPC   GL128753  43.645  22.853   9.244
 2086POPC   GL228754  43.752  22.538   9.085
 2086POPC   C1A28755  43.571  22.905   8.746
 2086POPC   D2A28756  43.659  22.654   8.357
 2086POPC   C3A28757  43.799  22.908   8.014
 2086POPC   C4A28758  43.645  23.294   7.841
 2086POPC   C1B28759  44.020  22.706   8.724
 2086POPC   C2B28760  44.014  23.139   8.512
 2086POPC   C3B28761  44.061  23.364   8.106
 2086POPC   C4B28762  44.186  23.278   7.698
 2087POPC   NC328763  32.358  18.343   9.662
 2087POPC   PO428764  32.286  17.810   9.312
 2087POPC   GL128765  32.076  18.061   9.055
 2087POPC   GL228766  32.066  18.370   9.201
 2087POPC   C1A28767  32.176  18.013   8.636
 2087POPC   D2A28768  31.859  17.899   8.350
 2087POPC   C3A28769  31.923  18.247   8.116
 2087POPC   C4A28770  32.214  18.170   7.771
 2087POPC   C1B28771  32.281  18.510   8.873
 2087POPC   C2B28772  32.240  18.529   8.415
 2087POPC   C3B28773  32.311  18.670   7.972
 2087POPC   C4B28774  32.329  18.592   7.523
 2088POPC   NC328775  10.700  42.142   9.507
 2088POPC   PO428776  10.079  41.883   9.488
 2088POPC   GL128777  10.208  42.135   9.132
 2088POPC   GL228778  10.312  42.481   9.171
 2088POPC   C1A28779  10.385  42.261   8.706
 2088POPC   D2A28780  10.550  41.968   8.374
 2088POPC   C3A28781  10.607  42.112   7.979
 2088POPC   C4A28782  10.238  42.244   7.755
 2088POPC   C1B28783  10.673  42.669   8.925
 2088POPC   C2B28784  10.840  42.656   8.498
 2088POPC   C3B28785  10.696  42.621   8.061
 2088POPC   C4B28786  10.793  42.496   7.630
 2089POPC   NC328787  25.656  30.205   9.633
 2089POPC   PO428788  25.024  30.056   9.532
 2089POPC   GL128789  25.226  29.962   9.159
 2089POPC   GL228790  25.462  30.213   9.137
 2089POPC   C1A28791  25.331  29.726   8.781
 2089POPC   D2A28792  25.447  29.853   8.352
 2089POPC   C3A28793  25.176  29.669   8.069
 2089POPC   C4A28794  25.156  29.661   7.660
 2089POPC   C1B28795  25.376  30.241   8.726
 2089POPC   C2B28796  25.076  30.199   8.435
 2089POPC   C3B28797  25.109  30.166   8.007
 2089POPC   C4B28798  25.510  30.017   7.825
 2090POPC   NC328799  41.972   3.710   9.803
 2090POPC   PO428800  42.290   3.236   9.421
 2090POPC   GL128801  42.229   3.501   9.150
 2090POPC   GL228802  42.304   3.800   9.357
 2090POPC   C1A28803  42.317   3.502   8.717
 2090POPC   D2A28804  42.359   3.258   8.348
 2090POPC   C3A28805  42.226   3.386   7.942
 2090POPC   C4A28806  42.515   3.174   7.659
 2090POPC   C1B28807  42.203   3.950   8.938
 2090POPC   C2B28808  42.343   3.970   8.512
 2090POPC   C3B28809  42.251   3.979   8.094
 2090POPC   C4B28810  42.181   3.859   7.703
 2091POPC   NC328811   2.596  38.778   9.327
 2091POPC   PO428812   2.198  38.250   9.552
 2091POPC   GL128813   2.431  38.230   9.110
 2091POPC   GL228814   2.762  38.419   9.026
 2091POPC   C1A28815   2.603  38.134   8.668
 2091POPC   D2A28816   2.868  38.285   8.338
 2091POPC   C3A28817   2.583  38.299   7.975
 2091POPC   C4A28818   2.620  38.465   7.556
 2091POPC   C1B28819   2.973  38.761   8.764
 2091POPC   C2B28820   3.105  38.783   8.326
 2091POPC   C3B28821   3.002  38.610   7.916
 2091POPC   C4B28822   3.019  38.800   7.505
 2092POPC   NC328823  16.260  37.309   9.209
 2092POPC   PO428824  16.037  36.745   9.490
 2092POPC   GL128825  15.954  36.909   9.096
 2092POPC   GL228826  15.776  36.629   9.041
 2092POPC   C1A28827  16.021  37.082   8.670
 2092POPC   D2A28828  15.968  37.313   8.304
 2092POPC   C3A28829  16.103  37.045   8.005
 2092POPC   C4A28830  15.961  37.010   7.603
 2092POPC   C1B28831  15.884  36.585   8.660
 2092POPC   C2B28832  16.043  36.552   8.295
 2092POPC   C3B28833  15.850  36.597   7.915
 2092POPC   C4B28834  15.848  36.522   7.449
 2093POPC   NC328835   5.950  12.680   9.467
 2093POPC   PO428836   5.624  13.241   9.356
 2093POPC   GL128837   5.961  13.094   9.082
 2093POPC   GL228838   5.875  12.798   8.980
 2093POPC   C1A28839   6.004  13.242   8.674
 2093POPC   D2A28840   5.812  13.201   8.281
 2093POPC   C3A28841   6.033  13.157   7.916
 2093POPC   C4A28842   5.775  12.875   7.737
 2093POPC   C1B28843   5.812  12.608   8.604
 2093POPC   C2B28844   5.914  12.681   8.207
 2093POPC   C3B28845   5.927  12.420   7.884
 2093POPC   C4B28846   5.486  12.448   7.733
 2094POPC   NC328847  11.570  37.137   9.574
 2094POPC   PO428848  11.251  36.562   9.511
 2094POPC   GL128849  11.221  36.750   9.144
 2094POPC   GL228850  11.566  36.834   9.164
 2094POPC   C1A28851  11.134  36.607   8.710
 2094POPC   D2A28852  10.993  36.619   8.297
 2094POPC   C3A28853  11.102  36.921   7.970
 2094POPC   C4A28854  11.457  36.881   7.670
 2094POPC   C1B28855  11.501  36.964   8.767
 2094POPC   C2B28856  11.400  36.954   8.372
 2094POPC   C3B28857  11.455  37.262   8.073
 2094POPC   C4B28858  11.610  37.402   7.718
 2095POPC   NC328859  35.514   4.728   9.501
 2095POPC   PO428860  36.201   5.071   9.554
 2095POPC   GL128861  36.154   5.296   9.163
 2095POPC   GL228862  36.450   5.263   9.034
 2095POPC   C1A28863  36.062   5.169   8.718
 2095POPC   D2A28864  35.823   4.975   8.396
 2095POPC   C3A28865  35.988   5.192   8.085
 2095POPC   C4A28866  36.097   5.142   7.696
 2095POPC   C1B28867  36.431   4.836   8.855
 2095POPC   C2B28868  36.385   4.875   8.399
 2095POPC   C3B28869  36.492   5.134   8.021
 2095POPC   C4B28870  36.550   5.352   7.606
 2096POPC   NC328871   1.183  16.542   9.519
 2096POPC   PO428872   1.674  16.795   9.255
 2096POPC   GL128873   1.333  16.692   9.036
 2096POPC   GL228874   1.322  16.347   9.058
 2096POPC   C1A28875   1.204  16.691   8.625
 2096POPC   D2A28876   0.995  16.948   8.363
 2096POPC   C3A28877   1.203  17.029   8.008
 2096POPC   C4A28878   1.288  16.924   7.620
 2096POPC   C1B28879   0.886  16.397   8.898
 2096POPC   C2B28880   0.755  16.484   8.471
 2096POPC   C3B28881   1.049  16.510   8.116
 2096POPC   C4B28882   1.054  16.474   7.681
 2097POPC   NC328883  32.040  35.488   9.344
 2097POPC   PO428884  32.649  35.413   9.612
 2097POPC   GL128885  32.614  35.254   9.161
 2097POPC   GL228886  32.311  35.042   9.221
 2097POPC   C1A28887  32.458  35.281   8.715
 2097POPC   D2A28888  32.468  35.558   8.351
 2097POPC   C3A28889  32.255  35.391   8.016
 2097POPC   C4A28890  32.158  35.591   7.653
 2097POPC   C1B28891  32.134  34.903   8.826
 2097POPC   C2B28892  32.161  35.003   8.376
 2097POPC   C3B28893  32.142  34.901   7.916
 2097POPC   C4B28894  32.162  35.109   7.487
 2098POPC   NC328895  31.789  32.687   9.566
 2098POPC   PO428896  31.270  32.942   9.927
 2098POPC   GL128897  31.348  32.949   9.459
 2098POPC   GL228898  31.210  33.249   9.326
 2098POPC   C1A28899  31.566  33.004   9.027
 2098POPC   D2A28900  31.542  33.175   8.594
 2098POPC   C3A28901  31.483  33.058   8.182
 2098POPC   C4A28902  31.724  33.025   7.832
 2098POPC   C1B28903  31.132  33.238   8.894
 2098POPC   C2B28904  31.064  33.254   8.438
 2098POPC   C3B28905  31.033  33.185   7.996
 2098POPC   C4B28906  31.238  32.948   7.682
 2099POPC   NC328907  13.614   3.833   9.595
 2099POPC   PO428908  13.536   4.454   9.599
 2099POPC   GL128909  13.870   4.242   9.355
 2099POPC   GL228910  13.670   4.060   9.145
 2099POPC   C1A28911  14.030   4.367   8.939
 2099POPC   D2A28912  14.038   4.562   8.513
 2099POPC   C3A28913  13.949   4.369   8.080
 2099POPC   C4A28914  13.754   4.533   7.718
 2099POPC   C1B28915  13.584   4.238   8.745
 2099POPC   C2B28916  13.697   4.030   8.384
 2099POPC   C3B28917  13.536   3.899   8.034
 2099POPC   C4B28918  13.669   4.033   7.654
 2100POPC   NC328919  10.739   8.758   9.643
 2100POPC   PO428920  10.256   9.192   9.490
 2100POPC   GL128921  10.361   9.026   9.108
 2100POPC   GL228922  10.444   8.739   9.195
 2100POPC   C1A28923  10.223   8.905   8.720
 2100POPC   D2A28924  10.406   8.797   8.372
 2100POPC   C3A28925  10.310   8.980   8.013
 2100POPC   C4A28926  10.465   8.890   7.635
 2100POPC   C1B28927  10.691   8.723   8.785
 2100POPC   C2B28928  10.903   8.693   8.391
 2100POPC   C3B28929  10.816   8.698   7.964
 2100POPC   C4B28930  10.958   9.022   7.695
 2101POPC   NC328931  16.690  30.465   9.542
 2101POPC   PO428932  16.444  31.021   9.496
 2101POPC   GL128933  16.749  30.889   9.193
 2101POPC   GL228934  17.051  31.095   9.147
 2101POPC   C1A28935  16.935  30.666   8.833
 2101POPC   D2A28936  16.794  30.406   8.478
 2101POPC   C3A28937  16.885  30.566   8.080
 2101POPC   C4A28938  16.661  30.637   7.715
 2101POPC   C1B28939  16.794  31.164   8.767
 2101POPC   C2B28940  16.694  30.912   8.397
 2101POPC   C3B28941  16.827  31.073   7.964
 2101POPC   C4B28942  16.834  31.104   7.496
 2102POPC   NC328943  42.873   0.893   9.487
 2102POPC   PO428944  43.090   0.209   9.432
 2102POPC   GL128945  43.006   0.445   9.084
 2102POPC   GL228946  43.163   0.747   9.062
 2102POPC   C1A28947  43.110   0.507   8.625
 2102POPC   D2A28948  43.358   0.613   8.268
 2102POPC   C3A28949  43.191   0.295   8.027
 2102POPC   C4A28950  42.861   0.254   7.743
 2102POPC   C1B28951  42.735   0.793   8.832
 2102POPC   C2B28952  42.611   0.817   8.408
 2102POPC   C3B28953  42.811   0.685   8.031
 2102POPC   C4B28954  43.187   0.740   7.770
 2103POPC   NC328955  37.823  34.736   9.726
 2103POPC   PO428956  37.734  34.080   9.724
 2103POPC   GL128957  37.592  34.366   9.315
 2103POPC   GL228958  37.599  34.739   9.236
 2103POPC   C1A28959  37.773  34.452   8.865
 2103POPC   D2A28960  37.881  34.659   8.455
 2103POPC   C3A28961  37.648  34.729   8.082
 2103POPC   C4A28962  37.573  34.507   7.705
 2103POPC   C1B28963  37.681  34.961   8.826
 2103POPC   C2B28964  37.714  35.150   8.395
 2103POPC   C3B28965  37.862  35.163   7.932
 2103POPC   C4B28966  37.846  34.907   7.539
 2104POPC   NC328967  30.916  33.937   9.570
 2104POPC   PO428968  30.439  33.551   9.586
 2104POPC   GL128969  30.562  33.753   9.202
 2104POPC   GL228970  30.884  33.629   9.126
 2104POPC   C1A28971  30.543  33.775   8.737
 2104POPC   D2A28972  30.294  33.662   8.367
 2104POPC   C3A28973  30.434  33.750   7.942
 2104POPC   C4A28974  30.680  34.020   7.669
 2104POPC   C1B28975  31.039  33.693   8.694
 2104POPC   C2B28976  30.834  33.691   8.286
 2104POPC   C3B28977  30.966  33.665   7.858
 2104POPC   C4B28978  31.116  33.809   7.436
 2105POPC   NC328979  24.425  23.498   9.594
 2105POPC   PO428980  24.931  23.948   9.617
 2105POPC   GL128981  24.599  23.754   9.191
 2105POPC   GL228982  24.254  23.571   9.130
 2105POPC   C1A28983  24.440  23.872   8.769
 2105POPC   D2A28984  24.658  23.988   8.397
 2105POPC   C3A28985  24.374  23.955   8.063
 2105POPC   C4A28986  24.519  23.776   7.701
 2105POPC   C1B28987  24.335  23.364   8.749
 2105POPC   C2B28988  24.415  23.506   8.343
 2105POPC   C3B28989  24.190  23.476   7.977
 2105POPC   C4B28990  24.030  23.753   7.682
 2106POPC   NC328991  26.590   1.415   9.516
 2106POPC   PO428992  27.186   1.465   9.459
 2106POPC   GL128993  26.935   1.266   9.134
 2106POPC   GL228994  27.007   0.934   9.113
 2106POPC   C1A28995  26.678   1.397   8.783
 2106POPC   D2A28996  26.697   1.697   8.429
 2106POPC   C3A28997  26.713   1.477   8.038
 2106POPC   C4A28998  26.843   1.335   7.655
 2106POPC   C1B28999  26.842   0.895   8.701
 2106POPC   C2B29000  26.574   1.109   8.360
 2106POPC   C3B29001  26.538   0.985   7.903
 2106POPC   C4B29002  26.930   0.853   7.632
 2107POPC   NC329003   8.706   1.124   9.571
 2107POPC   PO429004   8.867   1.734   9.591
 2107POPC   GL129005   8.952   1.397   9.201
 2107POPC   GL229006   8.984   1.023   9.156
 2107POPC   C1A29007   9.010   1.531   8.771
 2107POPC   D2A29008   8.818   1.605   8.377
 2107POPC   C3A29009   9.000   1.326   8.085
 2107POPC   C4A29010   9.121   1.382   7.662
 2107POPC   C1B29011   8.845   0.981   8.780
 2107POPC   C2B29012   9.019   0.847   8.404
 2107POPC   C3B29013   9.174   0.866   7.980
 2107POPC   C4B29014   8.871   0.930   7.702
 2108POPC   NC329015   6.130  41.420   9.365
 2108POPC   PO429016   5.508  41.714   9.572
 2108POPC   GL129017   5.750  41.725   9.209
 2108POPC   GL229018   5.625  41.405   9.145
 2108POPC   C1A29019   5.951  41.744   8.806
 2108POPC   D2A29020   5.906  41.565   8.398
 2108POPC   C3A29021   5.764  41.795   8.054
 2108POPC   C4A29022   6.007  41.631   7.742
 2108POPC   C1B29023   5.655  41.278   8.731
 2108POPC   C2B29024   5.537  41.102   8.347
 2108POPC   C3B29025   5.687  41.273   7.979
 2108POPC   C4B29026   5.450  41.526   7.745
 2109POPC   NC329027  14.250   6.451   9.522
 2109POPC   PO429028  14.500   7.000   9.387
 2109POPC   GL129029  14.423   6.799   9.080
 2109POPC   GL229030  14.620   6.535   9.139
 2109POPC   C1A29031  14.089   6.668   8.846
 2109POPC   D2A29032  14.038   6.503   8.437
 2109POPC   C3A29033  14.244   6.697   8.072
 2109POPC   C4A29034  14.262   6.857   7.637
 2109POPC   C1B29035  14.528   6.472   8.698
 2109POPC   C2B29036  14.626   6.250   8.331
 2109POPC   C3B29037  14.573   6.331   7.913
 2109POPC   C4B29038  14.736   6.732   7.778
 2110POPC   NC329039  39.567  22.270   9.805
 2110POPC   PO429040  39.064  22.385   9.317
 2110POPC   GL129041  39.270  22.172   9.008
 2110POPC   GL229042  39.462  22.441   8.859
 2110POPC   C1A29043  39.128  22.136   8.625
 2110POPC   D2A29044  38.858  22.270   8.341
 2110POPC   C3A29045  39.023  22.210   7.942
 2110POPC   C4A29046  39.133  21.838   7.795
 2110POPC   C1B29047  39.606  22.273   8.508
 2110POPC   C2B29048  39.463  22.094   8.177
 2110POPC   C3B29049  39.557  22.117   7.764
 2110POPC   C4B29050  39.343  22.393   7.538
 2111POPC   NC329051  33.885   3.868   9.570
 2111POPC   PO429052  33.679   4.419   9.774
 2111POPC   GL129053  33.567   4.399   9.299
 2111POPC   GL229054  33.619   4.060   9.184
 2111POPC   C1A29055  33.487   4.565   8.839
 2111POPC   D2A29056  33.751   4.653   8.444
 2111POPC   C3A29057  33.578   4.632   8.036
 2111POPC   C4A29058  33.686   4.456   7.655
 2111POPC   C1B29059  33.849   4.207   8.795
 2111POPC   C2B29060  33.753   4.154   8.335
 2111POPC   C3B29061  33.504   4.103   7.967
 2111POPC   C4B29062  33.462   4.007   7.535
 2112POPC   NC329063  39.287  20.505   9.654
 2112POPC   PO429064  39.202  19.760   9.451
 2112POPC   GL129065  39.179  19.979   9.087
 2112POPC   GL229066  39.138  20.315   9.198
 2112POPC   C1A29067  39.368  19.956   8.686
 2112POPC   D2A29068  39.599  19.836   8.330
 2112POPC   C3A29069  39.352  19.946   7.992
 2112POPC   C4A29070  39.282  19.668   7.689
 2112POPC   C1B29071  38.922  20.331   8.815
 2112POPC   C2B29072  39.084  20.386   8.416
 2112POPC   C3B29073  38.943  20.299   7.985
 2112POPC   C4B29074  38.995  20.045   7.590
 2113POPC   NC329075  40.477   9.532   9.377
 2113POPC   PO429076  39.972   9.856   9.469
 2113POPC   GL129077  40.175   9.990   9.060
 2113POPC   GL229078  40.436   9.767   8.936
 2113POPC   C1A29079  40.049  10.275   8.731
 2113POPC   D2A29080  39.878  10.112   8.363
 2113POPC   C3A29081  40.030   9.809   8.081
 2113POPC   C4A29082  39.950   9.660   7.657
 2113POPC   C1B29083  40.130   9.716   8.601
 2113POPC   C2B29084  40.069   9.348   8.306
 2113POPC   C3B29085  39.781   9.266   7.958
 2113POPC   C4B29086  39.523   9.365   7.577
 2114POPC   NC329087  40.355  19.264   9.506
 2114POPC   PO429088  39.696  18.894   9.526
 2114POPC   GL129089  40.014  18.992   9.248
 2114POPC   GL229090  40.020  19.314   9.104
 2114POPC   C1A29091  40.113  18.872   8.862
 2114POPC   D2A29092  40.243  19.166   8.579
 2114POPC   C3A29093  40.282  19.078   8.150
 2114POPC   C4A29094  40.387  19.084   7.740
 2114POPC   C1B29095  39.662  19.130   8.885
 2114POPC   C2B29096  39.575  19.143   8.447
 2114POPC   C3B29097  39.763  19.066   8.083
 2114POPC   C4B29098  39.739  18.927   7.710
 2115POPC   NC329099  13.218   9.701   9.563
 2115POPC   PO429100  13.687  10.155   9.581
 2115POPC   GL129101  13.706   9.887   9.199
 2115POPC   GL229102  13.439   9.693   9.122
 2115POPC   C1A29103  13.592   9.980   8.758
 2115POPC   D2A29104  13.603   9.731   8.401
 2115POPC   C3A29105  13.940   9.849   8.187
 2115POPC   C4A29106  13.845  10.113   7.849
 2115POPC   C1B29107  13.200   9.655   8.746
 2115POPC   C2B29108  13.100   9.615   8.309
 2115POPC   C3B29109  13.269   9.709   7.904
 2115POPC   C4B29110  13.168   9.520   7.483
 2116POPC   NC329111  36.952  42.105   9.344
 2116POPC   PO429112  37.381  41.766   9.038
 2116POPC   GL129113  37.159  41.991   8.793
 2116POPC   GL229114  36.960  42.298   8.872
 2116POPC   C1A29115  37.264  42.190   8.439
 2116POPC   D2A29116  36.968  42.472   8.369
 2116POPC   C3A29117  36.637  42.190   8.245
 2116POPC   C4A29118  36.678  42.165   7.815
 2116POPC   C1B29119  36.551  42.445   8.690
 2116POPC   C2B29120  36.392  42.647   8.363
 2116POPC   C3B29121  36.643  42.628   8.001
 2116POPC   C4B29122  36.472  42.593   7.606
 2117POPC   NC329123  21.095   5.325   9.632
 2117POPC   PO429124  21.541   4.735   9.634
 2117POPC   GL129125  21.367   4.989   9.316
 2117POPC   GL229126  21.114   4.826   9.170
 2117POPC   C1A29127  21.421   5.098   8.886
 2117POPC   D2A29128  21.708   5.255   8.586
 2117POPC   C3A29129  21.575   5.242   8.150
 2117POPC   C4A29130  21.573   5.050   7.715
 2117POPC   C1B29131  20.946   4.916   8.768
 2117POPC   C2B29132  21.028   5.095   8.381
 2117POPC   C3B29133  21.163   4.970   7.990
 2117POPC   C4B29134  21.116   5.148   7.557
 2118POPC   NC329135  32.947  15.922   9.461
 2118POPC   PO429136  33.409  15.451   9.377
 2118POPC   GL129137  33.297  15.777   9.070
 2118POPC   GL229138  33.191  16.135   9.044
 2118POPC   C1A29139  32.906  15.778   8.834
 2118POPC   D2A29140  32.746  15.739   8.460
 2118POPC   C3A29141  32.782  16.045   8.153
 2118POPC   C4A29142  32.917  16.116   7.757
 2118POPC   C1B29143  33.405  16.134   8.663
 2118POPC   C2B29144  33.429  16.082   8.189
 2118POPC   C3B29145  33.422  16.134   7.726
 2118POPC   C4B29146  33.552  16.142   7.263
 2119POPC   NC329147  22.389  43.953   9.412
 2119POPC   PO429148  22.026  43.424   9.512
 2119POPC   GL129149  22.061  43.720   9.107
 2119POPC   GL229150  22.440  43.786   8.950
 2119POPC   C1A29151  21.736  43.813   8.762
 2119POPC   D2A29152  21.608  43.627   8.351
 2119POPC   C3A29153  21.823  43.841   8.010
 2119POPC   C4A29154  22.158  43.679   7.777
 2119POPC   C1B29155  22.192  44.059   8.745
 2119POPC   C2B29156  22.149  43.893   8.384
 2119POPC   C3B29157  22.386  44.033   8.048
 2119POPC   C4B29158  22.180  44.216   7.725
 2120POPC   NC329159  11.087  29.653   9.474
 2120POPC   PO429160  10.575  30.028   9.507
 2120POPC   GL129161  10.382  29.888   9.137
 2120POPC   GL229162  10.208  30.200   9.097
 2120POPC   C1A29163  10.256  29.527   8.863
 2120POPC   D2A29164  10.400  29.454   8.423
 2120POPC   C3A29165  10.279  29.656   8.015
 2120POPC   C4A29166  10.353  29.764   7.560
 2120POPC   C1B29167  10.231  30.020   8.673
 2120POPC   C2B29168  10.255  30.173   8.251
 2120POPC   C3B29169  10.512  30.122   7.888
 2120POPC   C4B29170  10.575  30.213   7.436
 2121POPC   NC329171  18.527  26.956   9.641
 2121POPC   PO429172  18.189  26.471   9.332
 2121POPC   GL129173  18.341  26.820   9.178
 2121POPC   GL229174  18.061  26.987   9.366
 2121POPC   C1A29175  18.385  26.832   8.748
 2121POPC   D2A29176  18.161  26.764   8.395
 2121POPC   C3A29177  18.377  26.644   8.045
 2121POPC   C4A29178  18.558  26.839   7.741
 2121POPC   C1B29179  18.018  27.156   8.960
 2121POPC   C2B29180  18.085  27.256   8.537
 2121POPC   C3B29181  18.004  27.145   8.087
 2121POPC   C4B29182  18.157  27.162   7.655
 2122POPC   NC329183  15.456  11.307   9.561
 2122POPC   PO429184  15.124  11.824   9.546
 2122POPC   GL129185  15.315  11.557   9.163
 2122POPC   GL229186  15.071  11.278   9.205
 2122POPC   C1A29187  15.271  11.277   8.730
 2122POPC   D2A29188  15.274  11.063   8.272
 2122POPC   C3A29189  15.401  11.325   7.872
 2122POPC   C4A29190  15.528  11.521   7.448
 2122POPC   C1B29191  14.887  11.561   8.902
 2122POPC   C2B29192  14.809  11.593   8.483
 2122POPC   C3B29193  14.777  11.242   8.219
 2122POPC   C4B29194  14.922  11.129   7.818
 2123POPC   NC329195  41.290  38.995   9.476
 2123POPC   PO429196  41.924  39.373   9.526
 2123POPC   GL129197  41.785  39.380   9.085
 2123POPC   GL229198  41.589  39.075   9.051
 2123POPC   C1A29199  41.699  39.404   8.643
 2123POPC   D2A29200  41.439  39.068   8.468
 2123POPC   C3A29201  41.519  39.028   8.036
 2123POPC   C4A29202  41.619  39.359   7.752
 2123POPC   C1B29203  41.258  39.346   8.878
 2123POPC   C2B29204  41.228  39.638   8.518
 2123POPC   C3B29205  41.279  39.483   8.114
 2123POPC   C4B29206  41.124  39.242   7.761
 2124POPC   NC329207  19.327   3.367   9.446
 2124POPC   PO429208  18.658   3.698   9.445
 2124POPC   GL129209  18.921   3.444   9.111
 2124POPC   GL229210  19.154   3.148   9.027
 2124POPC   C1A29211  19.190   3.566   8.741
 2124POPC   D2A29212  18.945   3.655   8.382
 2124POPC   C3A29213  19.183   3.762   8.017
 2124POPC   C4A29214  18.864   3.688   7.755
 2124POPC   C1B29215  18.982   3.136   8.620
 2124POPC   C2B29216  19.241   3.271   8.282
 2124POPC   C3B29217  19.111   3.272   7.880
 2124POPC   C4B29218  19.311   3.181   7.523
 2125POPC   NC329219   8.054   5.498   9.443
 2125POPC   PO429220   8.454   6.003   9.473
 2125POPC   GL129221   8.286   5.819   9.128
 2125POPC   GL229222   8.072   6.023   9.000
 2125POPC   C1A29223   8.179   5.533   8.803
 2125POPC   D2A29224   8.287   5.533   8.395
 2125POPC   C3A29225   8.080   5.779   8.116
 2125POPC   C4A29226   8.293   6.049   7.877
 2125POPC   C1B29227   7.989   5.985   8.588
 2125POPC   C2B29228   7.960   6.274   8.242
 2125POPC   C3B29229   7.838   6.259   7.827
 2125POPC   C4B29230   7.990   6.278   7.412
 2126POPC   NC329231  18.088  32.452   9.587
 2126POPC   PO429232  18.630  32.145   9.642
 2126POPC   GL129233  18.530  32.310   9.267
 2126POPC   GL229234  18.414  31.979   9.175
 2126POPC   C1A29235  18.310  32.406   8.884
 2126POPC   D2A29236  17.951  32.356   8.596
 2126POPC   C3A29237  18.095  32.367   8.172
 2126POPC   C4A29238  18.178  32.376   7.739
 2126POPC   C1B29239  18.127  31.912   8.819
 2126POPC   C2B29240  18.058  31.752   8.375
 2126POPC   C3B29241  18.092  31.871   7.906
 2126POPC   C4B29242  18.088  31.950   7.422
 2127POPC   NC329243   4.972   2.008   9.527
 2127POPC   PO429244   4.960   1.402   9.294
 2127POPC   GL129245   4.883   1.733   9.019
 2127POPC   GL229246   5.090   1.976   9.050
 2127POPC   C1A29247   4.906   1.849   8.545
 2127POPC   D2A29248   4.863   1.587   8.142
 2127POPC   C3A29249   4.882   1.819   7.743
 2127POPC   C4A29250   4.694   2.239   7.662
 2127POPC   C1B29251   5.130   2.305   8.797
 2127POPC   C2B29252   5.339   2.179   8.468
 2127POPC   C3B29253   5.136   2.085   8.102
 2127POPC   C4B29254   5.227   2.241   7.709
 2128POPC   NC329255  25.650  22.621   9.356
 2128POPC   PO429256  25.411  21.965   9.406
 2128POPC   GL129257  25.388  22.268   9.095
 2128POPC   GL229258  25.067  22.223   8.953
 2128POPC   C1A29259  25.448  22.318   8.659
 2128POPC   D2A29260  25.142  22.329   8.362
 2128POPC   C3A29261  25.408  22.264   8.057
 2128POPC   C4A29262  25.595  22.452   7.717
 2128POPC   C1B29263  24.731  22.279   8.694
 2128POPC   C2B29264  24.639  22.128   8.297
 2128POPC   C3B29265  24.970  21.990   8.004
 2128POPC   C4B29266  25.086  22.322   7.691
 2129POPC   NC329267  21.163  24.240   9.548
 2129POPC   PO429268  21.622  24.692   9.645
 2129POPC   GL129269  21.552  24.389   9.260
 2129POPC   GL229270  21.803  24.085   9.191
 2129POPC   C1A29271  21.280  24.436   8.889
 2129POPC   D2A29272  21.062  24.349   8.513
 2129POPC   C3A29273  21.263  24.471   8.111
 2129POPC   C4A29274  21.168  24.540   7.697
 2129POPC   C1B29275  21.724  24.208   8.805
 2129POPC   C2B29276  21.634  24.418   8.463
 2129POPC   C3B29277  21.731  24.233   8.081
 2129POPC   C4B29278  21.667  24.454   7.722
 2130POPC   NC329279   8.660  40.228   9.507
 2130POPC   PO429280   9.163  39.748   9.557
 2130POPC   GL129281   8.918  39.852   9.214
 2130POPC   GL229282   9.062  40.158   9.189
 2130POPC   C1A29283   8.812  39.871   8.779
 2130POPC   D2A29284   8.991  39.727   8.389
 2130POPC   C3A29285   8.797  39.823   8.014
 2130POPC   C4A29286   8.576  39.526   7.807
 2130POPC   C1B29287   9.043  40.334   8.796
 2130POPC   C2B29288   9.142  40.211   8.406
 2130POPC   C3B29289   9.253  40.021   8.019
 2130POPC   C4B29290   9.130  40.208   7.639
 2131POPC   NC329291   9.545  33.281   9.316
 2131POPC   PO429292   9.687  33.872   9.674
 2131POPC   GL129293   9.851  33.852   9.265
 2131POPC   GL229294   9.979  33.557   9.153
 2131POPC   C1A29295   9.683  33.845   8.833
 2131POPC   D2A29296   9.893  33.752   8.447
 2131POPC   C3A29297   9.696  33.661   8.040
 2131POPC   C4A29298   9.606  33.787   7.607
 2131POPC   C1B29299  10.022  33.323   8.745
 2131POPC   C2B29300  10.253  33.399   8.349
 2131POPC   C3B29301  10.147  33.364   7.914
 2131POPC   C4B29302   9.817  33.341   7.644
 2132POPC   NC329303  41.082  35.899   9.467
 2132POPC   PO429304  40.577  36.346   9.480
 2132POPC   GL129305  40.868  36.230   9.160
 2132POPC   GL229306  40.685  35.931   9.123
 2132POPC   C1A29307  41.020  36.006   8.772
 2132POPC   D2A29308  40.876  35.991   8.367
 2132POPC   C3A29309  40.855  36.332   8.040
 2132POPC   C4A29310  41.038  36.344   7.577
 2132POPC   C1B29311  40.449  36.079   8.768
 2132POPC   C2B29312  40.355  35.885   8.367
 2132POPC   C3B29313  40.625  35.693   8.056
 2132POPC   C4B29314  40.739  35.925   7.685
 2133POPC   NC329315   1.852  31.305   9.437
 2133POPC   PO429316   2.060  31.965   9.565
 2133POPC   GL129317   2.020  31.718   9.173
 2133POPC   GL229318   2.325  31.514   9.265
 2133POPC   C1A29319   1.772  31.471   8.795
 2133POPC   D2A29320   1.629  31.303   8.385
 2133POPC   C3A29321   1.860  31.399   8.020
 2133POPC   C4A29322   1.750  31.359   7.609
 2133POPC   C1B29323   2.278  31.432   8.833
 2133POPC   C2B29324   2.155  31.250   8.455
 2133POPC   C3B29325   2.401  31.103   8.104
 2133POPC   C4B29326   2.440  31.296   7.702
 2134POPC   NC329327  32.082  11.601   9.860
 2134POPC   PO429328  32.546  11.932   9.467
 2134POPC   GL129329  32.301  12.079   9.111
 2134POPC   GL229330  32.078  12.342   9.155
 2134POPC   C1A29331  32.010  11.981   8.775
 2134POPC   D2A29332  32.013  11.664   8.464
 2134POPC   C3A29333  32.314  11.760   8.140
 2134POPC   C4A29334  32.299  11.793   7.701
 2134POPC   C1B29335  32.169  12.468   8.746
 2134POPC   C2B29336  32.183  12.261   8.330
 2134POPC   C3B29337  32.291  12.281   7.878
 2134POPC   C4B29338  32.414  12.227   7.419
 2135POPC   NC329339  25.916  44.548   9.624
 2135POPC   PO429340  26.292   0.037   9.484
 2135POPC   GL129341  26.285  44.614   9.236
 2135POPC   GL229342  25.945  44.470   9.122
 2135POPC   C1A29343  26.307  44.519   8.785
 2135POPC   D2A29344  26.148  44.695   8.389
 2135POPC   C3A29345  26.356  44.879   8.014
 2135POPC   C4A29346  26.333  44.982   7.570
 2135POPC   C1B29347  25.789  44.451   8.669
 2135POPC   C2B29348  25.944  44.198   8.292
 2135POPC   C3B29349  26.154  44.409   7.958
 2135POPC   C4B29350  25.769  44.520   7.739
 2136POPC   NC329351   3.719  44.471   9.333
 2136POPC   PO429352   3.175  44.029   9.503
 2136POPC   GL129353   3.483  43.977   9.148
 2136POPC   GL229354   3.811  43.892   9.265
 2136POPC   C1A29355   3.362  43.771   8.757
 2136POPC   D2A29356   3.208  43.893   8.398
 2136POPC   C3A29357   3.136  43.592   8.132
 2136POPC   C4A29358   3.110  43.709   7.749
 2136POPC   C1B29359   3.864  43.816   8.813
 2136POPC   C2B29360   3.720  43.932   8.380
 2136POPC   C3B29361   3.616  43.740   7.970
 2136POPC   C4B29362   3.875  43.488   7.659
 2137POPC   NC329363   8.107  31.433   9.589
 2137POPC   PO429364   8.516  31.073   9.206
 2137POPC   GL129365   8.237  31.404   9.096
 2137POPC   GL229366   8.275  31.766   9.160
 2137POPC   C1A29367   8.178  31.502   8.694
 2137POPC   D2A29368   8.305  31.196   8.411
 2137POPC   C3A29369   8.173  31.286   8.021
 2137POPC   C4A29370   8.372  31.057   7.679
 2137POPC   C1B29371   7.959  31.934   8.860
 2137POPC   C2B29372   7.918  31.868   8.427
 2137POPC   C3B29373   8.237  31.876   8.120
 2137POPC   C4B29374   8.393  31.660   7.768
 2138POPC   NC329375  14.923  32.082   9.521
 2138POPC   PO429376  15.540  32.134   9.392
 2138POPC   GL129377  15.244  32.312   9.143
 2138POPC   GL229378  14.958  32.070   9.029
 2138POPC   C1A29379  15.423  32.506   8.766
 2138POPC   D2A29380  15.572  32.335   8.391
 2138POPC   C3A29381  15.357  32.119   8.104
 2138POPC   C4A29382  15.464  32.342   7.775
 2138POPC   C1B29383  14.925  32.422   8.754
 2138POPC   C2B29384  15.047  32.459   8.327
 2138POPC   C3B29385  14.958  32.360   7.841
 2138POPC   C4B29386  14.899  32.430   7.368
 2139POPC   NC329387  12.442  41.754   9.415
 2139POPC   PO429388  13.068  41.530   9.481
 2139POPC   GL129389  12.859  41.589   9.128
 2139POPC   GL229390  13.135  41.797   9.006
 2139POPC   C1A29391  12.630  41.438   8.773
 2139POPC   D2A29392  12.764  41.576   8.377
 2139POPC   C3A29393  12.708  41.337   8.003
 2139POPC   C4A29394  12.762  41.499   7.582
 2139POPC   C1B29395  13.178  41.500   8.701
 2139POPC   C2B29396  13.317  41.433   8.270
 2139POPC   C3B29397  13.136  41.651   7.941
 2139POPC   C4B29398  13.136  42.104   7.914
 2140POPC   NC329399  12.289  23.666   9.462
 2140POPC   PO429400  11.610  23.726   9.559
 2140POPC   GL129401  11.832  23.588   9.203
 2140POPC   GL229402  12.018  23.897   9.107
 2140POPC   C1A29403  12.039  23.498   8.814
 2140POPC   D2A29404  12.216  23.671   8.462
 2140POPC   C3A29405  11.996  23.616   8.099
 2140POPC   C4A29406  12.259  23.482   7.818
 2140POPC   C1B29407  12.225  24.106   8.748
 2140POPC   C2B29408  12.108  24.170   8.326
 2140POPC   C3B29409  12.133  24.088   7.905
 2140POPC   C4B29410  12.115  23.870   7.537
 2141POPC   NC329411  17.164   4.464   9.452
 2141POPC   PO429412  17.795   4.198   9.510
 2141POPC   GL129413  17.509   4.202   9.145
 2141POPC   GL229414  17.174   4.200   8.990
 2141POPC   C1A29415  17.626   4.169   8.728
 2141POPC   D2A29416  17.825   4.004   8.397
 2141POPC   C3A29417  17.628   4.145   8.067
 2141POPC   C4A29418  17.795   4.339   7.746
 2141POPC   C1B29419  16.928   4.007   8.663
 2141POPC   C2B29420  16.936   4.109   8.228
 2141POPC   C3B29421  17.109   4.185   7.824
 2141POPC   C4B29422  17.313   4.359   7.457
 2142POPC   NC329423  13.319  34.451   9.510
 2142POPC   PO429424  12.702  34.793   9.606
 2142POPC   GL129425  12.805  34.684   9.208
 2142POPC   GL229426  12.481  34.705   9.093
 2142POPC   C1A29427  12.940  34.375   8.904
 2142POPC   D2A29428  13.108  34.262   8.487
 2142POPC   C3A29429  12.932  34.588   8.226
 2142POPC   C4A29430  12.869  34.516   7.810
 2142POPC   C1B29431  12.657  34.848   8.711
 2142POPC   C2B29432  12.468  34.834   8.324
 2142POPC   C3B29433  12.530  34.889   7.896
 2142POPC   C4B29434  12.799  35.077   7.588
 2143POPC   NC329435  24.535  42.727   9.405
 2143POPC   PO429436  24.030  42.472   9.413
 2143POPC   GL129437  24.254  42.453   9.001
 2143POPC   GL229438  24.613  42.419   8.976
 2143POPC   C1A29439  24.330  42.491   8.537
 2143POPC   D2A29440  24.296  42.200   8.201
 2143POPC   C3A29441  24.256  42.302   7.769
 2143POPC   C4A29442  24.299  42.276   7.303
 2143POPC   C1B29443  24.736  42.175   8.588
 2143POPC   C2B29444  24.805  42.104   8.146
 2143POPC   C3B29445  24.956  42.124   7.706
 2143POPC   C4B29446  25.387  42.304   7.612
 2144POPC   NC329447  17.534  32.854   9.502
 2144POPC   PO429448  17.987  33.435   9.484
 2144POPC   GL129449  17.696  33.257   9.174
 2144POPC   GL229450  17.342  33.375   9.196
 2144POPC   C1A29451  17.504  33.009   8.847
 2144POPC   D2A29452  17.401  32.854   8.434
 2144POPC   C3A29453  17.630  32.893   8.058
 2144POPC   C4A29454  17.503  32.744   7.655
 2144POPC   C1B29455  17.164  33.450   8.774
 2144POPC   C2B29456  17.084  33.242   8.378
 2144POPC   C3B29457  17.150  33.057   7.985
 2144POPC   C4B29458  17.293  33.199   7.574
 2145POPC   NC329459  22.754  24.014   9.467
 2145POPC   PO429460  23.074  23.370   9.530
 2145POPC   GL129461  23.042  23.671   9.199
 2145POPC   GL229462  22.717  23.639   9.107
 2145POPC   C1A29463  23.059  23.868   8.807
 2145POPC   D2A29464  22.792  23.946   8.457
 2145POPC   C3A29465  22.996  23.890   8.069
 2145POPC   C4A29466  23.254  23.809   7.702
 2145POPC   C1B29467  22.793  23.418   8.720
 2145POPC   C2B29468  22.781  23.456   8.302
 2145POPC   C3B29469  22.588  23.621   7.969
 2145POPC   C4B29470  22.770  23.619   7.645
 2146POPC   NC329471  33.572  10.033   9.691
 2146POPC   PO429472  33.805   9.411   9.507
 2146POPC   GL129473  33.781   9.683   9.141
 2146POPC   GL229474  33.481   9.867   9.118
 2146POPC   C1A29475  33.948   9.610   8.735
 2146POPC   D2A29476  33.722   9.592   8.353
 2146POPC   C3A29477  33.641   9.952   8.106
 2146POPC   C4A29478  33.751   9.998   7.678
 2146POPC   C1B29479  33.447   9.497   8.820
 2146POPC   C2B29480  33.214   9.371   8.474
 2146POPC   C3B29481  33.285   9.541   8.080
 2146POPC   C4B29482  33.622   9.512   7.790
 2147POPC   NC329483   8.538  22.198   9.510
 2147POPC   PO429484   9.210  22.052   9.497
 2147POPC   GL129485   8.928  22.237   9.166
 2147POPC   GL229486   8.587  22.398   9.039
 2147POPC   C1A29487   8.890  22.054   8.783
 2147POPC   D2A29488   9.008  22.205   8.425
 2147POPC   C3A29489   8.767  22.091   8.104
 2147POPC   C4A29490   8.990  21.845   7.815
 2147POPC   C1B29491   8.859  22.617   8.718
 2147POPC   C2B29492   8.945  22.691   8.254
 2147POPC   C3B29493   8.968  22.509   7.834
 2147POPC   C4B29494   8.716  22.232   7.609
 2148POPC   NC329495  44.090   7.339   9.537
 2148POPC   PO429496  43.523   7.646   9.494
 2148POPC   GL129497  43.704   7.431   9.148
 2148POPC   GL229498  43.752   7.071   9.176
 2148POPC   C1A29499  44.030   7.476   8.859
 2148POPC   D2A29500  44.147   7.739   8.517
 2148POPC   C3A29501  43.948   7.566   8.137
 2148POPC   C4A29502  43.889   7.738   7.753
 2148POPC   C1B29503  43.862   6.981   8.742
 2148POPC   C2B29504  43.795   7.095   8.305
 2148POPC   C3B29505  43.943   7.118   7.876
 2148POPC   C4B29506  43.809   7.052   7.420
 2149POPC   NC329507   9.310  21.588   9.448
 2149POPC   PO429508   8.846  21.126   9.496
 2149POPC   GL129509   8.965  21.347   9.150
 2149POPC   GL229510   8.851  21.700   9.165
 2149POPC   C1A29511   9.199  21.448   8.787
 2149POPC   D2A29512   9.078  21.670   8.417
 2149POPC   C3A29513   9.020  21.345   8.122
 2149POPC   C4A29514   9.035  21.178   7.716
 2149POPC   C1B29515   8.697  21.544   8.746
 2149POPC   C2B29516   8.597  21.608   8.292
 2149POPC   C3B29517   8.618  21.496   7.826
 2149POPC   C4B29518   8.510  21.792   7.482
 2150POPC   NC329519  14.754  39.244   9.751
 2150POPC   PO429520  15.142  39.562   9.284
 2150POPC   GL129521  15.204  39.183   9.128
 2150POPC   GL229522  14.855  39.012   9.212
 2150POPC   C1A29523  15.429  39.190   8.722
 2150POPC   D2A29524  15.519  38.975   8.354
 2150POPC   C3A29525  15.421  39.161   7.960
 2150POPC   C4A29526  15.656  39.099   7.599
 2150POPC   C1B29527  14.898  39.097   8.740
 2150POPC   C2B29528  15.018  39.009   8.307
 2150POPC   C3B29529  14.928  39.022   7.858
 2150POPC   C4B29530  14.801  38.955   7.421
 2151POPC   NC329531  14.881  18.883   9.575
 2151POPC   PO429532  15.181  19.496   9.779
 2151POPC   GL129533  15.130  19.287   9.315
 2151POPC   GL229534  15.151  18.929   9.143
 2151POPC   C1A29535  15.191  19.352   8.846
 2151POPC   D2A29536  15.299  19.012   8.552
 2151POPC   C3A29537  15.328  19.091   8.106
 2151POPC   C4A29538  15.016  19.341   7.879
 2151POPC   C1B29539  14.941  18.712   8.778
 2151POPC   C2B29540  14.850  18.861   8.328
 2151POPC   C3B29541  14.923  18.824   7.898
 2151POPC   C4B29542  14.887  18.605   7.489
 2152POPC   NC329543  16.117  20.396   9.467
 2152POPC   PO429544  15.789  20.902   9.564
 2152POPC   GL129545  15.875  20.735   9.189
 2152POPC   GL229546  15.719  20.439   9.100
 2152POPC   C1A29547  16.139  20.712   8.861
 2152POPC   D2A29548  16.256  20.858   8.486
 2152POPC   C3A29549  16.189  20.587   8.156
 2152POPC   C4A29550  16.162  20.723   7.766
 2152POPC   C1B29551  15.833  20.286   8.698
 2152POPC   C2B29552  15.757  20.324   8.270
 2152POPC   C3B29553  15.849  20.177   7.882
 2152POPC   C4B29554  16.238  20.216   7.771
 2153POPC   NC329555  26.896  38.350   9.530
 2153POPC   PO429556  26.472  38.727   9.672
 2153POPC   GL129557  26.580  38.616   9.175
 2153POPC   GL229558  26.601  38.272   9.073
 2153POPC   C1A29559  26.600  38.553   8.655
 2153POPC   D2A29560  26.393  38.416   8.272
 2153POPC   C3A29561  26.497  38.543   7.857
 2153POPC   C4A29562  26.521  38.812   7.483
 2153POPC   C1B29563  27.018  38.432   8.897
 2153POPC   C2B29564  27.083  38.468   8.434
 2153POPC   C3B29565  26.981  38.383   7.988
 2153POPC   C4B29566  26.980  38.786   7.732
 2154POPC   NC329567  39.601  16.880   9.595
 2154POPC   PO429568  38.991  17.303   9.591
 2154POPC   GL129569  39.063  16.874   9.290
 2154POPC   GL229570  39.401  16.715   9.174
 2154POPC   C1A29571  39.041  16.624   8.847
 2154POPC   D2A29572  39.210  16.772   8.471
 2154POPC   C3A29573  38.969  16.803   8.088
 2154POPC   C4A29574  39.172  16.996   7.722
 2154POPC   C1B29575  39.593  16.597   8.781
 2154POPC   C2B29576  39.756  16.714   8.397
 2154POPC   C3B29577  39.497  16.764   8.038
 2154POPC   C4B29578  39.182  16.476   7.792
 2155POPC   NC329579  26.608  44.190   9.493
 2155POPC   PO429580  27.024  43.680   9.445
 2155POPC   GL129581  26.941  43.922   9.108
 2155POPC   GL229582  26.603  43.795   9.031
 2155POPC   C1A29583  27.082  43.908   8.692
 2155POPC   D2A29584  26.832  43.761   8.360
 2155POPC   C3A29585  27.023  43.792   7.989
 2155POPC   C4A29586  26.951  43.975   7.602
 2155POPC   C1B29587  26.622  44.117   8.720
 2155POPC   C2B29588  26.450  44.222   8.347
 2155POPC   C3B29589  26.626  44.134   7.981
 2155POPC   C4B29590  26.460  44.065   7.599
 2156POPC   NC329591   4.531   1.372   9.463
 2156POPC   PO429592   5.123   0.929   9.535
 2156POPC   GL129593   4.978   0.912   9.122
 2156POPC   GL229594   5.193   1.160   8.933
 2156POPC   C1A29595   4.803   0.889   8.733
 2156POPC   D2A29596   4.946   1.169   8.440
 2156POPC   C3A29597   4.786   1.044   8.046
 2156POPC   C4A29598   5.019   1.208   7.744
 2156POPC   C1B29599   5.314   1.573   8.750
 2156POPC   C2B29600   5.393   1.689   8.329
 2156POPC   C3B29601   5.325   1.565   7.931
 2156POPC   C4B29602   5.510   1.210   7.725
 2157POPC   NC329603  36.946  44.286   9.433
 2157POPC   PO429604  36.656  44.949   9.533
 2157POPC   GL129605  36.853  44.754   9.223
 2157POPC   GL229606  36.587  44.533   9.167
 2157POPC   C1A29607  37.036  44.787   8.825
 2157POPC   D2A29608  37.084  44.978   8.424
 2157POPC   C3A29609  37.228  44.828   8.050
 2157POPC   C4A29610  36.995  44.965   7.729
 2157POPC   C1B29611  36.397  44.550   8.799
 2157POPC   C2B29612  36.533  44.468   8.390
 2157POPC   C3B29613  36.684  44.737   8.088
 2157POPC   C4B29614  36.608  44.654   7.670
 2158POPC   NC329615  16.199   0.798   9.484
 2158POPC   PO429616  15.564   0.950   9.498
 2158POPC   GL129617  15.564   1.073   9.071
 2158POPC   GL229618  15.879   1.248   9.099
 2158POPC   C1A29619  15.638   1.189   8.610
 2158POPC   D2A29620  15.741   1.552   8.314
 2158POPC   C3A29621  15.755   1.476   7.899
 2158POPC   C4A29622  15.706   1.117   7.712
 2158POPC   C1B29623  16.062   0.917   8.798
 2158POPC   C2B29624  16.171   0.854   8.330
 2158POPC   C3B29625  16.232   0.847   7.878
 2158POPC   C4B29626  16.174   1.061   7.459
 2159POPC   NC329627  43.920  19.455  10.133
 2159POPC   PO429628  43.676  19.817   9.556
 2159POPC   GL129629  43.937  19.662   9.222
 2159POPC   GL229630  43.715  19.825   9.005
 2159POPC   C1A29631  44.108  19.591   8.774
 2159POPC   D2A29632  43.988  19.532   8.323
 2159POPC   C3A29633  43.908  19.895   8.016
 2159POPC   C4A29634  43.991  19.785   7.578
 2159POPC   C1B29635  43.586  19.556   8.672
 2159POPC   C2B29636  43.500  19.701   8.287
 2159POPC   C3B29637  43.540  19.592   7.884
 2159POPC   C4B29638  43.514  19.944   7.632
 2160POPC   NC329639   3.362  36.624   9.647
 2160POPC   PO429640   3.403  37.229   9.393
 2160POPC   GL129641   3.365  37.054   8.987
 2160POPC   GL229642   3.333  36.720   9.128
 2160POPC   C1A29643   3.679  36.910   8.648
 2160POPC   D2A29644   3.661  36.696   8.281
 2160POPC   C3A29645   3.816  36.964   7.989
 2160POPC   C4A29646   3.873  36.791   7.615
 2160POPC   C1B29647   3.250  36.654   8.685
 2160POPC   C2B29648   3.210  36.930   8.340
 2160POPC   C3B29649   3.309  36.933   7.911
 2160POPC   C4B29650   3.185  37.235   7.639
 2161POPC   NC329651   5.217   8.548   9.550
 2161POPC   PO429652   5.239   9.186   9.504
 2161POPC   GL129653   5.057   8.867   9.180
 2161POPC   GL229654   4.766   8.639   9.297
 2161POPC   C1A29655   5.001   8.889   8.729
 2161POPC   D2A29656   4.977   9.201   8.402
 2161POPC   C3A29657   5.200   9.119   8.052
 2161POPC   C4A29658   5.326   9.110   7.647
 2161POPC   C1B29659   4.583   8.627   8.879
 2161POPC   C2B29660   4.715   8.513   8.463
 2161POPC   C3B29661   4.675   8.759   8.125
 2161POPC   C4B29662   4.879   8.842   7.761
 2162POPC   NC329663  34.870  36.604   9.387
 2162POPC   PO429664  35.406  36.983   9.426
 2162POPC   GL129665  35.435  36.648   9.112
 2162POPC   GL229666  35.120  36.583   8.952
 2162POPC   C1A29667  35.517  36.850   8.734
 2162POPC   D2A29668  35.361  37.208   8.482
 2162POPC   C3A29669  35.506  37.122   8.071
 2162POPC   C4A29670  35.404  36.846   7.709
 2162POPC   C1B29671  35.006  37.002   8.798
 2162POPC   C2B29672  34.869  37.127   8.379
 2162POPC   C3B29673  35.014  36.987   8.005
 2162POPC   C4B29674  35.149  37.274   7.713
 2163POPC   NC329675   9.603  39.526   9.541
 2163POPC   PO429676   9.941  38.921   9.390
 2163POPC   GL129677   9.593  38.973   9.121
 2163POPC   GL229678   9.654  39.300   9.101
 2163POPC   C1A29679   9.587  39.014   8.675
 2163POPC   D2A29680   9.912  38.936   8.382
 2163POPC   C3A29681   9.783  39.058   7.979
 2163POPC   C4A29682   9.537  38.883   7.669
 2163POPC   C1B29683   9.676  39.514   8.758
 2163POPC   C2B29684   9.759  39.426   8.359
 2163POPC   C3B29685   9.579  39.530   7.965
 2163POPC   C4B29686   9.646  39.381   7.571
 2164POPC   NC329687  14.727  26.919   9.579
 2164POPC   PO429688  14.337  26.512   9.517
 2164POPC   GL129689  14.479  26.768   9.148
 2164POPC   GL229690  14.217  26.925   8.944
 2164POPC   C1A29691  14.578  26.636   8.719
 2164POPC   D2A29692  14.414  26.496   8.317
 2164POPC   C3A29693  14.496  26.688   7.901
 2164POPC   C4A29694  14.683  26.675   7.476
 2164POPC   C1B29695  14.039  26.821   8.523
 2164POPC   C2B29696  14.015  26.745   8.080
 2164POPC   C3B29697  14.044  26.571   7.651
 2164POPC   C4B29698  13.746  26.652   7.279
 2165POPC   NC329699  22.272  35.994   9.380
 2165POPC   PO429700  21.858  36.359   9.663
 2165POPC   GL129701  21.894  36.256   9.194
 2165POPC   GL229702  21.802  36.506   9.011
 2165POPC   C1A29703  22.124  36.085   8.781
 2165POPC   D2A29704  22.355  36.192   8.411
 2165POPC   C3A29705  22.275  35.965   8.058
 2165POPC   C4A29706  22.137  36.063   7.692
 2165POPC   C1B29707  21.644  36.253   8.711
 2165POPC   C2B29708  21.847  36.173   8.348
 2165POPC   C3B29709  22.011  36.420   8.053
 2165POPC   C4B29710  21.782  36.431   7.704
 2166POPC   NC329711  41.935  42.854   9.197
 2166POPC   PO429712  42.343  43.268   9.542
 2166POPC   GL129713  42.412  43.423   9.143
 2166POPC   GL229714  42.560  43.143   9.050
 2166POPC   C1A29715  42.188  43.351   8.770
 2166POPC   D2A29716  42.196  43.035   8.442
 2166POPC   C3A29717  42.145  43.213   8.041
 2166POPC   C4A29718  42.345  43.276   7.692
 2166POPC   C1B29719  42.707  42.944   8.711
 2166POPC   C2B29720  42.695  42.856   8.307
 2166POPC   C3B29721  42.746  43.112   7.957
 2166POPC   C4B29722  42.770  43.032   7.505
 2167POPC   NC329723  25.347  33.892   9.639
 2167POPC   PO429724  25.491  34.497   9.433
 2167POPC   GL129725  25.324  34.157   9.152
 2167POPC   GL229726  25.262  33.763   9.153
 2167POPC   C1A29727  25.308  34.018   8.724
 2167POPC   D2A29728  25.513  33.764   8.469
 2167POPC   C3A29729  25.457  33.794   8.065
 2167POPC   C4A29730  25.439  33.968   7.678
 2167POPC   C1B29731  25.131  33.539   8.771
 2167POPC   C2B29732  25.032  33.652   8.326
 2167POPC   C3B29733  25.041  33.581   7.864
 2167POPC   C4B29734  24.961  33.419   7.460
 2168POPC   NC329735  36.534  33.870   9.552
 2168POPC   PO429736  36.132  33.451   9.337
 2168POPC   GL129737  36.123  33.848   9.161
 2168POPC   GL229738  36.475  33.971   9.050
 2168POPC   C1A29739  36.049  34.051   8.765
 2168POPC   D2A29740  36.378  34.056   8.448
 2168POPC   C3A29741  36.225  34.063   8.019
 2168POPC   C4A29742  36.147  33.734   7.708
 2168POPC   C1B29743  36.341  33.627   8.764
 2168POPC   C2B29744  36.500  33.475   8.430
 2168POPC   C3B29745  36.516  33.601   8.036
 2168POPC   C4B29746  36.560  33.395   7.644
 2169POPC   NC329747  29.596   2.308   9.302
 2169POPC   PO429748  30.231   2.109   9.486
 2169POPC   GL129749  29.971   2.043   9.082
 2169POPC   GL229750  29.700   2.218   8.829
 2169POPC   C1A29751  30.096   1.946   8.661
 2169POPC   D2A29752  30.352   2.016   8.318
 2169POPC   C3A29753  30.082   2.034   7.968
 2169POPC   C4A29754  30.149   1.957   7.506
 2169POPC   C1B29755  29.618   1.762   8.691
 2169POPC   C2B29756  29.751   1.560   8.342
 2169POPC   C3B29757  29.721   1.680   7.918
 2169POPC   C4B29758  29.664   1.853   7.538
 2170POPC   NC329759   1.704  22.192   9.508
 2170POPC   PO429760   2.400  22.336   9.388
 2170POPC   GL129761   2.083  22.014   9.182
 2170POPC   GL229762   1.705  22.021   9.036
 2170POPC   C1A29763   2.101  21.828   8.777
 2170POPC   D2A29764   1.918  21.967   8.379
 2170POPC   C3A29765   2.088  21.929   7.932
 2170POPC   C4A29766   2.042  22.266   7.594
 2170POPC   C1B29767   1.915  22.322   8.772
 2170POPC   C2B29768   1.736  22.488   8.367
 2170POPC   C3B29769   1.666  22.419   7.898
 2170POPC   C4B29770   1.549  22.404   7.440
 2171POPC   NC329771  21.322  11.393   9.539
 2171POPC   PO429772  21.040  10.782   9.520
 2171POPC   GL129773  21.142  11.052   9.154
 2171POPC   GL229774  21.505  11.128   9.075
 2171POPC   C1A29775  21.169  11.246   8.729
 2171POPC   D2A29776  21.081  11.434   8.338
 2171POPC   C3A29777  21.337  11.330   8.045
 2171POPC   C4A29778  21.103  11.233   7.721
 2171POPC   C1B29779  21.687  11.339   8.688
 2171POPC   C2B29780  21.831  11.204   8.250
 2171POPC   C3B29781  21.781  11.204   7.789
 2171POPC   C4B29782  21.864  11.110   7.326
 2172POPC   NC329783  40.195  10.259   9.490
 2172POPC   PO429784  39.750  10.823   9.592
 2172POPC   GL129785  39.962  10.639   9.222
 2172POPC   GL229786  40.221  10.823   9.113
 2172POPC   C1A29787  39.850  10.764   8.794
 2172POPC   D2A29788  39.743  10.599   8.417
 2172POPC   C3A29789  39.766  10.803   8.020
 2172POPC   C4A29790  40.036  10.765   7.641
 2172POPC   C1B29791  40.368  10.726   8.714
 2172POPC   C2B29792  40.244  10.641   8.299
 2172POPC   C3B29793  40.054  10.391   7.992
 2172POPC   C4B29794  39.925  10.171   7.675
 2173POPC   NC329795  25.838  32.045   9.571
 2173POPC   PO429796  26.528  32.049   9.488
 2173POPC   GL129797  26.239  32.164   9.166
 2173POPC   GL229798  26.220  32.519   9.192
 2173POPC   C1A29799  25.957  32.169   8.787
 2173POPC   D2A29800  25.787  32.149   8.343
 2173POPC   C3A29801  26.054  32.190   7.951
 2173POPC   C4A29802  25.986  32.543   7.697
 2173POPC   C1B29803  26.355  32.524   8.764
 2173POPC   C2B29804  26.285  32.520   8.297
 2173POPC   C3B29805  26.454  32.734   7.915
 2173POPC   C4B29806  26.304  32.885   7.505
 2174POPC   NC329807  12.150  14.688   9.535
 2174POPC   PO429808  11.808  14.155   9.762
 2174POPC   GL129809  11.917  14.214   9.335
 2174POPC   GL229810  11.860  14.528   9.171
 2174POPC   C1A29811  11.994  14.130   8.903
 2174POPC   D2A29812  11.965  14.201   8.477
 2174POPC   C3A29813  12.285  14.217   8.204
 2174POPC   C4A29814  12.059  14.145   7.840
 2174POPC   C1B29815  11.798  14.631   8.750
 2174POPC   C2B29816  12.076  14.703   8.388
 2174POPC   C3B29817  12.113  14.638   7.964
 2174POPC   C4B29818  11.948  14.542   7.540
 2175POPC   NC329819   0.853  19.153   9.426
 2175POPC   PO429820   0.244  19.160   9.628
 2175POPC   GL129821   0.338  18.876   9.271
 2175POPC   GL229822   0.566  19.033   9.008
 2175POPC   C1A29823   0.192  18.741   8.848
 2175POPC   D2A29824   0.385  18.985   8.517
 2175POPC   C3A29825   0.175  18.906   8.150
 2175POPC   C4A29826   0.314  18.977   7.744
 2175POPC   C1B29827   0.514  19.404   8.852
 2175POPC   C2B29828   0.605  19.548   8.453
 2175POPC   C3B29829   0.535  19.315   8.082
 2175POPC   C4B29830   0.567  19.481   7.678
 2176POPC   NC329831  24.264  38.647   9.422
 2176POPC   PO429832  24.793  38.268   9.576
 2176POPC   GL129833  24.456  38.188   9.269
 2176POPC   GL229834  24.584  38.452   9.060
 2176POPC   C1A29835  24.258  38.143   8.842
 2176POPC   D2A29836  24.450  38.441   8.530
 2176POPC   C3A29837  24.445  38.386   8.081
 2176POPC   C4A29838  24.117  38.215   7.829
 2176POPC   C1B29839  24.861  38.234   8.752
 2176POPC   C2B29840  24.909  38.164   8.285
 2176POPC   C3B29841  25.058  38.179   7.872
 2176POPC   C4B29842  24.989  38.458   7.533
 2177POPC   NC329843  30.390  16.092   9.245
 2177POPC   PO429844  30.734  15.606   9.598
 2177POPC   GL129845  30.881  15.925   9.229
 2177POPC   GL229846  30.801  15.858   8.847
 2177POPC   C1A29847  31.011  16.272   8.947
 2177POPC   D2A29848  31.080  16.155   8.515
 2177POPC   C3A29849  30.882  16.092   8.140
 2177POPC   C4A29850  30.976  15.887   7.758
 2177POPC   C1B29851  30.569  16.178   8.628
 2177POPC   C2B29852  30.282  15.969   8.386
 2177POPC   C3B29853  30.384  15.729   8.042
 2177POPC   C4B29854  30.493  16.078   7.804
 2178POPC   NC329855  34.934  12.943   9.608
 2178POPC   PO429856  35.616  12.842   9.645
 2178POPC   GL129857  35.519  13.024   9.246
 2178POPC   GL229858  35.363  12.693   9.148
 2178POPC   C1A29859  35.218  13.093   8.889
 2178POPC   D2A29860  35.177  12.816   8.596
 2178POPC   C3A29861  35.311  12.976   8.226
 2178POPC   C4A29862  35.228  12.890   7.826
 2178POPC   C1B29863  35.644  12.758   8.788
 2178POPC   C2B29864  35.600  12.577   8.386
 2178POPC   C3B29865  35.703  12.739   7.989
 2178POPC   C4B29866  35.708  12.569   7.634
 2179POPC   NC329867  41.379   1.245   9.657
 2179POPC   PO429868  42.006   1.587   9.505
 2179POPC   GL129869  41.705   1.254   9.260
 2179POPC   GL229870  41.320   1.237   9.162
 2179POPC   C1A29871  41.711   1.125   8.833
 2179POPC   D2A29872  41.611   1.291   8.443
 2179POPC   C3A29873  41.760   1.122   8.099
 2179POPC   C4A29874  41.813   1.119   7.686
 2179POPC   C1B29875  41.200   1.281   8.745
 2179POPC   C2B29876  41.131   1.056   8.349
 2179POPC   C3B29877  41.269   1.079   7.929
 2179POPC   C4B29878  41.459   1.449   7.806
 2180POPC   NC329879  10.972   9.620   9.746
 2180POPC   PO429880  11.278   9.167   9.336
 2180POPC   GL129881  11.199   9.544   9.112
 2180POPC   GL229882  10.888   9.716   9.101
 2180POPC   C1A29883  11.348   9.740   8.709
 2180POPC   D2A29884  11.572   9.615   8.327
 2180POPC   C3A29885  11.460   9.841   7.957
 2180POPC   C4A29886  11.322   9.771   7.551
 2180POPC   C1B29887  10.865   9.938   8.711
 2180POPC   C2B29888  11.048   9.960   8.273
 2180POPC   C3B29889  10.892   9.852   7.840
 2180POPC   C4B29890  10.874   9.999   7.375
 2181POPC   NC329891  21.588   7.354  10.188
 2181POPC   PO429892  21.165   7.202   9.716
 2181POPC   GL129893  21.401   7.236   9.291
 2181POPC   GL229894  21.338   7.554   9.124
 2181POPC   C1A29895  21.423   7.166   8.805
 2181POPC   D2A29896  21.399   7.394   8.378
 2181POPC   C3A29897  21.344   7.152   7.977
 2181POPC   C4A29898  21.174   7.170   7.538
 2181POPC   C1B29899  21.262   7.765   8.728
 2181POPC   C2B29900  20.984   7.906   8.382
 2181POPC   C3B29901  21.121   7.988   7.979
 2181POPC   C4B29902  21.430   7.668   7.923
 2182POPC   NC329903  29.688   8.501   9.531
 2182POPC   PO429904  29.957   7.888   9.402
 2182POPC   GL129905  30.040   8.331   9.167
 2182POPC   GL229906  29.714   8.484   9.019
 2182POPC   C1A29907  30.124   8.493   8.725
 2182POPC   D2A29908  29.744   8.483   8.450
 2182POPC   C3A29909  29.687   8.270   8.050
 2182POPC   C4A29910  29.976   8.012   7.783
 2182POPC   C1B29911  29.801   8.081   8.782
 2182POPC   C2B29912  29.614   7.864   8.449
 2182POPC   C3B29913  29.603   7.757   8.029
 2182POPC   C4B29914  29.506   8.019   7.629
 2183POPC   NC329915  44.109   5.295   9.713
 2183POPC   PO429916  43.977   5.944   9.487
 2183POPC   GL129917  43.836   6.006   9.096
 2183POPC   GL229918  44.136   5.835   8.978
 2183POPC   C1A29919  43.756   5.925   8.671
 2183POPC   D2A29920  43.730   5.637   8.363
 2183POPC   C3A29921  43.865   5.789   8.008
 2183POPC   C4A29922  44.201   5.675   7.753
 2183POPC   C1B29923  44.202   6.148   8.678
 2183POPC   C2B29924  44.393   6.286   8.297
 2183POPC   C3B29925  44.204   6.178   7.914
 2183POPC   C4B29926  43.819   6.176   7.674
 2184POPC   NC329927  15.320  37.356   9.546
 2184POPC   PO429928  15.445  38.078   9.588
 2184POPC   GL129929  15.345  37.847   9.177
 2184POPC   GL229930  14.984  37.806   9.034
 2184POPC   C1A29931  15.441  37.832   8.742
 2184POPC   D2A29932  15.501  37.495   8.450
 2184POPC   C3A29933  15.420  37.603   8.077
 2184POPC   C4A29934  15.511  37.839   7.758
 2184POPC   C1B29935  15.053  37.509   8.731
 2184POPC   C2B29936  14.904  37.571   8.308
 2184POPC   C3B29937  14.984  37.469   7.875
 2184POPC   C4B29938  14.959  37.588   7.416
 2185POPC   NC329939  21.359  14.094   9.537
 2185POPC   PO429940  21.710  13.524   9.345
 2185POPC   GL129941  21.395  13.704   9.104
 2185POPC   GL229942  21.578  13.986   9.089
 2185POPC   C1A29943  21.358  13.801   8.671
 2185POPC   D2A29944  21.469  13.576   8.326
 2185POPC   C3A29945  21.114  13.499   8.157
 2185POPC   C4A29946  20.961  13.440   7.784
 2185POPC   C1B29947  21.816  14.128   8.740
 2185POPC   C2B29948  21.668  14.075   8.334
 2185POPC   C3B29949  21.696  13.873   7.938
 2185POPC   C4B29950  21.450  13.575   7.758
 2186POPC   NC329951  33.651  16.602   9.537
 2186POPC   PO429952  33.977  17.209   9.564
 2186POPC   GL129953  33.914  16.877   9.202
 2186POPC   GL229954  33.570  16.972   9.130
 2186POPC   C1A29955  33.716  16.552   8.879
 2186POPC   D2A29956  33.583  16.557   8.444
 2186POPC   C3A29957  33.766  16.846   8.188
 2186POPC   C4A29958  33.814  16.766   7.774
 2186POPC   C1B29959  33.326  16.876   8.723
 2186POPC   C2B29960  33.213  16.888   8.288
 2186POPC   C3B29961  33.357  16.597   7.961
 2186POPC   C4B29962  33.433  16.600   7.490
 2187POPC   NC329963  15.579  29.897   9.586
 2187POPC   PO429964  16.207  30.268   9.585
 2187POPC   GL129965  16.158  30.010   9.226
 2187POPC   GL229966  15.843  30.017   9.155
 2187POPC   C1A29967  16.240  29.754   8.894
 2187POPC   D2A29968  15.963  29.789   8.553
 2187POPC   C3A29969  16.080  30.014   8.187
 2187POPC   C4A29970  16.163  29.747   7.837
 2187POPC   C1B29971  15.700  30.195   8.769
 2187POPC   C2B29972  15.490  29.975   8.421
 2187POPC   C3B29973  15.612  29.968   8.014
 2187POPC   C4B29974  15.820  30.322   7.870
 2188POPC   NC329975  42.103  32.054   9.876
 2188POPC   PO429976  42.623  32.440   9.535
 2188POPC   GL129977  42.587  32.337   9.137
 2188POPC   GL229978  42.590  31.962   8.988
 2188POPC   C1A29979  42.363  32.380   8.793
 2188POPC   D2A29980  42.474  32.198   8.472
 2188POPC   C3A29981  42.500  32.373   8.146
 2188POPC   C4A29982  42.421  32.264   7.786
 2188POPC   C1B29983  42.162  31.895   8.743
 2188POPC   C2B29984  42.000  31.986   8.325
 2188POPC   C3B29985  42.123  31.861   7.920
 2188POPC   C4B29986  42.342  31.836   7.525
 2189POPC   NC329987  19.867  43.183   9.900
 2189POPC   PO429988  19.810  42.777   9.316
 2189POPC   GL129989  19.693  43.042   9.009
 2189POPC   GL229990  20.035  43.103   8.953
 2189POPC   C1A29991  19.696  43.080   8.588
 2189POPC   D2A29992  19.895  43.035   8.272
 2189POPC   C3A29993  19.666  43.118   7.946
 2189POPC   C4A29994  19.803  42.903   7.592
 2189POPC   C1B29995  20.035  43.444   8.673
 2189POPC   C2B29996  20.161  43.490   8.271
 2189POPC   C3B29997  19.988  43.479   7.832
 2189POPC   C4B29998  19.966  43.321   7.358
 2190POPC   NC329999  41.460   2.507   9.476
 2190POPC   PO430000  41.343   3.067   9.147
 2190POPC   GL130001  41.639   2.925   8.925
 2190POPC   GL230002  41.613   2.577   9.002
 2190POPC   C1A30003  41.581   2.787   8.511
 2190POPC   D2A30004  41.233   2.827   8.304
 2190POPC   C3A30005  41.295   2.875   7.892
 2190POPC   C4A30006  41.130   2.605   7.591
 2190POPC   C1B30007  41.962   2.574   8.746
 2190POPC   C2B30008  41.993   2.505   8.302
 2190POPC   C3B30009  41.733   2.644   7.938
 2190POPC   C4B30010  41.739   3.077   7.722
 2191POPC   NC330011  24.019  22.603   9.411
 2191POPC   PO430012  23.488  22.514   9.875
 2191POPC   GL130013  23.619  22.290   9.368
 2191POPC   GL230014  23.884  22.070   9.207
 2191POPC   C1A30015  23.701  22.381   8.856
 2191POPC   D2A30016  23.759  22.205   8.402
 2191POPC   C3A30017  23.751  22.425   7.965
 2191POPC   C4A30018  23.476  22.533   7.560
 2191POPC   C1B30019  23.985  21.864   8.793
 2191POPC   C2B30020  24.153  21.871   8.349
 2191POPC   C3B30021  23.908  21.856   7.957
 2191POPC   C4B30022  23.737  21.789   7.544
 2192POPC   NC330023  17.201  22.687   9.550
 2192POPC   PO430024  17.705  23.201   9.595
 2192POPC   GL130025  17.516  22.973   9.245
 2192POPC   GL230026  17.171  23.040   9.178
 2192POPC   C1A30027  17.500  22.855   8.805
 2192POPC   D2A30028  17.547  22.579   8.485
 2192POPC   C3A30029  17.672  22.823   8.143
 2192POPC   C4A30030  17.536  22.822   7.740
 2192POPC   C1B30031  17.059  23.073   8.740
 2192POPC   C2B30032  17.178  22.905   8.353
 2192POPC   C3B30033  17.034  22.780   7.954
 2192POPC   C4B30034  17.098  22.947   7.542
 2193POPC   NC330035  21.497   2.235   9.550
 2193POPC   PO430036  21.357   2.902   9.565
 2193POPC   GL130037  21.390   2.818   9.179
 2193POPC   GL230038  21.648   2.593   9.159
 2193POPC   C1A30039  21.204   2.941   8.839
 2193POPC   D2A30040  21.362   3.142   8.474
 2193POPC   C3A30041  21.604   2.927   8.168
 2193POPC   C4A30042  21.488   2.944   7.730
 2193POPC   C1B30043  21.444   2.495   8.748
 2193POPC   C2B30044  21.586   2.426   8.338
 2193POPC   C3B30045  21.362   2.489   7.969
 2193POPC   C4B30046  21.463   2.502   7.515
 2194POPC   NC330047   8.784   9.872   9.486
 2194POPC   PO430048   9.280   9.314   9.674
 2194POPC   GL130049   9.079   9.533   9.239
 2194POPC   GL230050   8.808   9.636   9.051
 2194POPC   C1A30051   9.198   9.467   8.754
 2194POPC   D2A30052   9.412   9.500   8.355
 2194POPC   C3A30053   9.123   9.629   8.006
 2194POPC   C4A30054   8.792   9.337   7.850
 2194POPC   C1B30055   8.982   9.909   8.764
 2194POPC   C2B30056   8.832   9.822   8.374
 2194POPC   C3B30057   8.799  10.082   8.038
 2194POPC   C4B30058   8.827  10.303   7.667
 2195POPC   NC330059  21.510  44.072   9.365
 2195POPC   PO430060  21.055  43.667   9.522
 2195POPC   GL130061  21.094  43.691   9.084
 2195POPC   GL230062  21.055  44.038   9.076
 2195POPC   C1A30063  21.213  43.815   8.648
 2195POPC   D2A30064  21.420  44.110   8.364
 2195POPC   C3A30065  21.323  43.912   7.978
 2195POPC   C4A30066  21.494  43.670   7.616
 2195POPC   C1B30067  20.997  44.277   8.718
 2195POPC   C2B30068  20.921  44.200   8.290
 2195POPC   C3B30069  21.049  44.336   7.876
 2195POPC   C4B30070  21.162  44.074   7.521
 2196POPC   NC330071   6.716  34.195   9.593
 2196POPC   PO430072   6.425  34.837   9.494
 2196POPC   GL130073   6.670  34.683   9.119
 2196POPC   GL230074   6.806  34.318   9.100
 2196POPC   C1A30075   6.794  34.725   8.669
 2196POPC   D2A30076   7.091  34.787   8.317
 2196POPC   C3A30077   6.935  34.766   7.898
 2196POPC   C4A30078   6.679  34.534   7.599
 2196POPC   C1B30079   6.451  34.300   8.807
 2196POPC   C2B30080   6.435  34.415   8.373
 2196POPC   C3B30081   6.576  34.221   7.999
 2196POPC   C4B30082   6.385  34.101   7.618
 2197POPC   NC330083   3.874  14.893   9.429
 2197POPC   PO430084   4.499  15.117   9.697
 2197POPC   GL130085   4.591  14.954   9.293
 2197POPC   GL230086   4.437  15.225   9.064
 2197POPC   C1A30087   4.679  14.842   8.862
 2197POPC   D2A30088   4.645  15.176   8.520
 2197POPC   C3A30089   4.308  15.158   8.226
 2197POPC   C4A30090   4.264  15.081   7.829
 2197POPC   C1B30091   4.176  15.333   8.678
 2197POPC   C2B30092   4.019  15.591   8.313
 2197POPC   C3B30093   3.795  15.501   7.915
 2197POPC   C4B30094   3.930  15.285   7.510
 2198POPC   NC330095   9.119  22.980   9.652
 2198POPC   PO430096   8.534  22.674   9.505
 2198POPC   GL130097   8.856  22.836   9.196
 2198POPC   GL230098   9.185  22.692   9.217
 2198POPC   C1A30099   8.840  23.126   8.826
 2198POPC   D2A30100   8.641  23.102   8.441
 2198POPC   C3A30101   8.867  23.173   8.097
 2198POPC   C4A30102   8.853  22.992   7.704
 2198POPC   C1B30103   9.318  23.007   8.906
 2198POPC   C2B30104   9.252  23.086   8.441
 2198POPC   C3B30105   9.343  23.055   7.976
 2198POPC   C4B30106   9.243  23.298   7.567
 2199POPC   NC330107  13.388  40.469   9.595
 2199POPC   PO430108  13.754  41.024   9.508
 2199POPC   GL130109  13.720  40.655   9.249
 2199POPC   GL230110  14.033  40.619   9.122
 2199POPC   C1A30111  13.460  40.501   8.908
 2199POPC   D2A30112  13.247  40.588   8.514
 2199POPC   C3A30113  13.440  40.453   8.143
 2199POPC   C4A30114  13.430  40.661   7.758
 2199POPC   C1B30115  13.803  40.866   8.791
 2199POPC   C2B30116  13.642  40.915   8.348
 2199POPC   C3B30117  13.883  40.770   7.991
 2199POPC   C4B30118  13.883  40.725   7.549
 2200POPC   NC330119  42.881  20.190   9.625
 2200POPC   PO430120  43.384  20.690   9.641
 2200POPC   GL130121  43.266  20.628   9.215
 2200POPC   GL230122  42.961  20.425   9.169
 2200POPC   C1A30123  43.380  20.768   8.781
 2200POPC   D2A30124  43.553  20.613   8.389
 2200POPC   C3A30125  43.309  20.718   7.999
 2200POPC   C4A30126  43.306  20.568   7.568
 2200POPC   C1B30127  42.877  20.738   8.855
 2200POPC   C2B30128  42.985  20.773   8.407
 2200POPC   C3B30129  42.749  20.781   8.015
 2200POPC   C4B30130  42.746  20.508   7.668
 2201POPC   NC330131  16.797   9.324   9.533
 2201POPC   PO430132  17.239   8.831   9.484
 2201POPC   GL130133  16.953   9.050   9.140
 2201POPC   GL230134  16.602   9.184   9.100
 2201POPC   C1A30135  16.960   9.221   8.736
 2201POPC   D2A30136  17.049   9.084   8.318
 2201POPC   C3A30137  16.791   8.878   8.023
 2201POPC   C4A30138  17.036   8.653   7.724
 2201POPC   C1B30139  16.365   9.349   8.787
 2201POPC   C2B30140  16.551   9.182   8.430
 2201POPC   C3B30141  16.681   9.374   8.079
 2201POPC   C4B30142  16.608   9.272   7.690
 2202POPC   NC330143  18.636  29.263   9.522
 2202POPC   PO430144  18.080  29.036   9.482
 2202POPC   GL130145  18.161  29.054   9.102
 2202POPC   GL230146  18.329  29.336   9.114
 2202POPC   C1A30147  18.020  29.116   8.698
 2202POPC   D2A30148  18.266  29.121   8.330
 2202POPC   C3A30149  18.100  29.154   7.921
 2202POPC   C4A30150  18.343  29.030   7.536
 2202POPC   C1B30151  18.531  29.552   8.824
 2202POPC   C2B30152  18.433  29.607   8.419
 2202POPC   C3B30153  18.537  29.436   8.000
 2202POPC   C4B30154  18.747  29.492   7.605
 2203POPC   NC330155  31.350   1.969   9.868
 2203POPC   PO430156  31.816   1.705   9.447
 2203POPC   GL130157  31.583   1.946   9.150
 2203POPC   GL230158  31.403   2.205   9.345
 2203POPC   C1A30159  31.399   1.840   8.748
 2203POPC   D2A30160  31.242   1.543   8.455
 2203POPC   C3A30161  31.349   1.745   8.105
 2203POPC   C4A30162  31.296   1.717   7.701
 2203POPC   C1B30163  31.382   2.361   8.894
 2203POPC   C2B30164  31.274   2.374   8.436
 2203POPC   C3B30165  31.279   2.248   7.992
 2203POPC   C4B30166  31.533   2.170   7.647
 2204POPC   NC330167  20.903   2.973   9.475
 2204POPC   PO430168  20.322   2.657   9.493
 2204POPC   GL130169  20.609   2.602   9.177
 2204POPC   GL230170  20.956   2.529   9.249
 2204POPC   C1A30171  20.667   2.908   8.858
 2204POPC   D2A30172  20.466   3.023   8.477
 2204POPC   C3A30173  20.625   2.846   8.126
 2204POPC   C4A30174  20.595   3.057   7.729
 2204POPC   C1B30175  20.940   2.491   8.804
 2204POPC   C2B30176  21.069   2.700   8.411
 2204POPC   C3B30177  21.100   2.969   8.056
 2204POPC   C4B30178  20.988   2.714   7.707
 2205POPC   NC330179   2.492  23.351   9.784
 2205POPC   PO430180   2.876  23.884   9.739
 2205POPC   GL130181   2.771  23.643   9.348
 2205POPC   GL230182   2.945  23.336   9.363
 2205POPC   C1A30183   2.734  23.670   8.877
 2205POPC   D2A30184   2.827  23.857   8.482
 2205POPC   C3A30185   2.831  23.656   8.128
 2205POPC   C4A30186   2.785  23.847   7.742
 2205POPC   C1B30187   3.108  23.330   8.917
 2205POPC   C2B30188   3.187  23.481   8.522
 2205POPC   C3B30189   3.345  23.424   8.132
 2205POPC   C4B30190   3.130  23.433   7.744
 2206POPC   NC330191  34.151  40.930   9.410
 2206POPC   PO430192  34.773  40.722   9.637
 2206POPC   GL130193  34.609  40.696   9.200
 2206POPC   GL230194  34.312  40.655   8.997
 2206POPC   C1A30195  34.796  40.744   8.802
 2206POPC   D2A30196  34.818  40.980   8.446
 2206POPC   C3A30197  34.594  40.893   8.083
 2206POPC   C4A30198  34.739  40.846   7.695
 2206POPC   C1B30199  34.396  41.049   8.791
 2206POPC   C2B30200  34.346  41.213   8.396
 2206POPC   C3B30201  34.109  41.095   8.061
 2206POPC   C4B30202  34.262  41.068   7.652
 2207POPC   NC330203  30.667  12.403   9.378
 2207POPC   PO430204  30.538  11.790   9.438
 2207POPC   GL130205  30.707  11.964   9.124
 2207POPC   GL230206  31.073  12.094   9.195
 2207POPC   C1A30207  30.495  11.955   8.754
 2207POPC   D2A30208  30.559  11.763   8.385
 2207POPC   C3A30209  30.796  11.953   8.110
 2207POPC   C4A30210  30.873  12.209   7.788
 2207POPC   C1B30211  31.010  12.049   8.747
 2207POPC   C2B30212  31.027  12.267   8.416
 2207POPC   C3B30213  31.280  12.224   8.091
 2207POPC   C4B30214  31.384  12.078   7.712
 2208POPC   NC330215  10.187  22.554   9.358
 2208POPC   PO430216   9.552  22.872   9.544
 2208POPC   GL130217   9.719  22.739   9.173
 2208POPC   GL230218   9.916  23.042   9.067
 2208POPC   C1A30219   9.666  22.688   8.735
 2208POPC   D2A30220   9.793  23.029   8.473
 2208POPC   C3A30221   9.867  22.924   8.050
 2208POPC   C4A30222   9.716  23.002   7.637
 2208POPC   C1B30223  10.166  22.800   8.758
 2208POPC   C2B30224  10.053  22.477   8.452
 2208POPC   C3B30225  10.147  22.440   8.012
 2208POPC   C4B30226  10.064  22.617   7.629
 2209POPC   NC330227  36.557   5.362   9.534
 2209POPC   PO430228  36.861   4.786   9.651
 2209POPC   GL130229  36.830   4.990   9.230
 2209POPC   GL230230  36.938   5.323   9.187
 2209POPC   C1A30231  36.874   5.042   8.750
 2209POPC   D2A30232  36.903   4.734   8.429
 2209POPC   C3A30233  36.787   4.738   8.009
 2209POPC   C4A30234  36.930   5.023   7.700
 2209POPC   C1B30235  36.821   5.539   8.837
 2209POPC   C2B30236  36.962   5.522   8.453
 2209POPC   C3B30237  36.990   5.327   8.087
 2209POPC   C4B30238  37.034   5.539   7.672
 2210POPC   NC330239   9.182  32.924   9.748
 2210POPC   PO430240   9.079  33.250   9.180
 2210POPC   GL130241   8.915  32.868   9.093
 2210POPC   GL230242   8.563  32.882   9.165
 2210POPC   C1A30243   8.970  32.838   8.667
 2210POPC   D2A30244   9.107  33.125   8.367
 2210POPC   C3A30245   8.951  33.030   7.980
 2210POPC   C4A30246   8.858  32.626   7.793
 2210POPC   C1B30247   8.552  33.136   8.760
 2210POPC   C2B30248   8.574  33.214   8.337
 2210POPC   C3B30249   8.451  33.437   7.990
 2210POPC   C4B30250   8.801  33.475   7.715
 2211POPC   NC330251   8.814  17.115   9.414
 2211POPC   PO430252   9.019  17.807   9.468
 2211POPC   GL130253   8.864  17.745   9.095
 2211POPC   GL230254   8.680  17.458   9.053
 2211POPC   C1A30255   9.062  17.692   8.723
 2211POPC   D2A30256   8.936  17.801   8.338
 2211POPC   C3A30257   9.163  17.520   8.111
 2211POPC   C4A30258   9.302  17.624   7.741
 2211POPC   C1B30259   8.545  17.666   8.671
 2211POPC   C2B30260   8.507  17.512   8.237
 2211POPC   C3B30261   8.730  17.404   7.868
 2211POPC   C4B30262   8.724  17.221   7.481
 2212POPC   NC330263  35.743  24.344   9.561
 2212POPC   PO430264  36.373  24.391   9.526
 2212POPC   GL130265  36.096  24.426   9.149
 2212POPC   GL230266  35.780  24.621   9.140
 2212POPC   C1A30267  36.188  24.582   8.714
 2212POPC   D2A30268  36.449  24.718   8.348
 2212POPC   C3A30269  36.231  24.637   7.968
 2212POPC   C4A30270  36.035  24.265   7.807
 2212POPC   C1B30271  35.666  24.562   8.732
 2212POPC   C2B30272  35.795  24.434   8.341
 2212POPC   C3B30273  35.708  24.616   7.967
 2212POPC   C4B30274  35.892  24.733   7.562
 2213POPC   NC330275   0.196  23.895   9.527
 2213POPC   PO430276   0.628  23.493   9.803
 2213POPC   GL130277   0.551  23.601   9.269
 2213POPC   GL230278   0.465  23.885   9.121
 2213POPC   C1A30279   0.328  23.550   8.798
 2213POPC   D2A30280   0.186  23.808   8.448
 2213POPC   C3A30281   0.343  23.733   8.027
 2213POPC   C4A30282   0.422  23.531   7.622
 2213POPC   C1B30283   0.626  24.066   8.750
 2213POPC   C2B30284   0.560  24.175   8.365
 2213POPC   C3B30285   0.734  24.071   7.995
 2213POPC   C4B30286   0.708  24.003   7.581
 2214POPC   NC330287   3.054  31.004   9.514
 2214POPC   PO430288   2.598  30.423   9.558
 2214POPC   GL130289   2.619  30.711   9.205
 2214POPC   GL230290   2.980  30.694   9.116
 2214POPC   C1A30291   2.643  30.847   8.774
 2214POPC   D2A30292   2.880  30.634   8.484
 2214POPC   C3A30293   2.620  30.558   8.126
 2214POPC   C4A30294   2.522  30.766   7.733
 2214POPC   C1B30295   3.128  31.026   8.809
 2214POPC   C2B30296   3.044  31.092   8.368
 2214POPC   C3B30297   2.955  30.902   7.974
 2214POPC   C4B30298   2.981  30.548   7.655
 2215POPC   NC330299  43.008  34.414   9.744
 2215POPC   PO430300  43.053  34.913   9.298
 2215POPC   GL130301  43.189  34.517   9.118
 2215POPC   GL230302  43.599  34.419   9.120
 2215POPC   C1A30303  43.019  34.594   8.709
 2215POPC   D2A30304  42.887  34.779   8.311
 2215POPC   C3A30305  43.052  34.624   7.933
 2215POPC   C4A30306  43.050  34.649   7.492
 2215POPC   C1B30307  43.534  34.580   8.733
 2215POPC   C2B30308  43.376  34.528   8.340
 2215POPC   C3B30309  43.595  34.522   7.992
 2215POPC   C4B30310  43.556  34.687   7.599
 2216POPC   NC330311  42.625   0.042   9.430
 2216POPC   PO430312  42.415   0.729   9.435
 2216POPC   GL130313  42.466   0.440   9.132
 2216POPC   GL230314  42.163   0.270   9.171
 2216POPC   C1A30315  42.407   0.394   8.701
 2216POPC   D2A30316  42.668   0.303   8.370
 2216POPC   C3A30317  42.411   0.330   8.030
 2216POPC   C4A30318  42.452   0.577   7.662
 2216POPC   C1B30319  41.973   0.122   8.807
 2216POPC   C2B30320  41.860   0.275   8.418
 2216POPC   C3B30321  41.876   0.131   8.008
 2216POPC   C4B30322  42.136   0.170   7.639
 2217POPC   NC330323  37.153   5.153   9.660
 2217POPC   PO430324  37.839   4.973   9.558
 2217POPC   GL130325  37.690   5.034   9.150
 2217POPC   GL230326  37.355   5.039   9.198
 2217POPC   C1A30327  37.729   4.976   8.713
 2217POPC   D2A30328  37.902   4.876   8.310
 2217POPC   C3A30329  37.749   4.969   7.905
 2217POPC   C4A30330  37.422   5.241   7.828
 2217POPC   C1B30331  37.317   5.292   8.802
 2217POPC   C2B30332  37.454   5.255   8.352
 2217POPC   C3B30333  37.828   5.430   8.114
 2217POPC   C4B30334  37.934   5.405   7.676
 2218POPC   NC330335  18.787  27.631   9.640
 2218POPC   PO430336  18.970  27.047   9.493
 2218POPC   GL130337  19.102  27.462   9.249
 2218POPC   GL230338  18.895  27.790   9.173
 2218POPC   C1A30339  19.155  27.541   8.802
 2218POPC   D2A30340  19.260  27.619   8.389
 2218POPC   C3A30341  19.086  27.375   8.065
 2218POPC   C4A30342  19.021  27.588   7.664
 2218POPC   C1B30343  18.706  27.786   8.785
 2218POPC   C2B30344  18.737  27.650   8.348
 2218POPC   C3B30345  18.962  27.896   8.055
 2218POPC   C4B30346  18.898  28.120   7.677
 2219POPC   NC330347  33.334  33.516   9.525
 2219POPC   PO430348  32.765  33.753   9.685
 2219POPC   GL130349  32.858  33.667   9.250
 2219POPC   GL230350  33.160  33.795   9.132
 2219POPC   C1A30351  32.814  33.710   8.790
 2219POPC   D2A30352  32.664  33.896   8.386
 2219POPC   C3A30353  32.834  33.664   7.999
 2219POPC   C4A30354  32.585  33.430   7.683
 2219POPC   C1B30355  33.354  33.605   8.751
 2219POPC   C2B30356  33.364  33.434   8.326
 2219POPC   C3B30357  33.468  33.630   7.939
 2219POPC   C4B30358  33.197  33.913   7.743
 2220POPC   NC330359  25.381  15.585   9.834
 2220POPC   PO430360  25.114  16.186   9.546
 2220POPC   GL130361  25.166  16.244   9.111
 2220POPC   GL230362  25.203  15.940   9.014
 2220POPC   C1A30363  25.105  16.371   8.695
 2220POPC   D2A30364  25.346  16.355   8.312
 2220POPC   C3A30365  25.205  16.235   7.906
 2220POPC   C4A30366  25.179  15.878   7.637
 2220POPC   C1B30367  25.246  15.611   8.759
 2220POPC   C2B30368  25.464  15.644   8.417
 2220POPC   C3B30369  25.315  15.594   8.047
 2220POPC   C4B30370  25.530  15.523   7.726
 2221POPC   NC330371  23.429   5.177   9.721
 2221POPC   PO430372  23.986   5.126   9.509
 2221POPC   GL130373  23.608   5.179   9.225
 2221POPC   GL230374  23.464   4.823   9.160
 2221POPC   C1A30375  23.597   5.385   8.817
 2221POPC   D2A30376  23.880   5.280   8.488
 2221POPC   C3A30377  23.791   5.418   8.097
 2221POPC   C4A30378  23.753   5.024   7.941
 2221POPC   C1B30379  23.648   4.855   8.776
 2221POPC   C2B30380  23.496   4.876   8.384
 2221POPC   C3B30381  23.409   4.659   8.021
 2221POPC   C4B30382  23.264   4.826   7.681
 2222POPC   NC330383  42.906  25.049   9.435
 2222POPC   PO430384  43.491  25.361   9.546
 2222POPC   GL130385  43.382  25.306   9.128
 2222POPC   GL230386  43.214  25.620   9.105
 2222POPC   C1A30387  43.262  25.041   8.751
 2222POPC   D2A30388  42.923  24.968   8.401
 2222POPC   C3A30389  43.026  25.102   7.977
 2222POPC   C4A30390  43.334  25.125   7.693
 2222POPC   C1B30391  43.028  25.490   8.715
 2222POPC   C2B30392  43.244  25.376   8.346
 2222POPC   C3B30393  43.297  25.552   7.968
 2222POPC   C4B30394  42.946  25.603   7.738
 2223POPC   NC330395  41.748  19.855   9.435
 2223POPC   PO430396  41.180  19.540   9.457
 2223POPC   GL130397  41.389  19.729   9.105
 2223POPC   GL230398  41.419  20.124   9.134
 2223POPC   C1A30399  41.420  19.818   8.693
 2223POPC   D2A30400  41.576  19.689   8.318
 2223POPC   C3A30401  41.381  19.873   7.991
 2223POPC   C4A30402  41.258  19.640   7.618
 2223POPC   C1B30403  41.786  20.125   8.853
 2223POPC   C2B30404  41.785  20.169   8.415
 2223POPC   C3B30405  41.833  20.154   7.995
 2223POPC   C4B30406  41.805  19.820   7.708
 2224POPC   NC330407  39.502  28.552   9.598
 2224POPC   PO430408  38.983  28.120   9.587
 2224POPC   GL130409  39.079  28.371   9.255
 2224POPC   GL230410  39.410  28.250   9.209
 2224POPC   C1A30411  38.916  28.398   8.828
 2224POPC   D2A30412  38.909  28.176   8.417
 2224POPC   C3A30413  39.079  28.328   7.994
 2224POPC   C4A30414  39.444  28.231   7.687
 2224POPC   C1B30415  39.426  28.471   8.853
 2224POPC   C2B30416  39.624  28.529   8.450
 2224POPC   C3B30417  39.549  28.577   8.042
 2224POPC   C4B30418  39.787  28.727   7.693
 2225POPC   NC330419  28.126   9.349   9.411
 2225POPC   PO430420  28.339   8.720   9.736
 2225POPC   GL130421  28.449   8.912   9.296
 2225POPC   GL230422  28.617   9.259   9.255
 2225POPC   C1A30423  28.422   8.758   8.842
 2225POPC   D2A30424  28.524   8.736   8.396
 2225POPC   C3A30425  28.223   8.815   8.050
 2225POPC   C4A30426  28.085   9.214   7.816
 2225POPC   C1B30427  28.409   9.255   8.846
 2225POPC   C2B30428  28.312   9.224   8.415
 2225POPC   C3B30429  28.560   9.184   8.069
 2225POPC   C4B30430  28.555   9.232   7.637
 2226POPC   NC330431  17.530  12.772   9.486
 2226POPC   PO430432  17.782  13.220   8.986
 2226POPC   GL130433  17.418  12.960   9.030
 2226POPC   GL230434  17.156  12.660   9.165
 2226POPC   C1A30435  17.495  12.605   8.771
 2226POPC   D2A30436  17.274  12.526   8.383
 2226POPC   C3A30437  17.520  12.570   8.015
 2226POPC   C4A30438  17.661  12.975   7.907
 2226POPC   C1B30439  17.019  12.766   8.796
 2226POPC   C2B30440  17.169  13.019   8.492
 2226POPC   C3B30441  17.170  12.955   8.083
 2226POPC   C4B30442  17.234  12.852   7.664
 2227POPC   NC330443  42.789  41.276   9.427
 2227POPC   PO430444  42.159  41.596   9.480
 2227POPC   GL130445  42.320  41.425   9.111
 2227POPC   GL230446  42.044  41.202   9.078
 2227POPC   C1A30447  42.435  41.588   8.675
 2227POPC   D2A30448  42.296  41.896   8.324
 2227POPC   C3A30449  42.358  41.702   7.930
 2227POPC   C4A30450  42.434  41.272   7.756
 2227POPC   C1B30451  42.220  41.136   8.681
 2227POPC   C2B30452  42.326  41.279   8.263
 2227POPC   C3B30453  41.994  41.334   7.952
 2227POPC   C4B30454  41.966  41.504   7.543
 2228POPC   NC330455  33.634  26.135   9.788
 2228POPC   PO430456  33.722  25.483   9.768
 2228POPC   GL130457  33.832  25.881   9.404
 2228POPC   GL230458  33.547  26.068   9.293
 2228POPC   C1A30459  33.921  26.065   8.942
 2228POPC   D2A30460  33.811  26.114   8.448
 2228POPC   C3A30461  34.047  26.027   8.035
 2228POPC   C4A30462  34.108  26.033   7.531
 2228POPC   C1B30463  33.417  26.038   8.866
 2228POPC   C2B30464  33.287  25.970   8.454
 2228POPC   C3B30465  33.428  26.025   8.062
 2228POPC   C4B30466  33.638  26.048   7.709
 2229POPC   NC330467   0.791  39.170   9.493
 2229POPC   PO430468   0.290  39.658   9.744
 2229POPC   GL130469   0.327  39.389   9.351
 2229POPC   GL230470   0.600  39.512   9.147
 2229POPC   C1A30471   0.199  39.142   8.964
 2229POPC   D2A30472   0.058  39.132   8.491
 2229POPC   C3A30473   0.381  39.184   8.140
 2229POPC   C4A30474   0.394  39.124   7.642
 2229POPC   C1B30475   0.839  39.539   8.762
 2229POPC   C2B30476   0.804  39.366   8.347
 2229POPC   C3B30477   0.758  39.559   7.933
 2229POPC   C4B30478   0.597  39.564   7.526
 2230POPC   NC330479  43.501   4.140   9.494
 2230POPC   PO430480  43.032   4.576   9.741
 2230POPC   GL130481  43.115   4.394   9.298
 2230POPC   GL230482  42.888   4.518   9.149
 2230POPC   C1A30483  43.192   4.201   8.854
 2230POPC   D2A30484  43.263   4.379   8.435
 2230POPC   C3A30485  43.314   4.216   8.006
 2230POPC   C4A30486  43.043   3.956   7.767
 2230POPC   C1B30487  42.823   4.663   8.771
 2230POPC   C2B30488  42.819   4.687   8.361
 2230POPC   C3B30489  43.072   4.665   8.052
 2230POPC   C4B30490  42.981   4.467   7.699
 2231POPC   NC330491  29.710   7.504   9.457
 2231POPC   PO430492  30.247   7.283   9.202
 2231POPC   GL130493  29.980   7.497   9.020
 2231POPC   GL230494  29.720   7.230   9.048
 2231POPC   C1A30495  30.035   7.607   8.628
 2231POPC   D2A30496  29.906   7.441   8.289
 2231POPC   C3A30497  30.118   7.559   7.992
 2231POPC   C4A30498  30.150   7.245   7.712
 2231POPC   C1B30499  29.586   7.327   8.681
 2231POPC   C2B30500  29.547   7.078   8.291
 2231POPC   C3B30501  29.668   7.163   7.861
 2231POPC   C4B30502  29.759   7.548   7.615
 2232POPC   NC330503   3.596  26.106   9.385
 2232POPC   PO430504   3.125  26.379   9.786
 2232POPC   GL130505   3.120  26.027   9.275
 2232POPC   GL230506   3.219  25.749   9.207
 2232POPC   C1A30507   3.460  25.879   8.806
 2232POPC   D2A30508   3.640  25.754   8.378
 2232POPC   C3A30509   3.934  25.934   8.096
 2232POPC   C4A30510   3.870  26.246   7.770
 2232POPC   C1B30511   3.007  26.077   8.806
 2232POPC   C2B30512   3.260  26.214   8.442
 2232POPC   C3B30513   3.418  26.052   8.030
 2232POPC   C4B30514   3.265  25.995   7.615
 2233POPC   NC330515  23.831  33.491   9.555
 2233POPC   PO430516  23.406  34.054   9.685
 2233POPC   GL130517  23.688  33.922   9.315
 2233POPC   GL230518  23.675  34.133   9.057
 2233POPC   C1A30519  23.801  33.658   8.906
 2233POPC   D2A30520  23.852  33.790   8.453
 2233POPC   C3A30521  23.789  33.505   8.086
 2233POPC   C4A30522  23.739  33.669   7.663
 2233POPC   C1B30523  23.399  33.914   8.716
 2233POPC   C2B30524  23.350  33.688   8.335
 2233POPC   C3B30525  23.526  33.942   8.022
 2233POPC   C4B30526  23.478  34.122   7.590
 2234POPC   NC330527  13.870   1.673   9.385
 2234POPC   PO430528  14.564   1.626   9.404
 2234POPC   GL130529  14.276   1.863   9.152
 2234POPC   GL230530  14.273   2.240   9.156
 2234POPC   C1A30531  14.377   1.877   8.754
 2234POPC   D2A30532  14.547   2.143   8.493
 2234POPC   C3A30533  14.451   1.928   8.145
 2234POPC   C4A30534  14.629   2.041   7.800
 2234POPC   C1B30535  13.943   2.173   8.838
 2234POPC   C2B30536  14.016   2.083   8.438
 2234POPC   C3B30537  13.884   1.932   8.096
 2234POPC   C4B30538  14.112   1.941   7.759
 2235POPC   NC330539  24.363  28.997   9.511
 2235POPC   PO430540  24.697  29.503   9.603
 2235POPC   GL130541  24.388  29.472   9.281
 2235POPC   GL230542  24.501  29.194   9.048
 2235POPC   C1A30543  24.271  29.612   8.864
 2235POPC   D2A30544  24.371  29.443   8.470
 2235POPC   C3A30545  24.378  29.445   8.045
 2235POPC   C4A30546  24.409  29.038   7.848
 2235POPC   C1B30547  24.749  28.983   8.685
 2235POPC   C2B30548  24.792  28.858   8.228
 2235POPC   C3B30549  24.870  28.822   7.790
 2235POPC   C4B30550  24.907  28.926   7.362
 2236POPC   NC330551  27.877  18.907   9.614
 2236POPC   PO430552  27.449  19.415   9.596
 2236POPC   GL130553  27.521  19.164   9.236
 2236POPC   GL230554  27.833  19.264   9.219
 2236POPC   C1A30555  27.672  19.027   8.784
 2236POPC   D2A30556  27.441  19.109   8.426
 2236POPC   C3A30557  27.623  19.028   8.081
 2236POPC   C4A30558  27.688  19.186   7.698
 2236POPC   C1B30559  28.041  19.370   8.844
 2236POPC   C2B30560  28.058  19.201   8.428
 2236POPC   C3B30561  28.071  19.315   8.005
 2236POPC   C4B30562  28.054  19.547   7.621
 2237POPC   NC330563  25.126  27.618   9.648
 2237POPC   PO430564  25.394  27.066   9.792
 2237POPC   GL130565  25.468  27.502   9.318
 2237POPC   GL230566  25.652  27.327   9.022
 2237POPC   C1A30567  25.278  27.664   8.915
 2237POPC   D2A30568  25.228  27.704   8.442
 2237POPC   C3A30569  25.065  27.354   8.112
 2237POPC   C4A30570  24.911  27.478   7.667
 2237POPC   C1B30571  25.499  27.256   8.604
 2237POPC   C2B30572  25.569  27.437   8.190
 2237POPC   C3B30573  25.415  27.570   7.826
 2237POPC   C4B30574  25.342  27.238   7.549
 2238POPC   NC330575  31.383  44.853   9.470
 2238POPC   PO430576  31.337  44.204   9.429
 2238POPC   GL130577  31.481  44.480   9.111
 2238POPC   GL230578  31.153  44.607   9.067
 2238POPC   C1A30579  31.564  44.598   8.670
 2238POPC   D2A30580  31.789  44.843   8.311
 2238POPC   C3A30581  31.719  44.549   7.995
 2238POPC   C4A30582  31.332  44.475   7.821
 2238POPC   C1B30583  31.146  44.858   8.691
 2238POPC   C2B30584  31.289  44.800   8.258
 2238POPC   C3B30585  31.449  44.982   7.881
 2238POPC   C4B30586  31.153  44.865   7.550
 2239POPC   NC330587   5.136  34.085   9.508
 2239POPC   PO430588   4.892  33.380   9.464
 2239POPC   GL130589   5.093  33.663   9.156
 2239POPC   GL230590   4.988  34.013   9.048
 2239POPC   C1A30591   5.195  33.578   8.739
 2239POPC   D2A30592   4.948  33.550   8.366
 2239POPC   C3A30593   5.075  33.824   8.031
 2239POPC   C4A30594   5.008  33.764   7.579
 2239POPC   C1B30595   5.394  34.053   8.847
 2239POPC   C2B30596   5.472  33.922   8.431
 2239POPC   C3B30597   5.516  34.099   8.043
 2239POPC   C4B30598   5.408  34.071   7.603
 2240POPC   NC330599   0.098  15.547   9.475
 2240POPC   PO430600   0.700  15.326   9.748
 2240POPC   GL130601   0.492  15.260   9.232
 2240POPC   GL230602   0.168  15.334   9.031
 2240POPC   C1A30603   0.639  15.345   8.764
 2240POPC   D2A30604   0.402  15.407   8.409
 2240POPC   C3A30605   0.661  15.433   8.067
 2240POPC   C4A30606   0.612  15.322   7.641
 2240POPC   C1B30607   0.279  15.004   8.796
 2240POPC   C2B30608   0.148  14.954   8.378
 2240POPC   C3B30609   0.345  15.008   8.009
 2240POPC   C4B30610   0.327  14.881   7.594
 2241POPC   NC330611  10.836   1.425   9.505
 2241POPC   PO430612  10.195   1.402   9.459
 2241POPC   GL130613  10.480   1.319   9.144
 2241POPC   GL230614  10.714   1.033   9.169
 2241POPC   C1A30615  10.434   1.213   8.738
 2241POPC   D2A30616  10.483   1.410   8.375
 2241POPC   C3A30617  10.563   1.177   8.025
 2241POPC   C4A30618  10.450   1.376   7.702
 2241POPC   C1B30619  10.808   0.859   8.770
 2241POPC   C2B30620  10.931   0.958   8.353
 2241POPC   C3B30621  10.974   0.893   7.925
 2241POPC   C4B30622  10.683   0.909   7.594
 2242POPC   NC330623  34.071  44.194   9.489
 2242POPC   PO430624  34.603  44.439   9.860
 2242POPC   GL130625  34.592  44.269   9.384
 2242POPC   GL230626  34.454  43.903   9.303
 2242POPC   C1A30627  34.521  44.205   8.890
 2242POPC   D2A30628  34.581  44.329   8.420
 2242POPC   C3A30629  34.853  44.274   8.076
 2242POPC   C4A30630  34.811  43.971   7.746
 2242POPC   C1B30631  34.653  43.693   8.934
 2242POPC   C2B30632  34.639  43.760   8.484
 2242POPC   C3B30633  34.645  43.615   8.062
 2242POPC   C4B30634  34.979  43.504   7.752
 2243POPC   NC330635  17.323   2.038   9.654
 2243POPC   PO430636  17.928   1.861   9.423
 2243POPC   GL130637  17.627   2.135   9.208
 2243POPC   GL230638  17.275   2.274   9.182
 2243POPC   C1A30639  17.589   2.048   8.787
 2243POPC   D2A30640  17.420   2.242   8.455
 2243POPC   C3A30641  17.568   1.958   8.159
 2243POPC   C4A30642  17.406   2.015   7.773
 2243POPC   C1B30643  17.172   1.868   8.987
 2243POPC   C2B30644  17.096   1.829   8.554
 2243POPC   C3B30645  17.044   1.874   8.109
 2243POPC   C4B30646  16.960   1.618   7.715
 2244POPC   NC330647  23.274  22.106   9.705
 2244POPC   PO430648  22.672  22.235   9.533
 2244POPC   GL130649  22.826  22.351   9.151
 2244POPC   GL230650  23.135  22.458   9.300
 2244POPC   C1A30651  22.729  22.365   8.685
 2244POPC   D2A30652  22.836  22.181   8.279
 2244POPC   C3A30653  22.593  22.254   7.913
 2244POPC   C4A30654  22.560  22.101   7.502
 2244POPC   C1B30655  23.203  22.549   8.866
 2244POPC   C2B30656  23.146  22.570   8.416
 2244POPC   C3B30657  23.201  22.407   7.979
 2244POPC   C4B30658  23.000  22.349   7.565
 2245POPC   NC330659  40.027  42.968   9.497
 2245POPC   PO430660  40.058  42.298   9.486
 2245POPC   GL130661  39.977  42.508   9.095
 2245POPC   GL230662  40.188  42.740   8.932
 2245POPC   C1A30663  39.849  42.451   8.667
 2245POPC   D2A30664  40.113  42.464   8.286
 2245POPC   C3A30665  39.910  42.403   7.906
 2245POPC   C4A30666  39.624  42.088   7.832
 2245POPC   C1B30667  40.356  42.309   8.753
 2245POPC   C2B30668  40.437  42.028   8.385
 2245POPC   C3B30669  40.173  41.991   8.021
 2245POPC   C4B30670  40.306  42.205   7.614
 2246POPC   NC330671  24.566  29.968   9.634
 2246POPC   PO430672  23.943  29.801   9.643
 2246POPC   GL130673  24.179  29.962   9.258
 2246POPC   GL230674  24.550  29.942   9.147
 2246POPC   C1A30675  24.194  30.120   8.829
 2246POPC   D2A30676  24.251  29.958   8.418
 2246POPC   C3A30677  24.249  30.169   8.017
 2246POPC   C4A30678  24.221  29.823   7.760
 2246POPC   C1B30679  24.812  29.991   8.820
 2246POPC   C2B30680  24.743  29.840   8.401
 2246POPC   C3B30681  24.678  29.876   8.018
 2246POPC   C4B30682  24.707  29.866   7.622
 2247POPC   NC330683  21.604  12.282   9.734
 2247POPC   PO430684  22.235  12.025   9.767
 2247POPC   GL130685  22.179  12.196   9.293
 2247POPC   GL230686  22.484  12.069   9.101
 2247POPC   C1A30687  22.106  12.258   8.812
 2247POPC   D2A30688  21.902  12.108   8.419
 2247POPC   C3A30689  21.956  12.293   8.031
 2247POPC   C4A30690  22.110  12.042   7.717
 2247POPC   C1B30691  22.457  11.896   8.667
 2247POPC   C2B30692  22.365  12.018   8.219
 2247POPC   C3B30693  22.603  12.113   7.859
 2247POPC   C4B30694  22.643  12.107   7.375
 2248POPC   NC330695  38.567  29.784   9.612
 2248POPC   PO430696  38.023  30.202   9.453
 2248POPC   GL130697  38.309  29.970   9.205
 2248POPC   GL230698  38.648  30.129   9.237
 2248POPC   C1A30699  38.366  29.788   8.798
 2248POPC   D2A30700  38.441  29.555   8.420
 2248POPC   C3A30701  38.338  29.838   8.098
 2248POPC   C4A30702  38.009  29.757   7.840
 2248POPC   C1B30703  38.838  30.233   8.826
 2248POPC   C2B30704  38.650  30.181   8.385
 2248POPC   C3B30705  38.705  30.173   7.921
 2248POPC   C4B30706  38.554  30.181   7.467
 2249POPC   NC330707  17.088  28.854   9.343
 2249POPC   PO430708  16.604  29.273   9.639
 2249POPC   GL130709  16.731  29.292   9.202
 2249POPC   GL230710  16.656  28.963   9.068
 2249POPC   C1A30711  16.744  29.513   8.787
 2249POPC   D2A30712  16.879  29.442   8.330
 2249POPC   C3A30713  16.627  29.346   7.952
 2249POPC   C4A30714  16.547  28.950   7.681
 2249POPC   C1B30715  16.960  29.037   8.715
 2249POPC   C2B30716  17.009  28.930   8.286
 2249POPC   C3B30717  17.031  29.068   7.870
 2249POPC   C4B30718  17.319  29.251   7.584
 2250POPC   NC330719   8.537  17.819   9.497
 2250POPC   PO430720   8.907  18.431   9.636
 2250POPC   GL130721   8.807  18.259   9.207
 2250POPC   GL230722   8.965  18.510   8.997
 2250POPC   C1A30723   8.812  18.130   8.741
 2250POPC   D2A30724   9.052  18.296   8.374
 2250POPC   C3A30725   8.947  18.294   7.985
 2250POPC   C4A30726   8.888  17.898   7.836
 2250POPC   C1B30727   9.238  18.679   8.668
 2250POPC   C2B30728   9.432  18.606   8.261
 2250POPC   C3B30729   9.348  18.679   7.824
 2250POPC   C4B30730   9.037  18.555   7.531
 2251POPC   NC330731  19.591   9.194   9.695
 2251POPC   PO430732  20.063   8.775   9.425
 2251POPC   GL130733  19.889   9.043   9.110
 2251POPC   GL230734  19.542   9.207   9.162
 2251POPC   C1A30735  19.890   8.984   8.667
 2251POPC   D2A30736  19.838   8.748   8.277
 2251POPC   C3A30737  19.864   8.873   7.822
 2251POPC   C4A30738  19.992   8.674   7.401
 2251POPC   C1B30739  19.475   9.285   8.692
 2251POPC   C2B30740  19.663   9.264   8.264
 2251POPC   C3B30741  19.512   9.259   7.821
 2251POPC   C4B30742  19.108   9.146   7.625
 2252POPC   NC330743  10.870  10.393   9.328
 2252POPC   PO430744  11.526  10.619   9.451
 2252POPC   GL130745  11.315  10.779   9.102
 2252POPC   GL230746  10.994  10.885   9.131
 2252POPC   C1A30747  11.199  10.541   8.731
 2252POPC   D2A30748  11.477  10.266   8.457
 2252POPC   C3A30749  11.420  10.360   8.027
 2252POPC   C4A30750  11.173  10.263   7.687
 2252POPC   C1B30751  11.050  11.106   8.769
 2252POPC   C2B30752  11.241  10.963   8.429
 2252POPC   C3B30753  11.082  10.759   8.082
 2252POPC   C4B30754  11.211  10.784   7.680
 2253POPC   NC330755  12.250  15.846   9.381
 2253POPC   PO430756  11.906  16.370   9.476
 2253POPC   GL130757  11.944  16.128   9.107
 2253POPC   GL230758  12.251  16.289   9.071
 2253POPC   C1A30759  12.005  16.053   8.683
 2253POPC   D2A30760  12.266  15.829   8.385
 2253POPC   C3A30761  12.076  15.764   7.986
 2253POPC   C4A30762  11.850  15.984   7.668
 2253POPC   C1B30763  12.478  16.271   8.681
 2253POPC   C2B30764  12.474  16.297   8.248
 2253POPC   C3B30765  12.472  16.064   7.897
 2253POPC   C4B30766  12.345  15.856   7.536
 2254POPC   NC330767  31.704  42.166   9.616
 2254POPC   PO430768  31.469  42.761   9.496
 2254POPC   GL130769  31.329  42.389   9.212
 2254POPC   GL230770  31.639  42.285   9.115
 2254POPC   C1A30771  31.322  42.178   8.748
 2254POPC   D2A30772  31.480  42.379   8.348
 2254POPC   C3A30773  31.449  42.181   7.919
 2254POPC   C4A30774  31.581  41.811   7.713
 2254POPC   C1B30775  31.511  42.649   8.791
 2254POPC   C2B30776  31.858  42.770   8.481
 2254POPC   C3B30777  31.999  42.664   8.086
 2254POPC   C4B30778  31.709  42.590   7.759
 2255POPC   NC330779   1.134  15.561   9.708
 2255POPC   PO430780   1.480  16.168   9.560
 2255POPC   GL130781   1.251  15.888   9.305
 2255POPC   GL230782   1.419  15.607   9.180
 2255POPC   C1A30783   1.104  15.923   8.883
 2255POPC   D2A30784   1.206  16.183   8.539
 2255POPC   C3A30785   1.056  15.993   8.184
 2255POPC   C4A30786   1.157  15.989   7.757
 2255POPC   C1B30787   1.224  15.437   8.751
 2255POPC   C2B30788   1.160  15.509   8.330
 2255POPC   C3B30789   1.452  15.678   8.040
 2255POPC   C4B30790   1.580  15.538   7.652
 2256POPC   NC330791   4.260  31.978   9.335
 2256POPC   PO430792   4.160  31.376   9.778
 2256POPC   GL130793   4.303  31.397   9.308
 2256POPC   GL230794   4.659  31.472   9.250
 2256POPC   C1A30795   4.355  31.562   8.848
 2256POPC   D2A30796   4.456  31.773   8.461
 2256POPC   C3A30797   4.328  31.551   8.097
 2256POPC   C4A30798   4.431  31.650   7.686
 2256POPC   C1B30799   4.704  31.193   8.875
 2256POPC   C2B30800   4.472  31.212   8.481
 2256POPC   C3B30801   4.680  31.189   8.082
 2256POPC   C4B30802   4.433  31.151   7.733
 2257POPC   NC330803   3.638  37.590   9.582
 2257POPC   PO430804   3.097  37.905   9.568
 2257POPC   GL130805   3.349  37.855   9.203
 2257POPC   GL230806   3.679  37.771   9.120
 2257POPC   C1A30807   3.260  37.573   8.844
 2257POPC   D2A30808   3.440  37.352   8.505
 2257POPC   C3A30809   3.341  37.467   8.068
 2257POPC   C4A30810   3.322  37.720   7.661
 2257POPC   C1B30811   3.611  37.941   8.742
 2257POPC   C2B30812   3.757  37.740   8.377
 2257POPC   C3B30813   3.702  37.842   7.966
 2257POPC   C4B30814   3.934  38.086   7.698
 2258POPC   NC330815   3.289  31.972   9.427
 2258POPC   PO430816   3.899  32.247   9.489
 2258POPC   GL130817   3.586  32.344   9.165
 2258POPC   GL230818   3.327  32.585   9.238
 2258POPC   C1A30819   3.376  32.169   8.777
 2258POPC   D2A30820   3.519  31.979   8.383
 2258POPC   C3A30821   3.429  32.226   8.039
 2258POPC   C4A30822   3.714  32.299   7.690
 2258POPC   C1B30823   3.463  32.667   8.793
 2258POPC   C2B30824   3.348  32.632   8.359
 2258POPC   C3B30825   3.500  32.721   7.931
 2258POPC   C4B30826   3.330  32.584   7.529
 2259POPC   NC330827  23.994   7.576   9.717
 2259POPC   PO430828  23.607   7.087   9.596
 2259POPC   GL130829  23.740   7.342   9.223
 2259POPC   GL230830  23.820   7.727   9.221
 2259POPC   C1A30831  23.646   7.443   8.779
 2259POPC   D2A30832  23.850   7.434   8.379
 2259POPC   C3A30833  23.615   7.370   7.997
 2259POPC   C4A30834  23.502   7.656   7.656
 2259POPC   C1B30835  23.833   7.926   8.785
 2259POPC   C2B30836  24.104   7.898   8.417
 2259POPC   C3B30837  24.088   7.689   8.003
 2259POPC   C4B30838  23.969   7.815   7.605
 2260POPC   NC330839  32.194   8.220   9.798
 2260POPC   PO430840  32.017   8.725   9.533
 2260POPC   GL130841  32.233   8.449   9.216
 2260POPC   GL230842  32.039   8.157   9.134
 2260POPC   C1A30843  32.334   8.331   8.752
 2260POPC   D2A30844  32.478   8.450   8.325
 2260POPC   C3A30845  32.452   8.191   7.981
 2260POPC   C4A30846  32.388   8.452   7.673
 2260POPC   C1B30847  31.839   8.194   8.709
 2260POPC   C2B30848  31.962   8.408   8.332
 2260POPC   C3B30849  31.953   8.337   7.882
 2260POPC   C4B30850  31.945   8.031   7.478
 2261POPC   NC330851  40.898  18.494   9.296
 2261POPC   PO430852  40.329  18.134   9.409
 2261POPC   GL130853  40.427  18.416   9.076
 2261POPC   GL230854  40.658  18.192   8.929
 2261POPC   C1A30855  40.511  18.628   8.683
 2261POPC   D2A30856  40.400  18.417   8.323
 2261POPC   C3A30857  40.729  18.304   8.080
 2261POPC   C4A30858  40.713  18.389   7.681
 2261POPC   C1B30859  40.390  17.970   8.616
 2261POPC   C2B30860  40.498  17.844   8.194
 2261POPC   C3B30861  40.625  17.901   7.742
 2261POPC   C4B30862  40.596  17.836   7.288
 2262POPC   NC330863  44.811  35.664   9.388
 2262POPC   PO430864  44.779  34.994   9.509
 2262POPC   GL130865  44.883  35.193   9.163
 2262POPC   GL230866  44.575  35.341   9.067
 2262POPC   C1A30867   0.005  35.388   8.790
 2262POPC   D2A30868   0.037  35.226   8.381
 2262POPC   C3A30869  44.659  35.336   8.140
 2262POPC   C4A30870  44.481  35.430   7.711
 2262POPC   C1B30871  44.510  35.503   8.626
 2262POPC   C2B30872  44.343  35.749   8.241
 2262POPC   C3B30873  44.357  35.943   7.797
 2262POPC   C4B30874  44.262  35.798   7.357
 2263POPC   NC330875  30.939  28.010   9.488
 2263POPC   PO430876  30.725  27.353   9.483
 2263POPC   GL130877  30.541  27.461   9.078
 2263POPC   GL230878  30.366  27.146   9.053
 2263POPC   C1A30879  30.663  27.760   8.749
 2263POPC   D2A30880  30.695  27.937   8.329
 2263POPC   C3A30881  31.001  27.785   8.066
 2263POPC   C4A30882  30.936  27.592   7.658
 2263POPC   C1B30883  30.198  27.319   8.682
 2263POPC   C2B30884  30.394  27.534   8.363
 2263POPC   C3B30885  30.553  27.461   7.965
 2263POPC   C4B30886  30.341  27.117   7.773
 2264POPC   NC330887  17.011   1.060   9.662
 2264POPC   PO430888  17.317   1.582   9.584
 2264POPC   GL130889  17.060   1.385   9.237
 2264POPC   GL230890  16.695   1.293   9.304
 2264POPC   C1A30891  16.917   1.152   8.871
 2264POPC   D2A30892  16.587   0.971   8.607
 2264POPC   C3A30893  16.658   1.048   8.163
 2264POPC   C4A30894  17.008   1.122   7.849
 2264POPC   C1B30895  16.382   1.314   8.945
 2264POPC   C2B30896  16.185   1.327   8.514
 2264POPC   C3B30897  16.204   1.325   8.066
 2264POPC   C4B30898  16.514   1.298   7.743
 2265POPC   NC330899  36.875  34.801   9.426
 2265POPC   PO430900  36.855  34.173   9.396
 2265POPC   GL130901  36.796  34.435   9.069
 2265POPC   GL230902  37.136  34.555   9.085
 2265POPC   C1A30903  36.862  34.556   8.641
 2265POPC   D2A30904  36.754  34.886   8.345
 2265POPC   C3A30905  36.639  34.632   7.981
 2265POPC   C4A30906  36.587  34.683   7.515
 2265POPC   C1B30907  37.296  34.283   8.821
 2265POPC   C2B30908  37.396  34.474   8.446
 2265POPC   C3B30909  37.150  34.637   8.104
 2265POPC   C4B30910  37.064  34.594   7.676
 2266POPC   NC330911  24.846  44.446   9.766
 2266POPC   PO430912  24.284  44.850   9.714
 2266POPC   GL130913  24.351  44.628   9.322
 2266POPC   GL230914  24.067  44.628   9.107
 2266POPC   C1A30915  24.617  44.687   8.947
 2266POPC   D2A30916  24.767  44.835   8.536
 2266POPC   C3A30917  24.585  44.607   8.167
 2266POPC   C4A30918  24.557  44.390   7.757
 2266POPC   C1B30919  24.104  44.774   8.663
 2266POPC   C2B30920  24.031  44.831   8.211
 2266POPC   C3B30921  24.106  44.648   7.818
 2266POPC   C4B30922  24.016  44.810   7.404
 2267POPC   NC330923   9.360  40.925   9.661
 2267POPC   PO430924   9.997  40.981   9.341
 2267POPC   GL130925   9.667  40.751   9.075
 2267POPC   GL230926   9.532  40.405   9.175
 2267POPC   C1A30927   9.681  40.837   8.613
 2267POPC   D2A30928   9.553  40.916   8.189
 2267POPC   C3A30929   9.781  40.760   7.797
 2267POPC   C4A30930   9.914  40.478   7.430
 2267POPC   C1B30931   9.556  40.355   8.731
 2267POPC   C2B30932   9.599  40.375   8.291
 2267POPC   C3B30933   9.322  40.520   7.989
 2267POPC   C4B30934   9.317  40.707   7.599
 2268POPC   NC330935   6.762   8.892   9.729
 2268POPC   PO430936   6.231   9.095   9.588
 2268POPC   GL130937   6.513   8.974   9.236
 2268POPC   GL230938   6.733   8.678   9.239
 2268POPC   C1A30939   6.649   8.940   8.790
 2268POPC   D2A30940   6.509   9.124   8.409
 2268POPC   C3A30941   6.675   8.982   8.022
 2268POPC   C4A30942   6.740   9.141   7.605
 2268POPC   C1B30943   6.961   8.531   8.864
 2268POPC   C2B30944   6.854   8.555   8.456
 2268POPC   C3B30945   6.800   8.495   8.056
 2268POPC   C4B30946   7.075   8.671   7.739
 2269POPC   NC330947  40.274  40.799   9.551
 2269POPC   PO430948  39.649  41.083   9.454
 2269POPC   GL130949  39.753  40.844   9.083
 2269POPC   GL230950  40.057  40.664   9.121
 2269POPC   C1A30951  39.862  40.864   8.649
 2269POPC   D2A30952  39.631  40.827   8.303
 2269POPC   C3A30953  39.814  40.693   7.917
 2269POPC   C4A30954  39.967  40.876   7.562
 2269POPC   C1B30955  40.267  40.992   8.905
 2269POPC   C2B30956  40.436  40.996   8.475
 2269POPC   C3B30957  40.346  40.819   8.079
 2269POPC   C4B30958  40.396  41.052   7.726
 2270POPC   NC330959  14.309  19.632   9.242
 2270POPC   PO430960  14.125  20.276   9.168
 2270POPC   GL130961  14.454  20.018   8.935
 2270POPC   GL230962  14.608  19.648   8.854
 2270POPC   C1A30963  14.493  19.972   8.501
 2270POPC   D2A30964  14.339  19.796   8.156
 2270POPC   C3A30965  14.420  20.096   7.890
 2270POPC   C4A30966  14.588  19.959   7.538
 2270POPC   C1B30967  14.378  19.460   8.531
 2270POPC   C2B30968  14.579  19.310   8.155
 2270POPC   C3B30969  14.496  19.474   7.761
 2270POPC   C4B30970  14.141  19.727   7.690
 2271POPC   NC330971  23.123  11.334   9.496
 2271POPC   PO430972  22.461  11.132   9.623
 2271POPC   GL130973  22.569  11.354   9.257
 2271POPC   GL230974  22.643  11.071   9.042
 2271POPC   C1A30975  22.795  11.542   8.884
 2271POPC   D2A30976  22.990  11.562   8.459
 2271POPC   C3A30977  22.687  11.604   8.110
 2271POPC   C4A30978  22.745  11.313   7.790
 2271POPC   C1B30979  22.997  11.055   8.724
 2271POPC   C2B30980  23.132  11.097   8.267
 2271POPC   C3B30981  23.052  10.899   7.857
 2271POPC   C4B30982  22.734  10.916   7.477
 2272POPC   NC330983  11.378  31.291   9.561
 2272POPC   PO430984  10.906  31.733   9.532
 2272POPC   GL130985  11.186  31.604   9.198
 2272POPC   GL230986  11.158  31.233   9.109
 2272POPC   C1A30987  11.362  31.565   8.792
 2272POPC   D2A30988  11.625  31.680   8.440
 2272POPC   C3A30989  11.496  31.661   8.038
 2272POPC   C4A30990  11.326  31.346   7.787
 2272POPC   C1B30991  11.435  31.076   8.725
 2272POPC   C2B30992  11.513  31.188   8.266
 2272POPC   C3B30993  11.703  31.028   7.844
 2272POPC   C4B30994  11.617  31.175   7.392
 2273POPC   NC330995   7.463  31.947   9.488
 2273POPC   PO430996   7.467  32.602   9.583
 2273POPC   GL130997   7.356  32.370   9.223
 2273POPC   GL230998   7.455  32.616   9.049
 2273POPC   C1A30999   7.445  32.115   8.850
 2273POPC   D2A31000   7.502  32.155   8.415
 2273POPC   C3A31001   7.179  32.048   8.121
 2273POPC   C4A31002   7.387  31.915   7.758
 2273POPC   C1B31003   7.434  32.609   8.644
 2273POPC   C2B31004   7.458  32.644   8.263
 2273POPC   C3B31005   7.499  32.403   7.937
 2273POPC   C4B31006   7.502  32.369   7.539
 2274POPC   NC331007  32.645   4.449   9.392
 2274POPC   PO431008  31.950   4.309   9.558
 2274POPC   GL131009  32.184   4.353   9.162
 2274POPC   GL231010  32.266   4.708   9.173
 2274POPC   C1A31011  32.422   4.133   8.801
 2274POPC   D2A31012  32.568   4.179   8.363
 2274POPC   C3A31013  32.209   4.171   8.094
 2274POPC   C4A31014  32.135   3.991   7.684
 2274POPC   C1B31015  32.449   4.674   8.743
 2274POPC   C2B31016  32.370   4.654   8.291
 2274POPC   C3B31017  32.226   4.740   7.891
 2274POPC   C4B31018  32.197   4.593   7.459
 2275POPC   NC331019   1.595  24.906   9.750
 2275POPC   PO431020   2.182  25.262   9.578
 2275POPC   GL131021   2.248  25.292   9.147
 2275POPC   GL231022   2.369  24.959   9.103
 2275POPC   C1A31023   2.037  25.290   8.727
 2275POPC   D2A31024   1.833  25.196   8.304
 2275POPC   C3A31025   1.832  25.475   7.955
 2275POPC   C4A31026   1.690  25.201   7.620
 2275POPC   C1B31027   2.299  24.842   8.704
 2275POPC   C2B31028   2.359  25.111   8.351
 2275POPC   C3B31029   2.199  25.130   7.933
 2275POPC   C4B31030   2.156  25.361   7.545
 2276POPC   NC331031  39.979   5.740   9.632
 2276POPC   PO431032  40.581   5.962   9.502
 2276POPC   GL131033  40.290   5.766   9.221
 2276POPC   GL231034  39.945   5.894   9.151
 2276POPC   C1A31035  40.188   5.543   8.847
 2276POPC   D2A31036  39.909   5.587   8.511
 2276POPC   C3A31037  40.076   5.542   8.106
 2276POPC   C4A31038  40.196   5.649   7.700
 2276POPC   C1B31039  40.213   6.051   8.816
 2276POPC   C2B31040  40.305   5.906   8.423
 2276POPC   C3B31041  40.193   6.038   8.016
 2276POPC   C4B31042  39.902   6.092   7.676
 2277POPC   NC331043   9.949  25.563   9.326
 2277POPC   PO431044  10.460  25.962   9.596
 2277POPC   GL131045  10.540  25.925   9.181
 2277POPC   GL231046  10.423  25.620   9.169
 2277POPC   C1A31047  10.737  26.108   8.814
 2277POPC   D2A31048  10.609  25.973   8.459
 2277POPC   C3A31049  10.643  26.191   8.083
 2277POPC   C4A31050  10.643  25.983   7.696
 2277POPC   C1B31051  10.243  25.713   8.777
 2277POPC   C2B31052  10.141  25.799   8.387
 2277POPC   C3B31053  10.200  25.946   7.996
 2277POPC   C4B31054  10.171  25.834   7.570
 2278POPC   NC331055  27.282  35.548   9.466
 2278POPC   PO431056  27.898  35.103   9.289
 2278POPC   GL131057  27.573  35.301   9.096
 2278POPC   GL231058  27.404  34.991   9.111
 2278POPC   C1A31059  27.613  35.490   8.661
 2278POPC   D2A31060  27.870  35.547   8.254
 2278POPC   C3A31061  27.665  35.592   7.827
 2278POPC   C4A31062  27.502  35.476   7.370
 2278POPC   C1B31063  27.610  34.982   8.713
 2278POPC   C2B31064  27.446  35.109   8.334
 2278POPC   C3B31065  27.715  35.112   8.012
 2278POPC   C4B31066  27.616  35.067   7.640
 2279POPC   NC331067   5.684  38.978   9.882
 2279POPC   PO431068   5.236  39.351   9.471
 2279POPC   GL131069   5.148  39.199   9.103
 2279POPC   GL231070   5.059  38.891   9.216
 2279POPC   C1A31071   4.952  39.393   8.751
 2279POPC   D2A31072   4.732  39.452   8.342
 2279POPC   C3A31073   5.038  39.417   8.017
 2279POPC   C4A31074   5.201  39.097   7.743
 2279POPC   C1B31075   4.889  38.862   8.824
 2279POPC   C2B31076   4.956  38.998   8.424
 2279POPC   C3B31077   4.763  38.989   8.027
 2279POPC   C4B31078   4.716  38.923   7.588
 2280POPC   NC331079  26.183  26.321   9.803
 2280POPC   PO431080  25.767  25.933   9.455
 2280POPC   GL131081  25.873  26.293   9.280
 2280POPC   GL231082  26.243  26.297   9.258
 2280POPC   C1A31083  25.860  26.260   8.832
 2280POPC   D2A31084  25.911  25.964   8.504
 2280POPC   C3A31085  25.821  26.090   8.088
 2280POPC   C4A31086  25.998  26.112   7.656
 2280POPC   C1B31087  26.227  25.920   8.967
 2280POPC   C2B31088  26.371  25.754   8.558
 2280POPC   C3B31089  26.239  25.774   8.118
 2280POPC   C4B31090  26.430  25.822   7.701
 2281POPC   NC331091  20.605  10.288   9.627
 2281POPC   PO431092  20.170  10.956   9.490
 2281POPC   GL131093  20.340  10.604   9.215
 2281POPC   GL231094  20.726  10.567   9.162
 2281POPC   C1A31095  20.397  10.451   8.790
 2281POPC   D2A31096  20.544  10.542   8.353
 2281POPC   C3A31097  20.307  10.403   7.990
 2281POPC   C4A31098  20.307  10.708   7.678
 2281POPC   C1B31099  20.895  10.581   8.734
 2281POPC   C2B31100  21.050  10.478   8.303
 2281POPC   C3B31101  20.806  10.523   7.898
 2281POPC   C4B31102  20.855  10.176   7.575
 2282POPC   NC331103  32.944  21.489   9.685
 2282POPC   PO431104  33.106  20.821   9.762
 2282POPC   GL131105  33.169  21.102   9.334
 2282POPC   GL231106  33.026  21.473   9.197
 2282POPC   C1A31107  33.228  21.164   8.870
 2282POPC   D2A31108  33.037  21.382   8.533
 2282POPC   C3A31109  33.123  21.367   8.119
 2282POPC   C4A31110  32.785  21.327   7.828
 2282POPC   C1B31111  33.035  21.781   8.838
 2282POPC   C2B31112  33.258  21.854   8.423
 2282POPC   C3B31113  33.188  21.878   7.968
 2282POPC   C4B31114  33.190  21.714   7.543
 2283POPC   NC331115  40.825  27.798   9.430
 2283POPC   PO431116  40.363  27.351   9.428
 2283POPC   GL131117  40.709  27.424   9.112
 2283POPC   GL231118  40.668  27.748   8.928
 2283POPC   C1A31119  41.030  27.427   8.762
 2283POPC   D2A31120  41.040  27.685   8.397
 2283POPC   C3A31121  40.987  27.426   8.008
 2283POPC   C4A31122  40.673  27.514   7.704
 2283POPC   C1B31123  41.111  27.930   8.873
 2283POPC   C2B31124  41.284  28.177   8.554
 2283POPC   C3B31125  41.080  28.162   8.174
 2283POPC   C4B31126  40.924  27.917   7.869
 2284POPC   NC331127  41.419  30.950   9.601
 2284POPC   PO431128  41.483  30.271   9.570
 2284POPC   GL131129  41.503  30.601   9.217
 2284POPC   GL231130  41.830  30.648   9.171
 2284POPC   C1A31131  41.402  30.662   8.750
 2284POPC   D2A31132  41.494  30.430   8.322
 2284POPC   C3A31133  41.494  30.583   7.870
 2284POPC   C4A31134  41.537  31.037   7.814
 2284POPC   C1B31135  41.985  30.741   8.792
 2284POPC   C2B31136  42.094  30.517   8.431
 2284POPC   C3B31137  41.978  30.535   8.004
 2284POPC   C4B31138  41.996  30.844   7.685
 2285POPC   NC331139  24.959   7.500   9.593
 2285POPC   PO431140  25.291   6.957   9.589
 2285POPC   GL131141  25.269   7.251   9.202
 2285POPC   GL231142  25.466   7.582   9.175
 2285POPC   C1A31143  25.124   7.162   8.755
 2285POPC   D2A31144  25.325   7.091   8.318
 2285POPC   C3A31145  25.106   7.003   7.928
 2285POPC   C4A31146  25.361   6.981   7.509
 2285POPC   C1B31147  25.161   7.666   8.817
 2285POPC   C2B31148  25.036   7.517   8.374
 2285POPC   C3B31149  25.131   7.506   7.928
 2285POPC   C4B31150  24.986   7.755   7.574
 2286POPC   NC331151   0.876  26.404   9.356
 2286POPC   PO431152   1.413  26.767   9.722
 2286POPC   GL131153   1.369  26.883   9.220
 2286POPC   GL231154   1.304  26.560   9.161
 2286POPC   C1A31155   1.093  27.134   8.844
 2286POPC   D2A31156   1.163  27.053   8.436
 2286POPC   C3A31157   0.906  27.120   8.097
 2286POPC   C4A31158   1.180  27.247   7.791
 2286POPC   C1B31159   1.126  26.643   8.759
 2286POPC   C2B31160   1.339  26.595   8.360
 2286POPC   C3B31161   1.173  26.680   7.980
 2286POPC   C4B31162   1.413  26.557   7.632
 2287POPC   NC331163  11.392   8.715   9.453
 2287POPC   PO431164  10.920   9.170   9.710
 2287POPC   GL131165  10.885   8.951   9.188
 2287POPC   GL231166  10.985   8.659   9.172
 2287POPC   C1A31167  10.987   9.141   8.749
 2287POPC   D2A31168  11.273   9.132   8.384
 2287POPC   C3A31169  11.208   9.370   7.986
 2287POPC   C4A31170  11.435   9.251   7.600
 2287POPC   C1B31171  11.232   8.682   8.788
 2287POPC   C2B31172  11.412   8.616   8.356
 2287POPC   C3B31173  11.336   8.825   7.962
 2287POPC   C4B31174  11.340   8.751   7.502
 2288POPC   NC331175  21.805   1.372   9.563
 2288POPC   PO431176  21.140   1.266   9.392
 2288POPC   GL131177  21.266   1.043   9.076
 2288POPC   GL231178  21.597   1.124   9.060
 2288POPC   C1A31179  21.366   0.983   8.632
 2288POPC   D2A31180  21.541   1.096   8.239
 2288POPC   C3A31181  21.395   0.911   7.826
 2288POPC   C4A31182  21.604   0.684   7.471
 2288POPC   C1B31183  21.600   1.437   8.665
 2288POPC   C2B31184  21.286   1.534   8.337
 2288POPC   C3B31185  21.392   1.558   7.891
 2288POPC   C4B31186  21.142   1.679   7.520
 2289POPC   NC331187   9.306  14.579   9.837
 2289POPC   PO431188   8.748  14.309   9.651
 2289POPC   GL131189   8.979  14.392   9.257
 2289POPC   GL231190   9.284  14.536   9.328
 2289POPC   C1A31191   8.950  14.285   8.808
 2289POPC   D2A31192   8.719  14.479   8.485
 2289POPC   C3A31193   8.695  14.420   8.072
 2289POPC   C4A31194   8.918  14.454   7.738
 2289POPC   C1B31195   9.380  14.554   8.903
 2289POPC   C2B31196   9.196  14.643   8.511
 2289POPC   C3B31197   9.181  14.348   8.201
 2289POPC   C4B31198   9.397  14.332   7.834
 2290POPC   NC331199  25.363  35.633   9.451
 2290POPC   PO431200  24.824  35.194   9.497
 2290POPC   GL131201  25.106  35.259   9.164
 2290POPC   GL231202  25.044  35.611   9.049
 2290POPC   C1A31203  25.066  35.229   8.712
 2290POPC   D2A31204  25.091  35.459   8.320
 2290POPC   C3A31205  25.312  35.167   8.049
 2290POPC   C4A31206  25.236  34.976   7.668
 2290POPC   C1B31207  25.435  35.621   8.774
 2290POPC   C2B31208  25.566  35.763   8.344
 2290POPC   C3B31209  25.627  35.550   7.950
 2290POPC   C4B31210  25.663  35.612   7.468
 2291POPC   NC331211  22.788  13.233   9.606
 2291POPC   PO431212  23.035  13.909   9.526
 2291POPC   GL131213  23.068  13.627   9.164
 2291POPC   GL231214  22.834  13.375   9.113
 2291POPC   C1A31215  23.058  13.774   8.763
 2291POPC   D2A31216  23.103  13.961   8.355
 2291POPC   C3A31217  22.978  13.712   7.998
 2291POPC   C4A31218  23.028  13.682   7.564
 2291POPC   C1B31219  23.147  13.269   8.756
 2291POPC   C2B31220  23.158  13.308   8.286
 2291POPC   C3B31221  23.048  13.240   7.817
 2291POPC   C4B31222  22.625  13.394   7.622
 2292POPC   NC331223  26.234  15.444   9.625
 2292POPC   PO431224  25.822  14.944   9.730
 2292POPC   GL131225  25.884  15.096   9.314
 2292POPC   GL231226  26.190  14.918   9.188
 2292POPC   C1A31227  26.033  15.351   8.967
 2292POPC   D2A31228  26.308  15.174   8.661
 2292POPC   C3A31229  26.393  15.326   8.275
 2292POPC   C4A31230  26.355  15.340   7.854
 2292POPC   C1B31231  25.952  14.842   8.800
 2292POPC   C2B31232  25.930  14.989   8.361
 2292POPC   C3B31233  25.890  15.286   8.032
 2292POPC   C4B31234  25.922  15.229   7.577
 2293POPC   NC331235  12.186  18.895   9.613
 2293POPC   PO431236  11.768  19.367   9.483
 2293POPC   GL131237  11.889  19.031   9.201
 2293POPC   GL231238  12.261  19.114   9.160
 2293POPC   C1A31239  12.006  18.868   8.788
 2293POPC   D2A31240  12.165  18.978   8.371
 2293POPC   C3A31241  11.865  19.165   8.069
 2293POPC   C4A31242  11.887  19.000   7.655
 2293POPC   C1B31243  12.439  19.321   8.787
 2293POPC   C2B31244  12.316  19.508   8.378
 2293POPC   C3B31245  12.337  19.318   7.972
 2293POPC   C4B31246  12.229  19.364   7.541
 2294POPC   NC331247  17.700   8.936   9.496
 2294POPC   PO431248  17.223   9.467   9.412
 2294POPC   GL131249  17.431   9.189   9.064
 2294POPC   GL231250  17.811   9.196   8.992
 2294POPC   C1A31251  17.475   9.198   8.603
 2294POPC   D2A31252  17.486   9.336   8.175
 2294POPC   C3A31253  17.299   9.077   7.866
 2294POPC   C4A31254  17.525   8.659   7.870
 2294POPC   C1B31255  17.935   9.499   8.628
 2294POPC   C2B31256  17.960   9.510   8.136
 2294POPC   C3B31257  17.794   9.214   7.777
 2294POPC   C4B31258  17.941   8.990   7.412
 2295POPC   NC331259  44.151   3.282   9.691
 2295POPC   PO431260  44.782   3.494   9.458
 2295POPC   GL131261  44.522   3.355   9.152
 2295POPC   GL231262  44.233   3.559   9.252
 2295POPC   C1A31263  44.710   3.512   8.776
 2295POPC   D2A31264  44.988   3.735   8.496
 2295POPC   C3A31265  44.965   3.643   8.063
 2295POPC   C4A31266   0.014   3.479   7.667
 2295POPC   C1B31267  44.207   3.636   8.819
 2295POPC   C2B31268  44.344   3.441   8.425
 2295POPC   C3B31269  44.222   3.537   8.035
 2295POPC   C4B31270  44.506   3.581   7.714
 2296POPC   NC331271  34.957  24.962   9.600
 2296POPC   PO431272  35.490  25.472   9.526
 2296POPC   GL131273  35.443  25.524   9.129
 2296POPC   GL231274  35.079  25.517   9.186
 2296POPC   C1A31275  35.561  25.402   8.702
 2296POPC   D2A31276  35.500  25.021   8.474
 2296POPC   C3A31277  35.504  25.068   8.040
 2296POPC   C4A31278  35.443  25.472   7.870
 2296POPC   C1B31279  35.100  25.220   8.852
 2296POPC   C2B31280  35.086  25.311   8.416
 2296POPC   C3B31281  35.013  25.142   8.050
 2296POPC   C4B31282  35.140  25.098   7.641
 2297POPC   NC331283  10.839  22.569   9.648
 2297POPC   PO431284  10.397  22.999   9.346
 2297POPC   GL131285  10.762  23.031   9.085
 2297POPC   GL231286  10.718  23.339   8.950
 2297POPC   C1A31287  10.704  22.958   8.628
 2297POPC   D2A31288  10.440  22.779   8.330
 2297POPC   C3A31289  10.698  22.657   8.033
 2297POPC   C4A31290  10.849  22.885   7.719
 2297POPC   C1B31291  10.361  23.399   8.734
 2297POPC   C2B31292  10.533  23.511   8.357
 2297POPC   C3B31293  10.645  23.185   8.100
 2297POPC   C4B31294  10.336  22.969   7.853
 2298POPC   NC331295  31.826  22.602   9.475
 2298POPC   PO431296  31.506  23.241   9.590
 2298POPC   GL131297  31.339  23.235   9.197
 2298POPC   GL231298  31.434  22.867   9.218
 2298POPC   C1A31299  31.559  23.217   8.783
 2298POPC   D2A31300  31.661  22.960   8.420
 2298POPC   C3A31301  31.589  23.041   7.994
 2298POPC   C4A31302  31.619  22.761   7.626
 2298POPC   C1B31303  31.491  22.655   8.830
 2298POPC   C2B31304  31.264  22.665   8.455
 2298POPC   C3B31305  31.311  22.557   8.055
 2298POPC   C4B31306  31.056  22.614   7.725
 2299POPC   NC331307  28.834  16.230   9.806
 2299POPC   PO431308  28.446  16.822   9.584
 2299POPC   GL131309  28.506  16.778   9.131
 2299POPC   GL231310  28.830  16.684   8.974
 2299POPC   C1A31311  28.216  16.796   8.816
 2299POPC   D2A31312  28.062  16.748   8.430
 2299POPC   C3A31313  28.232  16.846   8.015
 2299POPC   C4A31314  28.169  16.995   7.586
 2299POPC   C1B31315  28.684  16.908   8.617
 2299POPC   C2B31316  28.715  16.861   8.170
 2299POPC   C3B31317  28.647  17.061   7.758
 2299POPC   C4B31318  28.760  17.157   7.290
 2300POPC   NC331319   3.135  14.360   9.482
 2300POPC   PO431320   3.889  14.465   9.638
 2300POPC   GL131321   3.771  14.455   9.199
 2300POPC   GL231322   3.486  14.254   9.114
 2300POPC   C1A31323   3.802  14.519   8.769
 2300POPC   D2A31324   3.585  14.247   8.486
 2300POPC   C3A31325   3.593  14.370   8.070
 2300POPC   C4A31326   3.603  14.484   7.662
 2300POPC   C1B31327   3.250  14.525   8.810
 2300POPC   C2B31328   3.102  14.429   8.374
 2300POPC   C3B31329   3.169  14.078   8.050
 2300POPC   C4B31330   3.180  14.202   7.610
 2301POPC   NC331331  19.589  42.373   9.385
 2301POPC   PO431332  18.940  42.394   9.625
 2301POPC   GL131333  19.107  42.449   9.215
 2301POPC   GL231334  19.299  42.739   9.164
 2301POPC   C1A31335  19.172  42.273   8.810
 2301POPC   D2A31336  19.006  42.351   8.415
 2301POPC   C3A31337  19.152  42.381   8.018
 2301POPC   C4A31338  19.219  42.081   7.662
 2301POPC   C1B31339  19.472  42.656   8.762
 2301POPC   C2B31340  19.397  42.717   8.365
 2301POPC   C3B31341  19.596  42.620   8.007
 2301POPC   C4B31342  19.379  42.589   7.608
 2302POPC   NC331343  42.520  10.870   9.511
 2302POPC   PO431344  42.083  10.437   9.534
 2302POPC   GL131345  42.148  10.661   9.172
 2302POPC   GL231346  42.463  10.530   9.117
 2302POPC   C1A31347  41.999  10.736   8.752
 2302POPC   D2A31348  42.121  10.552   8.360
 2302POPC   C3A31349  42.100  10.767   7.977
 2302POPC   C4A31350  42.055  10.471   7.604
 2302POPC   C1B31351  42.496  10.668   8.719
 2302POPC   C2B31352  42.608  10.449   8.336
 2302POPC   C3B31353  42.489  10.457   7.915
 2302POPC   C4B31354  42.461  10.772   7.571
 2303POPC   NC331355  31.716  14.858   9.370
 2303POPC   PO431356  31.304  14.378   9.672
 2303POPC   GL131357  31.443  14.375   9.251
 2303POPC   GL231358  31.767  14.213   9.219
 2303POPC   C1A31359  31.342  14.543   8.855
 2303POPC   D2A31360  31.332  14.357   8.440
 2303POPC   C3A31361  31.162  14.512   8.051
 2303POPC   C4A31362  31.263  14.643   7.623
 2303POPC   C1B31363  31.822  14.395   8.767
 2303POPC   C2B31364  31.868  14.342   8.279
 2303POPC   C3B31365  31.650  14.396   7.853
 2303POPC   C4B31366  31.794  14.606   7.449
 2304POPC   NC331367   3.739  20.781   9.572
 2304POPC   PO431368   4.429  20.507   9.513
 2304POPC   GL131369   4.342  20.492   9.141
 2304POPC   GL231370   4.034  20.397   9.148
 2304POPC   C1A31371   4.491  20.521   8.765
 2304POPC   D2A31372   4.678  20.435   8.401
 2304POPC   C3A31373   4.400  20.632   8.161
 2304POPC   C4A31374   4.574  20.697   7.788
 2304POPC   C1B31375   3.972  20.627   8.787
 2304POPC   C2B31376   3.732  20.551   8.431
 2304POPC   C3B31377   3.894  20.601   8.028
 2304POPC   C4B31378   4.094  20.844   7.767
 2305POPC   NC331379  38.123  31.349   9.582
 2305POPC   PO431380  38.608  31.659   9.348
 2305POPC   GL131381  38.306  31.440   9.106
 2305POPC   GL231382  38.578  31.360   8.922
 2305POPC   C1A31383  38.134  31.386   8.675
 2305POPC   D2A31384  38.396  31.428   8.303
 2305POPC   C3A31385  38.212  31.415   7.875
 2305POPC   C4A31386  38.333  31.592   7.468
 2305POPC   C1B31387  38.817  31.067   8.705
 2305POPC   C2B31388  38.781  31.070   8.261
 2305POPC   C3B31389  38.741  31.324   7.864
 2305POPC   C4B31390  38.610  31.176   7.443
 2306POPC   NC331391  36.815  27.973   9.436
 2306POPC   PO431392  36.862  28.647   9.591
 2306POPC   GL131393  36.999  28.552   9.176
 2306POPC   GL231394  36.737  28.321   9.070
 2306POPC   C1A31395  37.149  28.500   8.739
 2306POPC   D2A31396  37.117  28.759   8.356
 2306POPC   C3A31397  36.988  28.640   7.939
 2306POPC   C4A31398  36.580  28.530   7.739
 2306POPC   C1B31399  36.755  28.153   8.662
 2306POPC   C2B31400  36.957  28.201   8.318
 2306POPC   C3B31401  36.856  28.160   7.935
 2306POPC   C4B31402  37.222  28.190   7.734
 2307POPC   NC331403  14.196  41.019   9.383
 2307POPC   PO431404  14.617  40.555   9.483
 2307POPC   GL131405  14.547  40.725   9.089
 2307POPC   GL231406  14.584  41.068   9.052
 2307POPC   C1A31407  14.328  40.685   8.710
 2307POPC   D2A31408  14.580  40.779   8.367
 2307POPC   C3A31409  14.415  40.647   7.986
 2307POPC   C4A31410  14.678  40.493   7.658
 2307POPC   C1B31411  14.216  41.171   8.764
 2307POPC   C2B31412  14.147  41.052   8.363
 2307POPC   C3B31413  14.434  41.156   8.016
 2307POPC   C4B31414  14.325  40.971   7.618
 2308POPC   NC331415  40.471  20.036   9.563
 2308POPC   PO431416  40.579  19.488   9.844
 2308POPC   GL131417  40.694  19.644   9.316
 2308POPC   GL231418  40.472  19.924   9.075
 2308POPC   C1A31419  40.945  19.939   8.971
 2308POPC   D2A31420  40.951  19.854   8.518
 2308POPC   C3A31421  40.730  19.954   8.162
 2308POPC   C4A31422  40.927  19.985   7.792
 2308POPC   C1B31423  40.368  19.648   8.765
 2308POPC   C2B31424  40.564  19.525   8.412
 2308POPC   C3B31425  40.507  19.504   8.008
 2308POPC   C4B31426  40.538  19.680   7.643
 2309POPC   NC331427   7.741  41.779   9.387
 2309POPC   PO431428   8.353  41.719   9.623
 2309POPC   GL131429   8.197  41.629   9.189
 2309POPC   GL231430   7.958  41.394   9.078
 2309POPC   C1A31431   8.041  41.805   8.775
 2309POPC   D2A31432   8.231  41.819   8.378
 2309POPC   C3A31433   8.071  41.714   7.997
 2309POPC   C4A31434   7.980  41.668   7.568
 2309POPC   C1B31435   8.199  41.318   8.681
 2309POPC   C2B31436   8.238  41.286   8.241
 2309POPC   C3B31437   8.190  41.241   7.787
 2309POPC   C4B31438   8.120  41.158   7.342
 2310POPC   NC331439  26.849  17.913   9.456
 2310POPC   PO431440  26.836  17.245   9.413
 2310POPC   GL131441  27.008  17.423   9.017
 2310POPC   GL231442  27.142  17.745   9.062
 2310POPC   C1A31443  26.896  17.514   8.569
 2310POPC   D2A31444  26.824  17.800   8.186
 2310POPC   C3A31445  26.439  17.760   7.896
 2310POPC   C4A31446  26.390  17.640   7.436
 2310POPC   C1B31447  27.387  17.741   8.665
 2310POPC   C2B31448  27.379  17.370   8.387
 2310POPC   C3B31449  27.026  17.307   8.109
 2310POPC   C4B31450  26.838  17.514   7.740
 2311POPC   NC331451  37.296  24.960   9.478
 2311POPC   PO431452  37.834  25.402   9.517
 2311POPC   GL131453  37.840  25.580   9.131
 2311POPC   GL231454  37.730  25.226   9.059
 2311POPC   C1A31455  37.766  25.572   8.699
 2311POPC   D2A31456  37.801  25.262   8.374
 2311POPC   C3A31457  37.563  25.441   8.053
 2311POPC   C4A31458  37.318  25.249   7.763
 2311POPC   C1B31459  37.449  25.121   8.751
 2311POPC   C2B31460  37.465  24.844   8.398
 2311POPC   C3B31461  37.650  24.809   7.992
 2311POPC   C4B31462  37.611  24.893   7.546
 2312POPC   NC331463  33.185  31.977   9.602
 2312POPC   PO431464  32.593  32.193   9.621
 2312POPC   GL131465  32.845  32.128   9.230
 2312POPC   GL231466  33.067  32.400   9.266
 2312POPC   C1A31467  33.093  32.136   8.824
 2312POPC   D2A31468  33.211  32.412   8.457
 2312POPC   C3A31469  33.080  32.228   8.050
 2312POPC   C4A31470  32.741  31.962   7.848
 2312POPC   C1B31471  32.841  32.583   8.919
 2312POPC   C2B31472  32.846  32.803   8.530
 2312POPC   C3B31473  32.834  32.687   8.100
 2312POPC   C4B31474  32.898  32.538   7.671
 2313POPC   NC331475  40.987  17.540   9.532
 2313POPC   PO431476  41.234  18.134   9.330
 2313POPC   GL131477  40.981  17.793   9.056
 2313POPC   GL231478  40.860  17.426   9.051
 2313POPC   C1A31479  40.812  17.662   8.621
 2313POPC   D2A31480  40.848  17.317   8.328
 2313POPC   C3A31481  40.907  17.572   7.981
 2313POPC   C4A31482  41.022  17.609   7.550
 2313POPC   C1B31483  40.566  17.221   8.777
 2313POPC   C2B31484  40.341  17.400   8.442
 2313POPC   C3B31485  40.425  17.380   7.997
 2313POPC   C4B31486  40.488  16.995   7.824
 2314POPC   NC331487  33.702   6.144   9.230
 2314POPC   PO431488  34.101   5.909   9.650
 2314POPC   GL131489  33.959   5.716   9.197
 2314POPC   GL231490  33.615   5.645   9.154
 2314POPC   C1A31491  33.957   5.880   8.708
 2314POPC   D2A31492  33.897   6.244   8.412
 2314POPC   C3A31493  33.720   6.172   7.993
 2314POPC   C4A31494  33.748   6.138   7.519
 2314POPC   C1B31495  33.510   5.657   8.712
 2314POPC   C2B31496  33.707   5.651   8.277
 2314POPC   C3B31497  33.567   5.698   7.812
 2314POPC   C4B31498  33.627   5.643   7.335
 2315POPC   NC331499  35.764  10.291   9.550
 2315POPC   PO431500  36.308  10.724   9.557
 2315POPC   GL131501  36.025  10.597   9.197
 2315POPC   GL231502  36.055  10.247   9.136
 2315POPC   C1A31503  36.000  10.792   8.787
 2315POPC   D2A31504  36.200  10.746   8.378
 2315POPC   C3A31505  35.872  10.835   8.075
 2315POPC   C4A31506  35.949  10.955   7.690
 2315POPC   C1B31507  36.218  10.345   8.742
 2315POPC   C2B31508  36.259  10.235   8.326
 2315POPC   C3B31509  36.160  10.435   7.950
 2315POPC   C4B31510  36.238  10.277   7.548
 2316POPC   NC331511   6.210  39.823   9.788
 2316POPC   PO431512   5.631  40.210   9.486
 2316POPC   GL131513   5.791  40.072   9.141
 2316POPC   GL231514   5.729  40.365   8.956
 2316POPC   C1A31515   5.635  39.903   8.772
 2316POPC   D2A31516   5.627  40.046   8.361
 2316POPC   C3A31517   5.977  39.911   8.145
 2316POPC   C4A31518   6.011  39.748   7.755
 2316POPC   C1B31519   6.038  40.263   8.617
 2316POPC   C2B31520   6.078  40.416   8.182
 2316POPC   C3B31521   5.843  40.295   7.817
 2316POPC   C4B31522   5.689  40.460   7.392
 2317POPC   NC331523  39.113  27.065   9.404
 2317POPC   PO431524  39.441  26.553   9.624
 2317POPC   GL131525  39.432  26.605   9.197
 2317POPC   GL231526  39.091  26.547   9.119
 2317POPC   C1A31527  39.381  26.838   8.796
 2317POPC   D2A31528  39.253  26.823   8.366
 2317POPC   C3A31529  39.489  26.875   7.978
 2317POPC   C4A31530  39.401  27.041   7.563
 2317POPC   C1B31531  38.958  26.532   8.691
 2317POPC   C2B31532  38.815  26.551   8.263
 2317POPC   C3B31533  38.977  26.800   7.919
 2317POPC   C4B31534  39.045  26.645   7.492
 2318POPC   NC331535  34.950  11.059   9.498
 2318POPC   PO431536  34.214  11.015   9.565
 2318POPC   GL131537  34.348  11.294   9.248
 2318POPC   GL231538  34.656  11.138   9.080
 2318POPC   C1A31539  34.384  11.495   8.854
 2318POPC   D2A31540  34.570  11.223   8.537
 2318POPC   C3A31541  34.509  11.322   8.113
 2318POPC   C4A31542  34.264  11.222   7.733
 2318POPC   C1B31543  34.792  10.799   8.776
 2318POPC   C2B31544  34.741  10.736   8.316
 2318POPC   C3B31545  34.859  10.994   7.944
 2318POPC   C4B31546  34.964  10.985   7.487
 2319POPC   NC331547  31.365  24.415   9.496
 2319POPC   PO431548  31.874  24.040   9.466
 2319POPC   GL131549  31.733  24.444   9.135
 2319POPC   GL231550  31.349  24.436   9.000
 2319POPC   C1A31551  31.621  24.786   8.787
 2319POPC   D2A31552  31.214  24.703   8.553
 2319POPC   C3A31553  31.210  24.664   8.093
 2319POPC   C4A31554  31.551  24.818   7.804
 2319POPC   C1B31555  31.540  24.279   8.633
 2319POPC   C2B31556  31.802  24.322   8.287
 2319POPC   C3B31557  31.603  24.278   7.904
 2319POPC   C4B31558  31.277  24.402   7.626
 2320POPC   NC331559  40.833  35.011   9.676
 2320POPC   PO431560  40.714  35.583   9.567
 2320POPC   GL131561  40.652  35.428   9.168
 2320POPC   GL231562  40.903  35.211   9.200
 2320POPC   C1A31563  40.542  35.561   8.737
 2320POPC   D2A31564  40.432  35.296   8.366
 2320POPC   C3A31565  40.748  35.209   8.018
 2320POPC   C4A31566  41.049  35.488   7.834
 2320POPC   C1B31567  40.750  35.096   8.758
 2320POPC   C2B31568  41.043  35.032   8.395
 2320POPC   C3B31569  41.085  34.823   7.985
 2320POPC   C4B31570  40.904  34.946   7.549
 2321POPC   NC331571   0.019  40.358   9.512
 2321POPC   PO431572  44.884  41.045   9.549
 2321POPC   GL131573  44.677  40.937   9.170
 2321POPC   GL231574  44.651  40.590   9.171
 2321POPC   C1A31575  44.732  41.044   8.765
 2321POPC   D2A31576   0.011  40.936   8.442
 2321POPC   C3A31577  44.835  40.984   8.051
 2321POPC   C4A31578  44.855  41.317   7.778
 2321POPC   C1B31579  44.853  40.527   8.769
 2321POPC   C2B31580  44.735  40.506   8.326
 2321POPC   C3B31581  44.916  40.519   7.882
 2321POPC   C4B31582  44.672  40.458   7.505
 2322POPC   NC331583  40.920   7.950   9.488
 2322POPC   PO431584  40.409   8.342   9.742
 2322POPC   GL131585  40.530   8.238   9.280
 2322POPC   GL231586  40.553   7.948   9.020
 2322POPC   C1A31587  40.655   8.408   8.863
 2322POPC   D2A31588  40.562   8.178   8.487
 2322POPC   C3A31589  40.707   8.385   8.124
 2322POPC   C4A31590  40.755   8.156   7.743
 2322POPC   C1B31591  40.987   8.003   8.855
 2322POPC   C2B31592  41.077   8.179   8.485
 2322POPC   C3B31593  41.092   8.054   8.115
 2322POPC   C4B31594  41.113   7.729   7.852
 2323POPC   NC331595   1.394  18.769   9.619
 2323POPC   PO431596   0.834  18.719   9.272
 2323POPC   GL131597   1.221  18.886   9.147
 2323POPC   GL231598   1.206  19.241   9.055
 2323POPC   C1A31599   1.484  18.908   8.784
 2323POPC   D2A31600   1.295  18.921   8.388
 2323POPC   C3A31601   1.474  18.947   7.994
 2323POPC   C4A31602   1.156  18.717   7.839
 2323POPC   C1B31603   0.972  19.205   8.696
 2323POPC   C2B31604   1.008  19.324   8.282
 2323POPC   C3B31605   1.017  19.281   7.895
 2323POPC   C4B31606   1.341  19.362   7.705
 2324POPC   NC331607  30.762  15.148   9.456
 2324POPC   PO431608  30.452  15.655   9.132
 2324POPC   GL131609  30.750  15.383   9.011
 2324POPC   GL231610  31.057  15.467   9.081
 2324POPC   C1A31611  30.645  15.101   8.732
 2324POPC   D2A31612  30.762  15.007   8.335
 2324POPC   C3A31613  30.425  15.065   8.067
 2324POPC   C4A31614  30.485  15.091   7.663
 2324POPC   C1B31615  31.199  15.621   8.670
 2324POPC   C2B31616  30.888  15.609   8.302
 2324POPC   C3B31617  30.820  15.423   7.865
 2324POPC   C4B31618  30.941  15.534   7.388
 2325POPC   NC331619  27.275   0.688   9.461
 2325POPC   PO431620  26.653   0.610   9.491
 2325POPC   GL131621  26.858   0.439   9.127
 2325POPC   GL231622  26.530   0.269   9.092
 2325POPC   C1A31623  26.868   0.308   8.699
 2325POPC   D2A31624  26.744   0.120   8.297
 2325POPC   C3A31625  27.040   0.119   7.947
 2325POPC   C4A31626  27.128   0.370   7.574
 2325POPC   C1B31627  26.425   0.555   8.759
 2325POPC   C2B31628  26.608   0.608   8.348
 2325POPC   C3B31629  26.749   0.521   7.959
 2325POPC   C4B31630  26.620   0.423   7.557
 2326POPC   NC331631   6.950  21.373   9.890
 2326POPC   PO431632   6.419  21.578   9.545
 2326POPC   GL131633   6.706  21.395   9.198
 2326POPC   GL231634   7.013  21.180   9.127
 2326POPC   C1A31635   6.814  21.537   8.793
 2326POPC   D2A31636   6.521  21.682   8.502
 2326POPC   C3A31637   6.541  21.611   8.047
 2326POPC   C4A31638   6.336  21.458   7.668
 2326POPC   C1B31639   6.840  21.013   8.736
 2326POPC   C2B31640   6.792  21.246   8.366
 2326POPC   C3B31641   7.028  21.351   8.026
 2326POPC   C4B31642   6.799  21.269   7.686
 2327POPC   NC331643  41.748  39.783   9.400
 2327POPC   PO431644  41.268  40.216   9.535
 2327POPC   GL131645  41.517  40.189   9.156
 2327POPC   GL231646  41.780  40.386   9.057
 2327POPC   C1A31647  41.384  40.099   8.731
 2327POPC   D2A31648  41.488  40.177   8.298
 2327POPC   C3A31649  41.635  39.847   7.992
 2327POPC   C4A31650  41.561  39.791   7.541
 2327POPC   C1B31651  41.885  40.249   8.674
 2327POPC   C2B31652  41.899  40.514   8.323
 2327POPC   C3B31653  41.807  40.376   7.939
 2327POPC   C4B31654  42.005  40.072   7.710
 2328POPC   NC331655  44.091   9.865   9.507
 2328POPC   PO431656  43.680   9.383   9.724
 2328POPC   GL131657  43.620   9.877   9.348
 2328POPC   GL231658  43.474  10.084   9.051
 2328POPC   C1A31659  43.923   9.973   8.889
 2328POPC   D2A31660  44.221   9.784   8.544
 2328POPC   C3A31661  44.145   9.778   8.061
 2328POPC   C4A31662  44.236   9.583   7.631
 2328POPC   C1B31663  43.496   9.774   8.713
 2328POPC   C2B31664  43.715   9.723   8.368
 2328POPC   C3B31665  43.617   9.723   7.968
 2328POPC   C4B31666  43.841   9.893   7.640
 2329POPC   NC331667  44.242  19.315   9.484
 2329POPC   PO431668  43.611  19.083   9.386
 2329POPC   GL131669  43.801  19.224   9.014
 2329POPC   GL231670  44.158  19.129   8.997
 2329POPC   C1A31671  43.852  19.099   8.598
 2329POPC   D2A31672  43.744  18.727   8.348
 2329POPC   C3A31673  43.751  18.917   7.949
 2329POPC   C4A31674  43.983  19.319   7.844
 2329POPC   C1B31675  44.258  18.812   8.650
 2329POPC   C2B31676  44.233  18.895   8.183
 2329POPC   C3B31677  44.238  18.859   7.725
 2329POPC   C4B31678  44.190  18.753   7.300
 2330POPC   NC331679  17.780  42.031   9.294
 2330POPC   PO431680  17.368  41.622   9.696
 2330POPC   GL131681  17.414  41.624   9.262
 2330POPC   GL231682  17.254  41.331   9.147
 2330POPC   C1A31683  17.219  41.755   8.854
 2330POPC   D2A31684  17.388  41.728   8.422
 2330POPC   C3A31685  17.103  41.720   8.072
 2330POPC   C4A31686  17.150  41.946   7.689
 2330POPC   C1B31687  17.519  41.340   8.823
 2330POPC   C2B31688  17.453  41.167   8.453
 2330POPC   C3B31689  17.480  41.351   8.074
 2330POPC   C4B31690  17.603  41.694   7.800
 2331POPC   NC331691  12.256   7.554   9.771
 2331POPC   PO431692  11.859   7.014   9.518
 2331POPC   GL131693  11.896   7.371   9.235
 2331POPC   GL231694  12.250   7.421   9.214
 2331POPC   C1A31695  11.957   7.464   8.793
 2331POPC   D2A31696  11.845   7.229   8.432
 2331POPC   C3A31697  11.981   7.429   8.086
 2331POPC   C4A31698  12.114   7.757   7.797
 2331POPC   C1B31699  12.385   7.197   8.822
 2331POPC   C2B31700  12.354   7.357   8.432
 2331POPC   C3B31701  12.507   7.509   8.062
 2331POPC   C4B31702  12.307   7.296   7.730
 2332POPC   NC331703  42.645  32.928   9.474
 2332POPC   PO431704  42.202  33.353   9.551
 2332POPC   GL131705  42.182  33.147   9.164
 2332POPC   GL231706  42.235  32.776   9.183
 2332POPC   C1A31707  42.288  33.332   8.776
 2332POPC   D2A31708  42.556  33.330   8.448
 2332POPC   C3A31709  42.354  33.284   8.057
 2332POPC   C4A31710  42.368  33.223   7.610
 2332POPC   C1B31711  42.498  32.865   8.822
 2332POPC   C2B31712  42.445  32.829   8.385
 2332POPC   C3B31713  42.288  32.792   7.956
 2332POPC   C4B31714  42.632  32.704   7.651
 2333POPC   NC331715  36.771  26.479   9.427
 2333POPC   PO431716  37.293  26.992   9.434
 2333POPC   GL131717  36.977  26.849   9.142
 2333POPC   GL231718  36.729  27.081   9.007
 2333POPC   C1A31719  36.821  26.663   8.746
 2333POPC   D2A31720  36.732  26.893   8.358
 2333POPC   C3A31721  36.749  26.598   7.978
 2333POPC   C4A31722  36.667  26.329   7.584
 2333POPC   C1B31723  37.066  27.222   8.771
 2333POPC   C2B31724  37.201  27.253   8.338
 2333POPC   C3B31725  37.075  26.996   8.006
 2333POPC   C4B31726  36.732  27.025   7.684
 2334POPC   NC331727  33.384  12.723   9.596
 2334POPC   PO431728  32.730  12.915   9.496
 2334POPC   GL131729  33.004  12.632   9.204
 2334POPC   GL231730  33.372  12.689   9.101
 2334POPC   C1A31731  33.071  12.455   8.769
 2334POPC   D2A31732  33.044  12.653   8.394
 2334POPC   C3A31733  33.156  12.519   8.001
 2334POPC   C4A31734  32.951  12.743   7.672
 2334POPC   C1B31735  33.187  12.943   8.809
 2334POPC   C2B31736  33.228  13.139   8.448
 2334POPC   C3B31737  33.170  13.017   8.055
 2334POPC   C4B31738  33.234  13.153   7.667
 2335POPC   NC331739  37.129   0.085   9.573
 2335POPC   PO431740  36.756   0.718   9.485
 2335POPC   GL131741  36.924   0.553   9.157
 2335POPC   GL231742  37.252   0.430   9.229
 2335POPC   C1A31743  36.744   0.617   8.762
 2335POPC   D2A31744  36.577   0.473   8.381
 2335POPC   C3A31745  36.802   0.645   8.046
 2335POPC   C4A31746  36.907   0.462   7.645
 2335POPC   C1B31747  37.194   0.300   8.813
 2335POPC   C2B31748  37.117   0.482   8.429
 2335POPC   C3B31749  37.212   0.328   8.033
 2335POPC   C4B31750  37.453   0.173   7.700
 2336POPC   NC331751  16.385  23.423   9.317
 2336POPC   PO431752  16.744  22.924   9.630
 2336POPC   GL131753  16.706  22.761   9.207
 2336POPC   GL231754  16.676  23.087   9.071
 2336POPC   C1A31755  16.450  22.737   8.813
 2336POPC   D2A31756  16.685  22.813   8.464
 2336POPC   C3A31757  16.530  22.851   8.090
 2336POPC   C4A31758  16.621  22.984   7.700
 2336POPC   C1B31759  16.632  23.333   8.698
 2336POPC   C2B31760  16.808  23.297   8.306
 2336POPC   C3B31761  16.643  23.434   7.928
 2336POPC   C4B31762  16.897  23.411   7.574
 2337POPC   NC331763  24.794  16.513   9.327
 2337POPC   PO431764  24.336  17.090   9.539
 2337POPC   GL131765  24.407  16.883   9.145
 2337POPC   GL231766  24.306  16.551   9.197
 2337POPC   C1A31767  24.608  16.918   8.726
 2337POPC   D2A31768  24.762  16.883   8.295
 2337POPC   C3A31769  24.546  17.011   7.940
 2337POPC   C4A31770  24.463  16.858   7.533
 2337POPC   C1B31771  24.396  16.447   8.770
 2337POPC   C2B31772  24.303  16.620   8.358
 2337POPC   C3B31773  24.427  16.517   7.931
 2337POPC   C4B31774  24.285  16.374   7.497
 2338POPC   NC331775  24.244   3.947   9.405
 2338POPC   PO431776  24.493   4.527   9.602
 2338POPC   GL131777  24.522   4.372   9.182
 2338POPC   GL231778  24.167   4.315   9.034
 2338POPC   C1A31779  24.576   4.369   8.729
 2338POPC   D2A31780  24.230   4.207   8.461
 2338POPC   C3A31781  24.455   4.062   8.116
 2338POPC   C4A31782  24.731   4.363   7.977
 2338POPC   C1B31783  24.127   4.662   8.707
 2338POPC   C2B31784  23.962   4.639   8.264
 2338POPC   C3B31785  24.173   4.476   7.874
 2338POPC   C4B31786  24.297   4.573   7.435
 2339POPC   NC331787  17.900  27.734   9.582
 2339POPC   PO431788  18.437  27.384   9.818
 2339POPC   GL131789  18.341  27.411   9.357
 2339POPC   GL231790  18.613  27.309   9.180
 2339POPC   C1A31791  18.237  27.612   8.931
 2339POPC   D2A31792  18.260  27.780   8.514
 2339POPC   C3A31793  18.223  27.595   8.150
 2339POPC   C4A31794  17.935  27.635   7.836
 2339POPC   C1B31795  18.590  27.294   8.713
 2339POPC   C2B31796  18.517  27.145   8.275
 2339POPC   C3B31797  18.591  27.346   7.892
 2339POPC   C4B31798  18.539  27.770   7.786
 2340POPC   NC331799   9.955  20.020   9.607
 2340POPC   PO431800   9.347  20.371   9.522
 2340POPC   GL131801   9.729  20.213   9.213
 2340POPC   GL231802   9.844  19.821   9.157
 2340POPC   C1A31803   9.917  20.162   8.797
 2340POPC   D2A31804   9.699  19.878   8.497
 2340POPC   C3A31805   9.729  20.053   8.117
 2340POPC   C4A31806  10.042  19.929   7.829
 2340POPC   C1B31807   9.778  19.487   8.841
 2340POPC   C2B31808   9.961  19.436   8.418
 2340POPC   C3B31809   9.828  19.465   7.988
 2340POPC   C4B31810   9.960  19.517   7.526
 2341POPC   NC331811  34.031  25.124   9.941
 2341POPC   PO431812  33.951  25.420   9.296
 2341POPC   GL131813  33.752  25.274   8.960
 2341POPC   GL231814  33.534  25.598   9.075
 2341POPC   C1A31815  33.629  25.170   8.581
 2341POPC   D2A31816  33.763  25.140   8.200
 2341POPC   C3A31817  33.528  25.129   7.833
 2341POPC   C4A31818  33.814  25.153   7.524
 2341POPC   C1B31819  33.731  25.674   8.683
 2341POPC   C2B31820  33.644  25.627   8.303
 2341POPC   C3B31821  33.761  25.581   7.892
 2341POPC   C4B31822  33.530  25.590   7.527
 2342POPC   NC331823  20.925  21.940   9.567
 2342POPC   PO431824  20.343  22.088   9.894
 2342POPC   GL131825  20.405  22.104   9.398
 2342POPC   GL231826  20.122  21.913   9.232
 2342POPC   C1A31827  20.550  22.192   8.958
 2342POPC   D2A31828  20.586  22.346   8.503
 2342POPC   C3A31829  20.725  22.269   8.054
 2342POPC   C4A31830  20.701  22.412   7.604
 2342POPC   C1B31831  20.210  21.836   8.794
 2342POPC   C2B31832  20.269  21.958   8.375
 2342POPC   C3B31833  20.474  21.818   8.000
 2342POPC   C4B31834  20.421  21.950   7.595
 2343POPC   NC331835  10.827  36.430   9.439
 2343POPC   PO431836  10.432  36.989   9.618
 2343POPC   GL131837  10.469  36.757   9.232
 2343POPC   GL231838  10.167  36.751   9.032
 2343POPC   C1A31839  10.641  36.635   8.831
 2343POPC   D2A31840  10.516  36.763   8.438
 2343POPC   C3A31841  10.604  36.683   7.982
 2343POPC   C4A31842  10.723  36.999   7.636
 2343POPC   C1B31843  10.030  36.910   8.611
 2343POPC   C2B31844  10.121  36.813   8.148
 2343POPC   C3B31845  10.200  36.857   7.697
 2343POPC   C4B31846  10.049  36.584   7.351
 2344POPC   NC331847   4.036  42.000   9.518
 2344POPC   PO431848   3.457  42.416   9.523
 2344POPC   GL131849   3.612  42.421   9.108
 2344POPC   GL231850   3.706  42.060   9.089
 2344POPC   C1A31851   3.777  42.629   8.745
 2344POPC   D2A31852   3.630  42.632   8.343
 2344POPC   C3A31853   3.698  42.315   8.013
 2344POPC   C4A31854   3.722  42.217   7.586
 2344POPC   C1B31855   3.605  42.165   8.650
 2344POPC   C2B31856   3.295  42.177   8.312
 2344POPC   C3B31857   3.270  42.091   7.849
 2344POPC   C4B31858   3.411  41.821   7.522
 2345POPC   NC331859  30.836  18.736   9.434
 2345POPC   PO431860  30.611  19.389   9.461
 2345POPC   GL131861  30.711  19.264   9.061
 2345POPC   GL231862  30.868  18.937   8.979
 2345POPC   C1A31863  30.606  19.379   8.669
 2345POPC   D2A31864  30.560  19.304   8.245
 2345POPC   C3A31865  30.860  19.346   7.935
 2345POPC   C4A31866  30.555  19.214   7.657
 2345POPC   C1B31867  30.753  18.914   8.554
 2345POPC   C2B31868  30.780  18.865   8.108
 2345POPC   C3B31869  30.992  18.869   7.722
 2345POPC   C4B31870  31.119  18.731   7.316
 2346POPC   NC331871  43.708  26.551   9.623
 2346POPC   PO431872  43.941  27.098   9.757
 2346POPC   GL131873  43.892  26.885   9.290
 2346POPC   GL231874  43.661  27.073   9.091
 2346POPC   C1A31875  43.912  26.624   8.873
 2346POPC   D2A31876  43.718  26.690   8.404
 2346POPC   C3A31877  43.954  26.642   7.988
 2346POPC   C4A31878  43.939  26.621   7.520
 2346POPC   C1B31879  43.885  27.099   8.727
 2346POPC   C2B31880  43.769  27.190   8.311
 2346POPC   C3B31881  43.589  26.980   7.981
 2346POPC   C4B31882  43.833  27.099   7.646
 2347POPC   NC331883  42.584  36.129   9.573
 2347POPC   PO431884  42.026  36.375   9.355
 2347POPC   GL131885  42.293  36.110   9.133
 2347POPC   GL231886  42.044  36.035   8.902
 2347POPC   C1A31887  42.652  35.960   8.896
 2347POPC   D2A31888  42.734  35.744   8.501
 2347POPC   C3A31889  42.845  35.964   8.117
 2347POPC   C4A31890  42.671  35.972   7.737
 2347POPC   C1B31891  42.281  36.015   8.562
 2347POPC   C2B31892  42.318  36.023   8.136
 2347POPC   C3B31893  42.174  36.124   7.757
 2347POPC   C4B31894  42.066  36.320   7.340
 2348POPC   NC331895   8.561  30.790   9.568
 2348POPC   PO431896   9.318  30.940   9.444
 2348POPC   GL131897   9.079  30.685   9.116
 2348POPC   GL231898   8.716  30.635   9.101
 2348POPC   C1A31899   8.940  30.780   8.661
 2348POPC   D2A31900   8.775  30.792   8.238
 2348POPC   C3A31901   8.950  30.871   7.832
 2348POPC   C4A31902   9.254  30.848   7.478
 2348POPC   C1B31903   8.692  30.349   8.776
 2348POPC   C2B31904   8.775  30.201   8.388
 2348POPC   C3B31905   8.914  30.349   7.977
 2348POPC   C4B31906   8.953  30.440   7.519
 2349POPC   NC331907  19.192  25.551   9.415
 2349POPC   PO431908  18.883  25.016   9.599
 2349POPC   GL131909  18.970  25.109   9.143
 2349POPC   GL231910  19.295  25.264   9.015
 2349POPC   C1A31911  19.072  24.955   8.716
 2349POPC   D2A31912  19.335  25.206   8.419
 2349POPC   C3A31913  19.091  25.269   8.068
 2349POPC   C4A31914  19.206  25.024   7.716
 2349POPC   C1B31915  19.023  25.492   8.710
 2349POPC   C2B31916  18.825  25.680   8.334
 2349POPC   C3B31917  19.008  25.812   7.939
 2349POPC   C4B31918  19.223  25.529   7.630
 2350POPC   NC331919   8.377  35.009   9.552
 2350POPC   PO431920   8.165  35.669   9.732
 2350POPC   GL131921   8.237  35.439   9.278
 2350POPC   GL231922   8.506  35.221   9.086
 2350POPC   C1A31923   8.148  35.469   8.797
 2350POPC   D2A31924   8.363  35.575   8.383
 2350POPC   C3A31925   8.231  35.359   7.996
 2350POPC   C4A31926   8.181  35.553   7.571
 2350POPC   C1B31927   8.493  35.118   8.616
 2350POPC   C2B31928   8.693  35.126   8.190
 2350POPC   C3B31929   8.608  35.123   7.731
 2350POPC   C4B31930   8.272  35.100   7.391
 2351POPC   NC331931   1.572   8.635   9.533
 2351POPC   PO431932   2.054   9.228   9.474
 2351POPC   GL131933   2.115   8.976   9.139
 2351POPC   GL231934   2.327   8.714   9.197
 2351POPC   C1A31935   1.950   8.933   8.715
 2351POPC   D2A31936   1.702   9.215   8.468
 2351POPC   C3A31937   1.848   9.275   8.069
 2351POPC   C4A31938   2.112   8.976   7.901
 2351POPC   C1B31939   2.438   8.815   8.785
 2351POPC   C2B31940   2.291   8.733   8.360
 2351POPC   C3B31941   2.533   8.665   7.990
 2351POPC   C4B31942   2.380   8.702   7.566
 2352POPC   NC331943  13.714  32.634   9.857
 2352POPC   PO431944  13.717  33.245   9.412
 2352POPC   GL131945  13.518  33.157   9.101
 2352POPC   GL231946  13.238  32.988   9.260
 2352POPC   C1A31947  13.748  33.116   8.731
 2352POPC   D2A31948  14.066  32.905   8.498
 2352POPC   C3A31949  13.880  33.017   8.114
 2352POPC   C4A31950  13.764  33.012   7.678
 2352POPC   C1B31951  13.107  33.035   8.816
 2352POPC   C2B31952  13.339  32.944   8.450
 2352POPC   C3B31953  13.384  32.954   8.026
 2352POPC   C4B31954  13.164  33.122   7.703
 2353POPC   NC331955  28.993  43.516   9.622
 2353POPC   PO431956  29.299  42.913   9.514
 2353POPC   GL131957  29.205  43.091   9.143
 2353POPC   GL231958  28.865  43.175   9.187
 2353POPC   C1A31959  29.171  43.013   8.708
 2353POPC   D2A31960  29.046  43.059   8.292
 2353POPC   C3A31961  29.327  42.843   8.017
 2353POPC   C4A31962  29.473  43.080   7.667
 2353POPC   C1B31963  28.852  43.404   8.769
 2353POPC   C2B31964  28.891  43.571   8.368
 2353POPC   C3B31965  28.753  43.387   8.011
 2353POPC   C4B31966  28.936  43.060   7.767
 2354POPC   NC331967   5.473   5.209   9.461
 2354POPC   PO431968   6.113   5.422   9.591
 2354POPC   GL131969   5.993   5.166   9.236
 2354POPC   GL231970   5.784   4.841   9.240
 2354POPC   C1A31971   5.803   5.166   8.827
 2354POPC   D2A31972   5.882   4.940   8.434
 2354POPC   C3A31973   6.016   5.224   8.113
 2354POPC   C4A31974   6.110   5.234   7.677
 2354POPC   C1B31975   5.619   4.665   8.830
 2354POPC   C2B31976   5.401   4.714   8.417
 2354POPC   C3B31977   5.495   4.888   8.022
 2354POPC   C4B31978   5.504   4.747   7.597
 2355POPC   NC331979  26.850   3.050   9.688
 2355POPC   PO431980  26.849   2.439   9.490
 2355POPC   GL131981  26.975   2.784   9.227
 2355POPC   GL231982  26.964   2.483   8.984
 2355POPC   C1A31983  27.093   2.926   8.808
 2355POPC   D2A31984  27.273   2.571   8.564
 2355POPC   C3A31985  27.095   2.573   8.154
 2355POPC   C4A31986  26.865   2.956   8.050
 2355POPC   C1B31987  26.726   2.590   8.595
 2355POPC   C2B31988  26.450   2.748   8.264
 2355POPC   C3B31989  26.456   2.735   7.788
 2355POPC   C4B31990  26.556   2.526   7.357
 2356POPC   NC331991  26.848  22.660   9.544
 2356POPC   PO431992  26.514  23.264   9.629
 2356POPC   GL131993  26.826  23.087   9.284
 2356POPC   GL231994  26.678  22.807   9.106
 2356POPC   C1A31995  27.088  23.045   8.870
 2356POPC   D2A31996  27.052  22.926   8.419
 2356POPC   C3A31997  26.804  22.986   7.998
 2356POPC   C4A31998  26.799  22.834   7.523
 2356POPC   C1B31999  26.589  22.857   8.711
 2356POPC   C2B32000  26.346  22.590   8.473
 2356POPC   C3B32001  26.394  22.548   8.056
 2356POPC   C4B32002  26.361  22.857   7.735
 2357POPC   NC332003  19.679  36.038   9.550
 2357POPC   PO432004  20.343  36.183   9.542
 2357POPC   GL132005  20.033  36.221   9.219
 2357POPC   GL232006  19.976  35.941   9.152
 2357POPC   C1A32007  19.839  36.289   8.806
 2357POPC   D2A32008  19.907  36.439   8.414
 2357POPC   C3A32009  20.015  36.145   8.118
 2357POPC   C4A32010  19.928  36.262   7.726
 2357POPC   C1B32011  19.772  35.774   8.818
 2357POPC   C2B32012  19.657  35.961   8.436
 2357POPC   C3B32013  19.599  35.814   8.023
 2357POPC   C4B32014  19.790  35.788   7.631
 2358POPC   NC332015   7.331  39.075   9.245
 2358POPC   PO432016   7.156  38.359   9.400
 2358POPC   GL132017   7.429  38.581   9.151
 2358POPC   GL232018   7.157  38.696   8.955
 2358POPC   C1A32019   7.621  38.468   8.789
 2358POPC   D2A32020   7.614  38.193   8.441
 2358POPC   C3A32021   7.545  38.373   8.055
 2358POPC   C4A32022   7.743  38.543   7.743
 2358POPC   C1B32023   7.160  38.301   8.723
 2358POPC   C2B32024   7.115  38.179   8.307
 2358POPC   C3B32025   7.060  38.302   7.910
 2358POPC   C4B32026   7.251  38.568   7.630
 2359POPC   NC332027  14.465  41.318   9.907
 2359POPC   PO432028  14.024  41.759   9.662
 2359POPC   GL132029  14.330  41.533   9.331
 2359POPC   GL232030  14.087  41.470   9.153
 2359POPC   C1A32031  14.553  41.540   8.881
 2359POPC   D2A32032  14.393  41.510   8.416
 2359POPC   C3A32033  14.635  41.657   8.045
 2359POPC   C4A32034  14.669  41.459   7.667
 2359POPC   C1B32035  14.042  41.663   8.765
 2359POPC   C2B32036  14.076  41.937   8.431
 2359POPC   C3B32037  14.137  41.789   8.048
 2359POPC   C4B32038  14.187  41.626   7.668
 2360POPC   NC332039   1.824  24.012   9.506
 2360POPC   PO432040   2.055  23.310   9.635
 2360POPC   GL132041   2.042  23.598   9.260
 2360POPC   GL232042   1.702  23.616   9.180
 2360POPC   C1A32043   2.223  23.771   8.846
 2360POPC   D2A32044   2.374  23.613   8.434
 2360POPC   C3A32045   2.351  23.832   8.033
 2360POPC   C4A32046   2.321  23.796   7.564
 2360POPC   C1B32047   1.720  23.851   8.788
 2360POPC   C2B32048   1.553  23.910   8.341
 2360POPC   C3B32049   1.832  23.847   7.983
 2360POPC   C4B32050   2.049  23.427   7.853
 2361POPC   NC332051   2.325  30.784   9.627
 2361POPC   PO432052   1.695  30.853   9.528
 2361POPC   GL132053   2.003  30.746   9.224
 2361POPC   GL232054   2.183  30.414   9.241
 2361POPC   C1A32055   2.147  30.900   8.858
 2361POPC   D2A32056   2.235  30.750   8.445
 2361POPC   C3A32057   1.916  30.897   8.138
 2361POPC   C4A32058   2.049  30.971   7.727
 2361POPC   C1B32059   2.355  30.392   8.810
 2361POPC   C2B32060   2.255  30.247   8.368
 2361POPC   C3B32061   2.142  30.463   7.962
 2361POPC   C4B32062   2.150  30.510   7.502
 2362POPC   NC332063   1.925  41.143   9.334
 2362POPC   PO432064   2.081  41.747   9.563
 2362POPC   GL132065   1.958  41.662   9.198
 2362POPC   GL232066   2.262  41.478   9.112
 2362POPC   C1A32067   1.834  41.548   8.804
 2362POPC   D2A32068   1.690  41.651   8.438
 2362POPC   C3A32069   1.956  41.518   8.129
 2362POPC   C4A32070   1.828  41.295   7.774
 2362POPC   C1B32071   2.313  41.870   8.857
 2362POPC   C2B32072   2.429  41.898   8.403
 2362POPC   C3B32073   2.360  41.862   7.963
 2362POPC   C4B32074   2.067  41.735   7.684
 2363POPC   NC332075  18.537  41.695   9.550
 2363POPC   PO432076  17.877  41.485   9.490
 2363POPC   GL132077  18.145  41.662   9.159
 2363POPC   GL232078  18.462  41.856   9.082
 2363POPC   C1A32079  18.097  41.713   8.729
 2363POPC   D2A32080  17.863  41.475   8.426
 2363POPC   C3A32081  18.015  41.464   8.011
 2363POPC   C4A32082  18.204  41.189   7.738
 2363POPC   C1B32083  18.562  41.459   8.897
 2363POPC   C2B32084  18.431  41.388   8.477
 2363POPC   C3B32085  18.565  41.368   8.049
 2363POPC   C4B32086  18.418  41.666   7.744
 2364POPC   NC332087  21.393  37.267   9.405
 2364POPC   PO432088  21.106  36.681   9.524
 2364POPC   GL132089  21.123  36.892   9.167
 2364POPC   GL232090  21.478  36.883   9.088
 2364POPC   C1A32091  21.130  37.066   8.759
 2364POPC   D2A32092  21.316  36.880   8.421
 2364POPC   C3A32093  21.247  37.127   8.066
 2364POPC   C4A32094  21.109  37.069   7.663
 2364POPC   C1B32095  21.661  37.162   8.768
 2364POPC   C2B32096  21.784  37.066   8.344
 2364POPC   C3B32097  21.649  36.808   8.022
 2364POPC   C4B32098  21.680  37.104   7.725
 2365POPC   NC332099   1.700  32.109   9.310
 2365POPC   PO432100   1.178  32.230   9.698
 2365POPC   GL132101   1.243  32.363   9.267
 2365POPC   GL232102   1.242  32.013   9.106
 2365POPC   C1A32103   1.192  32.450   8.811
 2365POPC   D2A32104   1.184  32.186   8.426
 2365POPC   C3A32105   1.282  32.406   8.060
 2365POPC   C4A32106   1.036  32.393   7.688
 2365POPC   C1B32107   1.523  31.955   8.733
 2365POPC   C2B32108   1.592  31.833   8.322
 2365POPC   C3B32109   1.425  31.939   7.906
 2365POPC   C4B32110   1.498  32.213   7.586
 2366POPC   NC332111  13.095   4.332   9.533
 2366POPC   PO432112  12.491   4.101   9.377
 2366POPC   GL132113  12.795   4.344   9.118
 2366POPC   GL232114  13.159   4.199   9.047
 2366POPC   C1A32115  12.768   4.566   8.718
 2366POPC   D2A32116  12.511   4.514   8.334
 2366POPC   C3A32117  12.694   4.454   7.902
 2366POPC   C4A32118  12.518   4.307   7.515
 2366POPC   C1B32119  12.874   4.050   8.710
 2366POPC   C2B32120  12.824   4.095   8.242
 2366POPC   C3B32121  13.136   4.175   7.841
 2366POPC   C4B32122  13.349   4.345   7.434
 2367POPC   NC332123  28.651  22.662   9.494
 2367POPC   PO432124  27.991  22.813   9.476
 2367POPC   GL132125  28.293  22.824   9.168
 2367POPC   GL232126  28.279  23.153   9.028
 2367POPC   C1A32127  28.485  22.753   8.791
 2367POPC   D2A32128  28.361  22.993   8.437
 2367POPC   C3A32129  28.447  22.813   8.064
 2367POPC   C4A32130  28.223  22.898   7.741
 2367POPC   C1B32131  28.669  23.237   8.769
 2367POPC   C2B32132  28.849  23.107   8.386
 2367POPC   C3B32133  28.720  23.241   7.992
 2367POPC   C4B32134  28.765  22.944   7.669
 2368POPC   NC332135  33.261  44.939   9.717
 2368POPC   PO432136  32.940  44.420   9.515
 2368POPC   GL132137  32.854  44.715   9.192
 2368POPC   GL232138  33.124  44.962   9.215
 2368POPC   C1A32139  32.936  44.605   8.758
 2368POPC   D2A32140  32.700  44.603   8.350
 2368POPC   C3A32141  32.950  44.673   7.968
 2368POPC   C4A32142  32.961  44.620   7.526
 2368POPC   C1B32143  33.337  44.958   8.834
 2368POPC   C2B32144  33.206  44.856   8.405
 2368POPC   C3B32145  33.372  44.953   8.018
 2368POPC   C4B32146  33.262   0.081   7.626
 2369POPC   NC332147  29.312  15.957   9.497
 2369POPC   PO432148  28.772  16.420   9.399
 2369POPC   GL132149  29.022  16.219   9.075
 2369POPC   GL232150  29.080  15.860   9.068
 2369POPC   C1A32151  28.880  16.081   8.661
 2369POPC   D2A32152  29.103  15.938   8.306
 2369POPC   C3A32153  28.989  16.162   7.945
 2369POPC   C4A32154  29.300  16.309   7.660
 2369POPC   C1B32155  29.042  15.585   8.717
 2369POPC   C2B32156  28.751  15.561   8.381
 2369POPC   C3B32157  28.834  15.651   7.961
 2369POPC   C4B32158  29.051  15.795   7.583
 2370POPC   NC332159  43.777  41.270   9.581
 2370POPC   PO432160  43.776  41.962   9.399
 2370POPC   GL132161  44.044  41.747   9.137
 2370POPC   GL232162  43.946  41.373   9.115
 2370POPC   C1A32163  43.988  41.681   8.720
 2370POPC   D2A32164  43.679  41.402   8.490
 2370POPC   C3A32165  43.644  41.418   8.026
 2370POPC   C4A32166  43.759  41.641   7.659
 2370POPC   C1B32167  44.126  41.199   8.738
 2370POPC   C2B32168  44.202  41.385   8.339
 2370POPC   C3B32169  44.364  41.236   7.979
 2370POPC   C4B32170  44.091  41.265   7.669
 2371POPC   NC332171  42.110  14.491   9.455
 2371POPC   PO432172  42.597  14.083   9.435
 2371POPC   GL132173  42.288  14.127   9.127
 2371POPC   GL232174  42.372  14.483   9.016
 2371POPC   C1A32175  42.147  14.171   8.695
 2371POPC   D2A32176  42.318  14.385   8.325
 2371POPC   C3A32177  42.163  14.310   7.893
 2371POPC   C4A32178  42.193  14.543   7.482
 2371POPC   C1B32179  42.665  14.209   8.748
 2371POPC   C2B32180  42.681  14.011   8.340
 2371POPC   C3B32181  42.692  14.281   7.990
 2371POPC   C4B32182  42.595  14.264   7.562
 2372POPC   NC332183   5.491  17.466   9.286
 2372POPC   PO432184   5.968  17.583   9.757
 2372POPC   GL132185   5.966  17.347   9.280
 2372POPC   GL232186   5.874  17.550   8.950
 2372POPC   C1A32187   6.224  17.219   8.863
 2372POPC   D2A32188   6.183  17.383   8.430
 2372POPC   C3A32189   5.907  17.523   8.095
 2372POPC   C4A32190   5.955  17.537   7.630
 2372POPC   C1B32191   5.651  17.484   8.574
 2372POPC   C2B32192   5.437  17.292   8.233
 2372POPC   C3B32193   5.522  17.326   7.797
 2372POPC   C4B32194   5.511  17.584   7.388
 2373POPC   NC332195   3.466  11.408   9.470
 2373POPC   PO432196   3.872  11.161   9.046
 2373POPC   GL132197   3.486  11.296   8.969
 2373POPC   GL232198   3.323  11.015   8.998
 2373POPC   C1A32199   3.477  11.549   8.626
 2373POPC   D2A32200   3.808  11.689   8.360
 2373POPC   C3A32201   3.602  11.628   7.987
 2373POPC   C4A32202   3.491  11.317   7.675
 2373POPC   C1B32203   3.476  10.993   8.552
 2373POPC   C2B32204   3.363  11.219   8.203
 2373POPC   C3B32205   3.059  11.055   7.968
 2373POPC   C4B32206   3.062  10.991   7.557
 2374POPC   NC332207  17.709   1.421   9.390
 2374POPC   PO432208  17.329   0.833   9.412
 2374POPC   GL132209  17.441   1.086   9.064
 2374POPC   GL232210  17.761   1.028   9.040
 2374POPC   C1A32211  17.359   1.389   8.715
 2374POPC   D2A32212  17.148   1.391   8.279
 2374POPC   C3A32213  17.421   1.514   7.907
 2374POPC   C4A32214  17.651   1.651   7.506
 2374POPC   C1B32215  17.901   1.278   8.724
 2374POPC   C2B32216  17.733   1.312   8.335
 2374POPC   C3B32217  17.820   1.188   7.949
 2374POPC   C4B32218  17.494   1.061   7.660
 2375POPC   NC332219   2.552   8.089   9.924
 2375POPC   PO432220   2.662   7.864   9.230
 2375POPC   GL132221   2.536   8.263   9.042
 2375POPC   GL232222   2.787   8.537   9.038
 2375POPC   C1A32223   2.610   8.380   8.602
 2375POPC   D2A32224   2.818   8.281   8.252
 2375POPC   C3A32225   2.575   8.023   7.982
 2375POPC   C4A32226   2.526   8.220   7.621
 2375POPC   C1B32227   3.086   8.521   8.690
 2375POPC   C2B32228   3.225   8.639   8.272
 2375POPC   C3B32229   3.140   8.410   7.881
 2375POPC   C4B32230   3.157   8.429   7.396
 2376POPC   NC332231  32.955  11.136   9.285
 2376POPC   PO432232  33.377  11.558   9.507
 2376POPC   GL132233  33.156  11.594   9.112
 2376POPC   GL232234  33.445  11.717   8.964
 2376POPC   C1A32235  32.964  11.464   8.700
 2376POPC   D2A32236  33.133  11.253   8.353
 2376POPC   C3A32237  33.015  11.249   7.891
 2376POPC   C4A32238  32.890  11.059   7.478
 2376POPC   C1B32239  33.453  11.282   8.794
 2376POPC   C2B32240  33.665  11.167   8.427
 2376POPC   C3B32241  33.516  11.375   8.068
 2376POPC   C4B32242  33.370  11.640   7.804
 2377POPC   NC332243  35.891   6.448   9.507
 2377POPC   PO432244  36.288   7.058   9.470
 2377POPC   GL132245  36.042   6.800   9.163
 2377POPC   GL232246  36.150   6.429   9.096
 2377POPC   C1A32247  35.860   6.750   8.756
 2377POPC   D2A32248  35.653   6.705   8.382
 2377POPC   C3A32249  35.863   6.654   8.035
 2377POPC   C4A32250  36.244   6.703   7.853
 2377POPC   C1B32251  36.343   6.302   8.759
 2377POPC   C2B32252  36.443   6.489   8.360
 2377POPC   C3B32253  36.375   6.251   8.019
 2377POPC   C4B32254  36.554   6.343   7.640
 2378POPC   NC332255   3.789  36.974   9.263
 2378POPC   PO432256   4.389  37.197   9.515
 2378POPC   GL132257   4.300  36.945   9.152
 2378POPC   GL232258   4.107  37.146   8.890
 2378POPC   C1A32259   4.158  36.671   8.798
 2378POPC   D2A32260   4.155  36.873   8.380
 2378POPC   C3A32261   4.208  36.618   8.016
 2378POPC   C4A32262   4.364  36.625   7.618
 2378POPC   C1B32263   4.540  36.982   8.708
 2378POPC   C2B32264   4.752  37.025   8.318
 2378POPC   C3B32265   4.595  36.978   7.910
 2378POPC   C4B32266   4.646  37.370   7.645
 2379POPC   NC332267  16.971  20.898   9.607
 2379POPC   PO432268  16.585  20.304   9.464
 2379POPC   GL132269  16.674  20.665   9.218
 2379POPC   GL232270  17.021  20.663   9.158
 2379POPC   C1A32271  16.677  20.820   8.786
 2379POPC   D2A32272  16.706  20.626   8.334
 2379POPC   C3A32273  16.619  20.903   7.955
 2379POPC   C4A32274  16.519  20.911   7.477
 2379POPC   C1B32275  17.105  20.543   8.722
 2379POPC   C2B32276  17.214  20.406   8.299
 2379POPC   C3B32277  17.052  20.450   7.894
 2379POPC   C4B32278  16.666  20.444   7.676
 2380POPC   NC332279   8.172  16.186   9.524
 2380POPC   PO432280   7.929  15.628   9.352
 2380POPC   GL132281   8.217  15.918   9.063
 2380POPC   GL232282   8.542  16.122   9.177
 2380POPC   C1A32283   8.287  15.839   8.598
 2380POPC   D2A32284   8.295  15.972   8.155
 2380POPC   C3A32285   8.339  15.615   7.900
 2380POPC   C4A32286   8.270  15.684   7.452
 2380POPC   C1B32287   8.461  16.292   8.803
 2380POPC   C2B32288   8.395  16.474   8.422
 2380POPC   C3B32289   8.573  16.426   8.007
 2380POPC   C4B32290   8.336  16.414   7.627
 2381POPC   NC332291  31.930   2.934   9.609
 2381POPC   PO432292  31.211   2.905   9.723
 2381POPC   GL132293  31.390   2.900   9.305
 2381POPC   GL232294  31.658   2.663   9.252
 2381POPC   C1A32295  31.310   2.867   8.854
 2381POPC   D2A32296  31.091   2.982   8.458
 2381POPC   C3A32297  31.222   2.762   8.085
 2381POPC   C4A32298  31.321   2.636   7.657
 2381POPC   C1B32299  31.803   2.686   8.825
 2381POPC   C2B32300  31.629   2.742   8.411
 2381POPC   C3B32301  31.735   2.725   7.957
 2381POPC   C4B32302  31.828   2.575   7.523
 2382POPC   NC332303  10.916   4.666   9.565
 2382POPC   PO432304  11.570   4.649   9.597
 2382POPC   GL132305  11.306   4.418   9.296
 2382POPC   GL232306  11.499   4.576   9.053
 2382POPC   C1A32307  11.055   4.360   8.899
 2382POPC   D2A32308  10.771   4.491   8.559
 2382POPC   C3A32309  10.865   4.616   8.149
 2382POPC   C4A32310  10.869   4.446   7.727
 2382POPC   C1B32311  11.551   4.332   8.710
 2382POPC   C2B32312  11.236   4.318   8.419
 2382POPC   C3B32313  11.258   4.303   8.033
 2382POPC   C4B32314  11.355   4.318   7.643
 2383POPC   NC332315   7.468   1.159   9.387
 2383POPC   PO432316   8.206   1.151   9.543
 2383POPC   GL132317   8.161   1.122   9.149
 2383POPC   GL232318   8.466   0.946   9.130
 2383POPC   C1A32319   8.048   1.262   8.738
 2383POPC   D2A32320   8.052   1.086   8.340
 2383POPC   C3A32321   7.969   1.391   8.068
 2383POPC   C4A32322   8.138   1.211   7.701
 2383POPC   C1B32323   8.346   0.836   8.739
 2383POPC   C2B32324   8.466   0.729   8.321
 2383POPC   C3B32325   8.382   0.792   7.900
 2383POPC   C4B32326   8.421   0.864   7.455
 2384POPC   NC332327  39.717   0.979   9.480
 2384POPC   PO432328  40.175   1.451   9.674
 2384POPC   GL132329  39.987   1.338   9.216
 2384POPC   GL232330  40.062   0.997   9.094
 2384POPC   C1A32331  39.817   1.346   8.770
 2384POPC   D2A32332  39.688   1.280   8.329
 2384POPC   C3A32333  39.861   1.051   7.980
 2384POPC   C4A32334  39.955   1.142   7.540
 2384POPC   C1B32335  40.322   1.204   8.764
 2384POPC   C2B32336  40.272   1.205   8.302
 2384POPC   C3B32337  40.362   1.150   7.851
 2384POPC   C4B32338  40.436   1.395   7.454
 2385POPC   NC332339  44.206  33.237   9.646
 2385POPC   PO432340  44.854  33.310   9.580
 2385POPC   GL132341  44.859  33.226   9.149
 2385POPC   GL232342  44.806  33.583   9.103
 2385POPC   C1A32343  44.716  32.937   8.792
 2385POPC   D2A32344  44.447  32.765   8.433
 2385POPC   C3A32345  44.556  32.915   7.998
 2385POPC   C4A32346  44.997  32.968   7.783
 2385POPC   C1B32347  44.773  33.447   8.704
 2385POPC   C2B32348  44.759  33.225   8.340
 2385POPC   C3B32349  44.730  33.406   7.934
 2385POPC   C4B32350  44.797  33.706   7.613
 2386POPC   NC332351  22.080  38.469   9.653
 2386POPC   PO432352  22.676  38.305   9.328
 2386POPC   GL132353  22.230  38.298   9.199
 2386POPC   GL232354  22.000  38.602   9.159
 2386POPC   C1A32355  22.078  38.211   8.790
 2386POPC   D2A32356  22.032  38.383   8.363
 2386POPC   C3A32357  22.110  38.099   8.021
 2386POPC   C4A32358  21.913  37.952   7.643
 2386POPC   C1B32359  22.344  38.649   8.853
 2386POPC   C2B32360  22.350  38.848   8.461
 2386POPC   C3B32361  22.183  38.804   8.081
 2386POPC   C4B32362  22.193  38.539   7.749
 2387POPC   NC332363  39.855  36.728   9.564
 2387POPC   PO432364  40.186  37.220   9.769
 2387POPC   GL132365  40.132  37.100   9.301
 2387POPC   GL232366  40.264  36.764   9.237
 2387POPC   C1A32367  39.969  37.011   8.845
 2387POPC   D2A32368  40.109  36.909   8.396
 2387POPC   C3A32369  40.081  37.168   7.985
 2387POPC   C4A32370  39.926  37.068   7.518
 2387POPC   C1B32371  40.183  36.528   8.855
 2387POPC   C2B32372  40.174  36.398   8.423
 2387POPC   C3B32373  40.265  36.588   8.012
 2387POPC   C4B32374  40.523  36.462   7.685
 2388POPC   NC332375  38.358  38.764   9.443
 2388POPC   PO432376  38.608  39.431   9.585
 2388POPC   GL132377  38.538  39.193   9.206
 2388POPC   GL232378  38.777  38.894   9.220
 2388POPC   C1A32379  38.308  39.169   8.800
 2388POPC   D2A32380  38.124  39.266   8.381
 2388POPC   C3A32381  38.337  39.387   7.979
 2388POPC   C4A32382  38.324  39.372   7.486
 2388POPC   C1B32383  38.576  38.759   8.826
 2388POPC   C2B32384  38.577  38.957   8.405
 2388POPC   C3B32385  38.519  38.887   7.960
 2388POPC   C4B32386  38.513  38.913   7.493
 2389POPC   NC332387   4.437   8.397   9.637
 2389POPC   PO432388   4.180   7.804   9.710
 2389POPC   GL132389   4.358   7.970   9.321
 2389POPC   GL232390   4.052   8.105   9.188
 2389POPC   C1A32391   4.510   8.116   8.901
 2389POPC   D2A32392   4.285   8.111   8.482
 2389POPC   C3A32393   4.494   8.221   8.096
 2389POPC   C4A32394   4.529   8.056   7.656
 2389POPC   C1B32395   3.849   7.962   8.789
 2389POPC   C2B32396   3.831   7.838   8.356
 2389POPC   C3B32397   3.966   8.098   8.010
 2389POPC   C4B32398   4.037   8.080   7.596
 2390POPC   NC332399  13.572   5.979   9.685
 2390POPC   PO432400  14.122   6.076   9.297
 2390POPC   GL132401  13.838   5.873   9.024
 2390POPC   GL232402  13.551   5.984   9.185
 2390POPC   C1A32403  13.765   5.880   8.560
 2390POPC   D2A32404  13.652   6.158   8.215
 2390POPC   C3A32405  13.752   5.914   7.871
 2390POPC   C4A32406  13.782   5.474   7.923
 2390POPC   C1B32407  13.361   6.014   8.808
 2390POPC   C2B32408  13.253   5.912   8.421
 2390POPC   C3B32409  13.297   5.746   8.032
 2390POPC   C4B32410  13.321   5.864   7.598
 2391POPC   NC332411  41.588   5.422   9.447
 2391POPC   PO432412  41.485   6.082   9.611
 2391POPC   GL132413  41.557   5.953   9.218
 2391POPC   GL232414  41.371   5.713   9.076
 2391POPC   C1A32415  41.638   6.119   8.818
 2391POPC   D2A32416  41.883   6.058   8.492
 2391POPC   C3A32417  41.639   5.869   8.209
 2391POPC   C4A32418  41.547   5.981   7.828
 2391POPC   C1B32419  41.153   5.965   8.754
 2391POPC   C2B32420  41.158   6.102   8.323
 2391POPC   C3B32421  41.147   5.762   8.027
 2391POPC   C4B32422  41.418   5.491   7.765
 2392POPC   NC332423   3.498  34.102   9.641
 2392POPC   PO432424   3.496  34.665   9.570
 2392POPC   GL132425   3.616  34.522   9.180
 2392POPC   GL232426   3.310  34.387   9.158
 2392POPC   C1A32427   3.497  34.644   8.750
 2392POPC   D2A32428   3.685  34.629   8.345
 2392POPC   C3A32429   3.572  34.781   7.930
 2392POPC   C4A32430   3.776  34.584   7.545
 2392POPC   C1B32431   3.189  34.219   8.815
 2392POPC   C2B32432   3.140  34.421   8.440
 2392POPC   C3B32433   3.321  34.353   8.093
 2392POPC   C4B32434   3.357  34.343   7.706
 2393POPC   NC332435  25.550  26.680   9.541
 2393POPC   PO432436  26.285  26.731   9.593
 2393POPC   GL132437  26.075  26.781   9.229
 2393POPC   GL232438  26.090  27.102   9.148
 2393POPC   C1A32439  26.224  26.647   8.806
 2393POPC   D2A32440  26.125  26.411   8.401
 2393POPC   C3A32441  26.111  26.535   7.965
 2393POPC   C4A32442  26.269  26.684   7.553
 2393POPC   C1B32443  26.027  27.146   8.717
 2393POPC   C2B32444  26.218  26.939   8.357
 2393POPC   C3B32445  26.102  27.036   7.913
 2393POPC   C4B32446  25.850  27.330   7.741
 2394POPC   NC332447   1.081   0.429   9.621
 2394POPC   PO432448   1.704   0.621   9.536
 2394POPC   GL132449   1.395   0.383   9.210
 2394POPC   GL232450   0.996   0.292   9.140
 2394POPC   C1A32451   1.481   0.338   8.766
 2394POPC   D2A32452   1.712   0.564   8.421
 2394POPC   C3A32453   1.463   0.510   8.032
 2394POPC   C4A32454   1.303   0.183   7.764
 2394POPC   C1B32455   1.023   0.606   8.793
 2394POPC   C2B32456   1.032   0.632   8.318
 2394POPC   C3B32457   0.918   0.524   7.867
 2394POPC   C4B32458   0.912   0.773   7.454
 2395POPC   NC332459  39.403  37.504   9.389
 2395POPC   PO432460  38.766  37.258   9.326
 2395POPC   GL132461  39.006  37.535   9.025
 2395POPC   GL232462  39.324  37.809   8.983
 2395POPC   C1A32463  39.273  37.432   8.683
 2395POPC   D2A32464  39.357  37.612   8.322
 2395POPC   C3A32465  39.201  37.312   8.052
 2395POPC   C4A32466  38.839  37.235   7.813
 2395POPC   C1B32467  38.990  37.890   8.651
 2395POPC   C2B32468  39.084  38.131   8.276
 2395POPC   C3B32469  39.312  37.960   7.947
 2395POPC   C4B32470  39.564  37.616   7.845
 2396POPC   NC332471  10.742   7.144   9.352
 2396POPC   PO432472  10.316   6.738   9.737
 2396POPC   GL132473  10.405   6.734   9.293
 2396POPC   GL232474  10.237   7.051   9.198
 2396POPC   C1A32475  10.592   6.559   8.892
 2396POPC   D2A32476  10.752   6.557   8.445
 2396POPC   C3A32477  10.616   6.348   8.106
 2396POPC   C4A32478  10.237   6.437   7.935
 2396POPC   C1B32479  10.419   7.023   8.789
 2396POPC   C2B32480  10.319   6.793   8.443
 2396POPC   C3B32481  10.477   6.869   8.054
 2396POPC   C4B32482  10.271   6.855   7.649
 2397POPC   NC332483   6.290   4.817   9.534
 2397POPC   PO432484   6.850   5.168   9.689
 2397POPC   GL132485   6.521   5.163   9.251
 2397POPC   GL232486   6.555   5.448   9.072
 2397POPC   C1A32487   6.543   5.002   8.773
 2397POPC   D2A32488   6.660   4.797   8.344
 2397POPC   C3A32489   6.470   4.983   7.959
 2397POPC   C4A32490   6.649   5.158   7.554
 2397POPC   C1B32491   6.758   5.496   8.692
 2397POPC   C2B32492   6.659   5.312   8.344
 2397POPC   C3B32493   6.859   5.315   7.991
 2397POPC   C4B32494   6.856   5.607   7.690
 2398POPC   NC332495  12.830  24.293   9.429
 2398POPC   PO432496  13.036  24.936   9.462
 2398POPC   GL132497  12.899  24.724   9.149
 2398POPC   GL232498  12.518  24.695   9.199
 2398POPC   C1A32499  13.028  24.781   8.745
 2398POPC   D2A32500  12.789  24.787   8.371
 2398POPC   C3A32501  12.967  24.720   7.979
 2398POPC   C4A32502  12.937  24.614   7.552
 2398POPC   C1B32503  12.620  24.458   8.808
 2398POPC   C2B32504  12.648  24.294   8.381
 2398POPC   C3B32505  12.519  24.436   7.961
 2398POPC   C4B32506  12.440  24.302   7.516
 2399POPC   NC332507  32.810  16.463   9.427
 2399POPC   PO432508  33.250  16.861   9.560
 2399POPC   GL132509  33.156  16.687   9.158
 2399POPC   GL232510  32.956  16.974   9.052
 2399POPC   C1A32511  32.974  16.489   8.784
 2399POPC   D2A32512  33.071  16.405   8.375
 2399POPC   C3A32513  32.832  16.593   8.053
 2399POPC   C4A32514  32.960  16.644   7.647
 2399POPC   C1B32515  32.769  16.905   8.602
 2399POPC   C2B32516  32.724  17.090   8.201
 2399POPC   C3B32517  32.986  17.095   7.865
 2399POPC   C4B32518  33.447  17.104   7.871
 2400POPC   NC332519  15.648  26.665   9.618
 2400POPC   PO432520  15.117  27.126   9.639
 2400POPC   GL132521  15.112  26.839   9.224
 2400POPC   GL232522  15.415  26.647   9.135
 2400POPC   C1A32523  15.096  26.727   8.743
 2400POPC   D2A32524  14.954  26.559   8.325
 2400POPC   C3A32525  15.012  26.779   7.899
 2400POPC   C4A32526  15.147  27.147   7.651
 2400POPC   C1B32527  15.511  26.414   8.718
 2400POPC   C2B32528  15.476  26.548   8.280
 2400POPC   C3B32529  15.317  26.381   7.871
 2400POPC   C4B32530  15.314  26.569   7.443
 2401POPC   NC332531  30.020  11.641   9.426
 2401POPC   PO432532  29.658  12.143   9.755
 2401POPC   GL132533  29.823  12.223   9.310
 2401POPC   GL232534  30.197  12.152   9.241
 2401POPC   C1A32535  29.675  12.104   8.889
 2401POPC   D2A32536  29.844  11.844   8.549
 2401POPC   C3A32537  29.802  12.014   8.113
 2401POPC   C4A32538  29.870  11.915   7.667
 2401POPC   C1B32539  30.131  12.316   8.815
 2401POPC   C2B32540  30.198  12.184   8.386
 2401POPC   C3B32541  30.302  12.063   7.963
 2401POPC   C4B32542  30.411  12.351   7.673
 2402POPC   NC332543  15.600  31.720   9.582
 2402POPC   PO432544  15.925  32.317   9.817
 2402POPC   GL132545  15.957  32.453   9.336
 2402POPC   GL232546  16.007  32.107   9.175
 2402POPC   C1A32547  15.931  32.539   8.888
 2402POPC   D2A32548  16.063  32.344   8.498
 2402POPC   C3A32549  16.175  32.609   8.156
 2402POPC   C4A32550  15.945  32.523   7.771
 2402POPC   C1B32551  15.778  32.024   8.786
 2402POPC   C2B32552  15.730  31.844   8.363
 2402POPC   C3B32553  15.871  32.061   7.990
 2402POPC   C4B32554  15.812  32.048   7.535
 2403POPC   NC332555  31.922  31.226   9.928
 2403POPC   PO432556  32.315  31.606   9.488
 2403POPC   GL132557  32.226  31.465   9.120
 2403POPC   GL232558  32.061  31.150   9.163
 2403POPC   C1A32559  32.219  31.641   8.733
 2403POPC   D2A32560  32.486  31.479   8.453
 2403POPC   C3A32561  32.386  31.535   8.058
 2403POPC   C4A32562  32.474  31.529   7.681
 2403POPC   C1B32563  32.172  31.131   8.710
 2403POPC   C2B32564  32.099  31.159   8.259
 2403POPC   C3B32565  32.091  31.191   7.792
 2403POPC   C4B32566  32.124  31.133   7.312
 2404POPC   NC332567   1.140   1.821   9.708
 2404POPC   PO432568   1.677   2.095   9.563
 2404POPC   GL132569   1.330   2.076   9.281
 2404POPC   GL232570   1.276   1.724   9.222
 2404POPC   C1A32571   1.300   2.081   8.828
 2404POPC   D2A32572   1.458   2.208   8.419
 2404POPC   C3A32573   1.124   2.244   8.144
 2404POPC   C4A32574   1.258   2.121   7.780
 2404POPC   C1B32575   1.437   1.567   8.827
 2404POPC   C2B32576   1.398   1.651   8.393
 2404POPC   C3B32577   1.404   1.395   8.021
 2404POPC   C4B32578   1.309   1.575   7.616
 2405POPC   NC332579  40.437  24.550   9.542
 2405POPC   PO432580  39.818  24.280   9.508
 2405POPC   GL132581  39.959  24.368   9.123
 2405POPC   GL232582  39.923  24.683   9.153
 2405POPC   C1A32583  40.291  24.544   8.830
 2405POPC   D2A32584  40.464  24.733   8.451
 2405POPC   C3A32585  40.333  24.496   8.101
 2405POPC   C4A32586  40.231  24.578   7.684
 2405POPC   C1B32587  39.791  24.745   8.771
 2405POPC   C2B32588  39.901  24.511   8.419
 2405POPC   C3B32589  39.823  24.623   8.028
 2405POPC   C4B32590  39.619  24.963   7.859
 2406POPC   NC332591  19.067  10.029   9.626
 2406POPC   PO432592  19.272  10.624   9.506
 2406POPC   GL132593  18.997  10.624   9.189
 2406POPC   GL232594  19.092  10.313   9.066
 2406POPC   C1A32595  18.987  10.741   8.767
 2406POPC   D2A32596  18.887  10.548   8.408
 2406POPC   C3A32597  18.866  10.772   8.036
 2406POPC   C4A32598  18.876  10.506   7.698
 2406POPC   C1B32599  19.360  10.423   8.704
 2406POPC   C2B32600  19.370  10.365   8.241
 2406POPC   C3B32601  19.256  10.166   7.852
 2406POPC   C4B32602  19.066  10.096   7.441
 2407POPC   NC332603   7.490  22.978   9.658
 2407POPC   PO432604   7.806  22.383   9.439
 2407POPC   GL132605   7.494  22.632   9.206
 2407POPC   GL232606   7.347  22.986   9.172
 2407POPC   C1A32607   7.470  22.659   8.764
 2407POPC   D2A32608   7.660  22.688   8.345
 2407POPC   C3A32609   7.442  22.713   7.938
 2407POPC   C4A32610   7.474  23.017   7.577
 2407POPC   C1B32611   7.200  23.082   8.755
 2407POPC   C2B32612   7.168  22.921   8.349
 2407POPC   C3B32613   7.212  23.162   7.976
 2407POPC   C4B32614   6.994  23.226   7.569
 2408POPC   NC332615   5.405  29.602   9.812
 2408POPC   PO432616   5.249  30.289   9.713
 2408POPC   GL132617   5.046  30.152   9.309
 2408POPC   GL232618   5.328  30.026   9.149
 2408POPC   C1A32619   4.814  29.900   8.954
 2408POPC   D2A32620   4.677  29.774   8.511
 2408POPC   C3A32621   4.886  29.826   8.079
 2408POPC   C4A32622   4.993  29.775   7.608
 2408POPC   C1B32623   5.157  30.249   8.788
 2408POPC   C2B32624   5.025  30.296   8.346
 2408POPC   C3B32625   4.984  30.295   7.870
 2408POPC   C4B32626   5.045  30.421   7.388
 2409POPC   NC332627  33.434  10.377   9.170
 2409POPC   PO432628  33.997  10.155   9.533
 2409POPC   GL132629  33.922  10.198   9.087
 2409POPC   GL232630  33.964  10.580   9.108
 2409POPC   C1A32631  33.782  10.116   8.639
 2409POPC   D2A32632  33.561  10.409   8.329
 2409POPC   C3A32633  33.619  10.450   7.884
 2409POPC   C4A32634  34.021  10.432   7.678
 2409POPC   C1B32635  33.730  10.738   8.724
 2409POPC   C2B32636  33.306  10.803   8.510
 2409POPC   C3B32637  33.397  10.896   8.063
 2409POPC   C4B32638  33.806  10.971   7.848
 2410POPC   NC332639  15.789  28.213   9.704
 2410POPC   PO432640  16.297  28.639   9.627
 2410POPC   GL132641  16.067  28.554   9.249
 2410POPC   GL232642  16.092  28.187   9.189
 2410POPC   C1A32643  16.179  28.518   8.795
 2410POPC   D2A32644  15.828  28.451   8.490
 2410POPC   C3A32645  15.845  28.476   8.039
 2410POPC   C4A32646  16.084  28.779   7.813
 2410POPC   C1B32647  16.038  28.014   8.741
 2410POPC   C2B32648  16.050  28.060   8.264
 2410POPC   C3B32649  15.719  27.972   7.975
 2410POPC   C4B32650  15.558  27.932   7.547
 2411POPC   NC332651  32.101   9.797   9.781
 2411POPC   PO432652  31.763  10.330   9.554
 2411POPC   GL132653  32.101  10.044   9.201
 2411POPC   GL232654  32.226   9.703   9.237
 2411POPC   C1A32655  32.004   9.823   8.784
 2411POPC   D2A32656  32.017   9.628   8.354
 2411POPC   C3A32657  32.271   9.795   8.024
 2411POPC   C4A32658  32.084   9.959   7.649
 2411POPC   C1B32659  32.503   9.645   8.850
 2411POPC   C2B32660  32.484   9.432   8.455
 2411POPC   C3B32661  32.354   9.286   8.088
 2411POPC   C4B32662  32.194   9.409   7.690
 2412POPC   NC332663   5.940  40.557   9.390
 2412POPC   PO432664   5.435  40.915   9.252
 2412POPC   GL132665   5.811  40.876   9.009
 2412POPC   GL232666   6.159  40.666   8.957
 2412POPC   C1A32667   5.798  40.717   8.592
 2412POPC   D2A32668   5.562  40.548   8.260
 2412POPC   C3A32669   5.736  40.771   7.935
 2412POPC   C4A32670   5.776  40.964   7.538
 2412POPC   C1B32671   6.175  41.056   8.724
 2412POPC   C2B32672   6.059  41.071   8.318
 2412POPC   C3B32673   6.237  40.916   7.978
 2412POPC   C4B32674   6.235  41.168   7.629
 2413POPC   NC332675   0.149  39.247   9.878
 2413POPC   PO432676  44.586  39.207   9.524
 2413POPC   GL132677  44.678  39.142   9.113
 2413POPC   GL232678  44.567  39.458   9.061
 2413POPC   C1A32679  44.386  38.997   8.792
 2413POPC   D2A32680  44.227  39.098   8.392
 2413POPC   C3A32681  44.570  39.185   8.162
 2413POPC   C4A32682  44.946  39.166   7.909
 2413POPC   C1B32683  44.673  39.432   8.645
 2413POPC   C2B32684  44.891  39.563   8.273
 2413POPC   C3B32685  44.689  39.604   7.873
 2413POPC   C4B32686  44.609  39.493   7.449
 2414POPC   NC332687  14.980  23.612   9.895
 2414POPC   PO432688  14.419  23.576   9.582
 2414POPC   GL132689  14.330  23.661   9.153
 2414POPC   GL232690  14.162  23.945   9.170
 2414POPC   C1A32691  14.230  23.495   8.729
 2414POPC   D2A32692  14.064  23.425   8.300
 2414POPC   C3A32693  14.237  23.595   7.897
 2414POPC   C4A32694  14.506  23.460   7.510
 2414POPC   C1B32695  14.381  23.983   8.753
 2414POPC   C2B32696  14.516  23.797   8.375
 2414POPC   C3B32697  14.586  23.961   7.976
 2414POPC   C4B32698  14.589  24.208   7.627
 2415POPC   NC332699  28.045   7.978   9.641
 2415POPC   PO432700  28.545   8.292   9.394
 2415POPC   GL132701  28.395   8.173   9.076
 2415POPC   GL232702  28.312   7.881   9.166
 2415POPC   C1A32703  28.467   8.266   8.690
 2415POPC   D2A32704  28.173   8.371   8.408
 2415POPC   C3A32705  28.355   8.317   8.049
 2415POPC   C4A32706  28.148   8.459   7.682
 2415POPC   C1B32707  28.422   7.729   8.784
 2415POPC   C2B32708  28.363   7.875   8.395
 2415POPC   C3B32709  28.137   7.846   8.092
 2415POPC   C4B32710  28.265   7.941   7.708
 2416POPC   NC332711  44.829  41.525   9.513
 2416POPC   PO432712  44.235  41.246   9.528
 2416POPC   GL132713  44.463  41.395   9.146
 2416POPC   GL232714  44.554  41.742   9.151
 2416POPC   C1A32715  44.532  41.523   8.709
 2416POPC   D2A32716  44.722  41.388   8.341
 2416POPC   C3A32717  44.606  41.681   8.046
 2416POPC   C4A32718  44.305  41.719   7.736
 2416POPC   C1B32719  44.879  41.904   8.861
 2416POPC   C2B32720  44.925  41.888   8.402
 2416POPC   C3B32721  44.947  42.045   7.946
 2416POPC   C4B32722  44.809  41.804   7.568
 2417POPC   NC332723  20.239   5.456  10.133
 2417POPC   PO432724  20.666   5.104   9.681
 2417POPC   GL132725  20.690   5.106   9.201
 2417POPC   GL232726  20.997   5.320   9.106
 2417POPC   C1A32727  20.443   4.929   8.813
 2417POPC   D2A32728  20.562   4.874   8.368
 2417POPC   C3A32729  20.357   5.035   8.025
 2417POPC   C4A32730  20.325   5.019   7.617
 2417POPC   C1B32731  20.717   5.372   8.731
 2417POPC   C2B32732  20.608   5.400   8.290
 2417POPC   C3B32733  20.792   5.322   7.894
 2417POPC   C4B32734  20.804   5.516   7.446
 2418POPC   NC332735  43.398  44.885   9.576
 2418POPC   PO432736  42.841  44.524   9.457
 2418POPC   GL132737  43.162  44.705   9.150
 2418POPC   GL232738  43.341   0.033   9.042
 2418POPC   C1A32739  43.235  44.612   8.716
 2418POPC   D2A32740  43.073  44.341   8.374
 2418POPC   C3A32741  42.788  44.495   8.077
 2418POPC   C4A32742  42.998  44.563   7.703
 2418POPC   C1B32743  42.945   0.035   8.787
 2418POPC   C2B32744  42.956  44.885   8.370
 2418POPC   C3B32745  43.264  44.750   8.101
 2418POPC   C4B32746  43.363  44.934   7.723
 2419POPC   NC332747  12.803  41.118   9.421
 2419POPC   PO432748  12.925  40.467   9.507
 2419POPC   GL132749  13.048  40.697   9.179
 2419POPC   GL232750  13.287  40.952   9.292
 2419POPC   C1A32751  12.823  40.705   8.792
 2419POPC   D2A32752  12.732  40.484   8.405
 2419POPC   C3A32753  12.672  40.804   8.084
 2419POPC   C4A32754  12.616  40.718   7.635
 2419POPC   C1B32755  13.265  41.009   8.835
 2419POPC   C2B32756  13.004  41.066   8.465
 2419POPC   C3B32757  13.164  40.964   8.075
 2419POPC   C4B32758  13.018  41.059   7.675
 2420POPC   NC332759  28.641  42.020   9.346
 2420POPC   PO432760  28.315  42.572   9.666
 2420POPC   GL132761  28.381  42.475   9.267
 2420POPC   GL232762  28.051  42.372   9.184
 2420POPC   C1A32763  28.461  42.427   8.850
 2420POPC   D2A32764  28.328  42.454   8.459
 2420POPC   C3A32765  28.642  42.405   8.208
 2420POPC   C4A32766  28.588  42.573   7.814
 2420POPC   C1B32767  27.954  42.236   8.743
 2420POPC   C2B32768  28.142  41.986   8.386
 2420POPC   C3B32769  28.233  42.158   7.974
 2420POPC   C4B32770  28.287  42.268   7.537
 2421POPC   NC332771   2.090  29.862   9.476
 2421POPC   PO432772   1.550  29.464   9.340
 2421POPC   GL132773   1.941  29.582   9.084
 2421POPC   GL232774   2.049  29.967   8.985
 2421POPC   C1A32775   2.110  29.532   8.694
 2421POPC   D2A32776   1.995  29.793   8.365
 2421POPC   C3A32777   2.120  29.567   8.008
 2421POPC   C4A32778   2.002  29.499   7.614
 2421POPC   C1B32779   1.839  30.357   8.837
 2421POPC   C2B32780   1.796  30.498   8.424
 2421POPC   C3B32781   1.664  30.282   8.057
 2421POPC   C4B32782   1.919  30.003   7.902
 2422POPC   NC332783  27.092  15.816   9.657
 2422POPC   PO432784  27.825  16.021   9.536
 2422POPC   GL132785  27.637  15.941   9.132
 2422POPC   GL232786  27.256  15.980   9.159
 2422POPC   C1A32787  27.662  15.845   8.670
 2422POPC   D2A32788  27.489  15.594   8.302
 2422POPC   C3A32789  27.571  15.747   7.879
 2422POPC   C4A32790  27.877  16.049   7.793
 2422POPC   C1B32791  27.362  16.245   8.816
 2422POPC   C2B32792  27.514  16.325   8.406
 2422POPC   C3B32793  27.410  16.268   7.974
 2422POPC   C4B32794  27.399  16.130   7.545
 2423POPC   NC332795   8.350  32.403   9.559
 2423POPC   PO432796   7.943  31.896   9.516
 2423POPC   GL132797   7.910  32.284   9.257
 2423POPC   GL232798   8.272  32.306   9.076
 2423POPC   C1A32799   7.863  32.431   8.835
 2423POPC   D2A32800   8.172  32.333   8.532
 2423POPC   C3A32801   7.947  32.331   8.158
 2423POPC   C4A32802   7.931  32.142   7.763
 2423POPC   C1B32803   8.608  32.497   8.823
 2423POPC   C2B32804   8.547  32.703   8.419
 2423POPC   C3B32805   8.408  32.515   8.059
 2423POPC   C4B32806   8.327  32.453   7.628
 2424POPC   NC332807  38.199   4.843   9.812
 2424POPC   PO432808  38.590   5.280   9.501
 2424POPC   GL132809  38.347   5.225   9.159
 2424POPC   GL232810  38.208   4.907   9.159
 2424POPC   C1A32811  38.449   5.128   8.736
 2424POPC   D2A32812  38.326   5.305   8.357
 2424POPC   C3A32813  38.606   5.334   8.010
 2424POPC   C4A32814  38.459   5.323   7.642
 2424POPC   C1B32815  38.191   4.695   8.738
 2424POPC   C2B32816  38.389   4.716   8.353
 2424POPC   C3B32817  38.284   4.962   7.988
 2424POPC   C4B32818  38.160   4.926   7.593
 2425POPC   NC332819  16.574  12.483   9.551
 2425POPC   PO432820  17.090  12.954   9.572
 2425POPC   GL132821  16.719  12.935   9.241
 2425POPC   GL232822  16.635  12.620   9.083
 2425POPC   C1A32823  16.570  13.025   8.804
 2425POPC   D2A32824  16.674  12.797   8.441
 2425POPC   C3A32825  16.641  13.006   8.128
 2425POPC   C4A32826  16.526  12.929   7.744
 2425POPC   C1B32827  16.680  12.377   8.732
 2425POPC   C2B32828  16.818  12.319   8.339
 2425POPC   C3B32829  16.867  12.562   7.950
 2425POPC   C4B32830  16.825  12.612   7.493
 2426POPC   NC332831  44.189   4.744   9.392
 2426POPC   PO432832  44.088   5.402   9.260
 2426POPC   GL132833  43.773   5.226   9.041
 2426POPC   GL232834  43.769   4.900   9.129
 2426POPC   C1A32835  43.676   5.161   8.627
 2426POPC   D2A32836  43.966   5.188   8.282
 2426POPC   C3A32837  43.866   5.295   7.851
 2426POPC   C4A32838  43.555   5.230   7.512
 2426POPC   C1B32839  44.105   4.871   8.765
 2426POPC   C2B32840  44.194   4.725   8.333
 2426POPC   C3B32841  44.144   4.861   7.924
 2426POPC   C4B32842  43.940   4.891   7.548
 2427POPC   NC332843   2.611  29.182   9.542
 2427POPC   PO432844   3.243  29.038   9.362
 2427POPC   GL132845   2.897  29.103   9.017
 2427POPC   GL232846   2.518  29.188   9.057
 2427POPC   C1A32847   2.760  28.875   8.615
 2427POPC   D2A32848   2.659  28.836   8.150
 2427POPC   C3A32849   2.843  29.010   7.785
 2427POPC   C4A32850   2.930  29.082   7.328
 2427POPC   C1B32851   2.620  29.376   8.676
 2427POPC   C2B32852   2.800  29.306   8.286
 2427POPC   C3B32853   2.708  29.479   7.906
 2427POPC   C4B32854   2.490  29.624   7.611
 2428POPC   NC332855   1.507  19.762   9.663
 2428POPC   PO432856   2.145  19.699   9.434
 2428POPC   GL132857   1.830  19.850   9.167
 2428POPC   GL232858   1.766  19.552   9.002
 2428POPC   C1A32859   1.882  20.007   8.753
 2428POPC   D2A32860   1.826  19.745   8.380
 2428POPC   C3A32861   1.888  19.903   7.957
 2428POPC   C4A32862   2.094  19.807   7.531
 2428POPC   C1B32863   2.182  19.610   8.742
 2428POPC   C2B32864   2.289  19.514   8.300
 2428POPC   C3B32865   2.253  19.448   7.848
 2428POPC   C4B32866   2.245  19.339   7.348
 2429POPC   NC332867  10.593  26.379   9.426
 2429POPC   PO432868  10.301  26.939   9.608
 2429POPC   GL132869  10.576  26.856   9.224
 2429POPC   GL232870  10.807  27.062   9.023
 2429POPC   C1A32871  10.463  26.673   8.795
 2429POPC   D2A32872  10.615  26.820   8.381
 2429POPC   C3A32873  10.422  26.652   8.016
 2429POPC   C4A32874  10.139  26.802   7.748
 2429POPC   C1B32875  10.963  26.691   8.766
 2429POPC   C2B32876  10.983  26.468   8.359
 2429POPC   C3B32877  10.927  26.719   7.949
 2429POPC   C4B32878  10.854  26.664   7.489
 2430POPC   NC332879  23.165   7.036   9.762
 2430POPC   PO432880  22.684   7.466   9.655
 2430POPC   GL132881  22.922   7.465   9.225
 2430POPC   GL232882  22.632   7.492   9.072
 2430POPC   C1A32883  23.004   7.449   8.729
 2430POPC   D2A32884  22.809   7.405   8.295
 2430POPC   C3A32885  23.091   7.436   7.906
 2430POPC   C4A32886  23.046   7.444   7.440
 2430POPC   C1B32887  22.603   7.779   8.705
 2430POPC   C2B32888  22.912   7.896   8.394
 2430POPC   C3B32889  22.787   7.827   7.974
 2430POPC   C4B32890  22.669   7.736   7.601
 2431POPC   NC332891  29.400  44.889   9.479
 2431POPC   PO432892  28.889  44.506   9.153
 2431POPC   GL132893  29.226  44.709   9.048
 2431POPC   GL232894  29.464  44.423   9.154
 2431POPC   C1A32895  29.235  44.875   8.655
 2431POPC   D2A32896  29.364  44.703   8.251
 2431POPC   C3A32897  29.174  44.938   7.937
 2431POPC   C4A32898  29.127  44.971   7.520
 2431POPC   C1B32899  29.338  44.339   8.710
 2431POPC   C2B32900  28.990  44.311   8.407
 2431POPC   C3B32901  29.040  44.431   7.965
 2431POPC   C4B32902  29.414  44.542   7.687
 2432POPC   NC332903  42.281  31.285   9.590
 2432POPC   PO432904  42.434  30.580   9.592
 2432POPC   GL132905  42.367  30.637   9.184
 2432POPC   GL232906  42.264  30.963   9.184
 2432POPC   C1A32907  42.485  30.590   8.758
 2432POPC   D2A32908  42.685  30.554   8.366
 2432POPC   C3A32909  42.447  30.347   8.079
 2432POPC   C4A32910  42.388  30.461   7.658
 2432POPC   C1B32911  42.589  31.050   8.943
 2432POPC   C2B32912  42.498  31.045   8.502
 2432POPC   C3B32913  42.382  30.877   8.094
 2432POPC   C4B32914  42.651  31.028   7.795
 2433POPC   NC332915  30.067  18.484   9.575
 2433POPC   PO432916  29.532  18.076   9.440
 2433POPC   GL132917  29.800  18.285   9.173
 2433POPC   GL232918  30.141  18.275   9.142
 2433POPC   C1A32919  29.860  18.623   8.906
 2433POPC   D2A32920  29.810  18.687   8.483
 2433POPC   C3A32921  29.739  18.377   8.168
 2433POPC   C4A32922  29.894  18.576   7.805
 2433POPC   C1B32923  30.305  18.383   8.765
 2433POPC   C2B32924  30.204  18.239   8.372
 2433POPC   C3B32925  30.369  18.337   7.953
 2433POPC   C4B32926  30.295  18.458   7.531
 2434POPC   NC332927   2.149  14.111   9.295
 2434POPC   PO432928   1.712  13.683   9.625
 2434POPC   GL132929   1.946  13.551   9.171
 2434POPC   GL232930   2.225  13.728   8.984
 2434POPC   C1A32931   1.828  13.582   8.715
 2434POPC   D2A32932   1.963  13.916   8.462
 2434POPC   C3A32933   1.866  13.772   8.090
 2434POPC   C4A32934   1.772  13.475   7.796
 2434POPC   C1B32935   2.270  13.284   8.836
 2434POPC   C2B32936   2.328  13.139   8.416
 2434POPC   C3B32937   2.181  13.334   8.086
 2434POPC   C4B32938   2.255  13.640   7.802
 2435POPC   NC332939  26.684  27.858   9.458
 2435POPC   PO432940  26.788  28.427   9.634
 2435POPC   GL132941  26.915  28.544   9.198
 2435POPC   GL232942  26.955  28.197   9.117
 2435POPC   C1A32943  26.962  28.503   8.717
 2435POPC   D2A32944  27.018  28.181   8.360
 2435POPC   C3A32945  26.891  28.338   7.909
 2435POPC   C4A32946  27.030  28.310   7.453
 2435POPC   C1B32947  26.684  28.059   8.759
 2435POPC   C2B32948  26.586  27.899   8.333
 2435POPC   C3B32949  26.521  27.978   7.883
 2435POPC   C4B32950  26.685  27.913   7.460
 2436POPC   NC332951  15.547  32.530   9.622
 2436POPC   PO432952  16.095  32.944   9.579
 2436POPC   GL132953  15.786  32.972   9.240
 2436POPC   GL232954  16.098  33.089   9.085
 2436POPC   C1A32955  15.665  32.995   8.793
 2436POPC   D2A32956  15.780  32.795   8.408
 2436POPC   C3A32957  15.688  32.933   7.969
 2436POPC   C4A32958  15.360  33.213   7.786
 2436POPC   C1B32959  16.212  32.945   8.700
 2436POPC   C2B32960  16.174  33.152   8.313
 2436POPC   C3B32961  16.157  33.083   7.897
 2436POPC   C4B32962  16.378  32.791   7.726
 2437POPC   NC332963   6.416  11.625   9.301
 2437POPC   PO432964   6.757  11.001   9.430
 2437POPC   GL132965   6.548  11.045   9.067
 2437POPC   GL232966   6.189  11.060   9.202
 2437POPC   C1A32967   6.730  11.346   8.727
 2437POPC   D2A32968   6.857  11.690   8.422
 2437POPC   C3A32969   6.936  11.573   7.989
 2437POPC   C4A32970   6.913  11.179   7.768
 2437POPC   C1B32971   6.201  11.257   8.772
 2437POPC   C2B32972   6.362  11.444   8.374
 2437POPC   C3B32973   6.431  11.446   7.908
 2437POPC   C4B32974   6.326  11.580   7.476
 2438POPC   NC332975  40.489  42.113   9.508
 2438POPC   PO432976  41.019  42.449   9.422
 2438POPC   GL132977  40.805  42.250   9.102
 2438POPC   GL232978  40.552  42.506   9.179
 2438POPC   C1A32979  40.983  42.051   8.722
 2438POPC   D2A32980  40.970  41.930   8.288
 2438POPC   C3A32981  40.802  42.273   8.058
 2438POPC   C4A32982  40.829  42.311   7.639
 2438POPC   C1B32983  40.742  42.663   8.765
 2438POPC   C2B32984  40.579  42.680   8.318
 2438POPC   C3B32985  40.410  42.631   7.871
 2438POPC   C4B32986  40.548  42.631   7.382
 2439POPC   NC332987   7.105  29.637   9.140
 2439POPC   PO432988   7.542  29.677   9.590
 2439POPC   GL132989   7.661  29.897   9.231
 2439POPC   GL232990   7.457  30.193   9.194
 2439POPC   C1A32991   7.706  29.995   8.801
 2439POPC   D2A32992   7.469  29.938   8.431
 2439POPC   C3A32993   7.746  29.936   8.119
 2439POPC   C4A32994   7.847  29.877   7.729
 2439POPC   C1B32995   7.308  30.313   8.788
 2439POPC   C2B32996   7.109  30.466   8.419
 2439POPC   C3B32997   7.215  30.403   8.001
 2439POPC   C4B32998   7.375  30.056   7.778
 2440POPC   NC332999  42.459  18.483   9.483
 2440POPC   PO433000  42.078  19.106   9.623
 2440POPC   GL133001  42.214  18.957   9.165
 2440POPC   GL233002  42.344  19.263   9.009
 2440POPC   C1A33003  42.074  18.964   8.711
 2440POPC   D2A33004  42.222  19.253   8.404
 2440POPC   C3A33005  42.156  19.074   7.998
 2440POPC   C4A33006  42.132  19.120   7.544
 2440POPC   C1B33007  42.604  18.996   8.766
 2440POPC   C2B33008  42.892  19.035   8.489
 2440POPC   C3B33009  42.655  18.987   8.152
 2440POPC   C4B33010  42.568  18.899   7.724
 2441POPC   NC333011   2.479  10.862   9.437
 2441POPC   PO433012   2.995  10.437   9.803
 2441POPC   GL133013   2.890  10.539   9.332
 2441POPC   GL233014   3.133  10.540   9.080
 2441POPC   C1A33015   2.641  10.460   8.932
 2441POPC   D2A33016   2.354  10.275   8.623
 2441POPC   C3A33017   2.451  10.288   8.179
 2441POPC   C4A33018   2.591  10.276   7.774
 2441POPC   C1B33019   3.031  10.718   8.676
 2441POPC   C2B33020   3.180  10.643   8.254
 2441POPC   C3B33021   3.071  10.483   7.848
 2441POPC   C4B33022   2.883  10.538   7.422
 2442POPC   NC333023  17.368  30.331   9.536
 2442POPC   PO433024  17.943  30.758   9.634
 2442POPC   GL133025  17.778  30.694   9.213
 2442POPC   GL233026  17.445  30.753   9.191
 2442POPC   C1A33027  17.813  30.865   8.777
 2442POPC   D2A33028  17.616  30.897   8.360
 2442POPC   C3A33029  17.792  30.894   7.969
 2442POPC   C4A33030  17.919  30.471   7.873
 2442POPC   C1B33031  17.443  30.496   8.830
 2442POPC   C2B33032  17.294  30.508   8.418
 2442POPC   C3B33033  17.383  30.582   7.972
 2442POPC   C4B33034  17.145  30.707   7.578
 2443POPC   NC333035   2.753  43.828   9.668
 2443POPC   PO433036   2.559  44.427   9.663
 2443POPC   GL133037   2.729  44.160   9.261
 2443POPC   GL233038   2.816  43.785   9.179
 2443POPC   C1A33039   2.917  44.118   8.818
 2443POPC   D2A33040   2.967  44.336   8.425
 2443POPC   C3A33041   2.873  44.097   8.057
 2443POPC   C4A33042   2.712  44.009   7.666
 2443POPC   C1B33043   2.558  43.659   8.818
 2443POPC   C2B33044   2.676  43.729   8.386
 2443POPC   C3B33045   2.648  43.612   7.964
 2443POPC   C4B33046   2.676  43.516   7.484
 2444POPC   NC333047   3.680   6.812   9.459
 2444POPC   PO433048   3.166   6.349   9.558
 2444POPC   GL133049   3.375   6.492   9.182
 2444POPC   GL233050   3.689   6.342   9.194
 2444POPC   C1A33051   3.564   6.673   8.793
 2444POPC   D2A33052   3.356   6.580   8.396
 2444POPC   C3A33053   3.465   6.685   7.959
 2444POPC   C4A33054   3.361   6.430   7.594
 2444POPC   C1B33055   3.970   6.313   8.834
 2444POPC   C2B33056   3.819   6.377   8.441
 2444POPC   C3B33057   3.759   6.295   8.034
 2444POPC   C4B33058   3.876   6.365   7.619
 2445POPC   NC333059  12.101  31.844   9.565
 2445POPC   PO433060  11.827  31.114   9.530
 2445POPC   GL133061  11.694  31.416   9.187
 2445POPC   GL233062  12.042  31.436   9.154
 2445POPC   C1A33063  11.800  31.788   8.900
 2445POPC   D2A33064  12.109  31.836   8.537
 2445POPC   C3A33065  11.996  31.758   8.085
 2445POPC   C4A33066  11.868  31.497   7.732
 2445POPC   C1B33067  11.902  31.325   8.712
 2445POPC   C2B33068  12.175  31.342   8.361
 2445POPC   C3B33069  12.384  31.438   7.985
 2445POPC   C4B33070  12.231  31.129   7.754
 2446POPC   NC333071  11.583  13.164   9.552
 2446POPC   PO433072  10.927  13.037   9.336
 2446POPC   GL133073  11.324  12.865   9.208
 2446POPC   GL233074  11.227  12.987   8.919
 2446POPC   C1A33075  11.460  12.543   8.877
 2446POPC   D2A33076  11.433  12.775   8.489
 2446POPC   C3A33077  11.235  12.617   8.136
 2446POPC   C4A33078  11.360  12.573   7.701
 2446POPC   C1B33079  10.953  12.914   8.598
 2446POPC   C2B33080  11.154  13.145   8.259
 2446POPC   C3B33081  11.253  13.065   7.833
 2446POPC   C4B33082  10.959  12.939   7.544
 2447POPC   NC333083  36.138  17.416   9.609
 2447POPC   PO433084  36.455  17.883   9.378
 2447POPC   GL133085  36.288  17.491   9.119
 2447POPC   GL233086  36.430  17.151   8.980
 2447POPC   C1A33087  36.018  17.325   8.767
 2447POPC   D2A33088  36.182  17.161   8.369
 2447POPC   C3A33089  36.226  17.318   7.956
 2447POPC   C4A33090  36.306  17.317   7.500
 2447POPC   C1B33091  36.506  17.476   8.639
 2447POPC   C2B33092  36.573  17.682   8.220
 2447POPC   C3B33093  36.558  17.683   7.761
 2447POPC   C4B33094  36.257  17.805   7.399
 2448POPC   NC333095  26.521  20.220   9.576
 2448POPC   PO433096  26.849  20.857   9.543
 2448POPC   GL133097  26.783  20.556   9.251
 2448POPC   GL233098  27.034  20.294   9.306
 2448POPC   C1A33099  26.561  20.434   8.888
 2448POPC   D2A33100  26.740  20.421   8.477
 2448POPC   C3A33101  26.532  20.504   8.101
 2448POPC   C4A33102  26.426  20.795   7.784
 2448POPC   C1B33103  27.075  20.346   8.861
 2448POPC   C2B33104  27.268  20.410   8.435
 2448POPC   C3B33105  27.270  20.576   7.995
 2448POPC   C4B33106  26.899  20.597   7.740
 2449POPC   NC333107  37.873  13.891   9.423
 2449POPC   PO433108  37.415  13.382   9.445
 2449POPC   GL133109  37.670  13.502   9.117
 2449POPC   GL233110  37.987  13.426   9.230
 2449POPC   C1A33111  37.612  13.730   8.732
 2449POPC   D2A33112  37.431  13.933   8.400
 2449POPC   C3A33113  37.725  13.771   8.106
 2449POPC   C4A33114  37.535  13.639   7.743
 2449POPC   C1B33115  38.045  13.379   8.790
 2449POPC   C2B33116  37.854  13.353   8.427
 2449POPC   C3B33117  37.793  13.258   8.015
 2449POPC   C4B33118  37.977  13.426   7.655
 2450POPC   NC333119  18.217  44.177   9.592
 2450POPC   PO433120  17.836  43.653   9.369
 2450POPC   GL133121  18.016  44.042   9.133
 2450POPC   GL233122  18.393  44.075   9.123
 2450POPC   C1A33123  18.010  44.163   8.700
 2450POPC   D2A33124  17.797  44.049   8.323
 2450POPC   C3A33125  18.060  43.958   7.960
 2450POPC   C4A33126  18.042  43.627   7.641
 2450POPC   C1B33127  18.649  43.920   8.786
 2450POPC   C2B33128  18.832  43.895   8.359
 2450POPC   C3B33129  18.560  43.795   8.007
 2450POPC   C4B33130  18.448  43.941   7.583
 2451POPC   NC333131  27.208  26.206   9.579
 2451POPC   PO433132  26.596  26.145   9.701
 2451POPC   GL133133  26.717  26.068   9.247
 2451POPC   GL233134  27.001  26.296   9.121
 2451POPC   C1A33135  26.669  26.106   8.802
 2451POPC   D2A33136  26.608  26.238   8.397
 2451POPC   C3A33137  26.734  25.960   8.103
 2451POPC   C4A33138  26.884  26.065   7.705
 2451POPC   C1B33139  27.199  26.077   8.756
 2451POPC   C2B33140  27.216  26.009   8.343
 2451POPC   C3B33141  27.102  26.330   8.080
 2451POPC   C4B33142  27.234  26.480   7.699
 2452POPC   NC333143   8.030  28.634   9.350
 2452POPC   PO433144   8.068  29.148   9.832
 2452POPC   GL133145   8.173  29.137   9.352
 2452POPC   GL233146   8.364  29.435   9.258
 2452POPC   C1A33147   8.034  29.136   8.874
 2452POPC   D2A33148   7.861  29.174   8.418
 2452POPC   C3A33149   8.074  29.032   8.028
 2452POPC   C4A33150   8.229  29.170   7.619
 2452POPC   C1B33151   8.498  29.329   8.818
 2452POPC   C2B33152   8.424  29.182   8.381
 2452POPC   C3B33153   8.581  29.308   7.969
 2452POPC   C4B33154   8.735  29.178   7.549
 2453POPC   NC333155  30.795  38.321   9.458
 2453POPC   PO433156  30.179  38.055   9.588
 2453POPC   GL133157  30.399  38.181   9.155
 2453POPC   GL233158  30.401  38.507   9.167
 2453POPC   C1A33159  30.665  38.355   8.791
 2453POPC   D2A33160  30.780  38.500   8.418
 2453POPC   C3A33161  30.693  38.259   8.052
 2453POPC   C4A33162  30.871  38.482   7.744
 2453POPC   C1B33163  30.357  38.833   8.841
 2453POPC   C2B33164  30.309  38.744   8.419
 2453POPC   C3B33165  30.532  38.751   8.043
 2453POPC   C4B33166  30.369  38.642   7.672
 2454POPC   NC333167  16.188  41.312   9.579
 2454POPC   PO433168  15.674  41.663   9.471
 2454POPC   GL133169  15.877  41.544   9.113
 2454POPC   GL233170  15.826  41.198   9.184
 2454POPC   C1A33171  15.878  41.726   8.699
 2454POPC   D2A33172  15.854  41.938   8.295
 2454POPC   C3A33173  16.088  41.705   7.976
 2454POPC   C4A33174  16.246  41.293   7.938
 2454POPC   C1B33175  15.671  41.261   8.748
 2454POPC   C2B33176  15.875  41.337   8.340
 2454POPC   C3B33177  15.684  41.356   7.934
 2454POPC   C4B33178  15.908  41.410   7.538
 2455POPC   NC333179  24.816  16.421   9.847
 2455POPC   PO433180  25.269  16.819   9.502
 2455POPC   GL133181  25.278  16.749   9.085
 2455POPC   GL233182  25.606  16.858   9.103
 2455POPC   C1A33183  25.130  16.881   8.652
 2455POPC   D2A33184  25.267  16.856   8.193
 2455POPC   C3A33185  24.958  16.699   7.836
 2455POPC   C4A33186  24.956  16.910   7.415
 2455POPC   C1B33187  25.589  16.658   8.690
 2455POPC   C2B33188  25.786  16.635   8.320
 2455POPC   C3B33189  25.648  16.535   7.938
 2455POPC   C4B33190  25.434  16.826   7.693
 2456POPC   NC333191  40.799  29.328   9.634
 2456POPC   PO433192  40.991  28.606   9.526
 2456POPC   GL133193  41.114  28.937   9.184
 2456POPC   GL233194  40.881  29.234   9.139
 2456POPC   C1A33195  41.135  29.101   8.737
 2456POPC   D2A33196  40.917  29.084   8.348
 2456POPC   C3A33197  40.997  29.305   8.001
 2456POPC   C4A33198  40.824  29.528   7.713
 2456POPC   C1B33199  40.682  29.348   8.730
 2456POPC   C2B33200  40.641  29.541   8.302
 2456POPC   C3B33201  40.409  29.390   7.924
 2456POPC   C4B33202  40.391  29.552   7.450
 2457POPC   NC333203  34.101  21.805   9.661
 2457POPC   PO433204  34.556  22.251   9.462
 2457POPC   GL133205  34.622  22.308   9.071
 2457POPC   GL233206  34.447  22.581   8.881
 2457POPC   C1A33207  34.675  22.092   8.708
 2457POPC   D2A33208  34.478  22.362   8.398
 2457POPC   C3A33209  34.493  22.137   8.052
 2457POPC   C4A33210  34.495  21.982   7.680
 2457POPC   C1B33211  34.873  22.553   8.707
 2457POPC   C2B33212  35.018  22.678   8.305
 2457POPC   C3B33213  34.777  22.550   7.957
 2457POPC   C4B33214  34.801  22.372   7.519
 2458POPC   NC333215  36.330  42.807   9.396
 2458POPC   PO433216  36.066  43.504   9.462
 2458POPC   GL133217  36.227  43.246   9.152
 2458POPC   GL233218  35.909  43.076   9.190
 2458POPC   C1A33219  36.469  43.050   8.757
 2458POPC   D2A33220  36.678  43.064   8.315
 2458POPC   C3A33221  36.348  43.012   7.961
 2458POPC   C4A33222  36.417  43.084   7.536
 2458POPC   C1B33223  35.958  43.033   8.759
 2458POPC   C2B33224  35.902  42.861   8.362
 2458POPC   C3B33225  35.793  43.054   8.002
 2458POPC   C4B33226  35.921  43.090   7.598
 2459POPC   NC333227  18.711  31.044   9.387
 2459POPC   PO433228  19.195  31.608   9.527
 2459POPC   GL133229  19.026  31.748   9.163
 2459POPC   GL233230  18.978  31.408   9.086
 2459POPC   C1A33231  19.131  31.787   8.746
 2459POPC   D2A33232  18.932  31.901   8.372
 2459POPC   C3A33233  19.093  31.744   8.011
 2459POPC   C4A33234  19.135  31.383   7.776
 2459POPC   C1B33235  18.915  31.250   8.667
 2459POPC   C2B33236  18.893  31.287   8.205
 2459POPC   C3B33237  18.673  31.185   7.818
 2459POPC   C4B33238  18.784  31.234   7.374
 2460POPC   NC333239  43.870   0.933   9.560
 2460POPC   PO433240  43.668   1.574   9.508
 2460POPC   GL133241  43.788   1.270   9.176
 2460POPC   GL233242  43.634   0.930   9.109
 2460POPC   C1A33243  43.878   1.246   8.735
 2460POPC   D2A33244  43.586   1.237   8.370
 2460POPC   C3A33245  43.693   1.529   8.041
 2460POPC   C4A33246  43.806   1.377   7.641
 2460POPC   C1B33247  43.585   0.804   8.702
 2460POPC   C2B33248  43.933   0.841   8.408
 2460POPC   C3B33249  44.022   1.103   8.048
 2460POPC   C4B33250  44.019   0.837   7.680
 2461POPC   NC333251   3.856  24.490   9.468
 2461POPC   PO433252   3.144  24.727   9.584
 2461POPC   GL133253   3.409  24.645   9.248
 2461POPC   GL233254   3.427  24.253   9.267
 2461POPC   C1A33255   3.620  24.739   8.862
 2461POPC   D2A33256   3.695  24.927   8.469
 2461POPC   C3A33257   3.543  24.775   8.072
 2461POPC   C4A33258   3.406  24.620   7.670
 2461POPC   C1B33259   3.633  24.210   8.862
 2461POPC   C2B33260   3.548  24.411   8.463
 2461POPC   C3B33261   3.649  24.253   8.075
 2461POPC   C4B33262   3.630  24.151   7.666
 2462POPC   NC333263   5.682   7.170   9.645
 2462POPC   PO433264   5.955   7.787   9.559
 2462POPC   GL133265   5.689   7.562   9.293
 2462POPC   GL233266   5.978   7.381   9.243
 2462POPC   C1A33267   5.678   7.510   8.843
 2462POPC   D2A33268   5.924   7.604   8.438
 2462POPC   C3A33269   5.827   7.395   8.007
 2462POPC   C4A33270   5.839   7.550   7.612
 2462POPC   C1B33271   6.189   7.423   8.852
 2462POPC   C2B33272   6.425   7.447   8.439
 2462POPC   C3B33273   6.327   7.299   8.025
 2462POPC   C4B33274   6.202   7.200   7.627
 2463POPC   NC333275  40.666  31.052   9.526
 2463POPC   PO433276  41.115  30.701   9.871
 2463POPC   GL133277  41.022  30.677   9.403
 2463POPC   GL233278  40.771  30.436   9.316
 2463POPC   C1A33279  40.915  30.818   8.957
 2463POPC   D2A33280  40.979  30.893   8.515
 2463POPC   C3A33281  41.071  30.675   8.145
 2463POPC   C4A33282  41.079  30.861   7.730
 2463POPC   C1B33283  40.712  30.345   8.868
 2463POPC   C2B33284  40.664  30.502   8.444
 2463POPC   C3B33285  40.582  30.601   8.027
 2463POPC   C4B33286  40.779  30.455   7.664
 2464POPC   NC333287  34.459   0.833   9.644
 2464POPC   PO433288  34.489   0.216   9.779
 2464POPC   GL133289  34.674   0.454   9.357
 2464POPC   GL233290  34.435   0.642   9.178
 2464POPC   C1A33291  34.717   0.456   8.829
 2464POPC   D2A33292  34.579   0.163   8.494
 2464POPC   C3A33293  34.663   0.279   8.040
 2464POPC   C4A33294  34.517   0.134   7.633
 2464POPC   C1B33295  34.223   0.584   8.783
 2464POPC   C2B33296  34.404   0.624   8.393
 2464POPC   C3B33297  34.334   0.791   8.009
 2464POPC   C4B33298  34.551   0.674   7.638
 2465POPC   NC333299  42.382  43.733   9.536
 2465POPC   PO433300  42.022  44.221   9.221
 2465POPC   GL133301  42.397  44.021   9.089
 2465POPC   GL233302  42.318  44.203   8.790
 2465POPC   C1A33303  42.626  43.731   8.800
 2465POPC   D2A33304  42.591  43.412   8.462
 2465POPC   C3A33305  42.588  43.613   8.066
 2465POPC   C4A33306  42.445  43.760   7.668
 2465POPC   C1B33307  42.141  43.861   8.675
 2465POPC   C2B33308  42.153  43.639   8.348
 2465POPC   C3B33309  42.062  43.746   7.975
 2465POPC   C4B33310  41.941  43.559   7.605
 2466POPC   NC333311  23.481  11.905   9.287
 2466POPC   PO433312  23.835  12.447   9.574
 2466POPC   GL133313  23.920  12.207   9.179
 2466POPC   GL233314  24.019  11.864   9.257
 2466POPC   C1A33315  23.722  12.089   8.741
 2466POPC   D2A33316  23.443  11.979   8.410
 2466POPC   C3A33317  23.455  12.251   8.045
 2466POPC   C4A33318  23.451  12.014   7.672
 2466POPC   C1B33319  23.972  11.619   8.873
 2466POPC   C2B33320  23.920  11.696   8.447
 2466POPC   C3B33321  23.838  11.888   8.051
 2466POPC   C4B33322  23.702  11.580   7.785
 2467POPC   NC333323  36.812  40.697   9.493
 2467POPC   PO433324  36.888  41.337   9.363
 2467POPC   GL133325  36.924  41.014   9.060
 2467POPC   GL233326  37.062  40.681   9.045
 2467POPC   C1A33327  36.747  40.917   8.688
 2467POPC   D2A33328  36.934  40.820   8.339
 2467POPC   C3A33329  36.958  41.105   8.032
 2467POPC   C4A33330  37.169  40.985   7.676
 2467POPC   C1B33331  36.898  40.415   8.689
 2467POPC   C2B33332  36.721  40.376   8.273
 2467POPC   C3B33333  36.880  40.573   7.867
 2467POPC   C4B33334  36.794  40.447   7.431
 2468POPC   NC333335  30.864  13.068   9.315
 2468POPC   PO433336  30.885  13.769   9.494
 2468POPC   GL133337  30.711  13.864   9.114
 2468POPC   GL233338  30.666  13.510   9.097
 2468POPC   C1A33339  30.578  13.897   8.653
 2468POPC   D2A33340  30.278  13.757   8.307
 2468POPC   C3A33341  30.548  13.670   7.987
 2468POPC   C4A33342  31.012  13.572   7.932
 2468POPC   C1B33343  30.932  13.514   8.754
 2468POPC   C2B33344  30.769  13.451   8.377
 2468POPC   C3B33345  30.689  13.172   8.044
 2468POPC   C4B33346  30.598  13.309   7.613
 2469POPC   NC333347  24.501  24.105   9.525
 2469POPC   PO433348  24.852  24.667   9.486
 2469POPC   GL133349  24.678  24.469   9.176
 2469POPC   GL233350  24.566  24.773   9.047
 2469POPC   C1A33351  24.605  24.356   8.756
 2469POPC   D2A33352  24.304  24.340   8.421
 2469POPC   C3A33353  24.465  24.485   8.079
 2469POPC   C4A33354  24.676  24.268   7.791
 2469POPC   C1B33355  24.207  24.697   8.762
 2469POPC   C2B33356  23.977  24.729   8.327
 2469POPC   C3B33357  24.086  24.796   7.906
 2469POPC   C4B33358  24.386  24.691   7.620
 2470POPC   NC333359  20.088  38.429   9.463
 2470POPC   PO433360  20.693  38.633   9.526
 2470POPC   GL133361  20.500  38.692   9.167
 2470POPC   GL233362  20.474  38.326   9.152
 2470POPC   C1A33363  20.659  38.650   8.762
 2470POPC   D2A33364  20.729  38.403   8.389
 2470POPC   C3A33365  20.901  38.493   8.014
 2470POPC   C4A33366  20.640  38.622   7.675
 2470POPC   C1B33367  20.485  38.139   8.777
 2470POPC   C2B33368  20.286  38.168   8.408
 2470POPC   C3B33369  20.524  38.015   8.079
 2470POPC   C4B33370  20.780  38.054   7.728
 2471POPC   NC333371   2.360  44.685   9.335
 2471POPC   PO433372   2.885  44.966   9.699
 2471POPC   GL133373   2.939  44.889   9.212
 2471POPC   GL233374   2.789  44.639   9.117
 2471POPC   C1A33375   3.031  44.759   8.714
 2471POPC   D2A33376   2.757  44.787   8.342
 2471POPC   C3A33377   2.984  44.631   7.978
 2471POPC   C4A33378   3.056  44.834   7.567
 2471POPC   C1B33379   2.557  44.476   8.757
 2471POPC   C2B33380   2.466  44.225   8.411
 2471POPC   C3B33381   2.473  44.436   8.015
 2471POPC   C4B33382   2.655  44.514   7.604
 2472POPC   NC333383  39.371  27.844   9.574
 2472POPC   PO433384  38.709  27.620   9.560
 2472POPC   GL133385  39.050  27.559   9.263
 2472POPC   GL233386  39.110  27.851   9.126
 2472POPC   C1A33387  39.309  27.436   8.880
 2472POPC   D2A33388  39.317  27.547   8.466
 2472POPC   C3A33389  39.196  27.295   8.121
 2472POPC   C4A33390  38.936  27.501   7.835
 2472POPC   C1B33391  39.317  27.980   8.776
 2472POPC   C2B33392  39.423  28.073   8.378
 2472POPC   C3B33393  39.278  27.849   8.046
 2472POPC   C4B33394  39.450  27.550   7.768
 2473POPC   NC333395  30.928  37.356   9.231
 2473POPC   PO433396  30.743  36.921   9.715
 2473POPC   GL133397  30.745  36.874   9.217
 2473POPC   GL233398  31.004  36.718   9.003
 2473POPC   C1A33399  30.475  36.655   8.910
 2473POPC   D2A33400  30.279  36.815   8.536
 2473POPC   C3A33401  30.437  36.700   8.142
 2473POPC   C4A33402  30.663  36.856   7.793
 2473POPC   C1B33403  30.830  36.893   8.626
 2473POPC   C2B33404  30.872  37.084   8.220
 2473POPC   C3B33405  31.154  36.985   7.889
 2473POPC   C4B33406  31.095  36.565   7.750
 2474POPC   NC333407  44.792  19.203   9.713
 2474POPC   PO433408  44.323  18.815   9.391
 2474POPC   GL133409  44.638  19.106   9.177
 2474POPC   GL233410  44.558  19.447   8.988
 2474POPC   C1A33411  44.717  19.011   8.732
 2474POPC   D2A33412  44.692  19.177   8.320
 2474POPC   C3A33413  44.522  19.256   7.919
 2474POPC   C4A33414  44.799  18.944   7.792
 2474POPC   C1B33415   0.005  19.399   8.851
 2474POPC   C2B33416   0.133  19.421   8.409
 2474POPC   C3B33417   0.033  19.384   7.963
 2474POPC   C4B33418  44.995  19.340   7.504
 2475POPC   NC333419  14.930   0.062   9.481
 2475POPC   PO433420  15.156  44.466   9.480
 2475POPC   GL133421  15.042  44.654   9.129
 2475POPC   GL233422  14.862  44.311   9.097
 2475POPC   C1A33423  15.288  44.814   8.725
 2475POPC   D2A33424  15.520  44.697   8.312
 2475POPC   C3A33425  15.267  44.762   7.940
 2475POPC   C4A33426  15.035  44.689   7.571
 2475POPC   C1B33427  14.995  44.373   8.718
 2475POPC   C2B33428  15.142  44.320   8.316
 2475POPC   C3B33429  14.953  44.348   7.948
 2475POPC   C4B33430  14.914  44.205   7.533
 2476POPC   NC333431  32.616  28.097   9.266
 2476POPC   PO433432  32.098  28.481   9.609
 2476POPC   GL133433  32.321  28.524   9.250
 2476POPC   GL233434  32.146  28.222   9.170
 2476POPC   C1A33435  32.436  28.621   8.827
 2476POPC   D2A33436  32.441  28.444   8.424
 2476POPC   C3A33437  32.593  28.631   8.042
 2476POPC   C4A33438  32.472  28.483   7.645
 2476POPC   C1B33439  31.911  28.504   8.931
 2476POPC   C2B33440  31.960  28.634   8.513
 2476POPC   C3B33441  31.885  28.546   8.090
 2476POPC   C4B33442  31.990  28.607   7.665
 2477POPC   NC333443  17.906   4.708   9.621
 2477POPC   PO433444  17.422   5.095   9.590
 2477POPC   GL133445  17.299   5.038   9.173
 2477POPC   GL233446  17.495   4.730   9.164
 2477POPC   C1A33447  17.455   5.105   8.729
 2477POPC   D2A33448  17.576   4.883   8.339
 2477POPC   C3A33449  17.494   5.107   7.958
 2477POPC   C4A33450  17.808   5.376   7.759
 2477POPC   C1B33451  17.385   4.610   8.754
 2477POPC   C2B33452  17.310   4.432   8.350
 2477POPC   C3B33453  17.386   4.602   7.933
 2477POPC   C4B33454  17.160   4.867   7.634
 2478POPC   NC333455   7.860  23.653   9.747
 2478POPC   PO433456   8.180  23.429   9.157
 2478POPC   GL133457   8.278  23.780   8.938
 2478POPC   GL233458   8.541  23.985   8.917
 2478POPC   C1A33459   8.186  23.801   8.513
 2478POPC   D2A33460   7.809  24.005   8.340
 2478POPC   C3A33461   7.928  23.957   7.948
 2478POPC   C4A33462   8.134  23.649   7.769
 2478POPC   C1B33463   8.686  23.605   8.685
 2478POPC   C2B33464   8.606  23.587   8.239
 2478POPC   C3B33465   8.512  23.923   7.965
 2478POPC   C4B33466   8.582  24.347   7.897
 2479POPC   NC333467  20.499  13.757   9.576
 2479POPC   PO433468  21.168  13.652   9.564
 2479POPC   GL133469  20.882  13.516   9.240
 2479POPC   GL233470  20.554  13.618   9.109
 2479POPC   C1A33471  20.913  13.515   8.785
 2479POPC   D2A33472  20.723  13.792   8.499
 2479POPC   C3A33473  20.633  13.683   8.096
 2479POPC   C4A33474  20.665  13.842   7.688
 2479POPC   C1B33475  20.355  13.408   8.760
 2479POPC   C2B33476  20.403  13.271   8.334
 2479POPC   C3B33477  20.255  13.402   7.931
 2479POPC   C4B33478  20.283  13.327   7.445
 2480POPC   NC333479   3.941  32.718   9.560
 2480POPC   PO433480   3.372  33.105   9.541
 2480POPC   GL133481   3.460  33.076   9.122
 2480POPC   GL233482   3.762  32.889   9.138
 2480POPC   C1A33483   3.288  33.137   8.703
 2480POPC   D2A33484   3.347  33.411   8.358
 2480POPC   C3A33485   3.452  33.234   7.979
 2480POPC   C4A33486   3.324  33.103   7.584
 2480POPC   C1B33487   3.859  33.008   8.747
 2480POPC   C2B33488   3.731  32.988   8.338
 2480POPC   C3B33489   3.949  33.066   7.960
 2480POPC   C4B33490   3.905  32.808   7.624
 2481POPC   NC333491  37.935  24.275   9.324
 2481POPC   PO433492  37.745  23.670   9.518
 2481POPC   GL133493  37.803  23.775   9.119
 2481POPC   GL233494  37.586  24.032   9.017
 2481POPC   C1A33495  37.838  23.585   8.730
 2481POPC   D2A33496  37.675  23.417   8.363
 2481POPC   C3A33497  37.819  23.669   8.020
 2481POPC   C4A33498  37.732  23.887   7.658
 2481POPC   C1B33499  37.348  23.759   8.738
 2481POPC   C2B33500  37.320  23.762   8.281
 2481POPC   C3B33501  37.324  23.640   7.844
 2481POPC   C4B33502  37.200  23.742   7.423
 2482POPC   NC333503  42.450  16.749   9.424
 2482POPC   PO433504  41.983  17.241   9.464
 2482POPC   GL133505  42.066  17.077   9.048
 2482POPC   GL233506  42.357  16.840   8.951
 2482POPC   C1A33507  42.055  17.000   8.607
 2482POPC   D2A33508  42.465  16.829   8.444
 2482POPC   C3A33509  42.527  16.687   8.048
 2482POPC   C4A33510  42.262  16.713   7.671
 2482POPC   C1B33511  42.422  16.421   8.761
 2482POPC   C2B33512  42.515  16.262   8.379
 2482POPC   C3B33513  42.317  16.230   7.992
 2482POPC   C4B33514  42.502  16.279   7.592
 2483POPC   NC333515  20.917   6.808   9.686
 2483POPC   PO433516  20.370   6.638   9.495
 2483POPC   GL133517  20.812   6.630   9.208
 2483POPC   GL233518  21.042   6.317   9.294
 2483POPC   C1A33519  20.998   6.807   8.769
 2483POPC   D2A33520  20.959   7.062   8.366
 2483POPC   C3A33521  20.686   6.849   8.036
 2483POPC   C4A33522  20.308   6.705   7.766
 2483POPC   C1B33523  20.926   6.282   8.839
 2483POPC   C2B33524  20.778   6.453   8.418
 2483POPC   C3B33525  20.812   6.365   7.953
 2483POPC   C4B33526  20.946   6.323   7.522
 2484POPC   NC333527   2.649  16.211   9.659
 2484POPC   PO433528   3.146  15.834   9.475
 2484POPC   GL133529   2.788  15.942   9.234
 2484POPC   GL233530   2.856  16.291   9.196
 2484POPC   C1A33531   2.677  15.954   8.796
 2484POPC   D2A33532   2.846  16.238   8.473
 2484POPC   C3A33533   2.744  16.092   8.076
 2484POPC   C4A33534   2.950  15.986   7.707
 2484POPC   C1B33535   2.461  16.373   8.950
 2484POPC   C2B33536   2.354  16.427   8.477
 2484POPC   C3B33537   2.249  16.258   8.024
 2484POPC   C4B33538   2.492  16.219   7.624
 2485POPC   NC333539  43.916  25.018   9.533
 2485POPC   PO433540  43.950  25.692   9.687
 2485POPC   GL133541  43.945  25.434   9.250
 2485POPC   GL233542  43.817  25.589   9.003
 2485POPC   C1A33543  43.786  25.107   8.869
 2485POPC   D2A33544  43.663  25.040   8.402
 2485POPC   C3A33545  44.026  24.912   8.093
 2485POPC   C4A33546  44.319  25.003   7.741
 2485POPC   C1B33547  43.556  25.559   8.700
 2485POPC   C2B33548  43.556  25.800   8.342
 2485POPC   C3B33549  43.797  25.689   7.985
 2485POPC   C4B33550  43.826  25.283   7.790
 2486POPC   NC333551  35.015  44.209   9.820
 2486POPC   PO433552  35.318  43.585   9.672
 2486POPC   GL133553  35.395  43.688   9.258
 2486POPC   GL233554  35.697  43.575   9.138
 2486POPC   C1A33555  35.208  43.801   8.861
 2486POPC   D2A33556  35.243  43.615   8.468
 2486POPC   C3A33557  35.175  43.839   8.094
 2486POPC   C4A33558  35.300  44.181   7.829
 2486POPC   C1B33559  35.725  43.738   8.734
 2486POPC   C2B33560  35.735  43.509   8.350
 2486POPC   C3B33561  35.688  43.725   7.979
 2486POPC   C4B33562  35.442  43.693   7.629
 2487POPC   NC333563  44.883  39.641   9.464
 2487POPC   PO433564  44.538  40.294   9.567
 2487POPC   GL133565  44.639  40.026   9.201
 2487POPC   GL233566  44.329  39.833   9.310
 2487POPC   C1A33567  44.795  39.976   8.749
 2487POPC   D2A33568  44.973  40.053   8.335
 2487POPC   C3A33569  44.685  40.094   7.994
 2487POPC   C4A33570  44.873  40.003   7.591
 2487POPC   C1B33571  44.292  39.814   8.842
 2487POPC   C2B33572  44.439  39.816   8.385
 2487POPC   C3B33573  44.243  39.834   7.964
 2487POPC   C4B33574  44.349  39.938   7.518
 2488POPC   NC333575  25.855  34.795   9.351
 2488POPC   PO433576  26.420  34.593   9.715
 2488POPC   GL133577  26.239  34.430   9.299
 2488POPC   GL233578  25.916  34.252   9.294
 2488POPC   C1A33579  26.104  34.506   8.853
 2488POPC   D2A33580  26.070  34.798   8.512
 2488POPC   C3A33581  26.047  34.568   8.131
 2488POPC   C4A33582  26.074  34.757   7.716
 2488POPC   C1B33583  25.812  34.041   8.903
 2488POPC   C2B33584  25.777  34.235   8.501
 2488POPC   C3B33585  25.604  34.275   8.100
 2488POPC   C4B33586  25.816  34.299   7.734
 2489POPC   NC333587  30.515   4.634   9.481
 2489POPC   PO433588  30.714   5.319   9.450
 2489POPC   GL133589  30.634   5.004   9.153
 2489POPC   GL233590  30.295   4.829   9.085
 2489POPC   C1A33591  30.799   5.050   8.771
 2489POPC   D2A33592  31.036   4.913   8.470
 2489POPC   C3A33593  30.881   4.940   8.063
 2489POPC   C4A33594  30.828   5.092   7.620
 2489POPC   C1B33595  30.282   5.148   8.775
 2489POPC   C2B33596  30.462   5.074   8.369
 2489POPC   C3B33597  30.449   5.127   7.939
 2489POPC   C4B33598  30.389   4.831   7.578
 2490POPC   NC333599  14.258   5.692   9.491
 2490POPC   PO433600  14.701   6.298   9.593
 2490POPC   GL133601  14.615   6.014   9.187
 2490POPC   GL233602  14.352   5.749   8.991
 2490POPC   C1A33603  14.712   5.994   8.776
 2490POPC   D2A33604  14.542   5.744   8.419
 2490POPC   C3A33605  14.734   5.836   8.004
 2490POPC   C4A33606  14.657   5.968   7.541
 2490POPC   C1B33607  14.219   6.068   8.659
 2490POPC   C2B33608  14.162   6.075   8.202
 2490POPC   C3B33609  14.248   5.901   7.833
 2490POPC   C4B33610  14.169   5.796   7.396
 2491POPC   NC333611  24.867  32.128   9.558
 2491POPC   PO433612  25.504  32.473   9.548
 2491POPC   GL133613  25.288  32.252   9.216
 2491POPC   GL233614  25.414  31.911   9.206
 2491POPC   C1A33615  25.425  32.198   8.766
 2491POPC   D2A33616  25.228  32.308   8.373
 2491POPC   C3A33617  25.344  32.401   7.918
 2491POPC   C4A33618  25.316  32.564   7.452
 2491POPC   C1B33619  25.063  31.857   8.875
 2491POPC   C2B33620  24.925  31.849   8.449
 2491POPC   C3B33621  25.067  31.964   8.062
 2491POPC   C4B33622  25.140  32.003   7.641
 2492POPC   NC333623  32.488  33.402   9.574
 2492POPC   PO433624  32.240  32.759   9.652
 2492POPC   GL133625  32.393  32.962   9.276
 2492POPC   GL233626  32.069  32.914   9.149
 2492POPC   C1A33627  32.425  33.120   8.828
 2492POPC   D2A33628  32.382  32.932   8.407
 2492POPC   C3A33629  32.254  33.119   8.026
 2492POPC   C4A33630  32.442  32.910   7.735
 2492POPC   C1B33631  31.965  32.851   8.714
 2492POPC   C2B33632  31.916  32.793   8.263
 2492POPC   C3B33633  32.032  32.640   7.848
 2492POPC   C4B33634  32.043  32.810   7.412
 2493POPC   NC333635  42.968  11.429   9.554
 2493POPC   PO433636  43.599  11.076   9.485
 2493POPC   GL133637  43.290  11.088   9.158
 2493POPC   GL233638  42.916  11.043   9.238
 2493POPC   C1A33639  43.191  11.429   8.862
 2493POPC   D2A33640  42.866  11.466   8.510
 2493POPC   C3A33641  43.026  11.303   8.101
 2493POPC   C4A33642  43.241  11.436   7.720
 2493POPC   C1B33643  42.885  11.030   8.813
 2493POPC   C2B33644  42.771  10.958   8.403
 2493POPC   C3B33645  42.792  10.849   7.997
 2493POPC   C4B33646  42.955  10.997   7.637
 2494POPC   NC333647  44.553  11.734   9.806
 2494POPC   PO433648  44.630  12.402   9.618
 2494POPC   GL133649  44.551  12.226   9.199
 2494POPC   GL233650  44.747  11.927   9.181
 2494POPC   C1A33651  44.640  12.177   8.733
 2494POPC   D2A33652  44.881  11.985   8.370
 2494POPC   C3A33653  44.844  12.286   8.028
 2494POPC   C4A33654  44.518  12.323   7.734
 2494POPC   C1B33655  44.750  11.673   8.781
 2494POPC   C2B33656  44.543  11.555   8.382
 2494POPC   C3B33657  44.548  11.681   7.974
 2494POPC   C4B33658  44.815  11.880   7.743
 2495POPC   NC333659  42.352  12.727   9.659
 2495POPC   PO433660  42.955  12.676   9.550
 2495POPC   GL133661  42.589  12.671   9.211
 2495POPC   GL233662  42.195  12.814   9.196
 2495POPC   C1A33663  42.447  12.673   8.797
 2495POPC   D2A33664  42.471  12.888   8.448
 2495POPC   C3A33665  42.372  12.620   8.112
 2495POPC   C4A33666  42.407  12.720   7.708
 2495POPC   C1B33667  42.137  13.086   8.830
 2495POPC   C2B33668  42.117  13.288   8.438
 2495POPC   C3B33669  42.227  13.120   8.061
 2495POPC   C4B33670  42.105  13.153   7.662
 2496POPC   NC333671  10.311  17.452   9.561
 2496POPC   PO433672  10.890  17.368   9.224
 2496POPC   GL133673  10.471  17.393   9.068
 2496POPC   GL233674  10.193  17.121   9.157
 2496POPC   C1A33675  10.439  17.633   8.681
 2496POPC   D2A33676  10.552  17.826   8.276
 2496POPC   C3A33677  10.588  17.576   7.972
 2496POPC   C4A33678  10.818  17.310   7.761
 2496POPC   C1B33679  10.073  17.233   8.735
 2496POPC   C2B33680  10.141  17.420   8.324
 2496POPC   C3B33681  10.085  17.457   7.904
 2496POPC   C4B33682  10.333  17.351   7.578
 2497POPC   NC333683   5.937  32.636   9.881
 2497POPC   PO433684   5.768  33.110   9.469
 2497POPC   GL133685   5.990  33.059   9.144
 2497POPC   GL233686   6.227  32.822   9.205
 2497POPC   C1A33687   5.826  33.005   8.772
 2497POPC   D2A33688   5.586  33.167   8.431
 2497POPC   C3A33689   5.650  32.947   8.075
 2497POPC   C4A33690   5.547  33.074   7.677
 2497POPC   C1B33691   6.255  32.711   8.761
 2497POPC   C2B33692   6.347  32.525   8.351
 2497POPC   C3B33693   6.169  32.568   7.952
 2497POPC   C4B33694   6.039  32.918   7.745
 2498POPC   NC333695  40.621   2.615   9.361
 2498POPC   PO433696  40.778   3.271   9.568
 2498POPC   GL133697  40.825   3.038   9.131
 2498POPC   GL233698  40.573   3.087   8.875
 2498POPC   C1A33699  40.946   2.717   8.777
 2498POPC   D2A33700  40.902   2.437   8.423
 2498POPC   C3A33701  40.806   2.699   8.038
 2498POPC   C4A33702  40.615   2.667   7.618
 2498POPC   C1B33703  40.427   2.691   8.733
 2498POPC   C2B33704  40.394   2.489   8.362
 2498POPC   C3B33705  40.280   2.699   7.992
 2498POPC   C4B33706  40.250   3.130   7.805
 2499POPC   NC333707  32.853  35.731   9.358
 2499POPC   PO433708  32.858  36.387   9.533
 2499POPC   GL133709  33.065  36.157   9.154
 2499POPC   GL233710  32.753  36.047   8.969
 2499POPC   C1A33711  33.170  36.032   8.690
 2499POPC   D2A33712  32.850  35.995   8.330
 2499POPC   C3A33713  32.930  36.075   7.923
 2499POPC   C4A33714  33.251  36.003   7.615
 2499POPC   C1B33715  32.440  36.013   8.622
 2499POPC   C2B33716  32.255  36.319   8.383
 2499POPC   C3B33717  32.477  36.514   8.087
 2499POPC   C4B33718  32.653  36.428   7.696
 2500POPC   NC333719   8.540  37.006   9.602
 2500POPC   PO433720   7.951  36.733   9.452
 2500POPC   GL133721   8.197  37.037   9.206
 2500POPC   GL233722   7.989  37.185   8.967
 2500POPC   C1A33723   8.486  37.054   8.842
 2500POPC   D2A33724   8.590  37.097   8.426
 2500POPC   C3A33725   8.418  36.783   8.202
 2500POPC   C4A33726   8.455  36.757   7.765
 2500POPC   C1B33727   8.055  36.768   8.771
 2500POPC   C2B33728   7.918  36.668   8.344
 2500POPC   C3B33729   7.757  36.787   7.952
 2500POPC   C4B33730   7.958  36.731   7.564
 2501POPC   NC333731   0.071  13.947   9.471
 2501POPC   PO433732   0.768  13.735   9.462
 2501POPC   GL133733   0.456  13.779   9.165
 2501POPC   GL233734   0.425  14.119   9.153
 2501POPC   C1A33735   0.324  13.591   8.804
 2501POPC   D2A33736   0.467  13.742   8.425
 2501POPC   C3A33737   0.290  13.530   8.101
 2501POPC   C4A33738   0.427  13.456   7.698
 2501POPC   C1B33739   0.189  14.068   8.760
 2501POPC   C2B33740   0.006  13.945   8.364
 2501POPC   C3B33741   0.222  14.013   7.993
 2501POPC   C4B33742   0.591  14.014   7.755
 2502POPC   NC333743  35.827  40.536   9.437
 2502POPC   PO433744  36.355  40.852   9.543
 2502POPC   GL133745  36.130  40.897   9.188
 2502POPC   GL233746  36.427  41.013   9.064
 2502POPC   C1A33747  36.009  41.012   8.755
 2502POPC   D2A33748  35.760  40.831   8.412
 2502POPC   C3A33749  36.003  40.744   8.048
 2502POPC   C4A33750  36.110  41.083   7.768
 2502POPC   C1B33751  36.402  40.586   8.884
 2502POPC   C2B33752  36.335  40.688   8.464
 2502POPC   C3B33753  36.495  40.863   8.089
 2502POPC   C4B33754  36.420  40.682   7.694
 2503POPC   NC333755   7.327  42.665   9.596
 2503POPC   PO433756   7.660  43.232   9.443
 2503POPC   GL133757   7.577  42.892   9.182
 2503POPC   GL233758   7.247  42.807   9.092
 2503POPC   C1A33759   7.687  42.835   8.768
 2503POPC   D2A33760   7.657  43.142   8.437
 2503POPC   C3A33761   7.466  42.959   8.081
 2503POPC   C4A33762   7.353  43.081   7.687
 2503POPC   C1B33763   7.304  43.190   8.829
 2503POPC   C2B33764   7.202  43.417   8.423
 2503POPC   C3B33765   7.022  43.394   8.002
 2503POPC   C4B33766   7.178  43.567   7.642
 2504POPC   NC333767  24.307  12.431   9.488
 2504POPC   PO433768  24.669  12.995   9.495
 2504POPC   GL133769  24.558  12.758   9.144
 2504POPC   GL233770  24.204  12.811   9.173
 2504POPC   C1A33771  24.789  12.640   8.741
 2504POPC   D2A33772  25.001  12.928   8.421
 2504POPC   C3A33773  24.754  13.008   8.019
 2504POPC   C4A33774  24.657  12.987   7.563
 2504POPC   C1B33775  24.247  12.990   8.786
 2504POPC   C2B33776  24.073  12.892   8.398
 2504POPC   C3B33777  24.149  13.010   7.994
 2504POPC   C4B33778  24.208  12.733   7.639
 2505POPC   NC333779  33.835  24.214   9.574
 2505POPC   PO433780  33.710  24.855   9.636
 2505POPC   GL133781  33.805  24.663   9.255
 2505POPC   GL233782  33.535  24.428   9.217
 2505POPC   C1A33783  33.960  24.439   8.865
 2505POPC   D2A33784  34.007  24.138   8.511
 2505POPC   C3A33785  33.929  24.276   8.068
 2505POPC   C4A33786  33.620  24.230   7.721
 2505POPC   C1B33787  33.509  24.698   8.854
 2505POPC   C2B33788  33.695  24.668   8.464
 2505POPC   C3B33789  33.615  24.670   8.054
 2505POPC   C4B33790  33.927  24.706   7.756
 2506POPC   NC333791  14.647  44.319   9.556
 2506POPC   PO433792  14.448  44.965   9.566
 2506POPC   GL133793  14.485  44.663   9.240
 2506POPC   GL233794  14.515  44.887   9.049
 2506POPC   C1A33795  14.461  44.449   8.813
 2506POPC   D2A33796  14.307  44.651   8.466
 2506POPC   C3A33797  14.376  44.444   8.078
 2506POPC   C4A33798  14.533  44.506   7.683
 2506POPC   C1B33799  14.777  44.849   8.748
 2506POPC   C2B33800  14.794  44.666   8.369
 2506POPC   C3B33801  14.754  44.808   8.015
 2506POPC   C4B33802  14.667   0.034   7.699
 2507POPC   NC333803   8.230  37.564   9.252
 2507POPC   PO433804   8.031  38.172   9.381
 2507POPC   GL133805   8.225  38.122   9.006
 2507POPC   GL233806   8.470  37.867   8.908
 2507POPC   C1A33807   8.008  37.949   8.674
 2507POPC   D2A33808   7.873  37.760   8.333
 2507POPC   C3A33809   8.166  37.618   8.092
 2507POPC   C4A33810   8.176  37.581   7.664
 2507POPC   C1B33811   8.286  37.516   8.619
 2507POPC   C2B33812   8.076  37.167   8.422
 2507POPC   C3B33813   8.127  37.125   7.981
 2507POPC   C4B33814   8.524  37.276   7.871
 2508POPC   NC333815   4.885  23.966   9.474
 2508POPC   PO433816   5.008  24.570   9.546
 2508POPC   GL133817   4.960  24.418   9.125
 2508POPC   GL233818   5.153  24.105   9.066
 2508POPC   C1A33819   4.794  24.637   8.730
 2508POPC   D2A33820   4.956  24.574   8.291
 2508POPC   C3A33821   4.863  24.733   7.869
 2508POPC   C4A33822   4.755  24.992   7.498
 2508POPC   C1B33823   5.201  24.291   8.671
 2508POPC   C2B33824   5.156  24.112   8.268
 2508POPC   C3B33825   5.197  24.338   7.888
 2508POPC   C4B33826   5.036  24.185   7.530
 2509POPC   NC333827  37.821  44.768   9.460
 2509POPC   PO433828  37.223  44.620   9.581
 2509POPC   GL133829  37.371  44.634   9.196
 2509POPC   GL233830  37.471  44.964   9.088
 2509POPC   C1A33831  37.429  44.456   8.799
 2509POPC   D2A33832  37.530  44.679   8.425
 2509POPC   C3A33833  37.556  44.431   8.039
 2509POPC   C4A33834  37.885  44.440   7.754
 2509POPC   C1B33835  37.840  44.925   8.796
 2509POPC   C2B33836  38.006  44.905   8.362
 2509POPC   C3B33837  37.791  44.903   7.965
 2509POPC   C4B33838  37.853  44.901   7.489
 2510POPC   NC333839  39.185   3.284   9.406
 2510POPC   PO433840  39.470   2.831   9.808
 2510POPC   GL133841  39.409   2.699   9.362
 2510POPC   GL233842  39.082   2.702   9.255
 2510POPC   C1A33843  39.554   2.611   8.939
 2510POPC   D2A33844  39.446   2.781   8.524
 2510POPC   C3A33845  39.510   2.528   8.163
 2510POPC   C4A33846  39.398   2.648   7.755
 2510POPC   C1B33847  39.001   2.810   8.810
 2510POPC   C2B33848  39.000   3.028   8.391
 2510POPC   C3B33849  38.962   2.816   7.987
 2510POPC   C4B33850  38.635   2.708   7.715
 2511POPC   NC333851  31.817  44.198   9.410
 2511POPC   PO433852  32.422  43.960   9.648
 2511POPC   GL133853  32.317  43.944   9.209
 2511POPC   GL233854  32.422  43.633   9.110
 2511POPC   C1A33855  32.452  44.038   8.753
 2511POPC   D2A33856  32.467  44.124   8.280
 2511POPC   C3A33857  32.068  44.001   8.055
 2511POPC   C4A33858  31.815  43.711   7.813
 2511POPC   C1B33859  32.421  43.482   8.687
 2511POPC   C2B33860  32.424  43.609   8.255
 2511POPC   C3B33861  32.490  43.702   7.812
 2511POPC   C4B33862  32.550  43.652   7.350
 2512POPC   NC333863  37.867   4.567   9.331
 2512POPC   PO433864  37.398   4.075   9.561
 2512POPC   GL133865  37.634   4.035   9.189
 2512POPC   GL233866  37.483   4.296   9.030
 2512POPC   C1A33867  37.715   3.917   8.754
 2512POPC   D2A33868  37.541   4.093   8.383
 2512POPC   C3A33869  37.758   3.947   8.054
 2512POPC   C4A33870  37.677   4.092   7.639
 2512POPC   C1B33871  37.761   4.433   8.712
 2512POPC   C2B33872  37.951   4.377   8.325
 2512POPC   C3B33873  37.680   4.465   7.981
 2512POPC   C4B33874  37.770   4.601   7.538
 2513POPC   NC333875  17.520   3.797   9.481
 2513POPC   PO433876  17.248   3.148   9.539
 2513POPC   GL133877  17.341   3.306   9.182
 2513POPC   GL233878  17.654   3.409   9.110
 2513POPC   C1A33879  17.178   3.234   8.787
 2513POPC   D2A33880  17.104   3.408   8.428
 2513POPC   C3A33881  17.361   3.263   8.169
 2513POPC   C4A33882  17.620   3.413   7.860
 2513POPC   C1B33883  17.392   3.712   8.840
 2513POPC   C2B33884  17.340   3.861   8.416
 2513POPC   C3B33885  17.243   3.738   8.004
 2513POPC   C4B33886  17.510   3.868   7.663
 2514POPC   NC333887  14.843  12.196   9.455
 2514POPC   PO433888  15.352  12.323   9.846
 2514POPC   GL133889  15.348  12.219   9.278
 2514POPC   GL233890  15.084  11.997   9.068
 2514POPC   C1A33891  15.279  12.328   8.781
 2514POPC   D2A33892  14.949  12.097   8.525
 2514POPC   C3A33893  14.990  12.137   8.062
 2514POPC   C4A33894  15.003  12.249   7.628
 2514POPC   C1B33895  15.350  11.803   8.725
 2514POPC   C2B33896  15.288  11.583   8.323
 2514POPC   C3B33897  14.993  11.632   7.978
 2514POPC   C4B33898  15.298  11.850   7.769
 2515POPC   NC333899  18.805  23.893   9.238
 2515POPC   PO433900  19.255  23.345   9.461
 2515POPC   GL133901  19.174  23.454   9.065
 2515POPC   GL233902  19.378  23.738   8.956
 2515POPC   C1A33903  18.965  23.582   8.698
 2515POPC   D2A33904  18.895  23.801   8.344
 2515POPC   C3A33905  19.154  23.592   8.107
 2515POPC   C4A33906  19.211  23.581   7.695
 2515POPC   C1B33907  19.414  24.114   8.685
 2515POPC   C2B33908  19.295  24.151   8.282
 2515POPC   C3B33909  19.169  24.070   7.892
 2515POPC   C4B33910  19.285  24.229   7.505
 2516POPC   NC333911  34.315  31.419   9.448
 2516POPC   PO433912  34.831  31.929   9.576
 2516POPC   GL133913  34.724  31.660   9.240
 2516POPC   GL233914  34.430  31.773   9.090
 2516POPC   C1A33915  34.771  31.496   8.813
 2516POPC   D2A33916  34.507  31.281   8.489
 2516POPC   C3A33917  34.686  31.430   8.084
 2516POPC   C4A33918  34.686  31.323   7.664
 2516POPC   C1B33919  34.277  31.738   8.655
 2516POPC   C2B33920  34.281  31.671   8.213
 2516POPC   C3B33921  34.407  31.795   7.798
 2516POPC   C4B33922  34.672  31.756   7.412
 2517POPC   NC333923  19.522   0.140   9.455
 2517POPC   PO433924  19.770   0.799   9.557
 2517POPC   GL133925  19.746   0.529   9.226
 2517POPC   GL233926  19.387   0.572   9.178
 2517POPC   C1A33927  19.863   0.289   8.859
 2517POPC   D2A33928  20.141   0.375   8.547
 2517POPC   C3A33929  19.990   0.257   8.162
 2517POPC   C4A33930  19.924   0.366   7.745
 2517POPC   C1B33931  19.583   0.721   8.797
 2517POPC   C2B33932  19.685   0.576   8.435
 2517POPC   C3B33933  19.752   0.712   8.064
 2517POPC   C4B33934  19.541   0.728   7.682
 2518POPC   NC333935  40.816  16.505   9.561
 2518POPC   PO433936  41.022  17.092   9.436
 2518POPC   GL133937  40.990  16.928   9.036
 2518POPC   GL233938  40.947  16.568   9.067
 2518POPC   C1A33939  41.125  16.827   8.610
 2518POPC   D2A33940  41.140  16.507   8.278
 2518POPC   C3A33941  40.905  16.731   7.960
 2518POPC   C4A33942  40.979  17.133   7.753
 2518POPC   C1B33943  40.632  16.697   8.737
 2518POPC   C2B33944  40.616  16.492   8.354
 2518POPC   C3B33945  40.428  16.524   7.969
 2518POPC   C4B33946  40.607  16.473   7.599
 2519POPC   NC333947  43.691  14.803   9.561
 2519POPC   PO433948  43.916  15.366   9.331
 2519POPC   GL133949  43.884  15.383   8.946
 2519POPC   GL233950  43.633  15.113   8.940
 2519POPC   C1A33951  44.004  15.196   8.556
 2519POPC   D2A33952  43.790  14.946   8.276
 2519POPC   C3A33953  44.064  14.934   7.940
 2519POPC   C4A33954  43.955  14.906   7.513
 2519POPC   C1B33955  43.523  15.392   8.602
 2519POPC   C2B33956  43.620  15.453   8.177
 2519POPC   C3B33957  43.646  15.215   7.804
 2519POPC   C4B33958  43.600  15.290   7.365
 2520POPC   NC333959  24.928  10.750   9.328
 2520POPC   PO433960  25.561  10.370   9.518
 2520POPC   GL133961  25.419  10.339   9.111
 2520POPC   GL233962  25.490  10.695   9.129
 2520POPC   C1A33963  25.219  10.462   8.715
 2520POPC   D2A33964  24.974  10.656   8.389
 2520POPC   C3A33965  25.157  10.530   8.016
 2520POPC   C4A33966  25.395  10.487   7.660
 2520POPC   C1B33967  25.593  10.825   8.735
 2520POPC   C2B33968  25.538  10.608   8.368
 2520POPC   C3B33969  25.665  10.716   8.023
 2520POPC   C4B33970  25.861  10.669   7.675
 2521POPC   NC333971  28.932  26.731   9.504
 2521POPC   PO433972  29.467  26.888   9.242
 2521POPC   GL133973  29.074  26.882   9.034
 2521POPC   GL233974  28.823  27.153   9.093
 2521POPC   C1A33975  29.040  26.674   8.662
 2521POPC   D2A33976  29.329  26.736   8.306
 2521POPC   C3A33977  29.191  26.589   7.907
 2521POPC   C4A33978  29.400  26.467   7.559
 2521POPC   C1B33979  28.765  27.096   8.620
 2521POPC   C2B33980  28.809  26.800   8.228
 2521POPC   C3B33981  28.782  26.854   7.789
 2521POPC   C4B33982  28.843  27.269   7.635
 2522POPC   NC333983  33.359  38.464   9.656
 2522POPC   PO433984  34.051  38.269   9.527
 2522POPC   GL133985  33.859  38.221   9.103
 2522POPC   GL233986  33.602  38.401   8.858
 2522POPC   C1A33987  33.948  38.113   8.676
 2522POPC   D2A33988  34.151  38.365   8.381
 2522POPC   C3A33989  33.976  38.449   7.976
 2522POPC   C4A33990  33.566  38.406   7.735
 2522POPC   C1B33991  33.734  38.642   8.511
 2522POPC   C2B33992  33.611  38.786   8.127
 2522POPC   C3B33993  33.670  38.890   7.725
 2522POPC   C4B33994  33.956  38.648   7.498
 2523POPC   NC333995  20.744  30.120   9.585
 2523POPC   PO433996  20.122  29.966   9.445
 2523POPC   GL133997  20.408  29.882   9.128
 2523POPC   GL233998  20.646  30.169   9.089
 2523POPC   C1A33999  20.527  29.893   8.683
 2523POPC   D2A34000  20.784  29.891   8.319
 2523POPC   C3A34001  20.532  29.910   7.961
 2523POPC   C4A34002  20.341  29.537   7.795
 2523POPC   C1B34003  20.954  30.160   8.744
 2523POPC   C2B34004  21.162  30.226   8.352
 2523POPC   C3B34005  20.941  30.245   7.922
 2523POPC   C4B34006  20.801  30.298   7.451
 2524POPC   NC334007  14.927   5.906   9.565
 2524POPC   PO434008  15.601   5.863   9.624
 2524POPC   GL134009  15.350   5.941   9.279
 2524POPC   GL234010  15.186   5.629   9.192
 2524POPC   C1A34011  15.219   5.996   8.848
 2524POPC   D2A34012  15.056   5.962   8.427
 2524POPC   C3A34013  15.276   5.967   8.082
 2524POPC   C4A34014  15.171   5.611   7.855
 2524POPC   C1B34015  14.957   5.527   8.807
 2524POPC   C2B34016  14.942   5.448   8.347
 2524POPC   C3B34017  14.831   5.255   7.954
 2524POPC   C4B34018  14.922   5.371   7.484
 2525POPC   NC334019  15.386   7.724   9.445
 2525POPC   PO434020  15.178   7.169   9.717
 2525POPC   GL134021  15.220   7.185   9.236
 2525POPC   GL234022  14.933   6.989   9.091
 2525POPC   C1A34023  15.444   7.380   8.884
 2525POPC   D2A34024  15.358   7.695   8.581
 2525POPC   C3A34025  15.272   7.518   8.173
 2525POPC   C4A34026  15.297   7.371   7.767
 2525POPC   C1B34027  14.989   7.275   8.723
 2525POPC   C2B34028  14.796   7.378   8.345
 2525POPC   C3B34029  14.911   7.142   7.999
 2525POPC   C4B34030  14.855   7.181   7.542
 2526POPC   NC334031  12.282  21.251   9.653
 2526POPC   PO434032  11.896  21.775   9.482
 2526POPC   GL134033  12.075  21.528   9.179
 2526POPC   GL234034  12.435  21.524   9.198
 2526POPC   C1A34035  11.881  21.457   8.777
 2526POPC   D2A34036  11.896  21.244   8.378
 2526POPC   C3A34037  11.866  21.542   8.008
 2526POPC   C4A34038  12.040  21.850   7.714
 2526POPC   C1B34039  12.359  21.298   8.782
 2526POPC   C2B34040  12.405  21.221   8.338
 2526POPC   C3B34041  12.180  21.117   7.968
 2526POPC   C4B34042  12.149  21.315   7.577
 2527POPC   NC334043   5.763  32.621   9.363
 2527POPC   PO434044   6.148  32.237   9.851
 2527POPC   GL134045   6.247  32.040   9.380
 2527POPC   GL234046   6.132  32.324   9.115
 2527POPC   C1A34047   6.173  31.866   8.919
 2527POPC   D2A34048   6.055  32.116   8.549
 2527POPC   C3A34049   6.088  32.089   8.114
 2527POPC   C4A34050   5.916  32.146   7.722
 2527POPC   C1B34051   5.795  32.470   8.776
 2527POPC   C2B34052   5.823  32.581   8.395
 2527POPC   C3B34053   5.643  32.405   8.067
 2527POPC   C4B34054   5.656  32.583   7.695
 2528POPC   NC334055  31.379  20.789   9.519
 2528POPC   PO434056  31.982  20.570   9.496
 2528POPC   GL134057  31.649  20.486   9.166
 2528POPC   GL234058  31.514  20.792   9.026
 2528POPC   C1A34059  31.510  20.437   8.691
 2528POPC   D2A34060  31.361  20.746   8.395
 2528POPC   C3A34061  31.452  20.595   8.007
 2528POPC   C4A34062  31.655  20.580   7.609
 2528POPC   C1B34063  31.697  21.047   8.633
 2528POPC   C2B34064  31.570  21.207   8.223
 2528POPC   C3B34065  31.527  21.038   7.785
 2528POPC   C4B34066  31.471  20.961   7.302
 2529POPC   NC334067  34.406  26.468   9.534
 2529POPC   PO434068  34.739  27.055   9.535
 2529POPC   GL134069  34.546  26.846   9.227
 2529POPC   GL234070  34.763  26.536   9.174
 2529POPC   C1A34071  34.363  26.996   8.873
 2529POPC   D2A34072  34.268  26.806   8.498
 2529POPC   C3A34073  34.389  27.000   8.082
 2529POPC   C4A34074  34.460  26.901   7.649
 2529POPC   C1B34075  34.602  26.472   8.784
 2529POPC   C2B34076  34.305  26.279   8.514
 2529POPC   C3B34077  34.309  26.469   8.102
 2529POPC   C4B34078  34.447  26.392   7.680
 2530POPC   NC334079  40.551  16.931   9.386
 2530POPC   PO434080  39.990  16.646   9.728
 2530POPC   GL134081  39.955  16.733   9.247
 2530POPC   GL234082  39.908  16.413   9.109
 2530POPC   C1A34083  40.092  16.936   8.815
 2530POPC   D2A34084  40.260  16.891   8.351
 2530POPC   C3A34085  40.011  16.826   7.939
 2530POPC   C4A34086  40.076  16.741   7.471
 2530POPC   C1B34087  40.146  16.447   8.725
 2530POPC   C2B34088  40.124  16.374   8.329
 2530POPC   C3B34089  39.871  16.341   7.990
 2530POPC   C4B34090  40.143  16.265   7.635
 2531POPC   NC334091  28.053   2.185   9.329
 2531POPC   PO434092  28.348   2.758   9.647
 2531POPC   GL134093  28.304   2.946   9.222
 2531POPC   GL234094  27.923   2.920   9.177
 2531POPC   C1A34095  28.583   3.047   8.844
 2531POPC   D2A34096  28.729   3.205   8.434
 2531POPC   C3A34097  28.520   3.040   8.068
 2531POPC   C4A34098  28.694   2.688   7.834
 2531POPC   C1B34099  28.105   2.833   8.760
 2531POPC   C2B34100  28.075   2.863   8.313
 2531POPC   C3B34101  28.188   2.596   7.979
 2531POPC   C4B34102  28.171   2.366   7.584
 2532POPC   NC334103  10.673   9.346   9.359
 2532POPC   PO434104  10.752   9.992   9.541
 2532POPC   GL134105  10.413   9.905   9.162
 2532POPC   GL234106  10.302   9.541   9.080
 2532POPC   C1A34107  10.349   9.834   8.684
 2532POPC   D2A34108  10.595   9.695   8.315
 2532POPC   C3A34109  10.373   9.775   7.958
 2532POPC   C4A34110  10.145   9.412   7.763
 2532POPC   C1B34111  10.512   9.327   8.693
 2532POPC   C2B34112  10.728   9.192   8.279
 2532POPC   C3B34113  10.660   9.374   7.856
 2532POPC   C4B34114  10.916   9.480   7.477
 2533POPC   NC334115  32.875  28.407   9.671
 2533POPC   PO434116  33.374  28.458   9.301
 2533POPC   GL134117  32.995  28.472   9.129
 2533POPC   GL234118  33.032  28.185   8.983
 2533POPC   C1A34119  32.949  28.627   8.702
 2533POPC   D2A34120  33.272  28.638   8.316
 2533POPC   C3A34121  33.091  28.576   7.901
 2533POPC   C4A34122  33.287  28.623   7.508
 2533POPC   C1B34123  33.220  28.218   8.585
 2533POPC   C2B34124  32.901  28.279   8.290
 2533POPC   C3B34125  32.800  28.145   7.899
 2533POPC   C4B34126  33.163  28.092   7.690
 2534POPC   NC334127   6.687  40.653   9.681
 2534POPC   PO434128   6.150  40.965   9.408
 2534POPC   GL134129   6.545  40.902   9.211
 2534POPC   GL234130   6.879  40.755   9.232
 2534POPC   C1A34131   6.636  40.745   8.797
 2534POPC   D2A34132   6.437  40.682   8.436
 2534POPC   C3A34133   6.733  40.761   8.125
 2534POPC   C4A34134   6.701  40.903   7.725
 2534POPC   C1B34135   7.098  40.552   8.930
 2534POPC   C2B34136   6.982  40.448   8.531
 2534POPC   C3B34137   7.119  40.391   8.142
 2534POPC   C4B34138   7.167  40.682   7.793
 2535POPC   NC334139  29.721  35.997   9.516
 2535POPC   PO434140  30.405  36.290   9.535
 2535POPC   GL134141  30.144  36.230   9.187
 2535POPC   GL234142  29.816  36.393   9.182
 2535POPC   C1A34143  30.105  36.314   8.750
 2535POPC   D2A34144  30.043  36.003   8.437
 2535POPC   C3A34145  30.118  36.257   8.098
 2535POPC   C4A34146  30.067  36.176   7.674
 2535POPC   C1B34147  29.608  36.216   8.806
 2535POPC   C2B34148  29.640  36.330   8.362
 2535POPC   C3B34149  29.640  36.109   7.974
 2535POPC   C4B34150  29.589  36.238   7.542
 2536POPC   NC334151   1.585   3.200   9.438
 2536POPC   PO434152   1.214   3.767   9.390
 2536POPC   GL134153   1.320   3.464   9.101
 2536POPC   GL234154   1.045   3.247   9.083
 2536POPC   C1A34155   1.454   3.613   8.744
 2536POPC   D2A34156   1.205   3.823   8.491
 2536POPC   C3A34157   1.151   3.737   8.092
 2536POPC   C4A34158   0.820   3.709   7.806
 2536POPC   C1B34159   0.945   3.386   8.652
 2536POPC   C2B34160   0.894   3.308   8.208
 2536POPC   C3B34161   1.093   3.245   7.817
 2536POPC   C4B34162   1.013   2.964   7.465
 2537POPC   NC334163  36.879  17.707   9.380
 2537POPC   PO434164  36.512  17.182   9.489
 2537POPC   GL134165  36.886  17.162   9.208
 2537POPC   GL234166  37.179  17.384   9.126
 2537POPC   C1A34167  36.900  17.165   8.747
 2537POPC   D2A34168  36.650  17.001   8.424
 2537POPC   C3A34169  36.715  17.222   8.068
 2537POPC   C4A34170  36.787  17.202   7.638
 2537POPC   C1B34171  37.316  17.599   8.751
 2537POPC   C2B34172  37.111  17.646   8.344
 2537POPC   C3B34173  37.039  17.569   7.899
 2537POPC   C4B34174  37.103  17.811   7.545
 2538POPC   NC334175  19.174  12.018   9.513
 2538POPC   PO434176  18.500  12.151   9.669
 2538POPC   GL134177  18.776  12.224   9.233
 2538POPC   GL234178  18.982  11.938   9.057
 2538POPC   C1A34179  19.039  12.368   8.840
 2538POPC   D2A34180  19.191  12.067   8.565
 2538POPC   C3A34181  19.180  12.160   8.141
 2538POPC   C4A34182  19.324  12.073   7.752
 2538POPC   C1B34183  18.872  11.678   8.738
 2538POPC   C2B34184  18.999  11.635   8.349
 2538POPC   C3B34185  18.982  11.722   7.920
 2538POPC   C4B34186  18.683  11.655   7.602
 2539POPC   NC334187  40.845   1.699   9.501
 2539POPC   PO434188  41.058   2.294   9.371
 2539POPC   GL134189  40.880   2.021   9.077
 2539POPC   GL234190  41.058   1.697   9.044
 2539POPC   C1A34191  40.563   2.159   8.780
 2539POPC   D2A34192  40.472   1.976   8.390
 2539POPC   C3A34193  40.623   2.211   8.010
 2539POPC   C4A34194  41.083   2.264   7.972
 2539POPC   C1B34195  41.106   1.781   8.620
 2539POPC   C2B34196  41.206   1.571   8.247
 2539POPC   C3B34197  41.016   1.752   7.878
 2539POPC   C4B34198  40.599   1.753   7.795
 2540POPC   NC334199  30.377  13.662   9.476
 2540POPC   PO434200  29.858  13.275   9.380
 2540POPC   GL134201  30.039  13.504   9.075
 2540POPC   GL234202  30.217  13.807   8.999
 2540POPC   C1A34203  29.887  13.599   8.658
 2540POPC   D2A34204  29.791  13.508   8.249
 2540POPC   C3A34205  29.893  13.803   7.943
 2540POPC   C4A34206  29.524  13.955   7.755
 2540POPC   C1B34207  30.373  13.444   8.706
 2540POPC   C2B34208  30.247  13.258   8.326
 2540POPC   C3B34209  30.165  13.344   7.892
 2540POPC   C4B34210  30.135  13.291   7.446
 2541POPC   NC334211   0.163  32.978   9.518
 2541POPC   PO434212   0.821  32.999   9.476
 2541POPC   GL134213   0.510  33.110   9.154
 2541POPC   GL234214   0.321  33.409   9.304
 2541POPC   C1A34215   0.256  32.853   8.850
 2541POPC   D2A34216   0.348  32.758   8.407
 2541POPC   C3A34217   0.652  33.063   8.252
 2541POPC   C4A34218   0.670  33.221   7.820
 2541POPC   C1B34219   0.258  33.493   8.903
 2541POPC   C2B34220   0.235  33.265   8.534
 2541POPC   C3B34221   0.218  33.287   8.112
 2541POPC   C4B34222   0.207  33.424   7.709
 2542POPC   NC334223  30.637  28.776   9.522
 2542POPC   PO434224  30.458  28.060   9.504
 2542POPC   GL134225  30.636  28.158   9.099
 2542POPC   GL234226  30.775  28.489   9.120
 2542POPC   C1A34227  30.504  28.279   8.696
 2542POPC   D2A34228  30.441  28.527   8.328
 2542POPC   C3A34229  30.414  28.289   7.957
 2542POPC   C4A34230  30.631  27.974   7.784
 2542POPC   C1B34231  30.842  28.665   8.711
 2542POPC   C2B34232  30.871  28.860   8.309
 2542POPC   C3B34233  30.755  28.677   7.945
 2542POPC   C4B34234  30.368  28.743   7.726
 2543POPC   NC334235   5.622  30.325   9.453
 2543POPC   PO434236   5.873  29.795   9.755
 2543POPC   GL134237   5.952  29.948   9.311
 2543POPC   GL234238   6.089  30.289   9.222
 2543POPC   C1A34239   6.167  29.912   8.898
 2543POPC   D2A34240   6.114  30.166   8.498
 2543POPC   C3A34241   5.921  29.899   8.198
 2543POPC   C4A34242   5.856  29.962   7.782
 2543POPC   C1B34243   5.731  30.163   8.861
 2543POPC   C2B34244   5.555  30.208   8.453
 2543POPC   C3B34245   5.408  30.020   8.055
 2543POPC   C4B34246   5.419  30.185   7.638
 2544POPC   NC334247  26.127   4.390   9.670
 2544POPC   PO434248  26.190   3.773   9.465
 2544POPC   GL134249  26.182   4.169   9.205
 2544POPC   GL234250  25.921   4.470   9.213
 2544POPC   C1A34251  26.226   4.315   8.789
 2544POPC   D2A34252  25.965   4.127   8.473
 2544POPC   C3A34253  26.020   4.199   8.081
 2544POPC   C4A34254  26.184   4.108   7.699
 2544POPC   C1B34255  25.697   4.316   8.855
 2544POPC   C2B34256  25.494   4.542   8.514
 2544POPC   C3B34257  25.628   4.690   8.098
 2544POPC   C4B34258  25.960   4.591   7.773
 2545POPC   NC334259  10.853  40.641   9.541
 2545POPC   PO434260  11.423  40.993   9.538
 2545POPC   GL134261  11.299  40.763   9.211
 2545POPC   GL234262  11.312  41.073   9.038
 2545POPC   C1A34263  11.496  40.646   8.828
 2545POPC   D2A34264  11.405  40.911   8.486
 2545POPC   C3A34265  11.207  40.696   8.173
 2545POPC   C4A34266  11.190  40.598   7.746
 2545POPC   C1B34267  11.022  41.238   8.781
 2545POPC   C2B34268  10.948  41.133   8.376
 2545POPC   C3B34269  11.222  41.196   8.071
 2545POPC   C4B34270  11.080  41.112   7.703
 2546POPC   NC334271   4.149  20.130   9.559
 2546POPC   PO434272   4.018  19.470   9.509
 2546POPC   GL134273   4.247  19.719   9.215
 2546POPC   GL234274   4.486  19.993   9.192
 2546POPC   C1A34275   4.112  19.812   8.843
 2546POPC   D2A34276   4.089  19.653   8.465
 2546POPC   C3A34277   4.393  19.754   8.208
 2546POPC   C4A34278   4.320  19.624   7.818
 2546POPC   C1B34279   4.554  20.018   8.744
 2546POPC   C2B34280   4.197  20.193   8.493
 2546POPC   C3B34281   4.168  20.186   8.070
 2546POPC   C4B34282   4.562  20.188   7.895
 2547POPC   NC334283  23.424  32.564   9.474
 2547POPC   PO434284  23.985  33.019   9.577
 2547POPC   GL134285  23.744  32.935   9.233
 2547POPC   GL234286  23.827  32.628   9.153
 2547POPC   C1A34287  23.559  32.962   8.819
 2547POPC   D2A34288  23.573  33.214   8.458
 2547POPC   C3A34289  23.509  32.994   8.068
 2547POPC   C4A34290  23.590  33.195   7.708
 2547POPC   C1B34291  24.000  32.709   8.744
 2547POPC   C2B34292  23.949  32.853   8.327
 2547POPC   C3B34293  23.973  32.851   7.888
 2547POPC   C4B34294  23.891  32.899   7.456
 2548POPC   NC334295  26.772  10.263   9.646
 2548POPC   PO434296  27.032   9.596   9.606
 2548POPC   GL134297  26.930   9.820   9.277
 2548POPC   GL234298  27.239   9.757   9.137
 2548POPC   C1A34299  26.743   9.818   8.857
 2548POPC   D2A34300  26.466   9.972   8.517
 2548POPC   C3A34301  26.545  10.171   8.115
 2548POPC   C4A34302  26.479   9.965   7.715
 2548POPC   C1B34303  27.214   9.659   8.720
 2548POPC   C2B34304  27.005   9.908   8.397
 2548POPC   C3B34305  26.822   9.730   8.032
 2548POPC   C4B34306  26.878   9.689   7.601
 2549POPC   NC334307  10.571   2.997   9.527
 2549POPC   PO434308  10.334   2.374   9.418
 2549POPC   GL134309  10.562   2.640   9.116
 2549POPC   GL234310  10.696   2.988   9.050
 2549POPC   C1A34311  10.666   2.608   8.716
 2549POPC   D2A34312  10.793   2.371   8.399
 2549POPC   C3A34313  10.593   2.503   8.027
 2549POPC   C4A34314  10.762   2.633   7.633
 2549POPC   C1B34315  10.373   3.068   8.777
 2549POPC   C2B34316  10.224   2.962   8.375
 2549POPC   C3B34317  10.396   2.967   7.965
 2549POPC   C4B34318  10.727   3.151   7.746
 2550POPC   NC334319  42.744   8.576   9.765
 2550POPC   PO434320  43.258   8.512   9.292
 2550POPC   GL134321  43.053   8.075   9.143
 2550POPC   GL234322  43.312   7.806   9.060
 2550POPC   C1A34323  42.759   8.081   8.753
 2550POPC   D2A34324  42.667   7.976   8.320
 2550POPC   C3A34325  42.794   8.308   8.034
 2550POPC   C4A34326  43.156   8.207   7.760
 2550POPC   C1B34327  43.289   8.107   8.709
 2550POPC   C2B34328  43.261   8.213   8.288
 2550POPC   C3B34329  43.591   8.337   8.023
 2550POPC   C4B34330  43.612   8.594   7.663
 2551POPC   NC334331  32.032  17.428   9.436
 2551POPC   PO434332  32.626  17.604   9.683
 2551POPC   GL134333  32.479  17.338   9.224
 2551POPC   GL234334  32.197  17.055   9.143
 2551POPC   C1A34335  32.293  17.415   8.782
 2551POPC   D2A34336  32.269  17.287   8.359
 2551POPC   C3A34337  32.223  17.665   8.047
 2551POPC   C4A34338  32.360  17.718   7.594
 2551POPC   C1B34339  31.851  17.169   8.853
 2551POPC   C2B34340  31.780  17.386   8.468
 2551POPC   C3B34341  31.888  17.267   8.050
 2551POPC   C4B34342  31.884  17.455   7.670
 2552POPC   NC334343  39.446   3.297   9.946
 2552POPC   PO434344  38.933   3.611   9.599
 2552POPC   GL134345  39.170   3.789   9.212
 2552POPC   GL234346  39.174   3.519   8.961
 2552POPC   C1A34347  39.406   3.934   8.798
 2552POPC   D2A34348  39.611   3.755   8.413
 2552POPC   C3A34349  39.373   3.743   8.039
 2552POPC   C4A34350  39.430   3.786   7.600
 2552POPC   C1B34351  39.172   3.522   8.525
 2552POPC   C2B34352  39.445   3.268   8.256
 2552POPC   C3B34353  39.339   3.157   7.845
 2552POPC   C4B34354  38.919   3.256   7.723
 2553POPC   NC334355  36.249  34.815   9.396
 2553POPC   PO434356  36.052  34.134   9.582
 2553POPC   GL134357  36.182  34.346   9.239
 2553POPC   GL234358  35.880  34.386   9.106
 2553POPC   C1A34359  36.338  34.449   8.840
 2553POPC   D2A34360  36.380  34.570   8.446
 2553POPC   C3A34361  36.093  34.568   8.174
 2553POPC   C4A34362  36.178  34.546   7.779
 2553POPC   C1B34363  35.820  34.509   8.668
 2553POPC   C2B34364  35.725  34.842   8.391
 2553POPC   C3B34365  35.815  34.991   7.988
 2553POPC   C4B34366  35.718  34.708   7.663
 2554POPC   NC334367  29.421  34.297   9.987
 2554POPC   PO434368  29.400  34.860   9.560
 2554POPC   GL134369  29.159  34.736   9.218
 2554POPC   GL234370  28.932  34.459   9.235
 2554POPC   C1A34371  29.251  34.507   8.831
 2554POPC   D2A34372  29.497  34.429   8.455
 2554POPC   C3A34373  29.370  34.550   8.077
 2554POPC   C4A34374  29.016  34.595   7.794
 2554POPC   C1B34375  28.808  34.264   8.815
 2554POPC   C2B34376  29.020  34.287   8.418
 2554POPC   C3B34377  29.099  34.139   7.995
 2554POPC   C4B34378  28.958  34.109   7.571
 2555POPC   NC334379  31.452  39.495   9.360
 2555POPC   PO434380  31.282  40.098   9.552
 2555POPC   GL134381  31.461  40.295   9.179
 2555POPC   GL234382  31.586  39.954   9.139
 2555POPC   C1A34383  31.389  40.229   8.727
 2555POPC   D2A34384  31.200  40.392   8.341
 2555POPC   C3A34385  31.400  40.267   7.985
 2555POPC   C4A34386  31.279  40.090   7.599
 2555POPC   C1B34387  31.583  39.743   8.746
 2555POPC   C2B34388  31.359  39.854   8.358
 2555POPC   C3B34389  31.437  39.739   7.952
 2555POPC   C4B34390  31.776  39.484   7.817
 2556POPC   NC334391   1.591  18.253   9.412
 2556POPC   PO434392   1.038  18.506   9.734
 2556POPC   GL134393   1.112  18.320   9.278
 2556POPC   GL234394   1.183  17.978   9.202
 2556POPC   C1A34395   1.236  18.442   8.828
 2556POPC   D2A34396   1.153  18.369   8.367
 2556POPC   C3A34397   1.507  18.377   8.072
 2556POPC   C4A34398   1.591  18.523   7.648
 2556POPC   C1B34399   0.973  18.006   8.780
 2556POPC   C2B34400   0.877  17.835   8.383
 2556POPC   C3B34401   0.843  18.090   8.043
 2556POPC   C4B34402   1.136  18.214   7.768
 2557POPC   NC334403  17.074  25.914   9.608
 2557POPC   PO434404  17.626  26.281   9.669
 2557POPC   GL134405  17.452  26.156   9.280
 2557POPC   GL234406  17.425  25.791   9.258
 2557POPC   C1A34407  17.434  26.307   8.837
 2557POPC   D2A34408  17.274  26.264   8.383
 2557POPC   C3A34409  17.590  26.220   8.051
 2557POPC   C4A34410  17.583  26.274   7.604
 2557POPC   C1B34411  17.768  25.905   8.944
 2557POPC   C2B34412  17.755  26.019   8.529
 2557POPC   C3B34413  17.899  25.830   8.158
 2557POPC   C4B34414  17.745  25.819   7.745
 2558POPC   NC334415  30.565   2.463   9.493
 2558POPC   PO434416  30.960   1.947   9.578
 2558POPC   GL134417  30.734   2.058   9.223
 2558POPC   GL234418  31.030   2.031   9.045
 2558POPC   C1A34419  30.585   2.064   8.801
 2558POPC   D2A34420  30.927   2.014   8.519
 2558POPC   C3A34421  30.821   2.155   8.171
 2558POPC   C4A34422  30.573   2.000   7.818
 2558POPC   C1B34423  30.890   1.643   8.854
 2558POPC   C2B34424  30.732   1.523   8.489
 2558POPC   C3B34425  30.819   1.650   8.108
 2558POPC   C4B34426  30.823   1.492   7.728
 2559POPC   NC334427  22.196  23.267   9.612
 2559POPC   PO434428  22.309  23.924   9.633
 2559POPC   GL134429  22.241  23.802   9.212
 2559POPC   GL234430  21.995  23.548   9.221
 2559POPC   C1A34431  22.383  23.883   8.786
 2559POPC   D2A34432  22.318  23.748   8.360
 2559POPC   C3A34433  22.274  24.021   7.937
 2559POPC   C4A34434  22.495  24.007   7.526
 2559POPC   C1B34435  21.869  23.711   8.822
 2559POPC   C2B34436  21.866  23.518   8.419
 2559POPC   C3B34437  21.997  23.603   7.984
 2559POPC   C4B34438  21.851  23.918   7.673
 2560POPC   NC334439   7.137  42.315   9.218
 2560POPC   PO434440   7.759  42.466   9.516
 2560POPC   GL134441   7.626  42.395   9.090
 2560POPC   GL234442   7.548  42.058   9.026
 2560POPC   C1A34443   7.538  42.348   8.621
 2560POPC   D2A34444   7.253  42.130   8.312
 2560POPC   C3A34445   7.253  42.414   7.956
 2560POPC   C4A34446   7.527  42.584   7.624
 2560POPC   C1B34447   7.522  41.817   8.679
 2560POPC   C2B34448   7.745  41.955   8.343
 2560POPC   C3B34449   7.594  41.862   7.972
 2560POPC   C4B34450   7.405  42.038   7.658
 2561POPC   NC334451  30.934  19.716   9.492
 2561POPC   PO434452  30.325  19.921   9.704
 2561POPC   GL134453  30.496  19.845   9.251
 2561POPC   GL234454  30.780  20.059   9.122
 2561POPC   C1A34455  30.397  19.845   8.785
 2561POPC   D2A34456  30.600  19.803   8.376
 2561POPC   C3A34457  30.501  19.726   7.949
 2561POPC   C4A34458  30.554  20.102   7.720
 2561POPC   C1B34459  30.935  19.749   8.800
 2561POPC   C2B34460  31.061  19.606   8.370
 2561POPC   C3B34461  30.997  19.845   7.961
 2561POPC   C4B34462  31.078  20.002   7.539
 2562POPC   NC334463  12.045   5.894   9.380
 2562POPC   PO434464  12.324   5.301   9.672
 2562POPC   GL134465  12.460   5.578   9.234
 2562POPC   GL234466  12.556   5.931   9.117
 2562POPC   C1A34467  12.243   5.709   8.797
 2562POPC   D2A34468  11.834   5.795   8.573
 2562POPC   C3A34469  11.836   5.640   8.145
 2562POPC   C4A34470  12.019   5.480   7.775
 2562POPC   C1B34471  12.424   6.154   8.714
 2562POPC   C2B34472  12.241   5.974   8.327
 2562POPC   C3B34473  12.095   5.994   7.879
 2562POPC   C4B34474  12.300   6.053   7.485
 2563POPC   NC334475  23.343   6.075   9.565
 2563POPC   PO434476  22.674   5.947   9.582
 2563POPC   GL134477  22.787   5.851   9.162
 2563POPC   GL234478  23.069   5.614   9.107
 2563POPC   C1A34479  22.813   6.002   8.748
 2563POPC   D2A34480  23.131   6.051   8.435
 2563POPC   C3A34481  22.929   6.032   8.038
 2563POPC   C4A34482  22.966   5.940   7.622
 2563POPC   C1B34483  23.125   5.595   8.673
 2563POPC   C2B34484  23.147   5.584   8.226
 2563POPC   C3B34485  23.182   5.473   7.772
 2563POPC   C4B34486  23.249   5.607   7.323
 2564POPC   NC334487   0.028  17.628   9.585
 2564POPC   PO434488  44.296  17.396   9.607
 2564POPC   GL134489  44.582  17.408   9.239
 2564POPC   GL234490  44.934  17.401   9.163
 2564POPC   C1A34491  44.489  17.496   8.826
 2564POPC   D2A34492  44.482  17.301   8.447
 2564POPC   C3A34493  44.475  17.600   8.130
 2564POPC   C4A34494  44.291  17.522   7.763
 2564POPC   C1B34495   0.002  17.647   8.821
 2564POPC   C2B34496  44.905  17.697   8.400
 2564POPC   C3B34497   0.097  17.667   7.997
 2564POPC   C4B34498  44.794  17.624   7.689
 2565POPC   NC334499  21.508  40.077   9.448
 2565POPC   PO434500  21.837  39.524   9.290
 2565POPC   GL134501  21.503  39.754   9.046
 2565POPC   GL234502  21.150  39.881   9.159
 2565POPC   C1A34503  21.322  39.944   8.683
 2565POPC   D2A34504  21.162  39.917   8.298
 2565POPC   C3A34505  21.456  39.833   7.998
 2565POPC   C4A34506  21.662  39.864   7.623
 2565POPC   C1B34507  21.036  40.264   8.935
 2565POPC   C2B34508  21.007  40.375   8.496
 2565POPC   C3B34509  21.023  40.375   8.049
 2565POPC   C4B34510  21.220  40.158   7.683
 2566POPC   NC334511  34.652  33.095   9.674
 2566POPC   PO434512  34.222  32.620   9.557
 2566POPC   GL134513  34.383  33.005   9.267
 2566POPC   GL234514  34.271  33.367   9.175
 2566POPC   C1A34515  34.572  33.057   8.856
 2566POPC   D2A34516  34.376  33.136   8.484
 2566POPC   C3A34517  34.386  32.999   8.065
 2566POPC   C4A34518  34.510  32.769   7.702
 2566POPC   C1B34519  34.446  33.566   8.770
 2566POPC   C2B34520  34.606  33.694   8.375
 2566POPC   C3B34521  34.497  33.520   8.007
 2566POPC   C4B34522  34.383  33.352   7.628
 2567POPC   NC334523  27.278  11.469   9.170
 2567POPC   PO434524  27.823  11.348   9.575
 2567POPC   GL134525  27.751  11.280   9.146
 2567POPC   GL234526  27.769  11.651   9.136
 2567POPC   C1A34527  27.602  11.128   8.722
 2567POPC   D2A34528  27.713  11.228   8.316
 2567POPC   C3A34529  27.395  11.103   8.068
 2567POPC   C4A34530  27.428  10.913   7.695
 2567POPC   C1B34531  27.859  11.568   8.714
 2567POPC   C2B34532  27.633  11.749   8.375
 2567POPC   C3B34533  27.735  11.626   7.992
 2567POPC   C4B34534  27.752  11.294   7.729
 2568POPC   NC334535  22.489  32.229   9.587
 2568POPC   PO434536  23.182  32.146   9.594
 2568POPC   GL134537  22.924  32.132   9.244
 2568POPC   GL234538  22.903  32.464   9.260
 2568POPC   C1A34539  22.869  32.232   8.790
 2568POPC   D2A34540  22.943  32.087   8.381
 2568POPC   C3A34541  23.281  32.054   8.111
 2568POPC   C4A34542  22.961  32.042   7.782
 2568POPC   C1B34543  23.180  32.609   8.885
 2568POPC   C2B34544  23.274  32.502   8.459
 2568POPC   C3B34545  23.106  32.528   8.057
 2568POPC   C4B34546  23.274  32.406   7.657
 2569POPC   NC334547   1.849  10.459   9.647
 2569POPC   PO434548   2.509  10.454   9.648
 2569POPC   GL134549   2.188  10.510   9.240
 2569POPC   GL234550   1.838  10.367   9.149
 2569POPC   C1A34551   2.054  10.681   8.809
 2569POPC   D2A34552   1.701  10.591   8.494
 2569POPC   C3A34553   1.785  10.675   8.061
 2569POPC   C4A34554   2.184  10.689   7.872
 2569POPC   C1B34555   1.870  10.158   8.725
 2569POPC   C2B34556   1.967  10.188   8.258
 2569POPC   C3B34557   2.023  10.224   7.783
 2569POPC   C4B34558   1.874  10.157   7.348
 2570POPC   NC334559  32.985  11.808   9.552
 2570POPC   PO434560  33.314  12.292   9.464
 2570POPC   GL134561  33.161  12.111   9.138
 2570POPC   GL234562  32.829  12.141   9.100
 2570POPC   C1A34563  33.101  11.957   8.706
 2570POPC   D2A34564  33.333  11.761   8.374
 2570POPC   C3A34565  33.137  11.998   8.035
 2570POPC   C4A34566  32.806  11.750   7.787
 2570POPC   C1B34567  32.620  12.195   8.686
 2570POPC   C2B34568  32.714  12.219   8.219
 2570POPC   C3B34569  32.789  12.266   7.754
 2570POPC   C4B34570  32.894  12.395   7.311
 2571POPC   NC334571  22.307  15.847   9.420
 2571POPC   PO434572  22.020  15.185   9.532
 2571POPC   GL134573  22.169  15.409   9.181
 2571POPC   GL234574  21.867  15.587   9.064
 2571POPC   C1A34575  22.225  15.376   8.740
 2571POPC   D2A34576  22.096  15.362   8.328
 2571POPC   C3A34577  22.190  14.949   8.141
 2571POPC   C4A34578  22.390  14.901   7.743
 2571POPC   C1B34579  21.766  15.184   8.813
 2571POPC   C2B34580  21.678  15.021   8.376
 2571POPC   C3B34581  21.778  15.186   7.946
 2571POPC   C4B34582  22.140  15.366   7.810
 2572POPC   NC334583  33.177  28.911   9.414
 2572POPC   PO434584  33.238  29.641   9.516
 2572POPC   GL134585  33.133  29.526   9.112
 2572POPC   GL234586  32.873  29.307   9.141
 2572POPC   C1A34587  33.230  29.237   8.754
 2572POPC   D2A34588  33.441  29.120   8.354
 2572POPC   C3A34589  33.455  29.432   8.011
 2572POPC   C4A34590  33.112  29.537   7.733
 2572POPC   C1B34591  32.717  29.124   8.738
 2572POPC   C2B34592  32.915  28.991   8.359
 2572POPC   C3B34593  33.062  29.079   7.970
 2572POPC   C4B34594  32.655  29.138   7.898
 2573POPC   NC334595  24.551  25.744   9.506
 2573POPC   PO434596  24.835  26.255   9.622
 2573POPC   GL134597  24.765  26.075   9.169
 2573POPC   GL234598  24.900  25.751   9.100
 2573POPC   C1A34599  24.469  26.048   8.774
 2573POPC   D2A34600  24.209  26.168   8.392
 2573POPC   C3A34601  24.293  26.037   7.981
 2573POPC   C4A34602  24.329  26.198   7.552
 2573POPC   C1B34603  24.992  25.971   8.693
 2573POPC   C2B34604  24.738  26.073   8.300
 2573POPC   C3B34605  24.774  26.166   7.848
 2573POPC   C4B34606  24.799  26.054   7.384
 2574POPC   NC334607  27.903  13.723   9.542
 2574POPC   PO434608  27.366  13.313   9.659
 2574POPC   GL134609  27.467  13.498   9.214
 2574POPC   GL234610  27.656  13.763   9.100
 2574POPC   C1A34611  27.469  13.417   8.758
 2574POPC   D2A34612  27.580  13.662   8.403
 2574POPC   C3A34613  27.356  13.610   7.989
 2574POPC   C4A34614  27.126  13.618   7.582
 2574POPC   C1B34615  27.667  14.040   8.768
 2574POPC   C2B34616  27.884  14.152   8.427
 2574POPC   C3B34617  27.714  14.011   8.077
 2574POPC   C4B34618  27.879  13.906   7.753
 2575POPC   NC334619  36.552  24.938   9.500
 2575POPC   PO434620  37.092  25.383   9.398
 2575POPC   GL134621  36.820  25.277   9.106
 2575POPC   GL234622  36.916  24.949   9.134
 2575POPC   C1A34623  36.920  25.213   8.675
 2575POPC   D2A34624  37.159  25.250   8.311
 2575POPC   C3A34625  36.838  25.320   8.011
 2575POPC   C4A34626  36.837  25.304   7.578
 2575POPC   C1B34627  37.095  24.754   8.798
 2575POPC   C2B34628  36.959  24.765   8.390
 2575POPC   C3B34629  37.074  24.857   7.980
 2575POPC   C4B34630  37.099  24.864   7.536
 2576POPC   NC334631  42.042   8.242   9.485
 2576POPC   PO434632  42.722   8.129   9.547
 2576POPC   GL134633  42.453   8.118   9.186
 2576POPC   GL234634  42.231   7.870   9.140
 2576POPC   C1A34635  42.246   8.258   8.807
 2576POPC   D2A34636  42.444   8.418   8.449
 2576POPC   C3A34637  42.260   8.255   8.134
 2576POPC   C4A34638  42.214   8.315   7.747
 2576POPC   C1B34639  42.380   7.734   8.712
 2576POPC   C2B34640  42.181   7.784   8.300
 2576POPC   C3B34641  42.287   7.820   7.866
 2576POPC   C4B34642  42.706   7.913   7.726
 2577POPC   NC334643  16.572  28.881   9.909
 2577POPC   PO434644  16.990  28.459   9.600
 2577POPC   GL134645  16.859  28.413   9.175
 2577POPC   GL234646  16.553  28.465   9.208
 2577POPC   C1A34647  16.746  28.556   8.748
 2577POPC   D2A34648  16.895  28.414   8.365
 2577POPC   C3A34649  16.819  28.575   7.935
 2577POPC   C4A34650  16.679  28.437   7.530
 2577POPC   C1B34651  16.514  28.116   8.906
 2577POPC   C2B34652  16.476  28.177   8.510
 2577POPC   C3B34653  16.359  28.459   8.181
 2577POPC   C4B34654  16.236  28.263   7.796
 2578POPC   NC334655   2.758  31.764   9.607
 2578POPC   PO434656   2.600  31.135   9.530
 2578POPC   GL134657   2.768  31.208   9.130
 2578POPC   GL234658   2.841  31.520   9.161
 2578POPC   C1A34659   2.751  31.357   8.690
 2578POPC   D2A34660   2.583  31.537   8.329
 2578POPC   C3A34661   2.826  31.414   8.032
 2578POPC   C4A34662   2.956  31.317   7.667
 2578POPC   C1B34663   3.049  31.757   8.815
 2578POPC   C2B34664   3.160  31.598   8.420
 2578POPC   C3B34665   3.224  31.736   8.013
 2578POPC   C4B34666   2.861  31.921   7.916
 2579POPC   NC334667  34.382  28.029   9.503
 2579POPC   PO434668  34.319  28.720   9.467
 2579POPC   GL134669  34.654  28.443   9.291
 2579POPC   GL234670  34.901  28.669   9.142
 2579POPC   C1A34671  34.753  28.202   8.890
 2579POPC   D2A34672  34.652  28.213   8.431
 2579POPC   C3A34673  34.519  27.939   8.093
 2579POPC   C4A34674  34.395  27.978   7.658
 2579POPC   C1B34675  34.530  28.678   8.851
 2579POPC   C2B34676  34.448  28.784   8.432
 2579POPC   C3B34677  34.517  28.578   8.057
 2579POPC   C4B34678  34.823  28.299   7.921
 2580POPC   NC334679  24.032   5.586   9.510
 2580POPC   PO434680  23.288   5.600   9.607
 2580POPC   GL134681  23.559   5.715   9.239
 2580POPC   GL234682  23.894   5.737   9.058
 2580POPC   C1A34683  23.481   5.924   8.833
 2580POPC   D2A34684  23.614   5.795   8.422
 2580POPC   C3A34685  23.445   5.936   8.010
 2580POPC   C4A34686  23.614   5.697   7.671
 2580POPC   C1B34687  23.987   6.069   8.766
 2580POPC   C2B34688  23.989   6.143   8.347
 2580POPC   C3B34689  23.952   5.924   8.009
 2580POPC   C4B34690  23.970   6.030   7.586
 2581POPC   NC334691  30.832  44.151   9.579
 2581POPC   PO434692  30.853  44.872   9.498
 2581POPC   GL134693  30.646  44.624   9.172
 2581POPC   GL234694  30.575  44.252   9.159
 2581POPC   C1A34695  30.737  44.564   8.743
 2581POPC   D2A34696  30.779  44.757   8.347
 2581POPC   C3A34697  30.843  44.634   7.931
 2581POPC   C4A34698  30.662  44.870   7.604
 2581POPC   C1B34699  30.374  44.218   8.755
 2581POPC   C2B34700  30.594  44.267   8.342
 2581POPC   C3B34701  30.520  44.173   7.910
 2581POPC   C4B34702  30.375  44.434   7.592
 2582POPC   NC334703   6.434  35.648   9.791
 2582POPC   PO434704   5.820  35.625   9.609
 2582POPC   GL134705   5.952  35.314   9.265
 2582POPC   GL234706   5.681  35.080   9.139
 2582POPC   C1A34707   6.093  35.334   8.818
 2582POPC   D2A34708   6.278  35.443   8.403
 2582POPC   C3A34709   6.040  35.632   8.063
 2582POPC   C4A34710   5.736  35.418   7.820
 2582POPC   C1B34711   5.595  35.331   8.757
 2582POPC   C2B34712   5.683  35.355   8.348
 2582POPC   C3B34713   5.967  35.106   8.144
 2582POPC   C4B34714   5.912  34.925   7.770
 2583POPC   NC334715   3.575  19.622   9.555
 2583POPC   PO434716   3.034  19.872   9.308
 2583POPC   GL134717   3.431  19.902   9.111
 2583POPC   GL234718   3.781  19.946   9.214
 2583POPC   C1A34719   3.625  19.652   8.799
 2583POPC   D2A34720   3.604  19.517   8.395
 2583POPC   C3A34721   3.336  19.781   8.159
 2583POPC   C4A34722   3.407  19.851   7.730
 2583POPC   C1B34723   3.747  20.161   8.801
 2583POPC   C2B34724   3.724  20.023   8.391
 2583POPC   C3B34725   3.841  19.802   8.019
 2583POPC   C4B34726   3.869  20.079   7.668
 2584POPC   NC334727  29.545   1.320   9.406
 2584POPC   PO434728  28.868   1.240   9.539
 2584POPC   GL134729  29.083   1.456   9.191
 2584POPC   GL234730  29.251   1.170   9.012
 2584POPC   C1A34731  29.056   1.588   8.763
 2584POPC   D2A34732  29.314   1.314   8.511
 2584POPC   C3A34733  29.304   1.414   8.100
 2584POPC   C4A34734  29.025   1.378   7.779
 2584POPC   C1B34735  29.408   0.833   8.717
 2584POPC   C2B34736  29.298   0.735   8.298
 2584POPC   C3B34737  29.206   0.932   7.905
 2584POPC   C4B34738  29.156   1.001   7.442
 2585POPC   NC334739  25.377  31.159   9.525
 2585POPC   PO434740  25.067  31.704   9.521
 2585POPC   GL134741  25.152  31.435   9.147
 2585POPC   GL234742  25.487  31.292   9.055
 2585POPC   C1A34743  25.083  31.323   8.714
 2585POPC   D2A34744  25.220  31.133   8.326
 2585POPC   C3A34745  25.169  31.455   8.026
 2585POPC   C4A34746  24.763  31.612   7.898
 2585POPC   C1B34747  25.561  31.652   8.798
 2585POPC   C2B34748  25.430  31.790   8.407
 2585POPC   C3B34749  25.535  31.840   7.976
 2585POPC   C4B34750  25.451  31.604   7.598
 2586POPC   NC334751  14.649  39.479   9.270
 2586POPC   PO434752  14.347  39.016   9.672
 2586POPC   GL134753  14.311  39.093   9.227
 2586POPC   GL234754  13.979  39.128   9.231
 2586POPC   C1A34755  14.396  39.200   8.769
 2586POPC   D2A34756  14.518  38.975   8.409
 2586POPC   C3A34757  14.539  39.281   8.126
 2586POPC   C4A34758  14.478  39.253   7.725
 2586POPC   C1B34759  13.902  39.223   8.821
 2586POPC   C2B34760  14.027  39.075   8.437
 2586POPC   C3B34761  14.087  39.006   8.022
 2586POPC   C4B34762  13.973  39.233   7.661
 2587POPC   NC334763  18.192  10.512   9.597
 2587POPC   PO434764  18.604   9.899   9.636
 2587POPC   GL134765  18.551  10.270   9.289
 2587POPC   GL234766  18.189  10.332   9.142
 2587POPC   C1A34767  18.561  10.488   8.859
 2587POPC   D2A34768  18.448  10.292   8.483
 2587POPC   C3A34769  18.479  10.427   8.084
 2587POPC   C4A34770  18.371  10.318   7.677
 2587POPC   C1B34771  17.971  10.425   8.760
 2587POPC   C2B34772  18.025  10.534   8.353
 2587POPC   C3B34773  17.943  10.406   7.974
 2587POPC   C4B34774  17.843  10.651   7.640
 2588POPC   NC334775  11.765   8.303   9.829
 2588POPC   PO434776  12.095   7.838   9.444
 2588POPC   GL134777  12.069   8.047   9.109
 2588POPC   GL234778  11.851   8.335   9.276
 2588POPC   C1A34779  12.305   7.874   8.752
 2588POPC   D2A34780  12.197   7.829   8.332
 2588POPC   C3A34781  12.335   8.140   8.045
 2588POPC   C4A34782  11.944   8.241   7.844
 2588POPC   C1B34783  12.094   8.524   8.914
 2588POPC   C2B34784  12.202   8.444   8.467
 2588POPC   C3B34785  12.210   8.642   8.050
 2588POPC   C4B34786  11.815   8.731   7.842
 2589POPC   NC334787  35.746  21.986   9.540
 2589POPC   PO434788  36.359  22.281   9.630
 2589POPC   GL134789  36.499  22.174   9.214
 2589POPC   GL234790  36.195  22.164   9.087
 2589POPC   C1A34791  36.625  22.048   8.783
 2589POPC   D2A34792  36.497  22.035   8.344
 2589POPC   C3A34793  36.142  21.968   8.108
 2589POPC   C4A34794  36.206  21.755   7.749
 2589POPC   C1B34795  36.238  22.366   8.690
 2589POPC   C2B34796  35.999  22.421   8.325
 2589POPC   C3B34797  36.028  22.430   7.917
 2589POPC   C4B34798  36.225  22.283   7.583
 2590POPC   NC334799  27.053  21.707   9.764
 2590POPC   PO434800  26.790  22.223   9.660
 2590POPC   GL134801  26.820  21.979   9.291
 2590POPC   GL234802  26.939  22.311   9.159
 2590POPC   C1A34803  27.025  21.900   8.885
 2590POPC   D2A34804  27.136  22.094   8.517
 2590POPC   C3A34805  26.899  22.016   8.128
 2590POPC   C4A34806  27.068  22.067   7.727
 2590POPC   C1B34807  26.971  22.531   8.771
 2590POPC   C2B34808  26.835  22.482   8.349
 2590POPC   C3B34809  26.899  22.503   7.922
 2590POPC   C4B34810  26.630  22.336   7.625
 2591POPC   NC334811  29.895  40.182   9.587
 2591POPC   PO434812  30.087  39.566   9.499
 2591POPC   GL134813  30.047  39.928   9.178
 2591POPC   GL234814  29.718  40.112   9.122
 2591POPC   C1A34815  30.016  39.928   8.735
 2591POPC   D2A34816  29.884  39.646   8.401
 2591POPC   C3A34817  29.888  39.842   7.978
 2591POPC   C4A34818  30.188  40.039   7.726
 2591POPC   C1B34819  29.505  40.090   8.731
 2591POPC   C2B34820  29.603  40.123   8.310
 2591POPC   C3B34821  29.734  40.368   7.959
 2591POPC   C4B34822  29.815  40.370   7.502
 2592POPC   NC334823  16.055  10.990   9.509
 2592POPC   PO434824  15.833  11.595   9.596
 2592POPC   GL134825  15.983  11.411   9.235
 2592POPC   GL234826  16.217  11.175   9.049
 2592POPC   C1A34827  15.736  11.386   8.878
 2592POPC   D2A34828  15.723  11.229   8.452
 2592POPC   C3A34829  15.793  11.519   8.125
 2592POPC   C4A34830  15.957  11.558   7.725
 2592POPC   C1B34831  15.933  10.917   8.813
 2592POPC   C2B34832  15.948  10.746   8.372
 2592POPC   C3B34833  16.046  10.952   7.962
 2592POPC   C4B34834  15.883  11.099   7.543
 2593POPC   NC334835  24.921  23.002   9.577
 2593POPC   PO434836  24.250  22.932   9.713
 2593POPC   GL134837  24.491  22.850   9.323
 2593POPC   GL234838  24.577  23.164   9.170
 2593POPC   C1A34839  24.484  22.715   8.881
 2593POPC   D2A34840  24.441  22.883   8.433
 2593POPC   C3A34841  24.646  22.615   8.105
 2593POPC   C4A34842  24.778  22.720   7.645
 2593POPC   C1B34843  24.773  23.116   8.756
 2593POPC   C2B34844  24.836  23.247   8.384
 2593POPC   C3B34845  24.655  23.128   8.007
 2593POPC   C4B34846  24.516  23.275   7.638
 2594POPC   NC334847  20.608   2.283   9.619
 2594POPC   PO434848  20.242   1.664   9.579
 2594POPC   GL134849  20.475   1.814   9.200
 2594POPC   GL234850  20.687   2.074   9.167
 2594POPC   C1A34851  20.710   1.630   8.838
 2594POPC   D2A34852  20.814   1.758   8.403
 2594POPC   C3A34853  20.516   1.879   8.099
 2594POPC   C4A34854  20.668   1.895   7.689
 2594POPC   C1B34855  20.528   2.125   8.766
 2594POPC   C2B34856  20.673   2.325   8.398
 2594POPC   C3B34857  20.705   2.352   7.960
 2594POPC   C4B34858  20.338   2.286   7.700
 2595POPC   NC334859   4.299  41.517   9.445
 2595POPC   PO434860   4.472  42.163   9.627
 2595POPC   GL134861   4.479  42.052   9.147
 2595POPC   GL234862   4.199  41.850   9.056
 2595POPC   C1A34863   4.584  41.835   8.739
 2595POPC   D2A34864   4.324  41.720   8.399
 2595POPC   C3A34865   4.558  41.650   8.043
 2595POPC   C4A34866   4.453  41.743   7.611
 2595POPC   C1B34867   4.279  41.421   8.815
 2595POPC   C2B34868   4.363  41.214   8.425
 2595POPC   C3B34869   4.174  41.316   8.045
 2595POPC   C4B34870   4.413  41.249   7.684
 2596POPC   NC334871  33.206  39.421   9.557
 2596POPC   PO434872  33.227  38.754   9.324
 2596POPC   GL134873  33.249  39.132   9.131
 2596POPC   GL234874  32.908  39.242   9.181
 2596POPC   C1A34875  33.182  39.248   8.720
 2596POPC   D2A34876  33.312  39.124   8.339
 2596POPC   C3A34877  33.112  39.085   7.956
 2596POPC   C4A34878  33.326  39.255   7.606
 2596POPC   C1B34879  32.747  39.480   8.810
 2596POPC   C2B34880  32.804  39.334   8.370
 2596POPC   C3B34881  32.710  39.466   7.971
 2596POPC   C4B34882  32.832  39.763   7.720
 2597POPC   NC334883  23.709  43.446   9.764
 2597POPC   PO434884  23.689  44.168   9.599
 2597POPC   GL134885  23.809  44.087   9.183
 2597POPC   GL234886  23.477  44.010   9.096
 2597POPC   C1A34887  23.994  43.861   8.812
 2597POPC   D2A34888  23.936  43.919   8.385
 2597POPC   C3A34889  23.939  43.669   8.042
 2597POPC   C4A34890  23.740  43.717   7.700
 2597POPC   C1B34891  23.483  43.904   8.671
 2597POPC   C2B34892  23.406  43.858   8.240
 2597POPC   C3B34893  23.258  43.842   7.808
 2597POPC   C4B34894  23.276  43.782   7.360
 2598POPC   NC334895  43.177  37.163   9.546
 2598POPC   PO434896  42.805  36.597   9.746
 2598POPC   GL134897  42.921  36.763   9.306
 2598POPC   GL234898  43.237  36.819   9.103
 2598POPC   C1A34899  42.787  36.857   8.882
 2598POPC   D2A34900  42.947  36.738   8.483
 2598POPC   C3A34901  42.860  36.940   8.118
 2598POPC   C4A34902  42.773  36.815   7.711
 2598POPC   C1B34903  43.223  37.095   8.709
 2598POPC   C2B34904  43.133  37.331   8.333
 2598POPC   C3B34905  43.267  37.451   7.955
 2598POPC   C4B34906  43.231  37.054   7.813
 2599POPC   NC334907  42.291  22.658   9.493
 2599POPC   PO434908  42.845  22.943   9.519
 2599POPC   GL134909  42.613  22.986   9.131
 2599POPC   GL234910  42.252  23.018   9.124
 2599POPC   C1A34911  42.528  22.878   8.702
 2599POPC   D2A34912  42.728  22.831   8.303
 2599POPC   C3A34913  42.464  22.871   7.993
 2599POPC   C4A34914  42.488  23.069   7.579
 2599POPC   C1B34915  42.011  22.886   8.764
 2599POPC   C2B34916  42.115  23.066   8.372
 2599POPC   C3B34917  41.970  22.911   7.994
 2599POPC   C4B34918  42.085  22.764   7.589
 2600POPC   NC334919  16.795  21.816   9.294
 2600POPC   PO434920  16.710  21.268   9.700
 2600POPC   GL134921  16.664  21.200   9.254
 2600POPC   GL234922  16.303  21.056   9.255
 2600POPC   C1A34923  16.823  21.369   8.828
 2600POPC   D2A34924  17.015  21.541   8.459
 2600POPC   C3A34925  16.843  21.441   8.066
 2600POPC   C4A34926  16.856  21.710   7.734
 2600POPC   C1B34927  16.352  21.214   8.841
 2600POPC   C2B34928  16.480  21.339   8.440
 2600POPC   C3B34929  16.336  21.597   8.122
 2600POPC   C4B34930  16.426  21.367   7.780
 2601POPC   NC334931  22.555   3.819   9.666
 2601POPC   PO434932  23.027   3.300   9.481
 2601POPC   GL134933  23.125   3.437   9.099
 2601POPC   GL234934  23.036   3.781   9.107
 2601POPC   C1A34935  23.178   3.411   8.686
 2601POPC   D2A34936  23.265   3.275   8.288
 2601POPC   C3A34937  22.998   3.431   8.008
 2601POPC   C4A34938  22.900   3.217   7.688
 2601POPC   C1B34939  23.287   3.945   8.767
 2601POPC   C2B34940  23.211   3.826   8.387
 2601POPC   C3B34941  23.356   3.784   8.043
 2601POPC   C4B34942  23.162   3.783   7.651
 2602POPC   NC334943  17.757  37.789   9.513
 2602POPC   PO434944  17.084  37.511   9.440
 2602POPC   GL134945  17.387  37.649   9.146
 2602POPC   GL234946  17.383  37.985   9.215
 2602POPC   C1A34947  17.439  37.660   8.701
 2602POPC   D2A34948  17.529  37.389   8.359
 2602POPC   C3A34949  17.353  37.406   7.977
 2602POPC   C4A34950  17.643  37.522   7.689
 2602POPC   C1B34951  17.524  38.133   8.865
 2602POPC   C2B34952  17.547  38.146   8.443
 2602POPC   C3B34953  17.509  37.891   8.096
 2602POPC   C4B34954  17.596  38.102   7.739
 2603POPC   NC334955  37.738  17.978   9.557
 2603POPC   PO434956  37.530  18.564   9.820
 2603POPC   GL134957  37.706  18.461   9.364
 2603POPC   GL234958  37.512  18.181   9.156
 2603POPC   C1A34959  37.953  18.352   8.970
 2603POPC   D2A34960  38.041  18.225   8.514
 2603POPC   C3A34961  37.773  18.271   8.134
 2603POPC   C4A34962  37.962  18.393   7.707
 2603POPC   C1B34963  37.516  18.291   8.702
 2603POPC   C2B34964  37.242  18.180   8.359
 2603POPC   C3B34965  37.334  17.974   7.997
 2603POPC   C4B34966  37.583  18.065   7.681
 2604POPC   NC334967  19.929  24.724   9.271
 2604POPC   PO434968  19.812  24.171   9.552
 2604POPC   GL134969  19.664  24.276   9.123
 2604POPC   GL234970  19.431  24.570   9.054
 2604POPC   C1A34971  19.845  24.408   8.728
 2604POPC   D2A34972  20.056  24.194   8.451
 2604POPC   C3A34973  19.779  24.283   8.164
 2604POPC   C4A34974  19.763  24.314   7.760
 2604POPC   C1B34975  19.581  24.883   8.746
 2604POPC   C2B34976  19.808  24.887   8.384
 2604POPC   C3B34977  19.899  24.756   7.980
 2604POPC   C4B34978  19.667  24.786   7.604
 2605POPC   NC334979  30.152  41.833   9.483
 2605POPC   PO434980  29.767  41.247   9.417
 2605POPC   GL134981  29.846  41.350   9.005
 2605POPC   GL234982  29.934  41.662   9.070
 2605POPC   C1A34983  30.042  41.382   8.601
 2605POPC   D2A34984  29.984  41.269   8.149
 2605POPC   C3A34985  29.635  41.484   7.984
 2605POPC   C4A34986  29.518  41.605   7.562
 2605POPC   C1B34987  30.019  41.875   8.728
 2605POPC   C2B34988  29.907  41.795   8.322
 2605POPC   C3B34989  30.047  41.790   7.928
 2605POPC   C4B34990  30.183  42.180   7.766
 2606POPC   NC334991  15.355  24.411   9.603
 2606POPC   PO434992  14.953  24.936   9.453
 2606POPC   GL134993  15.194  24.673   9.185
 2606POPC   GL234994  15.088  24.280   9.168
 2606POPC   C1A34995  15.211  24.769   8.764
 2606POPC   D2A34996  14.958  24.688   8.424
 2606POPC   C3A34997  15.204  24.627   8.068
 2606POPC   C4A34998  15.366  24.605   7.638
 2606POPC   C1B34999  14.938  24.079   8.756
 2606POPC   C2B35000  14.956  24.122   8.291
 2606POPC   C3B35001  15.073  24.194   7.833
 2606POPC   C4B35002  15.005  24.287   7.349
 2607POPC   NC335003  43.018  26.489   9.528
 2607POPC   PO435004  43.461  26.946   9.546
 2607POPC   GL135005  43.227  26.834   9.222
 2607POPC   GL235006  43.464  26.594   9.165
 2607POPC   C1A35007  43.024  26.906   8.840
 2607POPC   D2A35008  43.226  26.814   8.466
 2607POPC   C3A35009  43.079  26.794   8.066
 2607POPC   C4A35010  43.088  27.064   7.731
 2607POPC   C1B35011  43.440  26.452   8.761
 2607POPC   C2B35012  43.350  26.326   8.332
 2607POPC   C3B35013  43.458  26.481   7.899
 2607POPC   C4B35014  43.461  26.757   7.532
 2608POPC   NC335015   8.683   2.151   9.524
 2608POPC   PO435016   9.439   2.054   9.412
 2608POPC   GL135017   9.229   1.932   9.088
 2608POPC   GL235018   8.889   1.891   9.125
 2608POPC   C1A35019   9.070   2.163   8.749
 2608POPC   D2A35020   9.067   2.027   8.353
 2608POPC   C3A35021   9.019   2.277   8.004
 2608POPC   C4A35022   9.160   2.146   7.662
 2608POPC   C1B35023   8.604   1.952   8.826
 2608POPC   C2B35024   8.546   2.131   8.464
 2608POPC   C3B35025   8.622   1.996   8.087
 2608POPC   C4B35026   8.819   1.744   7.846
 2609POPC   NC335027  34.188  14.150   9.543
 2609POPC   PO435028  33.506  14.240   9.495
 2609POPC   GL135029  33.824  14.329   9.150
 2609POPC   GL235030  34.042  14.048   9.078
 2609POPC   C1A35031  33.857  14.333   8.681
 2609POPC   D2A35032  33.881  14.669   8.366
 2609POPC   C3A35033  33.552  14.588   8.074
 2609POPC   C4A35034  33.546  14.259   7.770
 2609POPC   C1B35035  34.302  14.090   8.723
 2609POPC   C2B35036  34.150  14.004   8.330
 2609POPC   C3B35037  33.980  14.283   8.053
 2609POPC   C4B35038  34.016  14.445   7.649
 2610POPC   NC335039  17.776  16.938   9.493
 2610POPC   PO435040  17.161  17.111   9.575
 2610POPC   GL135041  17.368  16.785   9.211
 2610POPC   GL235042  17.707  16.561   9.147
 2610POPC   C1A35043  17.391  16.613   8.759
 2610POPC   D2A35044  17.554  16.738   8.366
 2610POPC   C3A35045  17.305  16.833   8.003
 2610POPC   C4A35046  17.423  17.101   7.681
 2610POPC   C1B35047  17.855  16.858   8.794
 2610POPC   C2B35048  18.022  17.005   8.374
 2610POPC   C3B35049  17.859  16.834   7.981
 2610POPC   C4B35050  17.629  16.465   7.851
 2611POPC   NC335051  19.921  43.246   9.411
 2611POPC   PO435052  19.554  43.874   9.528
 2611POPC   GL135053  19.903  43.747   9.308
 2611POPC   GL235054  19.664  43.555   9.113
 2611POPC   C1A35055  20.074  43.886   8.927
 2611POPC   D2A35056  19.844  43.955   8.543
 2611POPC   C3A35057  19.979  43.925   8.109
 2611POPC   C4A35058  20.164  43.944   7.689
 2611POPC   C1B35059  19.508  43.530   8.724
 2611POPC   C2B35060  19.668  43.532   8.300
 2611POPC   C3B35061  19.501  43.692   7.941
 2611POPC   C4B35062  19.263  43.635   7.573
 2612POPC   NC335063  17.171  36.980   9.459
 2612POPC   PO435064  17.850  37.129   9.461
 2612POPC   GL135065  17.558  37.147   9.163
 2612POPC   GL235066  17.545  36.784   9.066
 2612POPC   C1A35067  17.348  37.149   8.781
 2612POPC   D2A35068  17.543  36.898   8.466
 2612POPC   C3A35069  17.360  36.871   8.071
 2612POPC   C4A35070  17.497  37.018   7.690
 2612POPC   C1B35071  17.822  36.572   8.775
 2612POPC   C2B35072  17.742  36.445   8.402
 2612POPC   C3B35073  17.806  36.646   8.045
 2612POPC   C4B35074  17.652  36.540   7.671
 2613POPC   NC335075   3.331  26.825   9.877
 2613POPC   PO435076   3.312  26.463   9.298
 2613POPC   GL135077   3.383  26.866   9.147
 2613POPC   GL235078   3.711  26.843   9.050
 2613POPC   C1A35079   3.366  27.035   8.710
 2613POPC   D2A35080   3.299  26.795   8.306
 2613POPC   C3A35081   3.374  27.042   7.941
 2613POPC   C4A35082   3.673  27.254   7.682
 2613POPC   C1B35083   3.564  26.547   8.698
 2613POPC   C2B35084   3.699  26.452   8.258
 2613POPC   C3B35085   3.844  26.776   7.948
 2613POPC   C4B35086   3.847  26.772   7.498
 2614POPC   NC335087   9.184   8.209   9.436
 2614POPC   PO435088   9.779   7.926   9.462
 2614POPC   GL135089   9.840   8.080   9.092
 2614POPC   GL235090   9.568   8.335   9.111
 2614POPC   C1A35091  10.050   7.967   8.742
 2614POPC   D2A35092  10.001   8.196   8.372
 2614POPC   C3A35093  10.097   7.986   8.021
 2614POPC   C4A35094  10.046   8.097   7.590
 2614POPC   C1B35095   9.557   8.142   8.686
 2614POPC   C2B35096   9.501   7.934   8.296
 2614POPC   C3B35097   9.606   8.010   7.868
 2614POPC   C4B35098   9.577   8.325   7.581
 2615POPC   NC335099  29.133  27.948   9.538
 2615POPC   PO435100  29.551  28.478   9.556
 2615POPC   GL135101  29.182  28.386   9.281
 2615POPC   GL235102  29.147  28.615   9.000
 2615POPC   C1A35103  29.029  28.121   8.922
 2615POPC   D2A35104  29.115  28.176   8.492
 2615POPC   C3A35105  28.837  28.248   8.169
 2615POPC   C4A35106  28.983  28.242   7.758
 2615POPC   C1B35107  29.478  28.504   8.672
 2615POPC   C2B35108  29.425  28.499   8.186
 2615POPC   C3B35109  29.243  28.707   7.787
 2615POPC   C4B35110  29.274  29.067   7.475
 2616POPC   NC335111  16.513  27.080   9.337
 2616POPC   PO435112  16.078  26.905   9.804
 2616POPC   GL135113  16.073  26.791   9.340
 2616POPC   GL235114  16.037  27.128   9.190
 2616POPC   C1A35115  15.880  26.752   8.903
 2616POPC   D2A35116  15.972  26.713   8.454
 2616POPC   C3A35117  15.802  26.922   8.095
 2616POPC   C4A35118  15.613  26.941   7.694
 2616POPC   C1B35119  16.250  27.100   8.750
 2616POPC   C2B35120  16.186  27.211   8.332
 2616POPC   C3B35121  16.340  27.205   7.912
 2616POPC   C4B35122  16.377  27.017   7.507
 2617POPC   NC335123  18.855   2.492   9.556
 2617POPC   PO435124  18.192   2.818   9.542
 2617POPC   GL135125  18.363   2.621   9.216
 2617POPC   GL235126  18.603   2.832   9.140
 2617POPC   C1A35127  18.278   2.628   8.783
 2617POPC   D2A35128  18.088   2.863   8.465
 2617POPC   C3A35129  18.177   2.743   8.047
 2617POPC   C4A35130  18.301   2.378   7.800
 2617POPC   C1B35131  18.504   3.108   8.816
 2617POPC   C2B35132  18.534   3.298   8.429
 2617POPC   C3B35133  18.634   3.179   8.026
 2617POPC   C4B35134  18.450   2.996   7.680
 2618POPC   NC335135   9.609  20.758   9.617
 2618POPC   PO435136  10.215  20.415   9.543
 2618POPC   GL135137   9.926  20.692   9.227
 2618POPC   GL235138   9.565  20.689   9.124
 2618POPC   C1A35139   9.952  20.754   8.770
 2618POPC   D2A35140   9.820  20.944   8.360
 2618POPC   C3A35141   9.837  20.703   7.945
 2618POPC   C4A35142   9.724  20.329   7.665
 2618POPC   C1B35143   9.457  20.986   8.820
 2618POPC   C2B35144   9.266  20.973   8.434
 2618POPC   C3B35145   9.421  21.021   8.041
 2618POPC   C4B35146   9.377  20.780   7.710
 2619POPC   NC335147   4.776  43.375   9.661
 2619POPC   PO435148   4.269  43.031   9.525
 2619POPC   GL135149   4.425  43.256   9.150
 2619POPC   GL235150   4.712  43.490   9.168
 2619POPC   C1A35151   4.170  43.150   8.791
 2619POPC   D2A35152   4.079  42.889   8.423
 2619POPC   C3A35153   4.259  42.979   8.034
 2619POPC   C4A35154   4.503  42.952   7.668
 2619POPC   C1B35155   4.751  43.253   8.772
 2619POPC   C2B35156   4.545  43.225   8.376
 2619POPC   C3B35157   4.777  43.244   7.974
 2619POPC   C4B35158   4.732  43.388   7.498
 2620POPC   NC335159  36.726  24.190   9.763
 2620POPC   PO435160  36.937  24.712   9.618
 2620POPC   GL135161  36.860  24.439   9.280
 2620POPC   GL235162  36.579  24.576   9.095
 2620POPC   C1A35163  37.137  24.290   8.959
 2620POPC   D2A35164  37.202  24.204   8.521
 2620POPC   C3A35165  37.249  24.405   8.126
 2620POPC   C4A35166  37.275  24.157   7.743
 2620POPC   C1B35167  36.702  24.418   8.706
 2620POPC   C2B35168  36.765  24.304   8.290
 2620POPC   C3B35169  36.725  24.455   7.895
 2620POPC   C4B35170  36.629  24.855   7.717
 2621POPC   NC335171  12.773   6.256   9.536
 2621POPC   PO435172  12.760   6.909   9.467
 2621POPC   GL135173  13.000   6.638   9.235
 2621POPC   GL235174  12.728   6.462   9.084
 2621POPC   C1A35175  13.184   6.586   8.844
 2621POPC   D2A35176  13.034   6.609   8.418
 2621POPC   C3A35177  13.237   6.475   8.079
 2621POPC   C4A35178  13.224   6.721   7.693
 2621POPC   C1B35179  12.619   6.629   8.696
 2621POPC   C2B35180  12.552   6.488   8.290
 2621POPC   C3B35181  12.766   6.574   7.907
 2621POPC   C4B35182  12.668   6.392   7.507
 2622POPC   NC335183  10.995  12.564   9.448
 2622POPC   PO435184  10.385  12.835   9.709
 2622POPC   GL135185  10.535  12.700   9.290
 2622POPC   GL235186  10.516  12.993   9.055
 2622POPC   C1A35187  10.559  12.506   8.881
 2622POPC   D2A35188  10.238  12.634   8.579
 2622POPC   C3A35189  10.247  12.566   8.124
 2622POPC   C4A35190  10.231  12.778   7.738
 2622POPC   C1B35191  10.371  13.222   8.719
 2622POPC   C2B35192  10.596  13.185   8.341
 2622POPC   C3B35193  10.686  12.953   7.992
 2622POPC   C4B35194  10.524  13.191   7.659
 2623POPC   NC335195  16.024   5.588   9.737
 2623POPC   PO435196  16.458   5.499   9.260
 2623POPC   GL135197  16.204   5.700   9.038
 2623POPC   GL235198  15.941   5.740   9.254
 2623POPC   C1A35199  16.048   5.639   8.632
 2623POPC   D2A35200  16.332   5.524   8.370
 2623POPC   C3A35201  16.319   5.819   8.092
 2623POPC   C4A35202  16.117   5.611   7.779
 2623POPC   C1B35203  15.654   5.746   8.933
 2623POPC   C2B35204  15.623   5.991   8.541
 2623POPC   C3B35205  15.806   5.853   8.174
 2623POPC   C4B35206  15.636   5.764   7.781
 2624POPC   NC335207  25.392  14.924   9.554
 2624POPC   PO435208  25.414  15.610   9.378
 2624POPC   GL135209  25.278  15.237   9.152
 2624POPC   GL235210  25.478  14.932   9.040
 2624POPC   C1A35211  25.064  15.107   8.773
 2624POPC   D2A35212  24.993  15.342   8.387
 2624POPC   C3A35213  25.001  15.129   8.012
 2624POPC   C4A35214  25.074  15.344   7.647
 2624POPC   C1B35215  25.585  15.209   8.690
 2624POPC   C2B35216  25.458  15.155   8.247
 2624POPC   C3B35217  25.482  15.022   7.814
 2624POPC   C4B35218  25.460  15.127   7.384
 2625POPC   NC335219  35.356  14.960   9.446
 2625POPC   PO435220  35.456  14.366   9.538
 2625POPC   GL135221  35.189  14.325   9.177
 2625POPC   GL235222  35.041  14.651   9.161
 2625POPC   C1A35223  35.352  14.228   8.749
 2625POPC   D2A35224  35.759  14.307   8.520
 2625POPC   C3A35225  35.695  14.458   8.097
 2625POPC   C4A35226  35.414  14.259   7.837
 2625POPC   C1B35227  35.115  14.687   8.742
 2625POPC   C2B35228  35.033  14.793   8.333
 2625POPC   C3B35229  34.828  14.551   8.029
 2625POPC   C4B35230  34.921  14.196   7.797
 2626POPC   NC335231   4.920  32.908   9.486
 2626POPC   PO435232   4.283  33.026   9.504
 2626POPC   GL135233   4.551  33.018   9.154
 2626POPC   GL235234   4.636  33.328   9.013
 2626POPC   C1A35235   4.479  32.813   8.783
 2626POPC   D2A35236   4.225  32.836   8.419
 2626POPC   C3A35237   4.406  32.818   8.021
 2626POPC   C4A35238   4.552  33.068   7.701
 2626POPC   C1B35239   4.477  33.310   8.562
 2626POPC   C2B35240   4.402  33.390   8.099
 2626POPC   C3B35241   4.516  33.574   7.688
 2626POPC   C4B35242   4.741  33.458   7.275
 2627POPC   NC335243  23.491   6.734   9.327
 2627POPC   PO435244  23.852   6.134   9.418
 2627POPC   GL135245  23.923   6.496   9.115
 2627POPC   GL235246  24.020   6.868   9.232
 2627POPC   C1A35247  23.796   6.525   8.648
 2627POPC   D2A35248  23.531   6.372   8.295
 2627POPC   C3A35249  23.720   6.381   7.885
 2627POPC   C4A35250  23.805   6.496   7.449
 2627POPC   C1B35251  23.881   6.988   8.826
 2627POPC   C2B35252  23.591   6.986   8.469
 2627POPC   C3B35253  23.449   6.847   8.077
 2627POPC   C4B35254  23.633   6.908   7.688
 2628POPC   NC335255  44.835  14.597   9.499
 2628POPC   PO435256  44.167  14.737   9.541
 2628POPC   GL135257  44.437  14.600   9.171
 2628POPC   GL235258  44.425  14.322   9.049
 2628POPC   C1A35259  44.441  14.678   8.680
 2628POPC   D2A35260  44.451  14.654   8.211
 2628POPC   C3A35261  44.793  14.825   7.973
 2628POPC   C4A35262  44.859  14.634   7.590
 2628POPC   C1B35263  44.705  14.237   8.693
 2628POPC   C2B35264  44.568  14.193   8.328
 2628POPC   C3B35265  44.763  14.235   7.946
 2628POPC   C4B35266  44.755  13.811   7.847
 2629POPC   NC335267  17.291  17.575   9.574
 2629POPC   PO435268  17.951  17.545   9.696
 2629POPC   GL135269  17.713  17.583   9.236
 2629POPC   GL235270  17.394  17.788   9.129
 2629POPC   C1A35271  17.709  17.620   8.770
 2629POPC   D2A35272  17.600  17.250   8.551
 2629POPC   C3A35273  17.603  17.262   8.131
 2629POPC   C4A35274  17.671  17.526   7.784
 2629POPC   C1B35275  17.228  17.578   8.759
 2629POPC   C2B35276  17.309  17.649   8.333
 2629POPC   C3B35277  17.202  17.717   7.894
 2629POPC   C4B35278  17.265  17.568   7.453
 2630POPC   NC335279   4.384  12.737   9.531
 2630POPC   PO435280   3.778  12.858   9.391
 2630POPC   GL135281   4.097  12.743   9.098
 2630POPC   GL235282   4.265  13.066   9.135
 2630POPC   C1A35283   4.358  12.748   8.718
 2630POPC   D2A35284   4.271  12.969   8.329
 2630POPC   C3A35285   4.338  12.818   7.951
 2630POPC   C4A35286   4.273  12.750   7.530
 2630POPC   C1B35287   4.053  13.176   8.738
 2630POPC   C2B35288   3.975  13.398   8.330
 2630POPC   C3B35289   3.940  13.142   7.928
 2630POPC   C4B35290   4.020  13.226   7.457
 2631POPC   NC335291  42.268   6.905   9.427
 2631POPC   PO435292  42.472   6.238   9.565
 2631POPC   GL135293  42.407   6.431   9.163
 2631POPC   GL235294  42.650   6.724   9.130
 2631POPC   C1A35295  42.084   6.431   8.816
 2631POPC   D2A35296  41.834   6.575   8.465
 2631POPC   C3A35297  42.063   6.635   8.093
 2631POPC   C4A35298  42.428   6.461   7.844
 2631POPC   C1B35299  42.358   6.854   8.776
 2631POPC   C2B35300  42.475   6.831   8.350
 2631POPC   C3B35301  42.390   6.986   7.956
 2631POPC   C4B35302  42.565   6.883   7.599
 2632POPC   NC335303  43.287  12.376   9.602
 2632POPC   PO435304  43.303  11.739   9.580
 2632POPC   GL135305  43.132  11.947   9.190
 2632POPC   GL235306  43.275  12.277   9.113
 2632POPC   C1A35307  43.120  11.919   8.721
 2632POPC   D2A35308  43.250  11.753   8.316
 2632POPC   C3A35309  42.885  11.787   8.064
 2632POPC   C4A35310  42.883  11.807   7.642
 2632POPC   C1B35311  43.224  12.416   8.721
 2632POPC   C2B35312  43.290  12.253   8.305
 2632POPC   C3B35313  43.248  12.083   7.877
 2632POPC   C4B35314  43.045  12.272   7.519
 2633POPC   NC335315   1.536   7.873   9.589
 2633POPC   PO435316   1.163   8.406   9.504
 2633POPC   GL135317   1.277   8.422   9.133
 2633POPC   GL235318   1.501   8.167   9.184
 2633POPC   C1A35319   1.017   8.346   8.803
 2633POPC   D2A35320   1.089   8.150   8.430
 2633POPC   C3A35321   1.146   8.418   8.096
 2633POPC   C4A35322   1.155   8.273   7.682
 2633POPC   C1B35323   1.315   7.925   8.872
 2633POPC   C2B35324   1.469   7.818   8.471
 2633POPC   C3B35325   1.361   7.924   8.039
 2633POPC   C4B35326   1.655   7.700   7.799
 2634POPC   NC335327  13.071  40.013   9.545
 2634POPC   PO435328  12.465  39.751   9.541
 2634POPC   GL135329  12.656  39.991   9.204
 2634POPC   GL235330  12.544  39.729   9.010
 2634POPC   C1A35331  12.912  40.102   8.829
 2634POPC   D2A35332  13.121  39.853   8.472
 2634POPC   C3A35333  13.033  40.063   8.069
 2634POPC   C4A35334  12.980  40.456   7.877
 2634POPC   C1B35335  12.626  39.738   8.592
 2634POPC   C2B35336  12.556  39.990   8.248
 2634POPC   C3B35337  12.599  39.796   7.892
 2634POPC   C4B35338  12.441  39.852   7.493
 2635POPC   NC335339  15.505  20.522   9.539
 2635POPC   PO435340  14.901  20.610   9.464
 2635POPC   GL135341  15.184  20.710   9.138
 2635POPC   GL235342  15.424  20.961   9.176
 2635POPC   C1A35343  15.095  20.776   8.726
 2635POPC   D2A35344  15.286  20.572   8.383
 2635POPC   C3A35345  15.187  20.743   8.021
 2635POPC   C4A35346  15.240  20.622   7.598
 2635POPC   C1B35347  15.602  20.785   8.757
 2635POPC   C2B35348  15.743  20.833   8.333
 2635POPC   C3B35349  15.677  20.690   7.896
 2635POPC   C4B35350  15.785  20.517   7.488
 2636POPC   NC335351  38.055  35.261   9.366
 2636POPC   PO435352  38.654  35.541   9.609
 2636POPC   GL135353  38.483  35.648   9.202
 2636POPC   GL235354  38.183  35.615   9.036
 2636POPC   C1A35355  38.582  35.537   8.759
 2636POPC   D2A35356  38.584  35.355   8.361
 2636POPC   C3A35357  38.507  35.621   8.013
 2636POPC   C4A35358  38.544  35.510   7.616
 2636POPC   C1B35359  38.155  35.225   8.722
 2636POPC   C2B35360  38.217  35.006   8.309
 2636POPC   C3B35361  38.399  35.117   7.915
 2636POPC   C4B35362  38.309  35.077   7.486
 2637POPC   NC335363  28.120  37.519  10.028
 2637POPC   PO435364  28.134  37.997   9.489
 2637POPC   GL135365  28.320  37.738   9.158
 2637POPC   GL235366  28.162  37.494   9.099
 2637POPC   C1A35367  28.640  37.790   8.799
 2637POPC   D2A35368  28.559  37.627   8.404
 2637POPC   C3A35369  28.618  37.852   8.036
 2637POPC   C4A35370  28.246  37.959   7.820
 2637POPC   C1B35371  28.046  37.289   8.754
 2637POPC   C2B35372  28.033  37.572   8.431
 2637POPC   C3B35373  28.164  37.517   8.038
 2637POPC   C4B35374  28.125  37.247   7.682
 2638POPC   NC335375  13.842  24.579   9.341
 2638POPC   PO435376  13.271  24.320   9.572
 2638POPC   GL135377  13.277  24.369   9.043
 2638POPC   GL235378  13.677  24.440   8.874
 2638POPC   C1A35379  13.314  24.401   8.550
 2638POPC   D2A35380  13.744  24.431   8.339
 2638POPC   C3A35381  13.682  24.357   7.916
 2638POPC   C4A35382  13.432  24.657   7.738
 2638POPC   C1B35383  13.890  24.075   8.672
 2638POPC   C2B35384  14.043  23.954   8.251
 2638POPC   C3B35385  14.110  24.102   7.815
 2638POPC   C4B35386  13.794  24.155   7.446
 2639POPC   NC335387  19.650   4.145   9.441
 2639POPC   PO435388  20.301   4.343   9.311
 2639POPC   GL135389  20.032   4.017   9.126
 2639POPC   GL235390  19.855   4.281   9.000
 2639POPC   C1A35391  19.857   3.840   8.744
 2639POPC   D2A35392  19.905   4.088   8.378
 2639POPC   C3A35393  19.682   4.020   7.986
 2639POPC   C4A35394  19.796   4.189   7.579
 2639POPC   C1B35395  20.133   4.479   8.706
 2639POPC   C2B35396  20.021   4.698   8.362
 2639POPC   C3B35397  19.962   4.474   8.014
 2639POPC   C4B35398  19.957   4.664   7.646
 2640POPC   NC335399  26.432   8.704   9.500
 2640POPC   PO435400  26.139   9.303   9.492
 2640POPC   GL135401  25.849   9.225   9.167
 2640POPC   GL235402  25.901   8.851   9.197
 2640POPC   C1A35403  25.634   9.017   8.797
 2640POPC   D2A35404  25.748   8.869   8.388
 2640POPC   C3A35405  25.875   9.056   8.007
 2640POPC   C4A35406  25.849   8.745   7.680
 2640POPC   C1B35407  26.179   8.972   8.836
 2640POPC   C2B35408  26.429   8.896   8.441
 2640POPC   C3B35409  26.343   8.850   8.021
 2640POPC   C4B35410  26.327   8.858   7.583
 2641POPC   NC335411   1.023  33.482   9.443
 2641POPC   PO435412   0.429  33.839   9.536
 2641POPC   GL135413   0.662  33.873   9.157
 2641POPC   GL235414   0.747  33.563   9.047
 2641POPC   C1A35415   0.528  33.910   8.727
 2641POPC   D2A35416   0.146  33.786   8.498
 2641POPC   C3A35417   0.137  33.795   8.042
 2641POPC   C4A35418   0.254  33.933   7.587
 2641POPC   C1B35419   0.710  33.389   8.667
 2641POPC   C2B35420   0.606  33.590   8.279
 2641POPC   C3B35421   0.642  33.731   7.854
 2641POPC   C4B35422   0.602  33.588   7.435
 2642POPC   NC335423   5.543  30.586   9.922
 2642POPC   PO435424   5.016  30.874   9.593
 2642POPC   GL135425   5.041  30.683   9.205
 2642POPC   GL235426   5.308  30.579   9.189
 2642POPC   C1A35427   4.987  30.731   8.808
 2642POPC   D2A35428   4.820  30.855   8.464
 2642POPC   C3A35429   4.957  30.753   8.092
 2642POPC   C4A35430   4.814  30.762   7.687
 2642POPC   C1B35431   5.495  30.630   8.818
 2642POPC   C2B35432   5.344  30.698   8.447
 2642POPC   C3B35433   5.405  30.532   8.074
 2642POPC   C4B35434   5.330  30.685   7.718
 2643POPC   NC335435  18.925  38.847   9.762
 2643POPC   PO435436  18.868  39.493   9.774
 2643POPC   GL135437  19.001  39.419   9.276
 2643POPC   GL235438  19.379  39.477   9.247
 2643POPC   C1A35439  18.947  39.220   8.836
 2643POPC   D2A35440  18.929  38.889   8.473
 2643POPC   C3A35441  18.730  39.034   8.079
 2643POPC   C4A35442  18.801  39.345   7.774
 2643POPC   C1B35443  19.464  39.228   8.890
 2643POPC   C2B35444  19.482  39.334   8.473
 2643POPC   C3B35445  19.225  39.203   8.142
 2643POPC   C4B35446  19.304  39.339   7.755
 2644POPC   NC335447   9.290  18.470   9.397
 2644POPC   PO435448   9.850  18.146   9.471
 2644POPC   GL135449   9.632  18.217   9.115
 2644POPC   GL235450   9.277  18.061   9.110
 2644POPC   C1A35451   9.715  18.492   8.746
 2644POPC   D2A35452   9.944  18.549   8.337
 2644POPC   C3A35453   9.766  18.341   7.950
 2644POPC   C4A35454   9.907  18.196   7.512
 2644POPC   C1B35455   9.332  18.141   8.740
 2644POPC   C2B35456   9.567  18.126   8.405
 2644POPC   C3B35457   9.363  18.012   8.073
 2644POPC   C4B35458   9.358  18.166   7.694
 2645POPC   NC335459   8.298   7.087   9.870
 2645POPC   PO435460   8.081   7.616   9.500
 2645POPC   GL135461   8.234   7.615   9.092
 2645POPC   GL235462   8.173   7.282   9.034
 2645POPC   C1A35463   8.334   7.554   8.636
 2645POPC   D2A35464   8.086   7.738   8.309
 2645POPC   C3A35465   8.162   7.518   7.951
 2645POPC   C4A35466   8.529   7.458   7.677
 2645POPC   C1B35467   8.350   7.039   8.717
 2645POPC   C2B35468   8.335   6.872   8.351
 2645POPC   C3B35469   8.371   7.041   7.961
 2645POPC   C4B35470   8.123   7.137   7.611
 2646POPC   NC335471   7.952  40.387   9.543
 2646POPC   PO435472   8.393  39.839   9.472
 2646POPC   GL135473   8.305  40.082   9.117
 2646POPC   GL235474   8.224  40.430   9.124
 2646POPC   C1A35475   8.312  39.951   8.705
 2646POPC   D2A35476   8.469  39.685   8.405
 2646POPC   C3A35477   8.313  39.896   8.105
 2646POPC   C4A35478   8.265  39.921   7.709
 2646POPC   C1B35479   7.993  40.362   8.762
 2646POPC   C2B35480   8.121  40.307   8.350
 2646POPC   C3B35481   8.319  40.380   7.958
 2646POPC   C4B35482   7.984  40.350   7.692
 2647POPC   NC335483  34.099  37.052   9.276
 2647POPC   PO435484  33.446  36.895   9.498
 2647POPC   GL135485  33.688  36.745   9.151
 2647POPC   GL235486  33.988  36.512   9.210
 2647POPC   C1A35487  33.709  36.919   8.726
 2647POPC   D2A35488  33.595  36.749   8.316
 2647POPC   C3A35489  33.308  36.991   8.057
 2647POPC   C4A35490  33.473  37.176   7.673
 2647POPC   C1B35491  34.128  36.616   8.782
 2647POPC   C2B35492  34.123  36.856   8.391
 2647POPC   C3B35493  34.041  36.701   7.992
 2647POPC   C4B35494  33.657  36.695   7.808
 2648POPC   NC335495  10.270  40.563   9.269
 2648POPC   PO435496  10.643  41.063   9.581
 2648POPC   GL135497  10.506  40.986   9.178
 2648POPC   GL235498  10.825  40.905   9.107
 2648POPC   C1A35499  10.541  41.026   8.713
 2648POPC   D2A35500  10.426  41.113   8.286
 2648POPC   C3A35501  10.236  40.770   8.097
 2648POPC   C4A35502  10.290  40.730   7.675
 2648POPC   C1B35503  10.988  40.726   8.721
 2648POPC   C2B35504  10.733  40.653   8.366
 2648POPC   C3B35505  10.737  40.788   7.946
 2648POPC   C4B35506  10.762  40.723   7.497
 2649POPC   NC335507   4.643  23.105   9.921
 2649POPC   PO435508   4.077  23.041   9.552
 2649POPC   GL135509   4.156  22.883   9.163
 2649POPC   GL235510   4.517  22.858   9.175
 2649POPC   C1A35511   4.080  23.035   8.735
 2649POPC   D2A35512   4.224  23.166   8.303
 2649POPC   C3A35513   4.455  23.143   7.913
 2649POPC   C4A35514   4.192  23.046   7.540
 2649POPC   C1B35515   4.395  22.622   8.802
 2649POPC   C2B35516   4.298  22.580   8.374
 2649POPC   C3B35517   4.552  22.623   8.005
 2649POPC   C4B35518   4.599  22.784   7.572
 2650POPC   NC335519  44.837  44.409   9.788
 2650POPC   PO435520  44.644  43.781   9.610
 2650POPC   GL135521  44.499  43.979   9.225
 2650POPC   GL235522  44.811  44.100   9.191
 2650POPC   C1A35523  44.308  43.921   8.810
 2650POPC   D2A35524  44.278  43.693   8.419
 2650POPC   C3A35525  44.368  43.876   8.006
 2650POPC   C4A35526  44.539  43.507   7.835
 2650POPC   C1B35527  44.784  43.745   8.845
 2650POPC   C2B35528  44.785  43.544   8.410
 2650POPC   C3B35529   0.018  43.652   8.023
 2650POPC   C4B35530  44.822  43.919   7.737
 2651POPC   NC335531   8.495  18.551   9.507
 2651POPC   PO435532   8.051  18.054   9.519
 2651POPC   GL135533   8.295  18.136   9.156
 2651POPC   GL235534   8.166  18.469   9.125
 2651POPC   C1A35535   8.315  18.181   8.706
 2651POPC   D2A35536   8.538  18.198   8.305
 2651POPC   C3A35537   8.399  17.948   7.971
 2651POPC   C4A35538   8.123  18.038   7.648
 2651POPC   C1B35539   8.027  18.588   8.706
 2651POPC   C2B35540   8.234  18.637   8.346
 2651POPC   C3B35541   8.199  18.440   7.958
 2651POPC   C4B35542   7.882  18.506   7.740
 2652POPC   NC335543   4.609  36.768   9.544
 2652POPC   PO435544   5.329  36.975   9.483
 2652POPC   GL135545   4.986  37.113   9.206
 2652POPC   GL235546   4.845  36.783   9.091
 2652POPC   C1A35547   5.039  37.125   8.736
 2652POPC   D2A35548   5.291  36.840   8.435
 2652POPC   C3A35549   5.117  36.752   8.046
 2652POPC   C4A35550   5.049  37.071   7.739
 2652POPC   C1B35551   4.900  36.613   8.673
 2652POPC   C2B35552   4.590  36.542   8.361
 2652POPC   C3B35553   4.725  36.444   7.933
 2652POPC   C4B35554   4.961  36.591   7.551
 2653POPC   NC335555   1.751  35.914   9.255
 2653POPC   PO435556   2.099  36.352   9.738
 2653POPC   GL135557   2.170  36.261   9.264
 2653POPC   GL235558   2.253  35.933   9.133
 2653POPC   C1A35559   1.998  36.403   8.832
 2653POPC   D2A35560   1.838  36.451   8.453
 2653POPC   C3A35561   2.001  36.494   8.057
 2653POPC   C4A35562   1.911  36.243   7.718
 2653POPC   C1B35563   2.179  35.945   8.698
 2653POPC   C2B35564   2.044  36.025   8.285
 2653POPC   C3B35565   1.999  35.805   7.949
 2653POPC   C4B35566   2.352  35.926   7.749
 2654POPC   NC335567  19.960  41.445   9.420
 2654POPC   PO435568  19.517  41.942   9.244
 2654POPC   GL135569  19.658  41.584   9.038
 2654POPC   GL235570  19.479  41.301   9.220
 2654POPC   C1A35571  19.976  41.533   8.702
 2654POPC   D2A35572  19.793  41.672   8.296
 2654POPC   C3A35573  19.946  41.725   7.863
 2654POPC   C4A35574  19.648  41.792   7.518
 2654POPC   C1B35575  19.625  41.074   8.847
 2654POPC   C2B35576  19.809  41.108   8.461
 2654POPC   C3B35577  19.956  41.231   8.072
 2654POPC   C4B35578  20.206  41.277   7.744
 2655POPC   NC335579  38.651  24.126   9.431
 2655POPC   PO435580  38.375  23.563   9.537
 2655POPC   GL135581  38.430  23.692   9.125
 2655POPC   GL235582  38.267  23.988   9.092
 2655POPC   C1A35583  38.354  23.689   8.680
 2655POPC   D2A35584  38.184  23.487   8.333
 2655POPC   C3A35585  38.426  23.595   7.989
 2655POPC   C4A35586  38.623  23.495   7.573
 2655POPC   C1B35587  38.029  24.096   8.699
 2655POPC   C2B35588  38.161  24.017   8.263
 2655POPC   C3B35589  38.198  24.007   7.800
 2655POPC   C4B35590  38.095  24.202   7.405
 2656POPC   NC335591  44.380  29.019   9.525
 2656POPC   PO435592   0.028  29.189   9.631
 2656POPC   GL135593  44.799  29.230   9.245
 2656POPC   GL235594  44.793  28.886   9.222
 2656POPC   C1A35595  44.813  29.322   8.806
 2656POPC   D2A35596  44.582  29.318   8.403
 2656POPC   C3A35597  44.765  29.353   8.002
 2656POPC   C4A35598  44.528  29.189   7.695
 2656POPC   C1B35599  44.675  28.832   8.825
 2656POPC   C2B35600  44.864  28.903   8.459
 2656POPC   C3B35601  44.630  28.881   8.121
 2656POPC   C4B35602  44.861  28.799   7.820
 2657POPC   NC335603  31.295  35.550   9.517
 2657POPC   PO435604  31.748  35.025   9.418
 2657POPC   GL135605  31.473  35.205   9.130
 2657POPC   GL235606  31.261  35.458   9.035
 2657POPC   C1A35607  31.647  35.250   8.756
 2657POPC   D2A35608  31.945  35.448   8.538
 2657POPC   C3A35609  31.778  35.314   8.164
 2657POPC   C4A35610  31.781  35.255   7.759
 2657POPC   C1B35611  31.120  35.363   8.657
 2657POPC   C2B35612  31.206  35.332   8.248
 2657POPC   C3B35613  31.345  35.472   7.877
 2657POPC   C4B35614  31.226  35.830   7.755
 2658POPC   NC335615   8.166  41.289   9.676
 2658POPC   PO435616   8.401  40.651   9.541
 2658POPC   GL135617   8.139  40.921   9.303
 2658POPC   GL235618   8.390  41.140   9.158
 2658POPC   C1A35619   8.045  40.877   8.875
 2658POPC   D2A35620   8.290  40.794   8.487
 2658POPC   C3A35621   8.088  40.811   8.080
 2658POPC   C4A35622   7.851  40.852   7.718
 2658POPC   C1B35623   8.663  41.028   8.809
 2658POPC   C2B35624   8.698  41.102   8.396
 2658POPC   C3B35625   8.577  40.963   8.022
 2658POPC   C4B35626   8.685  41.141   7.631
 2659POPC   NC335627   3.593   1.027   9.440
 2659POPC   PO435628   3.001   1.295   9.673
 2659POPC   GL135629   3.246   1.320   9.206
 2659POPC   GL235630   3.384   0.976   8.975
 2659POPC   C1A35631   3.482   1.411   8.797
 2659POPC   D2A35632   3.404   1.192   8.399
 2659POPC   C3A35633   3.371   1.388   7.994
 2659POPC   C4A35634   3.157   1.254   7.605
 2659POPC   C1B35635   3.769   0.987   8.731
 2659POPC   C2B35636   3.904   1.113   8.310
 2659POPC   C3B35637   3.669   0.949   7.960
 2659POPC   C4B35638   3.824   0.551   7.791
 2660POPC   NC335639  16.416  19.848   9.433
 2660POPC   PO435640  15.746  20.076   9.488
 2660POPC   GL135641  15.705  19.930   9.093
 2660POPC   GL235642  15.878  19.605   9.136
 2660POPC   C1A35643  15.569  19.759   8.719
 2660POPC   D2A35644  15.772  19.781   8.313
 2660POPC   C3A35645  15.567  19.732   7.899
 2660POPC   C4A35646  15.606  19.717   7.425
 2660POPC   C1B35647  16.095  19.837   8.785
 2660POPC   C2B35648  16.212  20.044   8.397
 2660POPC   C3B35649  16.191  19.806   8.045
 2660POPC   C4B35650  16.041  19.674   7.695
 2661POPC   NC335651  31.360  11.416   9.610
 2661POPC   PO435652  31.986  11.226   9.609
 2661POPC   GL135653  31.625  11.254   9.207
 2661POPC   GL235654  31.222  11.370   9.132
 2661POPC   C1A35655  31.475  11.180   8.755
 2661POPC   D2A35656  31.606  11.360   8.366
 2661POPC   C3A35657  31.641  11.062   8.042
 2661POPC   C4A35658  31.583  11.279   7.648
 2661POPC   C1B35659  31.057  11.551   8.737
 2661POPC   C2B35660  31.196  11.728   8.340
 2661POPC   C3B35661  31.248  11.612   7.911
 2661POPC   C4B35662  31.243  11.628   7.461
 2662POPC   NC335663   9.478  17.854   9.530
 2662POPC   PO435664   9.871  17.275   9.533
 2662POPC   GL135665   9.665  17.321   9.125
 2662POPC   GL235666   9.376  17.556   9.099
 2662POPC   C1A35667   9.569  17.127   8.720
 2662POPC   D2A35668   9.778  17.040   8.308
 2662POPC   C3A35669   9.584  17.238   7.958
 2662POPC   C4A35670   9.698  17.344   7.541
 2662POPC   C1B35671   9.594  17.673   8.705
 2662POPC   C2B35672   9.686  17.647   8.239
 2662POPC   C3B35673   9.752  17.816   7.797
 2662POPC   C4B35674   9.535  17.833   7.346
 2663POPC   NC335675  35.339  23.011   9.652
 2663POPC   PO435676  35.416  22.312   9.575
 2663POPC   GL135677  35.271  22.606   9.180
 2663POPC   GL235678  35.445  22.949   9.156
 2663POPC   C1A35679  35.329  22.755   8.707
 2663POPC   D2A35680  35.683  22.820   8.382
 2663POPC   C3A35681  35.594  22.741   7.952
 2663POPC   C4A35682  35.232  22.624   7.725
 2663POPC   C1B35683  35.603  23.168   8.773
 2663POPC   C2B35684  35.357  23.197   8.364
 2663POPC   C3B35685  35.415  23.234   7.896
 2663POPC   C4B35686  35.135  23.254   7.511
 2664POPC   NC335687  25.255  34.882   9.534
 2664POPC   PO435688  24.872  34.363   9.602
 2664POPC   GL135689  24.999  34.565   9.207
 2664POPC   GL235690  25.281  34.771   9.049
 2664POPC   C1A35691  25.001  34.426   8.803
 2664POPC   D2A35692  25.277  34.438   8.458
 2664POPC   C3A35693  25.177  34.592   8.087
 2664POPC   C4A35694  25.216  34.456   7.679
 2664POPC   C1B35695  25.608  34.680   8.753
 2664POPC   C2B35696  25.603  34.816   8.320
 2664POPC   C3B35697  25.615  34.749   7.903
 2664POPC   C4B35698  25.636  34.718   7.451
 2665POPC   NC335699  43.877  17.699   9.561
 2665POPC   PO435700  43.862  17.046   9.563
 2665POPC   GL135701  43.883  17.268   9.179
 2665POPC   GL235702  43.594  17.487   9.119
 2665POPC   C1A35703  43.991  17.314   8.736
 2665POPC   D2A35704  43.720  17.450   8.390
 2665POPC   C3A35705  43.816  17.356   7.943
 2665POPC   C4A35706  43.557  17.398   7.578
 2665POPC   C1B35707  43.834  17.780   8.854
 2665POPC   C2B35708  44.121  17.820   8.484
 2665POPC   C3B35709  44.095  17.944   8.034
 2665POPC   C4B35710  43.893  17.806   7.642
 2666POPC   NC335711  31.564  12.392   9.535
 2666POPC   PO435712  31.715  11.722   9.587
 2666POPC   GL135713  31.539  11.776   9.192
 2666POPC   GL235714  31.611  12.112   9.096
 2666POPC   C1A35715  31.539  11.744   8.742
 2666POPC   D2A35716  31.639  12.028   8.404
 2666POPC   C3A35717  31.706  11.794   8.049
 2666POPC   C4A35718  31.758  11.745   7.615
 2666POPC   C1B35719  31.425  12.344   8.747
 2666POPC   C2B35720  31.357  12.650   8.409
 2666POPC   C3B35721  31.558  12.659   8.037
 2666POPC   C4B35722  31.788  12.295   7.957
 2667POPC   NC335723   9.365  15.465   9.583
 2667POPC   PO435724   8.663  15.710   9.460
 2667POPC   GL135725   8.951  15.820   9.175
 2667POPC   GL235726   9.256  15.675   9.150
 2667POPC   C1A35727   8.767  15.861   8.775
 2667POPC   D2A35728   8.728  16.070   8.395
 2667POPC   C3A35729   8.850  15.906   8.031
 2667POPC   C4A35730   8.609  15.988   7.692
 2667POPC   C1B35731   9.269  15.846   8.772
 2667POPC   C2B35732   9.202  15.723   8.385
 2667POPC   C3B35733   9.467  15.555   8.094
 2667POPC   C4B35734   9.530  15.704   7.690
 2668POPC   NC335735  13.574  19.794   9.644
 2668POPC   PO435736  14.262  19.862   9.638
 2668POPC   GL135737  13.868  19.865   9.264
 2668POPC   GL235738  13.580  20.119   9.199
 2668POPC   C1A35739  13.682  19.770   8.854
 2668POPC   D2A35740  13.981  19.773   8.521
 2668POPC   C3A35741  13.832  19.713   8.099
 2668POPC   C4A35742  13.624  19.788   7.708
 2668POPC   C1B35743  13.546  20.302   8.780
 2668POPC   C2B35744  13.563  20.040   8.409
 2668POPC   C3B35745  13.321  19.836   8.103
 2668POPC   C4B35746  13.414  20.245   7.900
 2669POPC   NC335747   2.220  15.021   9.528
 2669POPC   PO435748   1.562  15.361   9.659
 2669POPC   GL135749   1.748  15.219   9.281
 2669POPC   GL235750   2.022  15.468   9.248
 2669POPC   C1A35751   1.704  15.341   8.843
 2669POPC   D2A35752   1.709  15.497   8.429
 2669POPC   C3A35753   1.854  15.276   8.044
 2669POPC   C4A35754   1.728  15.034   7.687
 2669POPC   C1B35755   2.134  15.608   8.830
 2669POPC   C2B35756   2.215  15.392   8.431
 2669POPC   C3B35757   2.375  15.377   8.006
 2669POPC   C4B35758   2.257  15.176   7.614
 2670POPC   NC335759  39.046  43.017   9.520
 2670POPC   PO435760  39.685  43.193   9.729
 2670POPC   GL135761  39.453  43.353   9.301
 2670POPC   GL235762  39.107  43.419   9.188
 2670POPC   C1A35763  39.457  43.326   8.794
 2670POPC   D2A35764  39.510  43.200   8.320
 2670POPC   C3A35765  39.173  42.996   8.088
 2670POPC   C4A35766  38.998  43.110   7.691
 2670POPC   C1B35767  38.987  43.534   8.767
 2670POPC   C2B35768  39.021  43.409   8.351
 2670POPC   C3B35769  39.070  43.541   7.936
 2670POPC   C4B35770  39.279  43.552   7.529
 2671POPC   NC335771  24.208  17.547   9.628
 2671POPC   PO435772  23.624  17.770   9.714
 2671POPC   GL135773  23.833  17.639   9.285
 2671POPC   GL235774  23.904  17.261   9.224
 2671POPC   C1A35775  23.700  17.653   8.839
 2671POPC   D2A35776  23.555  17.900   8.483
 2671POPC   C3A35777  23.558  17.807   8.051
 2671POPC   C4A35778  23.868  17.704   7.722
 2671POPC   C1B35779  23.616  17.157   8.884
 2671POPC   C2B35780  23.692  17.273   8.476
 2671POPC   C3B35781  23.714  17.326   8.045
 2671POPC   C4B35782  23.587  17.097   7.727
 2672POPC   NC335783  33.501  44.286   9.551
 2672POPC   PO435784  33.997  43.731   9.536
 2672POPC   GL135785  33.937  43.843   9.110
 2672POPC   GL235786  33.760  44.190   9.068
 2672POPC   C1A35787  34.156  43.720   8.746
 2672POPC   D2A35788  34.185  44.012   8.429
 2672POPC   C3A35789  34.165  43.897   8.015
 2672POPC   C4A35790  33.854  44.148   7.831
 2672POPC   C1B35791  33.695  43.982   8.663
 2672POPC   C2B35792  33.392  43.880   8.317
 2672POPC   C3B35793  33.427  43.848   7.858
 2672POPC   C4B35794  33.711  43.752   7.509
 2673POPC   NC335795   7.305  16.799   9.903
 2673POPC   PO435796   7.786  16.454   9.486
 2673POPC   GL135797   7.584  16.770   9.226
 2673POPC   GL235798   7.316  16.564   9.123
 2673POPC   C1A35799   7.548  16.880   8.805
 2673POPC   D2A35800   7.323  16.718   8.472
 2673POPC   C3A35801   7.554  16.697   8.099
 2673POPC   C4A35802   7.538  16.877   7.727
 2673POPC   C1B35803   7.004  16.456   8.802
 2673POPC   C2B35804   6.831  16.562   8.416
 2673POPC   C3B35805   7.090  16.459   8.058
 2673POPC   C4B35806   6.929  16.222   7.741
 2674POPC   NC335807  37.169  37.929   9.304
 2674POPC   PO435808  36.795  38.511   9.493
 2674POPC   GL135809  36.869  38.455   9.127
 2674POPC   GL235810  37.223  38.492   9.179
 2674POPC   C1A35811  36.617  38.464   8.770
 2674POPC   D2A35812  36.852  38.404   8.414
 2674POPC   C3A35813  36.739  38.288   8.017
 2674POPC   C4A35814  36.797  38.516   7.663
 2674POPC   C1B35815  37.218  38.288   8.783
 2674POPC   C2B35816  37.357  38.245   8.401
 2674POPC   C3B35817  37.220  38.483   8.054
 2674POPC   C4B35818  37.312  38.381   7.670
 2675POPC   NC335819  40.457  26.128   9.533
 2675POPC   PO435820  41.142  26.053   9.620
 2675POPC   GL135821  40.932  25.997   9.213
 2675POPC   GL235822  40.706  26.244   9.107
 2675POPC   C1A35823  40.702  25.878   8.789
 2675POPC   D2A35824  40.642  26.149   8.410
 2675POPC   C3A35825  40.785  25.969   7.989
 2675POPC   C4A35826  40.708  25.702   7.579
 2675POPC   C1B35827  40.305  26.337   8.873
 2675POPC   C2B35828  40.191  26.440   8.439
 2675POPC   C3B35829  40.287  26.243   8.039
 2675POPC   C4B35830  40.504  26.199   7.639
 2676POPC   NC335831  17.581  15.730   9.702
 2676POPC   PO435832  17.134  16.108   9.651
 2676POPC   GL135833  17.514  16.053   9.288
 2676POPC   GL235834  17.728  15.732   9.215
 2676POPC   C1A35835  17.658  16.069   8.818
 2676POPC   D2A35836  17.640  16.211   8.356
 2676POPC   C3A35837  17.536  15.960   7.966
 2676POPC   C4A35838  17.297  16.158   7.601
 2676POPC   C1B35839  17.774  15.543   8.828
 2676POPC   C2B35840  17.800  15.725   8.415
 2676POPC   C3B35841  17.833  15.519   8.018
 2676POPC   C4B35842  17.667  15.564   7.582
 2677POPC   NC335843   5.123  21.573   9.706
 2677POPC   PO435844   5.184  20.916   9.629
 2677POPC   GL135845   5.040  21.227   9.311
 2677POPC   GL235846   5.288  21.371   9.145
 2677POPC   C1A35847   4.852  21.333   8.891
 2677POPC   D2A35848   4.955  21.553   8.503
 2677POPC   C3A35849   5.125  21.342   8.139
 2677POPC   C4A35850   4.858  21.397   7.767
 2677POPC   C1B35851   5.394  21.326   8.729
 2677POPC   C2B35852   5.551  21.649   8.469
 2677POPC   C3B35853   5.484  21.687   8.063
 2677POPC   C4B35854   5.349  21.507   7.682
 2678POPC   NC335855  38.027  23.394   9.789
 2678POPC   PO435856  38.429  22.944   9.441
 2678POPC   GL135857  38.569  22.888   9.054
 2678POPC   GL235858  38.683  22.547   8.991
 2678POPC   C1A35859  38.434  23.130   8.699
 2678POPC   D2A35860  38.235  22.983   8.348
 2678POPC   C3A35861  38.395  23.078   7.965
 2678POPC   C4A35862  38.191  22.784   7.732
 2678POPC   C1B35863  38.506  22.617   8.611
 2678POPC   C2B35864  38.650  22.709   8.222
 2678POPC   C3B35865  38.572  22.447   7.896
 2678POPC   C4B35866  38.467  22.429   7.478
 2679POPC   NC335867  10.532   6.328   9.674
 2679POPC   PO435868  10.813   5.752   9.566
 2679POPC   GL135869  10.499   5.987   9.315
 2679POPC   GL235870  10.564   5.836   9.053
 2679POPC   C1A35871  10.231   6.194   8.960
 2679POPC   D2A35872  10.471   6.116   8.561
 2679POPC   C3A35873  10.276   5.974   8.165
 2679POPC   C4A35874  10.325   5.909   7.730
 2679POPC   C1B35875  10.868   5.737   8.785
 2679POPC   C2B35876  10.843   5.581   8.397
 2679POPC   C3B35877  10.744   5.778   8.033
 2679POPC   C4B35878  10.691   5.550   7.678
 2680POPC   NC335879  32.141   5.159   9.630
 2680POPC   PO435880  32.692   4.914   9.382
 2680POPC   GL135881  32.430   5.192   9.116
 2680POPC   GL235882  32.044   5.200   9.147
 2680POPC   C1A35883  32.534   5.242   8.672
 2680POPC   D2A35884  32.817   5.112   8.338
 2680POPC   C3A35885  32.676   5.253   7.934
 2680POPC   C4A35886  32.234   5.235   7.801
 2680POPC   C1B35887  32.027   5.288   8.731
 2680POPC   C2B35888  32.069   5.067   8.354
 2680POPC   C3B35889  31.801   5.274   8.034
 2680POPC   C4B35890  31.765   5.396   7.590
 2681POPC   NC335891  44.394   0.580   9.515
 2681POPC   PO435892  44.899   0.163   9.516
 2681POPC   GL135893  44.815   0.416   9.187
 2681POPC   GL235894  44.473   0.340   9.064
 2681POPC   C1A35895  44.940   0.333   8.771
 2681POPC   D2A35896  44.770   0.232   8.374
 2681POPC   C3A35897  44.893   0.580   8.109
 2681POPC   C4A35898   0.079   0.620   7.668
 2681POPC   C1B35899  44.599   0.713   8.819
 2681POPC   C2B35900  44.429   0.656   8.447
 2681POPC   C3B35901  44.399   0.763   8.068
 2681POPC   C4B35902  44.526   0.489   7.775
 2682POPC   NC335903  44.330  15.243   9.504
 2682POPC   PO435904   0.031  15.053   9.452
 2682POPC   GL135905  44.711  15.033   9.101
 2682POPC   GL235906  44.302  15.061   9.029
 2682POPC   C1A35907  44.741  15.099   8.659
 2682POPC   D2A35908  44.498  15.136   8.282
 2682POPC   C3A35909  44.720  15.412   7.989
 2682POPC   C4A35910   0.064  15.320   7.723
 2682POPC   C1B35911  44.389  15.429   8.797
 2682POPC   C2B35912  44.367  15.600   8.351
 2682POPC   C3B35913  44.202  15.433   7.952
 2682POPC   C4B35914  44.449  15.122   7.658
 2683POPC   NC335915  32.606   2.874   9.385
 2683POPC   PO435916  32.099   2.465   9.587
 2683POPC   GL135917  32.179   2.669   9.188
 2683POPC   GL235918  32.068   3.024   9.123
 2683POPC   C1A35919  32.350   2.563   8.780
 2683POPC   D2A35920  32.114   2.572   8.407
 2683POPC   C3A35921  32.208   2.891   8.128
 2683POPC   C4A35922  32.232   2.795   7.704
 2683POPC   C1B35923  32.173   3.049   8.677
 2683POPC   C2B35924  32.582   3.057   8.450
 2683POPC   C3B35925  32.725   2.974   8.039
 2683POPC   C4B35926  32.601   3.116   7.653
 2684POPC   NC335927  37.800  40.597   9.612
 2684POPC   PO435928  37.246  40.958   9.469
 2684POPC   GL135929  37.568  40.821   9.138
 2684POPC   GL235930  37.912  40.701   9.137
 2684POPC   C1A35931  37.684  40.765   8.687
 2684POPC   D2A35932  37.422  40.905   8.378
 2684POPC   C3A35933  37.368  40.645   8.016
 2684POPC   C4A35934  37.612  40.728   7.625
 2684POPC   C1B35935  37.967  40.368   8.863
 2684POPC   C2B35936  37.870  40.253   8.440
 2684POPC   C3B35937  37.853  40.474   8.037
 2684POPC   C4B35938  38.084  40.576   7.656
 2685POPC   NC335939  21.190   7.764   9.576
 2685POPC   PO435940  21.526   8.407   9.491
 2685POPC   GL135941  21.302   8.210   9.195
 2685POPC   GL235942  21.596   8.002   9.167
 2685POPC   C1A35943  21.130   8.256   8.790
 2685POPC   D2A35944  21.298   8.290   8.373
 2685POPC   C3A35945  21.156   8.511   8.013
 2685POPC   C4A35946  21.260   8.518   7.591
 2685POPC   C1B35947  21.643   8.125   8.756
 2685POPC   C2B35948  21.629   7.907   8.361
 2685POPC   C3B35949  21.624   8.130   7.965
 2685POPC   C4B35950  21.859   7.983   7.574
 2686POPC   NC335951   0.914  28.721   9.801
 2686POPC   PO435952   1.365  28.494   9.380
 2686POPC   GL135953   1.188  28.479   8.982
 2686POPC   GL235954   1.198  28.127   8.990
 2686POPC   C1A35955   1.245  28.358   8.552
 2686POPC   D2A35956   1.234  28.458   8.143
 2686POPC   C3A35957   1.515  28.227   7.894
 2686POPC   C4A35958   1.394  28.060   7.513
 2686POPC   C1B35959   0.855  28.061   8.715
 2686POPC   C2B35960   0.987  27.985   8.281
 2686POPC   C3B35961   0.921  28.115   7.856
 2686POPC   C4B35962   1.104  28.479   7.652
 2687POPC   NC335963  34.108   7.681   9.459
 2687POPC   PO435964  34.699   7.320   9.404
 2687POPC   GL135965  34.564   7.439   9.035
 2687POPC   GL235966  34.422   7.779   9.020
 2687POPC   C1A35967  34.215   7.410   8.755
 2687POPC   D2A35968  34.076   7.564   8.383
 2687POPC   C3A35969  34.259   7.271   8.113
 2687POPC   C4A35970  34.398   7.466   7.757
 2687POPC   C1B35971  34.696   7.754   8.643
 2687POPC   C2B35972  34.648   7.595   8.217
 2687POPC   C3B35973  34.908   7.595   7.839
 2687POPC   C4B35974  34.881   7.599   7.372
 2688POPC   NC335975   5.796   5.737   9.697
 2688POPC   PO435976   5.795   6.361   9.525
 2688POPC   GL135977   5.746   6.017   9.234
 2688POPC   GL235978   5.745   5.624   9.210
 2688POPC   C1A35979   6.014   6.082   8.881
 2688POPC   D2A35980   5.904   6.063   8.463
 2688POPC   C3A35981   6.193   6.145   8.145
 2688POPC   C4A35982   6.079   5.912   7.809
 2688POPC   C1B35983   5.609   5.738   8.802
 2688POPC   C2B35984   5.467   5.806   8.373
 2688POPC   C3B35985   5.583   5.934   7.986
 2688POPC   C4B35986   5.730   5.553   7.819
 2689POPC   NC335987  33.264   4.193   9.683
 2689POPC   PO435988  32.643   3.963   9.413
 2689POPC   GL135989  33.066   4.069   9.210
 2689POPC   GL235990  33.090   4.385   9.128
 2689POPC   C1A35991  33.323   4.056   8.791
 2689POPC   D2A35992  33.289   4.316   8.420
 2689POPC   C3A35993  33.011   4.200   8.082
 2689POPC   C4A35994  33.162   4.449   7.763
 2689POPC   C1B35995  32.888   4.337   8.742
 2689POPC   C2B35996  32.860   4.599   8.369
 2689POPC   C3B35997  32.767   4.720   7.961
 2689POPC   C4B35998  32.569   4.386   7.791
 2690POPC   NC335999   6.962  36.132   9.749
 2690POPC   PO436000   7.488  36.038   9.391
 2690POPC   GL136001   7.522  36.210   9.041
 2690POPC   GL236002   7.627  36.579   9.065
 2690POPC   C1A36003   7.423  36.011   8.675
 2690POPC   D2A36004   7.359  35.829   8.303
 2690POPC   C3A36005   7.147  36.119   8.056
 2690POPC   C4A36006   6.969  36.020   7.696
 2690POPC   C1B36007   7.340  36.528   8.712
 2690POPC   C2B36008   7.494  36.377   8.325
 2690POPC   C3B36009   7.652  36.265   7.932
 2690POPC   C4B36010   7.471  36.229   7.525
 2691POPC   NC336011  30.796  25.043   9.689
 2691POPC   PO436012  30.655  25.636   9.418
 2691POPC   GL136013  30.747  25.260   9.148
 2691POPC   GL236014  30.658  24.927   9.196
 2691POPC   C1A36015  30.625  25.324   8.718
 2691POPC   D2A36016  30.800  25.495   8.352
 2691POPC   C3A36017  30.546  25.621   8.006
 2691POPC   C4A36018  30.641  25.372   7.679
 2691POPC   C1B36019  30.771  24.839   8.776
 2691POPC   C2B36020  30.814  24.980   8.351
 2691POPC   C3B36021  30.486  25.118   8.094
 2691POPC   C4B36022  30.318  24.918   7.712
 2692POPC   NC336023  35.388  16.786   9.405
 2692POPC   PO436024  34.864  17.001   9.388
 2692POPC   GL136025  35.013  16.763   9.051
 2692POPC   GL236026  34.987  16.430   9.188
 2692POPC   C1A36027  35.195  16.780   8.608
 2692POPC   D2A36028  35.322  16.730   8.161
 2692POPC   C3A36029  35.403  16.982   7.782
 2692POPC   C4A36030  35.382  17.280   7.394
 2692POPC   C1B36031  35.311  16.352   8.901
 2692POPC   C2B36032  35.411  16.301   8.469
 2692POPC   C3B36033  35.365  16.238   8.050
 2692POPC   C4B36034  35.387  16.478   7.700
 2693POPC   NC336035   1.086  20.125   9.413
 2693POPC   PO436036   1.245  19.405   9.539
 2693POPC   GL136037   1.274  19.715   9.218
 2693POPC   GL236038   0.895  19.670   9.249
 2693POPC   C1A36039   1.401  19.849   8.816
 2693POPC   D2A36040   1.407  19.513   8.512
 2693POPC   C3A36041   1.371  19.732   8.094
 2693POPC   C4A36042   1.359  20.183   7.933
 2693POPC   C1B36043   0.919  19.710   8.830
 2693POPC   C2B36044   1.003  19.896   8.448
 2693POPC   C3B36045   0.858  19.773   8.052
 2693POPC   C4B36046   1.040  19.786   7.671
 2694POPC   NC336047  30.860  14.225   9.612
 2694POPC   PO436048  30.465  14.763   9.480
 2694POPC   GL136049  30.689  14.743   9.110
 2694POPC   GL236050  30.843  14.407   9.141
 2694POPC   C1A36051  30.875  14.655   8.706
 2694POPC   D2A36052  30.805  14.378   8.421
 2694POPC   C3A36053  30.634  14.566   8.111
 2694POPC   C4A36054  30.760  14.639   7.720
 2694POPC   C1B36055  31.008  14.140   8.826
 2694POPC   C2B36056  31.034  13.921   8.424
 2694POPC   C3B36057  30.859  14.068   8.022
 2694POPC   C4B36058  31.032  14.198   7.650
 2695POPC   NC336059  23.534   4.532   9.554
 2695POPC   PO436060  23.775   3.962   9.434
 2695POPC   GL136061  23.651   4.227   9.108
 2695POPC   GL236062  23.327   4.208   9.204
 2695POPC   C1A36063  23.742   4.320   8.672
 2695POPC   D2A36064  23.730   4.034   8.318
 2695POPC   C3A36065  23.722   4.247   7.935
 2695POPC   C4A36066  23.913   4.217   7.493
 2695POPC   C1B36067  23.273   4.467   8.819
 2695POPC   C2B36068  23.317   4.328   8.388
 2695POPC   C3B36069  23.127   4.217   7.993
 2695POPC   C4B36070  23.345   4.319   7.612
 2696POPC   NC336071  14.949  42.734   9.557
 2696POPC   PO436072  14.871  42.072   9.517
 2696POPC   GL136073  15.179  42.288   9.215
 2696POPC   GL236074  15.472  42.534   9.292
 2696POPC   C1A36075  15.083  42.345   8.770
 2696POPC   D2A36076  14.853  42.409   8.397
 2696POPC   C3A36077  14.992  42.097   8.123
 2696POPC   C4A36078  14.971  42.116   7.701
 2696POPC   C1B36079  15.459  42.692   8.847
 2696POPC   C2B36080  15.205  42.764   8.440
 2696POPC   C3B36081  15.213  42.554   8.025
 2696POPC   C4B36082  15.434  42.267   7.761
 2697POPC   NC336083   1.839  38.877   9.317
 2697POPC   PO436084   1.766  39.534   9.419
 2697POPC   GL136085   1.999  39.500   9.052
 2697POPC   GL236086   2.074  39.157   8.974
 2697POPC   C1A36087   2.114  39.493   8.622
 2697POPC   D2A36088   2.275  39.145   8.423
 2697POPC   C3A36089   2.143  39.131   8.025
 2697POPC   C4A36090   1.792  39.358   7.848
 2697POPC   C1B36091   1.823  38.947   8.633
 2697POPC   C2B36092   1.670  38.974   8.198
 2697POPC   C3B36093   1.701  38.871   7.735
 2697POPC   C4B36094   1.688  38.960   7.229
 2698POPC   NC336095  41.314  29.851   9.450
 2698POPC   PO436096  41.982  29.879   9.329
 2698POPC   GL136097  41.713  30.129   9.138
 2698POPC   GL236098  41.534  29.880   9.009
 2698POPC   C1A36099  41.724  30.261   8.738
 2698POPC   D2A36100  41.569  29.923   8.434
 2698POPC   C3A36101  41.523  30.042   7.989
 2698POPC   C4A36102  41.579  30.149   7.566
 2698POPC   C1B36103  41.247  29.604   8.828
 2698POPC   C2B36104  41.159  29.577   8.411
 2698POPC   C3B36105  41.433  29.547   8.027
 2698POPC   C4B36106  41.295  29.606   7.604
 2699POPC   NC336107   3.974   0.758   9.843
 2699POPC   PO436108   3.988   1.348   9.520
 2699POPC   GL136109   3.996   1.184   9.147
 2699POPC   GL236110   4.067   0.873   9.321
 2699POPC   C1A36111   4.159   1.310   8.739
 2699POPC   D2A36112   4.423   1.182   8.400
 2699POPC   C3A36113   4.382   1.416   8.016
 2699POPC   C4A36114   4.586   1.406   7.635
 2699POPC   C1B36115   4.332   0.840   8.967
 2699POPC   C2B36116   4.193   0.731   8.571
 2699POPC   C3B36117   4.208   0.701   8.143
 2699POPC   C4B36118   4.177   0.980   7.834
 2700POPC   NC336119  28.618  26.232  10.000
 2700POPC   PO436120  28.222  25.736   9.679
 2700POPC   GL136121  28.144  25.952   9.277
 2700POPC   GL236122  28.467  26.111   9.134
 2700POPC   C1A36123  28.086  25.952   8.830
 2700POPC   D2A36124  28.344  25.888   8.474
 2700POPC   C3A36125  28.209  25.938   8.076
 2700POPC   C4A36126  28.096  25.660   7.750
 2700POPC   C1B36127  28.623  26.270   8.692
 2700POPC   C2B36128  28.545  26.323   8.229
 2700POPC   C3B36129  28.740  26.332   7.815
 2700POPC   C4B36130  28.602  26.184   7.357
 2701POPC   NC336131  22.266  36.730   9.605
 2701POPC   PO436132  21.859  37.332   9.429
 2701POPC   GL136133  22.011  36.960   9.149
 2701POPC   GL236134  22.273  36.666   9.115
 2701POPC   C1A36135  22.069  36.825   8.697
 2701POPC   D2A36136  22.315  37.004   8.366
 2701POPC   C3A36137  22.155  36.936   7.957
 2701POPC   C4A36138  22.294  37.059   7.570
 2701POPC   C1B36139  22.548  36.483   8.802
 2701POPC   C2B36140  22.678  36.612   8.412
 2701POPC   C3B36141  22.517  36.527   8.009
 2701POPC   C4B36142  22.312  36.539   7.603
 2702POPC   NC336143  22.972  16.759   9.576
 2702POPC   PO436144  22.514  16.264   9.413
 2702POPC   GL136145  22.840  16.470   9.154
 2702POPC   GL236146  23.095  16.744   9.084
 2702POPC   C1A36147  22.802  16.598   8.710
 2702POPC   D2A36148  23.065  16.558   8.343
 2702POPC   C3A36149  22.773  16.563   8.008
 2702POPC   C4A36150  22.453  16.491   7.733
 2702POPC   C1B36151  23.175  16.980   8.672
 2702POPC   C2B36152  23.364  16.951   8.236
 2702POPC   C3B36153  23.173  16.838   7.852
 2702POPC   C4B36154  23.108  17.137   7.527
 2703POPC   NC336155  33.512  27.969   9.392
 2703POPC   PO436156  33.913  27.441   9.780
 2703POPC   GL136157  33.940  27.370   9.290
 2703POPC   GL236158  33.684  27.529   9.134
 2703POPC   C1A36159  34.091  27.446   8.839
 2703POPC   D2A36160  34.292  27.326   8.473
 2703POPC   C3A36161  33.978  27.290   8.172
 2703POPC   C4A36162  33.740  27.400   7.779
 2703POPC   C1B36163  33.586  27.432   8.685
 2703POPC   C2B36164  33.609  27.616   8.243
 2703POPC   C3B36165  33.592  27.875   7.836
 2703POPC   C4B36166  33.439  27.766   7.413
 2704POPC   NC336167  40.162   7.977   9.576
 2704POPC   PO436168  39.548   7.884   9.522
 2704POPC   GL136169  39.846   8.099   9.190
 2704POPC   GL236170  40.026   8.404   9.280
 2704POPC   C1A36171  40.138   8.199   8.818
 2704POPC   D2A36172  40.038   8.168   8.357
 2704POPC   C3A36173  40.219   8.335   7.968
 2704POPC   C4A36174  40.263   8.107   7.576
 2704POPC   C1B36175  39.728   8.522   8.899
 2704POPC   C2B36176  39.623   8.463   8.438
 2704POPC   C3B36177  39.699   8.359   7.982
 2704POPC   C4B36178  39.863   8.421   7.561
 2705POPC   NC336179   6.517  15.817   9.559
 2705POPC   PO436180   6.958  16.321   9.440
 2705POPC   GL136181   6.831  16.050   9.143
 2705POPC   GL236182   6.687  15.704   9.111
 2705POPC   C1A36183   6.628  16.114   8.777
 2705POPC   D2A36184   6.400  15.981   8.450
 2705POPC   C3A36185   6.589  16.194   8.139
 2705POPC   C4A36186   6.424  16.275   7.774
 2705POPC   C1B36187   6.614  15.605   8.720
 2705POPC   C2B36188   6.770  15.648   8.312
 2705POPC   C3B36189   6.697  15.752   7.891
 2705POPC   C4B36190   7.000  15.752   7.591
 2706POPC   NC336191   9.873  42.311   9.539
 2706POPC   PO436192   9.229  42.139   9.455
 2706POPC   GL136193   9.599  42.181   9.143
 2706POPC   GL236194   9.772  42.524   9.108
 2706POPC   C1A36195   9.865  42.139   8.761
 2706POPC   D2A36196  10.066  42.146   8.313
 2706POPC   C3A36197   9.756  42.196   7.984
 2706POPC   C4A36198   9.674  42.087   7.563
 2706POPC   C1B36199   9.992  42.632   8.771
 2706POPC   C2B36200   9.814  42.583   8.375
 2706POPC   C3B36201   9.970  42.639   7.956
 2706POPC   C4B36202   9.899  42.541   7.487
 2707POPC   NC336203  32.797  20.679   9.418
 2707POPC   PO436204  32.412  20.241   9.794
 2707POPC   GL136205  32.376  20.352   9.277
 2707POPC   GL236206  32.345  20.731   9.136
 2707POPC   C1A36207  32.368  20.370   8.790
 2707POPC   D2A36208  32.338  20.628   8.417
 2707POPC   C3A36209  32.541  20.510   8.032
 2707POPC   C4A36210  32.428  20.162   7.771
 2707POPC   C1B36211  31.970  20.662   8.809
 2707POPC   C2B36212  31.861  20.709   8.323
 2707POPC   C3B36213  32.044  20.689   7.913
 2707POPC   C4B36214  32.137  20.628   7.457
 2708POPC   NC336215  41.257  32.531   9.421
 2708POPC   PO436216  41.793  32.062   9.523
 2708POPC   GL136217  41.803  32.028   9.095
 2708POPC   GL236218  41.930  32.366   9.101
 2708POPC   C1A36219  41.681  32.186   8.679
 2708POPC   D2A36220  41.553  32.555   8.424
 2708POPC   C3A36221  41.425  32.366   8.067
 2708POPC   C4A36222  41.619  31.975   7.950
 2708POPC   C1B36223  41.934  32.641   8.764
 2708POPC   C2B36224  42.059  32.497   8.373
 2708POPC   C3B36225  41.945  32.398   7.970
 2708POPC   C4B36226  41.723  32.769   7.853
 2709POPC   NC336227   0.747   3.739   9.513
 2709POPC   PO436228   0.483   3.118   9.598
 2709POPC   GL136229   0.508   3.232   9.138
 2709POPC   GL236230   0.652   3.585   9.035
 2709POPC   C1A36231   0.291   3.370   8.746
 2709POPC   D2A36232   0.469   3.585   8.373
 2709POPC   C3A36233   0.412   3.368   7.986
 2709POPC   C4A36234   0.598   3.192   7.627
 2709POPC   C1B36235   0.459   3.932   8.770
 2709POPC   C2B36236   0.310   4.099   8.383
 2709POPC   C3B36237   0.368   3.917   7.971
 2709POPC   C4B36238   0.107   3.987   7.651
 2710POPC   NC336239  20.047  37.550   9.715
 2710POPC   PO436240  19.530  37.335   9.359
 2710POPC   GL136241  19.806  37.321   9.043
 2710POPC   GL236242  19.893  37.668   9.090
 2710POPC   C1A36243  19.532  37.314   8.680
 2710POPC   D2A36244  19.480  37.702   8.452
 2710POPC   C3A36245  19.610  37.684   8.029
 2710POPC   C4A36246  19.580  38.007   7.753
 2710POPC   C1B36247  20.109  37.765   8.705
 2710POPC   C2B36248  20.106  37.715   8.250
 2710POPC   C3B36249  20.072  37.795   7.813
 2710POPC   C4B36250  19.808  37.655   7.476
 2711POPC   NC336251  35.800  12.525   9.371
 2711POPC   PO436252  36.238  12.901   9.472
 2711POPC   GL136253  36.039  12.903   9.119
 2711POPC   GL236254  36.307  12.656   9.026
 2711POPC   C1A36255  36.102  13.007   8.705
 2711POPC   D2A36256  36.078  12.765   8.333
 2711POPC   C3A36257  36.165  13.030   7.973
 2711POPC   C4A36258  35.991  12.979   7.569
 2711POPC   C1B36259  36.456  12.551   8.609
 2711POPC   C2B36260  36.359  12.327   8.240
 2711POPC   C3B36261  36.234  12.536   7.867
 2711POPC   C4B36262  36.246  12.544   7.445
 2712POPC   NC336263   4.357  35.387   9.624
 2712POPC   PO436264   4.052  35.661   9.111
 2712POPC   GL136265   4.179  35.212   9.177
 2712POPC   GL236266   4.564  35.200   9.210
 2712POPC   C1A36267   4.313  35.006   8.819
 2712POPC   D2A36268   4.232  35.300   8.492
 2712POPC   C3A36269   4.371  35.185   8.091
 2712POPC   C4A36270   4.264  35.280   7.685
 2712POPC   C1B36271   4.599  35.462   8.824
 2712POPC   C2B36272   4.628  35.604   8.378
 2712POPC   C3B36273   4.452  35.657   7.961
 2712POPC   C4B36274   4.629  35.627   7.538
 2713POPC   NC336275  15.897  44.857   9.637
 2713POPC   PO436276  16.391   0.362   9.482
 2713POPC   GL136277  16.196   0.484   9.083
 2713POPC   GL236278  15.806   0.524   9.127
 2713POPC   C1A36279  16.006   0.405   8.678
 2713POPC   D2A36280  15.718   0.684   8.484
 2713POPC   C3A36281  15.794   0.605   8.067
 2713POPC   C4A36282  15.829   0.644   7.645
 2713POPC   C1B36283  15.525   0.309   8.779
 2713POPC   C2B36284  15.588   0.204   8.370
 2713POPC   C3B36285  15.457   0.246   7.959
 2713POPC   C4B36286  15.496   0.161   7.544
 2714POPC   NC336287  21.079   3.692   9.480
 2714POPC   PO436288  21.785   3.768   9.706
 2714POPC   GL136289  21.640   3.489   9.326
 2714POPC   GL236290  21.794   3.616   9.037
 2714POPC   C1A36291  21.350   3.436   8.900
 2714POPC   D2A36292  21.209   3.646   8.470
 2714POPC   C3A36293  21.044   3.509   8.014
 2714POPC   C4A36294  21.056   3.699   7.552
 2714POPC   C1B36295  21.786   3.949   8.736
 2714POPC   C2B36296  21.669   3.842   8.329
 2714POPC   C3B36297  21.542   3.464   8.106
 2714POPC   C4B36298  21.486   3.446   7.677
 2715POPC   NC336299   1.324  34.341   9.402
 2715POPC   PO436300   1.092  34.905   9.160
 2715POPC   GL136301   1.275  34.619   8.964
 2715POPC   GL236302   1.029  34.335   9.001
 2715POPC   C1A36303   1.230  34.688   8.538
 2715POPC   D2A36304   1.118  34.868   8.188
 2715POPC   C3A36305   1.184  34.592   7.955
 2715POPC   C4A36306   1.427  34.323   7.794
 2715POPC   C1B36307   1.331  34.208   8.689
 2715POPC   C2B36308   1.190  34.158   8.272
 2715POPC   C3B36309   0.942  34.146   7.906
 2715POPC   C4B36310   1.148  33.989   7.549
 2716POPC   NC336311  30.971   0.319   9.579
 2716POPC   PO436312  30.376   0.457   9.504
 2716POPC   GL136313  30.657   0.334   9.174
 2716POPC   GL236314  30.891   0.617   9.147
 2716POPC   C1A36315  30.700   0.093   8.802
 2716POPC   D2A36316  30.593   0.215   8.389
 2716POPC   C3A36317  30.714   0.571   8.132
 2716POPC   C4A36318  30.483   0.264   7.878
 2716POPC   C1B36319  30.662   0.609   8.737
 2716POPC   C2B36320  30.303   0.612   8.472
 2716POPC   C3B36321  30.206   0.669   8.055
 2716POPC   C4B36322  30.423   0.695   7.640
 2717POPC   NC336323  34.414  24.186   9.921
 2717POPC   PO436324  34.405  24.854   9.788
 2717POPC   GL136325  34.559  24.657   9.349
 2717POPC   GL236326  34.306  24.746   9.084
 2717POPC   C1A36327  34.625  24.419   8.907
 2717POPC   D2A36328  34.408  24.501   8.550
 2717POPC   C3A36329  34.419  24.233   8.195
 2717POPC   C4A36330  34.388  24.462   7.826
 2717POPC   C1B36331  34.659  24.926   8.869
 2717POPC   C2B36332  34.872  24.843   8.508
 2717POPC   C3B36333  34.694  24.732   8.149
 2717POPC   C4B36334  34.615  24.945   7.784
 2718POPC   NC336335  21.111   9.583   9.491
 2718POPC   PO436336  21.752   9.443   9.422
 2718POPC   GL136337  21.484   9.557   9.078
 2718POPC   GL236338  21.662   9.842   8.938
 2718POPC   C1A36339  21.319   9.526   8.635
 2718POPC   D2A36340  21.001   9.705   8.333
 2718POPC   C3A36341  21.096   9.801   7.888
 2718POPC   C4A36342  21.364   9.538   7.617
 2718POPC   C1B36343  21.328  10.033   8.671
 2718POPC   C2B36344  21.441   9.980   8.236
 2718POPC   C3B36345  21.584   9.955   7.816
 2718POPC   C4B36346  21.315  10.004   7.426
 2719POPC   NC336347   9.431  40.117   9.584
 2719POPC   PO436348   9.975  39.908   9.547
 2719POPC   GL136349   9.796  39.834   9.136
 2719POPC   GL236350   9.453  39.809   9.151
 2719POPC   C1A36351   9.894  39.976   8.694
 2719POPC   D2A36352  10.097  40.305   8.417
 2719POPC   C3A36353   9.987  40.336   7.966
 2719POPC   C4A36354   9.627  40.207   7.733
 2719POPC   C1B36355   9.325  39.905   8.788
 2719POPC   C2B36356   9.492  39.845   8.411
 2719POPC   C3B36357   9.845  39.903   8.164
 2719POPC   C4B36358   9.963  39.839   7.727
 2720POPC   NC336359   1.664  13.254   9.455
 2720POPC   PO436360   2.068  12.737   9.536
 2720POPC   GL136361   1.979  12.917   9.129
 2720POPC   GL236362   1.756  12.691   8.964
 2720POPC   C1A36363   2.188  12.752   8.725
 2720POPC   D2A36364   1.940  12.556   8.430
 2720POPC   C3A36365   2.019  12.836   8.143
 2720POPC   C4A36366   2.046  13.016   7.723
 2720POPC   C1B36367   1.808  13.072   8.672
 2720POPC   C2B36368   1.710  13.268   8.291
 2720POPC   C3B36369   1.607  13.033   7.949
 2720POPC   C4B36370   1.612  13.141   7.469
 2721POPC   NC336371  18.391  17.674   9.775
 2721POPC   PO436372  18.124  17.187   9.315
 2721POPC   GL136373  18.456  17.496   9.244
 2721POPC   GL236374  18.449  17.832   9.097
 2721POPC   C1A36375  18.677  17.486   8.817
 2721POPC   D2A36376  18.550  17.288   8.385
 2721POPC   C3A36377  18.631  17.565   7.994
 2721POPC   C4A36378  18.572  17.732   7.551
 2721POPC   C1B36379  18.197  17.586   8.799
 2721POPC   C2B36380  18.051  17.504   8.393
 2721POPC   C3B36381  18.128  17.429   7.980
 2721POPC   C4B36382  18.059  17.852   7.853
 2722POPC   NC336383  38.165  25.761   9.526
 2722POPC   PO436384  38.606  25.212   9.489
 2722POPC   GL136385  38.312  25.386   9.209
 2722POPC   GL236386  38.556  25.662   9.186
 2722POPC   C1A36387  38.162  25.260   8.793
 2722POPC   D2A36388  38.401  25.039   8.480
 2722POPC   C3A36389  38.265  25.164   8.072
 2722POPC   C4A36390  37.938  25.241   7.784
 2722POPC   C1B36391  38.655  25.393   8.835
 2722POPC   C2B36392  38.697  25.503   8.425
 2722POPC   C3B36393  38.812  25.746   8.069
 2722POPC   C4B36394  38.669  25.864   7.658
 2723POPC   NC336395  34.767  14.576   9.568
 2723POPC   PO436396  34.071  14.641   9.490
 2723POPC   GL136397  34.382  14.465   9.206
 2723POPC   GL236398  34.526  14.769   9.149
 2723POPC   C1A36399  34.716  14.369   8.884
 2723POPC   D2A36400  34.898  14.289   8.478
 2723POPC   C3A36401  34.641  14.046   8.200
 2723POPC   C4A36402  34.414  14.167   7.805
 2723POPC   C1B36403  34.290  14.644   8.749
 2723POPC   C2B36404  34.375  14.467   8.352
 2723POPC   C3B36405  34.333  14.681   7.963
 2723POPC   C4B36406  34.589  14.662   7.581
 2724POPC   NC336407  42.724   3.299   9.287
 2724POPC   PO436408  43.068   3.879   9.491
 2724POPC   GL136409  43.117   3.643   9.127
 2724POPC   GL236410  43.277   3.319   9.192
 2724POPC   C1A36411  42.999   3.714   8.697
 2724POPC   D2A36412  43.041   3.870   8.287
 2724POPC   C3A36413  42.706   3.693   8.045
 2724POPC   C4A36414  42.948   3.403   7.782
 2724POPC   C1B36415  43.342   3.273   8.744
 2724POPC   C2B36416  43.337   3.468   8.353
 2724POPC   C3B36417  43.398   3.607   7.918
 2724POPC   C4B36418  43.404   3.289   7.571
 2725POPC   NC336419  19.088  19.085   9.542
 2725POPC   PO436420  18.564  19.446   9.651
 2725POPC   GL136421  18.840  19.464   9.242
 2725POPC   GL236422  19.002  19.152   9.044
 2725POPC   C1A36423  18.765  19.547   8.776
 2725POPC   D2A36424  18.691  19.353   8.344
 2725POPC   C3A36425  19.076  19.202   8.124
 2725POPC   C4A36426  19.128  19.097   7.695
 2725POPC   C1B36427  19.298  18.807   8.833
 2725POPC   C2B36428  19.466  18.701   8.426
 2725POPC   C3B36429  19.481  18.853   8.008
 2725POPC   C4B36430  19.491  18.724   7.584
 2726POPC   NC336431  43.370  39.791   9.440
 2726POPC   PO436432  42.658  39.930   9.456
 2726POPC   GL136433  42.965  40.101   9.180
 2726POPC   GL236434  43.083  39.790   9.041
 2726POPC   C1A36435  43.111  40.193   8.746
 2726POPC   D2A36436  43.022  39.957   8.405
 2726POPC   C3A36437  43.229  40.056   8.036
 2726POPC   C4A36438  42.941  40.002   7.750
 2726POPC   C1B36439  43.316  39.537   8.743
 2726POPC   C2B36440  43.403  39.620   8.304
 2726POPC   C3B36441  43.269  39.555   7.894
 2726POPC   C4B36442  43.383  39.819   7.558
 2727POPC   NC336443   8.917  16.208   9.539
 2727POPC   PO436444   9.190  16.827   9.360
 2727POPC   GL136445   8.861  16.609   9.170
 2727POPC   GL236446   9.082  16.330   9.095
 2727POPC   C1A36447   8.689  16.740   8.780
 2727POPC   D2A36448   8.871  16.659   8.380
 2727POPC   C3A36449   8.910  16.979   8.089
 2727POPC   C4A36450   8.839  16.785   7.732
 2727POPC   C1B36451   9.002  16.308   8.730
 2727POPC   C2B36452   9.207  16.250   8.345
 2727POPC   C3B36453   9.123  16.356   7.906
 2727POPC   C4B36454   9.367  16.402   7.497
 2728POPC   NC336455  11.506  38.130   9.476
 2728POPC   PO436456  11.233  37.484   9.653
 2728POPC   GL136457  11.408  37.625   9.282
 2728POPC   GL236458  11.348  37.309   9.116
 2728POPC   C1A36459  11.591  37.727   8.863
 2728POPC   D2A36460  11.634  37.603   8.417
 2728POPC   C3A36461  11.428  37.792   8.030
 2728POPC   C4A36462  11.064  38.062   7.852
 2728POPC   C1B36463  10.994  37.101   8.854
 2728POPC   C2B36464  10.890  37.116   8.406
 2728POPC   C3B36465  10.894  37.397   8.035
 2728POPC   C4B36466  11.106  37.560   7.682
 2729POPC   NC336467  33.978  40.011   9.457
 2729POPC   PO436468  33.349  39.879   9.519
 2729POPC   GL136469  33.551  40.019   9.174
 2729POPC   GL236470  33.431  40.350   9.246
 2729POPC   C1A36471  33.840  39.962   8.820
 2729POPC   D2A36472  33.934  39.731   8.453
 2729POPC   C3A36473  33.723  39.814   8.084
 2729POPC   C4A36474  33.810  39.930   7.720
 2729POPC   C1B36475  33.450  40.352   8.798
 2729POPC   C2B36476  33.544  40.188   8.397
 2729POPC   C3B36477  33.607  40.318   7.954
 2729POPC   C4B36478  33.459  40.307   7.524
 2730POPC   NC336479  39.364  38.373   9.597
 2730POPC   PO436480  39.088  37.844   9.437
 2730POPC   GL136481  39.066  38.206   9.148
 2730POPC   GL236482  39.137  38.539   9.186
 2730POPC   C1A36483  39.277  38.293   8.743
 2730POPC   D2A36484  39.385  38.600   8.426
 2730POPC   C3A36485  39.442  38.453   8.003
 2730POPC   C4A36486  39.162  38.341   7.652
 2730POPC   C1B36487  39.075  38.743   8.827
 2730POPC   C2B36488  38.887  38.554   8.480
 2730POPC   C3B36489  38.958  38.609   8.072
 2730POPC   C4B36490  38.961  38.841   7.709
 2731POPC   NC336491  32.682  36.816   9.525
 2731POPC   PO436492  32.882  37.431   9.479
 2731POPC   GL136493  33.015  37.103   9.181
 2731POPC   GL236494  33.055  36.722   9.181
 2731POPC   C1A36495  32.817  37.027   8.777
 2731POPC   D2A36496  32.819  36.804   8.367
 2731POPC   C3A36497  32.710  36.968   7.966
 2731POPC   C4A36498  32.981  37.077   7.646
 2731POPC   C1B36499  32.930  36.505   8.786
 2731POPC   C2B36500  33.173  36.423   8.386
 2731POPC   C3B36501  33.354  36.344   8.005
 2731POPC   C4B36502  33.140  36.606   7.715
 2732POPC   NC336503   5.581  10.026   9.474
 2732POPC   PO436504   6.051   9.641   9.217
 2732POPC   GL136505   5.949   9.776   8.902
 2732POPC   GL236506   5.701   9.966   9.003
 2732POPC   C1A36507   5.792   9.598   8.570
 2732POPC   D2A36508   5.599   9.278   8.361
 2732POPC   C3A36509   5.724   9.319   7.934
 2732POPC   C4A36510   5.936   9.249   7.539
 2732POPC   C1B36511   5.515  10.032   8.677
 2732POPC   C2B36512   5.624   9.965   8.284
 2732POPC   C3B36513   5.988   9.943   8.070
 2732POPC   C4B36514   5.983   9.701   7.739
 2733POPC   NC336515  41.182   8.839   9.531
 2733POPC   PO436516  41.698   9.214   9.886
 2733POPC   GL136517  41.735   9.180   9.397
 2733POPC   GL236518  41.637   8.859   9.261
 2733POPC   C1A36519  41.759   9.209   8.905
 2733POPC   D2A36520  41.658   9.014   8.495
 2733POPC   C3A36521  41.764   9.168   8.070
 2733POPC   C4A36522  41.884   8.964   7.686
 2733POPC   C1B36523  41.363   8.747   8.895
 2733POPC   C2B36524  41.384   8.582   8.475
 2733POPC   C3B36525  41.181   8.620   8.093
 2733POPC   C4B36526  41.361   8.780   7.724
 2734POPC   NC336527   5.435  36.460   9.364
 2734POPC   PO436528   4.724  36.255   9.554
 2734POPC   GL136529   4.876  36.029   9.177
 2734POPC   GL236530   5.084  36.287   9.033
 2734POPC   C1A36531   4.922  35.905   8.739
 2734POPC   D2A36532   4.935  36.160   8.367
 2734POPC   C3A36533   4.860  35.923   8.015
 2734POPC   C4A36534   5.135  35.733   7.729
 2734POPC   C1B36535   5.407  36.338   8.692
 2734POPC   C2B36536   5.446  36.339   8.240
 2734POPC   C3B36537   5.215  36.241   7.872
 2734POPC   C4B36538   5.311  36.207   7.432
 2735POPC   NC336539  24.820  14.143   9.327
 2735POPC   PO436540  25.368  14.430   9.679
 2735POPC   GL136541  25.281  14.391   9.256
 2735POPC   GL236542  25.343  14.060   9.305
 2735POPC   C1A36543  25.143  14.550   8.860
 2735POPC   D2A36544  25.360  14.764   8.537
 2735POPC   C3A36545  25.313  14.646   8.112
 2735POPC   C4A36546  25.202  14.376   7.782
 2735POPC   C1B36547  25.293  14.034   8.848
 2735POPC   C2B36548  25.311  14.225   8.453
 2735POPC   C3B36549  25.523  14.101   8.083
 2735POPC   C4B36550  25.655  14.185   7.663
 2736POPC   NC336551  43.602  20.276   9.617
 2736POPC   PO436552  44.254  20.582   9.637
 2736POPC   GL136553  44.082  20.702   9.238
 2736POPC   GL236554  44.319  20.938   9.150
 2736POPC   C1A36555  43.884  20.813   8.833
 2736POPC   D2A36556  43.926  21.011   8.432
 2736POPC   C3A36557  43.838  20.822   8.019
 2736POPC   C4A36558  43.693  20.388   7.887
 2736POPC   C1B36559  44.367  20.656   8.797
 2736POPC   C2B36560  44.149  20.465   8.453
 2736POPC   C3B36561  44.185  20.351   8.026
 2736POPC   C4B36562  44.289  20.563   7.675
 2737POPC   NC336563   7.104   4.056   9.498
 2737POPC   PO436564   7.534   3.549   9.563
 2737POPC   GL136565   7.564   3.545   9.123
 2737POPC   GL236566   7.343   3.841   9.096
 2737POPC   C1A36567   7.521   3.271   8.742
 2737POPC   D2A36568   7.257   3.281   8.362
 2737POPC   C3A36569   7.500   3.304   7.993
 2737POPC   C4A36570   7.691   3.646   7.778
 2737POPC   C1B36571   7.158   3.663   8.737
 2737POPC   C2B36572   6.918   3.691   8.364
 2737POPC   C3B36573   7.118   3.648   7.996
 2737POPC   C4B36574   7.193   3.907   7.691
 2738POPC   NC336575  31.240   1.621   9.380
 2738POPC   PO436576  31.679   1.280   9.771
 2738POPC   GL136577  31.607   1.267   9.283
 2738POPC   GL236578  31.739   0.970   9.078
 2738POPC   C1A36579  31.375   1.245   8.859
 2738POPC   D2A36580  31.518   0.944   8.540
 2738POPC   C3A36581  31.384   0.985   8.111
 2738POPC   C4A36582  31.267   1.223   7.757
 2738POPC   C1B36583  31.885   1.389   8.876
 2738POPC   C2B36584  31.912   1.725   8.573
 2738POPC   C3B36585  31.877   1.721   8.119
 2738POPC   C4B36586  31.739   1.372   7.871
 2739POPC   NC336587  12.852  12.331   9.418
 2739POPC   PO436588  12.641  11.710   9.591
 2739POPC   GL136589  12.792  11.888   9.149
 2739POPC   GL236590  13.143  11.960   9.138
 2739POPC   C1A36591  12.895  12.139   8.724
 2739POPC   D2A36592  12.776  12.258   8.257
 2739POPC   C3A36593  13.018  12.135   7.900
 2739POPC   C4A36594  13.178  12.270   7.468
 2739POPC   C1B36595  13.234  11.736   8.781
 2739POPC   C2B36596  13.379  11.893   8.376
 2739POPC   C3B36597  13.253  11.711   8.008
 2739POPC   C4B36598  13.217  11.784   7.597
 2740POPC   NC336599  21.960  13.794   9.609
 2740POPC   PO436600  22.329  13.273   9.700
 2740POPC   GL136601  22.320  13.536   9.269
 2740POPC   GL236602  22.068  13.776   9.093
 2740POPC   C1A36603  22.536  13.737   8.879
 2740POPC   D2A36604  22.692  13.657   8.437
 2740POPC   C3A36605  22.451  13.780   8.068
 2740POPC   C4A36606  22.173  13.540   7.811
 2740POPC   C1B36607  21.850  13.639   8.713
 2740POPC   C2B36608  21.973  13.602   8.288
 2740POPC   C3B36609  21.789  13.280   8.016
 2740POPC   C4B36610  21.832  13.211   7.591
 2741POPC   NC336611  44.200  42.161   9.465
 2741POPC   PO436612  43.655  42.470   9.666
 2741POPC   GL136613  43.775  42.427   9.174
 2741POPC   GL236614  43.609  42.729   9.044
 2741POPC   C1A36615  43.920  42.239   8.727
 2741POPC   D2A36616  44.073  41.992   8.349
 2741POPC   C3A36617  43.801  41.968   8.036
 2741POPC   C4A36618  43.969  42.100   7.685
 2741POPC   C1B36619  43.442  42.416   8.753
 2741POPC   C2B36620  43.564  42.301   8.327
 2741POPC   C3B36621  43.615  42.573   7.973
 2741POPC   C4B36622  43.622  42.758   7.596
 2742POPC   NC336623  17.735  25.196   9.368
 2742POPC   PO436624  17.235  24.791   9.454
 2742POPC   GL136625  17.221  25.084   9.131
 2742POPC   GL236626  17.046  25.428   9.096
 2742POPC   C1A36627  17.300  25.169   8.723
 2742POPC   D2A36628  17.068  25.360   8.439
 2742POPC   C3A36629  17.171  25.122   8.102
 2742POPC   C4A36630  17.511  24.929   7.893
 2742POPC   C1B36631  17.324  25.675   8.781
 2742POPC   C2B36632  17.633  25.502   8.466
 2742POPC   C3B36633  17.615  25.412   8.029
 2742POPC   C4B36634  17.264  25.565   7.853
 2743POPC   NC336635  18.058  17.894   9.417
 2743POPC   PO436636  17.399  18.169   9.462
 2743POPC   GL136637  17.556  18.297   9.082
 2743POPC   GL236638  17.813  18.079   9.040
 2743POPC   C1A36639  17.445  18.100   8.695
 2743POPC   D2A36640  17.306  18.180   8.307
 2743POPC   C3A36641  17.489  18.498   8.093
 2743POPC   C4A36642  17.286  18.498   7.730
 2743POPC   C1B36643  17.970  18.031   8.664
 2743POPC   C2B36644  17.767  17.939   8.276
 2743POPC   C3B36645  17.586  18.056   7.864
 2743POPC   C4B36646  17.727  18.330   7.527
 2744POPC   NC336647   5.353   2.866   9.579
 2744POPC   PO436648   4.865   2.452   9.457
 2744POPC   GL136649   5.051   2.715   9.141
 2744POPC   GL236650   5.042   3.044   9.236
 2744POPC   C1A36651   4.939   2.791   8.700
 2744POPC   D2A36652   4.867   2.464   8.381
 2744POPC   C3A36653   4.963   2.588   7.974
 2744POPC   C4A36654   5.292   2.775   7.745
 2744POPC   C1B36655   5.216   3.187   8.850
 2744POPC   C2B36656   5.169   3.161   8.372
 2744POPC   C3B36657   4.960   3.109   7.916
 2744POPC   C4B36658   5.120   3.100   7.399
 2745POPC   NC336659  34.598  13.494   9.396
 2745POPC   PO436660  34.657  14.130   9.576
 2745POPC   GL136661  34.557  13.956   9.147
 2745POPC   GL236662  34.369  13.646   8.965
 2745POPC   C1A36663  34.762  13.846   8.730
 2745POPC   D2A36664  34.582  13.506   8.482
 2745POPC   C3A36665  34.400  13.578   8.116
 2745POPC   C4A36666  34.661  13.708   7.789
 2745POPC   C1B36667  34.190  13.302   8.733
 2745POPC   C2B36668  34.235  13.106   8.340
 2745POPC   C3B36669  34.004  13.216   7.973
 2745POPC   C4B36670  34.201  13.480   7.667
 2746POPC   NC336671  14.402  31.267   9.666
 2746POPC   PO436672  14.506  31.913   9.406
 2746POPC   GL136673  14.592  31.627   9.122
 2746POPC   GL236674  14.253  31.478   9.167
 2746POPC   C1A36675  14.557  31.500   8.690
 2746POPC   D2A36676  14.541  31.640   8.273
 2746POPC   C3A36677  14.728  31.393   7.924
 2746POPC   C4A36678  14.546  31.211   7.550
 2746POPC   C1B36679  14.161  31.786   8.821
 2746POPC   C2B36680  14.051  31.807   8.397
 2746POPC   C3B36681  14.226  31.966   8.018
 2746POPC   C4B36682  14.296  31.650   7.747
 2747POPC   NC336683  15.592  39.460   9.378
 2747POPC   PO436684  16.262  39.265   9.370
 2747POPC   GL136685  16.038  39.489   9.104
 2747POPC   GL236686  15.831  39.179   9.036
 2747POPC   C1A36687  15.820  39.592   8.733
 2747POPC   D2A36688  15.674  39.468   8.336
 2747POPC   C3A36689  15.921  39.189   8.084
 2747POPC   C4A36690  15.978  39.456   7.741
 2747POPC   C1B36691  15.966  39.117   8.624
 2747POPC   C2B36692  16.320  38.976   8.417
 2747POPC   C3B36693  16.344  38.801   8.028
 2747POPC   C4B36694  16.196  38.955   7.657
 2748POPC   NC336695  24.991  22.184   9.444
 2748POPC   PO436696  24.320  22.138   9.469
 2748POPC   GL136697  24.394  22.119   9.065
 2748POPC   GL236698  24.683  21.905   9.107
 2748POPC   C1A36699  24.220  22.297   8.683
 2748POPC   D2A36700  24.179  22.468   8.284
 2748POPC   C3A36701  24.249  22.215   7.963
 2748POPC   C4A36702  24.601  22.247   7.766
 2748POPC   C1B36703  24.515  21.784   8.702
 2748POPC   C2B36704  24.633  21.627   8.311
 2748POPC   C3B36705  24.520  21.761   7.890
 2748POPC   C4B36706  24.287  21.914   7.526
 2749POPC   NC336707  13.220   8.671   9.309
 2749POPC   PO436708  13.907   8.839   9.425
 2749POPC   GL136709  13.644   8.903   9.089
 2749POPC   GL236710  13.443   9.183   9.171
 2749POPC   C1A36711  13.629   8.869   8.663
 2749POPC   D2A36712  13.889   8.807   8.327
 2749POPC   C3A36713  13.814   8.961   7.918
 2749POPC   C4A36714  13.495   8.791   7.658
 2749POPC   C1B36715  13.632   9.363   8.777
 2749POPC   C2B36716  13.449   9.235   8.364
 2749POPC   C3B36717  13.406   9.238   7.930
 2749POPC   C4B36718  13.770   9.505   7.849
 2750POPC   NC336719  42.365  39.583   9.520
 2750POPC   PO436720  42.025  40.154   9.436
 2750POPC   GL136721  42.287  40.090   9.096
 2750POPC   GL236722  42.367  39.719   9.052
 2750POPC   C1A36723  42.609  40.058   8.794
 2750POPC   D2A36724  42.511  39.887   8.403
 2750POPC   C3A36725  42.288  40.199   8.158
 2750POPC   C4A36726  42.408  40.377   7.782
 2750POPC   C1B36727  42.050  39.751   8.785
 2750POPC   C2B36728  41.983  39.815   8.370
 2750POPC   C3B36729  42.221  39.700   8.021
 2750POPC   C4B36730  42.079  39.567   7.664
 2751POPC   NC336731  16.775   8.732   9.497
 2751POPC   PO436732  16.545   8.168   9.764
 2751POPC   GL136733  16.475   8.274   9.306
 2751POPC   GL236734  16.559   7.998   9.056
 2751POPC   C1A36735  16.534   8.504   8.894
 2751POPC   D2A36736  16.566   8.646   8.450
 2751POPC   C3A36737  16.794   8.376   8.162
 2751POPC   C4A36738  16.721   8.258   7.739
 2751POPC   C1B36739  16.619   8.065   8.588
 2751POPC   C2B36740  16.417   8.013   8.169
 2751POPC   C3B36741  16.385   7.883   7.728
 2751POPC   C4B36742  16.626   7.618   7.429
 2752POPC   NC336743   9.490  10.059   9.350
 2752POPC   PO436744   9.984  10.462   9.647
 2752POPC   GL136745   9.713  10.518   9.269
 2752POPC   GL236746   9.950  10.693   9.120
 2752POPC   C1A36747   9.442  10.570   8.893
 2752POPC   D2A36748   9.390  10.745   8.464
 2752POPC   C3A36749   9.740  10.616   8.240
 2752POPC   C4A36750   9.679  10.620   7.835
 2752POPC   C1B36751  10.006  10.581   8.706
 2752POPC   C2B36752  10.036  10.206   8.466
 2752POPC   C3B36753  10.144  10.215   8.058
 2752POPC   C4B36754  10.042  10.337   7.675
 2753POPC   NC336755   1.245  26.349   9.728
 2753POPC   PO436756   0.865  25.882   9.425
 2753POPC   GL136757   1.238  26.051   9.218
 2753POPC   GL236758   1.527  25.813   9.258
 2753POPC   C1A36759   1.228  26.165   8.758
 2753POPC   D2A36760   1.009  26.233   8.344
 2753POPC   C3A36761   1.179  26.164   7.949
 2753POPC   C4A36762   0.973  26.326   7.630
 2753POPC   C1B36763   1.270  25.667   8.889
 2753POPC   C2B36764   1.077  25.751   8.477
 2753POPC   C3B36765   1.057  25.670   8.025
 2753POPC   C4B36766   1.429  25.715   7.759
 2754POPC   NC336767   3.158  15.359   9.439
 2754POPC   PO436768   2.628  15.028   9.755
 2754POPC   GL136769   2.709  15.089   9.309
 2754POPC   GL236770   2.626  15.434   9.260
 2754POPC   C1A36771   2.970  15.061   8.901
 2754POPC   D2A36772   3.006  15.232   8.470
 2754POPC   C3A36773   3.008  14.948   8.124
 2754POPC   C4A36774   2.759  15.051   7.776
 2754POPC   C1B36775   2.615  15.422   8.796
 2754POPC   C2B36776   2.679  15.631   8.395
 2754POPC   C3B36777   2.860  15.573   8.014
 2754POPC   C4B36778   2.709  15.525   7.601
 2755POPC   NC336779  28.914   4.661   9.250
 2755POPC   PO436780  29.257   5.038   9.709
 2755POPC   GL136781  29.291   5.077   9.253
 2755POPC   GL236782  28.966   5.235   9.148
 2755POPC   C1A36783  29.384   4.969   8.797
 2755POPC   D2A36784  29.342   5.051   8.345
 2755POPC   C3A36785  29.517   4.965   7.934
 2755POPC   C4A36786  29.333   5.327   7.747
 2755POPC   C1B36787  28.910   5.166   8.687
 2755POPC   C2B36788  28.845   4.856   8.333
 2755POPC   C3B36789  29.017   4.878   7.912
 2755POPC   C4B36790  28.945   5.067   7.501
 2756POPC   NC336791  21.981   4.864   9.600
 2756POPC   PO436792  22.418   5.263   9.673
 2756POPC   GL136793  22.231   5.137   9.239
 2756POPC   GL236794  21.853   5.136   9.172
 2756POPC   C1A36795  22.244   5.117   8.785
 2756POPC   D2A36796  22.381   5.154   8.346
 2756POPC   C3A36797  22.067   5.151   8.007
 2756POPC   C4A36798  22.327   5.013   7.664
 2756POPC   C1B36799  21.828   4.803   8.851
 2756POPC   C2B36800  21.980   4.831   8.428
 2756POPC   C3B36801  22.124   4.655   8.047
 2756POPC   C4B36802  21.935   4.707   7.665
 2757POPC   NC336803  13.318   7.935   9.979
 2757POPC   PO436804  13.905   8.077   9.694
 2757POPC   GL136805  13.593   8.175   9.351
 2757POPC   GL236806  13.803   8.398   9.196
 2757POPC   C1A36807  13.418   8.140   8.899
 2757POPC   D2A36808  13.439   7.875   8.478
 2757POPC   C3A36809  13.372   8.017   8.030
 2757POPC   C4A36810  13.536   8.174   7.604
 2757POPC   C1B36811  13.819   8.413   8.765
 2757POPC   C2B36812  13.538   8.396   8.435
 2757POPC   C3B36813  13.623   8.471   8.031
 2757POPC   C4B36814  13.944   8.524   7.716
 2758POPC   NC336815  41.007  14.959   9.489
 2758POPC   PO436816  40.963  15.571   9.479
 2758POPC   GL136817  40.705  15.295   9.243
 2758POPC   GL236818  41.001  15.244   9.061
 2758POPC   C1A36819  40.586  15.035   8.887
 2758POPC   D2A36820  40.687  15.158   8.461
 2758POPC   C3A36821  40.440  14.980   8.151
 2758POPC   C4A36822  40.701  14.918   7.823
 2758POPC   C1B36823  40.996  15.513   8.726
 2758POPC   C2B36824  41.194  15.411   8.357
 2758POPC   C3B36825  41.013  15.272   7.998
 2758POPC   C4B36826  41.061  15.226   7.556
 2759POPC   NC336827  38.346  27.281   9.560
 2759POPC   PO436828  38.746  26.731   9.448
 2759POPC   GL136829  38.594  26.714   9.038
 2759POPC   GL236830  38.228  26.691   9.007
 2759POPC   C1A36831  38.494  26.766   8.600
 2759POPC   D2A36832  38.169  26.527   8.455
 2759POPC   C3A36833  38.143  26.570   8.026
 2759POPC   C4A36834  38.474  26.804   7.807
 2759POPC   C1B36835  38.039  26.981   8.700
 2759POPC   C2B36836  38.138  27.031   8.258
 2759POPC   C3B36837  37.998  27.035   7.815
 2759POPC   C4B36838  38.010  27.086   7.368
 2760POPC   NC336839  42.745  37.878   9.754
 2760POPC   PO436840  43.338  37.592   9.463
 2760POPC   GL136841  43.313  37.393   9.106
 2760POPC   GL236842  42.970  37.289   9.106
 2760POPC   C1A36843  43.195  37.611   8.729
 2760POPC   D2A36844  42.880  37.810   8.439
 2760POPC   C3A36845  43.038  37.939   8.017
 2760POPC   C4A36846  43.179  37.824   7.603
 2760POPC   C1B36847  42.753  37.349   8.744
 2760POPC   C2B36848  42.606  37.294   8.384
 2760POPC   C3B36849  42.742  37.503   8.040
 2760POPC   C4B36850  42.817  37.338   7.686
 2761POPC   NC336851  26.775  12.410   9.496
 2761POPC   PO436852  27.063  11.786   9.426
 2761POPC   GL136853  26.755  12.046   9.121
 2761POPC   GL236854  26.522  12.341   9.067
 2761POPC   C1A36855  26.592  11.940   8.715
 2761POPC   D2A36856  26.802  12.065   8.340
 2761POPC   C3A36857  26.625  11.976   7.965
 2761POPC   C4A36858  26.681  11.575   7.817
 2761POPC   C1B36859  26.677  12.433   8.676
 2761POPC   C2B36860  26.968  12.591   8.398
 2761POPC   C3B36861  26.892  12.661   7.972
 2761POPC   C4B36862  26.806  12.367   7.654
 2762POPC   NC336863  27.274  44.062   9.495
 2762POPC   PO436864  27.882  43.968   9.684
 2762POPC   GL136865  27.680  43.920   9.241
 2762POPC   GL236866  27.427  43.670   9.130
 2762POPC   C1A36867  27.483  44.163   8.872
 2762POPC   D2A36868  27.457  44.330   8.429
 2762POPC   C3A36869  27.524  43.987   8.137
 2762POPC   C4A36870  27.445  43.898   7.705
 2762POPC   C1B36871  27.724  43.721   8.779
 2762POPC   C2B36872  27.857  43.633   8.371
 2762POPC   C3B36873  28.058  43.479   8.000
 2762POPC   C4B36874  27.922  43.722   7.640
 2763POPC   NC336875  44.093  10.970   9.516
 2763POPC   PO436876  43.923  10.329   9.510
 2763POPC   GL136877  43.826  10.457   9.122
 2763POPC   GL236878  43.806  10.805   9.105
 2763POPC   C1A36879  43.711  10.444   8.699
 2763POPC   D2A36880  43.636  10.528   8.293
 2763POPC   C3A36881  43.841  10.210   8.088
 2763POPC   C4A36882  44.094  10.303   7.805
 2763POPC   C1B36883  43.909  10.993   8.724
 2763POPC   C2B36884  43.882  10.991   8.296
 2763POPC   C3B36885  43.948  10.820   7.900
 2763POPC   C4B36886  44.105  11.038   7.513
 2764POPC   NC336887  44.636  20.862   9.550
 2764POPC   PO436888  44.919  20.206   9.587
 2764POPC   GL136889  44.912  20.546   9.279
 2764POPC   GL236890  44.564  20.459   9.229
 2764POPC   C1A36891  44.888  20.834   8.865
 2764POPC   D2A36892  44.663  20.854   8.434
 2764POPC   C3A36893  44.841  20.914   8.004
 2764POPC   C4A36894   0.022  20.709   7.676
 2764POPC   C1B36895  44.767  20.348   8.854
 2764POPC   C2B36896  44.683  20.277   8.459
 2764POPC   C3B36897  44.691  20.440   8.099
 2764POPC   C4B36898  44.721  20.271   7.750
 2765POPC   NC336899  41.629  10.418   9.541
 2765POPC   PO436900  41.188  10.782   9.248
 2765POPC   GL136901  41.325  10.427   8.996
 2765POPC   GL236902  41.690  10.417   9.025
 2765POPC   C1A36903  41.353  10.355   8.566
 2765POPC   D2A36904  41.626  10.646   8.345
 2765POPC   C3A36905  41.667  10.503   7.935
 2765POPC   C4A36906  41.359  10.430   7.604
 2765POPC   C1B36907  41.834  10.223   8.637
 2765POPC   C2B36908  41.717  10.041   8.225
 2765POPC   C3B36909  41.746  10.058   7.747
 2765POPC   C4B36910  41.723  10.261   7.303
 2766POPC   NC336911  31.195  17.364   9.680
 2766POPC   PO436912  31.766  16.986   9.539
 2766POPC   GL136913  31.545  17.333   9.269
 2766POPC   GL236914  31.185  17.349   9.181
 2766POPC   C1A36915  31.536  17.634   8.879
 2766POPC   D2A36916  31.368  17.726   8.447
 2766POPC   C3A36917  31.526  17.607   8.037
 2766POPC   C4A36918  31.282  17.753   7.662
 2766POPC   C1B36919  31.340  17.164   8.829
 2766POPC   C2B36920  31.308  17.213   8.437
 2766POPC   C3B36921  31.414  17.085   8.077
 2766POPC   C4B36922  31.318  17.242   7.679
 2767POPC   NC336923  28.095   4.038   9.727
 2767POPC   PO436924  28.508   4.469   9.368
 2767POPC   GL136925  28.469   4.193   9.075
 2767POPC   GL236926  28.153   4.068   9.199
 2767POPC   C1A36927  28.348   4.331   8.650
 2767POPC   D2A36928  28.350   4.633   8.301
 2767POPC   C3A36929  28.179   4.470   7.933
 2767POPC   C4A36930  28.308   4.299   7.547
 2767POPC   C1B36931  28.178   3.863   8.814
 2767POPC   C2B36932  28.106   3.944   8.391
 2767POPC   C3B36933  28.329   3.981   7.981
 2767POPC   C4B36934  28.365   3.789   7.569
 2768POPC   NC336935  23.618   9.412   9.498
 2768POPC   PO436936  23.899   8.727   9.657
 2768POPC   GL136937  23.913   8.893   9.214
 2768POPC   GL236938  23.647   9.120   9.103
 2768POPC   C1A36939  23.776   8.769   8.787
 2768POPC   D2A36940  23.586   8.937   8.406
 2768POPC   C3A36941  23.735   8.802   8.038
 2768POPC   C4A36942  23.995   8.534   7.801
 2768POPC   C1B36943  23.409   9.302   8.756
 2768POPC   C2B36944  23.409   9.413   8.302
 2768POPC   C3B36945  23.626   9.301   7.928
 2768POPC   C4B36946  23.541   9.233   7.475
 2769POPC   NC336947   3.964  38.517   9.469
 2769POPC   PO436948   4.549  38.652   9.666
 2769POPC   GL136949   4.491  38.359   9.336
 2769POPC   GL236950   4.801  38.434   9.170
 2769POPC   C1A36951   4.363  38.237   8.924
 2769POPC   D2A36952   4.335  38.414   8.498
 2769POPC   C3A36953   4.394  38.267   8.071
 2769POPC   C4A36954   4.324  38.411   7.669
 2769POPC   C1B36955   4.788  38.382   8.723
 2769POPC   C2B36956   4.776  38.526   8.276
 2769POPC   C3B36957   4.831  38.507   7.821
 2769POPC   C4B36958   4.715  38.430   7.361
 2770POPC   NC336959  43.792  30.507   9.647
 2770POPC   PO436960  44.141  29.929   9.685
 2770POPC   GL136961  43.953  30.107   9.326
 2770POPC   GL236962  44.160  30.102   9.059
 2770POPC   C1A36963  43.637  30.193   8.970
 2770POPC   D2A36964  43.512  30.077   8.525
 2770POPC   C3A36965  43.696  30.176   8.087
 2770POPC   C4A36966  43.620  30.034   7.610
 2770POPC   C1B36967  44.014  29.931   8.672
 2770POPC   C2B36968  44.272  29.731   8.350
 2770POPC   C3B36969  44.351  29.659   7.970
 2770POPC   C4B36970  44.039  29.874   7.787
 2771POPC   NC336971   6.020  21.799   9.433
 2771POPC   PO436972   5.830  22.407   9.562
 2771POPC   GL136973   5.725  22.172   9.219
 2771POPC   GL236974   6.074  22.246   9.115
 2771POPC   C1A36975   5.701  22.007   8.815
 2771POPC   D2A36976   5.829  22.163   8.436
 2771POPC   C3A36977   5.565  22.195   8.095
 2771POPC   C4A36978   5.677  21.997   7.730
 2771POPC   C1B36979   6.251  22.081   8.740
 2771POPC   C2B36980   6.372  22.134   8.321
 2771POPC   C3B36981   6.095  22.135   7.980
 2771POPC   C4B36982   6.157  21.920   7.611
 2772POPC   NC336983  40.539   8.723   9.956
 2772POPC   PO436984  40.778   9.263   9.621
 2772POPC   GL136985  40.919   9.155   9.196
 2772POPC   GL236986  41.271   9.237   9.205
 2772POPC   C1A36987  40.811   8.956   8.785
 2772POPC   D2A36988  40.605   9.121   8.373
 2772POPC   C3A36989  40.801   8.997   7.972
 2772POPC   C4A36990  40.826   8.658   7.698
 2772POPC   C1B36991  41.271   9.239   8.779
 2772POPC   C2B36992  41.129   9.105   8.414
 2772POPC   C3B36993  41.008   9.423   8.175
 2772POPC   C4B36994  41.244   9.238   7.883
 2773POPC   NC336995   2.239  32.769   9.678
 2773POPC   PO436996   1.630  33.121   9.702
 2773POPC   GL136997   1.598  32.964   9.229
 2773POPC   GL236998   1.896  32.951   9.033
 2773POPC   C1A36999   1.516  32.897   8.755
 2773POPC   D2A37000   1.858  33.039   8.455
 2773POPC   C3A37001   1.932  32.990   7.991
 2773POPC   C4A37002   1.785  33.131   7.566
 2773POPC   C1B37003   2.120  32.671   8.719
 2773POPC   C2B37004   2.444  32.576   8.373
 2773POPC   C3B37005   2.484  32.658   7.912
 2773POPC   C4B37006   2.156  32.728   7.575
 2774POPC   NC337007  16.318  44.001   9.518
 2774POPC   PO437008  15.725  44.338   9.598
 2774POPC   GL137009  15.899  44.175   9.195
 2774POPC   GL237010  15.966  43.792   9.206
 2774POPC   C1A37011  15.866  43.993   8.754
 2774POPC   D2A37012  16.052  43.854   8.362
 2774POPC   C3A37013  15.821  43.842   7.952
 2774POPC   C4A37014  15.875  44.124   7.579
 2774POPC   C1B37015  16.271  43.665   8.863
 2774POPC   C2B37016  16.331  43.434   8.470
 2774POPC   C3B37017  16.278  43.521   8.035
 2774POPC   C4B37018  16.580  43.642   7.742
 2775POPC   NC337019  35.128  10.173   9.479
 2775POPC   PO437020  35.581  10.744   9.467
 2775POPC   GL137021  35.340  10.567   9.205
 2775POPC   GL237022  35.515  10.299   9.128
 2775POPC   C1A37023  35.262  10.576   8.782
 2775POPC   D2A37024  35.253  10.379   8.405
 2775POPC   C3A37025  35.248  10.688   8.095
 2775POPC   C4A37026  35.427  10.904   7.761
 2775POPC   C1B37027  35.708  10.231   8.766
 2775POPC   C2B37028  35.774  10.463   8.426
 2775POPC   C3B37029  35.638  10.353   8.034
 2775POPC   C4B37030  35.750  10.485   7.655
 2776POPC   NC337031  11.881  24.571   9.582
 2776POPC   PO437032  12.374  24.189   9.405
 2776POPC   GL137033  12.064  24.404   9.150
 2776POPC   GL237034  11.682  24.273   9.201
 2776POPC   C1A37035  12.130  24.651   8.815
 2776POPC   D2A37036  12.297  24.635   8.453
 2776POPC   C3A37037  12.087  24.651   8.119
 2776POPC   C4A37038  12.084  24.582   7.727
 2776POPC   C1B37039  11.748  24.320   8.757
 2776POPC   C2B37040  11.701  24.506   8.388
 2776POPC   C3B37041  11.686  24.312   7.971
 2776POPC   C4B37042  11.757  24.255   7.506
 2777POPC   NC337043  11.271  15.165   9.505
 2777POPC   PO437044  11.893  15.572   9.471
 2777POPC   GL137045  11.621  15.363   9.140
 2777POPC   GL237046  11.256  15.378   9.043
 2777POPC   C1A37047  11.593  15.304   8.678
 2777POPC   D2A37048  11.570  15.042   8.329
 2777POPC   C3A37049  11.287  15.171   7.972
 2777POPC   C4A37050  11.407  15.161   7.541
 2777POPC   C1B37051  11.173  15.034   8.744
 2777POPC   C2B37052  11.075  14.843   8.325
 2777POPC   C3B37053  11.065  14.731   7.878
 2777POPC   C4B37054  10.992  14.840   7.440
 2778POPC   NC337055  22.428   6.402   9.525
 2778POPC   PO437056  23.149   6.590   9.598
 2778POPC   GL137057  22.815   6.665   9.296
 2778POPC   GL237058  22.701   7.012   9.368
 2778POPC   C1A37059  22.646   6.503   8.874
 2778POPC   D2A37060  22.635   6.594   8.410
 2778POPC   C3A37061  23.024   6.505   8.239
 2778POPC   C4A37062  23.182   6.467   7.855
 2778POPC   C1B37063  22.784   7.013   8.905
 2778POPC   C2B37064  23.016   6.967   8.488
 2778POPC   C3B37065  22.929   6.953   8.032
 2778POPC   C4B37066  23.143   6.986   7.646
 2779POPC   NC337067  35.417  40.055   9.609
 2779POPC   PO437068  34.892  39.849   9.326
 2779POPC   GL137069  35.172  40.116   9.088
 2779POPC   GL237070  35.516  40.197   9.118
 2779POPC   C1A37071  35.254  40.108   8.648
 2779POPC   D2A37072  35.396  39.825   8.319
 2779POPC   C3A37073  35.180  39.778   7.925
 2779POPC   C4A37074  35.362  39.840   7.491
 2779POPC   C1B37075  35.655  40.430   8.747
 2779POPC   C2B37076  35.575  40.364   8.292
 2779POPC   C3B37077  35.459  40.223   7.889
 2779POPC   C4B37078  35.546  40.358   7.471
 2780POPC   NC337079   7.888  36.275   9.400
 2780POPC   PO437080   8.447  35.904   9.194
 2780POPC   GL137081   8.224  36.275   9.020
 2780POPC   GL237082   8.410  36.578   9.133
 2780POPC   C1A37083   7.895  36.278   8.685
 2780POPC   D2A37084   7.854  35.980   8.326
 2780POPC   C3A37085   8.169  35.902   7.982
 2780POPC   C4A37086   7.942  36.004   7.581
 2780POPC   C1B37087   8.491  36.519   8.668
 2780POPC   C2B37088   8.280  36.297   8.327
 2780POPC   C3B37089   8.141  36.401   7.920
 2780POPC   C4B37090   8.293  36.360   7.477
 2781POPC   NC337091  44.663   6.917   9.566
 2781POPC   PO437092  44.925   6.241   9.605
 2781POPC   GL137093  44.870   6.564   9.251
 2781POPC   GL237094  44.558   6.727   9.116
 2781POPC   C1A37095  44.977   6.729   8.852
 2781POPC   D2A37096  44.706   6.894   8.515
 2781POPC   C3A37097  44.798   6.667   8.167
 2781POPC   C4A37098  44.654   6.447   7.827
 2781POPC   C1B37099  44.374   7.085   8.862
 2781POPC   C2B37100  44.269   7.239   8.461
 2781POPC   C3B37101  44.439   7.130   8.076
 2781POPC   C4B37102  44.710   6.984   7.795
 2782POPC   NC337103  11.033  35.455   9.350
 2782POPC   PO437104  11.488  35.178   9.789
 2782POPC   GL137105  11.414  34.987   9.249
 2782POPC   GL237106  11.114  34.970   9.042
 2782POPC   C1A37107  11.616  35.023   8.782
 2782POPC   D2A37108  11.582  35.121   8.290
 2782POPC   C3A37109  11.289  35.313   7.994
 2782POPC   C4A37110  11.175  35.254   7.542
 2782POPC   C1B37111  11.163  35.264   8.657
 2782POPC   C2B37112  11.082  35.618   8.351
 2782POPC   C3B37113  10.988  35.699   7.892
 2782POPC   C4B37114  10.995  35.752   7.427
 2783POPC   NC337115  24.390  24.993   9.478
 2783POPC   PO437116  24.904  25.433   9.529
 2783POPC   GL137117  24.619  25.323   9.164
 2783POPC   GL237118  24.411  25.594   9.035
 2783POPC   C1A37119  24.428  25.157   8.765
 2783POPC   D2A37120  24.263  25.148   8.332
 2783POPC   C3A37121  24.531  25.012   8.023
 2783POPC   C4A37122  24.765  25.274   7.792
 2783POPC   C1B37123  24.649  25.590   8.663
 2783POPC   C2B37124  24.384  25.656   8.326
 2783POPC   C3B37125  24.272  25.526   7.944
 2783POPC   C4B37126  24.564  25.731   7.696
 2784POPC   NC337127  29.218  10.757   9.569
 2784POPC   PO437128  29.077  10.068   9.550
 2784POPC   GL137129  29.249  10.314   9.172
 2784POPC   GL237130  29.085  10.609   9.108
 2784POPC   C1A37131  29.369  10.380   8.743
 2784POPC   D2A37132  29.040  10.516   8.458
 2784POPC   C3A37133  29.033  10.435   8.011
 2784POPC   C4A37134  29.361  10.405   7.719
 2784POPC   C1B37135  28.817  10.810   8.844
 2784POPC   C2B37136  28.803  11.013   8.488
 2784POPC   C3B37137  28.976  10.935   8.120
 2784POPC   C4B37138  29.031  10.866   7.704
 2785POPC   NC337139  23.659  31.044   9.506
 2785POPC   PO437140  23.464  30.449   9.381
 2785POPC   GL137141  23.793  30.649   9.142
 2785POPC   GL237142  24.081  30.804   9.308
 2785POPC   C1A37143  23.751  30.833   8.713
 2785POPC   D2A37144  23.672  30.802   8.274
 2785POPC   C3A37145  23.837  30.525   7.939
 2785POPC   C4A37146  23.437  30.387   7.777
 2785POPC   C1B37147  24.225  30.855   8.858
 2785POPC   C2B37148  24.176  30.992   8.393
 2785POPC   C3B37149  23.985  31.001   7.935
 2785POPC   C4B37150  23.531  30.908   7.774
 2786POPC   NC337151  30.230  37.586   9.589
 2786POPC   PO437152  30.912  37.698   9.604
 2786POPC   GL137153  30.622  37.757   9.269
 2786POPC   GL237154  30.893  37.950   9.096
 2786POPC   C1A37155  30.478  37.722   8.810
 2786POPC   D2A37156  30.496  37.314   8.541
 2786POPC   C3A37157  30.404  37.269   8.078
 2786POPC   C4A37158  30.571  37.346   7.649
 2786POPC   C1B37159  30.948  37.953   8.633
 2786POPC   C2B37160  30.676  37.789   8.307
 2786POPC   C3B37161  30.448  37.792   7.930
 2786POPC   C4B37162  30.537  37.808   7.446
 2787POPC   NC337163  12.581   3.681   9.547
 2787POPC   PO437164  13.168   3.834   9.540
 2787POPC   GL137165  12.898   3.785   9.173
 2787POPC   GL237166  12.886   3.439   9.195
 2787POPC   C1A37167  12.571   3.659   8.859
 2787POPC   D2A37168  12.713   3.616   8.452
 2787POPC   C3A37169  12.534   3.655   8.083
 2787POPC   C4A37170  12.701   3.908   7.780
 2787POPC   C1B37171  13.052   3.430   8.796
 2787POPC   C2B37172  13.036   3.227   8.409
 2787POPC   C3B37173  13.230   3.172   8.039
 2787POPC   C4B37174  13.291   3.142   7.627
 2788POPC   NC337175   4.742  24.947   9.602
 2788POPC   PO437176   4.074  24.915   9.460
 2788POPC   GL137177   4.357  24.611   9.156
 2788POPC   GL237178   4.483  24.223   9.149
 2788POPC   C1A37179   4.291  24.443   8.706
 2788POPC   D2A37180   4.030  24.556   8.345
 2788POPC   C3A37181   4.036  24.879   8.051
 2788POPC   C4A37182   3.903  24.572   7.767
 2788POPC   C1B37183   4.710  24.141   8.730
 2788POPC   C2B37184   4.642  24.078   8.305
 2788POPC   C3B37185   4.667  24.222   7.904
 2788POPC   C4B37186   4.389  24.557   7.876
 2789POPC   NC337187  35.548  11.666   9.210
 2789POPC   PO437188  35.042  11.557   9.687
 2789POPC   GL137189  35.386  11.219   9.341
 2789POPC   GL237190  35.178  11.034   9.054
 2789POPC   C1A37191  35.633  11.125   8.891
 2789POPC   D2A37192  35.541  10.919   8.488
 2789POPC   C3A37193  35.516  11.228   8.154
 2789POPC   C4A37194  35.680  11.365   7.743
 2789POPC   C1B37195  35.100  11.175   8.615
 2789POPC   C2B37196  34.947  11.540   8.380
 2789POPC   C3B37197  35.172  11.707   8.055
 2789POPC   C4B37198  35.174  11.365   7.793
 2790POPC   NC337199  32.884   5.316   9.451
 2790POPC   PO437200  33.129   4.637   9.574
 2790POPC   GL137201  33.188   4.883   9.202
 2790POPC   GL237202  33.335   5.217   9.214
 2790POPC   C1A37203  33.037   4.827   8.783
 2790POPC   D2A37204  33.283   4.858   8.391
 2790POPC   C3A37205  33.197   5.016   7.971
 2790POPC   C4A37206  33.185   4.896   7.525
 2790POPC   C1B37207  33.142   5.312   8.796
 2790POPC   C2B37208  33.238   5.400   8.367
 2790POPC   C3B37209  33.110   5.537   8.003
 2790POPC   C4B37210  33.153   5.410   7.614
 2791POPC   NC337211   5.763  15.164   9.498
 2791POPC   PO437212   6.306  15.457   9.371
 2791POPC   GL137213   6.003  15.311   9.058
 2791POPC   GL237214   5.884  14.959   9.054
 2791POPC   C1A37215   5.970  15.209   8.610
 2791POPC   D2A37216   6.286  15.080   8.313
 2791POPC   C3A37217   6.297  15.379   7.962
 2791POPC   C4A37218   5.849  15.469   7.905
 2791POPC   C1B37219   6.144  14.742   8.781
 2791POPC   C2B37220   6.137  14.597   8.390
 2791POPC   C3B37221   5.866  14.811   8.131
 2791POPC   C4B37222   6.036  14.972   7.786
 2792POPC   NC337223   5.515  42.843   9.246
 2792POPC   PO437224   5.220  43.303   9.670
 2792POPC   GL137225   5.127  43.193   9.244
 2792POPC   GL237226   4.853  42.956   9.221
 2792POPC   C1A37227   5.261  43.294   8.816
 2792POPC   D2A37228   5.438  43.046   8.493
 2792POPC   C3A37229   5.274  43.223   8.127
 2792POPC   C4A37230   5.214  43.487   7.772
 2792POPC   C1B37231   5.027  42.814   8.805
 2792POPC   C2B37232   4.953  42.897   8.378
 2792POPC   C3B37233   4.876  42.746   7.963
 2792POPC   C4B37234   5.000  42.966   7.587
 2793POPC   NC337235  32.791  38.552   9.411
 2793POPC   PO437236  33.377  38.246   9.258
 2793POPC   GL137237  33.070  38.353   9.015
 2793POPC   GL237238  32.703  38.182   9.084
 2793POPC   C1A37239  33.116  38.683   8.697
 2793POPC   D2A37240  32.956  38.769   8.326
 2793POPC   C3A37241  33.170  38.559   8.012
 2793POPC   C4A37242  33.140  38.717   7.596
 2793POPC   C1B37243  32.691  38.368   8.702
 2793POPC   C2B37244  32.827  38.285   8.311
 2793POPC   C3B37245  32.681  38.479   7.950
 2793POPC   C4B37246  32.750  38.313   7.557
 2794POPC   NC337247  44.479  30.177   9.493
 2794POPC   PO437248  44.445  29.484   9.556
 2794POPC   GL137249  44.456  29.733   9.247
 2794POPC   GL237250  44.730  29.908   9.119
 2794POPC   C1A37251  44.429  29.665   8.818
 2794POPC   D2A37252  44.763  29.759   8.525
 2794POPC   C3A37253  44.774  29.875   8.120
 2794POPC   C4A37254  44.829  29.815   7.697
 2794POPC   C1B37255  44.668  30.189   8.745
 2794POPC   C2B37256  44.911  30.353   8.375
 2794POPC   C3B37257  44.792  30.351   7.941
 2794POPC   C4B37258  44.450  30.150   7.724
 2795POPC   NC337259  28.222  20.764   9.581
 2795POPC   PO437260  28.584  21.361   9.674
 2795POPC   GL137261  28.390  21.327   9.230
 2795POPC   GL237262  28.021  21.434   9.190
 2795POPC   C1A37263  28.487  21.474   8.784
 2795POPC   D2A37264  28.699  21.564   8.385
 2795POPC   C3A37265  28.693  21.223   8.078
 2795POPC   C4A37266  28.598  21.322   7.671
 2795POPC   C1B37267  28.042  21.202   8.772
 2795POPC   C2B37268  28.241  21.136   8.344
 2795POPC   C3B37269  28.083  21.118   7.894
 2795POPC   C4B37270  28.142  21.096   7.408
 2796POPC   NC337271  20.430  18.678   9.912
 2796POPC   PO437272  20.757  18.345   9.439
 2796POPC   GL137273  20.553  18.267   9.055
 2796POPC   GL237274  20.398  17.957   9.099
 2796POPC   C1A37275  20.681  18.344   8.613
 2796POPC   D2A37276  20.850  18.188   8.204
 2796POPC   C3A37277  20.735  18.330   7.780
 2796POPC   C4A37278  20.619  18.710   7.535
 2796POPC   C1B37279  20.212  18.123   8.699
 2796POPC   C2B37280  20.321  18.201   8.274
 2796POPC   C3B37281  20.258  18.155   7.893
 2796POPC   C4B37282  20.291  18.323   7.499
 2797POPC   NC337283  44.357  21.790   9.795
 2797POPC   PO437284  43.924  22.164   9.415
 2797POPC   GL137285  43.783  22.026   9.067
 2797POPC   GL237286  43.662  21.698   9.091
 2797POPC   C1A37287  43.799  22.231   8.667
 2797POPC   D2A37288  43.569  22.139   8.295
 2797POPC   C3A37289  43.820  22.282   7.951
 2797POPC   C4A37290  44.282  22.318   7.901
 2797POPC   C1B37291  43.903  21.725   8.688
 2797POPC   C2B37292  44.057  21.913   8.296
 2797POPC   C3B37293  44.042  21.820   7.859
 2797POPC   C4B37294  43.866  21.773   7.448
 2798POPC   NC337295  30.520  20.297   9.521
 2798POPC   PO437296  30.927  20.797   9.609
 2798POPC   GL137297  30.770  20.621   9.214
 2798POPC   GL237298  31.108  20.471   9.194
 2798POPC   C1A37299  30.500  20.603   8.780
 2798POPC   D2A37300  30.314  20.683   8.338
 2798POPC   C3A37301  30.592  20.590   7.969
 2798POPC   C4A37302  30.992  20.365   7.903
 2798POPC   C1B37303  31.046  20.653   8.797
 2798POPC   C2B37304  30.857  20.724   8.395
 2798POPC   C3B37305  31.025  20.888   8.016
 2798POPC   C4B37306  31.131  20.764   7.613
 2799POPC   NC337307  18.968  32.439   9.548
 2799POPC   PO437308  19.587  32.441   9.431
 2799POPC   GL137309  19.280  32.261   9.122
 2799POPC   GL237310  18.990  32.509   9.046
 2799POPC   C1A37311  19.237  32.296   8.668
 2799POPC   D2A37312  18.906  32.431   8.424
 2799POPC   C3A37313  19.057  32.400   8.031
 2799POPC   C4A37314  19.113  32.147   7.702
 2799POPC   C1B37315  18.769  32.142   8.844
 2799POPC   C2B37316  18.474  32.084   8.484
 2799POPC   C3B37317  18.579  32.180   8.054
 2799POPC   C4B37318  18.557  32.048   7.641
 2800POPC   NC337319  32.697  32.641   9.585
 2800POPC   PO437320  32.932  33.238   9.520
 2800POPC   GL137321  33.163  33.215   9.136
 2800POPC   GL237322  33.311  32.872   9.234
 2800POPC   C1A37323  33.004  33.247   8.707
 2800POPC   D2A37324  32.652  33.370   8.428
 2800POPC   C3A37325  32.769  33.173   8.076
 2800POPC   C4A37326  33.177  33.198   7.905
 2800POPC   C1B37327  33.280  32.819   8.797
 2800POPC   C2B37328  33.298  32.915   8.339
 2800POPC   C3B37329  33.297  32.708   7.917
 2800POPC   C4B37330  33.341  32.882   7.500
 2801POPC   NC337331  38.563   3.897   9.509
 2801POPC   PO437332  38.289   4.524   9.505
 2801POPC   GL137333  38.391   4.407   9.084
 2801POPC   GL237334  38.434   4.058   9.053
 2801POPC   C1A37335  38.663   4.391   8.680
 2801POPC   D2A37336  38.896   4.512   8.266
 2801POPC   C3A37337  38.615   4.557   7.920
 2801POPC   C4A37338  38.170   4.490   7.874
 2801POPC   C1B37339  38.203   4.127   8.693
 2801POPC   C2B37340  38.403   4.103   8.288
 2801POPC   C3B37341  38.442   4.063   7.843
 2801POPC   C4B37342  38.692   4.155   7.527
 2802POPC   NC337343  42.053  20.748   9.565
 2802POPC   PO437344  42.737  20.626   9.592
 2802POPC   GL137345  42.453  20.577   9.211
 2802POPC   GL237346  42.225  20.280   9.210
 2802POPC   C1A37347  42.373  20.783   8.799
 2802POPC   D2A37348  42.231  20.709   8.371
 2802POPC   C3A37349  42.245  20.953   8.022
 2802POPC   C4A37350  42.330  20.829   7.627
 2802POPC   C1B37351  42.265  20.286   8.756
 2802POPC   C2B37352  42.285  20.219   8.314
 2802POPC   C3B37353  42.288  20.415   7.932
 2802POPC   C4B37354  42.240  20.082   7.672
 2803POPC   NC337355   2.578  21.892   9.299
 2803POPC   PO437356   2.590  21.294   9.589
 2803POPC   GL137357   2.651  21.207   9.161
 2803POPC   GL237358   2.825  21.471   9.109
 2803POPC   C1A37359   2.497  21.454   8.735
 2803POPC   D2A37360   2.397  21.736   8.377
 2803POPC   C3A37361   2.705  21.700   8.089
 2803POPC   C4A37362   2.786  21.382   7.810
 2803POPC   C1B37363   3.034  21.315   8.783
 2803POPC   C2B37364   3.076  21.445   8.373
 2803POPC   C3B37365   3.211  21.246   8.037
 2803POPC   C4B37366   3.111  20.982   7.737
 2804POPC   NC337367  24.753  11.564   9.463
 2804POPC   PO437368  24.437  10.955   9.522
 2804POPC   GL137369  24.528  11.121   9.166
 2804POPC   GL237370  24.293  11.401   9.222
 2804POPC   C1A37371  24.661  11.019   8.742
 2804POPC   D2A37372  24.765  11.244   8.362
 2804POPC   C3A37373  24.520  11.206   7.997
 2804POPC   C4A37374  24.534  11.030   7.585
 2804POPC   C1B37375  24.492  11.510   8.823
 2804POPC   C2B37376  24.429  11.720   8.442
 2804POPC   C3B37377  24.315  11.670   8.048
 2804POPC   C4B37378  24.614  11.629   7.710
 2805POPC   NC337379  34.070   2.684   9.732
 2805POPC   PO437380  34.704   2.577   9.524
 2805POPC   GL137381  34.591   2.752   9.132
 2805POPC   GL237382  34.243   2.700   9.083
 2805POPC   C1A37383  34.615   2.625   8.704
 2805POPC   D2A37384  34.886   2.552   8.367
 2805POPC   C3A37385  34.810   2.603   7.916
 2805POPC   C4A37386  34.557   2.438   7.557
 2805POPC   C1B37387  34.181   2.905   8.694
 2805POPC   C2B37388  34.372   2.886   8.290
 2805POPC   C3B37389  34.350   2.826   7.854
 2805POPC   C4B37390  34.394   3.072   7.507
 2806POPC   NC337391  31.423  43.216   9.596
 2806POPC   PO437392  32.025  43.072   9.697
 2806POPC   GL137393  31.767  43.087   9.228
 2806POPC   GL237394  31.345  43.036   9.118
 2806POPC   C1A37395  31.675  43.145   8.781
 2806POPC   D2A37396  31.462  43.093   8.385
 2806POPC   C3A37397  31.673  43.098   8.002
 2806POPC   C4A37398  31.637  43.292   7.600
 2806POPC   C1B37399  31.121  43.033   8.747
 2806POPC   C2B37400  31.075  42.748   8.418
 2806POPC   C3B37401  31.310  42.734   8.031
 2806POPC   C4B37402  31.275  42.961   7.652
 2807POPC   NC337403  20.461   4.728   9.486
 2807POPC   PO437404  20.870   4.135   9.540
 2807POPC   GL137405  20.836   4.223   9.091
 2807POPC   GL237406  20.707   4.551   9.068
 2807POPC   C1A37407  20.848   3.982   8.685
 2807POPC   D2A37408  20.861   3.933   8.243
 2807POPC   C3A37409  20.827   4.271   8.022
 2807POPC   C4A37410  21.041   4.324   7.700
 2807POPC   C1B37411  20.666   4.455   8.637
 2807POPC   C2B37412  20.404   4.388   8.269
 2807POPC   C3B37413  20.435   4.548   7.848
 2807POPC   C4B37414  20.770   4.795   7.739
 2808POPC   NC337415  40.199  24.032   9.517
 2808POPC   PO437416  39.772  23.625   9.565
 2808POPC   GL137417  40.062  23.621   9.189
 2808POPC   GL237418  40.214  23.925   9.035
 2808POPC   C1A37419  39.975  23.596   8.732
 2808POPC   D2A37420  39.907  23.667   8.294
 2808POPC   C3A37421  40.203  23.510   8.100
 2808POPC   C4A37422  40.049  23.500   7.697
 2808POPC   C1B37423  40.062  24.106   8.687
 2808POPC   C2B37424  40.215  24.052   8.295
 2808POPC   C3B37425  40.106  23.983   7.893
 2808POPC   C4B37426  39.831  24.231   7.720
 2809POPC   NC337427  32.974   1.484   9.758
 2809POPC   PO437428  33.004   2.081   9.401
 2809POPC   GL137429  32.887   2.021   9.004
 2809POPC   GL237430  33.214   2.147   8.901
 2809POPC   C1A37431  32.771   2.143   8.626
 2809POPC   D2A37432  33.097   2.135   8.342
 2809POPC   C3A37433  32.999   2.137   7.924
 2809POPC   C4A37434  33.251   2.271   7.593
 2809POPC   C1B37435  33.187   1.740   8.682
 2809POPC   C2B37436  33.372   1.614   8.326
 2809POPC   C3B37437  33.470   1.901   8.040
 2809POPC   C4B37438  33.297   1.765   7.711
 2810POPC   NC337439   0.061  19.757   9.512
 2810POPC   PO437440   0.650  20.065   9.501
 2810POPC   GL137441   0.461  19.980   9.169
 2810POPC   GL237442   0.156  20.118   9.147
 2810POPC   C1A37443   0.409  19.888   8.766
 2810POPC   D2A37444   0.186  19.962   8.439
 2810POPC   C3A37445   0.346  19.795   8.062
 2810POPC   C4A37446   0.540  19.996   7.697
 2810POPC   C1B37447   0.279  20.376   8.825
 2810POPC   C2B37448   0.142  20.485   8.414
 2810POPC   C3B37449   0.172  20.268   7.979
 2810POPC   C4B37450   0.144  20.249   7.478
 2811POPC   NC337451  25.904  10.693   9.539
 2811POPC   PO437452  26.578  10.717   9.602
 2811POPC   GL137453  26.322  10.581   9.243
 2811POPC   GL237454  26.103  10.276   9.303
 2811POPC   C1A37455  26.047  10.666   8.884
 2811POPC   D2A37456  26.018  10.774   8.424
 2811POPC   C3A37457  26.166  10.535   8.083
 2811POPC   C4A37458  26.297  10.425   7.675
 2811POPC   C1B37459  26.195  10.187   8.879
 2811POPC   C2B37460  25.919  10.279   8.523
 2811POPC   C3B37461  25.768  10.200   8.099
 2811POPC   C4B37462  25.974  10.030   7.742
 2812POPC   NC337463  35.324  38.274   9.552
 2812POPC   PO437464  35.398  38.992   9.424
 2812POPC   GL137465  35.109  38.669   9.180
 2812POPC   GL237466  35.151  38.280   9.074
 2812POPC   C1A37467  34.951  38.605   8.746
 2812POPC   D2A37468  35.212  38.406   8.452
 2812POPC   C3A37469  35.144  38.573   8.063
 2812POPC   C4A37470  35.225  38.530   7.612
 2812POPC   C1B37471  35.531  38.275   8.853
 2812POPC   C2B37472  35.742  38.212   8.481
 2812POPC   C3B37473  35.631  38.397   8.128
 2812POPC   C4B37474  35.744  38.360   7.737
 2813POPC   NC337475  14.742   4.896   9.608
 2813POPC   PO437476  14.870   5.463   9.551
 2813POPC   GL137477  14.602   5.350   9.205
 2813POPC   GL237478  14.530   4.983   9.164
 2813POPC   C1A37479  14.498   5.292   8.758
 2813POPC   D2A37480  14.548   5.123   8.362
 2813POPC   C3A37481  14.332   5.414   8.068
 2813POPC   C4A37482  14.499   5.510   7.672
 2813POPC   C1B37483  14.463   4.679   8.849
 2813POPC   C2B37484  14.558   4.551   8.441
 2813POPC   C3B37485  14.342   4.727   8.128
 2813POPC   C4B37486  14.412   4.994   7.802
 2814POPC   NC337487   8.756  11.382   9.502
 2814POPC   PO437488   9.198  10.907   9.697
 2814POPC   GL137489   9.340  11.046   9.277
 2814POPC   GL237490   9.215  11.396   9.160
 2814POPC   C1A37491   9.188  11.019   8.853
 2814POPC   D2A37492   9.019  11.251   8.550
 2814POPC   C3A37493   9.139  11.206   8.157
 2814POPC   C4A37494   9.288  10.939   7.843
 2814POPC   C1B37495   8.920  11.648   8.863
 2814POPC   C2B37496   8.669  11.646   8.484
 2814POPC   C3B37497   8.798  11.605   8.067
 2814POPC   C4B37498   8.919  11.332   7.709
 2815POPC   NC337499  28.487  18.023   9.735
 2815POPC   PO437500  28.140  18.526   9.535
 2815POPC   GL137501  28.241  18.210   9.258
 2815POPC   GL237502  28.573  18.142   9.210
 2815POPC   C1A37503  28.160  18.121   8.839
 2815POPC   D2A37504  28.273  18.351   8.471
 2815POPC   C3A37505  28.066  18.272   8.084
 2815POPC   C4A37506  28.273  18.424   7.708
 2815POPC   C1B37507  28.639  17.953   8.809
 2815POPC   C2B37508  28.460  17.876   8.415
 2815POPC   C3B37509  28.571  18.095   8.045
 2815POPC   C4B37510  28.643  17.920   7.667
 2816POPC   NC337511   2.394   3.730   9.329
 2816POPC   PO437512   1.939   4.204   9.542
 2816POPC   GL137513   1.798   4.278   9.100
 2816POPC   GL237514   1.900   4.593   8.949
 2816POPC   C1A37515   1.609   4.185   8.700
 2816POPC   D2A37516   1.900   4.273   8.370
 2816POPC   C3A37517   1.780   4.442   7.995
 2816POPC   C4A37518   1.863   4.330   7.603
 2816POPC   C1B37519   2.191   4.255   8.802
 2816POPC   C2B37520   2.396   4.110   8.404
 2816POPC   C3B37521   2.227   4.159   7.979
 2816POPC   C4B37522   2.357   4.421   7.651
 2817POPC   NC337523   4.552  29.229   9.597
 2817POPC   PO437524   4.008  29.641   9.588
 2817POPC   GL137525   4.089  29.311   9.271
 2817POPC   GL237526   4.204  28.947   9.287
 2817POPC   C1A37527   4.203  29.242   8.847
 2817POPC   D2A37528   4.129  29.397   8.433
 2817POPC   C3A37529   4.312  29.198   8.070
 2817POPC   C4A37530   4.195  29.072   7.665
 2817POPC   C1B37531   4.213  28.740   8.862
 2817POPC   C2B37532   4.097  28.850   8.427
 2817POPC   C3B37533   4.207  28.688   8.014
 2817POPC   C4B37534   4.599  28.768   7.771
 2818POPC   NC337535   0.333  10.016   9.547
 2818POPC   PO437536   0.282   9.349   9.432
 2818POPC   GL137537   0.497   9.605   9.103
 2818POPC   GL237538   0.397   9.947   9.062
 2818POPC   C1A37539   0.527   9.730   8.635
 2818POPC   D2A37540   0.247   9.528   8.328
 2818POPC   C3A37541   0.364   9.441   7.930
 2818POPC   C4A37542   0.507   9.698   7.559
 2818POPC   C1B37543   0.363  10.226   8.734
 2818POPC   C2B37544   0.575  10.206   8.338
 2818POPC   C3B37545   0.533  10.065   7.919
 2818POPC   C4B37546   0.302  10.325   7.625
 2819POPC   NC337547  17.198  44.471   9.585
 2819POPC   PO437548  16.871  43.863   9.524
 2819POPC   GL137549  16.655  43.950   9.121
 2819POPC   GL237550  16.413  44.254   9.096
 2819POPC   C1A37551  16.753  43.819   8.687
 2819POPC   D2A37552  16.682  43.773   8.249
 2819POPC   C3A37553  16.824  44.067   7.928
 2819POPC   C4A37554  16.901  43.968   7.488
 2819POPC   C1B37555  16.365  44.146   8.678
 2819POPC   C2B37556  16.372  44.248   8.250
 2819POPC   C3B37557  16.287  44.045   7.912
 2819POPC   C4B37558  16.425  44.108   7.537
 2820POPC   NC337559   7.642   8.807   9.652
 2820POPC   PO437560   7.471   8.231   9.349
 2820POPC   GL137561   7.360   8.023   9.004
 2820POPC   GL237562   7.687   8.036   8.838
 2820POPC   C1A37563   7.241   8.102   8.579
 2820POPC   D2A37564   7.609   8.170   8.308
 2820POPC   C3A37565   7.457   8.020   7.924
 2820POPC   C4A37566   7.034   8.129   7.816
 2820POPC   C1B37567   7.502   8.493   8.757
 2820POPC   C2B37568   7.494   8.709   8.369
 2820POPC   C3B37569   7.569   8.572   7.933
 2820POPC   C4B37570   7.532   8.823   7.557
 2821POPC   NC337571   9.157  37.232   9.433
 2821POPC   PO437572   8.826  36.661   9.525
 2821POPC   GL137573   8.869  36.846   9.112
 2821POPC   GL237574   9.215  36.924   9.041
 2821POPC   C1A37575   8.972  36.685   8.670
 2821POPC   D2A37576   9.204  36.441   8.364
 2821POPC   C3A37577   9.181  36.692   7.990
 2821POPC   C4A37578   8.930  36.995   7.857
 2821POPC   C1B37579   9.009  37.197   8.728
 2821POPC   C2B37580   9.030  37.301   8.280
 2821POPC   C3B37581   9.348  37.263   7.972
 2821POPC   C4B37582   9.384  37.108   7.567
 2822POPC   NC337583  17.767  21.987   9.455
 2822POPC   PO437584  18.476  22.067   9.558
 2822POPC   GL137585  18.225  22.075   9.209
 2822POPC   GL237586  18.117  22.411   9.255
 2822POPC   C1A37587  18.248  21.933   8.782
 2822POPC   D2A37588  18.430  21.776   8.384
 2822POPC   C3A37589  18.334  22.016   8.041
 2822POPC   C4A37590  18.233  21.936   7.653
 2822POPC   C1B37591  18.392  22.448   8.880
 2822POPC   C2B37592  18.467  22.300   8.455
 2822POPC   C3B37593  18.614  22.442   8.055
 2822POPC   C4B37594  18.382  22.423   7.666
 2823POPC   NC337595  16.299  37.248   9.717
 2823POPC   PO437596  16.747  36.736   9.517
 2823POPC   GL137597  16.592  36.890   9.160
 2823POPC   GL237598  16.381  36.622   9.124
 2823POPC   C1A37599  16.805  37.014   8.768
 2823POPC   D2A37600  17.025  37.129   8.383
 2823POPC   C3A37601  16.856  36.923   8.036
 2823POPC   C4A37602  16.993  36.965   7.658
 2823POPC   C1B37603  16.364  36.708   8.737
 2823POPC   C2B37604  16.555  36.701   8.385
 2823POPC   C3B37605  16.424  36.642   7.985
 2823POPC   C4B37606  16.461  36.842   7.644
 2824POPC   NC337607   8.673  27.375   9.399
 2824POPC   PO437608   9.020  27.865   9.510
 2824POPC   GL137609   9.225  27.766   9.147
 2824POPC   GL237610   9.205  27.412   9.232
 2824POPC   C1A37611   9.152  27.874   8.687
 2824POPC   D2A37612   8.835  27.794   8.353
 2824POPC   C3A37613   8.892  27.930   7.907
 2824POPC   C4A37614   8.868  27.846   7.451
 2824POPC   C1B37615   9.033  27.401   8.818
 2824POPC   C2B37616   9.205  27.415   8.416
 2824POPC   C3B37617   9.000  27.423   8.023
 2824POPC   C4B37618   8.905  27.052   7.830
 2825POPC   NC337619   9.967  33.493   9.692
 2825POPC   PO437620  10.448  33.999   9.598
 2825POPC   GL137621  10.653  33.855   9.207
 2825POPC   GL237622  10.498  33.549   9.218
 2825POPC   C1A37623  10.846  33.706   8.827
 2825POPC   D2A37624  10.757  33.535   8.427
 2825POPC   C3A37625  10.751  33.794   8.052
 2825POPC   C4A37626  10.569  33.643   7.678
 2825POPC   C1B37627  10.316  33.736   8.827
 2825POPC   C2B37628  10.383  33.902   8.421
 2825POPC   C3B37629  10.196  33.855   8.029
 2825POPC   C4B37630  10.100  33.788   7.584
 2826POPC   NC337631  25.951   6.428   9.728
 2826POPC   PO437632  26.230   6.965   9.493
 2826POPC   GL137633  26.238   6.723   9.144
 2826POPC   GL237634  26.257   6.998   8.955
 2826POPC   C1A37635  26.028   6.602   8.731
 2826POPC   D2A37636  25.725   6.522   8.404
 2826POPC   C3A37637  25.967   6.427   8.063
 2826POPC   C4A37638  26.284   6.573   7.785
 2826POPC   C1B37639  26.048   7.135   8.581
 2826POPC   C2B37640  25.896   7.042   8.183
 2826POPC   C3B37641  26.124   7.077   7.801
 2826POPC   C4B37642  26.281   6.926   7.408
 2827POPC   NC337643  25.351   0.274   9.521
 2827POPC   PO437644  25.251  44.586   9.576
 2827POPC   GL137645  25.172  44.703   9.165
 2827POPC   GL237646  25.443  44.497   9.073
 2827POPC   C1A37647  25.249  44.877   8.754
 2827POPC   D2A37648  25.292  44.945   8.314
 2827POPC   C3A37649  24.933   0.051   8.081
 2827POPC   C4A37650  24.899  44.796   7.750
 2827POPC   C1B37651  25.204  44.354   8.734
 2827POPC   C2B37652  25.086  44.467   8.338
 2827POPC   C3B37653  25.282  44.526   7.957
 2827POPC   C4B37654  25.051  44.328   7.636
 2828POPC   NC337655  19.352  14.758   9.303
 2828POPC   PO437656  18.824  14.358   9.402
 2828POPC   GL137657  19.049  14.451   9.048
 2828POPC   GL237658  19.317  14.225   8.982
 2828POPC   C1A37659  19.232  14.629   8.686
 2828POPC   D2A37660  19.481  14.443   8.381
 2828POPC   C3A37661  19.299  14.521   7.990
 2828POPC   C4A37662  18.952  14.513   7.715
 2828POPC   C1B37663  19.171  14.103   8.626
 2828POPC   C2B37664  19.240  13.917   8.260
 2828POPC   C3B37665  19.160  14.048   7.884
 2828POPC   C4B37666  19.368  14.234   7.568
 2829POPC   NC337667   8.372  12.593   9.474
 2829POPC   PO437668   8.074  13.124   9.444
 2829POPC   GL137669   8.039  12.828   9.098
 2829POPC   GL237670   7.776  13.069   9.000
 2829POPC   C1A37671   8.187  12.650   8.671
 2829POPC   D2A37672   8.315  12.885   8.321
 2829POPC   C3A37673   8.348  12.728   7.891
 2829POPC   C4A37674   8.393  12.886   7.456
 2829POPC   C1B37675   8.116  13.158   8.712
 2829POPC   C2B37676   8.072  13.347   8.340
 2829POPC   C3B37677   8.089  13.181   7.969
 2829POPC   C4B37678   7.919  12.944   7.647
 2830POPC   NC337679  29.666  37.529   9.410
 2830POPC   PO437680  30.390  37.244   9.324
 2830POPC   GL137681  30.059  37.393   9.119
 2830POPC   GL237682  30.080  37.754   9.144
 2830POPC   C1A37683  29.957  37.401   8.702
 2830POPC   D2A37684  30.149  37.650   8.369
 2830POPC   C3A37685  29.959  37.539   8.029
 2830POPC   C4A37686  30.054  37.679   7.638
 2830POPC   C1B37687  29.980  37.910   8.761
 2830POPC   C2B37688  29.795  38.050   8.382
 2830POPC   C3B37689  29.786  38.004   7.941
 2830POPC   C4B37690  29.529  37.726   7.726
 2831POPC   NC337691   6.760  18.723   9.528
 2831POPC   PO437692   6.524  19.339   9.527
 2831POPC   GL137693   6.334  19.179   9.174
 2831POPC   GL237694   6.173  18.870   9.327
 2831POPC   C1A37695   6.446  19.285   8.756
 2831POPC   D2A37696   6.790  19.139   8.507
 2831POPC   C3A37697   6.717  18.985   8.099
 2831POPC   C4A37698   7.023  18.797   7.843
 2831POPC   C1B37699   6.318  18.760   8.914
 2831POPC   C2B37700   6.434  18.741   8.503
 2831POPC   C3B37701   6.253  18.673   8.135
 2831POPC   C4B37702   6.433  18.609   7.740
 2832POPC   NC337703  33.803  15.657   9.504
 2832POPC   PO437704  33.324  16.197   9.509
 2832POPC   GL137705  33.701  16.098   9.189
 2832POPC   GL237706  34.089  16.011   9.253
 2832POPC   C1A37707  33.764  15.799   8.815
 2832POPC   D2A37708  33.722  15.608   8.372
 2832POPC   C3A37709  33.926  15.850   8.039
 2832POPC   C4A37710  33.897  15.999   7.644
 2832POPC   C1B37711  34.099  16.200   8.839
 2832POPC   C2B37712  33.885  16.157   8.453
 2832POPC   C3B37713  33.831  16.342   8.047
 2832POPC   C4B37714  34.168  16.398   7.812
 2833POPC   NC337715  34.353  27.333   9.578
 2833POPC   PO437716  34.799  27.847   9.553
 2833POPC   GL137717  34.726  27.522   9.270
 2833POPC   GL237718  34.400  27.651   9.167
 2833POPC   C1A37719  34.699  27.417   8.840
 2833POPC   D2A37720  34.656  27.684   8.511
 2833POPC   C3A37721  34.676  27.456   8.138
 2833POPC   C4A37722  34.767  27.280   7.743
 2833POPC   C1B37723  34.309  27.925   8.787
 2833POPC   C2B37724  34.084  27.798   8.429
 2833POPC   C3B37725  34.049  27.788   8.008
 2833POPC   C4B37726  34.282  27.474   7.811
 2834POPC   NC337727  23.171  41.070   9.526
 2834POPC   PO437728  22.742  40.521   9.525
 2834POPC   GL137729  22.875  40.500   9.115
 2834POPC   GL237730  23.185  40.659   9.096
 2834POPC   C1A37731  22.847  40.596   8.692
 2834POPC   D2A37732  22.987  40.847   8.375
 2834POPC   C3A37733  22.908  40.602   8.033
 2834POPC   C4A37734  22.963  40.724   7.610
 2834POPC   C1B37735  23.349  40.471   8.704
 2834POPC   C2B37736  23.348  40.456   8.246
 2834POPC   C3B37737  23.379  40.766   7.885
 2834POPC   C4B37738  23.320  41.141   7.610
 2835POPC   NC337739  25.710  33.307   9.628
 2835POPC   PO437740  26.332  33.030   9.481
 2835POPC   GL137741  26.079  33.017   9.126
 2835POPC   GL237742  25.882  33.273   9.158
 2835POPC   C1A37743  26.080  32.955   8.687
 2835POPC   D2A37744  26.252  33.063   8.290
 2835POPC   C3A37745  26.034  33.029   7.915
 2835POPC   C4A37746  26.056  33.324   7.597
 2835POPC   C1B37747  25.654  33.524   8.897
 2835POPC   C2B37748  25.767  33.326   8.500
 2835POPC   C3B37749  25.689  33.353   8.072
 2835POPC   C4B37750  25.493  33.433   7.672
 2836POPC   NC337751   1.070  42.430   9.679
 2836POPC   PO437752   1.113  43.071   9.540
 2836POPC   GL137753   1.029  43.210   9.157
 2836POPC   GL237754   1.353  43.401   9.150
 2836POPC   C1A37755   0.990  43.092   8.742
 2836POPC   D2A37756   0.851  43.244   8.366
 2836POPC   C3A37757   0.997  43.097   7.972
 2836POPC   C4A37758   0.843  43.040   7.566
 2836POPC   C1B37759   1.497  43.192   8.807
 2836POPC   C2B37760   1.375  43.079   8.386
 2836POPC   C3B37761   1.434  43.357   8.049
 2836POPC   C4B37762   1.594  43.407   7.665
 2837POPC   NC337763  33.358  36.426   9.518
 2837POPC   PO437764  33.917  36.022   9.625
 2837POPC   GL137765  33.970  35.993   9.189
 2837POPC   GL237766  33.620  36.135   9.131
 2837POPC   C1A37767  34.010  36.117   8.752
 2837POPC   D2A37768  33.701  36.253   8.419
 2837POPC   C3A37769  33.864  36.233   7.995
 2837POPC   C4A37770  34.169  35.927   7.882
 2837POPC   C1B37771  33.614  35.791   8.821
 2837POPC   C2B37772  33.518  35.747   8.375
 2837POPC   C3B37773  33.613  35.788   7.946
 2837POPC   C4B37774  33.745  35.984   7.561
 2838POPC   NC337775  30.347  26.000   9.427
 2838POPC   PO437776  29.732  26.019   9.392
 2838POPC   GL137777  29.986  26.226   9.141
 2838POPC   GL237778  29.718  26.336   8.926
 2838POPC   C1A37779  30.104  26.030   8.790
 2838POPC   D2A37780  29.955  26.188   8.408
 2838POPC   C3A37781  29.934  25.888   8.090
 2838POPC   C4A37782  30.162  25.849   7.703
 2838POPC   C1B37783  29.620  25.914   8.718
 2838POPC   C2B37784  29.420  25.933   8.333
 2838POPC   C3B37785  29.565  26.263   8.049
 2838POPC   C4B37786  29.812  26.209   7.672
 2839POPC   NC337787  20.761  15.487   9.400
 2839POPC   PO437788  20.605  16.008   9.819
 2839POPC   GL137789  20.648  16.186   9.383
 2839POPC   GL237790  20.987  16.114   9.303
 2839POPC   C1A37791  20.565  16.242   8.920
 2839POPC   D2A37792  20.306  16.002   8.600
 2839POPC   C3A37793  20.389  16.054   8.160
 2839POPC   C4A37794  20.361  16.074   7.730
 2839POPC   C1B37795  20.937  15.885   8.887
 2839POPC   C2B37796  20.806  15.881   8.430
 2839POPC   C3B37797  20.837  15.891   7.953
 2839POPC   C4B37798  20.994  15.558   7.619
 2840POPC   NC337799  15.834   3.687   9.451
 2840POPC   PO437800  16.446   3.727   9.503
 2840POPC   GL137801  16.303   3.447   9.144
 2840POPC   GL237802  15.962   3.346   9.090
 2840POPC   C1A37803  16.212   3.383   8.664
 2840POPC   D2A37804  16.181   3.610   8.294
 2840POPC   C3A37805  16.227   3.431   7.892
 2840POPC   C4A37806  16.029   3.178   7.603
 2840POPC   C1B37807  15.705   3.344   8.723
 2840POPC   C2B37808  15.681   3.634   8.388
 2840POPC   C3B37809  15.617   3.834   8.012
 2840POPC   C4B37810  15.768   3.613   7.684
 2841POPC   NC337811  16.339   5.022   9.536
 2841POPC   PO437812  15.745   5.216   9.899
 2841POPC   GL137813  15.814   5.206   9.426
 2841POPC   GL237814  15.875   4.858   9.284
 2841POPC   C1A37815  15.917   5.276   8.975
 2841POPC   D2A37816  16.090   5.070   8.589
 2841POPC   C3A37817  16.031   5.182   8.132
 2841POPC   C4A37818  15.734   5.281   7.814
 2841POPC   C1B37819  15.692   4.828   8.845
 2841POPC   C2B37820  15.600   4.720   8.381
 2841POPC   C3B37821  15.672   4.785   7.906
 2841POPC   C4B37822  15.821   4.585   7.497
 2842POPC   NC337823  18.912  23.071   9.660
 2842POPC   PO437824  19.322  22.591   9.536
 2842POPC   GL137825  19.181  22.873   9.169
 2842POPC   GL237826  18.840  23.038   9.160
 2842POPC   C1A37827  19.241  22.672   8.761
 2842POPC   D2A37828  18.961  22.525   8.454
 2842POPC   C3A37829  18.978  22.801   8.108
 2842POPC   C4A37830  19.310  22.654   7.840
 2842POPC   C1B37831  18.930  23.072   8.731
 2842POPC   C2B37832  18.786  23.246   8.355
 2842POPC   C3B37833  18.774  23.291   7.930
 2842POPC   C4B37834  19.009  23.043   7.655
 2843POPC   NC337835   8.006  42.920   9.451
 2843POPC   PO437836   8.275  43.596   9.493
 2843POPC   GL137837   8.200  43.307   9.161
 2843POPC   GL237838   8.428  43.019   9.150
 2843POPC   C1A37839   8.109  43.133   8.759
 2843POPC   D2A37840   8.112  42.931   8.358
 2843POPC   C3A37841   8.022  43.298   8.089
 2843POPC   C4A37842   8.234  43.430   7.713
 2843POPC   C1B37843   8.480  42.744   8.767
 2843POPC   C2B37844   8.549  42.645   8.312
 2843POPC   C3B37845   8.245  42.643   7.935
 2843POPC   C4B37846   7.901  42.914   7.782
 2844POPC   NC337847  10.792  37.306   9.683
 2844POPC   PO437848  10.310  37.842   9.693
 2844POPC   GL137849  10.261  37.693   9.273
 2844POPC   GL237850  10.426  37.364   9.268
 2844POPC   C1A37851  10.287  37.650   8.833
 2844POPC   D2A37852  10.517  37.778   8.497
 2844POPC   C3A37853  10.367  37.670   8.101
 2844POPC   C4A37854  10.624  37.759   7.732
 2844POPC   C1B37855  10.452  37.144   8.859
 2844POPC   C2B37856  10.395  37.261   8.433
 2844POPC   C3B37857  10.431  37.185   8.006
 2844POPC   C4B37858  10.300  37.369   7.604
 2845POPC   NC337859   0.098  28.408   9.420
 2845POPC   PO437860  44.455  28.562   9.417
 2845POPC   GL137861  44.526  28.384   9.043
 2845POPC   GL237862  44.746  28.151   9.172
 2845POPC   C1A37863  44.783  28.363   8.668
 2845POPC   D2A37864  44.875  28.417   8.234
 2845POPC   C3A37865  44.545  28.372   7.940
 2845POPC   C4A37866  44.478  28.612   7.569
 2845POPC   C1B37867  44.948  27.923   8.858
 2845POPC   C2B37868   0.007  27.941   8.414
 2845POPC   C3B37869  44.797  27.935   8.007
 2845POPC   C4B37870  44.717  28.037   7.554
 2846POPC   NC337871  27.003  42.290   9.645
 2846POPC   PO437872  26.390  42.233   9.537
 2846POPC   GL137873  26.651  42.446   9.160
 2846POPC   GL237874  27.028  42.418   9.159
 2846POPC   C1A37875  26.617  42.515   8.698
 2846POPC   D2A37876  26.518  42.190   8.383
 2846POPC   C3A37877  26.662  42.129   7.963
 2846POPC   C4A37878  26.711  42.473   7.666
 2846POPC   C1B37879  27.141  42.584   8.780
 2846POPC   C2B37880  27.054  42.446   8.360
 2846POPC   C3B37881  27.135  42.332   7.942
 2846POPC   C4B37882  27.283  42.481   7.571
 2847POPC   NC337883  11.378   1.569   9.683
 2847POPC   PO437884  10.975   1.002   9.612
 2847POPC   GL137885  11.225   1.137   9.258
 2847POPC   GL237886  11.216   1.468   9.187
 2847POPC   C1A37887  11.290   1.077   8.807
 2847POPC   D2A37888  11.475   1.019   8.416
 2847POPC   C3A37889  11.317   1.234   8.074
 2847POPC   C4A37890  11.411   1.025   7.700
 2847POPC   C1B37891  10.916   1.410   8.862
 2847POPC   C2B37892  11.024   1.451   8.459
 2847POPC   C3B37893  10.885   1.561   8.073
 2847POPC   C4B37894  10.970   1.353   7.706
 2848POPC   NC337895  38.104  23.303   9.277
 2848POPC   PO437896  37.578  22.960   9.569
 2848POPC   GL137897  37.748  22.975   9.146
 2848POPC   GL237898  37.736  22.659   9.074
 2848POPC   C1A37899  37.860  23.041   8.698
 2848POPC   D2A37900  37.746  22.923   8.269
 2848POPC   C3A37901  37.896  23.168   7.943
 2848POPC   C4A37902  37.839  23.095   7.509
 2848POPC   C1B37903  37.443  22.705   8.741
 2848POPC   C2B37904  37.461  22.502   8.351
 2848POPC   C3B37905  37.489  22.644   7.929
 2848POPC   C4B37906  37.169  22.493   7.703
 2849POPC   NC337907  42.519   1.828   9.489
 2849POPC   PO437908  42.031   2.370   9.532
 2849POPC   GL137909  41.941   2.197   9.136
 2849POPC   GL237910  42.185   1.954   9.118
 2849POPC   C1A37911  41.922   2.081   8.698
 2849POPC   D2A37912  42.186   1.981   8.355
 2849POPC   C3A37913  42.404   2.235   8.001
 2849POPC   C4A37914  42.365   2.010   7.559
 2849POPC   C1B37915  42.491   1.843   8.779
 2849POPC   C2B37916  42.697   1.900   8.370
 2849POPC   C3B37917  42.455   1.726   8.002
 2849POPC   C4B37918  42.544   1.499   7.650
 2850POPC   NC337919  14.976  43.403   9.343
 2850POPC   PO437920  15.339  42.942   9.670
 2850POPC   GL137921  15.225  42.972   9.203
 2850POPC   GL237922  14.985  42.747   9.047
 2850POPC   C1A37923  15.182  43.141   8.778
 2850POPC   D2A37924  15.387  43.458   8.577
 2850POPC   C3A37925  15.313  43.449   8.160
 2850POPC   C4A37926  15.204  43.359   7.775
 2850POPC   C1B37927  14.726  42.911   8.708
 2850POPC   C2B37928  14.656  42.882   8.313
 2850POPC   C3B37929  14.938  43.002   8.030
 2850POPC   C4B37930  15.066  42.860   7.649
 2851POPC   NC337931  23.686  39.469   9.461
 2851POPC   PO437932  23.906  38.927   9.405
 2851POPC   GL137933  23.557  39.020   9.121
 2851POPC   GL237934  23.326  39.320   9.138
 2851POPC   C1A37935  23.625  39.123   8.687
 2851POPC   D2A37936  23.655  38.964   8.270
 2851POPC   C3A37937  23.862  39.208   7.903
 2851POPC   C4A37938  24.138  39.330   7.558
 2851POPC   C1B37939  23.139  39.122   8.800
 2851POPC   C2B37940  23.247  39.337   8.407
 2851POPC   C3B37941  23.382  39.316   7.990
 2851POPC   C4B37942  23.215  39.446   7.591
 2852POPC   NC337943   0.215  42.044   9.625
 2852POPC   PO437944   0.625  42.542   9.597
 2852POPC   GL137945   0.456  42.375   9.213
 2852POPC   GL237946   0.098  42.270   9.192
 2852POPC   C1A37947   0.316  42.398   8.768
 2852POPC   D2A37948   0.516  42.421   8.403
 2852POPC   C3A37949   0.367  42.346   8.042
 2852POPC   C4A37950   0.737  42.368   7.816
 2852POPC   C1B37951   0.369  41.929   8.975
 2852POPC   C2B37952   0.421  41.884   8.543
 2852POPC   C3B37953   0.631  41.929   8.177
 2852POPC   C4B37954   0.485  41.933   7.765
 2853POPC   NC337955  43.095  14.446   9.618
 2853POPC   PO437956  42.954  13.729   9.618
 2853POPC   GL137957  43.069  14.082   9.265
 2853POPC   GL237958  42.877  14.403   9.169
 2853POPC   C1A37959  43.262  14.157   8.888
 2853POPC   D2A37960  43.123  14.236   8.471
 2853POPC   C3A37961  43.150  14.037   8.096
 2853POPC   C4A37962  43.163  14.237   7.734
 2853POPC   C1B37963  43.001  14.617   8.819
 2853POPC   C2B37964  42.877  14.685   8.402
 2853POPC   C3B37965  43.087  14.607   8.066
 2853POPC   C4B37966  42.893  14.662   7.698
 2854POPC   NC337967  22.538  10.593   9.664
 2854POPC   PO437968  23.251  10.786   9.533
 2854POPC   GL137969  22.932  10.672   9.197
 2854POPC   GL237970  22.610  10.545   9.167
 2854POPC   C1A37971  23.003  10.522   8.771
 2854POPC   D2A37972  23.237  10.626   8.416
 2854POPC   C3A37973  23.145  10.347   8.090
 2854POPC   C4A37974  22.863  10.339   7.758
 2854POPC   C1B37975  22.527  10.672   8.744
 2854POPC   C2B37976  22.719  10.788   8.365
 2854POPC   C3B37977  22.591  10.747   7.964
 2854POPC   C4B37978  22.386  10.511   7.714
 2855POPC   NC337979  23.802   1.928   9.569
 2855POPC   PO437980  23.117   1.675   9.652
 2855POPC   GL137981  23.354   1.765   9.219
 2855POPC   GL237982  23.670   1.708   9.125
 2855POPC   C1A37983  23.484   2.024   8.792
 2855POPC   D2A37984  23.425   2.218   8.349
 2855POPC   C3A37985  23.492   2.005   7.907
 2855POPC   C4A37986  23.577   2.086   7.452
 2855POPC   C1B37987  23.733   1.602   8.717
 2855POPC   C2B37988  23.827   1.889   8.399
 2855POPC   C3B37989  23.982   1.979   8.057
 2855POPC   C4B37990  23.947   1.789   7.674
 2856POPC   NC337991   1.672  17.225   9.396
 2856POPC   PO437992   2.183  17.572   9.424
 2856POPC   GL137993   2.034  17.454   9.048
 2856POPC   GL237994   1.915  17.127   8.968
 2856POPC   C1A37995   2.252  17.381   8.674
 2856POPC   D2A37996   2.223  17.716   8.403
 2856POPC   C3A37997   1.905  17.764   8.150
 2856POPC   C4A37998   1.963  17.643   7.738
 2856POPC   C1B37999   1.748  17.281   8.580
 2856POPC   C2B38000   2.018  17.254   8.216
 2856POPC   C3B38001   2.005  17.136   7.780
 2856POPC   C4B38002   2.223  17.079   7.380
 2857POPC   NC338003   5.233  23.400   9.597
 2857POPC   PO438004   4.718  23.695   9.158
 2857POPC   GL138005   4.965  23.625   8.930
 2857POPC   GL238006   5.239  23.575   9.091
 2857POPC   C1A38007   5.026  23.356   8.627
 2857POPC   D2A38008   4.790  23.534   8.334
 2857POPC   C3A38009   4.921  23.419   7.981
 2857POPC   C4A38010   4.889  23.681   7.668
 2857POPC   C1B38011   5.320  23.800   8.662
 2857POPC   C2B38012   5.318  23.623   8.251
 2857POPC   C3B38013   5.326  23.844   7.849
 2857POPC   C4B38014   5.506  23.976   7.423
 2858POPC   NC338015   2.276  32.210   9.244
 2858POPC   PO438016   2.900  32.224   9.507
 2858POPC   GL138017   2.958  32.232   9.106
 2858POPC   GL238018   2.699  31.991   9.097
 2858POPC   C1A38019   2.854  32.262   8.693
 2858POPC   D2A38020   3.019  32.095   8.377
 2858POPC   C3A38021   2.917  32.398   8.114
 2858POPC   C4A38022   2.885  32.379   7.700
 2858POPC   C1B38023   2.548  31.862   8.707
 2858POPC   C2B38024   2.502  32.062   8.292
 2858POPC   C3B38025   2.400  32.159   7.857
 2858POPC   C4B38026   2.473  32.337   7.430
 2859POPC   NC338027  15.811  40.387   9.528
 2859POPC   PO438028  16.286  40.871   9.448
 2859POPC   GL138029  16.119  40.549   9.157
 2859POPC   GL238030  15.810  40.695   9.118
 2859POPC   C1A38031  16.106  40.379   8.743
 2859POPC   D2A38032  16.317  40.501   8.360
 2859POPC   C3A38033  16.112  40.419   7.982
 2859POPC   C4A38034  16.260  40.438   7.559
 2859POPC   C1B38035  16.032  40.897   8.786
 2859POPC   C2B38036  15.916  40.814   8.392
 2859POPC   C3B38037  15.924  40.900   7.990
 2859POPC   C4B38038  16.081  40.931   7.597
 2860POPC   NC338039   5.142   7.005   9.339
 2860POPC   PO438040   4.801   6.453   9.469
 2860POPC   GL138041   4.881   6.641   9.134
 2860POPC   GL238042   5.247   6.569   9.120
 2860POPC   C1A38043   4.850   6.899   8.764
 2860POPC   D2A38044   5.068   6.970   8.351
 2860POPC   C3A38045   5.159   6.595   8.117
 2860POPC   C4A38046   4.988   6.521   7.707
 2860POPC   C1B38047   5.318   6.700   8.739
 2860POPC   C2B38048   5.560   6.785   8.428
 2860POPC   C3B38049   5.543   6.937   8.045
 2860POPC   C4B38050   5.482   6.672   7.724
 2861POPC   NC338051  32.085  16.430   9.466
 2861POPC   PO438052  32.582  16.859   9.408
 2861POPC   GL138053  32.537  16.678   9.020
 2861POPC   GL238054  32.361  16.395   9.058
 2861POPC   C1A38055  32.263  16.806   8.692
 2861POPC   D2A38056  32.287  16.788   8.272
 2861POPC   C3A38057  32.389  16.847   7.902
 2861POPC   C4A38058  32.357  17.238   7.805
 2861POPC   C1B38059  32.554  16.163   8.775
 2861POPC   C2B38060  32.549  16.392   8.437
 2861POPC   C3B38061  32.373  16.345   8.016
 2861POPC   C4B38062  32.520  16.415   7.599
 2862POPC   NC338063  29.817  16.413   9.818
 2862POPC   PO438064  29.794  15.827   9.525
 2862POPC   GL138065  29.865  16.108   9.208
 2862POPC   GL238066  29.550  16.180   9.113
 2862POPC   C1A38067  29.924  16.020   8.762
 2862POPC   D2A38068  29.754  15.915   8.349
 2862POPC   C3A38069  29.975  16.053   7.984
 2862POPC   C4A38070  30.006  15.791   7.626
 2862POPC   C1B38071  29.405  16.080   8.712
 2862POPC   C2B38072  29.477  16.344   8.356
 2862POPC   C3B38073  29.675  16.483   7.977
 2862POPC   C4B38074  29.818  16.343   7.593
 2863POPC   NC338075  23.445  23.626   9.500
 2863POPC   PO438076  24.082  23.893   9.495
 2863POPC   GL138077  23.784  23.818   9.145
 2863POPC   GL238078  23.746  23.461   9.109
 2863POPC   C1A38079  23.705  23.790   8.714
 2863POPC   D2A38080  23.950  23.736   8.362
 2863POPC   C3A38081  23.659  23.834   8.051
 2863POPC   C4A38082  23.671  24.084   7.680
 2863POPC   C1B38083  23.829  23.298   8.676
 2863POPC   C2B38084  23.678  23.306   8.247
 2863POPC   C3B38085  23.712  23.377   7.814
 2863POPC   C4B38086  24.020  23.274   7.480
 2864POPC   NC338087  43.346  31.567   9.610
 2864POPC   PO438088  42.600  31.748   9.493
 2864POPC   GL138089  42.810  31.467   9.160
 2864POPC   GL238090  43.108  31.564   9.120
 2864POPC   C1A38091  42.967  31.298   8.700
 2864POPC   D2A38092  42.828  31.352   8.245
 2864POPC   C3A38093  43.102  31.247   7.941
 2864POPC   C4A38094  43.066  31.135   7.519
 2864POPC   C1B38095  43.088  31.792   8.759
 2864POPC   C2B38096  43.236  31.661   8.380
 2864POPC   C3B38097  43.111  31.759   7.998
 2864POPC   C4B38098  43.223  31.612   7.599
 2865POPC   NC338099  39.714  25.459   9.496
 2865POPC   PO438100  40.112  24.904   9.568
 2865POPC   GL138101  40.030  25.175   9.204
 2865POPC   GL238102  39.695  25.149   9.088
 2865POPC   C1A38103  40.191  25.080   8.793
 2865POPC   D2A38104  39.970  25.048   8.394
 2865POPC   C3A38105  40.186  24.969   8.030
 2865POPC   C4A38106  40.047  25.040   7.608
 2865POPC   C1B38107  39.791  25.432   8.771
 2865POPC   C2B38108  39.727  25.533   8.342
 2865POPC   C3B38109  39.915  25.399   7.963
 2865POPC   C4B38110  39.852  25.504   7.529
 2866POPC   NC338111  41.035  23.590   9.610
 2866POPC   PO438112  40.632  24.126   9.606
 2866POPC   GL138113  40.637  23.764   9.284
 2866POPC   GL238114  40.946  23.684   9.114
 2866POPC   C1A38115  40.506  23.519   8.890
 2866POPC   D2A38116  40.610  23.420   8.459
 2866POPC   C3A38117  40.631  23.767   8.168
 2866POPC   C4A38118  40.521  23.679   7.726
 2866POPC   C1B38119  40.924  23.789   8.691
 2866POPC   C2B38120  41.097  23.951   8.323
 2866POPC   C3B38121  41.020  23.874   7.866
 2866POPC   C4B38122  41.293  23.846   7.513
 2867POPC   NC338123  35.813   5.457   9.519
 2867POPC   PO438124  36.173   6.065   9.493
 2867POPC   GL138125  35.988   5.844   9.189
 2867POPC   GL238126  35.704   6.054   9.201
 2867POPC   C1A38127  35.826   5.589   8.868
 2867POPC   D2A38128  35.715   5.499   8.449
 2867POPC   C3A38129  36.022   5.698   8.196
 2867POPC   C4A38130  35.994   5.660   7.760
 2867POPC   C1B38131  35.800   6.241   8.798
 2867POPC   C2B38132  35.978   6.294   8.390
 2867POPC   C3B38133  35.889   6.144   7.981
 2867POPC   C4B38134  36.084   6.129   7.568
 2868POPC   NC338135  43.482   8.127   9.447
 2868POPC   PO438136  44.034   8.451   9.796
 2868POPC   GL138137  43.980   8.277   9.319
 2868POPC   GL238138  43.698   8.368   9.062
 2868POPC   C1A38139  44.140   8.287   8.865
 2868POPC   D2A38140  43.868   8.311   8.496
 2868POPC   C3A38141  44.044   8.101   8.144
 2868POPC   C4A38142  43.989   8.239   7.729
 2868POPC   C1B38143  43.759   7.942   8.843
 2868POPC   C2B38144  43.625   7.840   8.410
 2868POPC   C3B38145  43.446   7.835   7.976
 2868POPC   C4B38146  43.468   7.888   7.497
 2869POPC   NC338147  40.874  12.655   9.299
 2869POPC   PO438148  41.094  12.038   9.385
 2869POPC   GL138149  40.676  11.942   9.184
 2869POPC   GL238150  40.453  12.254   9.154
 2869POPC   C1A38151  40.440  11.857   8.791
 2869POPC   D2A38152  40.312  12.048   8.384
 2869POPC   C3A38153  40.594  11.934   8.049
 2869POPC   C4A38154  40.677  12.170   7.680
 2869POPC   C1B38155  40.610  12.345   8.727
 2869POPC   C2B38156  40.905  12.083   8.465
 2869POPC   C3B38157  41.103  12.051   8.051
 2869POPC   C4B38158  40.978  11.775   7.709
 2870POPC   NC338159  42.401  42.002   9.432
 2870POPC   PO438160  42.017  42.494   9.465
 2870POPC   GL138161  42.276  42.391   9.124
 2870POPC   GL238162  42.553  42.629   9.107
 2870POPC   C1A38163  42.159  42.134   8.760
 2870POPC   D2A38164  41.945  42.328   8.384
 2870POPC   C3A38165  42.180  42.328   8.000
 2870POPC   C4A38166  42.448  42.156   7.663
 2870POPC   C1B38167  42.392  42.564   8.661
 2870POPC   C2B38168  42.585  42.336   8.332
 2870POPC   C3B38169  42.691  42.516   7.934
 2870POPC   C4B38170  42.376  42.789   7.820
 2871POPC   NC338171  18.489  42.531   9.656
 2871POPC   PO438172  18.164  41.969   9.566
 2871POPC   GL138173  18.231  42.267   9.236
 2871POPC   GL238174  18.585  42.371   9.196
 2871POPC   C1A38175  18.158  42.237   8.785
 2871POPC   D2A38176  17.984  42.511   8.458
 2871POPC   C3A38177  18.116  42.238   8.106
 2871POPC   C4A38178  18.049  42.009   7.730
 2871POPC   C1B38179  18.660  42.283   8.797
 2871POPC   C2B38180  18.505  42.410   8.398
 2871POPC   C3B38181  18.650  42.219   8.025
 2871POPC   C4B38182  18.680  42.089   7.616
 2872POPC   NC338183  38.891  11.936   9.391
 2872POPC   PO438184  38.358  12.015   9.555
 2872POPC   GL138185  38.462  11.976   9.127
 2872POPC   GL238186  38.672  12.273   9.085
 2872POPC   C1A38187  38.403  12.027   8.699
 2872POPC   D2A38188  38.335  12.259   8.362
 2872POPC   C3A38189  38.367  11.989   8.025
 2872POPC   C4A38190  38.479  11.869   7.595
 2872POPC   C1B38191  38.825  12.312   8.666
 2872POPC   C2B38192  38.838  12.205   8.227
 2872POPC   C3B38193  38.672  12.358   7.849
 2872POPC   C4B38194  38.909  12.557   7.542
 2873POPC   NC338195  22.168  31.346   9.480
 2873POPC   PO438196  21.696  31.793   9.356
 2873POPC   GL138197  22.013  31.725   9.018
 2873POPC   GL238198  22.231  31.423   8.999
 2873POPC   C1A38199  22.040  31.765   8.556
 2873POPC   D2A38200  21.866  31.580   8.180
 2873POPC   C3A38201  22.085  31.704   7.795
 2873POPC   C4A38202  22.189  31.520   7.389
 2873POPC   C1B38203  22.423  31.360   8.635
 2873POPC   C2B38204  22.643  31.680   8.441
 2873POPC   C3B38205  22.543  31.831   8.053
 2873POPC   C4B38206  22.549  31.474   7.791
 2874POPC   NC338207  36.971  14.761   9.653
 2874POPC   PO438208  36.537  15.230   9.481
 2874POPC   GL138209  36.745  15.219   9.118
 2874POPC   GL238210  37.085  15.313   9.262
 2874POPC   C1A38211  36.715  14.940   8.757
 2874POPC   D2A38212  36.492  14.830   8.382
 2874POPC   C3A38213  36.593  15.046   8.035
 2874POPC   C4A38214  36.745  15.129   7.659
 2874POPC   C1B38215  37.211  15.148   8.843
 2874POPC   C2B38216  37.375  15.100   8.435
 2874POPC   C3B38217  37.150  15.155   8.072
 2874POPC   C4B38218  37.257  15.113   7.665
 2875POPC   NC338219   8.743  39.461   9.512
 2875POPC   PO438220   9.365  39.130   9.579
 2875POPC   GL138221   9.169  39.355   9.224
 2875POPC   GL238222   8.880  39.194   9.105
 2875POPC   C1A38223   9.164  39.423   8.770
 2875POPC   D2A38224   9.266  39.273   8.361
 2875POPC   C3A38225   9.092  39.409   7.977
 2875POPC   C4A38226   9.163  39.228   7.600
 2875POPC   C1B38227   8.649  39.176   8.700
 2875POPC   C2B38228   8.703  39.250   8.247
 2875POPC   C3B38229   8.740  39.051   7.798
 2875POPC   C4B38230   8.709  39.032   7.311
 2876POPC   NC338231  11.644  34.152   9.440
 2876POPC   PO438232  12.303  33.942   9.501
 2876POPC   GL138233  11.974  33.833   9.197
 2876POPC   GL238234  11.931  33.477   9.163
 2876POPC   C1A38235  11.876  34.005   8.765
 2876POPC   D2A38236  12.106  34.186   8.387
 2876POPC   C3A38237  11.985  34.178   7.916
 2876POPC   C4A38238  12.117  34.059   7.488
 2876POPC   C1B38239  12.229  33.608   8.814
 2876POPC   C2B38240  12.232  33.633   8.356
 2876POPC   C3B38241  11.958  33.683   8.009
 2876POPC   C4B38242  11.745  33.751   7.603
 2877POPC   NC338243  42.360   2.808   9.615
 2877POPC   PO438244  41.699   2.863   9.660
 2877POPC   GL138245  42.018   2.800   9.245
 2877POPC   GL238246  42.310   2.554   9.148
 2877POPC   C1A38247  42.192   3.001   8.849
 2877POPC   D2A38248  41.898   3.211   8.599
 2877POPC   C3A38249  41.913   3.041   8.208
 2877POPC   C4A38250  42.188   2.846   7.924
 2877POPC   C1B38251  42.404   2.360   8.716
 2877POPC   C2B38252  42.405   2.743   8.414
 2877POPC   C3B38253  42.663   2.779   8.034
 2877POPC   C4B38254  42.550   2.587   7.629
 2878POPC   NC338255  38.619  17.062   9.741
 2878POPC   PO438256  38.561  16.400   9.602
 2878POPC   GL138257  38.538  16.749   9.254
 2878POPC   GL238258  38.620  17.144   9.243
 2878POPC   C1A38259  38.411  16.732   8.803
 2878POPC   D2A38260  38.375  16.518   8.382
 2878POPC   C3A38261  38.444  16.794   8.040
 2878POPC   C4A38262  38.211  16.887   7.673
 2878POPC   C1B38263  38.809  17.059   8.863
 2878POPC   C2B38264  38.707  17.056   8.436
 2878POPC   C3B38265  38.696  17.234   8.010
 2878POPC   C4B38266  38.688  17.011   7.634
 2879POPC   NC338267  39.375  13.622   9.439
 2879POPC   PO438268  38.980  13.057   9.387
 2879POPC   GL138269  38.988  13.379   9.072
 2879POPC   GL238270  38.821  13.660   9.228
 2879POPC   C1A38271  39.253  13.587   8.751
 2879POPC   D2A38272  39.199  13.815   8.361
 2879POPC   C3A38273  39.291  13.626   7.977
 2879POPC   C4A38274  39.543  13.694   7.617
 2879POPC   C1B38275  38.789  13.818   8.783
 2879POPC   C2B38276  38.718  13.648   8.367
 2879POPC   C3B38277  38.806  13.401   8.015
 2879POPC   C4B38278  38.919  13.538   7.631
 2880POPC   NC338279  23.240   1.289   9.422
 2880POPC   PO438280  23.915   1.465   9.480
 2880POPC   GL138281  23.735   1.198   9.163
 2880POPC   GL238282  23.407   1.291   8.954
 2880POPC   C1A38283  23.818   1.092   8.741
 2880POPC   D2A38284  23.582   1.194   8.383
 2880POPC   C3A38285  23.880   1.073   8.046
 2880POPC   C4A38286  23.961   1.285   7.632
 2880POPC   C1B38287  23.238   1.590   8.640
 2880POPC   C2B38288  23.393   1.688   8.299
 2880POPC   C3B38289  23.651   1.530   8.004
 2880POPC   C4B38290  23.496   1.571   7.605
 2881POPC   NC338291   2.856  22.473   9.508
 2881POPC   PO438292   3.049  21.816   9.398
 2881POPC   GL138293   3.023  21.940   9.014
 2881POPC   GL238294   2.837  22.252   9.019
 2881POPC   C1A38295   2.846  21.859   8.623
 2881POPC   D2A38296   2.728  22.169   8.310
 2881POPC   C3A38297   2.949  22.197   7.912
 2881POPC   C4A38298   2.964  22.211   7.459
 2881POPC   C1B38299   2.446  22.231   8.742
 2881POPC   C2B38300   2.251  22.402   8.379
 2881POPC   C3B38301   2.392  22.344   7.960
 2881POPC   C4B38302   2.521  22.439   7.536
 2882POPC   NC338303  28.304  16.405   9.445
 2882POPC   PO438304  28.562  15.844   9.741
 2882POPC   GL138305  28.308  15.906   9.364
 2882POPC   GL238306  28.569  15.993   9.143
 2882POPC   C1A38307  28.134  15.896   8.908
 2882POPC   D2A38308  28.400  15.917   8.514
 2882POPC   C3A38309  28.311  15.888   8.062
 2882POPC   C4A38310  28.538  15.942   7.666
 2882POPC   C1B38311  28.448  16.324   8.825
 2882POPC   C2B38312  28.507  16.451   8.414
 2882POPC   C3B38313  28.507  16.390   7.976
 2882POPC   C4B38314  28.187  16.435   7.684
 2883POPC   NC338315  27.842  24.937   9.382
 2883POPC   PO438316  27.466  25.483   9.693
 2883POPC   GL138317  27.497  25.335   9.246
 2883POPC   GL238318  27.215  25.412   9.045
 2883POPC   C1A38319  27.613  25.223   8.788
 2883POPC   D2A38320  27.692  25.074   8.357
 2883POPC   C3A38321  27.787  25.396   8.078
 2883POPC   C4A38322  27.664  25.438   7.637
 2883POPC   C1B38323  27.111  25.242   8.668
 2883POPC   C2B38324  27.340  25.465   8.386
 2883POPC   C3B38325  27.300  25.237   8.054
 2883POPC   C4B38326  27.215  25.230   7.671
 2884POPC   NC338327   2.887  26.593   9.426
 2884POPC   PO438328   2.369  26.948   9.464
 2884POPC   GL138329   2.586  26.875   9.077
 2884POPC   GL238330   2.919  27.047   9.061
 2884POPC   C1A38331   2.620  26.987   8.636
 2884POPC   D2A38332   2.600  27.127   8.232
 2884POPC   C3A38333   2.867  26.900   7.966
 2884POPC   C4A38334   2.625  26.576   7.792
 2884POPC   C1B38335   3.013  26.679   8.763
 2884POPC   C2B38336   2.853  26.552   8.371
 2884POPC   C3B38337   3.050  26.413   8.023
 2884POPC   C4B38338   3.424  26.530   7.832
 2885POPC   NC338339  20.801  34.753   9.444
 2885POPC   PO438340  20.745  34.107   9.678
 2885POPC   GL138341  20.499  34.419   9.238
 2885POPC   GL238342  20.312  34.715   9.243
 2885POPC   C1A38343  20.432  34.314   8.797
 2885POPC   D2A38344  20.663  34.352   8.404
 2885POPC   C3A38345  20.426  34.286   8.013
 2885POPC   C4A38346  20.488  34.432   7.591
 2885POPC   C1B38347  20.555  34.807   8.855
 2885POPC   C2B38348  20.573  34.891   8.421
 2885POPC   C3B38349  20.649  34.773   7.991
 2885POPC   C4B38350  20.456  34.967   7.617
 2886POPC   NC338351  28.515  27.630   9.638
 2886POPC   PO438352  27.932  27.398   9.697
 2886POPC   GL138353  28.258  27.460   9.257
 2886POPC   GL238354  28.635  27.648   9.153
 2886POPC   C1A38355  28.290  27.471   8.809
 2886POPC   D2A38356  28.295  27.238   8.415
 2886POPC   C3A38357  28.636  27.287   8.126
 2886POPC   C4A38358  28.460  27.525   7.806
 2886POPC   C1B38359  28.556  27.922   8.793
 2886POPC   C2B38360  28.263  27.812   8.433
 2886POPC   C3B38361  28.191  27.906   8.016
 2886POPC   C4B38362  28.526  28.035   7.796
 2887POPC   NC338363  12.045  27.071   9.691
 2887POPC   PO438364  12.530  26.568   9.598
 2887POPC   GL138365  12.235  26.552   9.259
 2887POPC   GL238366  11.981  26.789   9.253
 2887POPC   C1A38367  12.368  26.660   8.826
 2887POPC   D2A38368  12.311  26.941   8.450
 2887POPC   C3A38369  12.319  26.767   8.011
 2887POPC   C4A38370  12.169  26.687   7.586
 2887POPC   C1B38371  11.883  26.874   8.802
 2887POPC   C2B38372  11.822  26.859   8.338
 2887POPC   C3B38373  11.821  26.952   7.868
 2887POPC   C4B38374  11.678  26.976   7.409
 2888POPC   NC338375  44.389   8.545   9.496
 2888POPC   PO438376  44.929   8.230   9.408
 2888POPC   GL138377  44.955   8.016   9.034
 2888POPC   GL238378  44.579   8.018   9.052
 2888POPC   C1A38379  44.855   7.927   8.640
 2888POPC   D2A38380  44.558   8.024   8.370
 2888POPC   C3A38381  44.801   8.012   8.040
 2888POPC   C4A38382  44.835   8.035   7.629
 2888POPC   C1B38383  44.622   8.381   8.750
 2888POPC   C2B38384  44.351   8.481   8.380
 2888POPC   C3B38385  44.471   8.387   7.960
 2888POPC   C4B38386  44.894   8.510   7.791
 2889POPC   NC338387  17.802   0.670   9.427
 2889POPC   PO438388  17.347   0.238   9.750
 2889POPC   GL138389  17.503   0.276   9.249
 2889POPC   GL238390  17.463   0.566   9.017
 2889POPC   C1A38391  17.450   0.135   8.770
 2889POPC   D2A38392  17.552   0.316   8.366
 2889POPC   C3A38393  17.269   0.222   8.048
 2889POPC   C4A38394  17.386   0.200   7.605
 2889POPC   C1B38395  17.640   0.760   8.640
 2889POPC   C2B38396  18.028   0.741   8.404
 2889POPC   C3B38397  17.930   0.696   7.961
 2889POPC   C4B38398  17.489   0.657   7.953
 2890POPC   NC338399   9.429  29.195   9.672
 2890POPC   PO438400  10.038  29.178   9.593
 2890POPC   GL138401   9.803  29.241   9.180
 2890POPC   GL238402   9.672  28.953   9.026
 2890POPC   C1A38403   9.814  29.308   8.701
 2890POPC   D2A38404   9.899  29.400   8.270
 2890POPC   C3A38405   9.614  29.205   7.970
 2890POPC   C4A38406   9.749  28.957   7.620
 2890POPC   C1B38407   9.643  28.781   8.637
 2890POPC   C2B38408   9.646  28.753   8.198
 2890POPC   C3B38409   9.363  28.750   7.864
 2890POPC   C4B38410   9.246  29.108   7.618
 2891POPC   NC338411  32.945   6.448   9.806
 2891POPC   PO438412  33.149   7.040   9.543
 2891POPC   GL138413  32.995   6.848   9.161
 2891POPC   GL238414  32.915   6.514   9.163
 2891POPC   C1A38415  32.768   6.840   8.779
 2891POPC   D2A38416  32.828   7.062   8.404
 2891POPC   C3A38417  32.707   6.931   7.997
 2891POPC   C4A38418  32.851   6.783   7.608
 2891POPC   C1B38419  32.825   6.318   8.765
 2891POPC   C2B38420  32.981   6.344   8.356
 2891POPC   C3B38421  33.086   6.552   7.985
 2891POPC   C4B38422  33.344   6.502   7.600
 2892POPC   NC338423  28.121   5.193   9.546
 2892POPC   PO438424  28.749   4.963   9.549
 2892POPC   GL138425  28.478   4.969   9.186
 2892POPC   GL238426  28.380   5.322   9.102
 2892POPC   C1A38427  28.506   4.846   8.744
 2892POPC   D2A38428  28.409   5.143   8.393
 2892POPC   C3A38429  28.511   5.069   7.954
 2892POPC   C4A38430  28.578   5.402   7.630
 2892POPC   C1B38431  28.080   5.109   8.815
 2892POPC   C2B38432  27.938   4.941   8.409
 2892POPC   C3B38433  27.995   4.944   7.969
 2892POPC   C4B38434  28.090   4.784   7.545
 2893POPC   NC338435   6.294   4.076   9.502
 2893POPC   PO438436   6.681   4.628   9.375
 2893POPC   GL138437   6.704   4.214   9.167
 2893POPC   GL238438   6.418   4.001   9.028
 2893POPC   C1A38439   6.851   4.071   8.785
 2893POPC   D2A38440   6.692   4.194   8.408
 2893POPC   C3A38441   6.950   4.141   8.075
 2893POPC   C4A38442   6.899   4.372   7.720
 2893POPC   C1B38443   6.404   4.408   8.794
 2893POPC   C2B38444   6.265   4.490   8.361
 2893POPC   C3B38445   6.413   4.461   7.909
 2893POPC   C4B38446   6.390   4.314   7.443
 2894POPC   NC338447  14.923   4.267   9.614
 2894POPC   PO438448  15.485   4.003   9.524
 2894POPC   GL138449  15.239   4.335   9.216
 2894POPC   GL238450  14.906   4.589   9.198
 2894POPC   C1A38451  15.395   4.414   8.803
 2894POPC   D2A38452  15.506   4.145   8.460
 2894POPC   C3A38453  15.470   4.322   8.035
 2894POPC   C4A38454  15.300   4.110   7.672
 2894POPC   C1B38455  14.889   4.404   8.811
 2894POPC   C2B38456  15.046   4.364   8.405
 2894POPC   C3B38457  14.960   4.159   8.044
 2894POPC   C4B38458  14.836   4.350   7.659
 2895POPC   NC338459   2.132   2.145   9.713
 2895POPC   PO438460   1.982   1.482   9.781
 2895POPC   GL138461   2.046   1.825   9.358
 2895POPC   GL238462   1.774   1.837   9.127
 2895POPC   C1A38463   2.205   2.080   8.993
 2895POPC   D2A38464   2.288   2.087   8.529
 2895POPC   C3A38465   2.375   1.818   8.145
 2895POPC   C4A38466   2.101   1.998   7.819
 2895POPC   C1B38467   1.806   1.931   8.705
 2895POPC   C2B38468   1.872   1.864   8.288
 2895POPC   C3B38469   1.639   1.836   7.939
 2895POPC   C4B38470   1.780   1.712   7.542
 2896POPC   NC338471  25.103  13.195   9.472
 2896POPC   PO438472  25.562  12.608   9.600
 2896POPC   GL138473  25.609  12.721   9.176
 2896POPC   GL238474  25.498  13.070   9.170
 2896POPC   C1A38475  25.370  12.733   8.771
 2896POPC   D2A38476  25.364  12.560   8.365
 2896POPC   C3A38477  25.001  12.513   8.124
 2896POPC   C4A38478  25.060  12.701   7.717
 2896POPC   C1B38479  25.298  13.226   8.782
 2896POPC   C2B38480  25.500  13.107   8.390
 2896POPC   C3B38481  25.413  12.984   7.976
 2896POPC   C4B38482  25.123  13.230   7.686
 2897POPC   NC338483  37.376  16.303   9.601
 2897POPC   PO438484  36.631  16.331   9.453
 2897POPC   GL138485  36.892  16.450   9.129
 2897POPC   GL238486  37.140  16.640   9.285
 2897POPC   C1A38487  36.867  16.639   8.745
 2897POPC   D2A38488  37.085  16.743   8.409
 2897POPC   C3A38489  36.936  16.771   7.985
 2897POPC   C4A38490  36.756  16.495   7.674
 2897POPC   C1B38491  37.278  16.922   8.983
 2897POPC   C2B38492  37.392  17.101   8.600
 2897POPC   C3B38493  37.236  17.179   8.186
 2897POPC   C4B38494  37.262  17.080   7.762
 2898POPC   NC338495  13.287   3.279   9.481
 2898POPC   PO438496  14.001   3.597   9.523
 2898POPC   GL138497  13.768   3.538   9.154
 2898POPC   GL238498  13.412   3.620   9.145
 2898POPC   C1A38499  13.806   3.373   8.733
 2898POPC   D2A38500  13.552   3.463   8.337
 2898POPC   C3A38501  13.717   3.396   7.910
 2898POPC   C4A38502  13.832   3.580   7.496
 2898POPC   C1B38503  13.455   3.752   8.763
 2898POPC   C2B38504  13.204   3.807   8.428
 2898POPC   C3B38505  13.070   3.663   8.053
 2898POPC   C4B38506  13.295   3.646   7.669
 2899POPC   NC338507  21.651  14.623   9.988
 2899POPC   PO438508  21.259  14.569   9.511
 2899POPC   GL138509  21.255  14.387   9.137
 2899POPC   GL238510  21.055  14.578   9.047
 2899POPC   C1A38511  21.409  14.402   8.715
 2899POPC   D2A38512  21.384  14.581   8.317
 2899POPC   C3A38513  21.403  14.300   7.959
 2899POPC   C4A38514  21.135  13.951   7.877
 2899POPC   C1B38515  20.960  14.613   8.641
 2899POPC   C2B38516  20.860  14.631   8.234
 2899POPC   C3B38517  20.998  14.572   7.839
 2899POPC   C4B38518  21.365  14.652   7.572
 2900POPC   NC338519  14.634  19.563   9.771
 2900POPC   PO438520  14.376  18.939   9.574
 2900POPC   GL138521  14.618  19.152   9.202
 2900POPC   GL238522  14.310  19.186   9.007
 2900POPC   C1A38523  14.717  19.156   8.728
 2900POPC   D2A38524  14.343  18.962   8.454
 2900POPC   C3A38525  14.410  18.841   8.005
 2900POPC   C4A38526  14.399  18.685   7.587
 2900POPC   C1B38527  13.930  19.316   8.804
 2900POPC   C2B38528  13.878  19.270   8.381
 2900POPC   C3B38529  14.085  19.254   8.017
 2900POPC   C4B38530  13.856  19.326   7.681
 2901POPC   NC338531  21.344  35.633   9.474
 2901POPC   PO438532  21.221  34.951   9.470
 2901POPC   GL138533  21.256  35.253   9.125
 2901POPC   GL238534  21.589  35.412   9.090
 2901POPC   C1A38535  21.248  35.495   8.726
 2901POPC   D2A38536  21.522  35.371   8.399
 2901POPC   C3A38537  21.351  35.441   7.997
 2901POPC   C4A38538  21.620  35.424   7.673
 2901POPC   C1B38539  21.734  35.717   8.781
 2901POPC   C2B38540  21.956  35.677   8.397
 2901POPC   C3B38541  21.789  35.788   7.989
 2901POPC   C4B38542  21.651  35.945   7.564
 2902POPC   NC338543  25.657  37.262   9.473
 2902POPC   PO438544  25.051  36.958   9.601
 2902POPC   GL138545  25.245  36.813   9.249
 2902POPC   GL238546  25.390  37.072   9.072
 2902POPC   C1A38547  25.084  36.735   8.818
 2902POPC   D2A38548  25.228  36.885   8.431
 2902POPC   C3A38549  25.125  36.655   8.071
 2902POPC   C4A38550  25.374  36.794   7.725
 2902POPC   C1B38551  25.664  37.107   8.719
 2902POPC   C2B38552  25.556  37.287   8.321
 2902POPC   C3B38553  25.299  37.283   7.893
 2902POPC   C4B38554  25.502  37.189   7.449
 2903POPC   NC338555   1.487  39.920   9.462
 2903POPC   PO438556   2.144  40.116   9.627
 2903POPC   GL138557   2.031  39.979   9.254
 2903POPC   GL238558   1.801  40.241   9.223
 2903POPC   C1A38559   2.209  39.961   8.855
 2903POPC   D2A38560   2.298  40.102   8.437
 2903POPC   C3A38561   2.099  39.944   8.069
 2903POPC   C4A38562   2.118  40.113   7.693
 2903POPC   C1B38563   1.758  40.188   8.791
 2903POPC   C2B38564   1.824  39.886   8.490
 2903POPC   C3B38565   1.606  39.756   8.127
 2903POPC   C4B38566   1.692  39.833   7.718
 2904POPC   NC338567  30.819  36.507   9.543
 2904POPC   PO438568  31.039  35.945   9.487
 2904POPC   GL138569  31.011  36.215   9.127
 2904POPC   GL238570  30.675  36.209   9.127
 2904POPC   C1A38571  30.833  36.358   8.682
 2904POPC   D2A38572  30.892  36.457   8.242
 2904POPC   C3A38573  30.859  36.158   7.934
 2904POPC   C4A38574  30.527  36.356   7.749
 2904POPC   C1B38575  30.493  35.983   8.787
 2904POPC   C2B38576  30.562  36.037   8.343
 2904POPC   C3B38577  30.420  35.898   7.932
 2904POPC   C4B38578  30.262  35.723   7.554
 2905POPC   NC338579  29.795  24.311   9.483
 2905POPC   PO438580  30.266  24.859   9.508
 2905POPC   GL138581  30.026  24.648   9.171
 2905POPC   GL238582  30.140  24.330   9.017
 2905POPC   C1A38583  29.796  24.741   8.799
 2905POPC   D2A38584  29.723  24.560   8.401
 2905POPC   C3A38585  30.126  24.386   8.212
 2905POPC   C4A38586  30.097  24.470   7.758
 2905POPC   C1B38587  29.779  24.228   8.803
 2905POPC   C2B38588  29.728  24.050   8.392
 2905POPC   C3B38589  29.719  24.208   7.992
 2905POPC   C4B38590  29.638  24.340   7.570
 2906POPC   NC338591  31.077  37.265   9.733
 2906POPC   PO438592  31.229  36.730   9.446
 2906POPC   GL138593  31.508  36.859   9.139
 2906POPC   GL238594  31.366  37.152   8.981
 2906POPC   C1A38595  31.480  36.723   8.728
 2906POPC   D2A38596  31.272  36.758   8.353
 2906POPC   C3A38597  31.525  36.656   8.018
 2906POPC   C4A38598  31.581  36.737   7.629
 2906POPC   C1B38599  31.750  37.177   8.725
 2906POPC   C2B38600  31.686  37.048   8.315
 2906POPC   C3B38601  31.677  37.146   7.907
 2906POPC   C4B38602  31.919  37.144   7.549
 2907POPC   NC338603  43.939   2.634   9.466
 2907POPC   PO438604  43.405   2.939   9.545
 2907POPC   GL138605  43.681   2.986   9.212
 2907POPC   GL238606  44.055   3.072   9.233
 2907POPC   C1A38607  43.735   2.869   8.788
 2907POPC   D2A38608  43.516   2.822   8.390
 2907POPC   C3A38609  43.617   2.467   8.111
 2907POPC   C4A38610  44.010   2.568   7.913
 2907POPC   C1B38611  44.209   3.108   8.810
 2907POPC   C2B38612  44.039   2.995   8.396
 2907POPC   C3B38613  44.213   3.028   7.985
 2907POPC   C4B38614  44.289   3.127   7.558
 2908POPC   NC338615   2.279   9.630   9.431
 2908POPC   PO438616   1.672   9.968   9.553
 2908POPC   GL138617   1.882   9.848   9.161
 2908POPC   GL238618   2.220  10.018   9.104
 2908POPC   C1A38619   1.764   9.652   8.764
 2908POPC   D2A38620   1.966   9.682   8.351
 2908POPC   C3A38621   1.799   9.782   7.930
 2908POPC   C4A38622   1.726   9.672   7.470
 2908POPC   C1B38623   2.270   9.765   8.760
 2908POPC   C2B38624   2.485   9.801   8.376
 2908POPC   C3B38625   2.296   9.837   7.981
 2908POPC   C4B38626   2.160   9.507   7.684
 2909POPC   NC338627  30.394  44.998   9.454
 2909POPC   PO438628  29.805  44.652   9.527
 2909POPC   GL138629  29.871  44.723   9.118
 2909POPC   GL238630  30.129  44.479   9.162
 2909POPC   C1A38631  29.850  44.423   8.738
 2909POPC   D2A38632  29.668  44.288   8.322
 2909POPC   C3A38633  29.831  44.602   8.002
 2909POPC   C4A38634  29.673  44.955   7.747
 2909POPC   C1B38635  30.276  44.747   8.826
 2909POPC   C2B38636  30.227  44.619   8.415
 2909POPC   C3B38637  30.353  44.719   8.031
 2909POPC   C4B38638  30.174  44.899   7.695
 2910POPC   NC338639  15.434  34.929   9.861
 2910POPC   PO438640  15.238  34.352   9.575
 2910POPC   GL138641  15.163  34.328   9.158
 2910POPC   GL238642  15.457  34.540   9.128
 2910POPC   C1A38643  14.945  34.519   8.794
 2910POPC   D2A38644  15.029  34.541   8.367
 2910POPC   C3A38645  14.795  34.573   8.025
 2910POPC   C4A38646  15.027  34.576   7.651
 2910POPC   C1B38647  15.432  34.384   8.725
 2910POPC   C2B38648  15.489  34.715   8.438
 2910POPC   C3B38649  15.433  34.721   8.006
 2910POPC   C4B38650  15.544  34.484   7.658
 2911POPC   NC338651  38.847   0.995   9.404
 2911POPC   PO438652  39.496   1.401   9.441
 2911POPC   GL138653  39.442   1.193   9.082
 2911POPC   GL238654  39.114   1.286   9.071
 2911POPC   C1A38655  39.316   1.110   8.655
 2911POPC   D2A38656  39.225   1.015   8.270
 2911POPC   C3A38657  39.349   1.196   7.919
 2911POPC   C4A38658  39.201   0.984   7.582
 2911POPC   C1B38659  38.865   1.400   8.715
 2911POPC   C2B38660  38.769   1.246   8.324
 2911POPC   C3B38661  38.838   1.352   7.908
 2911POPC   C4B38662  38.714   1.150   7.552
 2912POPC   NC338663  14.406  41.988   9.518
 2912POPC   PO438664  14.120  42.611   9.575
 2912POPC   GL138665  14.267  42.373   9.214
 2912POPC   GL238666  14.089  42.029   9.134
 2912POPC   C1A38667  14.523  42.491   8.867
 2912POPC   D2A38668  14.345  42.443   8.463
 2912POPC   C3A38669  14.322  42.636   8.036
 2912POPC   C4A38670  14.730  42.537   7.851
 2912POPC   C1B38671  14.396  42.016   8.838
 2912POPC   C2B38672  14.602  41.972   8.466
 2912POPC   C3B38673  14.494  42.147   8.077
 2912POPC   C4B38674  14.470  42.050   7.650
 2913POPC   NC338675  25.832  14.476   9.774
 2913POPC   PO438676  26.269  14.123   9.373
 2913POPC   GL138677  26.059  14.425   9.147
 2913POPC   GL238678  25.762  14.569   9.272
 2913POPC   C1A38679  26.127  14.321   8.731
 2913POPC   D2A38680  26.289  14.078   8.394
 2913POPC   C3A38681  26.039  14.186   8.030
 2913POPC   C4A38682  26.120  14.358   7.624
 2913POPC   C1B38683  25.634  14.462   8.826
 2913POPC   C2B38684  25.761  14.490   8.373
 2913POPC   C3B38685  25.805  14.637   7.952
 2913POPC   C4B38686  26.164  14.850   7.847
 2914POPC   NC338687  24.930   3.334   9.427
 2914POPC   PO438688  25.562   3.116   9.575
 2914POPC   GL138689  25.389   3.180   9.172
 2914POPC   GL238690  25.340   3.526   9.149
 2914POPC   C1A38691  25.146   3.217   8.775
 2914POPC   D2A38692  25.134   3.562   8.425
 2914POPC   C3A38693  25.116   3.453   7.954
 2914POPC   C4A38694  25.255   3.357   7.491
 2914POPC   C1B38695  25.561   3.816   8.867
 2914POPC   C2B38696  25.471   3.995   8.477
 2914POPC   C3B38697  25.460   3.834   8.067
 2914POPC   C4B38698  25.768   3.836   7.769
 2915POPC   NC338699  41.563  31.638   9.558
 2915POPC   PO438700  41.869  31.066   9.470
 2915POPC   GL138701  41.628  31.261   9.134
 2915POPC   GL238702  41.337  31.470   9.100
 2915POPC   C1A38703  41.689  31.624   8.782
 2915POPC   D2A38704  41.538  31.670   8.342
 2915POPC   C3A38705  41.761  31.482   7.945
 2915POPC   C4A38706  41.756  31.340   7.478
 2915POPC   C1B38707  41.365  31.199   8.708
 2915POPC   C2B38708  41.294  31.194   8.247
 2915POPC   C3B38709  41.154  31.400   7.864
 2915POPC   C4B38710  41.227  31.296   7.432
 2916POPC   NC338711   4.880  38.321   9.692
 2916POPC   PO438712   5.258  38.808   9.717
 2916POPC   GL138713   5.302  38.480   9.369
 2916POPC   GL238714   5.182  38.111   9.301
 2916POPC   C1A38715   5.340  38.584   8.923
 2916POPC   D2A38716   5.217  38.537   8.520
 2916POPC   C3A38717   5.230  38.705   8.117
 2916POPC   C4A38718   5.378  38.523   7.786
 2916POPC   C1B38719   5.201  38.096   8.841
 2916POPC   C2B38720   5.028  38.068   8.413
 2916POPC   C3B38721   5.050  38.090   7.996
 2916POPC   C4B38722   4.680  38.031   7.711
 2917POPC   NC338723  28.956  11.409   9.445
 2917POPC   PO438724  29.427  11.173   9.687
 2917POPC   GL138725  29.274  11.117   9.213
 2917POPC   GL238726  29.487  10.925   9.105
 2917POPC   C1A38727  29.045  11.308   8.833
 2917POPC   D2A38728  29.213  11.318   8.420
 2917POPC   C3A38729  29.015  11.445   8.070
 2917POPC   C4A38730  29.038  11.443   7.619
 2917POPC   C1B38731  29.296  10.893   8.693
 2917POPC   C2B38732  29.476  10.898   8.254
 2917POPC   C3B38733  29.425  11.181   7.878
 2917POPC   C4B38734  29.493  11.311   7.419
 2918POPC   NC338735  33.425   9.087   9.401
 2918POPC   PO438736  32.772   9.257   9.508
 2918POPC   GL138737  32.963   9.043   9.186
 2918POPC   GL238738  33.030   9.379   9.072
 2918POPC   C1A38739  33.230   8.892   8.803
 2918POPC   D2A38740  33.205   8.573   8.477
 2918POPC   C3A38741  33.257   8.706   8.054
 2918POPC   C4A38742  33.188   9.100   7.848
 2918POPC   C1B38743  32.799   9.177   8.743
 2918POPC   C2B38744  32.895   8.955   8.383
 2918POPC   C3B38745  32.719   8.925   8.011
 2918POPC   C4B38746  32.708   9.271   7.707
 2919POPC   NC338747  13.759  39.583   9.318
 2919POPC   PO438748  13.493  40.053   9.755
 2919POPC   GL138749  13.556  40.073   9.308
 2919POPC   GL238750  13.914  40.109   9.283
 2919POPC   C1A38751  13.435  39.983   8.878
 2919POPC   D2A38752  13.639  40.013   8.469
 2919POPC   C3A38753  13.497  39.863   8.076
 2919POPC   C4A38754  13.526  39.781   7.644
 2919POPC   C1B38755  13.921  40.222   8.853
 2919POPC   C2B38756  13.899  40.471   8.485
 2919POPC   C3B38757  13.928  40.275   8.118
 2919POPC   C4B38758  13.756  40.252   7.752
 2920POPC   NC338759  44.425  23.504   9.515
 2920POPC   PO438760  44.788  24.101   9.672
 2920POPC   GL138761  44.778  23.821   9.250
 2920POPC   GL238762  44.773  23.437   9.144
 2920POPC   C1A38763  44.753  23.804   8.787
 2920POPC   D2A38764  44.623  24.048   8.421
 2920POPC   C3A38765  44.869  23.954   8.059
 2920POPC   C4A38766  44.895  23.664   7.716
 2920POPC   C1B38767  44.474  23.334   8.822
 2920POPC   C2B38768  44.465  23.472   8.395
 2920POPC   C3B38769  44.432  23.701   8.001
 2920POPC   C4B38770  44.412  23.705   7.529
 2921POPC   NC338771  43.961  29.522   9.608
 2921POPC   PO438772  43.937  28.853   9.593
 2921POPC   GL138773  43.920  29.096   9.227
 2921POPC   GL238774  44.158  29.331   9.172
 2921POPC   C1A38775  43.768  29.040   8.803
 2921POPC   D2A38776  43.851  28.783   8.413
 2921POPC   C3A38777  43.705  28.941   7.999
 2921POPC   C4A38778  43.569  28.767   7.598
 2921POPC   C1B38779  44.295  29.168   8.825
 2921POPC   C2B38780  44.090  29.245   8.465
 2921POPC   C3B38781  44.176  29.197   8.073
 2921POPC   C4B38782  43.992  29.376   7.725
 2922POPC   NC338783  44.922   9.600   9.286
 2922POPC   PO438784  44.524   9.977   9.609
 2922POPC   GL138785  44.453   9.731   9.162
 2922POPC   GL238786  44.638   9.877   8.907
 2922POPC   C1A38787  44.578   9.381   8.789
 2922POPC   D2A38788  44.780   9.300   8.362
 2922POPC   C3A38789  44.702   9.692   8.106
 2922POPC   C4A38790  44.524  10.027   7.821
 2922POPC   C1B38791   0.006   9.856   8.645
 2922POPC   C2B38792   0.124  10.006   8.236
 2922POPC   C3B38793   0.053   9.912   7.814
 2922POPC   C4B38794  44.957   9.517   7.636
 2923POPC   NC338795  21.554  25.139   9.746
 2923POPC   PO438796  21.010  25.450   9.585
 2923POPC   GL138797  21.269  25.153   9.296
 2923POPC   GL238798  21.651  25.037   9.259
 2923POPC   C1A38799  21.306  24.956   8.889
 2923POPC   D2A38800  21.274  24.807   8.492
 2923POPC   C3A38801  21.304  24.999   8.098
 2923POPC   C4A38802  21.200  25.358   7.909
 2923POPC   C1B38803  21.653  25.327   8.909
 2923POPC   C2B38804  21.576  25.257   8.467
 2923POPC   C3B38805  21.676  25.468   8.057
 2923POPC   C4B38806  21.681  25.297   7.632
 2924POPC   NC338807  36.070  15.297   9.573
 2924POPC   PO438808  36.114  14.692   9.406
 2924POPC   GL138809  36.215  15.069   9.120
 2924POPC   GL238810  36.221  15.479   9.134
 2924POPC   C1A38811  36.265  15.179   8.708
 2924POPC   D2A38812  36.227  15.273   8.298
 2924POPC   C3A38813  36.006  15.020   8.022
 2924POPC   C4A38814  35.909  14.807   7.679
 2924POPC   C1B38815  35.832  15.449   8.856
 2924POPC   C2B38816  35.679  15.420   8.399
 2924POPC   C3B38817  35.891  15.504   8.001
 2924POPC   C4B38818  36.256  15.384   7.773
 2925POPC   NC338819  37.107  11.521   9.552
 2925POPC   PO438820  37.163  10.831   9.639
 2925POPC   GL138821  36.842  11.076   9.330
 2925POPC   GL238822  36.651  11.438   9.242
 2925POPC   C1A38823  36.955  11.221   8.915
 2925POPC   D2A38824  37.104  11.459   8.561
 2925POPC   C3A38825  37.003  11.341   8.142
 2925POPC   C4A38826  37.195  11.322   7.741
 2925POPC   C1B38827  36.611  11.571   8.772
 2925POPC   C2B38828  36.754  11.756   8.345
 2925POPC   C3B38829  36.622  11.615   7.956
 2925POPC   C4B38830  36.696  11.288   7.686
 2926POPC   NC338831  31.194  29.155   9.507
 2926POPC   PO438832  31.874  29.289   9.387
 2926POPC   GL138833  31.553  29.217   9.121
 2926POPC   GL238834  31.551  28.846   9.243
 2926POPC   C1A38835  31.657  29.310   8.680
 2926POPC   D2A38836  31.861  29.105   8.335
 2926POPC   C3A38837  31.812  29.347   7.974
 2926POPC   C4A38838  31.455  29.396   7.737
 2926POPC   C1B38839  31.562  28.834   8.790
 2926POPC   C2B38840  31.305  28.681   8.496
 2926POPC   C3B38841  31.331  28.650   8.088
 2926POPC   C4B38842  31.578  28.883   7.831
 2927POPC   NC338843  29.824  12.844   9.551
 2927POPC   PO438844  30.539  12.833   9.564
 2927POPC   GL138845  30.307  13.019   9.222
 2927POPC   GL238846  30.149  12.686   9.175
 2927POPC   C1A38847  30.115  13.021   8.796
 2927POPC   D2A38848  29.738  13.055   8.541
 2927POPC   C3A38849  29.857  13.018   8.123
 2927POPC   C4A38850  29.840  12.924   7.675
 2927POPC   C1B38851  29.750  12.651   8.909
 2927POPC   C2B38852  29.743  12.481   8.486
 2927POPC   C3B38853  29.715  12.530   8.034
 2927POPC   C4B38854  29.906  12.424   7.659
 2928POPC   NC338855  11.586  22.248   9.586
 2928POPC   PO438856  10.994  22.206   9.413
 2928POPC   GL138857  11.279  22.129   9.152
 2928POPC   GL238858  10.987  21.969   8.965
 2928POPC   C1A38859  11.526  22.242   8.820
 2928POPC   D2A38860  11.425  22.077   8.442
 2928POPC   C3A38861  11.693  22.051   8.094
 2928POPC   C4A38862  11.517  22.006   7.705
 2928POPC   C1B38863  10.915  22.051   8.563
 2928POPC   C2B38864  11.018  22.421   8.373
 2928POPC   C3B38865  11.248  22.336   8.022
 2928POPC   C4B38866  11.189  22.484   7.644
 2929POPC   NC338867   1.869   1.029   9.754
 2929POPC   PO438868   2.282   1.399   9.290
 2929POPC   GL138869   2.187   1.558   8.945
 2929POPC   GL238870   1.939   1.319   8.873
 2929POPC   C1A38871   2.225   1.533   8.528
 2929POPC   D2A38872   1.890   1.325   8.331
 2929POPC   C3A38873   1.940   1.401   7.892
 2929POPC   C4A38874   2.137   1.366   7.452
 2929POPC   C1B38875   1.594   1.051   8.768
 2929POPC   C2B38876   1.407   0.998   8.372
 2929POPC   C3B38877   1.694   0.965   8.035
 2929POPC   C4B38878   1.751   1.003   7.611
 2930POPC   NC338879   0.043  32.066   9.479
 2930POPC   PO438880  44.374  31.938   9.542
 2930POPC   GL138881  44.591  32.146   9.211
 2930POPC   GL238882  44.303  32.266   9.018
 2930POPC   C1A38883  44.797  32.374   8.875
 2930POPC   D2A38884  44.638  32.275   8.472
 2930POPC   C3A38885  44.845  32.493   8.150
 2930POPC   C4A38886  44.778  32.530   7.729
 2930POPC   C1B38887  44.358  31.898   8.721
 2930POPC   C2B38888  44.413  31.857   8.265
 2930POPC   C3B38889  44.453  32.177   7.971
 2930POPC   C4B38890  44.546  32.118   7.551
 2931POPC   NC338891  40.854  36.721   9.518
 2931POPC   PO438892  40.653  37.314   9.242
 2931POPC   GL138893  40.874  37.031   9.103
 2931POPC   GL238894  40.732  36.695   9.026
 2931POPC   C1A38895  41.007  36.971   8.699
 2931POPC   D2A38896  40.986  36.719   8.366
 2931POPC   C3A38897  41.129  36.968   8.052
 2931POPC   C4A38898  40.903  36.797   7.756
 2931POPC   C1B38899  40.474  36.948   8.762
 2931POPC   C2B38900  40.544  37.219   8.433
 2931POPC   C3B38901  40.573  37.001   8.071
 2931POPC   C4B38902  40.455  37.012   7.632
 2932POPC   NC338903  37.148  23.246   9.564
 2932POPC   PO438904  36.729  22.777   9.551
 2932POPC   GL138905  36.891  22.950   9.185
 2932POPC   GL238906  37.245  22.950   9.162
 2932POPC   C1A38907  36.956  22.952   8.748
 2932POPC   D2A38908  36.775  22.958   8.383
 2932POPC   C3A38909  36.984  22.761   8.095
 2932POPC   C4A38910  36.920  23.001   7.747
 2932POPC   C1B38911  37.394  23.223   8.812
 2932POPC   C2B38912  37.289  23.083   8.383
 2932POPC   C3B38913  37.381  23.140   7.949
 2932POPC   C4B38914  37.316  23.231   7.511
 2933POPC   NC338915  24.183  32.556   9.532
 2933POPC   PO438916  24.422  31.900   9.523
 2933POPC   GL138917  24.520  32.215   9.206
 2933POPC   GL238918  24.255  32.377   9.054
 2933POPC   C1A38919  24.680  32.227   8.787
 2933POPC   D2A38920  24.408  32.382   8.443
 2933POPC   C3A38921  24.675  32.283   8.141
 2933POPC   C4A38922  24.673  32.095   7.784
 2933POPC   C1B38923  24.493  32.692   8.831
 2933POPC   C2B38924  24.450  32.933   8.453
 2933POPC   C3B38925  24.437  32.741   8.051
 2933POPC   C4B38926  24.214  32.355   7.903
 2934POPC   NC338927  44.983  33.761   9.545
 2934POPC   PO438928  44.414  34.100   9.560
 2934POPC   GL138929  44.752  34.097   9.181
 2934POPC   GL238930   0.134  34.011   9.121
 2934POPC   C1A38931  44.640  33.949   8.740
 2934POPC   D2A38932  44.679  33.749   8.314
 2934POPC   C3A38933  44.447  33.852   7.966
 2934POPC   C4A38934  44.420  34.059   7.610
 2934POPC   C1B38935   0.074  34.258   8.730
 2934POPC   C2B38936  44.847  34.247   8.301
 2934POPC   C3B38937  44.883  34.174   7.829
 2934POPC   C4B38938  44.859  34.177   7.345
 2935POPC   NC338939  27.656  22.497   9.548
 2935POPC   PO438940  27.828  21.854   9.605
 2935POPC   GL138941  27.658  22.078   9.253
 2935POPC   GL238942  27.339  21.953   9.272
 2935POPC   C1A38943  27.406  22.340   8.937
 2935POPC   D2A38944  27.440  22.603   8.552
 2935POPC   C3A38945  27.348  22.396   8.149
 2935POPC   C4A38946  27.543  22.246   7.767
 2935POPC   C1B38947  27.532  21.872   8.812
 2935POPC   C2B38948  27.649  21.967   8.361
 2935POPC   C3B38949  27.932  21.958   7.971
 2935POPC   C4B38950  27.785  21.866   7.533
 2936POPC   NC338951  37.439  38.835   9.544
 2936POPC   PO438952  37.449  38.160   9.587
 2936POPC   GL138953  37.701  38.329   9.214
 2936POPC   GL238954  37.732  38.680   9.136
 2936POPC   C1A38955  37.777  38.241   8.781
 2936POPC   D2A38956  37.908  38.308   8.360
 2936POPC   C3A38957  37.671  38.168   8.005
 2936POPC   C4A38958  37.789  38.249   7.601
 2936POPC   C1B38959  37.519  38.702   8.740
 2936POPC   C2B38960  37.594  38.715   8.304
 2936POPC   C3B38961  37.684  38.678   7.860
 2936POPC   C4B38962  37.624  38.759   7.391
 2937POPC   NC338963  40.644  28.770   9.286
 2937POPC   PO438964  40.480  28.103   9.462
 2937POPC   GL138965  40.689  28.246   9.087
 2937POPC   GL238966  40.979  28.431   9.052
 2937POPC   C1A38967  40.762  28.198   8.629
 2937POPC   D2A38968  40.570  28.117   8.259
 2937POPC   C3A38969  40.659  28.347   7.853
 2937POPC   C4A38970  40.448  28.226   7.452
 2937POPC   C1B38971  40.797  28.700   8.696
 2937POPC   C2B38972  40.631  28.615   8.311
 2937POPC   C3B38973  40.641  28.854   7.958
 2937POPC   C4B38974  41.010  28.866   7.765
 2938POPC   NC338975  17.151  24.339   9.411
 2938POPC   PO438976  16.478  24.620   9.453
 2938POPC   GL138977  16.552  24.559   9.067
 2938POPC   GL238978  16.906  24.613   9.047
 2938POPC   C1A38979  16.568  24.486   8.655
 2938POPC   D2A38980  16.772  24.355   8.302
 2938POPC   C3A38981  16.540  24.455   7.957
 2938POPC   C4A38982  16.343  24.468   7.535
 2938POPC   C1B38983  17.045  24.264   8.732
 2938POPC   C2B38984  17.240  24.157   8.300
 2938POPC   C3B38985  17.126  24.145   7.845
 2938POPC   C4B38986  16.817  24.313   7.568
 2939POPC   NC338987   7.710  18.399   9.516
 2939POPC   PO438988   7.370  17.853   9.411
 2939POPC   GL138989   7.453  18.160   9.129
 2939POPC   GL238990   7.781  18.108   9.099
 2939POPC   C1A38991   7.238  18.317   8.790
 2939POPC   D2A38992   7.398  18.263   8.393
 2939POPC   C3A38993   7.255  18.411   8.072
 2939POPC   C4A38994   7.399  18.401   7.678
 2939POPC   C1B38995   7.779  18.138   8.701
 2939POPC   C2B38996   7.897  18.253   8.317
 2939POPC   C3B38997   7.713  18.110   7.968
 2939POPC   C4B38998   7.687  17.799   7.623
 2940POPC   NC338999   8.957  28.321   9.554
 2940POPC   PO439000   9.348  28.839   9.384
 2940POPC   GL139001   9.162  28.577   9.081
 2940POPC   GL239002   9.035  28.233   9.068
 2940POPC   C1A39003   9.183  28.515   8.653
 2940POPC   D2A39004   9.099  28.250   8.334
 2940POPC   C3A39005   8.975  28.420   7.957
 2940POPC   C4A39006   9.166  28.273   7.583
 2940POPC   C1B39007   8.744  28.197   8.712
 2940POPC   C2B39008   8.599  28.270   8.277
 2940POPC   C3B39009   8.452  28.173   7.894
 2940POPC   C4B39010   8.376  27.897   7.568
 2941POPC   NC339011  34.426  17.194   9.400
 2941POPC   PO439012  34.169  16.482   9.453
 2941POPC   GL139013  34.507  16.610   9.135
 2941POPC   GL239014  34.493  16.933   8.982
 2941POPC   C1A39015  34.723  16.582   8.691
 2941POPC   D2A39016  34.683  16.779   8.267
 2941POPC   C3A39017  34.913  16.956   7.890
 2941POPC   C4A39018  34.800  17.126   7.475
 2941POPC   C1B39019  34.201  16.688   8.739
 2941POPC   C2B39020  34.196  16.584   8.316
 2941POPC   C3B39021  34.256  16.895   7.976
 2941POPC   C4B39022  34.248  16.882   7.524
 2942POPC   NC339023  21.392   1.624   9.225
 2942POPC   PO439024  21.040   2.121   9.550
 2942POPC   GL139025  21.192   2.094   9.145
 2942POPC   GL239026  21.494   2.111   9.059
 2942POPC   C1A39027  21.044   2.009   8.768
 2942POPC   D2A39028  21.148   2.183   8.374
 2942POPC   C3A39029  21.107   1.980   8.001
 2942POPC   C4A39030  21.084   2.189   7.621
 2942POPC   C1B39031  21.520   1.951   8.630
 2942POPC   C2B39032  21.608   1.912   8.218
 2942POPC   C3B39033  21.634   2.083   7.835
 2942POPC   C4B39034  21.535   1.989   7.436
 2943POPC   NC339035   2.563  14.578   9.627
 2943POPC   PO439036   3.118  14.852   9.532
 2943POPC   GL139037   2.845  14.617   9.156
 2943POPC   GL239038   2.490  14.479   9.094
 2943POPC   C1A39039   2.736  14.666   8.689
 2943POPC   D2A39040   2.548  14.972   8.385
 2943POPC   C3A39041   2.515  14.697   8.040
 2943POPC   C4A39042   2.844  14.453   7.912
 2943POPC   C1B39043   2.548  14.157   8.737
 2943POPC   C2B39044   2.684  14.072   8.283
 2943POPC   C3B39045   2.501  14.072   7.850
 2943POPC   C4B39046   2.424  13.872   7.399
 2944POPC   NC339047  44.313  24.325   9.340
 2944POPC   PO439048  44.827  24.671   9.729
 2944POPC   GL139049  44.746  24.628   9.254
 2944POPC   GL239050  44.724  24.311   9.053
 2944POPC   C1A39051  44.488  24.711   8.820
 2944POPC   D2A39052  44.335  24.530   8.451
 2944POPC   C3A39053  44.494  24.631   8.076
 2944POPC   C4A39054  44.628  24.307   7.782
 2944POPC   C1B39055  44.981  24.632   8.812
 2944POPC   C2B39056  44.864  24.777   8.413
 2944POPC   C3B39057  44.981  24.700   7.988
 2944POPC   C4B39058   0.043  24.524   7.567
 2945POPC   NC339059  15.022  30.412   9.725
 2945POPC   PO439060  14.754  30.960   9.579
 2945POPC   GL139061  14.992  30.722   9.225
 2945POPC   GL239062  15.100  31.006   8.984
 2945POPC   C1A39063  15.255  30.527   8.874
 2945POPC   D2A39064  15.405  30.489   8.423
 2945POPC   C3A39065  15.289  30.638   7.989
 2945POPC   C4A39066  15.216  30.527   7.515
 2945POPC   C1B39067  14.997  30.833   8.544
 2945POPC   C2B39068  14.856  30.908   8.097
 2945POPC   C3B39069  14.997  30.969   7.652
 2945POPC   C4B39070  14.903  31.042   7.173
 2946POPC   NC339071  37.605   1.739   9.343
 2946POPC   PO439072  37.664   1.126   9.571
 2946POPC   GL139073  37.867   1.218   9.187
 2946POPC   GL239074  37.560   1.314   9.045
 2946POPC   C1A39075  37.874   0.988   8.795
 2946POPC   D2A39076  37.980   1.063   8.380
 2946POPC   C3A39077  37.772   0.994   8.012
 2946POPC   C4A39078  37.898   1.213   7.671
 2946POPC   C1B39079  37.358   1.258   8.654
 2946POPC   C2B39080  37.399   1.288   8.223
 2946POPC   C3B39081  37.391   1.232   7.765
 2946POPC   C4B39082  37.543   1.059   7.344
 2947POPC   NC339083  35.852  31.252   9.517
 2947POPC   PO439084  36.340  31.781   9.486
 2947POPC   GL139085  36.206  31.482   9.197
 2947POPC   GL239086  35.830  31.553   9.067
 2947POPC   C1A39087  36.420  31.341   8.836
 2947POPC   D2A39088  36.270  31.536   8.483
 2947POPC   C3A39089  36.421  31.522   8.073
 2947POPC   C4A39090  36.313  31.450   7.689
 2947POPC   C1B39091  35.930  31.202   8.832
 2947POPC   C2B39092  36.062  31.084   8.435
 2947POPC   C3B39093  35.958  31.345   8.109
 2947POPC   C4B39094  35.789  31.413   7.746
 2948POPC   NC339095  38.766  34.511   9.479
 2948POPC   PO439096  38.245  34.936   9.644
 2948POPC   GL139097  38.152  34.706   9.222
 2948POPC   GL239098  38.425  34.430   9.120
 2948POPC   C1A39099  38.281  34.727   8.759
 2948POPC   D2A39100  38.349  34.454   8.408
 2948POPC   C3A39101  38.504  34.618   8.054
 2948POPC   C4A39102  38.123  34.683   7.880
 2948POPC   C1B39103  38.690  34.310   8.752
 2948POPC   C2B39104  38.725  34.139   8.279
 2948POPC   C3B39105  38.794  34.251   7.818
 2948POPC   C4B39106  38.627  34.154   7.395
 2949POPC   NC339107  43.855  42.833   9.480
 2949POPC   PO439108  44.049  43.468   9.563
 2949POPC   GL139109  43.809  43.281   9.198
 2949POPC   GL239110  44.045  43.074   9.082
 2949POPC   C1A39111  43.671  43.143   8.755
 2949POPC   D2A39112  43.523  43.125   8.357
 2949POPC   C3A39113  43.698  43.092   7.982
 2949POPC   C4A39114  43.777  43.298   7.605
 2949POPC   C1B39115  44.052  42.798   8.767
 2949POPC   C2B39116  43.846  42.704   8.432
 2949POPC   C3B39117  44.061  42.453   8.145
 2949POPC   C4B39118  44.131  42.580   7.740
 2950POPC   NC339119  42.994  38.828   9.568
 2950POPC   PO439120  43.454  39.324   9.473
 2950POPC   GL139121  43.091  39.213   9.208
 2950POPC   GL239122  42.766  39.408   9.212
 2950POPC   C1A39123  43.018  39.094   8.798
 2950POPC   D2A39124  43.216  39.148   8.407
 2950POPC   C3A39125  42.980  39.138   8.018
 2950POPC   C4A39126  43.097  39.135   7.618
 2950POPC   C1B39127  42.754  39.559   8.769
 2950POPC   C2B39128  42.836  39.477   8.373
 2950POPC   C3B39129  42.729  39.601   7.970
 2950POPC   C4B39130  42.818  39.544   7.528
 2951POPC   NC339131  23.314  10.369   9.317
 2951POPC   PO439132  23.898  10.554   9.616
 2951POPC   GL139133  23.685  10.692   9.187
 2951POPC   GL239134  23.381  10.883   9.056
 2951POPC   C1A39135  23.633  10.523   8.749
 2951POPC   D2A39136  23.494  10.180   8.467
 2951POPC   C3A39137  23.672  10.238   8.070
 2951POPC   C4A39138  23.873  10.434   7.684
 2951POPC   C1B39139  23.536  11.032   8.659
 2951POPC   C2B39140  23.722  10.823   8.311
 2951POPC   C3B39141  23.509  10.699   7.958
 2951POPC   C4B39142  23.575  10.843   7.583
 2952POPC   NC339143   4.441  37.649   9.606
 2952POPC   PO439144   3.850  38.038   9.542
 2952POPC   GL139145   4.160  37.897   9.228
 2952POPC   GL239146   4.289  37.553   9.148
 2952POPC   C1A39147   4.111  37.837   8.767
 2952POPC   D2A39148   4.410  37.900   8.448
 2952POPC   C3A39149   4.202  37.806   8.082
 2952POPC   C4A39150   4.285  37.708   7.679
 2952POPC   C1B39151   4.465  37.469   8.769
 2952POPC   C2B39152   4.234  37.398   8.412
 2952POPC   C3B39153   4.211  37.299   7.984
 2952POPC   C4B39154   4.197  37.162   7.555
 2953POPC   NC339155   9.882  13.794   9.897
 2953POPC   PO439156  10.001  13.414   9.339
 2953POPC   GL139157   9.672  13.569   9.037
 2953POPC   GL239158   9.948  13.764   8.887
 2953POPC   C1A39159   9.417  13.706   8.662
 2953POPC   D2A39160   9.208  13.828   8.258
 2953POPC   C3A39161   9.405  13.505   8.024
 2953POPC   C4A39162   9.686  13.483   7.682
 2953POPC   C1B39163   9.906  13.474   8.603
 2953POPC   C2B39164   9.863  13.555   8.222
 2953POPC   C3B39165  10.113  13.732   7.911
 2953POPC   C4B39166  10.131  13.729   7.469
 2954POPC   NC339167  15.037  10.471   9.443
 2954POPC   PO439168  15.558  10.839   9.507
 2954POPC   GL139169  15.262  10.805   9.104
 2954POPC   GL239170  15.127  10.454   8.952
 2954POPC   C1A39171  15.026  10.843   8.680
 2954POPC   D2A39172  14.987  10.472   8.410
 2954POPC   C3A39173  15.082  10.662   8.008
 2954POPC   C4A39174  15.481  10.814   7.819
 2954POPC   C1B39175  15.373  10.173   8.695
 2954POPC   C2B39176  15.354   9.976   8.302
 2954POPC   C3B39177  15.187  10.160   7.931
 2954POPC   C4B39178  15.350  10.359   7.608
 2955POPC   NC339179  19.249  24.749   9.504
 2955POPC   PO439180  19.200  24.121   9.287
 2955POPC   GL139181  18.933  24.389   9.034
 2955POPC   GL239182  18.751  24.645   9.237
 2955POPC   C1A39183  19.008  24.473   8.592
 2955POPC   D2A39184  19.339  24.676   8.326
 2955POPC   C3A39185  19.301  24.563   7.899
 2955POPC   C4A39186  18.886  24.490   7.654
 2955POPC   C1B39187  18.574  24.817   8.850
 2955POPC   C2B39188  18.543  24.698   8.414
 2955POPC   C3B39189  18.850  24.788   8.084
 2955POPC   C4B39190  18.721  24.972   7.678
 2956POPC   NC339191  19.030  30.421   9.528
 2956POPC   PO439192  19.165  31.077   9.461
 2956POPC   GL139193  19.155  30.924   9.084
 2956POPC   GL239194  19.036  30.600   9.047
 2956POPC   C1A39195  19.297  30.878   8.683
 2956POPC   D2A39196  19.029  30.806   8.346
 2956POPC   C3A39197  19.258  30.946   8.014
 2956POPC   C4A39198  19.070  30.899   7.658
 2956POPC   C1B39199  19.096  30.370   8.654
 2956POPC   C2B39200  18.881  30.278   8.278
 2956POPC   C3B39201  18.915  30.458   7.869
 2956POPC   C4B39202  19.109  30.403   7.455
 2957POPC   NC339203  12.742  16.314  10.096
 2957POPC   PO439204  12.553  15.687   9.681
 2957POPC   GL139205  12.685  15.752   9.160
 2957POPC   GL239206  12.404  15.826   8.914
 2957POPC   C1A39207  12.853  15.899   8.712
 2957POPC   D2A39208  12.765  15.832   8.268
 2957POPC   C3A39209  12.962  15.919   7.869
 2957POPC   C4A39210  12.810  16.071   7.488
 2957POPC   C1B39211  12.492  15.469   8.695
 2957POPC   C2B39212  12.581  15.343   8.289
 2957POPC   C3B39213  12.523  15.547   7.908
 2957POPC   C4B39214  12.760  15.554   7.564
 2958POPC   NC339215   5.520  17.799   9.738
 2958POPC   PO439216   5.076  17.307   9.464
 2958POPC   GL139217   4.987  17.486   9.089
 2958POPC   GL239218   5.224  17.406   8.865
 2958POPC   C1A39219   4.749  17.651   8.754
 2958POPC   D2A39220   4.651  17.890   8.371
 2958POPC   C3A39221   4.717  17.673   7.943
 2958POPC   C4A39222   4.636  17.636   7.431
 2958POPC   C1B39223   5.262  17.794   8.718
 2958POPC   C2B39224   5.133  17.728   8.307
 2958POPC   C3B39225   5.230  17.777   7.892
 2958POPC   C4B39226   5.069  17.476   7.647
 2959POPC   NC339227  19.133  37.174   9.580
 2959POPC   PO439228  19.062  36.620   9.877
 2959POPC   GL139229  19.102  36.747   9.353
 2959POPC   GL239230  19.139  36.525   9.132
 2959POPC   C1A39231  19.003  36.940   8.897
 2959POPC   D2A39232  19.108  37.018   8.466
 2959POPC   C3A39233  18.804  37.069   8.131
 2959POPC   C4A39234  18.998  37.065   7.723
 2959POPC   C1B39235  18.834  36.459   8.814
 2959POPC   C2B39236  18.742  36.616   8.407
 2959POPC   C3B39237  19.031  36.629   8.084
 2959POPC   C4B39238  19.027  36.465   7.719
 2960POPC   NC339239  25.078   8.447   9.425
 2960POPC   PO439240  25.292   7.832   9.588
 2960POPC   GL139241  25.435   8.130   9.238
 2960POPC   GL239242  25.242   8.101   9.081
 2960POPC   C1A39243  25.620   8.392   8.830
 2960POPC   D2A39244  25.449   8.463   8.388
 2960POPC   C3A39245  25.518   8.394   7.930
 2960POPC   C4A39246  25.133   8.366   7.656
 2960POPC   C1B39247  25.144   8.175   8.700
 2960POPC   C2B39248  25.294   7.957   8.386
 2960POPC   C3B39249  25.208   7.995   7.996
 2960POPC   C4B39250  25.479   7.930   7.654
 2961POPC   NC339251  20.109  29.492   9.569
 2961POPC   PO439252  19.583  29.989   9.688
 2961POPC   GL139253  19.678  29.876   9.191
 2961POPC   GL239254  19.891  29.651   9.140
 2961POPC   C1A39255  19.884  30.046   8.814
 2961POPC   D2A39256  19.807  29.889   8.414
 2961POPC   C3A39257  20.029  30.051   8.086
 2961POPC   C4A39258  20.015  29.922   7.671
 2961POPC   C1B39259  20.125  29.612   8.786
 2961POPC   C2B39260  20.236  29.645   8.326
 2961POPC   C3B39261  19.893  29.559   8.017
 2961POPC   C4B39262  19.761  29.277   7.728
 2962POPC   NC339263  39.293  10.664   9.645
 2962POPC   PO439264  39.023  10.163   9.398
 2962POPC   GL139265  39.135  10.577   9.139
 2962POPC   GL239266  39.465  10.752   9.145
 2962POPC   C1A39267  39.186  10.662   8.665
 2962POPC   D2A39268  39.291  10.704   8.226
 2962POPC   C3A39269  39.003  10.669   7.918
 2962POPC   C4A39270  38.667  10.633   7.625
 2962POPC   C1B39271  39.546  10.372   8.887
 2962POPC   C2B39272  39.398  10.218   8.467
 2962POPC   C3B39273  39.529  10.291   8.018
 2962POPC   C4B39274  39.545  10.507   7.622
 2963POPC   NC339275   4.367  14.660   9.705
 2963POPC   PO439276   4.243  14.264   9.242
 2963POPC   GL139277   4.334  14.478   8.971
 2963POPC   GL239278   4.197  14.756   9.063
 2963POPC   C1A39279   4.315  14.338   8.573
 2963POPC   D2A39280   4.456  14.469   8.211
 2963POPC   C3A39281   4.385  14.173   7.898
 2963POPC   C4A39282   3.959  14.094   7.818
 2963POPC   C1B39283   4.202  14.833   8.619
 2963POPC   C2B39284   3.976  14.640   8.284
 2963POPC   C3B39285   4.069  14.597   7.866
 2963POPC   C4B39286   4.457  14.623   7.694
 2964POPC   NC339287   1.230  11.656   9.429
 2964POPC   PO439288   1.271  12.263   9.589
 2964POPC   GL139289   1.280  12.204   9.175
 2964POPC   GL239290   1.555  11.959   9.190
 2964POPC   C1A39291   1.209  11.939   8.810
 2964POPC   D2A39292   1.432  11.769   8.464
 2964POPC   C3A39293   1.438  11.909   8.062
 2964POPC   C4A39294   1.217  11.886   7.662
 2964POPC   C1B39295   1.649  12.207   8.823
 2964POPC   C2B39296   1.497  12.303   8.399
 2964POPC   C3B39297   1.589  12.471   7.977
 2964POPC   C4B39298   1.409  12.341   7.549
 2965POPC   NC339299   9.594   5.793   9.575
 2965POPC   PO439300  10.109   6.139   9.669
 2965POPC   GL139301  10.025   5.828   9.312
 2965POPC   GL239302   9.772   6.024   9.169
 2965POPC   C1A39303  10.081   5.698   8.877
 2965POPC   D2A39304   9.917   5.909   8.511
 2965POPC   C3A39305   9.828   5.720   8.079
 2965POPC   C4A39306   9.954   5.558   7.638
 2965POPC   C1B39307   9.568   5.726   8.865
 2965POPC   C2B39308   9.345   5.638   8.471
 2965POPC   C3B39309   9.279   5.782   8.060
 2965POPC   C4B39310   9.520   5.793   7.668
 2966POPC   NC339311   3.853  30.414   9.393
 2966POPC   PO439312   3.449  29.901   9.618
 2966POPC   GL139313   3.667  29.935   9.255
 2966POPC   GL239314   3.419  30.227   9.215
 2966POPC   C1A39315   3.788  29.725   8.851
 2966POPC   D2A39316   3.646  29.895   8.452
 2966POPC   C3A39317   3.849  29.932   8.073
 2966POPC   C4A39318   3.585  29.694   7.817
 2966POPC   C1B39319   3.559  30.246   8.803
 2966POPC   C2B39320   3.288  30.295   8.457
 2966POPC   C3B39321   3.160  30.301   8.048
 2966POPC   C4B39322   3.408  30.237   7.669
 2967POPC   NC339323  31.281  37.961   9.715
 2967POPC   PO439324  31.372  37.417   9.401
 2967POPC   GL139325  31.384  37.697   9.093
 2967POPC   GL239326  31.421  38.036   9.210
 2967POPC   C1A39327  31.447  37.591   8.671
 2967POPC   D2A39328  31.741  37.551   8.309
 2967POPC   C3A39329  31.453  37.596   7.996
 2967POPC   C4A39330  31.332  37.395   7.623
 2967POPC   C1B39331  31.615  38.092   8.786
 2967POPC   C2B39332  31.471  37.991   8.357
 2967POPC   C3B39333  31.163  38.027   8.013
 2967POPC   C4B39334  30.937  37.674   7.819
 2968POPC   NC339335  11.934  41.594   9.811
 2968POPC   PO439336  12.369  41.294   9.419
 2968POPC   GL139337  12.145  41.470   9.087
 2968POPC   GL239338  12.015  41.782   9.097
 2968POPC   C1A39339  12.047  41.449   8.670
 2968POPC   D2A39340  12.322  41.273   8.356
 2968POPC   C3A39341  12.140  41.272   7.971
 2968POPC   C4A39342  12.381  41.176   7.610
 2968POPC   C1B39343  12.326  41.873   8.763
 2968POPC   C2B39344  12.260  41.781   8.323
 2968POPC   C3B39345  11.987  41.793   7.975
 2968POPC   C4B39346  12.301  41.691   7.718
 2969POPC   NC339347  12.967  19.961   9.561
 2969POPC   PO439348  12.418  20.208   9.269
 2969POPC   GL139349  12.771  19.937   9.072
 2969POPC   GL239350  13.139  19.795   9.109
 2969POPC   C1A39351  12.623  19.808   8.686
 2969POPC   D2A39352  12.561  19.961   8.260
 2969POPC   C3A39353  12.687  19.688   7.899
 2969POPC   C4A39354  12.958  19.623   7.494
 2969POPC   C1B39355  13.134  19.920   8.650
 2969POPC   C2B39356  13.020  20.202   8.251
 2969POPC   C3B39357  12.979  20.065   7.757
 2969POPC   C4B39358  12.858  20.088   7.281
 2970POPC   NC339359  30.226  15.551   9.518
 2970POPC   PO439360  29.937  15.009   9.695
 2970POPC   GL139361  30.000  15.056   9.270
 2970POPC   GL239362  30.323  15.149   9.173
 2970POPC   C1A39363  29.900  15.236   8.859
 2970POPC   D2A39364  30.060  15.225   8.419
 2970POPC   C3A39365  29.894  15.477   8.059
 2970POPC   C4A39366  29.621  15.447   7.680
 2970POPC   C1B39367  30.218  14.820   8.867
 2970POPC   C2B39368  30.231  14.735   8.432
 2970POPC   C3B39369  29.925  14.828   8.098
 2970POPC   C4B39370  29.990  15.081   7.732
 2971POPC   NC339371  25.157   0.917   9.731
 2971POPC   PO439372  25.568   0.676   9.224
 2971POPC   GL139373  25.409   0.341   9.023
 2971POPC   GL239374  25.061   0.242   9.079
 2971POPC   C1A39375  25.377   0.361   8.626
 2971POPC   D2A39376  25.189   0.454   8.280
 2971POPC   C3A39377  25.382   0.274   7.912
 2971POPC   C4A39378  25.436  44.928   7.681
 2971POPC   C1B39379  24.852   0.353   8.675
 2971POPC   C2B39380  24.714   0.648   8.315
 2971POPC   C3B39381  24.894   0.588   7.896
 2971POPC   C4B39382  24.775   0.261   7.596
 2972POPC   NC339383  44.020  20.993   9.656
 2972POPC   PO439384  43.930  21.624   9.658
 2972POPC   GL139385  43.955  21.312   9.257
 2972POPC   GL239386  43.657  21.082   9.211
 2972POPC   C1A39387  44.133  21.280   8.826
 2972POPC   D2A39388  44.233  21.437   8.411
 2972POPC   C3A39389  43.909  21.377   8.081
 2972POPC   C4A39390  43.843  21.267   7.629
 2972POPC   C1B39391  43.611  21.291   8.785
 2972POPC   C2B39392  43.496  21.605   8.420
 2972POPC   C3B39393  43.544  21.722   7.965
 2972POPC   C4B39394  43.407  21.576   7.550
 2973POPC   NC339395   8.073  22.680   9.653
 2973POPC   PO439396   8.157  21.947   9.611
 2973POPC   GL139397   8.340  21.862   9.183
 2973POPC   GL239398   8.121  22.141   9.125
 2973POPC   C1A39399   8.401  21.949   8.741
 2973POPC   D2A39400   8.155  21.881   8.384
 2973POPC   C3A39401   8.314  21.879   7.958
 2973POPC   C4A39402   8.151  22.123   7.635
 2973POPC   C1B39403   8.125  22.370   8.754
 2973POPC   C2B39404   8.470  22.376   8.459
 2973POPC   C3B39405   8.272  22.354   8.092
 2973POPC   C4B39406   7.935  22.583   7.913
 2974POPC   NC339407  41.514  43.730   9.433
 2974POPC   PO439408  42.031  44.021   9.689
 2974POPC   GL139409  41.934  43.749   9.180
 2974POPC   GL239410  41.606  44.028   9.042
 2974POPC   C1A39411  41.694  43.654   8.741
 2974POPC   D2A39412  41.709  43.893   8.360
 2974POPC   C3A39413  41.575  43.764   8.011
 2974POPC   C4A39414  41.255  43.649   7.892
 2974POPC   C1B39415  41.763  44.276   8.679
 2974POPC   C2B39416  42.022  44.301   8.354
 2974POPC   C3B39417  41.822  44.271   7.968
 2974POPC   C4B39418  41.750  44.030   7.606
 2975POPC   NC339419  20.522  31.740   9.460
 2975POPC   PO439420  20.919  31.170   9.441
 2975POPC   GL139421  20.761  31.416   9.136
 2975POPC   GL239422  20.408  31.377   9.111
 2975POPC   C1A39423  20.712  31.418   8.689
 2975POPC   D2A39424  20.872  31.194   8.326
 2975POPC   C3A39425  20.823  31.428   7.949
 2975POPC   C4A39426  20.457  31.647   7.737
 2975POPC   C1B39427  20.348  31.000   8.860
 2975POPC   C2B39428  20.429  30.873   8.433
 2975POPC   C3B39429  20.429  31.073   8.023
 2975POPC   C4B39430  20.125  31.271   7.765
 2976POPC   NC339431  16.294  36.373   9.546
 2976POPC   PO439432  15.707  36.221   9.865
 2976POPC   GL139433  15.860  36.205   9.326
 2976POPC   GL239434  15.970  35.942   9.173
 2976POPC   C1A39435  15.663  36.168   8.847
 2976POPC   D2A39436  15.926  36.074   8.463
 2976POPC   C3A39437  15.788  36.079   8.038
 2976POPC   C4A39438  15.761  35.985   7.584
 2976POPC   C1B39439  16.177  36.226   8.892
 2976POPC   C2B39440  16.453  36.220   8.549
 2976POPC   C3B39441  16.383  36.146   8.122
 2976POPC   C4B39442  16.179  36.256   7.742
 2977POPC   NC339443  10.408  19.209   9.533
 2977POPC   PO439444  10.739  18.603   9.433
 2977POPC   GL139445  10.457  18.851   9.118
 2977POPC   GL239446  10.540  19.212   9.064
 2977POPC   C1A39447  10.323  19.019   8.677
 2977POPC   D2A39448  10.209  19.008   8.255
 2977POPC   C3A39449  10.542  18.913   7.975
 2977POPC   C4A39450  10.546  18.847   7.515
 2977POPC   C1B39451  10.672  19.431   8.703
 2977POPC   C2B39452  10.482  19.467   8.352
 2977POPC   C3B39453  10.327  19.467   7.985
 2977POPC   C4B39454  10.501  19.330   7.634
 2978POPC   NC339455   2.599  33.665   9.652
 2978POPC   PO439456   2.728  33.191   9.233
 2978POPC   GL139457   2.750  33.635   9.148
 2978POPC   GL239458   2.462  33.852   9.187
 2978POPC   C1A39459   2.832  33.873   8.795
 2978POPC   D2A39460   2.833  33.996   8.378
 2978POPC   C3A39461   3.003  33.682   8.108
 2978POPC   C4A39462   2.962  33.554   7.660
 2978POPC   C1B39463   2.362  33.704   8.759
 2978POPC   C2B39464   2.452  33.652   8.301
 2978POPC   C3B39465   2.527  33.746   7.855
 2978POPC   C4B39466   2.385  33.597   7.433
 2979POPC   NC339467  36.282  22.735   9.603
 2979POPC   PO439468  35.780  23.090   9.529
 2979POPC   GL139469  35.966  22.797   9.197
 2979POPC   GL239470  36.352  22.680   9.108
 2979POPC   C1A39471  35.999  22.815   8.770
 2979POPC   D2A39472  36.278  22.839   8.430
 2979POPC   C3A39473  36.074  22.924   8.048
 2979POPC   C4A39474  36.033  22.831   7.614
 2979POPC   C1B39475  36.464  23.073   8.859
 2979POPC   C2B39476  36.448  23.334   8.458
 2979POPC   C3B39477  36.497  23.201   8.005
 2979POPC   C4B39478  36.431  23.142   7.543
 2980POPC   NC339479  34.391   3.596   9.476
 2980POPC   PO439480  35.003   3.531   9.570
 2980POPC   GL139481  34.775   3.373   9.191
 2980POPC   GL239482  34.389   3.212   9.161
 2980POPC   C1A39483  34.735   3.633   8.817
 2980POPC   D2A39484  34.619   3.913   8.494
 2980POPC   C3A39485  34.801   3.783   8.111
 2980POPC   C4A39486  34.584   3.659   7.758
 2980POPC   C1B39487  34.626   3.134   8.772
 2980POPC   C2B39488  34.838   3.076   8.384
 2980POPC   C3B39489  34.770   3.151   7.935
 2980POPC   C4B39490  34.844   3.313   7.508
 2981POPC   NC339491  28.841   1.784   9.505
 2981POPC   PO439492  29.568   1.790   9.320
 2981POPC   GL139493  29.293   1.959   9.040
 2981POPC   GL239494  28.966   2.008   9.084
 2981POPC   C1A39495  29.218   2.094   8.614
 2981POPC   D2A39496  29.437   2.408   8.324
 2981POPC   C3A39497  29.505   2.177   7.934
 2981POPC   C4A39498  29.229   1.839   7.785
 2981POPC   C1B39499  28.681   1.996   8.761
 2981POPC   C2B39500  28.768   1.865   8.349
 2981POPC   C3B39501  28.955   2.164   8.077
 2981POPC   C4B39502  28.862   2.239   7.656
 2982POPC   NC339503  14.962  36.429   9.661
 2982POPC   PO439504  15.441  35.945   9.418
 2982POPC   GL139505  15.133  36.185   9.212
 2982POPC   GL239506  15.221  36.539   9.173
 2982POPC   C1A39507  15.112  36.155   8.763
 2982POPC   D2A39508  15.304  35.962   8.390
 2982POPC   C3A39509  15.016  36.001   8.050
 2982POPC   C4A39510  15.187  35.908   7.658
 2982POPC   C1B39511  15.371  36.612   8.730
 2982POPC   C2B39512  15.524  36.431   8.323
 2982POPC   C3B39513  15.365  36.345   7.891
 2982POPC   C4B39514  14.955  36.351   7.631
 2983POPC   NC339515  14.095  13.514   9.533
 2983POPC   PO439516  13.399  13.846   9.508
 2983POPC   GL139517  13.374  13.587   9.101
 2983POPC   GL239518  13.461  13.201   9.104
 2983POPC   C1A39519  13.291  13.604   8.677
 2983POPC   D2A39520  13.405  13.359   8.344
 2983POPC   C3A39521  13.429  13.491   7.920
 2983POPC   C4A39522  13.531  13.249   7.549
 2983POPC   C1B39523  13.737  13.363   8.746
 2983POPC   C2B39524  13.914  13.263   8.291
 2983POPC   C3B39525  14.042  13.463   7.875
 2983POPC   C4B39526  14.226  13.826   7.581
 2984POPC   NC339527  23.922  36.358   9.424
 2984POPC   PO439528  23.350  36.316   9.740
 2984POPC   GL139529  23.456  36.183   9.259
 2984POPC   GL239530  23.677  35.902   9.242
 2984POPC   C1A39531  23.594  36.358   8.812
 2984POPC   D2A39532  23.689  36.290   8.391
 2984POPC   C3A39533  23.978  36.284   8.047
 2984POPC   C4A39534  23.843  36.401   7.638
 2984POPC   C1B39535  23.759  35.889   8.779
 2984POPC   C2B39536  23.790  35.809   8.327
 2984POPC   C3B39537  23.671  35.717   7.916
 2984POPC   C4B39538  23.901  35.903   7.602
 2985POPC   NC339539   0.935  12.581   9.578
 2985POPC   PO439540   1.192  13.189   9.494
 2985POPC   GL139541   1.314  12.830   9.233
 2985POPC   GL239542   1.426  13.094   9.011
 2985POPC   C1A39543   1.281  12.600   8.814
 2985POPC   D2A39544   1.430  12.816   8.434
 2985POPC   C3A39545   1.188  12.779   8.063
 2985POPC   C4A39546   1.283  12.804   7.657
 2985POPC   C1B39547   1.347  13.361   8.647
 2985POPC   C2B39548   1.169  13.236   8.258
 2985POPC   C3B39549   1.201  13.280   7.812
 2985POPC   C4B39550   1.124  13.211   7.362
 2986POPC   NC339551  18.796  28.166   9.516
 2986POPC   PO439552  18.860  28.805   9.431
 2986POPC   GL139553  18.745  28.520   9.149
 2986POPC   GL239554  19.070  28.311   9.112
 2986POPC   C1A39555  18.791  28.560   8.747
 2986POPC   D2A39556  19.106  28.584   8.492
 2986POPC   C3A39557  19.031  28.442   8.088
 2986POPC   C4A39558  19.129  28.587   7.723
 2986POPC   C1B39559  19.129  28.098   8.711
 2986POPC   C2B39560  19.364  28.112   8.301
 2986POPC   C3B39561  19.398  28.081   7.842
 2986POPC   C4B39562  19.264  27.936   7.392
 2987POPC   NC339563  24.092  43.784   9.474
 2987POPC   PO439564  24.756  44.002   9.545
 2987POPC   GL139565  24.542  43.819   9.201
 2987POPC   GL239566  24.326  44.119   9.154
 2987POPC   C1A39567  24.536  43.853   8.747
 2987POPC   D2A39568  24.528  44.032   8.324
 2987POPC   C3A39569  24.447  43.714   8.010
 2987POPC   C4A39570  24.560  43.644   7.615
 2987POPC   C1B39571  24.292  44.306   8.749
 2987POPC   C2B39572  24.144  44.368   8.337
 2987POPC   C3B39573  24.165  44.144   7.962
 2987POPC   C4B39574  24.184  43.963   7.565
 2988POPC   NC339575  30.512  43.535   9.857
 2988POPC   PO439576  30.989  43.267   9.416
 2988POPC   GL139577  30.770  43.154   9.069
 2988POPC   GL239578  30.728  42.820   9.024
 2988POPC   C1A39579  30.607  43.233   8.678
 2988POPC   D2A39580  30.879  43.287   8.344
 2988POPC   C3A39581  30.621  43.282   7.993
 2988POPC   C4A39582  30.738  43.209   7.611
 2988POPC   C1B39583  30.583  42.704   8.669
 2988POPC   C2B39584  30.582  42.861   8.280
 2988POPC   C3B39585  30.838  42.814   7.902
 2988POPC   C4B39586  30.876  42.768   7.424
 2989POPC   NC339587  13.680  25.544   9.546
 2989POPC   PO439588  13.423  26.231   9.450
 2989POPC   GL139589  13.677  25.937   9.189
 2989POPC   GL239590  13.441  25.706   9.123
 2989POPC   C1A39591  13.852  26.020   8.770
 2989POPC   D2A39592  13.785  26.382   8.476
 2989POPC   C3A39593  13.723  26.324   8.032
 2989POPC   C4A39594  13.933  26.076   7.739
 2989POPC   C1B39595  13.435  25.721   8.711
 2989POPC   C2B39596  13.508  25.954   8.345
 2989POPC   C3B39597  13.464  25.896   7.922
 2989POPC   C4B39598  13.186  25.635   7.718
 2990POPC   NC339599  42.121  21.732   9.278
 2990POPC   PO439600  42.053  21.218   9.611
 2990POPC   GL139601  42.265  21.092   9.239
 2990POPC   GL239602  42.628  21.054   9.273
 2990POPC   C1A39603  42.133  21.223   8.846
 2990POPC   D2A39604  42.270  21.520   8.539
 2990POPC   C3A39605  42.036  21.549   8.166
 2990POPC   C4A39606  42.192  21.418   7.771
 2990POPC   C1B39607  42.652  21.227   8.861
 2990POPC   C2B39608  42.573  21.099   8.430
 2990POPC   C3B39609  42.622  21.296   8.025
 2990POPC   C4B39610  42.613  21.229   7.567
 2991POPC   NC339611  27.985   2.342   9.805
 2991POPC   PO439612  28.349   1.857   9.474
 2991POPC   GL139613  28.244   1.728   9.084
 2991POPC   GL239614  28.592   1.579   9.076
 2991POPC   C1A39615  28.094   1.965   8.712
 2991POPC   D2A39616  28.264   2.269   8.397
 2991POPC   C3A39617  28.398   2.118   7.996
 2991POPC   C4A39618  28.132   1.857   7.747
 2991POPC   C1B39619  28.455   1.564   8.649
 2991POPC   C2B39620  28.241   1.694   8.300
 2991POPC   C3B39621  28.475   1.599   8.006
 2991POPC   C4B39622  28.717   1.774   7.778
 2992POPC   NC339623  36.785  38.096   9.700
 2992POPC   PO439624  37.103  37.547   9.536
 2992POPC   GL139625  36.813  37.597   9.145
 2992POPC   GL239626  36.663  37.968   9.157
 2992POPC   C1A39627  36.822  37.475   8.657
 2992POPC   D2A39628  36.772  37.271   8.239
 2992POPC   C3A39629  37.082  37.461   7.972
 2992POPC   C4A39630  37.185  37.955   7.958
 2992POPC   C1B39631  36.791  37.979   8.718
 2992POPC   C2B39632  36.802  37.839   8.274
 2992POPC   C3B39633  36.497  37.866   7.906
 2992POPC   C4B39634  36.508  38.076   7.468
 2993POPC   NC339635  27.468   3.761   9.643
 2993POPC   PO439636  28.054   3.604   9.581
 2993POPC   GL139637  27.810   3.696   9.211
 2993POPC   GL239638  27.526   3.500   9.180
 2993POPC   C1A39639  27.680   3.769   8.768
 2993POPC   D2A39640  27.491   3.964   8.404
 2993POPC   C3A39641  27.575   3.657   8.076
 2993POPC   C4A39642  27.869   3.728   7.709
 2993POPC   C1B39643  27.325   3.389   8.774
 2993POPC   C2B39644  27.202   3.232   8.354
 2993POPC   C3B39645  27.145   3.390   7.924
 2993POPC   C4B39646  27.470   3.400   7.602
 2994POPC   NC339647  41.784   1.995   9.605
 2994POPC   PO439648  41.226   1.693   9.762
 2994POPC   GL139649  41.468   1.708   9.333
 2994POPC   GL239650  41.456   2.042   9.167
 2994POPC   C1A39651  41.565   1.658   8.843
 2994POPC   D2A39652  41.685   1.783   8.366
 2994POPC   C3A39653  41.481   1.913   7.970
 2994POPC   C4A39654  41.492   2.266   7.674
 2994POPC   C1B39655  41.408   2.194   8.722
 2994POPC   C2B39656  41.543   2.291   8.286
 2994POPC   C3B39657  41.907   2.158   7.950
 2994POPC   C4B39658  42.071   2.421   7.600
 2995POPC   NC339659   2.466  28.254   9.450
 2995POPC   PO439660   3.184  28.159   9.449
 2995POPC   GL139661   2.882  28.286   9.148
 2995POPC   GL239662   2.903  28.623   9.171
 2995POPC   C1A39663   2.614  28.305   8.783
 2995POPC   D2A39664   2.693  28.386   8.371
 2995POPC   C3A39665   2.525  28.217   7.976
 2995POPC   C4A39666   2.608  28.204   7.509
 2995POPC   C1B39667   3.136  28.555   8.764
 2995POPC   C2B39668   3.116  28.653   8.302
 2995POPC   C3B39669   2.976  28.477   7.921
 2995POPC   C4B39670   2.966  28.595   7.499
 2996POPC   NC339671  13.925  36.896   9.478
 2996POPC   PO439672  13.505  37.430   9.465
 2996POPC   GL139673  13.664  37.151   9.086
 2996POPC   GL239674  13.756  36.785   9.016
 2996POPC   C1A39675  13.638  37.102   8.614
 2996POPC   D2A39676  13.385  36.938   8.283
 2996POPC   C3A39677  13.586  36.930   7.872
 2996POPC   C4A39678  13.464  36.690   7.482
 2996POPC   C1B39679  14.016  36.731   8.639
 2996POPC   C2B39680  14.014  36.709   8.167
 2996POPC   C3B39681  13.898  36.533   7.760
 2996POPC   C4B39682  14.090  36.550   7.335
 2997POPC   NC339683  31.621  23.658   9.387
 2997POPC   PO439684  31.066  24.075   9.422
 2997POPC   GL139685  31.246  23.866   9.109
 2997POPC   GL239686  31.549  23.985   9.035
 2997POPC   C1A39687  31.181  23.571   8.797
 2997POPC   D2A39688  30.953  23.632   8.439
 2997POPC   C3A39689  31.117  23.533   8.021
 2997POPC   C4A39690  31.263  23.895   7.810
 2997POPC   C1B39691  31.651  23.747   8.698
 2997POPC   C2B39692  31.498  23.694   8.315
 2997POPC   C3B39693  31.633  23.576   7.915
 2997POPC   C4B39694  31.699  23.903   7.548
 2998POPC   NC339695   9.039  26.588   9.895
 2998POPC   PO439696   8.544  26.991   9.612
 2998POPC   GL139697   8.859  26.918   9.249
 2998POPC   GL239698   8.745  26.632   9.076
 2998POPC   C1A39699   9.115  26.900   8.838
 2998POPC   D2A39700   9.003  26.930   8.370
 2998POPC   C3A39701   9.235  26.702   8.054
 2998POPC   C4A39702   9.156  26.605   7.632
 2998POPC   C1B39703   8.830  26.517   8.632
 2998POPC   C2B39704   8.825  26.394   8.198
 2998POPC   C3B39705   8.678  26.598   7.838
 2998POPC   C4B39706   8.445  26.811   7.533
 2999POPC   NC339707  26.482  31.586   9.600
 2999POPC   PO439708  27.159  31.695   9.716
 2999POPC   GL139709  26.900  31.541   9.285
 2999POPC   GL239710  26.549  31.416   9.133
 2999POPC   C1A39711  26.941  31.447   8.802
 2999POPC   D2A39712  26.998  31.567   8.330
 2999POPC   C3A39713  27.026  31.307   7.915
 2999POPC   C4A39714  27.357  31.288   7.574
 2999POPC   C1B39715  26.486  31.207   8.718
 2999POPC   C2B39716  26.584  31.262   8.255
 2999POPC   C3B39717  26.324  31.420   7.911
 2999POPC   C4B39718  26.418  31.836   7.679
 3000POPC   NC339719  23.852  37.801   9.586
 3000POPC   PO439720  23.525  37.291   9.607
 3000POPC   GL139721  23.576  37.569   9.211
 3000POPC   GL239722  23.920  37.733   9.090
 3000POPC   C1A39723  23.446  37.760   8.803
 3000POPC   D2A39724  23.594  37.837   8.377
 3000POPC   C3A39725  23.375  37.831   7.969
 3000POPC   C4A39726  23.500  37.550   7.674
 3000POPC   C1B39727  23.826  37.419   8.794
 3000POPC   C2B39728  23.656  37.295   8.462
 3000POPC   C3B39729  23.672  37.252   8.056
 3000POPC   C4B39730  23.932  37.291   7.716
 3001POPC   NC339731  16.276  24.094   9.829
 3001POPC   PO439732  15.985  23.560   9.499
 3001POPC   GL139733  16.000  23.742   9.150
 3001POPC   GL239734  15.683  23.745   9.075
 3001POPC   C1A39735  16.107  23.741   8.739
 3001POPC   D2A39736  15.922  23.614   8.367
 3001POPC   C3A39737  16.180  23.648   8.016
 3001POPC   C4A39738  16.127  23.621   7.594
 3001POPC   C1B39739  15.651  23.391   8.786
 3001POPC   C2B39740  15.475  23.331   8.371
 3001POPC   C3B39741  15.695  23.351   7.967
 3001POPC   C4B39742  15.762  23.245   7.526
 3002POPC   NC339743  32.054  13.964   9.656
 3002POPC   PO439744  32.778  13.864   9.596
 3002POPC   GL139745  32.534  13.755   9.241
 3002POPC   GL239746  32.182  13.886   9.176
 3002POPC   C1A39747  32.527  13.797   8.800
 3002POPC   D2A39748  32.412  13.479   8.522
 3002POPC   C3A39749  32.521  13.592   8.129
 3002POPC   C4A39750  32.280  13.646   7.800
 3002POPC   C1B39751  31.993  13.884   8.770
 3002POPC   C2B39752  32.096  13.856   8.332
 3002POPC   C3B39753  31.883  13.932   7.928
 3002POPC   C4B39754  31.910  14.022   7.452
 3003POPC   NC339755  37.261  28.911   9.532
 3003POPC   PO439756  36.724  29.357   9.649
 3003POPC   GL139757  36.871  29.083   9.287
 3003POPC   GL239758  37.136  29.277   9.155
 3003POPC   C1A39759  36.942  28.955   8.829
 3003POPC   D2A39760  36.733  29.153   8.455
 3003POPC   C3A39761  36.644  28.991   8.038
 3003POPC   C4A39762  36.831  29.060   7.643
 3003POPC   C1B39763  37.131  29.434   8.720
 3003POPC   C2B39764  37.083  29.574   8.319
 3003POPC   C3B39765  36.808  29.463   7.976
 3003POPC   C4B39766  36.460  29.428   7.669
 3004POPC   NC339767  32.756  26.362   9.576
 3004POPC   PO439768  33.064  27.012   9.472
 3004POPC   GL139769  33.014  26.676   9.220
 3004POPC   GL239770  33.358  26.525   9.186
 3004POPC   C1A39771  32.729  26.738   8.863
 3004POPC   D2A39772  32.591  26.941   8.476
 3004POPC   C3A39773  32.745  26.765   8.112
 3004POPC   C4A39774  32.799  26.643   7.703
 3004POPC   C1B39775  33.313  26.839   8.845
 3004POPC   C2B39776  33.107  26.847   8.469
 3004POPC   C3B39777  33.247  26.907   8.044
 3004POPC   C4B39778  33.473  26.949   7.652
 3005POPC   NC339779  38.650  36.068   9.504
 3005POPC   PO439780  38.038  35.702   9.533
 3005POPC   GL139781  38.132  36.086   9.239
 3005POPC   GL239782  38.463  36.221   9.085
 3005POPC   C1A39783  38.134  36.031   8.775
 3005POPC   D2A39784  38.405  35.909   8.430
 3005POPC   C3A39785  38.314  36.100   8.027
 3005POPC   C4A39786  38.231  35.972   7.600
 3005POPC   C1B39787  38.672  36.260   8.702
 3005POPC   C2B39788  38.695  36.410   8.281
 3005POPC   C3B39789  38.809  36.229   7.890
 3005POPC   C4B39790  38.780  35.952   7.540
 3006POPC   NC339791  10.527  30.482   9.498
 3006POPC   PO439792  10.301  31.095   9.342
 3006POPC   GL139793  10.598  31.040   9.045
 3006POPC   GL239794  10.500  30.695   9.042
 3006POPC   C1A39795  10.516  31.019   8.623
 3006POPC   D2A39796  10.262  30.872   8.298
 3006POPC   C3A39797  10.435  31.036   7.930
 3006POPC   C4A39798  10.856  31.155   7.866
 3006POPC   C1B39799  10.421  30.506   8.668
 3006POPC   C2B39800  10.702  30.555   8.335
 3006POPC   C3B39801  10.691  30.593   7.926
 3006POPC   C4B39802  10.274  30.552   7.712
 3007POPC   NC339803  11.214   5.664   9.369
 3007POPC   PO439804  11.650   6.141   9.423
 3007POPC   GL139805  11.347   6.142   9.110
 3007POPC   GL239806  10.990   6.141   9.225
 3007POPC   C1A39807  11.348   5.891   8.717
 3007POPC   D2A39808  11.350   5.621   8.347
 3007POPC   C3A39809  11.350   5.840   7.975
 3007POPC   C4A39810  11.640   5.827   7.660
 3007POPC   C1B39811  10.983   6.251   8.779
 3007POPC   C2B39812  11.011   6.099   8.352
 3007POPC   C3B39813  11.105   6.288   7.942
 3007POPC   C4B39814  11.271   6.194   7.538
 3008POPC   NC339815   1.117  29.652   9.299
 3008POPC   PO439816   0.964  29.179   9.827
 3008POPC   GL139817   1.075  29.120   9.374
 3008POPC   GL239818   0.814  28.911   9.266
 3008POPC   C1A39819   1.210  29.004   8.908
 3008POPC   D2A39820   1.212  28.862   8.461
 3008POPC   C3A39821   1.328  29.148   8.112
 3008POPC   C4A39822   1.079  29.474   7.919
 3008POPC   C1B39823   0.746  29.214   8.910
 3008POPC   C2B39824   0.924  29.281   8.485
 3008POPC   C3B39825   0.826  29.025   8.111
 3008POPC   C4B39826   0.738  28.966   7.682
 3009POPC   NC339827  12.323  26.166   9.627
 3009POPC   PO439828  11.791  25.776   9.520
 3009POPC   GL139829  11.896  26.124   9.234
 3009POPC   GL239830  12.208  26.054   9.137
 3009POPC   C1A39831  11.973  26.355   8.808
 3009POPC   D2A39832  12.155  26.443   8.403
 3009POPC   C3A39833  11.916  26.457   8.025
 3009POPC   C4A39834  11.907  26.248   7.686
 3009POPC   C1B39835  12.004  25.852   8.770
 3009POPC   C2B39836  12.076  25.912   8.366
 3009POPC   C3B39837  11.951  25.841   7.978
 3009POPC   C4B39838  11.852  25.529   7.680
 3010POPC   NC339839  38.768  20.012   9.445
 3010POPC   PO439840  38.309  19.571   9.443
 3010POPC   GL139841  38.481  19.707   9.114
 3010POPC   GL239842  38.809  19.600   9.143
 3010POPC   C1A39843  38.344  19.695   8.722
 3010POPC   D2A39844  38.437  19.880   8.349
 3010POPC   C3A39845  38.374  19.567   8.028
 3010POPC   C4A39846  38.331  19.809   7.668
 3010POPC   C1B39847  38.835  19.822   8.750
 3010POPC   C2B39848  38.976  19.895   8.353
 3010POPC   C3B39849  38.830  19.779   7.971
 3010POPC   C4B39850  38.794  19.557   7.566
 3011POPC   NC339851  32.206  24.289   9.677
 3011POPC   PO439852  32.419  23.609   9.580
 3011POPC   GL139853  32.343  23.807   9.151
 3011POPC   GL239854  32.023  23.784   9.063
 3011POPC   C1A39855  32.432  23.780   8.711
 3011POPC   D2A39856  32.282  23.416   8.507
 3011POPC   C3A39857  32.176  23.438   8.088
 3011POPC   C4A39858  32.494  23.476   7.777
 3011POPC   C1B39859  32.018  24.102   8.756
 3011POPC   C2B39860  32.056  23.888   8.365
 3011POPC   C3B39861  32.004  23.926   7.948
 3011POPC   C4B39862  32.196  23.991   7.553
 3012POPC   NC339863  37.788  18.908   9.668
 3012POPC   PO439864  37.650  19.533   9.654
 3012POPC   GL139865  37.911  19.273   9.286
 3012POPC   GL239866  37.913  18.898   9.131
 3012POPC   C1A39867  37.976  19.293   8.810
 3012POPC   D2A39868  37.700  19.194   8.429
 3012POPC   C3A39869  37.803  19.229   7.971
 3012POPC   C4A39870  37.933  19.433   7.565
 3012POPC   C1B39871  37.871  18.751   8.659
 3012POPC   C2B39872  37.908  18.765   8.191
 3012POPC   C3B39873  37.557  18.668   7.879
 3012POPC   C4B39874  37.549  18.546   7.438
 3013POPC   NC339875  12.783   5.276   9.647
 3013POPC   PO439876  13.108   5.920   9.613
 3013POPC   GL139877  13.042   6.052   9.171
 3013POPC   GL239878  13.021   5.700   9.157
 3013POPC   C1A39879  12.912   6.182   8.707
 3013POPC   D2A39880  12.751   5.960   8.337
 3013POPC   C3A39881  12.599   6.087   7.951
 3013POPC   C4A39882  12.978   6.124   7.830
 3013POPC   C1B39883  12.869   5.675   8.775
 3013POPC   C2B39884  13.018   5.465   8.435
 3013POPC   C3B39885  12.903   5.422   8.067
 3013POPC   C4B39886  12.852   5.639   7.736
 3014POPC   NC339887  17.910  29.502   9.396
 3014POPC   PO439888  17.275  29.262   9.254
 3014POPC   GL139889  17.464  28.956   8.989
 3014POPC   GL239890  17.742  28.753   9.160
 3014POPC   C1A39891  17.476  29.039   8.544
 3014POPC   D2A39892  17.768  29.312   8.294
 3014POPC   C3A39893  17.674  29.463   7.861
 3014POPC   C4A39894  17.662  29.649   7.430
 3014POPC   C1B39895  17.767  28.633   8.706
 3014POPC   C2B39896  17.850  28.798   8.284
 3014POPC   C3B39897  17.503  28.972   8.026
 3014POPC   C4B39898  17.325  28.663   7.741
 3015POPC   NC339899  40.411   6.394   9.448
 3015POPC   PO439900  39.879   6.211   9.602
 3015POPC   GL139901  39.997   6.411   9.155
 3015POPC   GL239902  40.354   6.534   8.970
 3015POPC   C1A39903  39.886   6.419   8.728
 3015POPC   D2A39904  40.193   6.431   8.390
 3015POPC   C3A39905  39.963   6.496   8.000
 3015POPC   C4A39906  40.077   6.592   7.573
 3015POPC   C1B39907  40.134   6.854   8.729
 3015POPC   C2B39908  39.984   6.911   8.307
 3015POPC   C3B39909  39.967   7.009   7.875
 3015POPC   C4B39910  40.066   7.087   7.456
 3016POPC   NC339911  28.513  13.685   9.474
 3016POPC   PO439912  27.935  13.326   9.293
 3016POPC   GL139913  28.214  13.548   9.097
 3016POPC   GL239914  28.154  13.894   9.111
 3016POPC   C1A39915  28.579  13.525   8.834
 3016POPC   D2A39916  28.813  13.263   8.530
 3016POPC   C3A39917  28.686  13.444   8.126
 3016POPC   C4A39918  28.351  13.570   7.806
 3016POPC   C1B39919  28.060  13.729   8.670
 3016POPC   C2B39920  28.080  13.694   8.238
 3016POPC   C3B39921  27.850  13.459   7.969
 3016POPC   C4B39922  27.620  13.436   7.587
 3017POPC   NC339923  28.927  20.231   9.529
 3017POPC   PO439924  29.368  20.742   9.622
 3017POPC   GL139925  29.096  20.659   9.223
 3017POPC   GL239926  29.148  20.309   9.081
 3017POPC   C1A39927  28.966  20.648   8.756
 3017POPC   D2A39928  29.153  20.704   8.311
 3017POPC   C3A39929  28.887  20.620   7.926
 3017POPC   C4A39930  28.961  20.573   7.447
 3017POPC   C1B39931  29.464  20.362   8.757
 3017POPC   C2B39932  29.552  20.314   8.321
 3017POPC   C3B39933  29.275  20.287   7.988
 3017POPC   C4B39934  29.372  20.639   7.750
 3018POPC   NC339935  27.671  27.758   9.498
 3018POPC   PO439936  27.860  27.154   9.238
 3018POPC   GL139937  27.781  27.518   9.050
 3018POPC   GL239938  27.455  27.512   9.120
 3018POPC   C1A39939  27.655  27.807   8.736
 3018POPC   D2A39940  27.450  27.900   8.354
 3018POPC   C3A39941  27.697  27.796   8.065
 3018POPC   C4A39942  27.762  27.846   7.674
 3018POPC   C1B39943  27.374  27.362   8.720
 3018POPC   C2B39944  27.505  27.383   8.299
 3018POPC   C3B39945  27.400  27.433   7.850
 3018POPC   C4B39946  27.502  27.085   7.591
 3019POPC   NC339947   8.071  20.780   9.428
 3019POPC   PO439948   8.582  20.286   9.351
 3019POPC   GL139949   8.211  20.418   9.072
 3019POPC   GL239950   8.162  20.759   8.955
 3019POPC   C1A39951   8.295  20.447   8.602
 3019POPC   D2A39952   8.544  20.208   8.304
 3019POPC   C3A39953   8.476  20.455   7.943
 3019POPC   C4A39954   8.046  20.544   7.786
 3019POPC   C1B39955   8.013  20.925   8.611
 3019POPC   C2B39956   8.165  20.851   8.215
 3019POPC   C3B39957   8.025  21.049   7.872
 3019POPC   C4B39958   8.131  21.009   7.444
 3020POPC   NC339959  41.183  11.591   9.355
 3020POPC   PO439960  41.326  11.067   9.683
 3020POPC   GL139961  41.505  11.159   9.178
 3020POPC   GL239962  41.502  11.449   9.000
 3020POPC   C1A39963  41.619  11.080   8.698
 3020POPC   D2A39964  41.578  11.270   8.267
 3020POPC   C3A39965  41.508  10.968   7.928
 3020POPC   C4A39966  41.416  10.919   7.460
 3020POPC   C1B39967  41.751  11.608   8.658
 3020POPC   C2B39968  42.040  11.540   8.302
 3020POPC   C3B39969  42.006  11.283   7.938
 3020POPC   C4B39970  41.654  11.363   7.667
 3021POPC   NC339971  31.772  19.144   9.536
 3021POPC   PO439972  31.289  18.654   9.455
 3021POPC   GL139973  31.393  18.992   9.179
 3021POPC   GL239974  31.680  18.765   9.161
 3021POPC   C1A39975  31.195  19.288   8.851
 3021POPC   D2A39976  31.196  19.121   8.430
 3021POPC   C3A39977  31.324  19.121   8.011
 3021POPC   C4A39978  31.502  18.894   7.657
 3021POPC   C1B39979  31.821  18.664   8.781
 3021POPC   C2B39980  31.649  18.767   8.409
 3021POPC   C3B39981  31.833  18.830   8.036
 3021POPC   C4B39982  31.838  18.519   7.704
 3022POPC   NC339983  12.306   6.949   9.403
 3022POPC   PO439984  12.323   6.265   9.405
 3022POPC   GL139985  11.989   6.571   9.206
 3022POPC   GL239986  12.248   6.615   9.012
 3022POPC   C1A39987  11.926   6.936   8.847
 3022POPC   D2A39988  12.214   6.863   8.466
 3022POPC   C3A39989  12.055   6.923   8.046
 3022POPC   C4A39990  11.889   6.828   7.644
 3022POPC   C1B39991  12.009   6.425   8.676
 3022POPC   C2B39992  12.046   6.415   8.214
 3022POPC   C3B39993  12.256   6.483   7.838
 3022POPC   C4B39994  12.432   6.833   7.625
 3023POPC   NC339995   2.065  11.531   9.900
 3023POPC   PO439996   2.034  10.898   9.607
 3023POPC   GL139997   2.070  11.197   9.301
 3023POPC   GL239998   1.731  11.278   9.138
 3023POPC   C1A39999   2.151  11.270   8.858
 3023POPC   D2A40000   2.342  11.315   8.453
 3023POPC   C3A40001   2.089  11.117   8.141
 3023POPC   C4A40002   1.881  11.112   7.748
 3023POPC   C1B40003   1.706  11.580   8.842
 3023POPC   C2B40004   1.872  11.509   8.431
 3023POPC   C3B40005   1.887  11.581   8.001
 3023POPC   C4B40006   1.569  11.527   7.708
 3024POPC   NC340007  31.009  42.783   9.424
 3024POPC   PO440008  30.640  42.249   9.718
 3024POPC   GL140009  30.502  42.158   9.272
 3024POPC   GL240010  30.825  42.002   9.261
 3024POPC   C1A40011  30.382  42.224   8.797
 3024POPC   D2A40012  30.338  42.114   8.316
 3024POPC   C3A40013  30.519  42.431   8.020
 3024POPC   C4A40014  30.333  42.836   7.826
 3024POPC   C1B40015  30.870  42.323   8.940
 3024POPC   C2B40016  30.818  42.285   8.497
 3024POPC   C3B40017  31.005  42.329   8.119
 3024POPC   C4B40018  30.918  42.346   7.700
 3025POPC   NC340019  24.352   6.936   9.633
 3025POPC   PO440020  24.704   6.395   9.461
 3025POPC   GL140021  24.487   6.649   9.193
 3025POPC   GL240022  24.602   6.985   9.197
 3025POPC   C1A40023  24.292   6.631   8.803
 3025POPC   D2A40024  24.272   6.551   8.399
 3025POPC   C3A40025  23.961   6.712   8.177
 3025POPC   C4A40026  24.098   6.759   7.776
 3025POPC   C1B40027  24.624   7.014   8.769
 3025POPC   C2B40028  24.756   7.073   8.358
 3025POPC   C3B40029  24.535   6.865   8.038
 3025POPC   C4B40030  24.598   6.812   7.598
 3026POPC   NC340031  12.114   0.929   9.466
 3026POPC   PO440032  11.843   1.496   9.677
 3026POPC   GL140033  11.935   1.361   9.253
 3026POPC   GL240034  11.731   1.070   9.123
 3026POPC   C1A40035  12.118   1.334   8.807
 3026POPC   D2A40036  12.102   1.058   8.432
 3026POPC   C3A40037  12.265   1.197   8.027
 3026POPC   C4A40038  12.203   0.916   7.718
 3026POPC   C1B40039  11.617   1.471   8.889
 3026POPC   C2B40040  11.547   1.539   8.461
 3026POPC   C3B40041  11.791   1.407   8.101
 3026POPC   C4B40042  11.852   1.277   7.678
 3027POPC   NC340043   0.095  43.799   9.475
 3027POPC   PO440044   0.624  43.513   9.481
 3027POPC   GL140045   0.477  43.747   9.127
 3027POPC   GL240046   0.480  44.100   9.213
 3027POPC   C1A40047   0.661  43.960   8.758
 3027POPC   D2A40048   0.668  43.711   8.426
 3027POPC   C3A40049   0.540  43.855   8.045
 3027POPC   C4A40050   0.832  44.085   7.808
 3027POPC   C1B40051   0.183  44.072   8.859
 3027POPC   C2B40052   0.167  43.915   8.463
 3027POPC   C3B40053   0.121  44.152   8.103
 3027POPC   C4B40054   0.277  44.125   7.693
 3028POPC   NC340055  26.162  34.212   9.747
 3028POPC   PO440056  25.769  33.741   9.755
 3028POPC   GL140057  26.039  33.737   9.303
 3028POPC   GL240058  26.290  33.958   9.104
 3028POPC   C1A40059  26.153  33.572   8.833
 3028POPC   D2A40060  26.016  33.760   8.432
 3028POPC   C3A40061  26.153  33.556   8.074
 3028POPC   C4A40062  25.885  33.750   7.787
 3028POPC   C1B40063  26.297  34.090   8.682
 3028POPC   C2B40064  26.502  34.192   8.316
 3028POPC   C3B40065  26.218  34.070   8.020
 3028POPC   C4B40066  26.280  33.999   7.592
 3029POPC   NC340067  18.703  18.642   9.258
 3029POPC   PO440068  18.449  18.101   9.555
 3029POPC   GL140069  18.296  18.313   9.187
 3029POPC   GL240070  17.996  18.485   9.301
 3029POPC   C1A40071  18.437  18.238   8.754
 3029POPC   D2A40072  18.257  18.234   8.321
 3029POPC   C3A40073  18.454  18.155   7.958
 3029POPC   C4A40074  18.521  18.549   7.762
 3029POPC   C1B40075  17.975  18.512   8.838
 3029POPC   C2B40076  17.886  18.572   8.402
 3029POPC   C3B40077  18.019  18.477   7.920
 3029POPC   C4B40078  18.123  18.625   7.436
 3030POPC   NC340079   1.479  44.529   9.441
 3030POPC   PO440080   0.961  44.952   9.571
 3030POPC   GL140081   1.050  44.743   9.144
 3030POPC   GL240082   0.887  44.414   9.039
 3030POPC   C1A40083   1.362  44.606   8.802
 3030POPC   D2A40084   1.413  44.386   8.376
 3030POPC   C3A40085   1.153  44.475   8.016
 3030POPC   C4A40086   1.415  44.686   7.716
 3030POPC   C1B40087   0.914  44.547   8.582
 3030POPC   C2B40088   0.778  44.832   8.231
 3030POPC   C3B40089   0.900  44.862   7.779
 3030POPC   C4B40090   0.827  44.507   7.513
 3031POPC   NC340091  42.598  18.155   9.912
 3031POPC   PO440092  41.964  18.224   9.644
 3031POPC   GL140093  42.185  18.195   9.166
 3031POPC   GL240094  42.033  17.937   8.930
 3031POPC   C1A40095  42.388  18.495   8.832
 3031POPC   D2A40096  42.645  18.554   8.453
 3031POPC   C3A40097  42.450  18.518   8.032
 3031POPC   C4A40098  42.128  18.626   7.734
 3031POPC   C1B40099  42.421  17.992   8.704
 3031POPC   C2B40100  42.462  18.066   8.259
 3031POPC   C3B40101  42.093  18.142   7.968
 3031POPC   C4B40102  42.035  18.145   7.510
 3032POPC   NC340103  36.437  29.714   9.410
 3032POPC   PO440104  35.710  29.927   9.448
 3032POPC   GL140105  36.016  29.857   9.147
 3032POPC   GL240106  36.085  30.151   9.082
 3032POPC   C1A40107  36.112  29.817   8.696
 3032POPC   D2A40108  35.885  29.618   8.337
 3032POPC   C3A40109  36.053  29.737   7.937
 3032POPC   C4A40110  36.048  29.751   7.494
 3032POPC   C1B40111  36.148  30.342   8.730
 3032POPC   C2B40112  36.306  30.223   8.325
 3032POPC   C3B40113  36.112  30.240   7.915
 3032POPC   C4B40114  35.901  30.523   7.642
 3033POPC   NC340115   0.931  23.718   9.565
 3033POPC   PO440116   1.075  23.068   9.719
 3033POPC   GL140117   1.297  22.974   9.267
 3033POPC   GL240118   1.057  22.851   9.047
 3033POPC   C1A40119   1.524  22.938   8.844
 3033POPC   D2A40120   1.247  22.836   8.525
 3033POPC   C3A40121   1.359  22.752   8.129
 3033POPC   C4A40122   1.195  22.630   7.741
 3033POPC   C1B40123   1.185  23.296   8.910
 3033POPC   C2B40124   1.310  23.461   8.510
 3033POPC   C3B40125   1.213  23.234   8.143
 3033POPC   C4B40126   1.153  23.127   7.708
 3034POPC   NC340127  21.911  32.946   9.597
 3034POPC   PO440128  22.375  33.451   9.521
 3034POPC   GL140129  22.181  33.151   9.211
 3034POPC   GL240130  22.167  32.777   9.178
 3034POPC   C1A40131  21.980  33.165   8.820
 3034POPC   D2A40132  22.233  33.182   8.452
 3034POPC   C3A40133  22.038  33.119   8.049
 3034POPC   C4A40134  22.348  33.133   7.747
 3034POPC   C1B40135  22.171  32.666   8.734
 3034POPC   C2B40136  22.264  32.686   8.293
 3034POPC   C3B40137  22.243  32.652   7.871
 3034POPC   C4B40138  22.481  32.671   7.492
 3035POPC   NC340139  23.216  43.577   9.262
 3035POPC   PO440140  22.810  44.041   9.584
 3035POPC   GL140141  22.949  44.003   9.173
 3035POPC   GL240142  23.076  44.316   9.028
 3035POPC   C1A40143  22.954  43.857   8.760
 3035POPC   D2A40144  22.661  43.882   8.476
 3035POPC   C3A40145  22.863  43.815   8.114
 3035POPC   C4A40146  22.866  43.474   7.791
 3035POPC   C1B40147  22.648  44.264   8.863
 3035POPC   C2B40148  22.492  44.361   8.441
 3035POPC   C3B40149  22.709  44.439   8.088
 3035POPC   C4B40150  22.805  44.161   7.732
 3036POPC   NC340151  42.393  28.674   9.544
 3036POPC   PO440152  42.658  28.042   9.399
 3036POPC   GL140153  42.581  28.421   9.120
 3036POPC   GL240154  42.215  28.543   9.095
 3036POPC   C1A40155  42.651  28.326   8.673
 3036POPC   D2A40156  42.629  28.006   8.406
 3036POPC   C3A40157  42.388  28.156   8.017
 3036POPC   C4A40158  42.526  28.446   7.707
 3036POPC   C1B40159  42.369  28.738   8.707
 3036POPC   C2B40160  42.384  28.634   8.249
 3036POPC   C3B40161  42.267  28.853   7.858
 3036POPC   C4B40162  42.233  28.766   7.425
 3037POPC   NC340163  29.351  23.126   9.493
 3037POPC   PO440164  28.668  23.132   9.394
 3037POPC   GL140165  28.894  22.893   9.089
 3037POPC   GL240166  29.276  22.854   9.077
 3037POPC   C1A40167  28.984  22.707   8.690
 3037POPC   D2A40168  29.238  22.545   8.368
 3037POPC   C3A40169  29.027  22.527   7.963
 3037POPC   C4A40170  29.214  22.681   7.578
 3037POPC   C1B40171  29.212  23.164   8.783
 3037POPC   C2B40172  29.381  23.090   8.388
 3037POPC   C3B40173  29.192  23.015   8.007
 3037POPC   C4B40174  29.138  23.310   7.685
 3038POPC   NC340175  18.790   4.646   9.519
 3038POPC   PO440176  19.313   4.454   9.419
 3038POPC   GL140177  19.188   4.071   9.189
 3038POPC   GL240178  19.458   3.865   9.050
 3038POPC   C1A40179  18.990   4.016   8.790
 3038POPC   D2A40180  19.103   4.132   8.357
 3038POPC   C3A40181  18.807   4.140   8.015
 3038POPC   C4A40182  18.815   4.482   7.733
 3038POPC   C1B40183  19.462   4.200   8.713
 3038POPC   C2B40184  19.540   4.444   8.323
 3038POPC   C3B40185  19.509   4.658   7.931
 3038POPC   C4B40186  19.318   4.399   7.671
 3039POPC   NC340187  38.642   0.240   9.457
 3039POPC   PO440188  38.331   0.916   9.596
 3039POPC   GL140189  38.267   0.570   9.276
 3039POPC   GL240190  38.555   0.579   9.081
 3039POPC   C1A40191  38.186   0.313   8.874
 3039POPC   D2A40192  38.130   0.400   8.433
 3039POPC   C3A40193  38.501   0.358   8.138
 3039POPC   C4A40194  38.468   0.295   7.694
 3039POPC   C1B40195  38.666   0.433   8.663
 3039POPC   C2B40196  38.887   0.660   8.358
 3039POPC   C3B40197  38.828   0.834   7.971
 3039POPC   C4B40198  38.845   0.629   7.589
 3040POPC   NC340199  39.986  35.145   9.453
 3040POPC   PO440200  40.015  35.751   9.261
 3040POPC   GL140201  40.074  35.534   8.966
 3040POPC   GL240202  40.204  35.242   8.994
 3040POPC   C1A40203  40.003  35.480   8.569
 3040POPC   D2A40204  39.899  35.706   8.259
 3040POPC   C3A40205  39.861  35.530   7.921
 3040POPC   C4A40206  40.263  35.323   7.883
 3040POPC   C1B40207  39.713  35.193   8.871
 3040POPC   C2B40208  39.577  35.013   8.503
 3040POPC   C3B40209  39.883  35.123   8.212
 3040POPC   C4B40210  39.854  35.038   7.797
 3041POPC   NC340211  20.064   1.171   9.552
 3041POPC   PO440212  19.424   1.425   9.610
 3041POPC   GL140213  19.618   1.393   9.227
 3041POPC   GL240214  19.568   1.063   9.174
 3041POPC   C1A40215  19.930   1.266   8.890
 3041POPC   D2A40216  20.028   0.923   8.597
 3041POPC   C3A40217  20.080   1.090   8.182
 3041POPC   C4A40218  19.905   1.109   7.761
 3041POPC   C1B40219  19.420   1.196   8.786
 3041POPC   C2B40220  19.603   1.110   8.404
 3041POPC   C3B40221  19.449   1.118   8.019
 3041POPC   C4B40222  19.453   1.355   7.659
 3042POPC   NC340223  39.482  32.278   9.435
 3042POPC   PO440224  38.863  32.371   9.575
 3042POPC   GL140225  38.999  32.253   9.147
 3042POPC   GL240226  39.358  32.280   8.953
 3042POPC   C1A40227  38.940  32.168   8.707
 3042POPC   D2A40228  39.207  32.111   8.350
 3042POPC   C3A40229  38.968  32.145   7.952
 3042POPC   C4A40230  38.892  32.455   7.644
 3042POPC   C1B40231  39.710  32.153   8.662
 3042POPC   C2B40232  39.734  31.916   8.284
 3042POPC   C3B40233  39.498  32.028   7.908
 3042POPC   C4B40234  39.333  32.190   7.543
 3043POPC   NC340235  25.202  24.986   9.539
 3043POPC   PO440236  25.631  25.418   9.715
 3043POPC   GL140237  25.584  25.499   9.235
 3043POPC   GL240238  25.266  25.393   9.178
 3043POPC   C1A40239  25.550  25.320   8.769
 3043POPC   D2A40240  25.253  25.186   8.420
 3043POPC   C3A40241  25.344  25.007   8.013
 3043POPC   C4A40242  25.202  25.106   7.597
 3043POPC   C1B40243  25.000  25.152   8.885
 3043POPC   C2B40244  24.902  24.784   8.628
 3043POPC   C3B40245  24.929  24.677   8.183
 3043POPC   C4B40246  24.898  24.732   7.752
 3044POPC   NC340247  26.501  16.050   9.598
 3044POPC   PO440248  26.956  15.592   9.290
 3044POPC   GL140249  26.713  15.880   9.164
 3044POPC   GL240250  26.362  15.745   9.214
 3044POPC   C1A40251  26.831  16.089   8.783
 3044POPC   D2A40252  27.015  16.209   8.363
 3044POPC   C3A40253  27.099  15.884   8.042
 3044POPC   C4A40254  26.945  15.924   7.605
 3044POPC   C1B40255  26.446  15.662   8.776
 3044POPC   C2B40256  26.753  15.673   8.443
 3044POPC   C3B40257  26.629  15.735   8.036
 3044POPC   C4B40258  26.444  15.882   7.722
 3045POPC   NC340259  27.684  29.161   9.528
 3045POPC   PO440260  27.407  29.743   9.473
 3045POPC   GL140261  27.435  29.387   9.102
 3045POPC   GL240262  27.619  29.017   9.066
 3045POPC   C1A40263  27.411  29.221   8.666
 3045POPC   D2A40264  27.347  28.940   8.315
 3045POPC   C3A40265  27.408  29.176   7.924
 3045POPC   C4A40266  27.609  29.123   7.520
 3045POPC   C1B40267  27.900  29.085   8.712
 3045POPC   C2B40268  27.795  29.193   8.282
 3045POPC   C3B40269  27.948  29.299   7.866
 3045POPC   C4B40270  28.156  29.461   7.465
 3046POPC   NC340271  19.181  38.728   9.315
 3046POPC   PO440272  18.687  38.460   9.811
 3046POPC   GL140273  18.880  38.313   9.375
 3046POPC   GL240274  19.202  38.176   9.295
 3046POPC   C1A40275  18.860  38.317   8.873
 3046POPC   D2A40276  18.694  38.310   8.419
 3046POPC   C3A40277  18.904  38.526   8.062
 3046POPC   C4A40278  19.079  38.849   7.771
 3046POPC   C1B40279  19.373  38.202   8.862
 3046POPC   C2B40280  19.243  38.349   8.435
 3046POPC   C3B40281  19.408  38.441   7.999
 3046POPC   C4B40282  19.340  38.418   7.525
 3047POPC   NC340283  19.749  40.307   9.557
 3047POPC   PO440284  19.779  41.009   9.492
 3047POPC   GL140285  19.841  40.634   9.172
 3047POPC   GL240286  19.603  40.351   9.096
 3047POPC   C1A40287  20.012  40.448   8.790
 3047POPC   D2A40288  20.089  40.678   8.416
 3047POPC   C3A40289  19.985  40.562   8.012
 3047POPC   C4A40290  19.807  40.850   7.742
 3047POPC   C1B40291  19.502  40.521   8.742
 3047POPC   C2B40292  19.654  40.374   8.370
 3047POPC   C3B40293  19.449  40.515   8.039
 3047POPC   C4B40294  19.437  40.532   7.636
 3048POPC   NC340295  16.385  39.677   9.536
 3048POPC   PO440296  15.733  39.907   9.491
 3048POPC   GL140297  15.920  40.033   9.125
 3048POPC   GL240298  15.625  40.235   9.054
 3048POPC   C1A40299  16.244  39.883   8.823
 3048POPC   D2A40300  16.366  39.990   8.400
 3048POPC   C3A40301  16.247  39.834   7.992
 3048POPC   C4A40302  15.949  40.004   7.713
 3048POPC   C1B40303  15.651  40.053   8.660
 3048POPC   C2B40304  15.783  40.022   8.236
 3048POPC   C3B40305  15.594  40.321   7.949
 3048POPC   C4B40306  15.741  40.531   7.600
 3049POPC   NC340307  21.164  42.502   9.604
 3049POPC   PO440308  21.856  42.714   9.532
 3049POPC   GL140309  21.612  42.439   9.243
 3049POPC   GL240310  21.255  42.489   9.096
 3049POPC   C1A40311  21.658  42.341   8.803
 3049POPC   D2A40312  21.783  42.182   8.408
 3049POPC   C3A40313  21.626  42.403   8.079
 3049POPC   C4A40314  21.279  42.315   7.807
 3049POPC   C1B40315  21.241  42.615   8.648
 3049POPC   C2B40316  21.143  42.578   8.220
 3049POPC   C3B40317  21.140  42.805   7.824
 3049POPC   C4B40318  21.299  42.692   7.410
 3050POPC   NC340319  15.479   1.448   9.550
 3050POPC   PO440320  15.172   2.165   9.481
 3050POPC   GL140321  15.206   2.072   9.105
 3050POPC   GL240322  15.376   2.378   9.015
 3050POPC   C1A40323  14.991   1.890   8.747
 3050POPC   D2A40324  15.207   1.726   8.352
 3050POPC   C3A40325  15.126   1.977   7.978
 3050POPC   C4A40326  15.353   2.370   7.831
 3050POPC   C1B40327  15.461   2.084   8.676
 3050POPC   C2B40328  15.760   2.077   8.386
 3050POPC   C3B40329  15.625   1.957   8.006
 3050POPC   C4B40330  15.514   1.934   7.568
 3051POPC   NC340331  22.221  12.830   9.659
 3051POPC   PO440332  21.759  12.525   9.361
 3051POPC   GL140333  22.019  12.910   9.199
 3051POPC   GL240334  22.377  13.024   9.228
 3051POPC   C1A40335  22.085  13.209   8.867
 3051POPC   D2A40336  21.814  13.169   8.518
 3051POPC   C3A40337  21.867  12.800   8.259
 3051POPC   C4A40338  21.959  12.772   7.837
 3051POPC   C1B40339  22.442  12.593   9.008
 3051POPC   C2B40340  22.551  12.430   8.554
 3051POPC   C3B40341  22.434  12.570   8.104
 3051POPC   C4B40342  22.392  12.994   7.834
 3052POPC   NC340343  19.596  20.567   9.484
 3052POPC   PO440344  20.034  20.006   9.398
 3052POPC   GL140345  19.859  20.349   9.081
 3052POPC   GL240346  19.600  20.646   8.989
 3052POPC   C1A40347  19.896  20.395   8.632
 3052POPC   D2A40348  19.919  20.729   8.386
 3052POPC   C3A40349  19.771  20.693   7.953
 3052POPC   C4A40350  19.990  20.675   7.542
 3052POPC   C1B40351  19.426  20.257   8.797
 3052POPC   C2B40352  19.276  20.209   8.359
 3052POPC   C3B40353  19.325  20.414   7.955
 3052POPC   C4B40354  19.547  20.411   7.556
 3053POPC   NC340355   6.608   5.540   9.566
 3053POPC   PO440356   6.886   6.215   9.550
 3053POPC   GL140357   6.600   5.951   9.255
 3053POPC   GL240358   6.239   5.807   9.269
 3053POPC   C1A40359   6.553   5.951   8.815
 3053POPC   D2A40360   6.911   6.005   8.507
 3053POPC   C3A40361   6.777   5.895   8.104
 3053POPC   C4A40362   6.566   6.132   7.780
 3053POPC   C1B40363   6.139   5.596   8.846
 3053POPC   C2B40364   6.302   5.690   8.408
 3053POPC   C3B40365   6.402   5.554   7.973
 3053POPC   C4B40366   6.395   5.625   7.535
 3054POPC   NC340367  18.399  12.612   9.728
 3054POPC   PO440368  17.904  13.007   9.641
 3054POPC   GL140369  17.990  12.776   9.229
 3054POPC   GL240370  18.345  12.707   9.203
 3054POPC   C1A40371  18.014  12.589   8.783
 3054POPC   D2A40372  17.839  12.768   8.377
 3054POPC   C3A40373  18.122  12.765   8.001
 3054POPC   C4A40374  18.173  12.422   7.714
 3054POPC   C1B40375  18.575  12.613   8.814
 3054POPC   C2B40376  18.498  12.536   8.365
 3054POPC   C3B40377  18.635  12.637   7.932
 3054POPC   C4B40378  18.603  12.992   7.652
 3055POPC   NC340379  20.351  39.709   9.449
 3055POPC   PO440380  19.710  39.816   9.618
 3055POPC   GL140381  19.765  39.863   9.185
 3055POPC   GL240382  20.037  40.058   9.147
 3055POPC   C1A40383  19.695  40.003   8.739
 3055POPC   D2A40384  19.442  39.874   8.385
 3055POPC   C3A40385  19.471  40.007   7.964
 3055POPC   C4A40386  19.688  39.688   7.772
 3055POPC   C1B40387  20.223  39.935   8.773
 3055POPC   C2B40388  20.158  40.152   8.398
 3055POPC   C3B40389  19.975  40.051   8.040
 3055POPC   C4B40390  20.055  40.073   7.639
 3056POPC   NC340391  38.113  21.629   9.544
 3056POPC   PO440392  38.616  21.188   9.553
 3056POPC   GL140393  38.514  21.154   9.143
 3056POPC   GL240394  38.407  21.512   9.115
 3056POPC   C1A40395  38.729  21.219   8.761
 3056POPC   D2A40396  38.656  21.525   8.455
 3056POPC   C3A40397  38.552  21.405   8.033
 3056POPC   C4A40398  38.278  21.620   7.750
 3056POPC   C1B40399  38.232  21.726   8.741
 3056POPC   C2B40400  38.180  21.690   8.311
 3056POPC   C3B40401  37.881  21.709   8.025
 3056POPC   C4B40402  37.785  21.468   7.659
 3057POPC   NC340403  39.446  19.284   9.512
 3057POPC   PO440404  38.940  18.795   9.469
 3057POPC   GL140405  39.267  18.914   9.168
 3057POPC   GL240406  39.189  19.272   9.081
 3057POPC   C1A40407  39.212  18.920   8.731
 3057POPC   D2A40408  39.034  18.984   8.354
 3057POPC   C3A40409  39.314  18.761   8.094
 3057POPC   C4A40410  39.269  18.750   7.650
 3057POPC   C1B40411  39.198  19.455   8.664
 3057POPC   C2B40412  39.244  19.470   8.210
 3057POPC   C3B40413  39.292  19.204   7.858
 3057POPC   C4B40414  39.147  19.225   7.399
 3058POPC   NC340415  20.802  15.571   9.907
 3058POPC   PO440416  20.449  15.151   9.444
 3058POPC   GL140417  20.570  15.208   9.027
 3058POPC   GL240418  20.796  14.995   8.983
 3058POPC   C1A40419  20.531  15.526   8.704
 3058POPC   D2A40420  20.481  15.557   8.245
 3058POPC   C3A40421  20.855  15.405   8.074
 3058POPC   C4A40422  20.897  15.072   7.787
 3058POPC   C1B40423  20.515  14.858   8.641
 3058POPC   C2B40424  20.577  15.038   8.249
 3058POPC   C3B40425  20.394  15.172   7.879
 3058POPC   C4B40426  20.083  14.944   7.652
 3059POPC   NC340427  20.422  31.065   9.521
 3059POPC   PO440428  20.843  30.555   9.741
 3059POPC   GL140429  20.704  30.652   9.300
 3059POPC   GL240430  20.351  30.614   9.230
 3059POPC   C1A40431  20.725  30.626   8.832
 3059POPC   D2A40432  20.686  30.429   8.410
 3059POPC   C3A40433  20.801  30.715   8.073
 3059POPC   C4A40434  20.642  30.723   7.683
 3059POPC   C1B40435  20.174  30.492   8.814
 3059POPC   C2B40436  20.061  30.501   8.360
 3059POPC   C3B40437  20.357  30.430   8.006
 3059POPC   C4B40438  20.309  30.348   7.565
 3060POPC   NC340439   7.877  11.945   9.302
 3060POPC   PO440440   7.470  11.580   9.610
 3060POPC   GL140441   7.575  11.422   9.203
 3060POPC   GL240442   7.904  11.469   9.151
 3060POPC   C1A40443   7.486  11.199   8.793
 3060POPC   D2A40444   7.211  11.309   8.425
 3060POPC   C3A40445   7.384  11.211   8.010
 3060POPC   C4A40446   7.632  11.153   7.617
 3060POPC   C1B40447   7.740  11.644   8.755
 3060POPC   C2B40448   7.705  11.445   8.379
 3060POPC   C3B40449   7.889  11.340   8.016
 3060POPC   C4B40450   7.800  11.617   7.732
 3061POPC   NC340451  16.461  42.418   9.523
 3061POPC   PO440452  16.511  41.818   9.219
 3061POPC   GL140453  16.537  42.239   9.027
 3061POPC   GL240454  16.371  42.578   9.042
 3061POPC   C1A40455  16.761  42.272   8.626
 3061POPC   D2A40456  17.110  42.213   8.320
 3061POPC   C3A40457  16.865  42.274   7.971
 3061POPC   C4A40458  16.431  42.326   7.863
 3061POPC   C1B40459  16.774  42.705   8.893
 3061POPC   C2B40460  16.978  42.744   8.501
 3061POPC   C3B40461  17.015  42.818   8.073
 3061POPC   C4B40462  16.972  42.664   7.663
 3062POPC   NC340463  32.123  10.772   9.566
 3062POPC   PO440464  32.416  10.106   9.613
 3062POPC   GL140465  32.353  10.469   9.232
 3062POPC   GL240466  31.999  10.542   9.138
 3062POPC   C1A40467  32.456  10.636   8.844
 3062POPC   D2A40468  32.241  10.751   8.495
 3062POPC   C3A40469  32.332  10.785   8.056
 3062POPC   C4A40470  32.668  10.706   7.766
 3062POPC   C1B40471  32.054  10.325   8.772
 3062POPC   C2B40472  32.163  10.134   8.411
 3062POPC   C3B40473  32.174  10.294   8.042
 3062POPC   C4B40474  32.233  10.460   7.671
 3063POPC   NC340475  42.918  37.792   9.273
 3063POPC   PO440476  43.132  38.380   9.538
 3063POPC   GL140477  43.214  38.645   9.145
 3063POPC   GL240478  43.566  38.699   9.228
 3063POPC   C1A40479  43.186  38.607   8.675
 3063POPC   D2A40480  43.037  38.365   8.324
 3063POPC   C3A40481  43.201  38.534   7.942
 3063POPC   C4A40482  43.365  38.349   7.561
 3063POPC   C1B40483  43.566  38.370   8.890
 3063POPC   C2B40484  43.354  38.079   8.641
 3063POPC   C3B40485  43.457  37.808   8.302
 3063POPC   C4B40486  43.570  38.008   7.898
 3064POPC   NC340487   6.967   4.971   9.272
 3064POPC   PO440488   7.417   4.542   9.568
 3064POPC   GL140489   7.409   4.363   9.191
 3064POPC   GL240490   7.119   4.509   9.126
 3064POPC   C1A40491   7.335   4.242   8.756
 3064POPC   D2A40492   7.587   4.284   8.400
 3064POPC   C3A40493   7.512   4.012   8.091
 3064POPC   C4A40494   7.641   4.156   7.704
 3064POPC   C1B40495   6.921   4.580   8.735
 3064POPC   C2B40496   7.124   4.533   8.354
 3064POPC   C3B40497   7.344   4.495   7.971
 3064POPC   C4B40498   7.255   4.732   7.629
 3065POPC   NC340499  25.918   3.418   9.556
 3065POPC   PO440500  26.538   3.132   9.360
 3065POPC   GL140501  26.217   3.411   9.099
 3065POPC   GL240502  25.845   3.431   9.069
 3065POPC   C1A40503  26.099   3.735   8.776
 3065POPC   D2A40504  25.874   3.635   8.380
 3065POPC   C3A40505  26.156   3.692   8.065
 3065POPC   C4A40506  26.201   3.571   7.650
 3065POPC   C1B40507  25.631   3.322   8.702
 3065POPC   C2B40508  25.480   3.191   8.287
 3065POPC   C3B40509  25.669   3.353   7.892
 3065POPC   C4B40510  25.731   3.454   7.440
 3066POPC   NC340511  44.739  16.252   9.446
 3066POPC   PO440512  44.584  15.645   9.586
 3066POPC   GL140513  44.569  15.839   9.161
 3066POPC   GL240514  44.439  16.186   9.032
 3066POPC   C1A40515  44.641  15.854   8.713
 3066POPC   D2A40516  44.374  16.085   8.447
 3066POPC   C3A40517  44.498  16.003   8.020
 3066POPC   C4A40518  44.832  15.873   7.745
 3066POPC   C1B40519  44.814  16.321   8.786
 3066POPC   C2B40520  44.863  16.201   8.365
 3066POPC   C3B40521   0.067  16.253   7.983
 3066POPC   C4B40522  44.940  16.439   7.633
 3067POPC   NC340523   6.482  44.872   9.472
 3067POPC   PO440524   6.900  44.482   9.674
 3067POPC   GL140525   6.753  44.434   9.254
 3067POPC   GL240526   6.432  44.516   9.128
 3067POPC   C1A40527   6.891  44.682   8.896
 3067POPC   D2A40528   6.836  44.922   8.518
 3067POPC   C3A40529   6.877  44.770   8.090
 3067POPC   C4A40530   6.788  44.902   7.664
 3067POPC   C1B40531   6.398  44.753   8.778
 3067POPC   C2B40532   6.350  44.800   8.371
 3067POPC   C3B40533   6.360  44.793   7.950
 3067POPC   C4B40534   6.185  44.547   7.644
 3068POPC   NC340535  23.058  39.660   9.698
 3068POPC   PO440536  23.180  39.006   9.513
 3068POPC   GL140537  22.841  39.155   9.225
 3068POPC   GL240538  22.829  39.490   9.227
 3068POPC   C1A40539  22.637  39.075   8.838
 3068POPC   D2A40540  22.755  39.192   8.450
 3068POPC   C3A40541  22.722  38.914   8.115
 3068POPC   C4A40542  22.990  39.046   7.829
 3068POPC   C1B40543  22.961  39.592   8.828
 3068POPC   C2B40544  22.895  39.724   8.409
 3068POPC   C3B40545  22.897  39.513   8.037
 3068POPC   C4B40546  22.626  39.487   7.714
 3069POPC   NC340547  23.076  35.983   9.573
 3069POPC   PO440548  22.533  36.370   9.434
 3069POPC   GL140549  22.742  36.048   9.180
 3069POPC   GL240550  23.077  35.906   9.086
 3069POPC   C1A40551  22.668  35.968   8.778
 3069POPC   D2A40552  22.850  36.127   8.446
 3069POPC   C3A40553  22.793  35.972   8.038
 3069POPC   C4A40554  22.742  36.217   7.673
 3069POPC   C1B40555  23.264  35.957   8.698
 3069POPC   C2B40556  23.311  35.999   8.265
 3069POPC   C3B40557  23.466  36.208   7.928
 3069POPC   C4B40558  23.193  36.003   7.710
 3070POPC   NC340559   9.916  13.861   9.369
 3070POPC   PO440560   9.738  14.450   9.667
 3070POPC   GL140561   9.769  14.348   9.219
 3070POPC   GL240562   9.485  14.072   9.163
 3070POPC   C1A40563   9.885  14.594   8.821
 3070POPC   D2A40564   9.675  14.539   8.424
 3070POPC   C3A40565   9.737  14.675   8.030
 3070POPC   C4A40566  10.093  14.866   7.878
 3070POPC   C1B40567   9.658  14.145   8.758
 3070POPC   C2B40568   9.652  14.039   8.339
 3070POPC   C3B40569   9.667  13.937   7.944
 3070POPC   C4B40570   9.703  13.972   7.520
 3071POPC   NC340571  10.869   2.332   9.384
 3071POPC   PO440572  11.450   2.024   9.631
 3071POPC   GL140573  11.432   1.924   9.207
 3071POPC   GL240574  11.346   2.226   9.124
 3071POPC   C1A40575  11.251   1.829   8.794
 3071POPC   D2A40576  11.116   1.956   8.393
 3071POPC   C3A40577  11.337   1.775   8.052
 3071POPC   C4A40578  11.241   1.910   7.656
 3071POPC   C1B40579  11.321   2.404   8.691
 3071POPC   C2B40580  11.281   2.423   8.236
 3071POPC   C3B40581  11.254   2.418   7.791
 3071POPC   C4B40582  11.576   2.276   7.485
 3072POPC   NC340583  27.744  37.912   9.723
 3072POPC   PO440584  27.445  37.357   9.587
 3072POPC   GL140585  27.580  37.650   9.288
 3072POPC   GL240586  27.305  37.554   9.094
 3072POPC   C1A40587  27.747  37.677   8.869
 3072POPC   D2A40588  27.726  37.962   8.547
 3072POPC   C3A40589  27.800  37.925   8.112
 3072POPC   C4A40590  27.718  37.631   7.836
 3072POPC   C1B40591  27.273  37.653   8.675
 3072POPC   C2B40592  27.488  37.549   8.308
 3072POPC   C3B40593  27.277  37.390   7.967
 3072POPC   C4B40594  27.252  37.524   7.597
 3073POPC   NC340595  15.615  36.576   9.518
 3073POPC   PO440596  15.053  36.897   9.567
 3073POPC   GL140597  15.110  37.063   9.185
 3073POPC   GL240598  15.462  36.999   9.214
 3073POPC   C1A40599  15.016  36.997   8.778
 3073POPC   D2A40600  15.160  37.127   8.383
 3073POPC   C3A40601  15.202  36.794   8.122
 3073POPC   C4A40602  14.937  36.818   7.807
 3073POPC   C1B40603  15.528  37.108   8.797
 3073POPC   C2B40604  15.631  36.944   8.377
 3073POPC   C3B40605  15.582  37.103   7.960
 3073POPC   C4B40606  15.466  36.788   7.659
 3074POPC   NC340607  18.529  17.005   9.437
 3074POPC   PO440608  18.024  16.556   9.566
 3074POPC   GL140609  18.232  16.664   9.185
 3074POPC   GL240610  18.389  16.358   9.064
 3074POPC   C1A40611  18.371  16.840   8.779
 3074POPC   D2A40612  18.502  16.750   8.381
 3074POPC   C3A40613  18.385  16.967   8.004
 3074POPC   C4A40614  18.474  16.783   7.629
 3074POPC   C1B40615  18.063  16.385   8.789
 3074POPC   C2B40616  18.038  16.510   8.389
 3074POPC   C3B40617  18.227  16.478   8.012
 3074POPC   C4B40618  18.065  16.501   7.606
 3075POPC   NC340619   6.141  11.840   9.791
 3075POPC   PO440620   5.604  12.268   9.584
 3075POPC   GL140621   5.745  12.290   9.155
 3075POPC   GL240622   5.978  12.012   9.149
 3075POPC   C1A40623   5.689  12.121   8.741
 3075POPC   D2A40624   5.899  12.115   8.358
 3075POPC   C3A40625   5.600  12.079   8.064
 3075POPC   C4A40626   5.543  11.949   7.647
 3075POPC   C1B40627   6.123  11.810   8.760
 3075POPC   C2B40628   6.412  11.938   8.444
 3075POPC   C3B40629   6.265  11.932   8.030
 3075POPC   C4B40630   6.081  12.005   7.622
 3076POPC   NC340631   6.441  30.858   9.578
 3076POPC   PO440632   6.717  30.242   9.568
 3076POPC   GL140633   6.610  30.511   9.196
 3076POPC   GL240634   6.361  30.764   9.099
 3076POPC   C1A40635   6.776  30.668   8.788
 3076POPC   D2A40636   6.792  30.890   8.400
 3076POPC   C3A40637   6.730  30.635   8.027
 3076POPC   C4A40638   6.801  30.276   7.738
 3076POPC   C1B40639   6.335  30.920   8.681
 3076POPC   C2B40640   6.336  30.641   8.361
 3076POPC   C3B40641   6.225  30.733   7.958
 3076POPC   C4B40642   6.422  30.637   7.589
 3077POPC   NC340643  40.981  40.585   9.513
 3077POPC   PO440644  40.615  41.082   9.462
 3077POPC   GL140645  40.876  40.939   9.152
 3077POPC   GL240646  40.641  40.678   9.080
 3077POPC   C1A40647  40.925  40.918   8.721
 3077POPC   D2A40648  40.879  40.751   8.335
 3077POPC   C3A40649  40.841  40.965   7.965
 3077POPC   C4A40650  41.187  41.000   7.744
 3077POPC   C1B40651  40.416  40.529   8.720
 3077POPC   C2B40652  40.532  40.396   8.313
 3077POPC   C3B40653  40.796  40.425   7.957
 3077POPC   C4B40654  40.581  40.611   7.632
 3078POPC   NC340655  35.972   7.439   9.411
 3078POPC   PO440656  35.915   8.195   9.523
 3078POPC   GL140657  35.781   7.906   9.133
 3078POPC   GL240658  35.672   7.539   9.017
 3078POPC   C1A40659  36.036   7.772   8.746
 3078POPC   D2A40660  36.143   7.539   8.351
 3078POPC   C3A40661  35.926   7.607   7.990
 3078POPC   C4A40662  36.185   7.514   7.601
 3078POPC   C1B40663  35.900   7.269   8.716
 3078POPC   C2B40664  35.759   7.196   8.287
 3078POPC   C3B40665  35.962   7.128   7.902
 3078POPC   C4B40666  36.038   7.030   7.473
 3079POPC   NC340667  14.663   1.204   9.575
 3079POPC   PO440668  14.047   0.881   9.579
 3079POPC   GL140669  14.141   1.135   9.160
 3079POPC   GL240670  14.514   1.125   9.112
 3079POPC   C1A40671  14.288   1.216   8.684
 3079POPC   D2A40672  14.538   1.133   8.272
 3079POPC   C3A40673  14.335   0.921   7.908
 3079POPC   C4A40674  14.142   1.032   7.515
 3079POPC   C1B40675  14.743   1.420   8.828
 3079POPC   C2B40676  14.709   1.600   8.437
 3079POPC   C3B40677  14.796   1.567   8.004
 3079POPC   C4B40678  14.477   1.399   7.728
 3080POPC   NC340679  32.587  25.003   9.268
 3080POPC   PO440680  32.050  24.721   9.649
 3080POPC   GL140681  32.184  24.666   9.235
 3080POPC   GL240682  32.238  24.311   9.184
 3080POPC   C1A40683  32.140  24.645   8.781
 3080POPC   D2A40684  32.319  24.813   8.386
 3080POPC   C3A40685  32.020  24.740   8.064
 3080POPC   C4A40686  32.087  24.426   7.794
 3080POPC   C1B40687  32.496  24.276   8.859
 3080POPC   C2B40688  32.413  24.285   8.422
 3080POPC   C3B40689  32.457  24.148   8.010
 3080POPC   C4B40690  32.605  24.291   7.620
 3081POPC   NC340691  28.101  24.110   9.551
 3081POPC   PO440692  28.169  24.773   9.713
 3081POPC   GL140693  28.171  24.453   9.226
 3081POPC   GL240694  28.499  24.374   9.023
 3081POPC   C1A40695  28.059  24.298   8.801
 3081POPC   D2A40696  28.326  24.184   8.457
 3081POPC   C3A40697  28.297  24.336   8.029
 3081POPC   C4A40698  28.053  24.212   7.662
 3081POPC   C1B40699  28.476  24.634   8.645
 3081POPC   C2B40700  28.618  24.757   8.234
 3081POPC   C3B40701  28.498  24.867   7.815
 3081POPC   C4B40702  28.365  24.561   7.521
 3082POPC   NC340703   1.027  29.640   9.841
 3082POPC   PO440704   0.951  30.234   9.477
 3082POPC   GL140705   1.228  30.131   9.121
 3082POPC   GL240706   1.569  29.979   9.195
 3082POPC   C1A40707   1.116  29.968   8.707
 3082POPC   D2A40708   0.941  30.069   8.284
 3082POPC   C3A40709   1.209  29.967   7.911
 3082POPC   C4A40710   1.076  29.771   7.481
 3082POPC   C1B40711   1.622  29.862   8.750
 3082POPC   C2B40712   1.471  29.827   8.334
 3082POPC   C3B40713   1.592  29.617   7.970
 3082POPC   C4B40714   1.589  29.790   7.559
 3083POPC   NC340715  31.526  21.851   9.711
 3083POPC   PO440716  31.596  21.212   9.397
 3083POPC   GL140717  31.514  21.278   9.005
 3083POPC   GL240718  31.795  21.482   8.859
 3083POPC   C1A40719  31.202  21.131   8.712
 3083POPC   D2A40720  31.031  21.303   8.350
 3083POPC   C3A40721  31.167  21.370   7.917
 3083POPC   C4A40722  31.089  21.281   7.466
 3083POPC   C1B40723  31.424  21.579   8.616
 3083POPC   C2B40724  31.344  21.737   8.278
 3083POPC   C3B40725  31.293  21.998   7.999
 3083POPC   C4B40726  31.254  21.776   7.625
 3084POPC   NC340727  11.578  16.046   9.454
 3084POPC   PO440728  11.047  15.621   9.425
 3084POPC   GL140729  11.216  15.971   9.115
 3084POPC   GL240730  11.542  15.840   8.964
 3084POPC   C1A40731  11.312  16.260   8.763
 3084POPC   D2A40732  11.605  16.198   8.408
 3084POPC   C3A40733  11.437  16.059   8.024
 3084POPC   C4A40734  11.021  16.227   7.972
 3084POPC   C1B40735  11.197  15.729   8.688
 3084POPC   C2B40736  11.026  15.893   8.356
 3084POPC   C3B40737  11.009  15.647   8.008
 3084POPC   C4B40738  11.318  15.643   7.705
 3085POPC   NC340739  38.140  14.815   9.516
 3085POPC   PO440740  37.394  14.950   9.567
 3085POPC   GL140741  37.588  15.109   9.185
 3085POPC   GL240742  37.868  14.943   9.127
 3085POPC   C1A40743  37.749  15.269   8.764
 3085POPC   D2A40744  37.975  15.249   8.344
 3085POPC   C3A40745  37.683  15.250   8.030
 3085POPC   C4A40746  37.396  15.558   7.894
 3085POPC   C1B40747  38.056  14.861   8.708
 3085POPC   C2B40748  37.923  14.750   8.298
 3085POPC   C3B40749  38.058  14.914   7.898
 3085POPC   C4B40750  38.240  15.254   7.629
 3086POPC   NC340751  13.380  12.684   9.664
 3086POPC   PO440752  13.862  13.109   9.556
 3086POPC   GL140753  13.889  12.893   9.158
 3086POPC   GL240754  13.604  12.683   9.192
 3086POPC   C1A40755  13.849  12.884   8.715
 3086POPC   D2A40756  13.582  12.821   8.386
 3086POPC   C3A40757  13.569  12.993   8.031
 3086POPC   C4A40758  13.886  12.952   7.802
 3086POPC   C1B40759  13.370  12.697   8.824
 3086POPC   C2B40760  13.192  12.475   8.454
 3086POPC   C3B40761  13.208  12.572   8.047
 3086POPC   C4B40762  13.377  12.688   7.683
 3087POPC   NC340763  42.681  17.518   9.578
 3087POPC   PO440764  43.381  17.702   9.573
 3087POPC   GL140765  43.130  17.706   9.234
 3087POPC   GL240766  43.038  17.390   9.150
 3087POPC   C1A40767  43.275  17.719   8.781
 3087POPC   D2A40768  43.182  17.396   8.481
 3087POPC   C3A40769  43.292  17.373   8.047
 3087POPC   C4A40770  43.051  17.214   7.695
 3087POPC   C1B40771  42.778  17.662   8.861
 3087POPC   C2B40772  42.723  17.646   8.400
 3087POPC   C3B40773  42.840  17.623   7.946
 3087POPC   C4B40774  42.688  17.537   7.499
 3088POPC   NC340775  31.959  23.339   9.728
 3088POPC   PO440776  32.309  22.762   9.545
 3088POPC   GL140777  32.236  22.731   9.150
 3088POPC   GL240778  32.569  22.589   9.064
 3088POPC   C1A40779  31.982  22.880   8.822
 3088POPC   D2A40780  32.161  22.913   8.422
 3088POPC   C3A40781  32.009  22.721   8.067
 3088POPC   C4A40782  32.079  23.012   7.753
 3088POPC   C1B40783  32.531  22.953   8.802
 3088POPC   C2B40784  32.643  23.060   8.420
 3088POPC   C3B40785  32.506  23.039   8.039
 3088POPC   C4B40786  32.713  23.027   7.649
 3089POPC   NC340787  34.153  37.167   9.797
 3089POPC   PO440788  34.423  36.694   9.420
 3089POPC   GL140789  34.591  36.994   9.128
 3089POPC   GL240790  34.616  36.715   8.953
 3089POPC   C1A40791  34.517  37.269   8.752
 3089POPC   D2A40792  34.346  37.333   8.309
 3089POPC   C3A40793  34.645  37.329   7.940
 3089POPC   C4A40794  34.683  37.097   7.518
 3089POPC   C1B40795  34.585  36.774   8.584
 3089POPC   C2B40796  34.712  36.631   8.229
 3089POPC   C3B40797  34.525  36.832   7.908
 3089POPC   C4B40798  34.414  36.675   7.466
 3090POPC   NC340799   9.842   6.505   9.660
 3090POPC   PO440800   9.553   7.058   9.730
 3090POPC   GL140801   9.762   6.864   9.288
 3090POPC   GL240802   9.571   6.543   9.184
 3090POPC   C1A40803   9.967   6.683   8.840
 3090POPC   D2A40804   9.914   6.460   8.372
 3090POPC   C3A40805   9.773   6.680   7.947
 3090POPC   C4A40806   9.497   6.739   7.557
 3090POPC   C1B40807   9.629   6.282   8.784
 3090POPC   C2B40808   9.476   6.130   8.406
 3090POPC   C3B40809   9.553   6.208   7.998
 3090POPC   C4B40810   9.880   6.154   7.750
 3091POPC   NC340811  19.574  31.281   9.528
 3091POPC   PO440812  20.117  31.716   9.681
 3091POPC   GL140813  19.953  31.493   9.311
 3091POPC   GL240814  19.616  31.653   9.172
 3091POPC   C1A40815  19.938  31.338   8.892
 3091POPC   D2A40816  19.800  31.560   8.519
 3091POPC   C3A40817  20.043  31.630   8.131
 3091POPC   C4A40818  19.922  31.739   7.710
 3091POPC   C1B40819  19.425  31.365   8.848
 3091POPC   C2B40820  19.316  31.444   8.414
 3091POPC   C3B40821  19.549  31.510   8.053
 3091POPC   C4B40822  19.625  31.267   7.722
 3092POPC   NC340823   5.931  44.434   9.695
 3092POPC   PO440824   5.856   0.012   9.671
 3092POPC   GL140825   5.954  44.729   9.276
 3092POPC   GL240826   5.648  44.500   9.145
 3092POPC   C1A40827   5.899  44.798   8.830
 3092POPC   D2A40828   5.958   0.139   8.557
 3092POPC   C3A40829   5.925   0.004   8.150
 3092POPC   C4A40830   5.953   0.051   7.724
 3092POPC   C1B40831   5.653  44.346   8.727
 3092POPC   C2B40832   5.936  44.477   8.393
 3092POPC   C3B40833   6.033  44.255   8.026
 3092POPC   C4B40834   5.746  44.274   7.667
 3093POPC   NC340835  17.694  44.807   9.357
 3093POPC   PO440836  18.419  44.606   9.474
 3093POPC   GL140837  18.237  44.569   9.107
 3093POPC   GL240838  18.115  44.895   9.074
 3093POPC   C1A40839  18.416  44.451   8.714
 3093POPC   D2A40840  18.404  44.161   8.372
 3093POPC   C3A40841  18.424  44.327   7.969
 3093POPC   C4A40842  18.436  44.442   7.550
 3093POPC   C1B40843  18.392  44.977   8.734
 3093POPC   C2B40844  18.484  44.799   8.345
 3093POPC   C3B40845  18.531  44.843   7.930
 3093POPC   C4B40846  18.169  44.862   7.729
 3094POPC   NC340847  33.732   1.005   9.646
 3094POPC   PO440848  33.440   1.555   9.436
 3094POPC   GL140849  33.687   1.311   9.109
 3094POPC   GL240850  33.947   1.074   9.199
 3094POPC   C1A40851  34.016   1.299   8.768
 3094POPC   D2A40852  33.819   1.206   8.384
 3094POPC   C3A40853  34.052   1.262   8.007
 3094POPC   C4A40854  33.757   1.266   7.654
 3094POPC   C1B40855  33.779   0.843   8.825
 3094POPC   C2B40856  33.900   0.698   8.393
 3094POPC   C3B40857  33.809   0.824   7.961
 3094POPC   C4B40858  34.075   0.900   7.570
 3095POPC   NC340859  10.030  36.754   9.525
 3095POPC   PO440860   9.632  37.246   9.435
 3095POPC   GL140861   9.746  37.057   9.090
 3095POPC   GL240862   9.658  36.708   9.194
 3095POPC   C1A40863   9.529  37.164   8.727
 3095POPC   D2A40864   9.356  36.938   8.417
 3095POPC   C3A40865   9.680  36.996   8.200
 3095POPC   C4A40866   9.887  37.220   7.862
 3095POPC   C1B40867   9.581  36.658   8.787
 3095POPC   C2B40868   9.733  36.528   8.433
 3095POPC   C3B40869   9.631  36.494   8.059
 3095POPC   C4B40870   9.704  36.764   7.731
 3096POPC   NC340871  44.916  44.762   9.300
 3096POPC   PO440872  44.404  44.401   9.625
 3096POPC   GL140873  44.526  44.510   9.133
 3096POPC   GL240874  44.920  44.503   8.897
 3096POPC   C1A40875  44.537  44.797   8.756
 3096POPC   D2A40876  44.785  44.652   8.407
 3096POPC   C3A40877  44.669  44.830   8.041
 3096POPC   C4A40878  44.946   0.149   7.878
 3096POPC   C1B40879  44.669  44.248   8.722
 3096POPC   C2B40880  44.662  44.051   8.380
 3096POPC   C3B40881  44.650  44.306   8.039
 3096POPC   C4B40882  44.594  44.388   7.622
 3097POPC   NC340883  41.728   3.211   9.370
 3097POPC   PO440884  41.536   3.820   9.722
 3097POPC   GL140885  41.778   3.724   9.261
 3097POPC   GL240886  41.566   3.497   9.011
 3097POPC   C1A40887  41.776   3.823   8.731
 3097POPC   D2A40888  41.953   3.652   8.365
 3097POPC   C3A40889  41.649   3.474   8.110
 3097POPC   C4A40890  41.761   3.589   7.728
 3097POPC   C1B40891  41.419   3.432   8.591
 3097POPC   C2B40892  41.197   3.709   8.324
 3097POPC   C3B40893  41.187   3.744   7.899
 3097POPC   C4B40894  41.304   3.398   7.702
 3098POPC   NC340895  30.368   5.636   9.444
 3098POPC   PO440896  30.264   6.324   9.509
 3098POPC   GL140897  30.665   6.120   9.268
 3098POPC   GL240898  30.817   5.770   9.195
 3098POPC   C1A40899  30.731   6.073   8.797
 3098POPC   D2A40900  30.498   6.020   8.384
 3098POPC   C3A40901  30.711   6.025   7.974
 3098POPC   C4A40902  31.055   5.952   7.680
 3098POPC   C1B40903  30.692   5.554   8.784
 3098POPC   C2B40904  30.891   5.407   8.383
 3098POPC   C3B40905  30.894   5.493   7.946
 3098POPC   C4B40906  30.488   5.605   7.778
 3099POPC   NC340907   6.890  31.556   9.471
 3099POPC   PO440908   6.897  30.909   9.533
 3099POPC   GL140909   6.676  31.171   9.195
 3099POPC   GL240910   6.527  31.568   9.141
 3099POPC   C1A40911   6.699  31.259   8.777
 3099POPC   D2A40912   6.756  31.409   8.390
 3099POPC   C3A40913   6.439  31.197   8.158
 3099POPC   C4A40914   6.607  31.080   7.769
 3099POPC   C1B40915   6.661  31.773   8.765
 3099POPC   C2B40916   6.438  31.810   8.372
 3099POPC   C3B40917   6.564  31.667   7.964
 3099POPC   C4B40918   6.440  31.527   7.540
 3100POPC   NC340919  43.409  13.844   9.545
 3100POPC   PO440920  44.123  13.739   9.502
 3100POPC   GL140921  44.019  13.843   9.113
 3100POPC   GL240922  43.705  13.722   9.122
 3100POPC   C1A40923  43.995  13.608   8.718
 3100POPC   D2A40924  43.858  13.467   8.365
 3100POPC   C3A40925  44.089  13.573   8.060
 3100POPC   C4A40926  43.935  13.742   7.756
 3100POPC   C1B40927  43.515  13.743   8.723
 3100POPC   C2B40928  43.584  13.910   8.337
 3100POPC   C3B40929  43.494  13.676   7.966
 3100POPC   C4B40930  43.355  13.792   7.564
 3101POPC   NC340931  34.427  22.706   9.377
 3101POPC   PO440932  34.975  23.157   9.407
 3101POPC   GL140933  34.849  22.931   9.053
 3101POPC   GL240934  34.544  23.076   9.050
 3101POPC   C1A40935  34.771  23.041   8.600
 3101POPC   D2A40936  34.867  23.275   8.240
 3101POPC   C3A40937  34.967  23.019   7.929
 3101POPC   C4A40938  34.801  22.879   7.549
 3101POPC   C1B40939  34.267  23.040   8.722
 3101POPC   C2B40940  34.254  22.860   8.334
 3101POPC   C3B40941  34.457  23.023   7.997
 3101POPC   C4B40942  34.319  23.125   7.585
 3102POPC   NC340943  20.861  16.389   9.819
 3102POPC   PO440944  20.399  16.685   9.482
 3102POPC   GL140945  20.622  16.720   9.104
 3102POPC   GL240946  20.899  16.622   9.303
 3102POPC   C1A40947  20.647  16.713   8.642
 3102POPC   D2A40948  20.640  16.889   8.222
 3102POPC   C3A40949  20.441  16.550   8.022
 3102POPC   C4A40950  20.121  16.497   7.738
 3102POPC   C1B40951  21.075  16.458   8.949
 3102POPC   C2B40952  20.970  16.327   8.574
 3102POPC   C3B40953  20.933  16.454   8.179
 3102POPC   C4B40954  20.856  16.415   7.759
 3103POPC   NC340955  14.315   0.410   9.671
 3103POPC   PO440956  14.932   0.528   9.530
 3103POPC   GL140957  14.557   0.356   9.233
 3103POPC   GL240958  14.173   0.236   9.222
 3103POPC   C1A40959  14.519   0.319   8.778
 3103POPC   D2A40960  14.580   0.136   8.373
 3103POPC   C3A40961  14.458   0.384   8.019
 3103POPC   C4A40962  14.531   0.505   7.604
 3103POPC   C1B40963  14.035   0.498   8.892
 3103POPC   C2B40964  14.214   0.635   8.494
 3103POPC   C3B40965  14.011   0.569   8.118
 3103POPC   C4B40966  14.022   0.550   7.683
 3104POPC   NC340967  11.358  25.956   9.471
 3104POPC   PO440968  11.036  26.499   9.377
 3104POPC   GL140969  11.164  26.185   9.063
 3104POPC   GL240970  11.029  25.824   9.118
 3104POPC   C1A40971  11.530  26.089   8.808
 3104POPC   D2A40972  11.676  26.224   8.400
 3104POPC   C3A40973  11.483  26.132   7.982
 3104POPC   C4A40974  11.076  26.267   7.797
 3104POPC   C1B40975  11.140  25.808   8.661
 3104POPC   C2B40976  11.069  25.931   8.229
 3104POPC   C3B40977  11.117  25.759   7.812
 3104POPC   C4B40978  11.421  25.693   7.447
 3105POPC   NC340979   9.605  41.242   9.228
 3105POPC   PO440980   9.276  41.369   9.787
 3105POPC   GL140981   9.488  41.702   9.359
 3105POPC   GL240982   9.833  41.681   9.095
 3105POPC   C1A40983   9.423  41.804   8.853
 3105POPC   D2A40984   9.611  41.906   8.399
 3105POPC   C3A40985   9.403  41.836   7.966
 3105POPC   C4A40986   9.447  41.628   7.555
 3105POPC   C1B40987   9.751  41.462   8.646
 3105POPC   C2B40988   9.599  41.434   8.210
 3105POPC   C3B40989   9.671  41.258   7.823
 3105POPC   C4B40990  10.106  41.208   7.804
 3106POPC   NC340991  24.202   1.079   9.482
 3106POPC   PO440992  24.875   1.222   9.411
 3106POPC   GL140993  24.656   1.088   9.100
 3106POPC   GL240994  24.447   1.352   9.126
 3106POPC   C1A40995  24.639   1.230   8.658
 3106POPC   D2A40996  24.737   1.439   8.259
 3106POPC   C3A40997  24.732   1.099   7.971
 3106POPC   C4A40998  24.340   1.000   7.802
 3106POPC   C1B40999  24.201   1.453   8.803
 3106POPC   C2B41000  24.063   1.407   8.395
 3106POPC   C3B41001  24.192   1.505   8.034
 3106POPC   C4B41002  24.504   1.506   7.763
 3107POPC   NC341003  25.410   1.841   9.620
 3107POPC   PO441004  24.895   2.135   9.334
 3107POPC   GL141005  25.351   2.188   9.204
 3107POPC   GL241006  25.368   1.868   9.099
 3107POPC   C1A41007  25.512   2.288   8.767
 3107POPC   D2A41008  25.267   2.288   8.383
 3107POPC   C3A41009  25.361   2.095   8.002
 3107POPC   C4A41010  25.469   1.670   7.900
 3107POPC   C1B41011  25.121   1.932   8.740
 3107POPC   C2B41012  24.893   1.945   8.361
 3107POPC   C3B41013  24.945   1.801   7.935
 3107POPC   C4B41014  25.004   1.475   7.703
 3108POPC   NC341015  27.163   8.404   9.524
 3108POPC   PO441016  26.464   8.245   9.507
 3108POPC   GL141017  26.809   8.149   9.243
 3108POPC   GL241018  26.875   7.792   9.224
 3108POPC   C1A41019  26.907   8.251   8.813
 3108POPC   D2A41020  26.570   8.304   8.518
 3108POPC   C3A41021  26.693   8.492   8.152
 3108POPC   C4A41022  26.827   8.325   7.769
 3108POPC   C1B41023  26.605   7.852   8.864
 3108POPC   C2B41024  26.777   7.812   8.471
 3108POPC   C3B41025  26.627   7.954   8.089
 3108POPC   C4B41026  26.870   7.815   7.773
 3109POPC   NC341027  17.998  20.284   9.738
 3109POPC   PO441028  17.375  20.632   9.551
 3109POPC   GL141029  17.536  20.619   9.153
 3109POPC   GL241030  17.398  20.284   9.070
 3109POPC   C1A41031  17.657  20.874   8.822
 3109POPC   D2A41032  17.471  20.849   8.450
 3109POPC   C3A41033  17.565  20.777   8.041
 3109POPC   C4A41034  17.296  20.890   7.728
 3109POPC   C1B41035  17.584  20.387   8.662
 3109POPC   C2B41036  17.837  20.416   8.283
 3109POPC   C3B41037  17.586  20.297   7.908
 3109POPC   C4B41038  17.415  20.413   7.530
 3110POPC   NC341039  18.800  29.937   9.534
 3110POPC   PO441040  19.342  30.236   9.247
 3110POPC   GL141041  19.054  29.968   9.080
 3110POPC   GL241042  19.236  29.653   9.052
 3110POPC   C1A41043  18.879  29.885   8.659
 3110POPC   D2A41044  18.924  29.694   8.261
 3110POPC   C3A41045  19.026  29.954   7.901
 3110POPC   C4A41046  19.101  29.871   7.468
 3110POPC   C1B41047  19.392  29.908   8.699
 3110POPC   C2B41048  19.347  30.069   8.294
 3110POPC   C3B41049  19.544  29.948   7.910
 3110POPC   C4B41050  19.572  29.697   7.557
 3111POPC   NC341051   3.850  31.089   9.541
 3111POPC   PO441052   3.203  31.531   9.535
 3111POPC   GL141053   3.343  31.486   9.137
 3111POPC   GL241054   3.419  31.169   9.210
 3111POPC   C1A41055   3.576  31.671   8.787
 3111POPC   D2A41056   3.949  31.534   8.516
 3111POPC   C3A41057   3.825  31.476   8.079
 3111POPC   C4A41058   3.700  31.817   7.837
 3111POPC   C1B41059   3.632  31.178   8.832
 3111POPC   C2B41060   3.522  31.253   8.428
 3111POPC   C3B41061   3.370  31.245   8.002
 3111POPC   C4B41062   3.462  31.431   7.583
 3112POPC   NC341063   5.905  31.823   9.742
 3112POPC   PO441064   6.290  31.307   9.510
 3112POPC   GL141065   6.145  31.240   9.061
 3112POPC   GL241066   5.839  31.474   8.993
 3112POPC   C1A41067   6.193  31.414   8.625
 3112POPC   D2A41068   5.924  31.654   8.338
 3112POPC   C3A41069   6.056  31.609   7.900
 3112POPC   C4A41070   6.107  31.178   7.742
 3112POPC   C1B41071   5.537  31.708   8.743
 3112POPC   C2B41072   5.545  32.023   8.414
 3112POPC   C3B41073   5.586  31.872   7.995
 3112POPC   C4B41074   5.584  31.419   7.893
 3113POPC   NC341075  25.632  19.744   9.504
 3113POPC   PO441076  26.213  19.896   9.723
 3113POPC   GL141077  26.107  19.877   9.272
 3113POPC   GL241078  26.409  20.000   9.135
 3113POPC   C1A41079  25.919  19.694   8.864
 3113POPC   D2A41080  25.861  19.479   8.446
 3113POPC   C3A41081  25.879  19.709   8.066
 3113POPC   C4A41082  25.943  19.979   7.733
 3113POPC   C1B41083  26.429  19.610   8.893
 3113POPC   C2B41084  26.311  19.703   8.464
 3113POPC   C3B41085  26.372  19.858   8.032
 3113POPC   C4B41086  26.268  19.601   7.669
 3114POPC   NC341087  37.259  41.437   9.637
 3114POPC   PO441088  36.647  41.808   9.575
 3114POPC   GL141089  36.647  41.730   9.114
 3114POPC   GL241090  36.901  41.533   8.905
 3114POPC   C1A41091  36.678  41.905   8.678
 3114POPC   D2A41092  36.962  41.780   8.343
 3114POPC   C3A41093  36.816  41.666   7.933
 3114POPC   C4A41094  36.712  41.793   7.504
 3114POPC   C1B41095  37.059  41.300   8.549
 3114POPC   C2B41096  37.303  41.411   8.230
 3114POPC   C3B41097  37.287  41.491   7.812
 3114POPC   C4B41098  37.051  41.432   7.453
 3115POPC   NC341099  40.453  22.597   9.473
 3115POPC   PO441100  40.856  23.161   9.585
 3115POPC   GL141101  40.786  23.198   9.182
 3115POPC   GL241102  40.766  22.872   9.140
 3115POPC   C1A41103  40.946  23.176   8.770
 3115POPC   D2A41104  41.028  22.956   8.376
 3115POPC   C3A41105  40.784  23.152   8.050
 3115POPC   C4A41106  40.417  23.148   7.813
 3115POPC   C1B41107  40.915  22.640   8.801
 3115POPC   C2B41108  40.664  22.465   8.468
 3115POPC   C3B41109  40.674  22.632   8.055
 3115POPC   C4B41110  40.861  22.624   7.648
 3116POPC   NC341111  25.449  43.075   9.613
 3116POPC   PO441112  24.880  43.017   9.426
 3116POPC   GL141113  25.201  43.268   9.164
 3116POPC   GL241114  25.605  43.299   9.173
 3116POPC   C1A41115  25.206  43.159   8.725
 3116POPC   D2A41116  25.304  42.935   8.327
 3116POPC   C3A41117  24.981  42.956   8.014
 3116POPC   C4A41118  24.834  43.280   7.798
 3116POPC   C1B41119  25.514  43.560   8.810
 3116POPC   C2B41120  25.361  43.517   8.388
 3116POPC   C3B41121  25.316  43.348   7.980
 3116POPC   C4B41122  25.404  43.543   7.632
 3117POPC   NC341123  20.631  14.848   5.330
 3117POPC   PO441124  20.444  15.493   5.311
 3117POPC   GL141125  20.569  15.479   5.737
 3117POPC   GL241126  20.831  15.223   5.656
 3117POPC   C1A41127  20.640  15.560   6.213
 3117POPC   D2A41128  20.445  15.497   6.659
 3117POPC   C3A41129  20.665  15.516   7.064
 3117POPC   C4A41130  20.596  15.196   7.401
 3117POPC   C1B41131  20.643  15.070   6.035
 3117POPC   C2B41132  20.735  15.114   6.472
 3117POPC   C3B41133  20.717  15.035   6.902
 3117POPC   C4B41134  20.460  14.787   7.140
 3118POPC   NC341135  35.929  26.176   5.055
 3118POPC   PO441136  36.448  25.863   5.422
 3118POPC   GL141137  36.313  26.173   5.774
 3118POPC   GL241138  35.926  26.285   5.786
 3118POPC   C1A41139  36.292  26.391   6.139
 3118POPC   D2A41140  36.147  26.141   6.474
 3118POPC   C3A41141  36.178  26.267   6.870
 3118POPC   C4A41142  36.251  26.434   7.267
 3118POPC   C1B41143  35.739  26.041   6.135
 3118POPC   C2B41144  35.710  25.876   6.550
 3118POPC   C3B41145  35.686  26.119   6.920
 3118POPC   C4B41146  35.870  26.017   7.301
 3119POPC   NC341147  10.001  37.403   5.493
 3119POPC   PO441148   9.538  37.859   5.332
 3119POPC   GL141149   9.648  37.710   5.716
 3119POPC   GL241150   9.852  38.014   5.741
 3119POPC   C1A41151   9.921  37.658   6.096
 3119POPC   D2A41152   9.976  37.760   6.510
 3119POPC   C3A41153   9.827  37.492   6.875
 3119POPC   C4A41154   9.908  37.570   7.320
 3119POPC   C1B41155   9.748  38.192   6.149
 3119POPC   C2B41156   9.935  38.276   6.569
 3119POPC   C3B41157   9.926  38.024   6.949
 3119POPC   C4B41158   9.599  37.985   7.260
 3120POPC   NC341159   8.079  44.966   5.555
 3120POPC   PO441160   8.185   0.658   5.433
 3120POPC   GL141161   8.256   0.421   5.798
 3120POPC   GL241162   8.547   0.235   5.686
 3120POPC   C1A41163   8.170   0.403   6.261
 3120POPC   D2A41164   8.238   0.647   6.637
 3120POPC   C3A41165   8.143   0.499   7.056
 3120POPC   C4A41166   7.922   0.113   7.207
 3120POPC   C1B41167   8.625   0.188   6.110
 3120POPC   C2B41168   8.638   0.315   6.495
 3120POPC   C3B41169   8.622   0.392   6.893
 3120POPC   C4B41170   8.523   0.226   7.305
 3121POPC   NC341171  15.195  26.932   5.407
 3121POPC   PO441172  14.953  26.364   5.267
 3121POPC   GL141173  15.039  26.494   5.722
 3121POPC   GL241174  15.297  26.720   5.846
 3121POPC   C1A41175  14.963  26.572   6.190
 3121POPC   D2A41176  14.814  26.724   6.587
 3121POPC   C3A41177  15.004  26.751   7.006
 3121POPC   C4A41178  14.847  27.101   7.249
 3121POPC   C1B41179  15.493  26.530   6.198
 3121POPC   C2B41180  15.768  26.592   6.557
 3121POPC   C3B41181  15.608  26.633   6.994
 3121POPC   C4B41182  15.424  27.004   7.222
 3122POPC   NC341183  21.399  17.050   5.183
 3122POPC   PO441184  21.619  16.510   5.559
 3122POPC   GL141185  21.565  16.672   5.970
 3122POPC   GL241186  21.293  16.882   5.935
 3122POPC   C1A41187  21.649  17.048   6.259
 3122POPC   D2A41188  21.341  17.029   6.608
 3122POPC   C3A41189  21.503  16.899   6.999
 3122POPC   C4A41190  21.739  16.882   7.348
 3122POPC   C1B41191  21.037  16.577   6.165
 3122POPC   C2B41192  20.963  16.396   6.562
 3122POPC   C3B41193  21.134  16.575   6.902
 3122POPC   C4B41194  21.015  16.486   7.289
 3123POPC   NC341195   0.863  28.801   5.611
 3123POPC   PO441196   0.421  29.234   5.272
 3123POPC   GL141197   0.284  29.149   5.720
 3123POPC   GL241198   0.573  29.129   5.864
 3123POPC   C1A41199   0.170  29.245   6.165
 3123POPC   D2A41200   0.413  29.227   6.545
 3123POPC   C3A41201   0.229  29.296   6.964
 3123POPC   C4A41202   0.522  29.297   7.304
 3123POPC   C1B41203   0.475  28.815   6.177
 3123POPC   C2B41204   0.633  28.726   6.572
 3123POPC   C3B41205   0.612  28.929   6.956
 3123POPC   C4B41206   0.274  28.848   7.239
 3124POPC   NC341207  27.799  12.504   5.260
 3124POPC   PO441208  27.193  12.690   5.554
 3124POPC   GL141209  27.477  12.670   5.899
 3124POPC   GL241210  27.637  12.979   5.907
 3124POPC   C1A41211  27.418  12.781   6.349
 3124POPC   D2A41212  27.364  13.018   6.755
 3124POPC   C3A41213  27.521  12.805   7.146
 3124POPC   C4A41214  27.613  12.928   7.565
 3124POPC   C1B41215  27.892  12.990   6.301
 3124POPC   C2B41216  27.877  12.873   6.761
 3124POPC   C3B41217  27.950  13.083   7.177
 3124POPC   C4B41218  28.064  13.163   7.609
 3125POPC   NC341219  43.991  41.348   5.161
 3125POPC   PO441220  44.207  41.957   5.415
 3125POPC   GL141221  44.120  41.615   5.734
 3125POPC   GL241222  43.766  41.475   5.759
 3125POPC   C1A41223  44.145  41.397   6.148
 3125POPC   D2A41224  44.019  41.342   6.579
 3125POPC   C3A41225  44.096  41.693   6.851
 3125POPC   C4A41226  44.106  41.617   7.283
 3125POPC   C1B41227  43.638  41.330   6.195
 3125POPC   C2B41228  43.518  41.259   6.653
 3125POPC   C3B41229  43.677  41.438   7.083
 3125POPC   C4B41230  43.634  41.185   7.478
 3126POPC   NC341231   5.448   8.379   5.365
 3126POPC   PO441232   6.139   8.464   5.271
 3126POPC   GL141233   6.050   8.250   5.691
 3126POPC   GL241234   5.752   8.323   5.788
 3126POPC   C1A41235   6.025   8.010   6.136
 3126POPC   D2A41236   6.185   8.065   6.587
 3126POPC   C3A41237   5.874   8.158   6.913
 3126POPC   C4A41238   5.705   7.872   7.236
 3126POPC   C1B41239   5.524   8.468   6.156
 3126POPC   C2B41240   5.562   8.529   6.603
 3126POPC   C3B41241   5.695   8.637   7.029
 3126POPC   C4B41242   5.654   8.351   7.368
 3127POPC   NC341243  36.412  34.193   5.398
 3127POPC   PO441244  36.007  33.716   5.539
 3127POPC   GL141245  36.138  33.674   5.918
 3127POPC   GL241246  36.218  34.021   5.909
 3127POPC   C1A41247  36.107  33.602   6.353
 3127POPC   D2A41248  36.338  33.821   6.649
 3127POPC   C3A41249  36.226  33.843   7.069
 3127POPC   C4A41250  36.114  33.501   7.260
 3127POPC   C1B41251  35.956  34.079   6.312
 3127POPC   C2B41252  35.891  34.109   6.770
 3127POPC   C3B41253  35.925  34.218   7.224
 3127POPC   C4B41254  35.850  34.183   7.660
 3128POPC   NC341255   4.751   5.475   5.611
 3128POPC   PO441256   5.072   4.971   5.224
 3128POPC   GL141257   4.947   4.981   5.686
 3128POPC   GL241258   5.280   4.972   5.825
 3128POPC   C1A41259   4.913   4.810   6.141
 3128POPC   D2A41260   4.814   5.036   6.526
 3128POPC   C3A41261   4.881   4.850   6.915
 3128POPC   C4A41262   5.146   4.996   7.225
 3128POPC   C1B41263   5.228   5.210   6.229
 3128POPC   C2B41264   5.228   5.314   6.679
 3128POPC   C3B41265   5.532   5.205   7.006
 3128POPC   C4B41266   5.502   5.265   7.473
 3129POPC   NC341267   4.887   2.820   5.302
 3129POPC   PO441268   4.279   2.720   5.488
 3129POPC   GL141269   4.196   2.740   5.885
 3129POPC   GL241270   4.249   3.080   5.930
 3129POPC   C1A41271   4.417   2.677   6.293
 3129POPC   D2A41272   4.647   2.894   6.630
 3129POPC   C3A41273   4.517   2.809   7.078
 3129POPC   C4A41274   4.122   2.665   7.172
 3129POPC   C1B41275   4.018   2.979   6.303
 3129POPC   C2B41276   4.131   2.869   6.701
 3129POPC   C3B41277   4.174   3.170   7.028
 3129POPC   C4B41278   4.147   3.110   7.455
 3130POPC   NC341279  24.185  22.977   5.276
 3130POPC   PO441280  24.704  22.660   5.385
 3130POPC   GL141281  24.362  22.731   5.712
 3130POPC   GL241282  24.405  23.078   5.769
 3130POPC   C1A41283  24.214  22.818   6.169
 3130POPC   D2A41284  24.168  22.671   6.623
 3130POPC   C3A41285  24.457  22.729   6.944
 3130POPC   C4A41286  24.396  22.909   7.337
 3130POPC   C1B41287  24.566  23.231   6.171
 3130POPC   C2B41288  24.415  23.145   6.598
 3130POPC   C3B41289  24.575  23.233   6.990
 3130POPC   C4B41290  24.890  22.955   7.160
 3131POPC   NC341291  44.433  35.564   5.604
 3131POPC   PO441292  44.893  35.086   5.488
 3131POPC   GL141293  44.710  35.208   5.843
 3131POPC   GL241294  44.973  35.447   5.877
 3131POPC   C1A41295  44.505  34.999   6.174
 3131POPC   D2A41296  44.733  34.884   6.548
 3131POPC   C3A41297  44.594  35.094   6.899
 3131POPC   C4A41298  44.561  35.412   7.180
 3131POPC   C1B41299  44.914  35.283   6.303
 3131POPC   C2B41300   0.065  35.233   6.727
 3131POPC   C3B41301   0.040  35.540   7.053
 3131POPC   C4B41302  44.926  35.589   7.492
 3132POPC   NC341303  24.974  20.636   5.347
 3132POPC   PO441304  24.281  20.841   5.294
 3132POPC   GL141305  24.401  20.788   5.745
 3132POPC   GL241306  24.693  20.583   5.786
 3132POPC   C1A41307  24.518  20.794   6.212
 3132POPC   D2A41308  24.734  20.691   6.595
 3132POPC   C3A41309  24.541  20.854   6.972
 3132POPC   C4A41310  24.318  20.670   7.320
 3132POPC   C1B41311  24.792  20.319   6.184
 3132POPC   C2B41312  24.621  20.191   6.586
 3132POPC   C3B41313  24.693  20.363   6.986
 3132POPC   C4B41314  24.769  20.453   7.395
 3133POPC   NC341315   1.225  11.607   5.359
 3133POPC   PO441316   1.385  12.320   5.390
 3133POPC   GL141317   1.253  12.010   5.710
 3133POPC   GL241318   1.515  11.710   5.751
 3133POPC   C1A41319   1.048  12.159   6.105
 3133POPC   D2A41320   1.249  12.163   6.512
 3133POPC   C3A41321   1.079  12.385   6.877
 3133POPC   C4A41322   1.063  12.134   7.234
 3133POPC   C1B41323   1.475  11.821   6.157
 3133POPC   C2B41324   1.438  11.629   6.537
 3133POPC   C3B41325   1.357  11.834   6.914
 3133POPC   C4B41326   1.598  11.903   7.294
 3134POPC   NC341327  22.418   1.722   5.612
 3134POPC   PO441328  22.067   2.255   5.439
 3134POPC   GL141329  22.256   2.205   5.823
 3134POPC   GL241330  22.075   1.923   5.936
 3134POPC   C1A41331  22.418   2.138   6.245
 3134POPC   D2A41332  22.159   2.243   6.588
 3134POPC   C3A41333  22.093   1.911   6.856
 3134POPC   C4A41334  22.112   1.886   7.297
 3134POPC   C1B41335  22.006   1.770   6.353
 3134POPC   C2B41336  21.687   1.623   6.680
 3134POPC   C3B41337  21.730   1.594   7.147
 3134POPC   C4B41338  21.836   1.632   7.625
 3135POPC   NC341339   4.220  20.584   5.283
 3135POPC   PO441340   4.436  21.028   5.695
 3135POPC   GL141341   4.338  20.663   5.865
 3135POPC   GL241342   4.498  20.383   5.719
 3135POPC   C1A41343   4.404  20.654   6.308
 3135POPC   D2A41344   4.424  20.876   6.634
 3135POPC   C3A41345   4.671  20.832   6.985
 3135POPC   C4A41346   4.422  20.850   7.341
 3135POPC   C1B41347   4.261  20.207   6.099
 3135POPC   C2B41348   4.332  20.166   6.565
 3135POPC   C3B41349   4.350  20.410   7.003
 3135POPC   C4B41350   4.155  20.447   7.465
 3136POPC   NC341351  43.472  34.039   5.542
 3136POPC   PO441352  44.025  33.722   5.195
 3136POPC   GL141353  43.991  33.971   5.588
 3136POPC   GL241354  43.824  33.769   5.791
 3136POPC   C1A41355  44.182  34.026   6.019
 3136POPC   D2A41356  44.260  34.005   6.479
 3136POPC   C3A41357  44.160  33.738   6.853
 3136POPC   C4A41358  44.094  34.001   7.233
 3136POPC   C1B41359  43.701  33.855   6.181
 3136POPC   C2B41360  43.737  33.952   6.598
 3136POPC   C3B41361  43.663  33.851   7.000
 3136POPC   C4B41362  43.866  33.549   7.251
 3137POPC   NC341363  37.867   6.229   5.535
 3137POPC   PO441364  37.527   5.613   5.428
 3137POPC   GL141365  37.603   5.841   5.795
 3137POPC   GL241366  37.329   6.040   5.775
 3137POPC   C1A41367  37.768   5.823   6.223
 3137POPC   D2A41368  37.962   5.677   6.614
 3137POPC   C3A41369  37.707   5.672   6.968
 3137POPC   C4A41370  37.815   5.812   7.345
 3137POPC   C1B41371  37.262   6.115   6.182
 3137POPC   C2B41372  37.492   6.241   6.541
 3137POPC   C3B41373  37.445   6.227   7.018
 3137POPC   C4B41374  37.525   6.230   7.508
 3138POPC   NC341375   9.473  13.498   5.498
 3138POPC   PO441376  10.004  13.831   5.243
 3138POPC   GL141377  10.004  13.742   5.720
 3138POPC   GL241378   9.690  13.854   5.803
 3138POPC   C1A41379   9.841  13.508   6.126
 3138POPC   D2A41380   9.924  13.638   6.535
 3138POPC   C3A41381   9.575  13.630   6.791
 3138POPC   C4A41382   9.781  13.562   7.170
 3138POPC   C1B41383   9.572  13.930   6.237
 3138POPC   C2B41384   9.246  13.933   6.520
 3138POPC   C3B41385   9.170  14.019   6.925
 3138POPC   C4B41386   9.333  13.773   7.245
 3139POPC   NC341387   0.068   6.947   5.471
 3139POPC   PO441388   0.746   7.237   5.641
 3139POPC   GL141389   0.515   7.404   5.928
 3139POPC   GL241390   0.282   7.141   5.914
 3139POPC   C1A41391   0.541   7.308   6.352
 3139POPC   D2A41392   0.383   7.430   6.722
 3139POPC   C3A41393   0.629   7.194   7.021
 3139POPC   C4A41394   0.630   7.259   7.469
 3139POPC   C1B41395   0.035   7.258   6.257
 3139POPC   C2B41396  44.941   7.171   6.675
 3139POPC   C3B41397   0.106   7.221   7.106
 3139POPC   C4B41398   0.150   7.150   7.574
 3140POPC   NC341399   0.165  44.279   5.076
 3140POPC   PO441400   0.270  43.840   5.456
 3140POPC   GL141401   0.399  43.957   5.849
 3140POPC   GL241402   0.595  43.682   5.919
 3140POPC   C1A41403   0.422  44.039   6.297
 3140POPC   D2A41404   0.436  43.760   6.641
 3140POPC   C3A41405   0.318  43.974   6.986
 3140POPC   C4A41406   0.582  44.089   7.309
 3140POPC   C1B41407   0.186  43.512   6.139
 3140POPC   C2B41408   0.047  43.434   6.584
 3140POPC   C3B41409   0.196  43.423   7.044
 3140POPC   C4B41410   0.237  43.691   7.427
 3141POPC   NC341411  28.102  21.133   5.405
 3141POPC   PO441412  27.752  21.668   5.420
 3141POPC   GL141413  28.073  21.395   5.818
 3141POPC   GL241414  28.441  21.258   5.765
 3141POPC   C1A41415  28.263  21.472   6.238
 3141POPC   D2A41416  28.171  21.621   6.641
 3141POPC   C3A41417  28.320  21.318   6.878
 3141POPC   C4A41418  28.456  21.457   7.216
 3141POPC   C1B41419  28.712  21.266   6.107
 3141POPC   C2B41420  28.638  21.109   6.516
 3141POPC   C3B41421  28.830  21.254   6.886
 3141POPC   C4B41422  28.940  21.368   7.292
 3142POPC   NC341423   3.324  39.689   5.398
 3142POPC   PO441424   3.837  39.226   5.467
 3142POPC   GL141425   3.557  39.229   5.837
 3142POPC   GL241426   3.266  39.424   5.840
 3142POPC   C1A41427   3.659  39.029   6.239
 3142POPC   D2A41428   3.786  39.131   6.654
 3142POPC   C3A41429   3.568  39.240   7.017
 3142POPC   C4A41430   3.565  39.341   7.461
 3142POPC   C1B41431   3.342  39.427   6.289
 3142POPC   C2B41432   3.404  39.601   6.688
 3142POPC   C3B41433   3.164  39.554   7.082
 3142POPC   C4B41434   3.060  39.310   7.465
 3143POPC   NC341435  12.427  17.089   5.249
 3143POPC   PO441436  11.874  16.503   5.209
 3143POPC   GL141437  11.839  16.635   5.782
 3143POPC   GL241438  12.164  16.816   5.933
 3143POPC   C1A41439  11.774  16.869   6.240
 3143POPC   D2A41440  11.841  16.731   6.684
 3143POPC   C3A41441  12.089  16.768   7.066
 3143POPC   C4A41442  11.886  16.813   7.461
 3143POPC   C1B41443  12.110  16.496   6.276
 3143POPC   C2B41444  12.179  16.325   6.714
 3143POPC   C3B41445  12.245  16.207   7.148
 3143POPC   C4B41446  12.205  16.361   7.571
 3144POPC   NC341447  33.257  26.281   5.426
 3144POPC   PO441448  32.828  25.809   5.506
 3144POPC   GL141449  33.146  25.981   5.831
 3144POPC   GL241450  32.890  26.259   5.795
 3144POPC   C1A41451  33.277  25.956   6.304
 3144POPC   D2A41452  32.969  25.730   6.594
 3144POPC   C3A41453  32.839  25.963   6.967
 3144POPC   C4A41454  33.173  26.222   7.144
 3144POPC   C1B41455  32.820  26.099   6.208
 3144POPC   C2B41456  32.952  26.303   6.597
 3144POPC   C3B41457  32.774  26.490   6.980
 3144POPC   C4B41458  32.675  26.286   7.379
 3145POPC   NC341459   0.072   9.689   5.132
 3145POPC   PO441460   0.578   9.919   5.637
 3145POPC   GL141461   0.403   9.673   5.967
 3145POPC   GL241462   0.189   9.927   6.088
 3145POPC   C1A41463   0.378   9.608   6.425
 3145POPC   D2A41464   0.592   9.419   6.749
 3145POPC   C3A41465   0.327   9.554   7.101
 3145POPC   C4A41466   0.102   9.907   7.311
 3145POPC   C1B41467   0.526  10.085   6.268
 3145POPC   C2B41468   0.301  10.224   6.579
 3145POPC   C3B41469   0.373   9.998   6.881
 3145POPC   C4B41470   0.546  10.112   7.244
 3146POPC   NC341471  42.152   0.798   5.371
 3146POPC   PO441472  42.506   0.297   5.501
 3146POPC   GL141473  42.378   0.423   5.923
 3146POPC   GL241474  42.136   0.698   5.872
 3146POPC   C1A41475  42.555   0.457   6.362
 3146POPC   D2A41476  42.607   0.390   6.822
 3146POPC   C3A41477  42.202   0.240   6.980
 3146POPC   C4A41478  41.861   0.135   7.225
 3146POPC   C1B41479  42.162   0.799   6.284
 3146POPC   C2B41480  42.212   0.676   6.694
 3146POPC   C3B41481  42.325   0.714   7.146
 3146POPC   C4B41482  41.987   0.658   7.452
 3147POPC   NC341483  31.704  44.129   5.476
 3147POPC   PO441484  31.154  43.819   5.237
 3147POPC   GL141485  31.361  43.814   5.702
 3147POPC   GL241486  31.330  44.193   5.820
 3147POPC   C1A41487  31.550  43.857   6.162
 3147POPC   D2A41488  31.719  43.722   6.578
 3147POPC   C3A41489  31.448  43.663   6.924
 3147POPC   C4A41490  31.558  43.717   7.346
 3147POPC   C1B41491  31.665  44.349   6.126
 3147POPC   C2B41492  31.669  44.294   6.595
 3147POPC   C3B41493  31.585  44.148   7.036
 3147POPC   C4B41494  31.662  44.174   7.530
 3148POPC   NC341495  23.919  34.669   5.426
 3148POPC   PO441496  23.418  34.153   5.500
 3148POPC   GL141497  23.613  34.471   5.823
 3148POPC   GL241498  23.589  34.823   5.785
 3148POPC   C1A41499  23.922  34.595   6.154
 3148POPC   D2A41500  23.861  34.832   6.564
 3148POPC   C3A41501  23.822  34.625   6.991
 3148POPC   C4A41502  23.815  34.548   7.469
 3148POPC   C1B41503  23.455  34.797   6.210
 3148POPC   C2B41504  23.367  34.610   6.617
 3148POPC   C3B41505  23.220  34.869   6.960
 3148POPC   C4B41506  23.538  34.987   7.269
 3149POPC   NC341507  10.416  38.800   5.418
 3149POPC   PO441508  10.168  38.248   5.361
 3149POPC   GL141509  10.459  38.399   5.729
 3149POPC   GL241510  10.756  38.212   5.802
 3149POPC   C1A41511  10.529  38.548   6.164
 3149POPC   D2A41512  10.379  38.554   6.573
 3149POPC   C3A41513  10.589  38.658   6.938
 3149POPC   C4A41514  10.485  38.613   7.357
 3149POPC   C1B41515  10.793  38.080   6.224
 3149POPC   C2B41516  10.844  38.302   6.615
 3149POPC   C3B41517  10.929  38.274   7.045
 3149POPC   C4B41518  10.748  38.147   7.416
 3150POPC   NC341519  37.978   2.612   5.341
 3150POPC   PO441520  37.554   3.137   5.270
 3150POPC   GL141521  37.567   2.874   5.670
 3150POPC   GL241522  37.621   2.530   5.769
 3150POPC   C1A41523  37.655   2.925   6.131
 3150POPC   D2A41524  37.738   2.934   6.582
 3150POPC   C3A41525  37.464   3.007   6.944
 3150POPC   C4A41526  37.783   2.903   7.259
 3150POPC   C1B41527  37.590   2.406   6.210
 3150POPC   C2B41528  37.715   2.398   6.639
 3150POPC   C3B41529  37.530   2.494   7.021
 3150POPC   C4B41530  37.454   2.528   7.469
 3151POPC   NC341531  32.595  18.319   5.377
 3151POPC   PO441532  33.015  17.850   5.471
 3151POPC   GL141533  32.699  17.989   5.848
 3151POPC   GL241534  32.677  18.382   5.898
 3151POPC   C1A41535  32.671  18.136   6.337
 3151POPC   D2A41536  32.925  18.338   6.671
 3151POPC   C3A41537  32.976  18.154   7.066
 3151POPC   C4A41538  33.273  17.909   7.318
 3151POPC   C1B41539  32.641  18.656   6.316
 3151POPC   C2B41540  32.590  18.715   6.779
 3151POPC   C3B41541  32.927  18.720   7.092
 3151POPC   C4B41542  33.339  18.499   7.208
 3152POPC   NC341543   6.126  41.178   5.130
 3152POPC   PO441544   5.811  40.657   5.471
 3152POPC   GL141545   5.858  40.565   5.901
 3152POPC   GL241546   6.204  40.553   5.815
 3152POPC   C1A41547   5.664  40.634   6.321
 3152POPC   D2A41548   5.649  40.486   6.753
 3152POPC   C3A41549   5.712  40.813   7.016
 3152POPC   C4A41550   6.042  41.036   7.105
 3152POPC   C1B41551   6.240  40.543   6.243
 3152POPC   C2B41552   6.132  40.694   6.668
 3152POPC   C3B41553   6.119  40.533   7.094
 3152POPC   C4B41554   6.154  40.619   7.571
 3153POPC   NC341555  22.822  14.695   5.122
 3153POPC   PO441556  22.716  15.276   5.468
 3153POPC   GL141557  23.090  15.219   5.739
 3153POPC   GL241558  23.112  15.502   5.957
 3153POPC   C1A41559  23.109  15.045   6.176
 3153POPC   D2A41560  23.067  15.303   6.561
 3153POPC   C3A41561  22.904  15.117   6.932
 3153POPC   C4A41562  22.700  14.999   7.300
 3153POPC   C1B41563  22.720  15.500   6.229
 3153POPC   C2B41564  22.631  15.573   6.679
 3153POPC   C3B41565  23.010  15.620   6.973
 3153POPC   C4B41566  23.010  15.400   7.383
 3154POPC   NC341567  21.134  37.693   5.426
 3154POPC   PO441568  21.760  37.557   5.562
 3154POPC   GL141569  21.405  37.736   5.863
 3154POPC   GL241570  21.074  38.000   5.833
 3154POPC   C1A41571  21.472  37.730   6.303
 3154POPC   D2A41572  21.248  37.583   6.691
 3154POPC   C3A41573  21.532  37.463   7.029
 3154POPC   C4A41574  21.575  37.605   7.476
 3154POPC   C1B41575  21.239  38.200   6.217
 3154POPC   C2B41576  21.346  38.095   6.651
 3154POPC   C3B41577  21.409  37.946   7.058
 3154POPC   C4B41578  21.164  37.935   7.415
 3155POPC   NC341579  23.290   1.031   5.361
 3155POPC   PO441580  23.726   1.594   5.404
 3155POPC   GL141581  23.804   1.355   5.806
 3155POPC   GL241582  24.174   1.390   5.831
 3155POPC   C1A41583  23.727   1.190   6.264
 3155POPC   D2A41584  23.720   1.035   6.727
 3155POPC   C3A41585  23.668   1.153   7.227
 3155POPC   C4A41586  23.517   1.059   7.687
 3155POPC   C1B41587  24.056   1.547   6.218
 3155POPC   C2B41588  23.846   1.540   6.624
 3155POPC   C3B41589  24.049   1.390   6.965
 3155POPC   C4B41590  24.261   1.555   7.317
 3156POPC   NC341591  16.709   9.722   5.319
 3156POPC   PO441592  16.659  10.317   5.332
 3156POPC   GL141593  16.691   9.994   5.733
 3156POPC   GL241594  16.773   9.591   5.795
 3156POPC   C1A41595  16.488   9.872   6.109
 3156POPC   D2A41596  16.553  10.066   6.489
 3156POPC   C3A41597  16.904   9.968   6.747
 3156POPC   C4A41598  16.889   9.909   7.187
 3156POPC   C1B41599  16.945   9.682   6.217
 3156POPC   C2B41600  16.860   9.494   6.608
 3156POPC   C3B41601  16.963   9.427   7.013
 3156POPC   C4B41602  16.585   9.464   7.217
 3157POPC   NC341603  29.205  40.322   5.449
 3157POPC   PO441604  29.049  40.911   5.285
 3157POPC   GL141605  29.034  40.771   5.682
 3157POPC   GL241606  29.128  41.097   5.810
 3157POPC   C1A41607  29.041  40.705   6.138
 3157POPC   D2A41608  29.414  40.628   6.403
 3157POPC   C3A41609  29.328  40.549   6.835
 3157POPC   C4A41610  29.539  40.650   7.186
 3157POPC   C1B41611  29.329  41.137   6.235
 3157POPC   C2B41612  29.298  41.044   6.702
 3157POPC   C3B41613  29.052  40.981   7.089
 3157POPC   C4B41614  28.839  41.082   7.501
 3158POPC   NC341615  28.786  16.837   5.571
 3158POPC   PO441616  29.459  16.620   5.511
 3158POPC   GL141617  29.163  16.653   5.902
 3158POPC   GL241618  28.839  16.433   5.923
 3158POPC   C1A41619  29.105  16.914   6.304
 3158POPC   D2A41620  29.052  17.189   6.703
 3158POPC   C3A41621  29.262  17.027   7.058
 3158POPC   C4A41622  29.007  16.701   7.231
 3158POPC   C1B41623  29.081  16.372   6.328
 3158POPC   C2B41624  29.081  16.298   6.782
 3158POPC   C3B41625  29.332  16.330   7.154
 3158POPC   C4B41626  29.522  16.702   7.392
 3159POPC   NC341627  39.518  42.471   5.785
 3159POPC   PO441628  40.098  42.660   5.540
 3159POPC   GL141629  40.094  42.323   5.851
 3159POPC   GL241630  39.847  42.055   5.744
 3159POPC   C1A41631  40.220  42.297   6.303
 3159POPC   D2A41632  40.004  42.326   6.723
 3159POPC   C3A41633  40.126  42.613   7.055
 3159POPC   C4A41634  40.062  42.646   7.492
 3159POPC   C1B41635  39.859  41.948   6.200
 3159POPC   C2B41636  40.101  41.833   6.601
 3159POPC   C3B41637  40.006  41.931   7.054
 3159POPC   C4B41638  39.837  42.227   7.357
 3160POPC   NC341639  14.565  26.156   5.362
 3160POPC   PO441640  14.286  25.614   5.237
 3160POPC   GL141641  14.311  25.811   5.683
 3160POPC   GL241642  14.629  25.856   5.826
 3160POPC   C1A41643  14.233  25.780   6.182
 3160POPC   D2A41644  14.291  25.984   6.626
 3160POPC   C3A41645  14.368  25.835   7.071
 3160POPC   C4A41646  14.238  25.750   7.520
 3160POPC   C1B41647  14.654  26.123   6.226
 3160POPC   C2B41648  14.796  26.194   6.671
 3160POPC   C3B41649  14.624  26.315   7.078
 3160POPC   C4B41650  14.179  26.381   7.165
 3161POPC   NC341651  37.402  27.670   5.445
 3161POPC   PO441652  36.764  27.435   5.428
 3161POPC   GL141653  36.836  27.658   5.803
 3161POPC   GL241654  37.163  27.790   5.869
 3161POPC   C1A41655  36.789  27.579   6.245
 3161POPC   D2A41656  36.943  27.477   6.651
 3161POPC   C3A41657  36.798  27.732   7.020
 3161POPC   C4A41658  36.741  27.413   7.335
 3161POPC   C1B41659  37.304  27.683   6.279
 3161POPC   C2B41660  37.464  27.560   6.668
 3161POPC   C3B41661  37.255  27.489   7.058
 3161POPC   C4B41662  37.145  27.760   7.406
 3162POPC   NC341663  31.550   0.824   5.526
 3162POPC   PO441664  31.881   1.324   5.187
 3162POPC   GL141665  31.524   1.375   5.637
 3162POPC   GL241666  31.187   1.178   5.716
 3162POPC   C1A41667  31.503   1.200   6.148
 3162POPC   D2A41668  31.490   0.965   6.582
 3162POPC   C3A41669  31.447   1.294   6.938
 3162POPC   C4A41670  31.566   1.323   7.363
 3162POPC   C1B41671  31.010   1.318   6.138
 3162POPC   C2B41672  31.048   1.228   6.599
 3162POPC   C3B41673  31.105   0.937   6.941
 3162POPC   C4B41674  31.229   0.931   7.340
 3163POPC   NC341675  21.644  42.543   5.655
 3163POPC   PO441676  20.995  42.335   5.464
 3163POPC   GL141677  21.104  42.518   5.868
 3163POPC   GL241678  21.360  42.279   5.981
 3163POPC   C1A41679  21.076  42.468   6.338
 3163POPC   D2A41680  21.250  42.178   6.615
 3163POPC   C3A41681  21.248  42.309   6.999
 3163POPC   C4A41682  21.387  42.142   7.362
 3163POPC   C1B41683  21.637  42.444   6.324
 3163POPC   C2B41684  21.742  42.306   6.758
 3163POPC   C3B41685  21.682  42.503   7.159
 3163POPC   C4B41686  21.762  42.484   7.600
 3164POPC   NC341687  16.798   8.678   5.345
 3164POPC   PO441688  16.790   9.278   5.326
 3164POPC   GL141689  16.732   9.064   5.757
 3164POPC   GL241690  16.393   9.003   5.919
 3164POPC   C1A41691  16.730   9.206   6.211
 3164POPC   D2A41692  16.831   8.991   6.603
 3164POPC   C3A41693  16.712   8.988   7.036
 3164POPC   C4A41694  16.960   9.054   7.412
 3164POPC   C1B41695  16.450   8.782   6.307
 3164POPC   C2B41696  16.498   8.607   6.715
 3164POPC   C3B41697  16.577   8.533   7.188
 3164POPC   C4B41698  16.563   8.738   7.589
 3165POPC   NC341699   0.129  12.140   5.407
 3165POPC   PO441700   0.749  11.642   5.425
 3165POPC   GL141701   0.554  11.855   5.779
 3165POPC   GL241702   0.180  11.885   5.838
 3165POPC   C1A41703   0.576  11.936   6.206
 3165POPC   D2A41704   0.733  12.215   6.534
 3165POPC   C3A41705   0.677  12.025   6.902
 3165POPC   C4A41706   0.528  12.090   7.304
 3165POPC   C1B41707   0.109  12.144   6.159
 3165POPC   C2B41708   0.230  12.085   6.560
 3165POPC   C3B41709   0.161  12.115   6.969
 3165POPC   C4B41710   0.113  12.510   7.178
 3166POPC   NC341711  24.099   3.436   5.608
 3166POPC   PO441712  24.690   3.313   5.598
 3166POPC   GL141713  24.534   3.422   5.930
 3166POPC   GL241714  24.503   3.759   5.883
 3166POPC   C1A41715  24.465   3.407   6.325
 3166POPC   D2A41716  24.208   3.448   6.606
 3166POPC   C3A41717  24.381   3.320   6.945
 3166POPC   C4A41718  24.323   3.321   7.352
 3166POPC   C1B41719  24.572   3.919   6.315
 3166POPC   C2B41720  24.605   3.781   6.753
 3166POPC   C3B41721  24.605   3.723   7.201
 3166POPC   C4B41722  24.901   3.703   7.529
 3167POPC   NC341723  35.978  14.997   5.510
 3167POPC   PO441724  36.528  15.383   5.493
 3167POPC   GL141725  36.371  15.124   5.802
 3167POPC   GL241726  36.099  15.378   5.818
 3167POPC   C1A41727  36.155  14.972   6.183
 3167POPC   D2A41728  36.373  14.908   6.587
 3167POPC   C3A41729  36.171  14.907   6.968
 3167POPC   C4A41730  36.335  15.037   7.376
 3167POPC   C1B41731  35.880  15.390   6.186
 3167POPC   C2B41732  35.924  15.232   6.596
 3167POPC   C3B41733  36.047  15.408   7.024
 3167POPC   C4B41734  35.884  15.270   7.414
 3168POPC   NC341735  13.808  18.420   5.278
 3168POPC   PO441736  13.248  18.295   5.421
 3168POPC   GL141737  13.584  18.470   5.747
 3168POPC   GL241738  13.953  18.333   5.759
 3168POPC   C1A41739  13.718  18.514   6.211
 3168POPC   D2A41740  13.604  18.329   6.625
 3168POPC   C3A41741  13.712  18.317   7.067
 3168POPC   C4A41742  13.486  18.329   7.485
 3168POPC   C1B41743  14.024  18.085   6.160
 3168POPC   C2B41744  14.099  18.139   6.615
 3168POPC   C3B41745  14.135  18.018   7.068
 3168POPC   C4B41746  14.014  18.225   7.491
 3169POPC   NC341747  11.905   2.805   5.307
 3169POPC   PO441748  12.501   2.398   5.327
 3169POPC   GL141749  12.206   2.648   5.667
 3169POPC   GL241750  11.844   2.540   5.754
 3169POPC   C1A41751  12.228   2.842   6.103
 3169POPC   D2A41752  12.420   2.907   6.538
 3169POPC   C3A41753  12.282   2.685   6.899
 3169POPC   C4A41754  12.447   2.689   7.301
 3169POPC   C1B41755  11.715   2.837   6.098
 3169POPC   C2B41756  11.896   2.952   6.526
 3169POPC   C3B41757  12.026   3.133   6.933
 3169POPC   C4B41758  12.002   2.974   7.354
 3170POPC   NC341759  23.577  31.563   5.567
 3170POPC   PO441760  24.115  31.213   5.372
 3170POPC   GL141761  23.934  31.258   5.787
 3170POPC   GL241762  23.542  31.146   5.822
 3170POPC   C1A41763  23.923  31.573   6.146
 3170POPC   D2A41764  23.656  31.638   6.524
 3170POPC   C3A41765  23.804  31.486   6.932
 3170POPC   C4A41766  23.716  31.674   7.318
 3170POPC   C1B41767  23.726  31.107   6.217
 3170POPC   C2B41768  23.635  31.109   6.610
 3170POPC   C3B41769  23.511  31.027   7.013
 3170POPC   C4B41770  23.653  31.153   7.361
 3171POPC   NC341771  15.319  10.973   5.511
 3171POPC   PO441772  15.463  11.580   5.246
 3171POPC   GL141773  15.264  11.565   5.695
 3171POPC   GL241774  14.877  11.553   5.651
 3171POPC   C1A41775  15.328  11.380   6.162
 3171POPC   D2A41776  15.438  11.295   6.626
 3171POPC   C3A41777  15.186  11.281   7.029
 3171POPC   C4A41778  15.261  11.092   7.439
 3171POPC   C1B41779  14.881  11.654   6.108
 3171POPC   C2B41780  14.928  11.479   6.546
 3171POPC   C3B41781  14.922  11.693   6.970
 3171POPC   C4B41782  15.018  11.531   7.451
 3172POPC   NC341783  34.068  27.506   5.360
 3172POPC   PO441784  33.414  27.420   5.321
 3172POPC   GL141785  33.702  27.476   5.752
 3172POPC   GL241786  34.095  27.566   5.858
 3172POPC   C1A41787  33.810  27.259   6.174
 3172POPC   D2A41788  34.069  27.308   6.577
 3172POPC   C3A41789  33.877  27.483   6.976
 3172POPC   C4A41790  33.595  27.311   7.294
 3172POPC   C1B41791  33.927  27.785   6.229
 3172POPC   C2B41792  33.920  27.957   6.659
 3172POPC   C3B41793  34.120  27.929   7.067
 3172POPC   C4B41794  33.963  27.772   7.474
 3173POPC   NC341795  12.929  38.944   5.490
 3173POPC   PO441796  13.252  39.473   5.143
 3173POPC   GL141797  13.130  39.571   5.612
 3173POPC   GL241798  12.854  39.375   5.797
 3173POPC   C1A41799  13.233  39.536   6.091
 3173POPC   D2A41800  12.929  39.542   6.462
 3173POPC   C3A41801  13.017  39.367   6.892
 3173POPC   C4A41802  12.803  39.429   7.315
 3173POPC   C1B41803  12.937  39.107   6.176
 3173POPC   C2B41804  12.840  38.864   6.563
 3173POPC   C3B41805  12.686  38.973   6.968
 3173POPC   C4B41806  12.401  39.137   7.246
 3174POPC   NC341807  37.272   5.222   5.421
 3174POPC   PO441808  36.585   5.281   5.462
 3174POPC   GL141809  36.618   4.947   5.761
 3174POPC   GL241810  36.993   4.940   5.803
 3174POPC   C1A41811  36.655   4.739   6.166
 3174POPC   D2A41812  36.809   4.806   6.586
 3174POPC   C3A41813  36.708   5.149   6.858
 3174POPC   C4A41814  36.911   5.241   7.244
 3174POPC   C1B41815  36.907   5.209   6.173
 3174POPC   C2B41816  37.139   5.259   6.575
 3174POPC   C3B41817  37.347   5.175   6.982
 3174POPC   C4B41818  37.458   5.392   7.354
 3175POPC   NC341819   4.613  14.057   5.585
 3175POPC   PO441820   5.134  14.507   5.430
 3175POPC   GL141821   5.215  14.340   5.860
 3175POPC   GL241822   4.857  14.355   5.917
 3175POPC   C1A41823   5.438  14.239   6.301
 3175POPC   D2A41824   5.345  14.505   6.711
 3175POPC   C3A41825   5.467  14.496   7.165
 3175POPC   C4A41826   5.347  14.288   7.554
 3175POPC   C1B41827   4.975  14.440   6.324
 3175POPC   C2B41828   4.802  14.502   6.712
 3175POPC   C3B41829   4.938  14.421   7.129
 3175POPC   C4B41830   4.888  14.446   7.559
 3176POPC   NC341831  17.092  10.288   5.526
 3176POPC   PO441832  17.533  10.765   5.452
 3176POPC   GL141833  17.716  10.566   5.803
 3176POPC   GL241834  17.728  10.215   5.785
 3176POPC   C1A41835  17.501  10.439   6.196
 3176POPC   D2A41836  17.591  10.455   6.640
 3176POPC   C3A41837  17.307  10.219   6.917
 3176POPC   C4A41838  17.095  10.373   7.285
 3176POPC   C1B41839  17.995  10.338   6.182
 3176POPC   C2B41840  18.009  10.109   6.577
 3176POPC   C3B41841  17.813  10.146   6.995
 3176POPC   C4B41842  17.603  10.483   7.232
 3177POPC   NC341843  36.386  39.561   5.453
 3177POPC   PO441844  35.889  39.033   5.521
 3177POPC   GL141845  36.065  39.341   5.806
 3177POPC   GL241846  36.425  39.222   5.894
 3177POPC   C1A41847  36.071  39.301   6.250
 3177POPC   D2A41848  36.084  39.079   6.603
 3177POPC   C3A41849  36.175  39.323   6.955
 3177POPC   C4A41850  36.182  39.177   7.347
 3177POPC   C1B41851  36.527  39.535   6.236
 3177POPC   C2B41852  36.455  39.670   6.701
 3177POPC   C3B41853  36.454  39.702   7.172
 3177POPC   C4B41854  36.539  39.441   7.565
 3178POPC   NC341855  43.333  25.014   5.642
 3178POPC   PO441856  43.901  25.109   5.276
 3178POPC   GL141857  43.889  25.155   5.718
 3178POPC   GL241858  43.707  25.460   5.767
 3178POPC   C1A41859  43.743  25.126   6.157
 3178POPC   D2A41860  43.555  25.232   6.541
 3178POPC   C3A41861  43.829  25.172   6.913
 3178POPC   C4A41862  43.662  25.126   7.302
 3178POPC   C1B41863  43.860  25.655   6.163
 3178POPC   C2B41864  43.916  25.578   6.621
 3178POPC   C3B41865  43.929  25.667   7.066
 3178POPC   C4B41866  43.969  25.742   7.511
 3179POPC   NC341867  27.682  33.952   5.139
 3179POPC   PO441868  27.554  33.524   5.602
 3179POPC   GL141869  27.727  33.883   5.718
 3179POPC   GL241870  27.872  33.752   5.996
 3179POPC   C1A41871  27.576  34.137   6.088
 3179POPC   D2A41872  27.496  33.835   6.413
 3179POPC   C3A41873  27.519  33.888   6.852
 3179POPC   C4A41874  27.428  33.578   7.198
 3179POPC   C1B41875  28.131  33.573   6.310
 3179POPC   C2B41876  27.903  33.596   6.648
 3179POPC   C3B41877  27.934  33.663   7.068
 3179POPC   C4B41878  28.200  33.406   7.304
 3180POPC   NC341879  15.471  25.413   5.509
 3180POPC   PO441880  14.996  24.911   5.266
 3180POPC   GL141881  15.110  25.067   5.699
 3180POPC   GL241882  15.468  25.010   5.822
 3180POPC   C1A41883  15.064  25.154   6.173
 3180POPC   D2A41884  14.880  25.091   6.623
 3180POPC   C3A41885  14.944  25.438   6.916
 3180POPC   C4A41886  15.061  25.481   7.371
 3180POPC   C1B41887  15.606  25.191   6.222
 3180POPC   C2B41888  15.379  25.288   6.597
 3180POPC   C3B41889  15.398  25.238   7.036
 3180POPC   C4B41890  15.479  24.856   7.226
 3181POPC   NC341891   2.253  28.358   5.446
 3181POPC   PO441892   1.843  28.738   5.223
 3181POPC   GL141893   1.746  28.586   5.684
 3181POPC   GL241894   1.640  28.200   5.747
 3181POPC   C1A41895   1.895  28.463   6.110
 3181POPC   D2A41896   2.062  28.265   6.472
 3181POPC   C3A41897   1.951  28.457   6.853
 3181POPC   C4A41898   2.246  28.364   7.173
 3181POPC   C1B41899   1.722  27.933   6.093
 3181POPC   C2B41900   1.739  27.832   6.533
 3181POPC   C3B41901   1.944  27.962   6.885
 3181POPC   C4B41902   1.819  28.118   7.253
 3182POPC   NC341903  35.600  13.801   5.441
 3182POPC   PO441904  35.041  13.437   5.489
 3182POPC   GL141905  35.236  13.743   5.792
 3182POPC   GL241906  35.542  13.550   5.918
 3182POPC   C1A41907  35.368  13.917   6.190
 3182POPC   D2A41908  35.606  13.602   6.429
 3182POPC   C3A41909  35.578  13.542   6.861
 3182POPC   C4A41910  35.362  13.627   7.233
 3182POPC   C1B41911  35.349  13.201   6.203
 3182POPC   C2B41912  35.064  13.208   6.603
 3182POPC   C3B41913  34.978  13.304   7.069
 3182POPC   C4B41914  35.132  13.307   7.544
 3183POPC   NC341915  22.511  38.803   5.526
 3183POPC   PO441916  21.962  39.202   5.213
 3183POPC   GL141917  22.014  39.347   5.663
 3183POPC   GL241918  22.158  39.051   5.773
 3183POPC   C1A41919  22.254  39.436   6.080
 3183POPC   D2A41920  22.139  39.497   6.504
 3183POPC   C3A41921  22.364  39.408   6.882
 3183POPC   C4A41922  22.315  39.400   7.320
 3183POPC   C1B41923  21.995  38.980   6.169
 3183POPC   C2B41924  22.147  38.993   6.594
 3183POPC   C3B41925  22.017  39.034   6.981
 3183POPC   C4B41926  22.094  38.874   7.365
 3184POPC   NC341927   7.331   5.283   5.344
 3184POPC   PO441928   7.868   4.875   5.516
 3184POPC   GL141929   7.504   4.943   5.741
 3184POPC   GL241930   7.588   5.252   5.783
 3184POPC   C1A41931   7.404   4.855   6.191
 3184POPC   D2A41932   7.479   5.097   6.578
 3184POPC   C3A41933   7.548   4.927   6.962
 3184POPC   C4A41934   7.257   4.723   7.129
 3184POPC   C1B41935   7.813   5.157   6.153
 3184POPC   C2B41936   7.936   5.292   6.550
 3184POPC   C3B41937   7.781   5.383   6.964
 3184POPC   C4B41938   7.659   5.418   7.414
 3185POPC   NC341939  28.484  12.238   5.434
 3185POPC   PO441940  27.847  12.006   5.340
 3185POPC   GL141941  28.061  12.077   5.761
 3185POPC   GL241942  28.365  12.301   5.896
 3185POPC   C1A41943  28.121  12.050   6.229
 3185POPC   D2A41944  28.349  11.981   6.612
 3185POPC   C3A41945  28.206  12.003   7.052
 3185POPC   C4A41946  28.377  11.918   7.461
 3185POPC   C1B41947  28.724  12.382   6.184
 3185POPC   C2B41948  28.852  12.154   6.538
 3185POPC   C3B41949  28.666  12.264   6.908
 3185POPC   C4B41950  28.617  12.345   7.308
 3186POPC   NC341951  25.506  29.474   5.334
 3186POPC   PO441952  25.299  30.127   5.374
 3186POPC   GL141953  25.352  30.287   5.787
 3186POPC   GL241954  25.039  30.147   5.923
 3186POPC   C1A41955  25.495  30.090   6.174
 3186POPC   D2A41956  25.511  29.800   6.523
 3186POPC   C3A41957  25.486  29.960   6.944
 3186POPC   C4A41958  25.496  29.838   7.333
 3186POPC   C1B41959  24.893  30.108   6.362
 3186POPC   C2B41960  25.007  29.888   6.742
 3186POPC   C3B41961  25.009  29.856   7.180
 3186POPC   C4B41962  25.110  30.145   7.498
 3187POPC   NC341963  13.027   2.283   5.329
 3187POPC   PO441964  12.713   1.708   5.463
 3187POPC   GL141965  12.724   2.061   5.730
 3187POPC   GL241966  13.053   2.070   5.821
 3187POPC   C1A41967  12.701   2.025   6.210
 3187POPC   D2A41968  12.996   2.000   6.577
 3187POPC   C3A41969  12.952   2.145   7.007
 3187POPC   C4A41970  12.917   2.525   7.229
 3187POPC   C1B41971  13.204   1.776   6.145
 3187POPC   C2B41972  13.382   1.664   6.562
 3187POPC   C3B41973  13.173   1.671   6.973
 3187POPC   C4B41974  13.262   1.874   7.370
 3188POPC   NC341975  24.657   5.327   5.112
 3188POPC   PO441976  24.307   4.840   5.210
 3188POPC   GL141977  24.441   4.895   5.694
 3188POPC   GL241978  24.341   5.165   5.955
 3188POPC   C1A41979  24.527   4.777   6.167
 3188POPC   D2A41980  24.543   5.088   6.512
 3188POPC   C3A41981  24.448   4.968   6.921
 3188POPC   C4A41982  24.587   4.984   7.344
 3188POPC   C1B41983  24.127   5.354   6.247
 3188POPC   C2B41984  24.253   5.493   6.634
 3188POPC   C3B41985  24.162   5.404   7.024
 3188POPC   C4B41986  23.891   5.478   7.282
 3189POPC   NC341987  19.058  15.390   5.533
 3189POPC   PO441988  19.257  14.834   5.192
 3189POPC   GL141989  18.961  14.873   5.643
 3189POPC   GL241990  18.998  15.125   5.955
 3189POPC   C1A41991  18.744  14.723   6.081
 3189POPC   D2A41992  18.981  14.830   6.496
 3189POPC   C3A41993  18.933  15.021   6.891
 3189POPC   C4A41994  19.211  15.171   7.177
 3189POPC   C1B41995  18.993  15.435   6.309
 3189POPC   C2B41996  19.303  15.698   6.521
 3189POPC   C3B41997  19.435  15.642   6.933
 3189POPC   C4B41998  19.500  15.519   7.387
 3190POPC   NC341999  38.968  31.882   5.515
 3190POPC   PO442000  38.999  32.637   5.564
 3190POPC   GL142001  39.173  32.430   5.907
 3190POPC   GL242002  39.540  32.394   5.900
 3190POPC   C1A42003  39.259  32.146   6.269
 3190POPC   D2A42004  39.434  31.863   6.598
 3190POPC   C3A42005  39.277  32.030   6.995
 3190POPC   C4A42006  38.941  32.120   7.243
 3190POPC   C1B42007  39.469  32.633   6.288
 3190POPC   C2B42008  39.292  32.731   6.688
 3190POPC   C3B42009  39.215  32.553   7.095
 3190POPC   C4B42010  39.603  32.478   7.228
 3191POPC   NC342011  43.240  43.563   5.547
 3191POPC   PO442012  42.904  44.136   5.418
 3191POPC   GL142013  42.855  43.859   5.788
 3191POPC   GL242014  43.205  43.855   5.957
 3191POPC   C1A42015  42.811  44.002   6.239
 3191POPC   D2A42016  43.091  44.038   6.610
 3191POPC   C3A42017  42.908  44.110   7.010
 3191POPC   C4A42018  42.780  43.859   7.310
 3191POPC   C1B42019  43.505  43.778   6.305
 3191POPC   C2B42020  43.578  43.895   6.748
 3191POPC   C3B42021  43.325  43.813   7.096
 3191POPC   C4B42022  43.362  43.590   7.458
 3192POPC   NC342023  41.994   9.267   5.294
 3192POPC   PO442024  41.604   8.749   5.213
 3192POPC   GL142025  41.540   8.914   5.682
 3192POPC   GL242026  41.541   9.240   5.766
 3192POPC   C1A42027  41.650   8.943   6.165
 3192POPC   D2A42028  41.595   8.684   6.532
 3192POPC   C3A42029  41.826   8.660   6.930
 3192POPC   C4A42030  41.568   8.790   7.264
 3192POPC   C1B42031  41.451   9.442   6.178
 3192POPC   C2B42032  41.597   9.561   6.596
 3192POPC   C3B42033  41.542   9.418   7.027
 3192POPC   C4B42034  41.509   9.260   7.460
 3193POPC   NC342035  35.496  30.202   5.497
 3193POPC   PO442036  35.122  29.761   5.533
 3193POPC   GL142037  35.206  29.933   5.912
 3193POPC   GL242038  35.551  30.017   5.969
 3193POPC   C1A42039  35.040  29.852   6.304
 3193POPC   D2A42040  35.037  30.024   6.718
 3193POPC   C3A42041  35.153  29.755   7.072
 3193POPC   C4A42042  35.197  29.944   7.499
 3193POPC   C1B42043  35.517  29.988   6.421
 3193POPC   C2B42044  35.672  29.776   6.801
 3193POPC   C3B42045  35.623  29.859   7.243
 3193POPC   C4B42046  35.685  30.066   7.654
 3194POPC   NC342047  15.600  21.452   5.398
 3194POPC   PO442048  14.917  21.199   5.308
 3194POPC   GL142049  15.142  21.326   5.672
 3194POPC   GL242050  15.077  21.654   5.777
 3194POPC   C1A42051  15.337  21.297   6.081
 3194POPC   D2A42052  15.255  21.053   6.455
 3194POPC   C3A42053  15.352  21.152   6.874
 3194POPC   C4A42054  15.225  21.319   7.236
 3194POPC   C1B42055  15.080  21.734   6.223
 3194POPC   C2B42056  15.025  21.564   6.665
 3194POPC   C3B42057  14.897  21.675   7.099
 3194POPC   C4B42058  14.968  21.594   7.591
 3195POPC   NC342059  21.270   7.298   5.444
 3195POPC   PO442060  21.773   7.024   5.787
 3195POPC   GL142061  21.555   7.375   5.975
 3195POPC   GL242062  21.199   7.475   5.921
 3195POPC   C1A42063  21.489   7.465   6.419
 3195POPC   D2A42064  21.733   7.505   6.817
 3195POPC   C3A42065  21.555   7.345   7.190
 3195POPC   C4A42066  21.711   7.472   7.575
 3195POPC   C1B42067  21.121   7.792   6.247
 3195POPC   C2B42068  21.065   7.676   6.702
 3195POPC   C3B42069  21.181   7.708   7.143
 3195POPC   C4B42070  21.035   7.647   7.574
 3196POPC   NC342071   1.488  22.442   5.341
 3196POPC   PO442072   0.979  22.074   5.237
 3196POPC   GL142073   1.134  22.152   5.658
 3196POPC   GL242074   0.920  21.941   5.827
 3196POPC   C1A42075   1.278  22.206   6.078
 3196POPC   D2A42076   1.084  22.040   6.431
 3196POPC   C3A42077   1.259  22.136   6.828
 3196POPC   C4A42078   1.145  22.106   7.257
 3196POPC   C1B42079   0.802  22.369   6.101
 3196POPC   C2B42080   0.942  22.505   6.542
 3196POPC   C3B42081   0.900  22.475   6.988
 3196POPC   C4B42082   0.978  22.756   7.289
 3197POPC   NC342083  30.896  44.211   5.207
 3197POPC   PO442084  30.562  43.648   5.349
 3197POPC   GL142085  30.580  43.801   5.750
 3197POPC   GL242086  30.874  43.966   5.691
 3197POPC   C1A42087  30.495  43.864   6.191
 3197POPC   D2A42088  30.723  43.703   6.549
 3197POPC   C3A42089  30.563  43.855   6.914
 3197POPC   C4A42090  30.529  44.034   7.331
 3197POPC   C1B42091  31.024  43.878   6.128
 3197POPC   C2B42092  31.214  43.987   6.545
 3197POPC   C3B42093  31.044  44.124   6.932
 3197POPC   C4B42094  31.032  43.881   7.276
 3198POPC   NC342095  25.201  42.826   5.538
 3198POPC   PO442096  24.892  43.464   5.340
 3198POPC   GL142097  24.987  43.253   5.744
 3198POPC   GL242098  25.252  43.433   5.916
 3198POPC   C1A42099  24.939  43.129   6.208
 3198POPC   D2A42100  25.193  43.013   6.612
 3198POPC   C3A42101  25.045  43.143   7.022
 3198POPC   C4A42102  25.178  43.079   7.473
 3198POPC   C1B42103  25.435  43.340   6.306
 3198POPC   C2B42104  25.444  43.444   6.734
 3198POPC   C3B42105  25.478  43.391   7.149
 3198POPC   C4B42106  25.684  43.138   7.448
 3199POPC   NC342107  43.847  34.143   5.130
 3199POPC   PO442108  43.574  34.525   5.587
 3199POPC   GL142109  43.892  34.412   5.821
 3199POPC   GL242110  44.116  34.682   5.818
 3199POPC   C1A42111  43.854  34.334   6.245
 3199POPC   D2A42112  43.996  34.444   6.611
 3199POPC   C3A42113  43.714  34.683   6.827
 3199POPC   C4A42114  43.806  34.433   7.168
 3199POPC   C1B42115  43.987  34.831   6.211
 3199POPC   C2B42116  44.214  34.910   6.583
 3199POPC   C3B42117  44.183  34.775   6.988
 3199POPC   C4B42118  43.861  34.916   7.269
 3200POPC   NC342119   5.302  13.570   5.368
 3200POPC   PO442120   4.683  13.616   5.482
 3200POPC   GL142121   5.005  13.512   5.782
 3200POPC   GL242122   5.195  13.815   5.824
 3200POPC   C1A42123   5.146  13.421   6.185
 3200POPC   D2A42124   4.909  13.413   6.525
 3200POPC   C3A42125   4.985  13.594   6.903
 3200POPC   C4A42126   5.317  13.549   7.133
 3200POPC   C1B42127   4.983  13.916   6.209
 3200POPC   C2B42128   5.047  14.049   6.635
 3200POPC   C3B42129   5.264  14.044   7.018
 3200POPC   C4B42130   4.962  13.932   7.319
 3201POPC   NC342131  37.805  32.762   5.187
 3201POPC   PO442132  37.376  33.210   5.414
 3201POPC   GL142133  37.781  33.201   5.629
 3201POPC   GL242134  37.940  32.869   5.748
 3201POPC   C1A42135  37.873  33.283   6.056
 3201POPC   D2A42136  37.762  33.287   6.500
 3201POPC   C3A42137  37.926  33.059   6.865
 3201POPC   C4A42138  37.834  33.082   7.268
 3201POPC   C1B42139  37.830  32.787   6.163
 3201POPC   C2B42140  37.642  32.793   6.551
 3201POPC   C3B42141  37.562  32.725   7.004
 3201POPC   C4B42142  37.484  32.742   7.473
 3202POPC   NC342143  21.498  32.618   5.412
 3202POPC   PO442144  21.349  31.951   5.494
 3202POPC   GL142145  21.566  32.136   5.841
 3202POPC   GL242146  21.480  32.496   5.906
 3202POPC   C1A42147  21.588  32.014   6.278
 3202POPC   D2A42148  21.321  32.119   6.631
 3202POPC   C3A42149  21.481  32.026   7.055
 3202POPC   C4A42150  21.252  31.984   7.479
 3202POPC   C1B42151  21.645  32.519   6.315
 3202POPC   C2B42152  21.767  32.355   6.701
 3202POPC   C3B42153  21.441  32.521   6.931
 3202POPC   C4B42154  21.306  32.676   7.291
 3203POPC   NC342155  20.881  23.601   5.392
 3203POPC   PO442156  20.256  23.644   5.504
 3203POPC   GL142157  20.581  23.742   5.820
 3203POPC   GL242158  20.927  23.542   5.887
 3203POPC   C1A42159  20.534  24.048   6.170
 3203POPC   D2A42160  20.451  23.917   6.596
 3203POPC   C3A42161  20.365  23.673   6.949
 3203POPC   C4A42162  20.544  23.872   7.286
 3203POPC   C1B42163  20.763  23.613   6.286
 3203POPC   C2B42164  20.763  23.516   6.676
 3203POPC   C3B42165  20.881  23.527   7.089
 3203POPC   C4B42166  20.967  23.434   7.546
 3204POPC   NC342167  28.610  41.029   5.380
 3204POPC   PO442168  28.140  40.663   5.501
 3204POPC   GL142169  28.499  40.670   5.815
 3204POPC   GL242170  28.632  40.987   5.883
 3204POPC   C1A42171  28.544  40.651   6.301
 3204POPC   D2A42172  28.220  40.697   6.653
 3204POPC   C3A42173  28.108  40.806   7.116
 3204POPC   C4A42174  28.209  40.599   7.529
 3204POPC   C1B42175  28.793  41.165   6.217
 3204POPC   C2B42176  28.819  40.993   6.592
 3204POPC   C3B42177  28.709  40.641   6.828
 3204POPC   C4B42178  28.638  40.676   7.271
 3205POPC   NC342179  41.332   2.034   5.363
 3205POPC   PO442180  41.880   2.185   5.205
 3205POPC   GL142181  41.753   2.086   5.729
 3205POPC   GL242182  41.412   1.992   5.852
 3205POPC   C1A42183  41.677   2.166   6.240
 3205POPC   D2A42184  41.561   2.308   6.689
 3205POPC   C3A42185  41.840   2.272   7.080
 3205POPC   C4A42186  41.844   1.981   7.450
 3205POPC   C1B42187  41.281   1.796   6.240
 3205POPC   C2B42188  41.347   1.834   6.672
 3205POPC   C3B42189  41.520   1.883   7.061
 3205POPC   C4B42190  41.324   1.826   7.474
 3206POPC   NC342191  27.570  10.892   5.359
 3206POPC   PO442192  27.375  10.217   5.491
 3206POPC   GL142193  27.510  10.458   5.846
 3206POPC   GL242194  27.459  10.814   5.841
 3206POPC   C1A42195  27.852  10.628   6.104
 3206POPC   D2A42196  27.752  10.824   6.470
 3206POPC   C3A42197  27.852  10.612   6.854
 3206POPC   C4A42198  27.972  10.743   7.254
 3206POPC   C1B42199  27.282  10.767   6.214
 3206POPC   C2B42200  27.293  11.011   6.556
 3206POPC   C3B42201  27.408  10.864   6.906
 3206POPC   C4B42202  27.491  10.672   7.267
 3207POPC   NC342203  32.133   5.779   5.418
 3207POPC   PO442204  32.041   6.333   5.663
 3207POPC   GL142205  32.175   6.068   5.934
 3207POPC   GL242206  32.024   6.275   6.190
 3207POPC   C1A42207  31.979   5.749   6.204
 3207POPC   D2A42208  31.894   5.691   6.650
 3207POPC   C3A42209  32.189   5.590   7.032
 3207POPC   C4A42210  32.468   5.473   7.404
 3207POPC   C1B42211  32.378   6.105   6.403
 3207POPC   C2B42212  32.565   6.261   6.755
 3207POPC   C3B42213  32.286   6.175   7.026
 3207POPC   C4B42214  32.484   5.998   7.344
 3208POPC   NC342215  34.192  13.728   5.473
 3208POPC   PO442216  33.563  13.938   5.285
 3208POPC   GL142217  33.651  13.660   5.677
 3208POPC   GL242218  33.900  13.371   5.738
 3208POPC   C1A42219  33.648  13.603   6.141
 3208POPC   D2A42220  33.551  13.816   6.544
 3208POPC   C3A42221  33.572  13.769   6.984
 3208POPC   C4A42222  33.480  13.887   7.425
 3208POPC   C1B42223  34.087  13.314   6.156
 3208POPC   C2B42224  34.015  13.539   6.510
 3208POPC   C3B42225  34.074  13.701   6.893
 3208POPC   C4B42226  33.932  13.601   7.274
 3209POPC   NC342227   8.189  12.346   5.487
 3209POPC   PO442228   7.934  11.835   5.482
 3209POPC   GL142229   8.142  11.984   5.849
 3209POPC   GL242230   8.407  11.770   5.860
 3209POPC   C1A42231   8.007  12.106   6.287
 3209POPC   D2A42232   7.865  12.087   6.742
 3209POPC   C3A42233   8.118  12.123   7.133
 3209POPC   C4A42234   8.127  11.939   7.533
 3209POPC   C1B42235   8.487  11.946   6.234
 3209POPC   C2B42236   8.332  11.866   6.618
 3209POPC   C3B42237   8.545  11.889   6.972
 3209POPC   C4B42238   8.518  11.655   7.316
 3210POPC   NC342239  38.356  31.324   5.122
 3210POPC   PO442240  38.498  31.792   5.671
 3210POPC   GL142241  38.451  31.392   5.825
 3210POPC   GL242242  38.136  31.321   5.661
 3210POPC   C1A42243  38.459  31.423   6.276
 3210POPC   D2A42244  38.463  31.678   6.647
 3210POPC   C3A42245  38.471  31.434   7.000
 3210POPC   C4A42246  38.814  31.602   7.224
 3210POPC   C1B42247  38.009  31.260   6.117
 3210POPC   C2B42248  38.005  31.495   6.519
 3210POPC   C3B42249  37.957  31.309   6.928
 3210POPC   C4B42250  38.100  31.143   7.319
 3211POPC   NC342251  13.269  37.338   5.556
 3211POPC   PO442252  12.632  37.502   5.460
 3211POPC   GL142253  12.819  37.521   5.832
 3211POPC   GL242254  13.119  37.720   5.926
 3211POPC   C1A42255  12.693  37.714   6.204
 3211POPC   D2A42256  12.890  37.826   6.573
 3211POPC   C3A42257  12.605  37.631   6.842
 3211POPC   C4A42258  12.485  37.625   7.260
 3211POPC   C1B42259  13.310  37.619   6.314
 3211POPC   C2B42260  13.289  37.547   6.774
 3211POPC   C3B42261  12.994  37.475   7.122
 3211POPC   C4B42262  13.044  37.553   7.554
 3212POPC   NC342263   9.498  27.488   5.482
 3212POPC   PO442264  10.015  27.832   5.424
 3212POPC   GL142265   9.848  27.699   5.821
 3212POPC   GL242266   9.795  27.326   5.870
 3212POPC   C1A42267   9.985  27.624   6.253
 3212POPC   D2A42268   9.801  27.641   6.659
 3212POPC   C3A42269   9.988  27.619   7.078
 3212POPC   C4A42270  10.013  27.758   7.533
 3212POPC   C1B42271   9.519  27.428   6.221
 3212POPC   C2B42272   9.414  27.307   6.623
 3212POPC   C3B42273   9.463  27.509   7.021
 3212POPC   C4B42274   9.609  27.476   7.429
 3213POPC   NC342275  41.553  22.391   5.367
 3213POPC   PO442276  41.804  21.779   5.637
 3213POPC   GL142277  41.582  22.131   5.865
 3213POPC   GL242278  41.296  22.364   5.803
 3213POPC   C1A42279  41.621  22.322   6.290
 3213POPC   D2A42280  41.778  22.433   6.731
 3213POPC   C3A42281  41.823  22.081   7.044
 3213POPC   C4A42282  41.644  22.049   7.473
 3213POPC   C1B42283  41.072  22.336   6.192
 3213POPC   C2B42284  41.112  22.314   6.651
 3213POPC   C3B42285  41.342  22.317   7.053
 3213POPC   C4B42286  41.174  22.238   7.473
 3214POPC   NC342287  27.293   1.670   5.429
 3214POPC   PO442288  27.923   1.910   5.387
 3214POPC   GL142289  27.681   1.803   5.753
 3214POPC   GL242290  27.516   2.126   5.836
 3214POPC   C1A42291  27.734   1.839   6.201
 3214POPC   D2A42292  27.822   2.053   6.589
 3214POPC   C3A42293  27.587   1.813   6.874
 3214POPC   C4A42294  27.438   1.792   7.283
 3214POPC   C1B42295  27.525   2.343   6.251
 3214POPC   C2B42296  27.344   2.257   6.676
 3214POPC   C3B42297  27.390   2.283   7.138
 3214POPC   C4B42298  27.290   2.401   7.589
 3215POPC   NC342299  14.700  43.621   5.592
 3215POPC   PO442300  14.076  43.942   5.425
 3215POPC   GL142301  14.327  43.913   5.827
 3215POPC   GL242302  14.618  44.080   5.945
 3215POPC   C1A42303  14.230  43.885   6.260
 3215POPC   D2A42304  14.291  43.884   6.686
 3215POPC   C3A42305  14.064  44.001   7.005
 3215POPC   C4A42306  14.267  43.691   7.241
 3215POPC   C1B42307  14.713  44.241   6.360
 3215POPC   C2B42308  14.603  44.271   6.792
 3215POPC   C3B42309  14.672  43.983   7.109
 3215POPC   C4B42310  14.864  43.592   7.037
 3216POPC   NC342311  32.668  28.561   5.401
 3216POPC   PO442312  32.203  28.114   5.420
 3216POPC   GL142313  32.259  28.302   5.814
 3216POPC   GL242314  32.611  28.404   5.891
 3216POPC   C1A42315  32.070  28.302   6.225
 3216POPC   D2A42316  32.210  28.551   6.584
 3216POPC   C3A42317  31.969  28.418   6.927
 3216POPC   C4A42318  32.114  28.310   7.292
 3216POPC   C1B42319  32.532  28.090   6.207
 3216POPC   C2B42320  32.640  28.125   6.638
 3216POPC   C3B42321  32.507  28.081   7.068
 3216POPC   C4B42322  32.500  27.991   7.516
 3217POPC   NC342323  10.838  44.689   5.226
 3217POPC   PO442324  10.262  44.690   5.595
 3217POPC   GL142325  10.438  44.462   5.932
 3217POPC   GL242326  10.750  44.683   6.046
 3217POPC   C1A42327  10.348  44.635   6.338
 3217POPC   D2A42328  10.166  44.999   6.526
 3217POPC   C3A42329  10.063  44.937   6.946
 3217POPC   C4A42330  10.365  44.949   7.293
 3217POPC   C1B42331  10.744  44.284   6.313
 3217POPC   C2B42332  10.454  44.224   6.612
 3217POPC   C3B42333  10.406  44.538   6.919
 3217POPC   C4B42334  10.565  44.486   7.333
 3218POPC   NC342335  36.639  26.344   5.426
 3218POPC   PO442336  37.341  26.312   5.372
 3218POPC   GL142337  37.057  26.266   5.712
 3218POPC   GL242338  36.820  25.952   5.785
 3218POPC   C1A42339  36.900  26.371   6.101
 3218POPC   D2A42340  37.055  26.086   6.418
 3218POPC   C3A42341  37.094  26.128   6.831
 3218POPC   C4A42342  36.952  26.104   7.227
 3218POPC   C1B42343  36.597  25.977   6.221
 3218POPC   C2B42344  36.606  26.025   6.697
 3218POPC   C3B42345  36.480  25.988   7.155
 3218POPC   C4B42346  36.292  25.975   7.564
 3219POPC   NC342347  33.186  33.119   5.453
 3219POPC   PO442348  32.538  33.355   5.601
 3219POPC   GL142349  32.718  33.158   5.930
 3219POPC   GL242350  33.019  32.963   5.899
 3219POPC   C1A42351  32.815  33.115   6.366
 3219POPC   D2A42352  33.125  33.184   6.695
 3219POPC   C3A42353  32.933  33.163   7.103
 3219POPC   C4A42354  32.873  33.022   7.532
 3219POPC   C1B42355  33.300  32.935   6.256
 3219POPC   C2B42356  33.282  32.654   6.603
 3219POPC   C3B42357  33.365  32.826   6.986
 3219POPC   C4B42358  33.432  33.262   7.137
 3220POPC   NC342359  14.701  25.277   5.424
 3220POPC   PO442360  14.057  25.353   5.693
 3220POPC   GL142361  14.451  25.358   5.875
 3220POPC   GL242362  14.529  25.033   5.858
 3220POPC   C1A42363  14.573  25.388   6.297
 3220POPC   D2A42364  14.296  25.417   6.656
 3220POPC   C3A42365  14.480  25.213   6.995
 3220POPC   C4A42366  14.560  25.426   7.316
 3220POPC   C1B42367  14.232  24.995   6.219
 3220POPC   C2B42368  14.347  24.872   6.628
 3220POPC   C3B42369  14.179  24.810   7.030
 3220POPC   C4B42370  14.231  24.991   7.441
 3221POPC   NC342371  13.701  36.444   5.445
 3221POPC   PO442372  13.517  37.080   5.259
 3221POPC   GL142373  13.639  36.995   5.708
 3221POPC   GL242374  13.329  36.879   5.841
 3221POPC   C1A42375  13.754  36.790   6.139
 3221POPC   D2A42376  13.733  36.578   6.582
 3221POPC   C3A42377  13.704  36.771   7.021
 3221POPC   C4A42378  13.829  37.019   7.400
 3221POPC   C1B42379  13.360  37.105   6.237
 3221POPC   C2B42380  13.396  37.027   6.686
 3221POPC   C3B42381  13.384  37.150   7.127
 3221POPC   C4B42382  13.104  37.061   7.472
 3222POPC   NC342383  17.297  21.415   5.502
 3222POPC   PO442384  17.962  21.507   5.361
 3222POPC   GL142385  17.725  21.407   5.799
 3222POPC   GL242386  17.369  21.249   5.973
 3222POPC   C1A42387  17.654  21.593   6.210
 3222POPC   D2A42388  17.800  21.490   6.617
 3222POPC   C3A42389  17.639  21.240   6.938
 3222POPC   C4A42390  17.683  21.331   7.365
 3222POPC   C1B42391  17.367  21.216   6.435
 3222POPC   C2B42392  17.172  21.379   6.812
 3222POPC   C3B42393  17.213  21.191   7.232
 3222POPC   C4B42394  17.251  21.394   7.660
 3223POPC   NC342395  18.963  27.309   5.598
 3223POPC   PO442396  18.924  26.691   5.295
 3223POPC   GL142397  18.833  26.848   5.771
 3223POPC   GL242398  19.168  26.926   5.867
 3223POPC   C1A42399  18.852  27.046   6.233
 3223POPC   D2A42400  18.826  27.183   6.662
 3223POPC   C3A42401  18.727  26.916   6.987
 3223POPC   C4A42402  18.840  26.663   7.357
 3223POPC   C1B42403  19.294  26.733   6.257
 3223POPC   C2B42404  19.448  26.808   6.678
 3223POPC   C3B42405  19.228  26.820   7.024
 3223POPC   C4B42406  19.324  26.866   7.409
 3224POPC   NC342407  25.409  26.353   5.418
 3224POPC   PO442408  25.163  25.698   5.308
 3224POPC   GL142409  25.244  25.965   5.719
 3224POPC   GL242410  25.065  26.277   5.828
 3224POPC   C1A42411  25.388  25.942   6.160
 3224POPC   D2A42412  25.478  26.199   6.525
 3224POPC   C3A42413  25.491  25.988   6.884
 3224POPC   C4A42414  25.287  25.956   7.259
 3224POPC   C1B42415  25.195  26.486   6.224
 3224POPC   C2B42416  25.115  26.566   6.671
 3224POPC   C3B42417  25.071  26.418   7.119
 3224POPC   C4B42418  25.176  26.335   7.596
 3225POPC   NC342419  14.325   1.139   5.581
 3225POPC   PO442420  14.476   1.721   5.556
 3225POPC   GL142421  14.511   1.473   5.919
 3225POPC   GL242422  14.736   1.141   5.867
 3225POPC   C1A42423  14.380   1.219   6.257
 3225POPC   D2A42424  14.297   1.316   6.672
 3225POPC   C3A42425  14.375   1.036   6.988
 3225POPC   C4A42426  14.414   1.338   7.219
 3225POPC   C1B42427  14.898   1.002   6.234
 3225POPC   C2B42428  14.718   0.975   6.624
 3225POPC   C3B42429  14.884   1.032   7.044
 3225POPC   C4B42430  14.646   0.968   7.455
 3226POPC   NC342431  16.643  18.538   5.385
 3226POPC   PO442432  16.976  17.903   5.409
 3226POPC   GL142433  16.763  18.201   5.755
 3226POPC   GL242434  16.387  18.315   5.762
 3226POPC   C1A42435  16.874  18.226   6.212
 3226POPC   D2A42436  17.077  18.472   6.564
 3226POPC   C3A42437  16.948  18.345   6.993
 3226POPC   C4A42438  16.876  17.934   7.207
 3226POPC   C1B42439  16.422  18.465   6.191
 3226POPC   C2B42440  16.573  18.387   6.615
 3226POPC   C3B42441  16.470  18.186   7.004
 3226POPC   C4B42442  16.599  18.298   7.406
 3227POPC   NC342443  18.389  21.690   5.424
 3227POPC   PO442444  18.546  21.037   5.684
 3227POPC   GL142445  18.258  21.329   5.838
 3227POPC   GL242446  18.447  21.610   5.898
 3227POPC   C1A42447  18.147  21.421   6.256
 3227POPC   D2A42448  18.342  21.413   6.635
 3227POPC   C3A42449  18.123  21.400   7.014
 3227POPC   C4A42450  18.140  21.782   7.182
 3227POPC   C1B42451  18.657  21.499   6.253
 3227POPC   C2B42452  18.795  21.716   6.623
 3227POPC   C3B42453  18.594  21.674   6.986
 3227POPC   C4B42454  18.532  21.367   7.325
 3228POPC   NC342455  12.451  38.584   5.469
 3228POPC   PO442456  11.767  38.442   5.331
 3228POPC   GL142457  11.834  38.589   5.754
 3228POPC   GL242458  12.195  38.524   5.921
 3228POPC   C1A42459  11.715  38.516   6.186
 3228POPC   D2A42460  12.013  38.388   6.507
 3228POPC   C3A42461  11.932  38.427   6.947
 3228POPC   C4A42462  11.797  38.154   7.269
 3228POPC   C1B42463  12.448  38.591   6.324
 3228POPC   C2B42464  12.418  38.566   6.793
 3228POPC   C3B42465  12.354  38.593   7.243
 3228POPC   C4B42466  12.315  38.581   7.693
 3229POPC   NC342467  44.505   0.547   5.240
 3229POPC   PO442468  44.411  44.920   5.358
 3229POPC   GL142469  44.520   0.322   5.717
 3229POPC   GL242470  44.505   0.679   5.743
 3229POPC   C1A42471  44.698   0.395   6.150
 3229POPC   D2A42472  44.823   0.664   6.507
 3229POPC   C3A42473  44.720   0.423   6.881
 3229POPC   C4A42474  44.725   0.440   7.319
 3229POPC   C1B42475  44.393   0.793   6.197
 3229POPC   C2B42476  44.319   0.626   6.591
 3229POPC   C3B42477  44.470   0.873   6.938
 3229POPC   C4B42478  44.405   0.824   7.360
 3230POPC   NC342479  16.968  38.556   5.390
 3230POPC   PO442480  17.718  38.335   5.381
 3230POPC   GL142481  17.610  38.351   5.802
 3230POPC   GL242482  17.365  38.119   5.911
 3230POPC   C1A42483  17.684  38.507   6.214
 3230POPC   D2A42484  17.435  38.546   6.591
 3230POPC   C3A42485  17.652  38.488   6.952
 3230POPC   C4A42486  17.464  38.320   7.322
 3230POPC   C1B42487  17.415  38.081   6.378
 3230POPC   C2B42488  17.403  38.046   6.856
 3230POPC   C3B42489  17.146  37.922   7.230
 3230POPC   C4B42490  17.175  37.841   7.686
 3231POPC   NC342491  32.464   2.494   5.564
 3231POPC   PO442492  32.248   1.918   5.155
 3231POPC   GL142493  32.159   2.064   5.595
 3231POPC   GL242494  32.018   2.369   5.747
 3231POPC   C1A42495  32.241   2.004   6.042
 3231POPC   D2A42496  32.330   1.770   6.436
 3231POPC   C3A42497  32.196   1.945   6.855
 3231POPC   C4A42498  32.270   1.843   7.312
 3231POPC   C1B42499  31.753   2.328   6.105
 3231POPC   C2B42500  31.843   2.299   6.536
 3231POPC   C3B42501  31.946   2.403   6.948
 3231POPC   C4B42502  31.858   2.146   7.256
 3232POPC   NC342503  32.168  22.026   5.313
 3232POPC   PO442504  32.218  22.679   5.534
 3232POPC   GL142505  32.327  22.441   5.885
 3232POPC   GL242506  32.387  22.093   5.790
 3232POPC   C1A42507  32.105  22.176   6.262
 3232POPC   D2A42508  32.142  21.992   6.715
 3232POPC   C3A42509  32.060  22.186   7.141
 3232POPC   C4A42510  31.967  22.392   7.534
 3232POPC   C1B42511  32.615  22.188   6.191
 3232POPC   C2B42512  32.482  22.374   6.582
 3232POPC   C3B42513  32.540  22.270   7.007
 3232POPC   C4B42514  32.465  21.854   7.232
 3233POPC   NC342515  39.638  37.350   5.599
 3233POPC   PO442516  40.341  37.624   5.458
 3233POPC   GL142517  40.119  37.620   5.817
 3233POPC   GL242518  40.242  37.908   5.980
 3233POPC   C1A42519  40.087  37.397   6.224
 3233POPC   D2A42520  39.811  37.280   6.590
 3233POPC   C3A42521  39.953  37.410   6.995
 3233POPC   C4A42522  39.739  37.530   7.382
 3233POPC   C1B42523  39.832  37.873   6.162
 3233POPC   C2B42524  39.718  37.958   6.577
 3233POPC   C3B42525  39.746  37.908   7.013
 3233POPC   C4B42526  40.048  37.921   7.343
 3234POPC   NC342527   8.537   2.996   5.530
 3234POPC   PO442528   8.186   2.431   5.358
 3234POPC   GL142529   8.201   2.643   5.723
 3234POPC   GL242530   8.554   2.525   5.793
 3234POPC   C1A42531   7.937   2.703   6.096
 3234POPC   D2A42532   7.936   2.448   6.477
 3234POPC   C3A42533   8.154   2.596   6.840
 3234POPC   C4A42534   8.047   2.913   7.169
 3234POPC   C1B42535   8.415   2.629   6.206
 3234POPC   C2B42536   8.319   2.979   6.496
 3234POPC   C3B42537   8.471   3.028   6.939
 3234POPC   C4B42538   8.484   2.645   7.235
 3235POPC   NC342539  17.072  28.948   5.475
 3235POPC   PO442540  16.418  29.215   5.433
 3235POPC   GL142541  16.724  29.189   5.805
 3235POPC   GL242542  16.799  28.816   5.884
 3235POPC   C1A42543  16.782  29.394   6.213
 3235POPC   D2A42544  17.001  29.312   6.626
 3235POPC   C3A42545  16.801  29.290   7.009
 3235POPC   C4A42546  16.835  29.317   7.454
 3235POPC   C1B42547  16.898  28.895   6.327
 3235POPC   C2B42548  16.628  28.887   6.721
 3235POPC   C3B42549  16.655  28.848   7.170
 3235POPC   C4B42550  16.992  28.825   7.411
 3236POPC   NC342551  25.900  14.624   5.557
 3236POPC   PO442552  26.387  14.156   5.371
 3236POPC   GL142553  26.159  14.280   5.783
 3236POPC   GL242554  25.889  14.179   5.941
 3236POPC   C1A42555  26.317  14.499   6.167
 3236POPC   D2A42556  26.298  14.762   6.537
 3236POPC   C3A42557  26.014  14.570   6.822
 3236POPC   C4A42558  25.842  14.328   7.179
 3236POPC   C1B42559  25.834  14.390   6.333
 3236POPC   C2B42560  25.544  14.607   6.604
 3236POPC   C3B42561  25.594  14.795   7.019
 3236POPC   C4B42562  25.506  14.625   7.454
 3237POPC   NC342563  20.120  13.297   5.647
 3237POPC   PO442564  19.580  13.298   5.236
 3237POPC   GL142565  19.787  13.629   5.782
 3237POPC   GL242566  19.817  13.979   5.871
 3237POPC   C1A42567  20.049  13.596   6.217
 3237POPC   D2A42568  20.215  13.334   6.578
 3237POPC   C3A42569  20.127  13.533   6.945
 3237POPC   C4A42570  19.824  13.536   7.224
 3237POPC   C1B42571  19.556  13.749   6.228
 3237POPC   C2B42572  19.501  13.690   6.701
 3237POPC   C3B42573  19.460  13.879   7.140
 3237POPC   C4B42574  19.598  13.795   7.601
 3238POPC   NC342575   4.931  10.756   5.637
 3238POPC   PO442576   5.463  10.984   5.352
 3238POPC   GL142577   5.452  10.710   5.778
 3238POPC   GL242578   5.229  10.394   5.847
 3238POPC   C1A42579   5.312  10.678   6.253
 3238POPC   D2A42580   5.092  10.454   6.618
 3238POPC   C3A42581   5.027  10.718   6.971
 3238POPC   C4A42582   5.015  10.579   7.377
 3238POPC   C1B42583   4.841  10.411   6.177
 3238POPC   C2B42584   4.603  10.332   6.562
 3238POPC   C3B42585   4.746  10.245   6.982
 3238POPC   C4B42586   4.595  10.301   7.387
 3239POPC   NC342587  26.595  30.469   5.201
 3239POPC   PO442588  27.002  30.904   5.500
 3239POPC   GL142589  26.711  30.695   5.809
 3239POPC   GL242590  26.466  30.413   5.739
 3239POPC   C1A42591  26.622  30.685   6.263
 3239POPC   D2A42592  26.796  30.654   6.674
 3239POPC   C3A42593  26.559  30.785   7.012
 3239POPC   C4A42594  26.555  30.596   7.380
 3239POPC   C1B42595  26.724  30.207   6.074
 3239POPC   C2B42596  26.730  30.109   6.543
 3239POPC   C3B42597  26.681  30.253   7.008
 3239POPC   C4B42598  26.885  30.140   7.429
 3240POPC   NC342599  37.773  35.784   5.496
 3240POPC   PO442600  37.468  35.167   5.345
 3240POPC   GL142601  37.665  35.318   5.741
 3240POPC   GL242602  37.699  34.996   5.850
 3240POPC   C1A42603  37.546  35.418   6.205
 3240POPC   D2A42604  37.725  35.426   6.638
 3240POPC   C3A42605  37.505  35.623   6.993
 3240POPC   C4A42606  37.213  35.626   7.367
 3240POPC   C1B42607  37.878  35.030   6.255
 3240POPC   C2B42608  38.086  35.056   6.665
 3240POPC   C3B42609  37.838  35.071   7.055
 3240POPC   C4B42610  37.604  35.307   7.379
 3241POPC   NC342611  21.410  33.318   5.344
 3241POPC   PO442612  21.845  32.880   5.255
 3241POPC   GL142613  21.608  33.004   5.723
 3241POPC   GL242614  21.280  33.198   5.840
 3241POPC   C1A42615  21.591  33.059   6.221
 3241POPC   D2A42616  21.340  33.184   6.612
 3241POPC   C3A42617  21.325  33.152   7.062
 3241POPC   C4A42618  21.498  33.112   7.464
 3241POPC   C1B42619  21.149  32.841   6.118
 3241POPC   C2B42620  21.202  32.701   6.528
 3241POPC   C3B42621  20.974  32.782   6.904
 3241POPC   C4B42622  20.798  32.808   7.314
 3242POPC   NC342623  28.165  43.548   5.593
 3242POPC   PO442624  28.689  43.261   5.326
 3242POPC   GL142625  28.518  43.273   5.798
 3242POPC   GL242626  28.342  42.944   5.930
 3242POPC   C1A42627  28.337  43.363   6.213
 3242POPC   D2A42628  28.169  43.313   6.625
 3242POPC   C3A42629  28.341  43.483   6.985
 3242POPC   C4A42630  28.188  43.375   7.363
 3242POPC   C1B42631  28.121  42.901   6.304
 3242POPC   C2B42632  28.310  42.817   6.702
 3242POPC   C3B42633  28.392  42.978   7.090
 3242POPC   C4B42634  28.623  42.850   7.415
 3243POPC   NC342635   5.706  18.202   5.419
 3243POPC   PO442636   6.323  18.473   5.413
 3243POPC   GL142637   6.003  18.464   5.759
 3243POPC   GL242638   6.042  18.154   5.806
 3243POPC   C1A42639   5.830  18.422   6.188
 3243POPC   D2A42640   5.694  18.562   6.576
 3243POPC   C3A42641   5.825  18.388   6.972
 3243POPC   C4A42642   5.863  18.767   7.205
 3243POPC   C1B42643   6.192  18.056   6.192
 3243POPC   C2B42644   6.002  18.014   6.576
 3243POPC   C3B42645   6.210  18.049   6.977
 3243POPC   C4B42646   6.003  17.996   7.375
 3244POPC   NC342647  44.780   4.610   5.279
 3244POPC   PO442648  44.592   4.047   5.530
 3244POPC   GL142649  44.570   4.427   5.725
 3244POPC   GL242650  44.909   4.530   5.768
 3244POPC   C1A42651  44.503   4.482   6.148
 3244POPC   D2A42652  44.542   4.168   6.479
 3244POPC   C3A42653  44.467   4.341   6.884
 3244POPC   C4A42654  44.485   4.243   7.295
 3244POPC   C1B42655  44.987   4.648   6.192
 3244POPC   C2B42656  44.857   4.563   6.606
 3244POPC   C3B42657  44.877   4.604   7.061
 3244POPC   C4B42658   0.071   4.217   7.193
 3245POPC   NC342659   7.674  21.385   5.351
 3245POPC   PO442660   7.093  21.682   5.381
 3245POPC   GL142661   7.387  21.632   5.761
 3245POPC   GL242662   7.442  21.267   5.809
 3245POPC   C1A42663   7.273  21.544   6.228
 3245POPC   D2A42664   7.129  21.293   6.610
 3245POPC   C3A42665   7.332  21.395   7.035
 3245POPC   C4A42666   7.241  21.467   7.511
 3245POPC   C1B42667   7.582  21.124   6.224
 3245POPC   C2B42668   7.627  21.118   6.670
 3245POPC   C3B42669   7.709  21.031   7.085
 3245POPC   C4B42670   7.717  21.291   7.402
 3246POPC   NC342671  26.593  10.707   5.461
 3246POPC   PO442672  27.134  10.929   5.474
 3246POPC   GL142673  26.947  10.643   5.826
 3246POPC   GL242674  26.579  10.798   5.946
 3246POPC   C1A42675  26.775  10.367   6.147
 3246POPC   D2A42676  26.499  10.267   6.507
 3246POPC   C3A42677  26.515  10.465   6.944
 3246POPC   C4A42678  26.705  10.271   7.368
 3246POPC   C1B42679  26.795  10.862   6.320
 3246POPC   C2B42680  26.953  10.627   6.652
 3246POPC   C3B42681  27.035  10.534   7.077
 3246POPC   C4B42682  27.062  10.608   7.519
 3247POPC   NC342683  17.009   5.290   5.371
 3247POPC   PO442684  16.394   4.984   5.504
 3247POPC   GL142685  16.661   4.751   5.843
 3247POPC   GL242686  17.016   4.813   5.776
 3247POPC   C1A42687  16.693   4.748   6.332
 3247POPC   D2A42688  16.640   4.726   6.790
 3247POPC   C3A42689  16.532   5.150   7.030
 3247POPC   C4A42690  16.394   5.376   7.404
 3247POPC   C1B42691  17.061   5.054   6.151
 3247POPC   C2B42692  17.134   4.994   6.627
 3247POPC   C3B42693  17.087   5.269   7.017
 3247POPC   C4B42694  16.891   5.296   7.447
 3248POPC   NC342695   6.960   6.554   5.436
 3248POPC   PO442696   6.429   6.912   5.732
 3248POPC   GL142697   6.707   6.679   5.919
 3248POPC   GL242698   6.648   6.383   5.799
 3248POPC   C1A42699   6.529   6.517   6.309
 3248POPC   D2A42700   6.423   6.633   6.727
 3248POPC   C3A42701   6.759   6.817   6.876
 3248POPC   C4A42702   6.881   6.934   7.257
 3248POPC   C1B42703   6.937   6.257   6.118
 3248POPC   C2B42704   6.840   6.142   6.539
 3248POPC   C3B42705   6.546   6.173   6.876
 3248POPC   C4B42706   6.599   6.453   7.217
 3249POPC   NC342707   3.637   1.697   5.518
 3249POPC   PO442708   3.370   2.309   5.444
 3249POPC   GL142709   3.616   2.159   5.808
 3249POPC   GL242710   3.392   1.914   5.922
 3249POPC   C1A42711   3.728   2.151   6.268
 3249POPC   D2A42712   4.042   2.376   6.513
 3249POPC   C3A42713   4.047   2.208   6.928
 3249POPC   C4A42714   3.664   2.147   7.147
 3249POPC   C1B42715   3.499   1.712   6.305
 3249POPC   C2B42716   3.768   1.824   6.674
 3249POPC   C3B42717   3.686   1.656   7.074
 3249POPC   C4B42718   3.599   1.398   7.431
 3250POPC   NC342719  32.529  30.309   5.448
 3250POPC   PO442720  32.737  29.694   5.313
 3250POPC   GL142721  33.053  29.730   5.717
 3250POPC   GL242722  33.200  30.088   5.745
 3250POPC   C1A42723  33.212  29.842   6.200
 3250POPC   D2A42724  33.051  30.103   6.568
 3250POPC   C3A42725  33.277  30.036   6.953
 3250POPC   C4A42726  33.262  29.708   7.275
 3250POPC   C1B42727  32.838  30.149   6.049
 3250POPC   C2B42728  32.659  30.396   6.389
 3250POPC   C3B42729  32.572  30.395   6.813
 3250POPC   C4B42730  32.720  30.262   7.200
 3251POPC   NC342731  14.142   8.372   5.381
 3251POPC   PO442732  14.803   8.403   5.414
 3251POPC   GL142733  14.534   8.259   5.747
 3251POPC   GL242734  14.327   7.951   5.691
 3251POPC   C1A42735  14.463   8.397   6.161
 3251POPC   D2A42736  14.578   8.195   6.549
 3251POPC   C3A42737  14.321   8.283   6.901
 3251POPC   C4A42738  14.527   8.302   7.231
 3251POPC   C1B42739  14.355   7.906   6.150
 3251POPC   C2B42740  14.259   7.768   6.610
 3251POPC   C3B42741  14.388   7.807   7.068
 3251POPC   C4B42742  14.624   7.865   7.448
 3252POPC   NC342743  16.204  36.903   5.417
 3252POPC   PO442744  15.594  36.609   5.467
 3252POPC   GL142745  15.840  36.822   5.760
 3252POPC   GL242746  15.757  36.592   5.989
 3252POPC   C1A42747  16.145  36.891   6.120
 3252POPC   D2A42748  15.968  36.917   6.542
 3252POPC   C3A42749  16.098  37.142   6.881
 3252POPC   C4A42750  16.268  36.945   7.199
 3252POPC   C1B42751  15.607  36.940   6.196
 3252POPC   C2B42752  15.348  37.068   6.484
 3252POPC   C3B42753  15.579  37.075   6.812
 3252POPC   C4B42754  15.638  36.970   7.218
 3253POPC   NC342755  39.657  40.821   5.238
 3253POPC   PO442756  40.280  40.583   5.059
 3253POPC   GL142757  40.122  40.751   5.501
 3253POPC   GL242758  39.842  40.572   5.689
 3253POPC   C1A42759  40.079  40.962   5.950
 3253POPC   D2A42760  39.897  41.054   6.381
 3253POPC   C3A42761  40.099  40.973   6.807
 3253POPC   C4A42762  40.323  40.824   7.213
 3253POPC   C1B42763  39.963  40.455   6.144
 3253POPC   C2B42764  40.148  40.476   6.600
 3253POPC   C3B42765  39.943  40.535   7.027
 3253POPC   C4B42766  39.725  40.457   7.443
 3254POPC   NC342767  29.306   7.616   5.563
 3254POPC   PO442768  29.029   7.034   5.298
 3254POPC   GL142769  29.044   7.198   5.797
 3254POPC   GL242770  29.043   7.528   5.987
 3254POPC   C1A42771  29.313   7.204   6.235
 3254POPC   D2A42772  29.330   7.400   6.638
 3254POPC   C3A42773  29.109   7.485   7.024
 3254POPC   C4A42774  29.397   7.682   7.268
 3254POPC   C1B42775  28.812   7.253   6.299
 3254POPC   C2B42776  28.781   7.172   6.750
 3254POPC   C3B42777  28.682   7.205   7.211
 3254POPC   C4B42778  28.770   7.557   7.470
 3255POPC   NC342779  17.337  28.009   5.572
 3255POPC   PO442780  17.803  27.478   5.693
 3255POPC   GL142781  17.518  27.697   5.933
 3255POPC   GL242782  17.730  27.999   5.907
 3255POPC   C1A42783  17.245  27.664   6.317
 3255POPC   D2A42784  17.192  27.339   6.655
 3255POPC   C3A42785  17.336  27.513   7.056
 3255POPC   C4A42786  17.267  27.974   7.095
 3255POPC   C1B42787  17.697  27.921   6.342
 3255POPC   C2B42788  17.643  27.679   6.685
 3255POPC   C3B42789  17.862  27.556   7.050
 3255POPC   C4B42790  17.743  27.424   7.435
 3256POPC   NC342791  40.639  40.741   5.365
 3256POPC   PO442792  41.309  40.672   5.408
 3256POPC   GL142793  41.015  40.809   5.743
 3256POPC   GL242794  40.797  40.530   5.828
 3256POPC   C1A42795  40.773  40.959   6.138
 3256POPC   D2A42796  40.488  40.866   6.482
 3256POPC   C3A42797  40.660  41.006   6.891
 3256POPC   C4A42798  40.800  40.988   7.361
 3256POPC   C1B42799  41.065  40.538   6.201
 3256POPC   C2B42800  40.956  40.660   6.627
 3256POPC   C3B42801  40.956  40.570   7.076
 3256POPC   C4B42802  41.056  40.550   7.513
 3257POPC   NC342803   8.780  37.117   5.367
 3257POPC   PO442804   9.030  36.428   5.455
 3257POPC   GL142805   8.798  36.683   5.745
 3257POPC   GL242806   9.045  36.941   5.791
 3257POPC   C1A42807   8.804  36.697   6.231
 3257POPC   D2A42808   9.056  36.843   6.622
 3257POPC   C3A42809   9.031  36.676   7.035
 3257POPC   C4A42810   8.805  36.793   7.412
 3257POPC   C1B42811   9.251  37.035   6.195
 3257POPC   C2B42812   9.490  37.142   6.590
 3257POPC   C3B42813   9.414  37.087   7.024
 3257POPC   C4B42814   9.020  37.199   7.203
 3258POPC   NC342815  21.604  39.538   5.252
 3258POPC   PO442816  21.180  39.042   5.436
 3258POPC   GL142817  21.385  39.082   5.827
 3258POPC   GL242818  21.508  39.423   5.804
 3258POPC   C1A42819  21.216  39.268   6.223
 3258POPC   D2A42820  20.982  39.120   6.562
 3258POPC   C3A42821  21.094  39.319   6.961
 3258POPC   C4A42822  21.459  39.169   7.181
 3258POPC   C1B42823  21.708  39.405   6.227
 3258POPC   C2B42824  21.657  39.338   6.688
 3258POPC   C3B42825  21.837  39.475   7.084
 3258POPC   C4B42826  21.811  39.383   7.509
 3259POPC   NC342827  17.290  11.266   5.596
 3259POPC   PO442828  17.779  11.720   5.623
 3259POPC   GL142829  17.690  11.385   5.920
 3259POPC   GL242830  17.869  11.069   5.783
 3259POPC   C1A42831  17.441  11.295   6.313
 3259POPC   D2A42832  17.190  11.229   6.715
 3259POPC   C3A42833  17.379  11.446   7.006
 3259POPC   C4A42834  17.774  11.442   7.180
 3259POPC   C1B42835  17.794  10.882   6.208
 3259POPC   C2B42836  17.684  10.976   6.643
 3259POPC   C3B42837  17.602  10.972   7.067
 3259POPC   C4B42838  17.214  11.012   7.235
 3260POPC   NC342839   8.202  37.853   5.663
 3260POPC   PO442840   8.230  38.556   5.413
 3260POPC   GL142841   8.201  38.643   5.821
 3260POPC   GL242842   8.059  38.332   5.889
 3260POPC   C1A42843   8.401  38.599   6.231
 3260POPC   D2A42844   8.343  38.823   6.620
 3260POPC   C3A42845   8.371  38.657   7.043
 3260POPC   C4A42846   8.517  38.611   7.502
 3260POPC   C1B42847   7.895  38.514   6.297
 3260POPC   C2B42848   7.675  38.466   6.723
 3260POPC   C3B42849   7.776  38.477   7.186
 3260POPC   C4B42850   8.045  38.762   7.418
 3261POPC   NC342851  17.563  41.729   5.326
 3261POPC   PO442852  17.013  41.389   5.539
 3261POPC   GL142853  17.407  41.500   5.756
 3261POPC   GL242854  17.542  41.866   5.817
 3261POPC   C1A42855  17.483  41.523   6.203
 3261POPC   D2A42856  17.420  41.811   6.541
 3261POPC   C3A42857  17.491  41.570   6.902
 3261POPC   C4A42858  17.401  41.692   7.305
 3261POPC   C1B42859  17.821  41.905   6.193
 3261POPC   C2B42860  17.935  41.779   6.627
 3261POPC   C3B42861  17.812  41.927   7.082
 3261POPC   C4B42862  17.617  42.106   7.483
 3262POPC   NC342863   6.250  20.644   5.443
 3262POPC   PO442864   6.904  20.872   5.316
 3262POPC   GL142865   6.733  20.602   5.674
 3262POPC   GL242866   6.492  20.799   5.901
 3262POPC   C1A42867   6.787  20.446   6.112
 3262POPC   D2A42868   6.832  20.719   6.485
 3262POPC   C3A42869   6.872  20.513   6.891
 3262POPC   C4A42870   6.674  20.193   7.109
 3262POPC   C1B42871   6.312  20.610   6.264
 3262POPC   C2B42872   6.390  20.496   6.696
 3262POPC   C3B42873   6.420  20.656   7.108
 3262POPC   C4B42874   6.464  20.931   7.478
 3263POPC   NC342875   0.701   9.465   5.576
 3263POPC   PO442876   1.250   9.752   5.328
 3263POPC   GL142877   1.303   9.667   5.770
 3263POPC   GL242878   1.002   9.787   5.864
 3263POPC   C1A42879   1.339   9.704   6.253
 3263POPC   D2A42880   1.129   9.471   6.622
 3263POPC   C3A42881   1.319   9.519   7.022
 3263POPC   C4A42882   1.366   9.920   7.152
 3263POPC   C1B42883   0.839   9.677   6.247
 3263POPC   C2B42884   0.824   9.907   6.640
 3263POPC   C3B42885   0.862   9.777   7.044
 3263POPC   C4B42886   0.814   9.410   7.205
 3264POPC   NC342887  33.495  34.055   5.532
 3264POPC   PO442888  34.225  34.081   5.533
 3264POPC   GL142889  33.882  33.806   5.816
 3264POPC   GL242890  33.645  34.025   6.013
 3264POPC   C1A42891  33.812  33.632   6.302
 3264POPC   D2A42892  34.042  33.682   6.713
 3264POPC   C3A42893  33.778  33.827   7.060
 3264POPC   C4A42894  33.502  33.725   7.364
 3264POPC   C1B42895  34.058  34.059   6.219
 3264POPC   C2B42896  34.046  34.187   6.602
 3264POPC   C3B42897  34.175  34.123   6.981
 3264POPC   C4B42898  34.084  34.102   7.377
 3265POPC   NC342899   2.961  20.120   5.437
 3265POPC   PO442900   2.356  19.797   5.453
 3265POPC   GL142901   2.546  19.565   5.800
 3265POPC   GL242902   2.912  19.648   5.789
 3265POPC   C1A42903   2.665  19.544   6.217
 3265POPC   D2A42904   2.975  19.605   6.495
 3265POPC   C3A42905   2.649  19.588   6.788
 3265POPC   C4A42906   2.695  19.534   7.216
 3265POPC   C1B42907   2.897  19.996   6.135
 3265POPC   C2B42908   2.785  20.099   6.567
 3265POPC   C3B42909   2.971  19.947   6.931
 3265POPC   C4B42910   3.094  19.864   7.321
 3266POPC   NC342911   0.781  28.038   5.379
 3266POPC   PO442912   0.421  28.677   5.501
 3266POPC   GL142913   0.525  28.380   5.798
 3266POPC   GL242914   0.256  28.108   5.796
 3266POPC   C1A42915   0.738  28.366   6.210
 3266POPC   D2A42916   0.731  28.206   6.639
 3266POPC   C3A42917   0.892  28.488   6.950
 3266POPC   C4A42918   0.715  28.608   7.344
 3266POPC   C1B42919   0.229  28.287   6.216
 3266POPC   C2B42920   0.252  28.339   6.638
 3266POPC   C3B42921   0.384  28.333   7.049
 3266POPC   C4B42922   0.120  28.019   7.224
 3267POPC   NC342923  31.928  40.050   5.203
 3267POPC   PO442924  31.321  39.910   5.522
 3267POPC   GL142925  31.314  39.932   5.912
 3267POPC   GL242926  31.558  39.671   5.922
 3267POPC   C1A42927  31.534  40.091   6.271
 3267POPC   D2A42928  31.609  40.143   6.694
 3267POPC   C3A42929  31.300  39.986   6.991
 3267POPC   C4A42930  31.647  40.066   7.236
 3267POPC   C1B42931  31.304  39.592   6.266
 3267POPC   C2B42932  31.468  39.676   6.623
 3267POPC   C3B42933  31.610  39.577   7.025
 3267POPC   C4B42934  31.459  39.640   7.448
 3268POPC   NC342935   8.016  22.943   5.354
 3268POPC   PO442936   8.711  23.045   5.463
 3268POPC   GL142937   8.371  22.880   5.761
 3268POPC   GL242938   8.025  22.995   5.860
 3268POPC   C1A42939   8.406  22.650   6.164
 3268POPC   D2A42940   8.433  22.797   6.621
 3268POPC   C3A42941   8.191  22.692   7.029
 3268POPC   C4A42942   7.943  22.784   7.432
 3268POPC   C1B42943   8.047  22.988   6.309
 3268POPC   C2B42944   7.899  23.202   6.668
 3268POPC   C3B42945   7.957  23.163   7.090
 3268POPC   C4B42946   7.877  23.297   7.505
 3269POPC   NC342947   4.825   8.138   5.604
 3269POPC   PO442948   5.304   7.916   5.217
 3269POPC   GL142949   5.300   8.116   5.765
 3269POPC   GL242950   5.083   8.394   5.935
 3269POPC   C1A42951   5.210   8.025   6.244
 3269POPC   D2A42952   5.465   7.979   6.621
 3269POPC   C3A42953   5.357   8.216   6.968
 3269POPC   C4A42954   5.204   8.074   7.321
 3269POPC   C1B42955   4.780   8.433   6.265
 3269POPC   C2B42956   4.958   8.352   6.668
 3269POPC   C3B42957   4.857   8.371   7.101
 3269POPC   C4B42958   4.880   8.384   7.541
 3270POPC   NC342959   3.767  29.242   5.377
 3270POPC   PO442960   3.088  29.265   5.226
 3270POPC   GL142961   3.348  29.300   5.689
 3270POPC   GL242962   3.699  29.338   5.863
 3270POPC   C1A42963   3.332  29.084   6.123
 3270POPC   D2A42964   3.255  29.339   6.514
 3270POPC   C3A42965   3.248  29.195   6.909
 3270POPC   C4A42966   3.431  29.322   7.246
 3270POPC   C1B42967   3.731  29.308   6.312
 3270POPC   C2B42968   3.599  28.979   6.555
 3270POPC   C3B42969   3.657  28.895   6.937
 3270POPC   C4B42970   3.890  29.026   7.267
 3271POPC   NC342971   4.648  15.570   5.164
 3271POPC   PO442972   4.261  15.127   5.461
 3271POPC   GL142973   4.402  15.012   5.842
 3271POPC   GL242974   4.689  15.222   5.874
 3271POPC   C1A42975   4.246  14.919   6.252
 3271POPC   D2A42976   4.334  14.760   6.638
 3271POPC   C3A42977   4.257  14.980   6.996
 3271POPC   C4A42978   4.168  14.864   7.379
 3271POPC   C1B42979   4.561  15.345   6.273
 3271POPC   C2B42980   4.402  15.358   6.672
 3271POPC   C3B42981   4.236  15.499   7.072
 3271POPC   C4B42982   4.451  15.311   7.403
 3272POPC   NC342983  31.700  38.522   5.385
 3272POPC   PO442984  31.458  37.869   5.373
 3272POPC   GL142985  31.587  38.149   5.693
 3272POPC   GL242986  31.351  38.436   5.749
 3272POPC   C1A42987  31.738  38.265   6.101
 3272POPC   D2A42988  31.646  38.530   6.459
 3272POPC   C3A42989  31.443  38.335   6.821
 3272POPC   C4A42990  31.609  38.341   7.221
 3272POPC   C1B42991  31.217  38.560   6.165
 3272POPC   C2B42992  31.193  38.724   6.608
 3272POPC   C3B42993  31.464  38.842   6.987
 3272POPC   C4B42994  31.515  38.789   7.440
 3273POPC   NC342995   2.890   8.605   5.449
 3273POPC   PO442996   2.494   7.988   5.418
 3273POPC   GL142997   2.779   8.155   5.732
 3273POPC   GL242998   2.521   8.141   5.976
 3273POPC   C1A42999   2.974   8.350   6.100
 3273POPC   D2A43000   2.780   8.391   6.500
 3273POPC   C3A43001   2.966   8.375   6.905
 3273POPC   C4A43002   2.687   8.510   7.224
 3273POPC   C1B43003   2.735   7.917   6.300
 3273POPC   C2B43004   2.719   7.930   6.747
 3273POPC   C3B43005   2.772   8.003   7.198
 3273POPC   C4B43006   2.993   8.014   7.612
 3274POPC   NC343007  16.418  19.965   5.408
 3274POPC   PO443008  16.998  19.556   5.470
 3274POPC   GL143009  16.728  19.771   5.798
 3274POPC   GL243010  16.724  20.157   5.778
 3274POPC   C1A43011  16.581  19.659   6.213
 3274POPC   D2A43012  16.789  19.587   6.607
 3274POPC   C3A43013  16.837  19.897   6.922
 3274POPC   C4A43014  16.830  19.660   7.245
 3274POPC   C1B43015  16.463  20.155   6.144
 3274POPC   C2B43016  16.468  20.023   6.577
 3274POPC   C3B43017  16.334  19.866   6.997
 3274POPC   C4B43018  16.492  20.010   7.392
 3275POPC   NC343019  28.379  44.454   5.547
 3275POPC   PO443020  28.503   0.140   5.679
 3275POPC   GL143021  28.284  44.800   5.912
 3275POPC   GL243022  28.079  44.463   5.955
 3275POPC   C1A43023  28.345  44.797   6.342
 3275POPC   D2A43024  28.591  44.693   6.669
 3275POPC   C3A43025  28.445  44.844   7.001
 3275POPC   C4A43026  28.769   0.054   7.180
 3275POPC   C1B43027  28.380  44.294   6.226
 3275POPC   C2B43028  28.346  44.254   6.643
 3275POPC   C3B43029  28.542  44.298   7.045
 3275POPC   C4B43030  28.427  44.492   7.414
 3276POPC   NC343031  13.932   9.968   5.415
 3276POPC   PO443032  13.335   9.567   5.351
 3276POPC   GL143033  13.530   9.752   5.721
 3276POPC   GL243034  13.836   9.683   5.838
 3276POPC   C1A43035  13.485   9.646   6.205
 3276POPC   D2A43036  13.433   9.834   6.621
 3276POPC   C3A43037  13.532   9.692   7.055
 3276POPC   C4A43038  13.541   9.866   7.487
 3276POPC   C1B43039  14.039   9.732   6.219
 3276POPC   C2B43040  13.917   9.626   6.626
 3276POPC   C3B43041  14.081   9.738   7.001
 3276POPC   C4B43042  13.970   9.629   7.379
 3277POPC   NC343043   4.807  38.046   5.425
 3277POPC   PO443044   5.353  37.549   5.429
 3277POPC   GL143045   5.209  37.797   5.766
 3277POPC   GL243046   4.857  37.711   5.801
 3277POPC   C1A43047   5.122  37.789   6.215
 3277POPC   D2A43048   5.315  37.592   6.527
 3277POPC   C3A43049   5.107  37.592   6.866
 3277POPC   C4A43050   5.278  37.855   7.136
 3277POPC   C1B43051   4.639  37.966   6.112
 3277POPC   C2B43052   4.713  37.908   6.548
 3277POPC   C3B43053   4.748  38.009   6.972
 3277POPC   C4B43054   4.796  37.748   7.311
 3278POPC   NC343055  31.387  39.465   5.493
 3278POPC   PO443056  31.349  38.831   5.380
 3278POPC   GL143057  31.223  39.012   5.775
 3278POPC   GL243058  31.557  39.152   5.855
 3278POPC   C1A43059  31.210  39.081   6.227
 3278POPC   D2A43060  31.307  39.213   6.646
 3278POPC   C3A43061  31.120  39.459   6.967
 3278POPC   C4A43062  31.230  39.211   7.310
 3278POPC   C1B43063  31.690  39.264   6.266
 3278POPC   C2B43064  31.803  39.039   6.616
 3278POPC   C3B43065  31.961  39.188   6.989
 3278POPC   C4B43066  31.751  39.227   7.360
 3279POPC   NC343067  21.221  15.412   5.362
 3279POPC   PO443068  21.185  14.831   5.425
 3279POPC   GL143069  21.289  15.043   5.832
 3279POPC   GL243070  21.452  15.379   5.816
 3279POPC   C1A43071  21.242  15.113   6.288
 3279POPC   D2A43072  21.161  14.829   6.659
 3279POPC   C3A43073  21.341  14.905   7.063
 3279POPC   C4A43074  21.078  15.239   7.223
 3279POPC   C1B43075  21.701  15.377   6.197
 3279POPC   C2B43076  21.659  15.546   6.619
 3279POPC   C3B43077  21.529  15.400   7.024
 3279POPC   C4B43078  21.787  15.378   7.401
 3280POPC   NC343079  15.661  41.288   5.456
 3280POPC   PO443080  16.087  41.805   5.480
 3280POPC   GL143081  15.865  41.607   5.811
 3280POPC   GL243082  16.131  41.428   5.996
 3280POPC   C1A43083  15.800  41.757   6.226
 3280POPC   D2A43084  16.137  41.681   6.519
 3280POPC   C3A43085  16.044  41.723   6.948
 3280POPC   C4A43086  15.889  41.934   7.300
 3280POPC   C1B43087  15.914  41.228   6.342
 3280POPC   C2B43088  15.705  41.406   6.668
 3280POPC   C3B43089  15.869  41.257   7.042
 3280POPC   C4B43090  16.276  41.063   7.126
 3281POPC   NC343091   1.526  23.358   5.454
 3281POPC   PO443092   1.049  23.876   5.373
 3281POPC   GL143093   1.230  23.739   5.766
 3281POPC   GL243094   0.873  23.706   5.836
 3281POPC   C1A43095   1.388  23.700   6.206
 3281POPC   D2A43096   1.184  23.579   6.605
 3281POPC   C3A43097   1.397  23.612   6.955
 3281POPC   C4A43098   1.393  23.429   7.350
 3281POPC   C1B43099   0.878  23.778   6.257
 3281POPC   C2B43100   1.138  24.097   6.465
 3281POPC   C3B43101   1.281  24.152   6.885
 3281POPC   C4B43102   1.138  23.922   7.256
 3282POPC   NC343103  29.374  20.162   5.383
 3282POPC   PO443104  29.341  19.558   5.540
 3282POPC   GL143105  29.124  19.813   5.816
 3282POPC   GL243106  28.828  20.001   5.635
 3282POPC   C1A43107  29.229  19.859   6.284
 3282POPC   D2A43108  29.120  19.691   6.703
 3282POPC   C3A43109  29.289  19.875   7.104
 3282POPC   C4A43110  29.370  20.251   7.416
 3282POPC   C1B43111  28.790  20.047   6.100
 3282POPC   C2B43112  28.818  20.179   6.537
 3282POPC   C3B43113  28.791  19.987   6.939
 3282POPC   C4B43114  28.867  19.614   7.229
 3283POPC   NC343115   6.356   7.337   5.584
 3283POPC   PO443116   6.741   7.736   5.259
 3283POPC   GL143117   6.843   7.566   5.695
 3283POPC   GL243118   6.871   7.197   5.772
 3283POPC   C1A43119   6.872   7.563   6.162
 3283POPC   D2A43120   6.707   7.422   6.576
 3283POPC   C3A43121   6.847   7.407   7.012
 3283POPC   C4A43122   6.630   7.361   7.385
 3283POPC   C1B43123   6.840   7.055   6.221
 3283POPC   C2B43124   6.425   7.034   6.423
 3283POPC   C3B43125   6.371   7.152   6.862
 3283POPC   C4B43126   6.370   6.927   7.241
 3284POPC   NC343127  38.931  42.509   5.185
 3284POPC   PO443128  39.292  42.078   5.641
 3284POPC   GL143129  39.105  42.190   6.012
 3284POPC   GL243130  38.962  42.528   5.941
 3284POPC   C1A43131  39.243  42.039   6.422
 3284POPC   D2A43132  39.618  41.954   6.672
 3284POPC   C3A43133  39.456  42.115   7.024
 3284POPC   C4A43134  39.004  42.200   6.949
 3284POPC   C1B43135  39.143  42.595   6.354
 3284POPC   C2B43136  39.517  42.479   6.593
 3284POPC   C3B43137  39.604  42.598   7.002
 3284POPC   C4B43138  39.178  42.622   7.181
 3285POPC   NC343139  23.908  23.376   5.585
 3285POPC   PO443140  23.401  23.696   5.411
 3285POPC   GL143141  23.457  23.581   5.812
 3285POPC   GL243142  23.399  23.230   5.783
 3285POPC   C1A43143  23.717  23.770   6.142
 3285POPC   D2A43144  23.889  23.970   6.509
 3285POPC   C3A43145  23.684  23.901   6.893
 3285POPC   C4A43146  23.931  23.986   7.231
 3285POPC   C1B43147  23.656  23.264   6.187
 3285POPC   C2B43148  23.614  23.514   6.585
 3285POPC   C3B43149  23.752  23.411   7.023
 3285POPC   C4B43150  23.615  23.628   7.393
 3286POPC   NC343151   6.349  35.839   5.537
 3286POPC   PO443152   6.722  36.410   5.553
 3286POPC   GL143153   6.746  36.046   5.832
 3286POPC   GL243154   6.991  35.764   5.811
 3286POPC   C1A43155   6.757  36.147   6.247
 3286POPC   D2A43156   6.651  36.303   6.634
 3286POPC   C3A43157   6.426  36.004   6.847
 3286POPC   C4A43158   6.266  36.036   7.225
 3286POPC   C1B43159   7.180  35.846   6.225
 3286POPC   C2B43160   6.971  35.860   6.611
 3286POPC   C3B43161   6.930  36.026   6.994
 3286POPC   C4B43162   6.718  35.857   7.301
 3287POPC   NC343163  29.237  36.168   5.398
 3287POPC   PO443164  28.602  35.844   5.402
 3287POPC   GL143165  28.891  36.025   5.784
 3287POPC   GL243166  29.246  36.216   5.893
 3287POPC   C1A43167  28.958  36.031   6.254
 3287POPC   D2A43168  29.300  36.123   6.532
 3287POPC   C3A43169  29.147  36.041   6.918
 3287POPC   C4A43170  29.161  36.259   7.289
 3287POPC   C1B43171  29.454  35.857   6.099
 3287POPC   C2B43172  29.700  35.805   6.476
 3287POPC   C3B43173  29.597  35.748   6.881
 3287POPC   C4B43174  29.431  35.832   7.270
 3288POPC   NC343175  32.589  23.743   5.426
 3288POPC   PO443176  31.980  23.464   5.429
 3288POPC   GL143177  32.034  23.572   5.838
 3288POPC   GL243178  31.685  23.470   5.939
 3288POPC   C1A43179  32.343  23.729   6.145
 3288POPC   D2A43180  32.310  23.967   6.530
 3288POPC   C3A43181  32.427  23.757   6.916
 3288POPC   C4A43182  32.534  23.705   7.329
 3288POPC   C1B43183  31.869  23.598   6.329
 3288POPC   C2B43184  31.951  23.704   6.761
 3288POPC   C3B43185  32.000  23.675   7.198
 3288POPC   C4B43186  32.013  23.506   7.602
 3289POPC   NC343187  21.823   4.881   5.143
 3289POPC   PO443188  21.176   5.050   5.420
 3289POPC   GL143189  21.280   5.066   5.847
 3289POPC   GL243190  21.521   4.822   5.840
 3289POPC   C1A43191  21.241   5.205   6.277
 3289POPC   D2A43192  21.187   5.034   6.669
 3289POPC   C3A43193  21.104   5.264   7.050
 3289POPC   C4A43194  21.445   5.455   7.316
 3289POPC   C1B43195  21.725   5.089   6.154
 3289POPC   C2B43196  21.667   5.179   6.597
 3289POPC   C3B43197  21.560   5.045   7.023
 3289POPC   C4B43198  21.676   4.693   7.232
 3290POPC   NC343199  23.977   8.667   5.467
 3290POPC   PO443200  23.737   8.033   5.410
 3290POPC   GL143201  23.496   8.201   5.774
 3290POPC   GL243202  23.701   8.443   5.849
 3290POPC   C1A43203  23.484   8.165   6.277
 3290POPC   D2A43204  23.505   7.997   6.719
 3290POPC   C3A43205  23.442   8.219   7.136
 3290POPC   C4A43206  23.630   8.190   7.570
 3290POPC   C1B43207  23.952   8.165   6.112
 3290POPC   C2B43208  23.955   8.201   6.561
 3290POPC   C3B43209  23.956   8.176   7.020
 3290POPC   C4B43210  24.189   8.229   7.418
 3291POPC   NC343211  43.137  37.443   5.544
 3291POPC   PO443212  43.321  38.065   5.231
 3291POPC   GL143213  43.076  37.945   5.685
 3291POPC   GL243214  43.189  37.670   5.979
 3291POPC   C1A43215  42.994  38.096   6.148
 3291POPC   D2A43216  42.840  37.965   6.574
 3291POPC   C3A43217  43.088  37.808   6.939
 3291POPC   C4A43218  42.821  37.571   7.210
 3291POPC   C1B43219  42.877  37.461   6.242
 3291POPC   C2B43220  42.870  37.426   6.685
 3291POPC   C3B43221  43.200  37.305   6.966
 3291POPC   C4B43222  43.244  37.362   7.404
 3292POPC   NC343223  21.587  18.426   5.174
 3292POPC   PO443224  21.132  18.076   5.284
 3292POPC   GL143225  21.051  18.044   5.786
 3292POPC   GL243226  21.329  18.219   5.971
 3292POPC   C1A43227  21.106  17.871   6.249
 3292POPC   D2A43228  21.276  18.108   6.655
 3292POPC   C3A43229  21.230  18.199   7.137
 3292POPC   C4A43230  21.230  18.437   7.579
 3292POPC   C1B43231  21.644  18.249   6.329
 3292POPC   C2B43232  21.688  18.548   6.689
 3292POPC   C3B43233  21.584  18.548   7.103
 3292POPC   C4B43234  21.675  18.252   7.404
 3293POPC   NC343235  35.746  31.121   5.579
 3293POPC   PO443236  35.328  30.618   5.363
 3293POPC   GL143237  35.228  30.600   5.758
 3293POPC   GL243238  35.250  30.944   5.786
 3293POPC   C1A43239  35.245  30.395   6.150
 3293POPC   D2A43240  35.248  30.512   6.573
 3293POPC   C3A43241  35.477  30.264   6.871
 3293POPC   C4A43242  35.458  30.339   7.298
 3293POPC   C1B43243  35.512  30.894   6.159
 3293POPC   C2B43244  35.417  31.062   6.545
 3293POPC   C3B43245  35.138  30.983   6.847
 3293POPC   C4B43246  35.250  30.906   7.266
 3294POPC   NC343247   5.278   1.782   5.513
 3294POPC   PO443248   5.007   2.446   5.549
 3294POPC   GL143249   4.925   2.056   5.811
 3294POPC   GL243250   4.793   1.709   5.910
 3294POPC   C1A43251   5.044   2.031   6.240
 3294POPC   D2A43252   4.874   1.987   6.642
 3294POPC   C3A43253   5.108   2.196   6.917
 3294POPC   C4A43254   5.011   2.077   7.303
 3294POPC   C1B43255   5.188   1.560   6.122
 3294POPC   C2B43256   5.307   1.689   6.556
 3294POPC   C3B43257   5.158   1.704   6.977
 3294POPC   C4B43258   5.171   1.557   7.402
 3295POPC   NC343259  29.759  16.955   5.369
 3295POPC   PO443260  30.147  16.515   5.627
 3295POPC   GL143261  29.753  16.554   5.902
 3295POPC   GL243262  29.579  16.946   5.875
 3295POPC   C1A43263  29.628  16.343   6.267
 3295POPC   D2A43264  29.654  16.501   6.691
 3295POPC   C3A43265  30.090  16.611   6.842
 3295POPC   C4A43266  30.117  16.656   7.275
 3295POPC   C1B43267  29.616  16.867   6.304
 3295POPC   C2B43268  29.838  17.003   6.630
 3295POPC   C3B43269  29.807  16.980   7.046
 3295POPC   C4B43270  30.105  17.219   7.301
 3296POPC   NC343271  11.420  22.974   5.453
 3296POPC   PO443272  10.779  22.746   5.455
 3296POPC   GL143273  11.073  22.725   5.783
 3296POPC   GL243274  11.111  23.094   5.829
 3296POPC   C1A43275  11.339  22.687   6.166
 3296POPC   D2A43276  11.201  22.642   6.611
 3296POPC   C3A43277  11.353  22.862   6.983
 3296POPC   C4A43278  11.658  23.100   7.230
 3296POPC   C1B43279  11.310  23.198   6.206
 3296POPC   C2B43280  11.452  23.215   6.615
 3296POPC   C3B43281  11.293  23.372   6.976
 3296POPC   C4B43282  11.384  23.524   7.394
 3297POPC   NC343283   6.749   2.235   5.383
 3297POPC   PO443284   6.431   1.619   5.449
 3297POPC   GL143285   6.543   1.966   5.774
 3297POPC   GL243286   6.830   2.240   5.860
 3297POPC   C1A43287   6.530   2.042   6.214
 3297POPC   D2A43288   6.499   1.821   6.598
 3297POPC   C3A43289   6.470   2.067   6.959
 3297POPC   C4A43290   6.497   1.726   7.238
 3297POPC   C1B43291   7.035   2.222   6.253
 3297POPC   C2B43292   6.870   2.150   6.648
 3297POPC   C3B43293   6.940   1.929   7.043
 3297POPC   C4B43294   6.791   2.193   7.354
 3298POPC   NC343295   9.364   9.422   5.398
 3298POPC   PO443296   9.652  10.035   5.385
 3298POPC   GL143297   9.768   9.945   5.791
 3298POPC   GL243298   9.679   9.567   5.802
 3298POPC   C1A43299   9.814   9.847   6.226
 3298POPC   D2A43300   9.818  10.013   6.615
 3298POPC   C3A43301   9.823   9.796   7.011
 3298POPC   C4A43302  10.077   9.524   7.214
 3298POPC   C1B43303   9.399   9.546   6.180
 3298POPC   C2B43304   9.437   9.646   6.641
 3298POPC   C3B43305   9.358   9.496   7.099
 3298POPC   C4B43306   9.195   9.415   7.542
 3299POPC   NC343307   9.317   3.310   5.474
 3299POPC   PO443308   8.980   2.627   5.524
 3299POPC   GL143309   9.129   2.951   5.834
 3299POPC   GL243310   8.819   3.146   5.935
 3299POPC   C1A43311   9.358   2.811   6.234
 3299POPC   D2A43312   9.204   2.538   6.579
 3299POPC   C3A43313   9.370   2.574   6.999
 3299POPC   C4A43314   9.143   2.567   7.388
 3299POPC   C1B43315   8.850   2.868   6.265
 3299POPC   C2B43316   8.714   2.686   6.629
 3299POPC   C3B43317   8.904   2.759   6.980
 3299POPC   C4B43318   8.826   3.007   7.327
 3300POPC   NC343319   4.017  21.201   5.561
 3300POPC   PO443320   4.635  21.199   5.213
 3300POPC   GL143321   4.418  21.513   5.673
 3300POPC   GL243322   4.097  21.628   5.824
 3300POPC   C1A43323   4.356  21.401   6.199
 3300POPC   D2A43324   4.559  21.355   6.630
 3300POPC   C3A43325   4.371  21.236   6.994
 3300POPC   C4A43326   4.673  21.285   7.299
 3300POPC   C1B43327   4.334  21.892   6.104
 3300POPC   C2B43328   4.469  21.823   6.481
 3300POPC   C3B43329   4.224  21.715   6.850
 3300POPC   C4B43330   4.269  21.610   7.299
 3301POPC   NC343331  34.013   1.719   5.405
 3301POPC   PO443332  33.644   2.276   5.452
 3301POPC   GL143333  33.932   2.077   5.751
 3301POPC   GL243334  33.669   1.855   5.835
 3301POPC   C1A43335  34.101   1.813   6.114
 3301POPC   D2A43336  34.332   1.653   6.489
 3301POPC   C3A43337  34.160   1.701   6.905
 3301POPC   C4A43338  34.128   1.956   7.278
 3301POPC   C1B43339  33.677   2.138   6.190
 3301POPC   C2B43340  33.870   2.009   6.566
 3301POPC   C3B43341  33.702   2.007   6.966
 3301POPC   C4B43342  33.570   2.338   7.205
 3302POPC   NC343343  34.175  34.535   5.480
 3302POPC   PO443344  33.529  34.517   5.530
 3302POPC   GL143345  33.820  34.496   5.839
 3302POPC   GL243346  34.028  34.830   5.906
 3302POPC   C1A43347  33.813  34.501   6.236
 3302POPC   D2A43348  33.896  34.746   6.565
 3302POPC   C3A43349  33.846  34.521   6.923
 3302POPC   C4A43350  33.644  34.346   7.267
 3302POPC   C1B43351  33.617  34.963   6.130
 3302POPC   C2B43352  33.368  34.825   6.509
 3302POPC   C3B43353  33.438  34.820   6.960
 3302POPC   C4B43354  33.567  35.120   7.266
 3303POPC   NC343355  44.506   9.186   5.409
 3303POPC   PO443356  44.902   8.693   5.473
 3303POPC   GL143357  44.725   8.902   5.821
 3303POPC   GL243358  44.856   9.250   5.800
 3303POPC   C1A43359  44.774   8.754   6.307
 3303POPC   D2A43360  44.752   8.659   6.783
 3303POPC   C3A43361  44.503   8.723   7.149
 3303POPC   C4A43362  44.505   8.773   7.597
 3303POPC   C1B43363  44.586   9.201   6.184
 3303POPC   C2B43364  44.573   9.183   6.619
 3303POPC   C3B43365  44.730   9.158   7.025
 3303POPC   C4B43366  44.588   9.269   7.411
 3304POPC   NC343367   6.523  44.382   5.643
 3304POPC   PO443368   6.818  44.920   5.447
 3304POPC   GL143369   6.716  44.815   5.869
 3304POPC   GL243370   6.370  44.874   5.760
 3304POPC   C1A43371   6.707  44.544   6.273
 3304POPC   D2A43372   6.639  44.158   6.572
 3304POPC   C3A43373   6.742  44.283   7.004
 3304POPC   C4A43374   6.754  44.722   7.150
 3304POPC   C1B43375   6.282  44.814   6.189
 3304POPC   C2B43376   6.337  44.680   6.620
 3304POPC   C3B43377   6.228  44.943   6.972
 3304POPC   C4B43378   6.338  44.953   7.390
 3305POPC   NC343379  30.076  16.926   5.837
 3305POPC   PO443380  29.718  17.404   5.451
 3305POPC   GL143381  29.748  17.674   5.789
 3305POPC   GL243382  29.914  17.385   5.935
 3305POPC   C1A43383  29.931  17.794   6.200
 3305POPC   D2A43384  29.996  17.498   6.533
 3305POPC   C3A43385  30.197  17.592   6.924
 3305POPC   C4A43386  30.079  17.728   7.315
 3305POPC   C1B43387  29.523  17.367   6.172
 3305POPC   C2B43388  29.499  17.379   6.612
 3305POPC   C3B43389  29.683  17.469   7.019
 3305POPC   C4B43390  29.616  17.238   7.425
 3306POPC   NC343391   8.952  26.912   5.554
 3306POPC   PO443392   9.272  26.339   5.376
 3306POPC   GL143393   9.088  26.459   5.770
 3306POPC   GL243394   9.368  26.624   5.878
 3306POPC   C1A43395   8.902  26.673   6.169
 3306POPC   D2A43396   8.680  26.894   6.510
 3306POPC   C3A43397   8.721  26.803   6.955
 3306POPC   C4A43398   8.887  26.921   7.348
 3306POPC   C1B43399   9.347  26.930   6.217
 3306POPC   C2B43400   9.160  26.878   6.620
 3306POPC   C3B43401   9.242  26.721   7.023
 3306POPC   C4B43402   9.411  26.986   7.338
 3307POPC   NC343403   1.398  41.988   5.103
 3307POPC   PO443404   1.148  42.471   5.507
 3307POPC   GL143405   1.139  42.081   5.825
 3307POPC   GL243406   1.225  42.377   6.010
 3307POPC   C1A43407   1.298  41.978   6.284
 3307POPC   D2A43408   1.171  42.351   6.539
 3307POPC   C3A43409   1.238  42.472   6.954
 3307POPC   C4A43410   1.411  42.237   7.203
 3307POPC   C1B43411   1.613  42.410   6.272
 3307POPC   C2B43412   1.693  42.406   6.718
 3307POPC   C3B43413   1.768  42.584   7.138
 3307POPC   C4B43414   1.626  42.516   7.596
 3308POPC   NC343415   2.344  35.303   5.389
 3308POPC   PO443416   1.769  35.440   5.397
 3308POPC   GL143417   2.033  35.420   5.804
 3308POPC   GL243418   2.130  35.749   5.893
 3308POPC   C1A43419   2.111  35.233   6.264
 3308POPC   D2A43420   2.106  35.322   6.739
 3308POPC   C3A43421   2.118  35.092   7.155
 3308POPC   C4A43422   1.925  35.015   7.581
 3308POPC   C1B43423   1.783  35.624   6.223
 3308POPC   C2B43424   1.674  35.595   6.684
 3308POPC   C3B43425   1.826  35.528   7.126
 3308POPC   C4B43426   1.673  35.634   7.574
 3309POPC   NC343427  42.343   8.710   5.754
 3309POPC   PO443428  42.467   9.241   5.328
 3309POPC   GL143429  42.420   9.189   5.814
 3309POPC   GL243430  42.050   9.145   5.781
 3309POPC   C1A43431  42.558   8.996   6.282
 3309POPC   D2A43432  42.499   9.150   6.714
 3309POPC   C3A43433  42.317   8.865   7.010
 3309POPC   C4A43434  42.147   8.643   7.360
 3309POPC   C1B43435  42.095   9.185   6.200
 3309POPC   C2B43436  42.062   8.932   6.513
 3309POPC   C3B43437  41.903   9.148   6.803
 3309POPC   C4B43438  41.936   9.129   7.218
 3310POPC   NC343439   2.958   2.070   5.474
 3310POPC   PO443440   2.411   1.701   5.506
 3310POPC   GL143441   2.555   2.034   5.811
 3310POPC   GL243442   2.891   1.994   5.984
 3310POPC   C1A43443   2.462   2.059   6.249
 3310POPC   D2A43444   2.530   1.757   6.575
 3310POPC   C3A43445   2.807   1.962   6.859
 3310POPC   C4A43446   2.704   1.948   7.271
 3310POPC   C1B43447   3.005   1.767   6.383
 3310POPC   C2B43448   3.272   1.759   6.768
 3310POPC   C3B43449   3.215   1.836   7.202
 3310POPC   C4B43450   3.098   2.182   7.505
 3311POPC   NC343451   0.233  32.675   5.368
 3311POPC   PO443452   0.557  33.329   5.229
 3311POPC   GL143453   0.608  33.227   5.698
 3311POPC   GL243454   0.510  32.886   5.777
 3311POPC   C1A43455   0.467  33.254   6.152
 3311POPC   D2A43456   0.284  33.121   6.567
 3311POPC   C3A43457   0.452  33.290   6.937
 3311POPC   C4A43458   0.408  33.130   7.352
 3311POPC   C1B43459   0.358  32.741   6.215
 3311POPC   C2B43460   0.537  32.654   6.627
 3311POPC   C3B43461   0.322  32.745   7.008
 3311POPC   C4B43462   0.281  32.662   7.458
 3312POPC   NC343463  26.388  29.324   5.604
 3312POPC   PO443464  26.030  28.745   5.492
 3312POPC   GL143465  25.984  29.005   5.927
 3312POPC   GL243466  26.092  29.325   6.023
 3312POPC   C1A43467  25.818  28.930   6.380
 3312POPC   D2A43468  25.752  29.007   6.851
 3312POPC   C3A43469  26.141  29.064   7.107
 3312POPC   C4A43470  26.335  28.915   7.482
 3312POPC   C1B43471  25.883  29.438   6.387
 3312POPC   C2B43472  25.952  29.503   6.807
 3312POPC   C3B43473  25.762  29.420   7.202
 3312POPC   C4B43474  25.618  29.457   7.625
 3313POPC   NC343475   2.405  13.909   5.648
 3313POPC   PO443476   2.334  13.415   5.236
 3313POPC   GL143477   2.541  13.424   5.675
 3313POPC   GL243478   2.854  13.609   5.737
 3313POPC   C1A43479   2.573  13.547   6.156
 3313POPC   D2A43480   2.686  13.439   6.572
 3313POPC   C3A43481   2.576  13.685   6.920
 3313POPC   C4A43482   2.652  13.442   7.273
 3313POPC   C1B43483   2.945  13.941   6.113
 3313POPC   C2B43484   2.908  13.914   6.549
 3313POPC   C3B43485   2.972  14.101   6.949
 3313POPC   C4B43486   2.970  13.860   7.296
 3314POPC   NC343487   2.257  42.472   5.447
 3314POPC   PO443488   2.922  42.381   5.271
 3314POPC   GL143489   2.828  42.313   5.701
 3314POPC   GL243490   3.027  42.018   5.709
 3314POPC   C1A43491   2.681  42.471   6.128
 3314POPC   D2A43492   2.565  42.314   6.538
 3314POPC   C3A43493   2.839  42.433   6.876
 3314POPC   C4A43494   2.713  42.534   7.246
 3314POPC   C1B43495   2.887  41.994   6.133
 3314POPC   C2B43496   3.033  42.105   6.537
 3314POPC   C3B43497   3.075  41.999   6.982
 3314POPC   C4B43498   2.947  42.030   7.407
 3315POPC   NC343499  41.880  33.309   5.350
 3315POPC   PO443500  41.324  32.921   5.558
 3315POPC   GL143501  41.558  33.201   5.828
 3315POPC   GL243502  41.284  33.286   5.996
 3315POPC   C1A43503  41.638  33.096   6.297
 3315POPC   D2A43504  41.492  32.799   6.614
 3315POPC   C3A43505  41.519  32.967   7.021
 3315POPC   C4A43506  41.620  32.755   7.361
 3315POPC   C1B43507  41.114  32.981   6.296
 3315POPC   C2B43508  41.120  33.136   6.708
 3315POPC   C3B43509  41.135  33.312   7.111
 3315POPC   C4B43510  41.362  33.184   7.523
 3316POPC   NC343511   6.468  38.419   5.438
 3316POPC   PO443512   7.239  38.498   5.599
 3316POPC   GL143513   6.826  38.509   5.843
 3316POPC   GL243514   6.550  38.235   5.904
 3316POPC   C1A43515   6.672  38.641   6.220
 3316POPC   D2A43516   6.899  38.561   6.584
 3316POPC   C3A43517   6.707  38.520   6.981
 3316POPC   C4A43518   6.855  38.709   7.341
 3316POPC   C1B43519   6.813  38.130   6.254
 3316POPC   C2B43520   6.718  37.964   6.650
 3316POPC   C3B43521   6.828  38.027   7.063
 3316POPC   C4B43522   7.109  38.270   7.253
 3317POPC   NC343523  21.499  31.072   5.546
 3317POPC   PO443524  21.242  30.462   5.488
 3317POPC   GL143525  21.342  30.680   5.880
 3317POPC   GL243526  21.686  30.812   5.947
 3317POPC   C1A43527  21.357  30.489   6.276
 3317POPC   D2A43528  21.621  30.464   6.617
 3317POPC   C3A43529  21.465  30.465   7.014
 3317POPC   C4A43530  21.423  30.836   7.233
 3317POPC   C1B43531  21.503  30.965   6.343
 3317POPC   C2B43532  21.256  30.867   6.712
 3317POPC   C3B43533  21.130  31.177   7.037
 3317POPC   C4B43534  21.126  31.156   7.525
 3318POPC   NC343535  43.845  19.100   5.366
 3318POPC   PO443536  44.062  18.540   5.685
 3318POPC   GL143537  43.898  18.949   5.863
 3318POPC   GL243538  43.961  19.343   5.801
 3318POPC   C1A43539  43.652  19.094   6.239
 3318POPC   D2A43540  43.496  18.986   6.669
 3318POPC   C3A43541  43.716  19.124   7.023
 3318POPC   C4A43542  43.804  19.041   7.454
 3318POPC   C1B43543  44.166  19.219   6.183
 3318POPC   C2B43544  44.117  19.052   6.573
 3318POPC   C3B43545  44.207  19.153   6.982
 3318POPC   C4B43546  44.146  19.367   7.349
 3319POPC   NC343547  38.795   0.192   5.375
 3319POPC   PO443548  38.349   0.621   5.573
 3319POPC   GL143549  38.616   0.658   5.904
 3319POPC   GL243550  38.630   0.304   5.901
 3319POPC   C1A43551  38.723   0.637   6.322
 3319POPC   D2A43552  38.608   0.281   6.567
 3319POPC   C3A43553  38.411   0.518   6.860
 3319POPC   C4A43554  38.462   0.632   7.261
 3319POPC   C1B43555  38.261   0.394   6.184
 3319POPC   C2B43556  38.102   0.178   6.532
 3319POPC   C3B43557  38.263   0.056   6.917
 3319POPC   C4B43558  38.124   0.271   7.275
 3320POPC   NC343559  12.053  27.268   5.470
 3320POPC   PO443560  11.673  26.702   5.446
 3320POPC   GL143561  11.981  26.791   5.755
 3320POPC   GL243562  12.188  26.488   5.742
 3320POPC   C1A43563  11.991  27.012   6.192
 3320POPC   D2A43564  12.063  27.152   6.634
 3320POPC   C3A43565  12.065  26.982   7.062
 3320POPC   C4A43566  12.158  27.190   7.478
 3320POPC   C1B43567  12.221  26.551   6.158
 3320POPC   C2B43568  12.163  26.660   6.581
 3320POPC   C3B43569  12.376  26.466   6.931
 3320POPC   C4B43570  12.297  26.266   7.320
 3321POPC   NC343571  28.213   9.511   5.246
 3321POPC   PO443572  28.348  10.096   5.448
 3321POPC   GL143573  28.125   9.818   5.704
 3321POPC   GL243574  28.358   9.551   5.812
 3321POPC   C1A43575  28.044   9.802   6.154
 3321POPC   D2A43576  28.313   9.835   6.522
 3321POPC   C3A43577  28.161   9.850   6.961
 3321POPC   C4A43578  28.458   9.995   7.264
 3321POPC   C1B43579  28.416   9.358   6.240
 3321POPC   C2B43580  28.597   9.424   6.673
 3321POPC   C3B43581  28.497   9.477   7.125
 3321POPC   C4B43582  28.093   9.369   7.309
 3322POPC   NC343583  34.189  31.965   5.493
 3322POPC   PO443584  33.899  32.611   5.503
 3322POPC   GL143585  33.815  32.447   5.909
 3322POPC   GL243586  33.856  32.118   5.887
 3322POPC   C1A43587  33.665  32.346   6.314
 3322POPC   D2A43588  33.890  32.316   6.668
 3322POPC   C3A43589  33.703  32.405   7.031
 3322POPC   C4A43590  33.687  32.070   7.294
 3322POPC   C1B43591  34.161  32.002   6.145
 3322POPC   C2B43592  34.202  31.934   6.547
 3322POPC   C3B43593  34.006  31.872   6.917
 3322POPC   C4B43594  34.174  31.836   7.325
 3323POPC   NC343595  37.476  19.802   5.530
 3323POPC   PO443596  38.123  19.649   5.381
 3323POPC   GL143597  37.912  19.716   5.776
 3323POPC   GL243598  37.911  20.067   5.866
 3323POPC   C1A43599  37.802  19.600   6.240
 3323POPC   D2A43600  37.705  19.356   6.648
 3323POPC   C3A43601  37.860  19.459   7.045
 3323POPC   C4A43602  38.027  19.814   7.238
 3323POPC   C1B43603  37.745  20.106   6.320
 3323POPC   C2B43604  37.784  19.981   6.795
 3323POPC   C3B43605  37.731  20.206   7.214
 3323POPC   C4B43606  37.382  20.179   7.523
 3324POPC   NC343607  24.692  34.418   5.496
 3324POPC   PO443608  24.311  34.885   5.328
 3324POPC   GL143609  24.314  34.699   5.778
 3324POPC   GL243610  24.352  34.354   5.958
 3324POPC   C1A43611  24.633  34.755   6.120
 3324POPC   D2A43612  24.635  34.916   6.552
 3324POPC   C3A43613  24.308  34.693   6.797
 3324POPC   C4A43614  24.261  34.666   7.252
 3324POPC   C1B43615  24.152  34.122   6.315
 3324POPC   C2B43616  24.128  34.184   6.794
 3324POPC   C3B43617  24.334  34.167   7.225
 3324POPC   C4B43618  24.467  34.084   7.681
 3325POPC   NC343619   7.581  32.382   5.346
 3325POPC   PO443620   7.065  32.629   5.637
 3325POPC   GL143621   7.210  32.367   5.960
 3325POPC   GL243622   7.478  32.170   5.832
 3325POPC   C1A43623   7.295  32.186   6.383
 3325POPC   D2A43624   7.613  32.355   6.676
 3325POPC   C3A43625   7.455  32.382   7.045
 3325POPC   C4A43626   7.233  32.052   7.255
 3325POPC   C1B43627   7.745  32.050   6.158
 3325POPC   C2B43628   7.805  31.892   6.553
 3325POPC   C3B43629   7.893  32.028   6.966
 3325POPC   C4B43630   7.732  31.907   7.359
 3326POPC   NC343631  33.975   6.966   5.294
 3326POPC   PO443632  33.618   7.491   5.519
 3326POPC   GL143633  33.654   7.284   5.883
 3326POPC   GL243634  33.812   7.624   5.986
 3326POPC   C1A43635  33.806   7.113   6.272
 3326POPC   D2A43636  34.217   7.221   6.519
 3326POPC   C3A43637  34.045   7.444   6.910
 3326POPC   C4A43638  33.646   7.226   7.120
 3326POPC   C1B43639  33.897   7.588   6.407
 3326POPC   C2B43640  33.566   7.544   6.739
 3326POPC   C3B43641  33.546   7.735   7.155
 3326POPC   C4B43642  33.604   7.909   7.603
 3327POPC   NC343643   5.948  24.677   5.394
 3327POPC   PO443644   6.346  24.126   5.622
 3327POPC   GL143645   5.947  24.202   5.811
 3327POPC   GL243646   5.879  24.537   5.895
 3327POPC   C1A43647   5.743  24.109   6.215
 3327POPC   D2A43648   5.689  23.957   6.645
 3327POPC   C3A43649   5.927  24.179   6.951
 3327POPC   C4A43650   5.871  24.365   7.330
 3327POPC   C1B43651   5.625  24.610   6.273
 3327POPC   C2B43652   5.610  24.543   6.742
 3327POPC   C3B43653   5.612  24.763   7.168
 3327POPC   C4B43654   5.967  24.900   7.443
 3328POPC   NC343655  40.526  35.230   5.398
 3328POPC   PO443656  41.110  35.142   5.621
 3328POPC   GL143657  40.807  35.398   5.819
 3328POPC   GL243658  40.533  35.208   5.918
 3328POPC   C1A43659  40.735  35.694   6.169
 3328POPC   D2A43660  40.932  35.853   6.522
 3328POPC   C3A43661  41.042  35.597   6.863
 3328POPC   C4A43662  40.864  35.753   7.226
 3328POPC   C1B43663  40.798  35.226   6.314
 3328POPC   C2B43664  40.647  35.295   6.722
 3328POPC   C3B43665  40.631  35.210   7.145
 3328POPC   C4B43666  40.640  35.411   7.547
 3329POPC   NC343667  42.639  10.414   5.572
 3329POPC   PO443668  43.136  10.802   5.290
 3329POPC   GL143669  43.068  10.670   5.736
 3329POPC   GL243670  43.104  10.309   5.798
 3329POPC   C1A43671  43.228  10.685   6.182
 3329POPC   D2A43672  43.497  10.607   6.554
 3329POPC   C3A43673  43.325  10.788   6.915
 3329POPC   C4A43674  42.921  10.731   7.144
 3329POPC   C1B43675  42.910  10.277   6.210
 3329POPC   C2B43676  43.011  10.443   6.625
 3329POPC   C3B43677  43.209  10.297   6.999
 3329POPC   C4B43678  43.084  10.102   7.379
 3330POPC   NC343679  36.401  10.472   5.423
 3330POPC   PO443680  35.733  10.215   5.463
 3330POPC   GL143681  35.833  10.602   5.713
 3330POPC   GL243682  36.164  10.618   5.844
 3330POPC   C1A43683  35.775  10.834   6.104
 3330POPC   D2A43684  36.051  10.778   6.487
 3330POPC   C3A43685  35.872  10.650   6.878
 3330POPC   C4A43686  36.037  10.671   7.287
 3330POPC   C1B43687  35.933  10.357   6.157
 3330POPC   C2B43688  36.032  10.225   6.571
 3330POPC   C3B43689  36.161  10.238   7.004
 3330POPC   C4B43690  35.836  10.181   7.252
 3331POPC   NC343691  33.111  30.959   5.282
 3331POPC   PO443692  33.599  31.012   5.762
 3331POPC   GL143693  33.223  30.833   5.905
 3331POPC   GL243694  32.993  30.577   5.776
 3331POPC   C1A43695  33.165  30.497   6.257
 3331POPC   D2A43696  33.290  30.551   6.720
 3331POPC   C3A43697  33.150  30.511   7.131
 3331POPC   C4A43698  33.186  30.196   7.437
 3331POPC   C1B43699  32.789  30.826   6.121
 3331POPC   C2B43700  32.955  30.898   6.491
 3331POPC   C3B43701  32.839  30.844   6.876
 3331POPC   C4B43702  32.936  30.953   7.264
 3332POPC   NC343703  29.211  14.654   5.656
 3332POPC   PO443704  29.594  14.107   5.425
 3332POPC   GL143705  29.302  14.164   5.777
 3332POPC   GL243706  28.918  14.176   5.783
 3332POPC   C1A43707  29.247  14.289   6.228
 3332POPC   D2A43708  28.980  14.449   6.593
 3332POPC   C3A43709  29.142  14.520   7.008
 3332POPC   C4A43710  29.528  14.620   7.136
 3332POPC   C1B43711  28.755  14.129   6.222
 3332POPC   C2B43712  28.650  14.051   6.661
 3332POPC   C3B43713  28.964  14.044   7.008
 3332POPC   C4B43714  29.134  14.189   7.425
 3333POPC   NC343715  40.879   1.537   5.761
 3333POPC   PO443716  40.990   0.943   5.476
 3333POPC   GL143717  40.744   1.002   5.804
 3333POPC   GL243718  41.053   0.890   6.007
 3333POPC   C1A43719  40.581   0.795   6.154
 3333POPC   D2A43720  40.782   0.717   6.560
 3333POPC   C3A43721  40.649   1.052   6.789
 3333POPC   C4A43722  40.781   1.217   7.143
 3333POPC   C1B43723  40.884   1.200   6.341
 3333POPC   C2B43724  40.922   1.517   6.700
 3333POPC   C3B43725  41.206   1.485   7.034
 3333POPC   C4B43726  41.211   1.275   7.410
 3334POPC   NC343727  28.336  41.931   5.595
 3334POPC   PO443728  28.685  41.489   5.360
 3334POPC   GL143729  28.433  41.422   5.706
 3334POPC   GL243730  28.188  41.149   5.683
 3334POPC   C1A43731  28.434  41.518   6.142
 3334POPC   D2A43732  28.582  41.665   6.537
 3334POPC   C3A43733  28.239  41.783   6.773
 3334POPC   C4A43734  28.180  41.892   7.184
 3334POPC   C1B43735  28.225  41.045   6.161
 3334POPC   C2B43736  28.355  41.201   6.588
 3334POPC   C3B43737  28.512  41.082   7.006
 3334POPC   C4B43738  28.339  41.107   7.463
 3335POPC   NC343739  19.318   2.554   5.418
 3335POPC   PO443740  18.693   2.888   5.363
 3335POPC   GL143741  18.922   2.698   5.747
 3335POPC   GL243742  18.967   2.345   5.715
 3335POPC   C1A43743  19.117   2.779   6.173
 3335POPC   D2A43744  19.414   2.956   6.512
 3335POPC   C3A43745  19.371   2.948   6.958
 3335POPC   C4A43746  19.025   2.894   7.210
 3335POPC   C1B43747  18.992   2.238   6.135
 3335POPC   C2B43748  18.962   2.420   6.509
 3335POPC   C3B43749  19.113   2.514   6.864
 3335POPC   C4B43750  19.045   2.406   7.255
 3336POPC   NC343751  38.306  36.232   5.555
 3336POPC   PO443752  37.597  36.210   5.404
 3336POPC   GL143753  37.645  36.172   5.837
 3336POPC   GL243754  37.956  36.366   5.921
 3336POPC   C1A43755  37.427  35.948   6.203
 3336POPC   D2A43756  37.240  36.116   6.580
 3336POPC   C3A43757  37.107  35.953   6.980
 3336POPC   C4A43758  37.306  36.118   7.371
 3336POPC   C1B43759  37.938  36.003   6.221
 3336POPC   C2B43760  37.773  35.937   6.628
 3336POPC   C3B43761  37.612  36.139   6.978
 3336POPC   C4B43762  37.802  36.247   7.383
 3337POPC   NC343763   2.365  29.612   5.592
 3337POPC   PO443764   2.774  30.155   5.429
 3337POPC   GL143765   2.945  30.199   5.805
 3337POPC   GL243766   2.634  30.034   5.922
 3337POPC   C1A43767   3.050  30.090   6.197
 3337POPC   D2A43768   2.755  30.061   6.545
 3337POPC   C3A43769   2.974  30.042   6.921
 3337POPC   C4A43770   3.069  30.201   7.291
 3337POPC   C1B43771   2.367  30.260   6.206
 3337POPC   C2B43772   2.275  30.235   6.637
 3337POPC   C3B43773   2.331  30.118   7.018
 3337POPC   C4B43774   2.627  29.970   7.289
 3338POPC   NC343775  33.292   1.937   5.492
 3338POPC   PO443776  32.675   2.092   5.457
 3338POPC   GL143777  32.870   2.248   5.816
 3338POPC   GL243778  33.258   2.349   5.809
 3338POPC   C1A43779  32.693   2.150   6.238
 3338POPC   D2A43780  32.822   1.902   6.610
 3338POPC   C3A43781  32.705   1.924   7.040
 3338POPC   C4A43782  32.813   2.192   7.370
 3338POPC   C1B43783  33.186   2.024   6.143
 3338POPC   C2B43784  33.330   1.986   6.555
 3338POPC   C3B43785  33.180   2.146   6.930
 3338POPC   C4B43786  33.217   1.875   7.241
 3339POPC   NC343787   4.566   2.409   5.688
 3339POPC   PO443788   4.099   1.961   5.521
 3339POPC   GL143789   4.358   1.981   5.882
 3339POPC   GL243790   4.141   2.232   5.999
 3339POPC   C1A43791   4.560   2.190   6.300
 3339POPC   D2A43792   4.522   2.394   6.740
 3339POPC   C3A43793   4.536   2.135   7.130
 3339POPC   C4A43794   4.690   1.689   7.219
 3339POPC   C1B43795   4.169   1.887   6.349
 3339POPC   C2B43796   4.369   1.808   6.749
 3339POPC   C3B43797   4.178   1.745   7.161
 3339POPC   C4B43798   3.876   1.844   7.513
 3340POPC   NC343799  34.258  26.249   5.392
 3340POPC   PO443800  33.668  26.455   5.383
 3340POPC   GL143801  33.692  26.151   5.723
 3340POPC   GL243802  34.014  25.944   5.739
 3340POPC   C1A43803  33.715  26.156   6.164
 3340POPC   D2A43804  33.755  25.921   6.553
 3340POPC   C3A43805  33.429  25.895   6.826
 3340POPC   C4A43806  33.627  25.973   7.208
 3340POPC   C1B43807  34.207  26.213   6.080
 3340POPC   C2B43808  34.074  26.326   6.519
 3340POPC   C3B43809  34.053  26.158   6.947
 3340POPC   C4B43810  34.132  26.476   7.272
 3341POPC   NC343811  44.631  26.468   5.485
 3341POPC   PO443812   0.052  27.018   5.375
 3341POPC   GL143813  44.818  26.877   5.746
 3341POPC   GL243814  44.559  27.104   5.842
 3341POPC   C1A43815  44.696  26.651   6.141
 3341POPC   D2A43816  44.553  26.784   6.551
 3341POPC   C3A43817  44.690  26.630   6.957
 3341POPC   C4A43818  44.371  26.647   7.261
 3341POPC   C1B43819  44.795  27.143   6.261
 3341POPC   C2B43820  44.821  27.176   6.731
 3341POPC   C3B43821  44.775  27.095   7.157
 3341POPC   C4B43822  44.743  27.154   7.583
 3342POPC   NC343823   8.542  11.380   5.570
 3342POPC   PO443824   9.214  11.000   5.520
 3342POPC   GL143825   9.231  11.243   5.881
 3342POPC   GL243826   9.152  11.611   5.807
 3342POPC   C1A43827   9.141  11.094   6.269
 3342POPC   D2A43828   8.904  11.148   6.565
 3342POPC   C3A43829   9.137  11.061   6.941
 3342POPC   C4A43830   9.207  11.050   7.367
 3342POPC   C1B43831   8.837  11.503   6.146
 3342POPC   C2B43832   8.798  11.652   6.563
 3342POPC   C3B43833   8.787  11.445   6.944
 3342POPC   C4B43834   9.023  11.556   7.263
 3343POPC   NC343835  32.739  36.610   5.513
 3343POPC   PO443836  33.152  37.178   5.424
 3343POPC   GL143837  32.858  37.090   5.751
 3343POPC   GL243838  33.011  36.803   5.919
 3343POPC   C1A43839  32.730  37.195   6.182
 3343POPC   D2A43840  32.850  36.962   6.562
 3343POPC   C3A43841  32.955  37.097   6.979
 3343POPC   C4A43842  33.271  36.896   7.267
 3343POPC   C1B43843  32.627  36.691   6.168
 3343POPC   C2B43844  32.371  36.778   6.525
 3343POPC   C3B43845  32.556  36.718   6.915
 3343POPC   C4B43846  32.756  36.773   7.329
 3344POPC   NC343847  38.913  27.694   5.144
 3344POPC   PO443848  38.252  27.810   5.429
 3344POPC   GL143849  38.369  27.540   5.760
 3344POPC   GL243850  38.110  27.364   5.882
 3344POPC   C1A43851  38.645  27.429   6.133
 3344POPC   D2A43852  38.528  27.312   6.547
 3344POPC   C3A43853  38.729  27.408   6.947
 3344POPC   C4A43854  38.723  27.619   7.354
 3344POPC   C1B43855  38.228  27.728   6.207
 3344POPC   C2B43856  38.548  27.874   6.521
 3344POPC   C3B43857  38.458  27.864   6.964
 3344POPC   C4B43858  38.239  27.514   7.167
 3345POPC   NC343859  19.117  30.535   5.416
 3345POPC   PO443860  18.593  30.254   5.727
 3345POPC   GL143861  18.967  30.437   5.882
 3345POPC   GL243862  19.170  30.791   5.877
 3345POPC   C1A43863  19.168  30.438   6.225
 3345POPC   D2A43864  19.091  30.732   6.522
 3345POPC   C3A43865  18.977  30.528   6.893
 3345POPC   C4A43866  19.001  30.826   7.173
 3345POPC   C1B43867  19.526  30.780   6.217
 3345POPC   C2B43868  19.563  30.623   6.651
 3345POPC   C3B43869  19.456  30.581   7.089
 3345POPC   C4B43870  19.518  30.750   7.515
 3346POPC   NC343871   2.194   2.154   5.453
 3346POPC   PO443872   1.647   1.749   5.221
 3346POPC   GL143873   1.875   1.798   5.639
 3346POPC   GL243874   1.796   2.151   5.800
 3346POPC   C1A43875   2.040   1.780   6.087
 3346POPC   D2A43876   2.034   1.895   6.545
 3346POPC   C3A43877   1.945   1.706   6.963
 3346POPC   C4A43878   2.191   1.892   7.327
 3346POPC   C1B43879   1.516   2.210   6.186
 3346POPC   C2B43880   1.566   2.066   6.617
 3346POPC   C3B43881   1.791   2.193   7.017
 3346POPC   C4B43882   1.657   2.176   7.453
 3347POPC   NC343883   8.158  37.562   5.193
 3347POPC   PO443884   8.608  37.428   5.665
 3347POPC   GL143885   8.276  37.432   5.942
 3347POPC   GL243886   8.456  37.744   6.090
 3347POPC   C1A43887   8.070  37.528   6.343
 3347POPC   D2A43888   8.098  37.760   6.736
 3347POPC   C3A43889   8.210  37.535   7.129
 3347POPC   C4A43890   8.603  37.447   7.384
 3347POPC   C1B43891   8.220  38.083   6.305
 3347POPC   C2B43892   8.169  38.314   6.685
 3347POPC   C3B43893   8.162  38.129   7.079
 3347POPC   C4B43894   8.437  37.919   7.392
 3348POPC   NC343895  17.916  31.376   5.191
 3348POPC   PO443896  18.355  31.773   5.541
 3348POPC   GL143897  18.305  31.438   5.824
 3348POPC   GL243898  18.166  31.693   6.026
 3348POPC   C1A43899  18.076  31.203   6.173
 3348POPC   D2A43900  17.856  31.281   6.566
 3348POPC   C3A43901  18.074  31.533   6.894
 3348POPC   C4A43902  18.326  31.295   7.165
 3348POPC   C1B43903  18.222  31.628   6.407
 3348POPC   C2B43904  18.491  31.381   6.623
 3348POPC   C3B43905  18.730  31.540   6.946
 3348POPC   C4B43906  18.503  31.843   7.157
 3349POPC   NC343907   0.467   1.963   5.353
 3349POPC   PO443908   0.099   2.383   5.652
 3349POPC   GL143909   0.429   2.157   5.863
 3349POPC   GL243910   0.670   2.390   6.040
 3349POPC   C1A43911   0.563   1.899   6.199
 3349POPC   D2A43912   0.531   1.961   6.611
 3349POPC   C3A43913   0.795   2.029   6.910
 3349POPC   C4A43914   0.590   1.858   7.264
 3349POPC   C1B43915   0.285   2.323   6.332
 3349POPC   C2B43916   0.063   2.138   6.716
 3349POPC   C3B43917   0.086   2.093   7.178
 3349POPC   C4B43918   0.363   2.255   7.520
 3350POPC   NC343919  35.711  16.576   5.346
 3350POPC   PO443920  35.027  16.612   5.388
 3350POPC   GL143921  35.266  16.586   5.819
 3350POPC   GL243922  35.642  16.521   5.871
 3350POPC   C1A43923  35.156  16.578   6.285
 3350POPC   D2A43924  35.352  16.529   6.680
 3350POPC   C3A43925  35.072  16.698   6.967
 3350POPC   C4A43926  35.153  16.808   7.374
 3350POPC   C1B43927  35.536  16.903   6.140
 3350POPC   C2B43928  35.410  17.036   6.576
 3350POPC   C3B43929  35.524  16.965   7.006
 3350POPC   C4B43930  35.663  16.784   7.386
 3351POPC   NC343931  43.347  44.298   5.516
 3351POPC   PO443932  42.972  44.870   5.381
 3351POPC   GL143933  42.992  44.684   5.838
 3351POPC   GL243934  43.000  44.335   5.875
 3351POPC   C1A43935  42.798  44.518   6.280
 3351POPC   D2A43936  42.847  44.502   6.709
 3351POPC   C3A43937  43.103  44.770   6.949
 3351POPC   C4A43938  42.986  44.938   7.356
 3351POPC   C1B43939  43.300  44.294   6.206
 3351POPC   C2B43940  43.412  44.436   6.610
 3351POPC   C3B43941  43.406  44.315   7.021
 3351POPC   C4B43942  43.358  44.591   7.354
 3352POPC   NC343943  13.838  43.552   5.514
 3352POPC   PO443944  13.433  43.055   5.380
 3352POPC   GL143945  13.662  43.124   5.757
 3352POPC   GL243946  13.456  43.383   5.847
 3352POPC   C1A43947  13.717  43.021   6.204
 3352POPC   D2A43948  13.443  42.866   6.538
 3352POPC   C3A43949  13.640  42.941   6.921
 3352POPC   C4A43950  13.624  43.054   7.363
 3352POPC   C1B43951  13.312  43.333   6.239
 3352POPC   C2B43952  13.520  43.393   6.614
 3352POPC   C3B43953  13.403  43.370   7.030
 3352POPC   C4B43954  13.291  43.620   7.348
 3353POPC   NC343955  43.494   9.695   5.575
 3353POPC   PO443956  42.836  10.010   5.475
 3353POPC   GL143957  42.982   9.792   5.817
 3353POPC   GL243958  42.775   9.535   5.750
 3353POPC   C1A43959  43.126   9.760   6.245
 3353POPC   D2A43960  43.153   9.937   6.654
 3353POPC   C3A43961  43.174   9.713   7.072
 3353POPC   C4A43962  43.345   9.693   7.519
 3353POPC   C1B43963  42.704   9.465   6.209
 3353POPC   C2B43964  42.881   9.503   6.657
 3353POPC   C3B43965  42.807   9.359   7.085
 3353POPC   C4B43966  42.890   9.441   7.555
 3354POPC   NC343967   7.858   6.119   5.494
 3354POPC   PO443968   8.181   6.871   5.467
 3354POPC   GL143969   8.301   6.764   5.851
 3354POPC   GL243970   8.387   7.087   5.924
 3354POPC   C1A43971   8.325   6.553   6.233
 3354POPC   D2A43972   8.116   6.520   6.625
 3354POPC   C3A43973   8.436   6.702   6.896
 3354POPC   C4A43974   8.587   6.559   7.283
 3354POPC   C1B43975   8.053   6.996   6.223
 3354POPC   C2B43976   8.123   7.041   6.645
 3354POPC   C3B43977   8.104   7.126   7.070
 3354POPC   C4B43978   8.098   6.757   7.282
 3355POPC   NC343979  15.626  19.986   5.145
 3355POPC   PO443980  15.127  19.705   5.538
 3355POPC   GL143981  15.024  19.856   5.891
 3355POPC   GL243982  14.765  19.599   5.902
 3355POPC   C1A43983  15.174  20.068   6.273
 3355POPC   D2A43984  14.949  20.084   6.669
 3355POPC   C3A43985  15.129  20.034   7.080
 3355POPC   C4A43986  14.955  20.262   7.407
 3355POPC   C1B43987  14.825  19.702   6.334
 3355POPC   C2B43988  14.980  19.471   6.646
 3355POPC   C3B43989  14.855  19.330   7.034
 3355POPC   C4B43990  14.838  19.570   7.379
 3356POPC   NC343991  38.828  42.085   5.582
 3356POPC   PO443992  38.477  42.542   5.295
 3356POPC   GL143993  38.493  42.400   5.769
 3356POPC   GL243994  38.209  42.241   5.934
 3356POPC   C1A43995  38.627  42.248   6.226
 3356POPC   D2A43996  38.335  42.113   6.578
 3356POPC   C3A43997  38.393  42.316   6.972
 3356POPC   C4A43998  38.699  42.427   7.296
 3356POPC   C1B43999  38.324  42.654   6.174
 3356POPC   C2B44000  38.389  42.868   6.559
 3356POPC   C3B44001  38.291  42.816   6.960
 3356POPC   C4B44002  38.237  42.687   7.346
 3357POPC   NC344003  24.506  24.135   5.335
 3357POPC   PO444004  24.354  23.396   5.388
 3357POPC   GL144005  24.552  23.591   5.770
 3357POPC   GL244006  24.557  23.963   5.819
 3357POPC   C1A44007  24.328  23.690   6.164
 3357POPC   D2A44008  24.093  23.497   6.440
 3357POPC   C3A44009  24.185  23.634   6.847
 3357POPC   C4A44010  24.322  23.627   7.264
 3357POPC   C1B44011  24.665  24.076   6.240
 3357POPC   C2B44012  24.393  24.045   6.595
 3357POPC   C3B44013  24.408  24.095   7.031
 3357POPC   C4B44014  24.739  24.028   7.335
 3358POPC   NC344015  42.442  44.145   5.391
 3358POPC   PO444016  42.099  43.549   5.330
 3358POPC   GL144017  42.208  43.769   5.727
 3358POPC   GL244018  42.148  44.108   5.827
 3358POPC   C1A44019  42.351  43.762   6.167
 3358POPC   D2A44020  42.117  43.742   6.568
 3358POPC   C3A44021  42.304  43.823   6.967
 3358POPC   C4A44022  42.206  44.025   7.330
 3358POPC   C1B44023  42.294  44.275   6.216
 3358POPC   C2B44024  42.460  44.166   6.610
 3358POPC   C3B44025  42.434  44.366   7.012
 3358POPC   C4B44026  42.649  44.386   7.387
 3359POPC   NC344027  21.233  10.292   5.673
 3359POPC   PO444028  21.539  10.727   5.291
 3359POPC   GL144029  21.540  10.708   5.728
 3359POPC   GL244030  21.730  10.413   5.818
 3359POPC   C1A44031  21.427  10.765   6.158
 3359POPC   D2A44032  21.414  10.530   6.562
 3359POPC   C3A44033  21.375  10.734   6.970
 3359POPC   C4A44034  21.195  10.492   7.314
 3359POPC   C1B44035  21.661  10.199   6.227
 3359POPC   C2B44036  21.741  10.076   6.656
 3359POPC   C3B44037  21.633  10.273   7.054
 3359POPC   C4B44038  21.652  10.374   7.488
 3360POPC   NC344039  30.874  14.794   5.313
 3360POPC   PO444040  30.640  15.429   5.259
 3360POPC   GL144041  30.624  15.294   5.664
 3360POPC   GL244042  30.581  14.981   5.723
 3360POPC   C1A44043  30.682  15.379   6.085
 3360POPC   D2A44044  30.798  15.444   6.502
 3360POPC   C3A44045  30.556  15.317   6.806
 3360POPC   C4A44046  30.572  15.231   7.201
 3360POPC   C1B44047  30.695  14.814   6.096
 3360POPC   C2B44048  30.631  14.928   6.492
 3360POPC   C3B44049  30.700  14.812   6.920
 3360POPC   C4B44050  30.450  14.737   7.302
 3361POPC   NC344051   2.644  25.367   5.403
 3361POPC   PO444052   3.048  24.938   5.712
 3361POPC   GL144053   2.744  25.210   5.963
 3361POPC   GL244054   2.487  25.440   5.874
 3361POPC   C1A44055   2.771  25.386   6.375
 3361POPC   D2A44056   3.111  25.207   6.598
 3361POPC   C3A44057   2.945  24.945   6.868
 3361POPC   C4A44058   2.894  25.143   7.235
 3361POPC   C1B44059   2.296  25.225   6.238
 3361POPC   C2B44060   2.455  25.077   6.639
 3361POPC   C3B44061   2.407  25.195   7.052
 3361POPC   C4B44062   2.547  25.535   7.261
 3362POPC   NC344063  42.136  27.828   5.355
 3362POPC   PO444064  42.638  27.415   5.252
 3362POPC   GL144065  42.362  27.519   5.674
 3362POPC   GL244066  42.461  27.838   5.766
 3362POPC   C1A44067  42.306  27.435   6.138
 3362POPC   D2A44068  42.460  27.284   6.557
 3362POPC   C3A44069  42.153  27.324   6.886
 3362POPC   C4A44070  42.106  27.607   7.226
 3362POPC   C1B44071  42.477  27.998   6.183
 3362POPC   C2B44072  42.426  27.838   6.590
 3362POPC   C3B44073  42.293  28.017   6.970
 3362POPC   C4B44074  42.335  28.066   7.396
 3363POPC   NC344075  21.999   4.131   5.523
 3363POPC   PO444076  22.483   4.503   5.324
 3363POPC   GL144077  22.249   4.508   5.753
 3363POPC   GL244078  22.444   4.225   5.802
 3363POPC   C1A44079  21.874   4.477   6.095
 3363POPC   D2A44080  21.825   4.281   6.504
 3363POPC   C3A44081  21.997   4.427   6.902
 3363POPC   C4A44082  21.959   4.290   7.349
 3363POPC   C1B44083  22.306   4.259   6.228
 3363POPC   C2B44084  22.276   4.074   6.630
 3363POPC   C3B44085  22.546   3.969   6.951
 3363POPC   C4B44086  22.443   4.096   7.333
 3364POPC   NC344087  35.739  30.702   5.171
 3364POPC   PO444088  36.320  30.728   5.432
 3364POPC   GL144089  36.071  30.644   5.801
 3364POPC   GL244090  35.727  30.593   5.772
 3364POPC   C1A44091  36.100  30.803   6.220
 3364POPC   D2A44092  36.320  30.597   6.563
 3364POPC   C3A44093  36.332  30.861   6.920
 3364POPC   C4A44094  36.183  30.765   7.296
 3364POPC   C1B44095  35.752  30.433   6.206
 3364POPC   C2B44096  35.753  30.663   6.611
 3364POPC   C3B44097  35.749  30.669   7.063
 3364POPC   C4B44098  35.718  30.953   7.439
 3365POPC   NC344099   6.451  17.914   5.612
 3365POPC   PO444100   6.902  18.196   5.225
 3365POPC   GL144101   6.792  18.285   5.683
 3365POPC   GL244102   6.518  18.418   5.858
 3365POPC   C1A44103   6.753  18.078   6.142
 3365POPC   D2A44104   6.547  18.105   6.543
 3365POPC   C3A44105   6.665  18.316   6.873
 3365POPC   C4A44106   6.786  18.164   7.248
 3365POPC   C1B44107   6.288  18.631   6.163
 3365POPC   C2B44108   6.196  18.484   6.551
 3365POPC   C3B44109   6.259  18.636   6.913
 3365POPC   C4B44110   6.355  18.449   7.267
 3366POPC   NC344111   9.554  26.120   5.657
 3366POPC   PO444112  10.183  25.954   5.522
 3366POPC   GL144113   9.979  25.949   5.897
 3366POPC   GL244114  10.240  25.815   6.068
 3366POPC   C1A44115   9.731  25.913   6.277
 3366POPC   D2A44116   9.833  26.105   6.685
 3366POPC   C3A44117   9.527  26.026   7.006
 3366POPC   C4A44118   9.491  26.371   7.327
 3366POPC   C1B44119  10.058  25.509   6.318
 3366POPC   C2B44120   9.930  25.610   6.658
 3366POPC   C3B44121  10.137  25.797   6.986
 3366POPC   C4B44122   9.954  26.116   7.234
 3367POPC   NC344123  40.428  16.203   5.387
 3367POPC   PO444124  39.968  15.685   5.327
 3367POPC   GL144125  40.083  15.952   5.707
 3367POPC   GL244126  39.801  16.130   5.906
 3367POPC   C1A44127  40.139  15.868   6.165
 3367POPC   D2A44128  39.850  15.884   6.523
 3367POPC   C3A44129  40.075  16.016   6.868
 3367POPC   C4A44130  40.082  15.914   7.269
 3367POPC   C1B44131  39.694  16.333   6.302
 3367POPC   C2B44132  39.717  16.376   6.764
 3367POPC   C3B44133  39.829  16.339   7.201
 3367POPC   C4B44134  39.707  16.042   7.575
 3368POPC   NC344135  36.209  38.703   5.538
 3368POPC   PO444136  36.245  38.086   5.588
 3368POPC   GL144137  36.191  38.349   5.929
 3368POPC   GL244138  35.894  38.611   5.940
 3368POPC   C1A44139  36.077  38.329   6.337
 3368POPC   D2A44140  35.834  38.622   6.549
 3368POPC   C3A44141  35.933  38.489   6.942
 3368POPC   C4A44142  36.046  38.273   7.321
 3368POPC   C1B44143  36.242  38.804   6.194
 3368POPC   C2B44144  36.382  38.679   6.609
 3368POPC   C3B44145  36.303  38.828   6.999
 3368POPC   C4B44146  36.414  38.654   7.349
 3369POPC   NC344147  44.295   3.689   5.506
 3369POPC   PO444148  44.886   3.453   5.414
 3369POPC   GL144149  44.745   3.590   5.778
 3369POPC   GL244150  44.796   3.270   5.899
 3369POPC   C1A44151  44.596   3.671   6.207
 3369POPC   D2A44152  44.587   3.506   6.636
 3369POPC   C3A44153  44.525   3.809   6.950
 3369POPC   C4A44154  44.753   3.819   7.336
 3369POPC   C1B44155  44.587   3.138   6.260
 3369POPC   C2B44156  44.373   3.028   6.621
 3369POPC   C3B44157  44.398   3.178   7.031
 3369POPC   C4B44158  44.684   3.320   7.315
 3370POPC   NC344159  13.810  41.722   5.296
 3370POPC   PO444160  13.450  41.102   5.452
 3370POPC   GL144161  13.572  41.279   5.832
 3370POPC   GL244162  13.830  41.478   5.773
 3370POPC   C1A44163  13.488  41.511   6.201
 3370POPC   D2A44164  13.320  41.699   6.564
 3370POPC   C3A44165  13.413  41.621   6.977
 3370POPC   C4A44166  13.185  41.403   7.312
 3370POPC   C1B44167  13.990  41.633   6.154
 3370POPC   C2B44168  13.848  41.700   6.571
 3370POPC   C3B44169  13.970  41.492   6.972
 3370POPC   C4B44170  13.802  41.687   7.343
 3371POPC   NC344171  31.957  34.324   5.311
 3371POPC   PO444172  31.309  34.517   5.258
 3371POPC   GL144173  31.305  34.604   5.685
 3371POPC   GL244174  31.686  34.644   5.683
 3371POPC   C1A44175  31.244  34.744   6.101
 3371POPC   D2A44176  31.179  34.566   6.494
 3371POPC   C3A44177  31.480  34.691   6.792
 3371POPC   C4A44178  31.328  34.688   7.191
 3371POPC   C1B44179  31.725  34.471   6.102
 3371POPC   C2B44180  31.613  34.271   6.467
 3371POPC   C3B44181  31.725  34.237   6.873
 3371POPC   C4B44182  31.841  34.495   7.190
 3372POPC   NC344183  26.659   0.605   5.443
 3372POPC   PO444184  26.854   0.031   5.404
 3372POPC   GL144185  26.940   0.349   5.770
 3372POPC   GL244186  26.611   0.340   5.933
 3372POPC   C1A44187  26.918   0.715   6.063
 3372POPC   D2A44188  27.141   0.671   6.418
 3372POPC   C3A44189  26.928   0.514   6.765
 3372POPC   C4A44190  26.908   0.636   7.176
 3372POPC   C1B44191  26.911   0.228   6.286
 3372POPC   C2B44192  26.992  44.953   6.647
 3372POPC   C3B44193  27.082   0.091   7.055
 3372POPC   C4B44194  26.654   0.215   7.102
 3373POPC   NC344195   4.126  19.517   5.574
 3373POPC   PO444196   4.231  20.119   5.333
 3373POPC   GL144197   4.456  19.868   5.756
 3373POPC   GL244198   4.420  19.492   5.968
 3373POPC   C1A44199   4.621  19.866   6.231
 3373POPC   D2A44200   4.461  19.644   6.620
 3373POPC   C3A44201   4.481  19.905   7.001
 3373POPC   C4A44202   4.285  19.947   7.406
 3373POPC   C1B44203   4.093  19.725   6.240
 3373POPC   C2B44204   3.920  19.643   6.675
 3373POPC   C3B44205   4.060  19.554   7.106
 3373POPC   C4B44206   3.900  19.582   7.545
 3374POPC   NC344207  41.419  19.285   5.436
 3374POPC   PO444208  41.889  18.758   5.491
 3374POPC   GL144209  41.692  19.015   5.804
 3374POPC   GL244210  41.323  18.951   5.837
 3374POPC   C1A44211  41.652  19.063   6.230
 3374POPC   D2A44212  41.476  19.223   6.579
 3374POPC   C3A44213  41.469  18.996   6.921
 3374POPC   C4A44214  41.786  18.986   7.195
 3374POPC   C1B44215  41.207  19.327   6.081
 3374POPC   C2B44216  41.114  19.538   6.473
 3374POPC   C3B44217  41.233  19.505   6.933
 3374POPC   C4B44218  41.207  19.219   7.301
 3375POPC   NC344219  21.069  10.865   5.333
 3375POPC   PO444220  21.152  11.561   5.390
 3375POPC   GL144221  21.358  11.505   5.781
 3375POPC   GL244222  21.283  11.156   5.757
 3375POPC   C1A44223  21.518  11.359   6.191
 3375POPC   D2A44224  21.313  11.455   6.587
 3375POPC   C3A44225  21.522  11.313   6.974
 3375POPC   C4A44226  21.470  11.425   7.414
 3375POPC   C1B44227  21.061  11.142   6.151
 3375POPC   C2B44228  21.094  10.962   6.549
 3375POPC   C3B44229  21.026  11.166   6.931
 3375POPC   C4B44230  21.077  11.001   7.292
 3376POPC   NC344231   7.890  33.546   5.525
 3376POPC   PO444232   7.217  33.934   5.441
 3376POPC   GL144233   7.313  33.956   5.868
 3376POPC   GL244234   7.621  34.109   5.803
 3376POPC   C1A44235   7.498  33.656   6.213
 3376POPC   D2A44236   7.735  33.503   6.635
 3376POPC   C3A44237   7.524  33.502   7.053
 3376POPC   C4A44238   7.248  33.803   7.281
 3376POPC   C1B44239   7.614  34.142   6.254
 3376POPC   C2B44240   7.450  33.950   6.653
 3376POPC   C3B44241   7.669  33.992   7.042
 3376POPC   C4B44242   7.573  34.207   7.426
 3377POPC   NC344243  44.412  24.020   5.534
 3377POPC   PO444244  44.339  23.464   5.152
 3377POPC   GL144245  44.612  23.549   5.596
 3377POPC   GL244246  44.889  23.811   5.654
 3377POPC   C1A44247  44.607  23.663   6.078
 3377POPC   D2A44248  44.545  23.610   6.550
 3377POPC   C3A44249  44.878  23.449   6.849
 3377POPC   C4A44250  44.756  23.429   7.286
 3377POPC   C1B44251  44.933  24.081   6.057
 3377POPC   C2B44252  44.991  24.115   6.507
 3377POPC   C3B44253  44.806  23.959   6.923
 3377POPC   C4B44254  44.814  24.108   7.347
 3378POPC   NC344255  30.304  38.201   5.291
 3378POPC   PO444256  30.920  38.340   5.490
 3378POPC   GL144257  30.671  38.433   5.825
 3378POPC   GL244258  30.319  38.403   5.765
 3378POPC   C1A44259  30.737  38.431   6.250
 3378POPC   D2A44260  30.956  38.269   6.563
 3378POPC   C3A44261  30.851  38.475   6.924
 3378POPC   C4A44262  31.083  38.582   7.282
 3378POPC   C1B44263  30.277  38.238   6.182
 3378POPC   C2B44264  30.378  38.355   6.599
 3378POPC   C3B44265  30.364  38.240   7.019
 3378POPC   C4B44266  30.597  38.327   7.353
 3379POPC   NC344267  40.484  44.875   5.405
 3379POPC   PO444268  41.100  44.664   5.235
 3379POPC   GL144269  40.906  44.707   5.654
 3379POPC   GL244270  40.657  44.523   5.779
 3379POPC   C1A44271  40.874  44.838   6.122
 3379POPC   D2A44272  40.896  44.617   6.522
 3379POPC   C3A44273  40.841  44.856   6.910
 3379POPC   C4A44274  41.023  44.595   7.214
 3379POPC   C1B44275  40.548  44.347   6.154
 3379POPC   C2B44276  40.395  44.443   6.546
 3379POPC   C3B44277  40.582  44.415   6.940
 3379POPC   C4B44278  40.498  44.585   7.365
 3380POPC   NC344279  21.983  10.719   5.436
 3380POPC   PO444280  22.475  10.296   5.431
 3380POPC   GL144281  22.256  10.499   5.839
 3380POPC   GL244282  22.012  10.808   5.980
 3380POPC   C1A44283  22.137  10.416   6.275
 3380POPC   D2A44284  22.279  10.133   6.580
 3380POPC   C3A44285  22.316  10.373   6.922
 3380POPC   C4A44286  22.124  10.329   7.298
 3380POPC   C1B44287  22.417  10.840   6.250
 3380POPC   C2B44288  22.654  10.609   6.574
 3380POPC   C3B44289  22.586  10.809   6.974
 3380POPC   C4B44290  22.278  10.802   7.292
 3381POPC   NC344291  20.038   2.258   5.360
 3381POPC   PO444292  20.153   1.674   5.533
 3381POPC   GL144293  19.933   2.005   5.827
 3381POPC   GL244294  19.628   2.265   5.896
 3381POPC   C1A44295  19.814   1.996   6.280
 3381POPC   D2A44296  19.711   1.711   6.595
 3381POPC   C3A44297  19.797   1.934   6.932
 3381POPC   C4A44298  19.545   1.845   7.248
 3381POPC   C1B44299  19.464   2.401   6.303
 3381POPC   C2B44300  19.621   2.515   6.720
 3381POPC   C3B44301  19.542   2.345   7.129
 3381POPC   C4B44302  19.401   2.210   7.564
 3382POPC   NC344303   6.181  39.376   5.398
 3382POPC   PO444304   5.480  39.230   5.229
 3382POPC   GL144305   5.588  39.308   5.689
 3382POPC   GL244306   5.791  39.597   5.750
 3382POPC   C1A44307   5.763  39.204   6.117
 3382POPC   D2A44308   5.649  39.163   6.582
 3382POPC   C3A44309   5.964  39.193   6.891
 3382POPC   C4A44310   6.033  39.144   7.322
 3382POPC   C1B44311   6.126  39.573   6.088
 3382POPC   C2B44312   6.166  39.575   6.525
 3382POPC   C3B44313   6.188  39.643   6.963
 3382POPC   C4B44314   5.874  39.628   7.266
 3383POPC   NC344315   3.922  16.536   5.486
 3383POPC   PO444316   3.253  16.531   5.395
 3383POPC   GL144317   3.498  16.623   5.772
 3383POPC   GL244318   3.707  16.942   5.784
 3383POPC   C1A44319   3.646  16.571   6.184
 3383POPC   D2A44320   3.432  16.527   6.566
 3383POPC   C3A44321   3.670  16.549   6.936
 3383POPC   C4A44322   3.403  16.601   7.261
 3383POPC   C1B44323   3.576  17.084   6.217
 3383POPC   C2B44324   3.576  17.006   6.689
 3383POPC   C3B44325   3.487  17.103   7.146
 3383POPC   C4B44326   3.562  17.216   7.615
 3384POPC   NC344327   3.803  36.280   5.285
 3384POPC   PO444328   3.415  35.818   5.500
 3384POPC   GL144329   3.556  36.061   5.839
 3384POPC   GL244330   3.410  36.409   5.848
 3384POPC   C1A44331   3.421  35.964   6.253
 3384POPC   D2A44332   3.662  36.022   6.602
 3384POPC   C3A44333   3.405  36.029   6.947
 3384POPC   C4A44334   3.538  36.053   7.356
 3384POPC   C1B44335   3.589  36.449   6.274
 3384POPC   C2B44336   3.716  36.499   6.758
 3384POPC   C3B44337   3.656  36.540   7.212
 3384POPC   C4B44338   3.480  36.476   7.659
 3385POPC   NC344339  43.695  28.411   5.460
 3385POPC   PO444340  44.306  28.563   5.705
 3385POPC   GL144341  43.994  28.481   5.993
 3385POPC   GL244342  43.691  28.629   5.905
 3385POPC   C1A44343  43.914  28.602   6.439
 3385POPC   D2A44344  43.969  28.406   6.854
 3385POPC   C3A44345  43.974  28.623   7.230
 3385POPC   C4A44346  44.024  28.420   7.614
 3385POPC   C1B44347  43.503  28.364   6.217
 3385POPC   C2B44348  43.454  28.495   6.652
 3385POPC   C3B44349  43.498  28.452   7.104
 3385POPC   C4B44350  43.564  28.279   7.503
 3386POPC   NC344351  26.030  18.508   5.093
 3386POPC   PO444352  25.881  17.916   5.090
 3386POPC   GL144353  26.098  18.028   5.535
 3386POPC   GL244354  26.232  18.390   5.596
 3386POPC   C1A44355  26.194  18.035   6.013
 3386POPC   D2A44356  26.077  18.224   6.429
 3386POPC   C3A44357  25.957  18.062   6.838
 3386POPC   C4A44358  26.069  18.147   7.249
 3386POPC   C1B44359  26.170  18.553   6.035
 3386POPC   C2B44360  26.068  18.740   6.453
 3386POPC   C3B44361  26.175  18.546   6.870
 3386POPC   C4B44362  26.160  18.666   7.320
 3387POPC   NC344363  21.151   1.099   5.484
 3387POPC   PO444364  21.215   1.743   5.545
 3387POPC   GL144365  21.321   1.430   5.852
 3387POPC   GL244366  21.601   1.204   5.807
 3387POPC   C1A44367  21.267   1.302   6.283
 3387POPC   D2A44368  21.273   1.121   6.700
 3387POPC   C3A44369  21.103   1.295   7.106
 3387POPC   C4A44370  20.990   1.172   7.574
 3387POPC   C1B44371  21.797   1.274   6.243
 3387POPC   C2B44372  21.783   1.021   6.650
 3387POPC   C3B44373  21.610   1.087   7.085
 3387POPC   C4B44374  21.472   1.282   7.466
 3388POPC   NC344375  43.771  33.308   5.148
 3388POPC   PO444376  44.197  32.924   5.546
 3388POPC   GL144377  43.968  32.937   5.865
 3388POPC   GL244378  43.950  33.282   5.854
 3388POPC   C1A44379  44.088  33.037   6.280
 3388POPC   D2A44380  43.829  33.021   6.617
 3388POPC   C3A44381  43.979  33.130   6.987
 3388POPC   C4A44382  44.098  33.131   7.400
 3388POPC   C1B44383  43.662  33.344   6.196
 3388POPC   C2B44384  43.516  33.433   6.599
 3388POPC   C3B44385  43.499  33.327   6.994
 3388POPC   C4B44386  43.598  33.040   7.322
 3389POPC   NC344387  36.885  18.142   5.377
 3389POPC   PO444388  36.738  18.705   5.724
 3389POPC   GL144389  37.010  18.283   5.852
 3389POPC   GL244390  36.819  17.929   5.840
 3389POPC   C1A44391  37.130  18.055   6.265
 3389POPC   D2A44392  37.025  18.135   6.750
 3389POPC   C3A44393  37.213  18.183   7.200
 3389POPC   C4A44394  37.129  18.319   7.653
 3389POPC   C1B44395  36.554  17.868   6.219
 3389POPC   C2B44396  36.643  17.744   6.666
 3389POPC   C3B44397  36.613  18.006   7.048
 3389POPC   C4B44398  36.690  18.083   7.470
 3390POPC   NC344399  37.094  11.785   5.350
 3390POPC   PO444400  36.707  12.372   5.290
 3390POPC   GL144401  36.749  12.157   5.726
 3390POPC   GL244402  37.036  11.979   5.800
 3390POPC   C1A44403  36.721  12.213   6.205
 3390POPC   D2A44404  36.923  12.421   6.575
 3390POPC   C3A44405  37.094  12.247   6.940
 3390POPC   C4A44406  36.779  12.106   7.232
 3390POPC   C1B44407  36.995  11.787   6.176
 3390POPC   C2B44408  36.965  11.893   6.599
 3390POPC   C3B44409  36.764  11.676   6.934
 3390POPC   C4B44410  36.510  11.564   7.267
 3391POPC   NC344411  27.054  32.260   5.419
 3391POPC   PO444412  26.395  32.220   5.486
 3391POPC   GL144413  26.669  32.143   5.829
 3391POPC   GL244414  26.847  32.449   5.914
 3391POPC   C1A44415  26.724  32.091   6.285
 3391POPC   D2A44416  26.602  32.213   6.714
 3391POPC   C3A44417  26.710  32.296   7.127
 3391POPC   C4A44418  26.465  32.400   7.503
 3391POPC   C1B44419  26.996  32.531   6.363
 3391POPC   C2B44420  26.908  32.647   6.809
 3391POPC   C3B44421  27.158  32.528   7.204
 3391POPC   C4B44422  27.326  32.293   7.579
 3392POPC   NC344423  33.328  35.837   5.749
 3392POPC   PO444424  32.864  36.186   5.371
 3392POPC   GL144425  32.906  36.191   5.805
 3392POPC   GL244426  32.863  35.851   5.946
 3392POPC   C1A44427  33.046  36.365   6.192
 3392POPC   D2A44428  32.820  36.438   6.577
 3392POPC   C3A44429  33.053  36.544   6.946
 3392POPC   C4A44430  32.989  36.316   7.320
 3392POPC   C1B44431  33.088  35.876   6.363
 3392POPC   C2B44432  33.300  36.217   6.625
 3392POPC   C3B44433  33.367  36.085   7.043
 3392POPC   C4B44434  33.127  35.736   7.143
 3393POPC   NC344435   0.189  36.171   5.391
 3393POPC   PO444436  44.511  36.010   5.468
 3393POPC   GL144437  44.761  36.251   5.719
 3393POPC   GL244438  44.991  35.969   5.840
 3393POPC   C1A44439  44.728  36.317   6.162
 3393POPC   D2A44440  44.548  36.155   6.548
 3393POPC   C3A44441  44.602  36.373   6.939
 3393POPC   C4A44442  44.458  36.263   7.363
 3393POPC   C1B44443  44.788  35.791   6.221
 3393POPC   C2B44444  44.696  35.620   6.639
 3393POPC   C3B44445  44.625  35.867   6.982
 3393POPC   C4B44446  44.918  36.035   7.241
 3394POPC   NC344447  28.023  16.991   5.634
 3394POPC   PO444448  27.420  16.599   5.561
 3394POPC   GL144449  27.635  16.721   5.866
 3394POPC   GL244450  27.476  16.994   6.008
 3394POPC   C1A44451  27.606  16.549   6.269
 3394POPC   D2A44452  27.429  16.822   6.556
 3394POPC   C3A44453  27.606  16.816   6.926
 3394POPC   C4A44454  27.475  16.555   7.221
 3394POPC   C1B44455  27.869  16.983   6.270
 3394POPC   C2B44456  28.064  16.926   6.675
 3394POPC   C3B44457  27.994  17.134   7.085
 3394POPC   C4B44458  27.671  17.031   7.391
 3395POPC   NC344459   3.502   0.064   5.444
 3395POPC   PO444460   3.823   0.636   5.242
 3395POPC   GL144461   3.618   0.571   5.722
 3395POPC   GL244462   3.563   0.260   5.924
 3395POPC   C1A44463   3.498   0.682   6.211
 3395POPC   D2A44464   3.358   0.814   6.652
 3395POPC   C3A44465   3.300   0.515   6.967
 3395POPC   C4A44466   3.143   0.214   7.239
 3395POPC   C1B44467   3.922   0.395   6.193
 3395POPC   C2B44468   3.986   0.302   6.594
 3395POPC   C3B44469   3.847   0.465   6.940
 3395POPC   C4B44470   3.662   0.440   7.321
 3396POPC   NC344471  39.422  18.908   5.537
 3396POPC   PO444472  38.975  19.229   5.517
 3396POPC   GL144473  39.054  18.918   5.883
 3396POPC   GL244474  39.446  18.886   6.030
 3396POPC   C1A44475  39.044  18.972   6.311
 3396POPC   D2A44476  39.130  19.279   6.600
 3396POPC   C3A44477  39.099  19.014   6.927
 3396POPC   C4A44478  39.051  18.679   7.179
 3396POPC   C1B44479  39.493  19.304   6.219
 3396POPC   C2B44480  39.602  19.513   6.621
 3396POPC   C3B44481  39.485  19.354   7.014
 3396POPC   C4B44482  39.533  18.921   7.230
 3397POPC   NC344483   2.704  34.678   5.084
 3397POPC   PO444484   3.092  34.310   5.547
 3397POPC   GL144485   2.801  34.322   5.835
 3397POPC   GL244486   2.601  34.571   5.619
 3397POPC   C1A44487   2.800  34.378   6.295
 3397POPC   D2A44488   2.537  34.292   6.636
 3397POPC   C3A44489   2.707  34.345   7.043
 3397POPC   C4A44490   2.955  34.395   7.398
 3397POPC   C1B44491   2.740  34.790   6.002
 3397POPC   C2B44492   2.987  34.870   6.370
 3397POPC   C3B44493   2.761  34.769   6.744
 3397POPC   C4B44494   2.663  34.837   7.178
 3398POPC   NC344495  44.858  43.613   5.517
 3398POPC   PO444496  44.539  44.210   5.280
 3398POPC   GL144497  44.616  44.142   5.730
 3398POPC   GL244498  44.963  44.187   5.691
 3398POPC   C1A44499  44.524  44.151   6.205
 3398POPC   D2A44500  44.335  44.106   6.615
 3398POPC   C3A44501  44.602  44.184   6.966
 3398POPC   C4A44502  44.940  44.134   7.300
 3398POPC   C1B44503  44.968  43.970   6.096
 3398POPC   C2B44504  44.950  43.944   6.564
 3398POPC   C3B44505  44.831  43.745   6.969
 3398POPC   C4B44506  44.761  43.552   7.358
 3399POPC   NC344507  25.796   0.965   5.114
 3399POPC   PO444508  25.912   0.367   5.415
 3399POPC   GL144509  26.006   0.722   5.717
 3399POPC   GL244510  25.731   0.722   5.988
 3399POPC   C1A44511  26.336   0.863   6.057
 3399POPC   D2A44512  26.553   0.719   6.469
 3399POPC   C3A44513  26.313   0.555   6.888
 3399POPC   C4A44514  26.149   0.165   7.118
 3399POPC   C1B44515  25.513   0.307   6.146
 3399POPC   C2B44516  25.448   0.094   6.525
 3399POPC   C3B44517  25.676   0.087   6.910
 3399POPC   C4B44518  25.641   0.295   7.301
 3400POPC   NC344519  13.017  31.497   5.052
 3400POPC   PO444520  12.761  31.799   5.568
 3400POPC   GL144521  12.824  31.532   5.921
 3400POPC   GL244522  12.500  31.379   5.847
 3400POPC   C1A44523  12.981  31.637   6.364
 3400POPC   D2A44524  13.053  31.671   6.806
 3400POPC   C3A44525  13.018  31.501   7.221
 3400POPC   C4A44526  13.023  31.056   7.400
 3400POPC   C1B44527  12.484  31.445   6.301
 3400POPC   C2B44528  12.307  31.366   6.707
 3400POPC   C3B44529  12.555  31.365   7.084
 3400POPC   C4B44530  12.630  31.362   7.531
 3401POPC   NC344531  41.708  20.186   5.502
 3401POPC   PO444532  41.771  19.516   5.267
 3401POPC   GL144533  41.525  19.668   5.736
 3401POPC   GL244534  41.624  19.956   5.925
 3401POPC   C1A44535  41.624  19.571   6.235
 3401POPC   D2A44536  41.618  19.736   6.630
 3401POPC   C3A44537  41.734  19.475   6.978
 3401POPC   C4A44538  41.581  19.794   7.252
 3401POPC   C1B44539  41.275  19.929   6.171
 3401POPC   C2B44540  41.186  20.026   6.557
 3401POPC   C3B44541  41.255  20.033   6.943
 3401POPC   C4B44542  41.131  20.060   7.335
 3402POPC   NC344543   3.812  11.891   5.551
 3402POPC   PO444544   4.431  11.853   5.300
 3402POPC   GL144545   4.284  11.894   5.769
 3402POPC   GL244546   4.282  12.260   5.867
 3402POPC   C1A44547   4.050  11.957   6.218
 3402POPC   D2A44548   3.991  12.201   6.641
 3402POPC   C3A44549   3.970  11.976   7.062
 3402POPC   C4A44550   4.330  11.702   7.120
 3402POPC   C1B44551   4.225  12.510   6.272
 3402POPC   C2B44552   4.348  12.591   6.712
 3402POPC   C3B44553   4.128  12.465   7.113
 3402POPC   C4B44554   3.972  12.319   7.530
 3403POPC   NC344555  23.532   2.728   5.528
 3403POPC   PO444556  24.194   2.477   5.364
 3403POPC   GL144557  24.047   2.668   5.762
 3403POPC   GL244558  23.864   2.406   5.863
 3403POPC   C1A44559  23.735   2.837   6.126
 3403POPC   D2A44560  23.534   2.966   6.525
 3403POPC   C3A44561  23.551   2.813   6.945
 3403POPC   C4A44562  23.354   2.447   7.134
 3403POPC   C1B44563  24.084   2.514   6.284
 3403POPC   C2B44564  23.920   2.488   6.722
 3403POPC   C3B44565  23.867   2.464   7.163
 3403POPC   C4B44566  24.039   2.761   7.450
 3404POPC   NC344567  27.918   6.745   5.434
 3404POPC   PO444568  27.500   6.174   5.434
 3404POPC   GL144569  27.778   6.378   5.780
 3404POPC   GL244570  27.606   6.713   5.840
 3404POPC   C1A44571  27.853   6.548   6.244
 3404POPC   D2A44572  27.787   6.837   6.599
 3404POPC   C3A44573  27.747   6.748   7.051
 3404POPC   C4A44574  27.827   7.134   7.302
 3404POPC   C1B44575  27.366   6.854   6.212
 3404POPC   C2B44576  27.293   6.759   6.653
 3404POPC   C3B44577  27.436   7.105   6.897
 3404POPC   C4B44578  27.324   7.289   7.264
 3405POPC   NC344579   9.923  29.060   5.215
 3405POPC   PO444580   9.336  29.012   5.490
 3405POPC   GL144581   9.520  29.053   5.912
 3405POPC   GL244582   9.904  29.075   5.994
 3405POPC   C1A44583   9.582  29.119   6.374
 3405POPC   D2A44584   9.857  28.988   6.708
 3405POPC   C3A44585   9.539  28.941   7.048
 3405POPC   C4A44586   9.596  29.299   7.292
 3405POPC   C1B44587  10.061  29.362   6.364
 3405POPC   C2B44588  10.218  29.415   6.812
 3405POPC   C3B44589  10.017  29.574   7.220
 3405POPC   C4B44590   9.895  29.543   7.680
 3406POPC   NC344591  27.666   2.578   5.623
 3406POPC   PO444592  28.020   3.267   5.407
 3406POPC   GL144593  27.733   3.096   5.737
 3406POPC   GL244594  27.926   2.875   5.946
 3406POPC   C1A44595  27.393   2.987   6.099
 3406POPC   D2A44596  27.219   2.713   6.446
 3406POPC   C3A44597  27.364   2.744   6.882
 3406POPC   C4A44598  27.370   2.859   7.338
 3406POPC   C1B44599  27.827   3.207   6.223
 3406POPC   C2B44600  27.667   3.112   6.628
 3406POPC   C3B44601  27.758   3.019   7.061
 3406POPC   C4B44602  27.819   3.015   7.544
 3407POPC   NC344603  33.306   7.917   5.516
 3407POPC   PO444604  33.918   8.180   5.464
 3407POPC   GL144605  33.723   8.352   5.862
 3407POPC   GL244606  33.486   8.083   5.974
 3407POPC   C1A44607  33.720   8.435   6.334
 3407POPC   D2A44608  33.565   8.396   6.740
 3407POPC   C3A44609  33.777   8.635   7.026
 3407POPC   C4A44610  34.197   8.612   7.150
 3407POPC   C1B44611  33.560   7.957   6.408
 3407POPC   C2B44612  33.864   7.941   6.764
 3407POPC   C3B44613  33.837   8.144   7.106
 3407POPC   C4B44614  33.450   8.231   7.229
 3408POPC   NC344615  13.908  24.222   5.317
 3408POPC   PO444616  13.349  24.678   5.485
 3408POPC   GL144617  13.386  24.456   5.865
 3408POPC   GL244618  13.690  24.399   5.742
 3408POPC   C1A44619  13.403  24.563   6.303
 3408POPC   D2A44620  13.439  24.689   6.752
 3408POPC   C3A44621  13.363  24.332   7.073
 3408POPC   C4A44622  13.291  24.248   7.505
 3408POPC   C1B44623  13.871  24.503   6.131
 3408POPC   C2B44624  13.921  24.583   6.562
 3408POPC   C3B44625  13.842  24.443   6.981
 3408POPC   C4B44626  13.837  24.645   7.401
 3409POPC   NC344627  42.324  16.954   5.485
 3409POPC   PO444628  42.481  16.327   5.396
 3409POPC   GL144629  42.283  16.551   5.805
 3409POPC   GL244630  41.938  16.649   5.778
 3409POPC   C1A44631  42.180  16.882   6.177
 3409POPC   D2A44632  42.190  17.090   6.622
 3409POPC   C3A44633  42.484  16.883   6.887
 3409POPC   C4A44634  42.502  16.627   7.224
 3409POPC   C1B44635  41.911  16.444   6.193
 3409POPC   C2B44636  41.987  16.603   6.637
 3409POPC   C3B44637  42.001  16.708   7.103
 3409POPC   C4B44638  41.844  16.447   7.471
 3410POPC   NC344639  22.505  13.686   5.303
 3410POPC   PO444640  23.103  13.374   5.295
 3410POPC   GL144641  22.955  13.344   5.734
 3410POPC   GL244642  22.944  13.679   5.842
 3410POPC   C1A44643  22.821  13.306   6.174
 3410POPC   D2A44644  22.899  13.210   6.588
 3410POPC   C3A44645  22.616  13.336   6.901
 3410POPC   C4A44646  22.757  13.673   7.145
 3410POPC   C1B44647  23.071  13.790   6.279
 3410POPC   C2B44648  23.106  13.669   6.737
 3410POPC   C3B44649  23.254  13.850   7.132
 3410POPC   C4B44650  23.060  14.182   7.431
 3411POPC   NC344651  36.798  17.416   5.505
 3411POPC   PO444652  37.237  17.874   5.531
 3411POPC   GL144653  37.192  17.550   5.837
 3411POPC   GL244654  37.236  17.171   5.771
 3411POPC   C1A44655  36.950  17.560   6.228
 3411POPC   D2A44656  37.180  17.663   6.605
 3411POPC   C3A44657  37.043  17.704   7.029
 3411POPC   C4A44658  36.716  17.560   7.284
 3411POPC   C1B44659  37.296  17.211   6.220
 3411POPC   C2B44660  36.991  17.195   6.611
 3411POPC   C3B44661  37.087  17.183   7.017
 3411POPC   C4B44662  37.233  17.355   7.362
 3412POPC   NC344663   7.758  41.377   5.613
 3412POPC   PO444664   7.243  41.614   5.274
 3412POPC   GL144665   7.276  41.530   5.741
 3412POPC   GL244666   7.537  41.722   5.917
 3412POPC   C1A44667   7.177  41.577   6.221
 3412POPC   D2A44668   7.312  41.405   6.598
 3412POPC   C3A44669   7.326  41.701   6.874
 3412POPC   C4A44670   7.082  41.531   7.200
 3412POPC   C1B44671   7.667  41.382   6.234
 3412POPC   C2B44672   7.762  41.168   6.620
 3412POPC   C3B44673   7.697  41.340   7.023
 3412POPC   C4B44674   7.562  41.706   7.305
 3413POPC   NC344675   0.231   5.973   5.626
 3413POPC   PO444676  44.627   5.902   5.377
 3413POPC   GL144677  44.758   5.824   5.804
 3413POPC   GL244678  44.950   6.106   6.011
 3413POPC   C1A44679  44.698   5.562   6.164
 3413POPC   D2A44680  44.553   5.643   6.581
 3413POPC   C3A44681  44.790   5.632   6.974
 3413POPC   C4A44682  44.498   5.611   7.315
 3413POPC   C1B44683  44.974   6.292   6.418
 3413POPC   C2B44684  44.743   6.101   6.725
 3413POPC   C3B44685  44.640   6.150   7.141
 3413POPC   C4B44686  44.982   6.262   7.423
 3414POPC   NC344687  42.119  24.072   5.511
 3414POPC   PO444688  42.264  24.703   5.429
 3414POPC   GL144689  42.110  24.506   5.786
 3414POPC   GL244690  42.189  24.725   6.022
 3414POPC   C1A44691  42.005  24.315   6.216
 3414POPC   D2A44692  42.218  24.503   6.581
 3414POPC   C3A44693  42.086  24.472   7.033
 3414POPC   C4A44694  42.178  24.323   7.474
 3414POPC   C1B44695  42.521  24.434   6.120
 3414POPC   C2B44696  42.726  24.388   6.518
 3414POPC   C3B44697  42.568  24.260   6.938
 3414POPC   C4B44698  42.561  24.584   7.259
 3415POPC   NC344699  31.987  44.957   5.632
 3415POPC   PO444700  31.403  44.558   5.394
 3415POPC   GL144701  31.525  44.721   5.778
 3415POPC   GL244702  31.202  44.695   5.943
 3415POPC   C1A44703  31.614  44.860   6.225
 3415POPC   D2A44704  31.553  44.954   6.685
 3415POPC   C3A44705  31.675  44.664   7.028
 3415POPC   C4A44706  31.637  44.711   7.486
 3415POPC   C1B44707  31.179  44.419   6.274
 3415POPC   C2B44708  31.225  44.533   6.680
 3415POPC   C3B44709  31.164  44.742   7.042
 3415POPC   C4B44710  31.260  44.411   7.321
 3416POPC   NC344711  44.392  28.134   5.543
 3416POPC   PO444712  44.588  28.710   5.251
 3416POPC   GL144713  44.804  28.453   5.685
 3416POPC   GL244714  44.680  28.544   6.043
 3416POPC   C1A44715  44.792  28.075   6.059
 3416POPC   D2A44716  44.766  28.264   6.505
 3416POPC   C3A44717  44.690  28.058   6.930
 3416POPC   C4A44718  44.394  28.267   7.218
 3416POPC   C1B44719  44.978  28.763   6.299
 3416POPC   C2B44720   0.131  28.819   6.723
 3416POPC   C3B44721  44.916  28.541   7.008
 3416POPC   C4B44722  44.964  28.456   7.441
 3417POPC   NC344723   9.436   5.078   5.611
 3417POPC   PO444724   9.721   5.491   5.149
 3417POPC   GL144725   9.813   5.464   5.629
 3417POPC   GL244726   9.992   5.227   5.782
 3417POPC   C1A44727   9.708   5.465   6.122
 3417POPC   D2A44728   9.932   5.474   6.541
 3417POPC   C3A44729   9.751   5.365   6.917
 3417POPC   C4A44730   9.704   4.989   7.075
 3417POPC   C1B44731  10.067   5.078   6.222
 3417POPC   C2B44732  10.296   5.110   6.630
 3417POPC   C3B44733  10.206   5.135   7.058
 3417POPC   C4B44734  10.132   4.739   7.199
 3418POPC   NC344735  23.271  22.724   5.406
 3418POPC   PO444736  22.720  23.078   5.394
 3418POPC   GL144737  22.914  23.042   5.785
 3418POPC   GL244738  22.957  22.685   5.823
 3418POPC   C1A44739  22.793  23.132   6.223
 3418POPC   D2A44740  22.890  22.964   6.641
 3418POPC   C3A44741  22.880  23.184   7.014
 3418POPC   C4A44742  22.663  23.144   7.412
 3418POPC   C1B44743  22.825  22.611   6.259
 3418POPC   C2B44744  22.763  22.480   6.709
 3418POPC   C3B44745  22.762  22.695   7.116
 3418POPC   C4B44746  23.074  22.849   7.453
 3419POPC   NC344747  41.904  10.918   5.423
 3419POPC   PO444748  41.455  11.505   5.262
 3419POPC   GL144749  41.490  11.227   5.661
 3419POPC   GL244750  41.807  11.264   5.801
 3419POPC   C1A44751  41.440  11.158   6.147
 3419POPC   D2A44752  41.193  11.273   6.545
 3419POPC   C3A44753  41.332  11.136   6.963
 3419POPC   C4A44754  41.674  11.242   7.170
 3419POPC   C1B44755  41.874  11.536   6.153
 3419POPC   C2B44756  41.988  11.425   6.570
 3419POPC   C3B44757  41.896  11.633   6.934
 3419POPC   C4B44758  41.704  11.721   7.292
 3420POPC   NC344759  38.598  25.567   5.400
 3420POPC   PO444760  38.217  25.054   5.631
 3420POPC   GL144761  38.345  25.387   5.805
 3420POPC   GL244762  38.678  25.259   5.808
 3420POPC   C1A44763  38.328  25.452   6.221
 3420POPC   D2A44764  38.470  25.239   6.591
 3420POPC   C3A44765  38.351  25.410   7.026
 3420POPC   C4A44766  38.438  25.356   7.508
 3420POPC   C1B44767  38.847  25.057   6.166
 3420POPC   C2B44768  38.896  24.946   6.583
 3420POPC   C3B44769  38.747  25.057   6.972
 3420POPC   C4B44770  38.939  25.090   7.301
 3421POPC   NC344771   6.882  19.601   5.508
 3421POPC   PO444772   6.316  20.088   5.513
 3421POPC   GL144773   6.628  19.927   5.821
 3421POPC   GL244774   6.960  20.075   5.759
 3421POPC   C1A44775   6.548  19.721   6.232
 3421POPC   D2A44776   6.545  19.977   6.623
 3421POPC   C3A44777   6.577  19.711   6.967
 3421POPC   C4A44778   6.463  19.450   7.298
 3421POPC   C1B44779   7.040  19.794   6.132
 3421POPC   C2B44780   6.943  19.652   6.563
 3421POPC   C3B44781   7.080  19.787   6.972
 3421POPC   C4B44782   6.882  19.764   7.384
 3422POPC   NC344783  40.795   7.646   5.362
 3422POPC   PO444784  40.685   6.977   5.280
 3422POPC   GL144785  40.570   7.218   5.676
 3422POPC   GL244786  40.844   7.379   5.822
 3422POPC   C1A44787  40.521   7.285   6.183
 3422POPC   D2A44788  40.758   7.300   6.600
 3422POPC   C3A44789  40.683   7.480   7.000
 3422POPC   C4A44790  40.529   7.293   7.369
 3422POPC   C1B44791  41.009   7.563   6.210
 3422POPC   C2B44792  41.238   7.492   6.602
 3422POPC   C3B44793  41.259   7.329   7.022
 3422POPC   C4B44794  41.057   7.541   7.354
 3423POPC   NC344795  12.680  40.796   5.119
 3423POPC   PO444796  13.167  40.336   5.138
 3423POPC   GL144797  12.926  40.702   5.584
 3423POPC   GL244798  12.673  40.923   5.845
 3423POPC   C1A44799  12.910  40.612   6.131
 3423POPC   D2A44800  13.061  40.697   6.588
 3423POPC   C3A44801  12.851  40.555   6.994
 3423POPC   C4A44802  13.062  40.653   7.383
 3423POPC   C1B44803  12.848  41.114   6.262
 3423POPC   C2B44804  13.064  41.250   6.628
 3423POPC   C3B44805  13.073  41.027   7.000
 3423POPC   C4B44806  12.715  41.023   7.256
 3424POPC   NC344807  11.962  35.978   5.495
 3424POPC   PO444808  12.378  36.547   5.451
 3424POPC   GL144809  12.313  36.298   5.809
 3424POPC   GL244810  12.353  35.921   5.822
 3424POPC   C1A44811  12.036  36.411   6.126
 3424POPC   D2A44812  11.933  36.268   6.514
 3424POPC   C3A44813  12.043  36.424   6.922
 3424POPC   C4A44814  12.038  36.290   7.359
 3424POPC   C1B44815  12.312  35.976   6.264
 3424POPC   C2B44816  12.369  36.058   6.704
 3424POPC   C3B44817  12.236  35.901   7.111
 3424POPC   C4B44818  12.337  35.852   7.553
 3425POPC   NC344819  31.933  13.037   5.564
 3425POPC   PO444820  32.456  12.705   5.356
 3425POPC   GL144821  32.289  12.641   5.800
 3425POPC   GL244822  32.448  12.958   5.891
 3425POPC   C1A44823  32.182  12.761   6.268
 3425POPC   D2A44824  32.285  12.910   6.678
 3425POPC   C3A44825  32.114  13.240   6.904
 3425POPC   C4A44826  31.981  13.074   7.303
 3425POPC   C1B44827  32.694  12.724   6.232
 3425POPC   C2B44828  32.566  12.489   6.618
 3425POPC   C3B44829  32.493  12.607   7.056
 3425POPC   C4B44830  32.485  13.038   7.227
 3426POPC   NC344831  16.053  23.867   5.261
 3426POPC   PO444832  15.749  23.309   5.493
 3426POPC   GL144833  16.019  23.612   5.712
 3426POPC   GL244834  15.812  23.898   5.729
 3426POPC   C1A44835  16.105  23.792   6.144
 3426POPC   D2A44836  16.008  23.683   6.597
 3426POPC   C3A44837  16.225  23.907   6.939
 3426POPC   C4A44838  16.080  24.079   7.338
 3426POPC   C1B44839  15.586  23.689   6.098
 3426POPC   C2B44840  15.478  23.773   6.554
 3426POPC   C3B44841  15.683  23.899   6.948
 3426POPC   C4B44842  15.700  23.727   7.357
 3427POPC   NC344843   6.781  34.043   5.570
 3427POPC   PO444844   6.239  33.735   5.385
 3427POPC   GL144845   6.428  33.781   5.816
 3427POPC   GL244846   6.685  33.546   5.714
 3427POPC   C1A44847   6.665  33.979   6.193
 3427POPC   D2A44848   6.695  34.172   6.609
 3427POPC   C3A44849   6.912  33.941   6.892
 3427POPC   C4A44850   6.728  33.901   7.263
 3427POPC   C1B44851   6.695  33.441   6.155
 3427POPC   C2B44852   6.727  33.606   6.559
 3427POPC   C3B44853   6.535  33.510   6.942
 3427POPC   C4B44854   6.683  33.368   7.320
 3428POPC   NC344855   8.652   8.299   5.444
 3428POPC   PO444856   9.160   7.981   5.243
 3428POPC   GL144857   9.055   8.125   5.741
 3428POPC   GL244858   8.721   8.062   5.893
 3428POPC   C1A44859   9.045   8.273   6.222
 3428POPC   D2A44860   9.189   8.079   6.622
 3428POPC   C3A44861   9.079   8.362   6.977
 3428POPC   C4A44862   9.170   8.517   7.385
 3428POPC   C1B44863   8.804   7.828   6.271
 3428POPC   C2B44864   8.621   7.732   6.655
 3428POPC   C3B44865   8.834   7.834   7.020
 3428POPC   C4B44866   8.679   7.881   7.426
 3429POPC   NC344867  14.893  34.756   5.239
 3429POPC   PO444868  15.174  34.210   5.377
 3429POPC   GL144869  15.079  34.550   5.710
 3429POPC   GL244870  15.239  34.889   5.698
 3429POPC   C1A44871  15.023  34.468   6.176
 3429POPC   D2A44872  14.848  34.530   6.612
 3429POPC   C3A44873  15.114  34.390   6.866
 3429POPC   C4A44874  15.278  34.344   7.256
 3429POPC   C1B44875  15.473  34.702   6.030
 3429POPC   C2B44876  15.381  34.693   6.477
 3429POPC   C3B44877  15.456  34.788   6.911
 3429POPC   C4B44878  15.355  34.826   7.333
 3430POPC   NC344879  11.589  38.083   5.543
 3430POPC   PO444880  11.000  38.449   5.410
 3430POPC   GL144881  11.268  38.413   5.765
 3430POPC   GL244882  11.185  38.768   5.825
 3430POPC   C1A44883  11.338  38.127   6.164
 3430POPC   D2A44884  11.604  38.081   6.547
 3430POPC   C3A44885  11.427  38.268   6.921
 3430POPC   C4A44886  11.501  38.644   7.149
 3430POPC   C1B44887  11.034  38.550   6.179
 3430POPC   C2B44888  11.288  38.537   6.511
 3430POPC   C3B44889  11.107  38.711   6.847
 3430POPC   C4B44890  10.992  38.766   7.262
 3431POPC   NC344891   0.660  34.162   5.140
 3431POPC   PO444892   0.446  34.744   5.471
 3431POPC   GL144893   0.391  34.688   5.885
 3431POPC   GL244894   0.147  34.947   5.921
 3431POPC   C1A44895   0.420  34.389   6.233
 3431POPC   D2A44896   0.552  34.175   6.628
 3431POPC   C3A44897   0.280  34.242   7.027
 3431POPC   C4A44898   0.293  34.441   7.465
 3431POPC   C1B44899   0.272  34.905   6.353
 3431POPC   C2B44900   0.560  34.687   6.642
 3431POPC   C3B44901   0.660  34.598   7.071
 3431POPC   C4B44902   0.594  34.862   7.419
 3432POPC   NC344903  40.106  22.737   5.419
 3432POPC   PO444904  39.674  23.193   5.356
 3432POPC   GL144905  39.840  23.111   5.768
 3432POPC   GL244906  40.204  23.154   5.760
 3432POPC   C1A44907  39.765  22.742   6.038
 3432POPC   D2A44908  39.810  22.546   6.437
 3432POPC   C3A44909  40.106  22.760   6.720
 3432POPC   C4A44910  39.986  22.857   7.140
 3432POPC   C1B44911  40.171  23.037   6.203
 3432POPC   C2B44912  39.946  23.211   6.568
 3432POPC   C3B44913  40.189  23.310   6.936
 3432POPC   C4B44914  40.273  23.226   7.342
 3433POPC   NC344915  30.398  20.769   5.547
 3433POPC   PO444916  29.739  20.469   5.439
 3433POPC   GL144917  30.009  20.502   5.829
 3433POPC   GL244918  30.374  20.330   5.824
 3433POPC   C1A44919  29.865  20.679   6.254
 3433POPC   D2A44920  29.748  20.935   6.628
 3433POPC   C3A44921  29.842  20.753   7.016
 3433POPC   C4A44922  29.834  20.566   7.414
 3433POPC   C1B44923  30.188  20.271   6.251
 3433POPC   C2B44924  29.969  20.361   6.653
 3433POPC   C3B44925  30.172  20.355   7.061
 3433POPC   C4B44926  30.120  20.149   7.448
 3434POPC   NC344927  23.097  17.523   5.480
 3434POPC   PO444928  23.613  17.915   5.605
 3434POPC   GL144929  23.238  17.665   5.936
 3434POPC   GL244930  22.895  17.400   5.924
 3434POPC   C1A44931  23.136  17.422   6.369
 3434POPC   D2A44932  23.218  17.152   6.746
 3434POPC   C3A44933  22.947  17.275   7.083
 3434POPC   C4A44934  22.977  17.645   7.366
 3434POPC   C1B44935  22.623  17.479   6.305
 3434POPC   C2B44936  22.729  17.594   6.745
 3434POPC   C3B44937  22.520  17.589   7.146
 3434POPC   C4B44938  22.582  17.369   7.520
 3435POPC   NC344939   1.672  44.869   5.477
 3435POPC   PO444940   2.143  44.468   5.411
 3435POPC   GL144941   2.226  44.662   5.805
 3435POPC   GL244942   2.073  44.987   5.790
 3435POPC   C1A44943   2.202  44.555   6.249
 3435POPC   D2A44944   2.353  44.814   6.593
 3435POPC   C3A44945   2.134  44.825   6.945
 3435POPC   C4A44946   2.172  44.484   7.211
 3435POPC   C1B44947   1.797  44.840   6.123
 3435POPC   C2B44948   1.760  44.885   6.566
 3435POPC   C3B44949   1.598  44.779   6.952
 3435POPC   C4B44950   1.781  44.798   7.331
 3436POPC   NC344951  10.349  16.869   5.474
 3436POPC   PO444952  10.944  16.960   5.189
 3436POPC   GL144953  10.731  16.633   5.649
 3436POPC   GL244954  10.729  16.312   5.843
 3436POPC   C1A44955  10.703  16.747   6.132
 3436POPC   D2A44956  10.488  16.695   6.563
 3436POPC   C3A44957  10.696  16.848   6.935
 3436POPC   C4A44958  10.894  16.622   7.271
 3436POPC   C1B44959  10.357  16.369   6.144
 3436POPC   C2B44960  10.055  16.428   6.480
 3436POPC   C3B44961  10.176  16.327   6.885
 3436POPC   C4B44962  10.389  16.547   7.193
 3437POPC   NC344963  14.383  10.840   5.355
 3437POPC   PO444964  14.509  10.162   5.445
 3437POPC   GL144965  14.434  10.518   5.744
 3437POPC   GL244966  14.069  10.590   5.698
 3437POPC   C1A44967  14.484  10.744   6.142
 3437POPC   D2A44968  14.662  10.670   6.506
 3437POPC   C3A44969  14.544  10.783   6.928
 3437POPC   C4A44970  14.499  10.559   7.303
 3437POPC   C1B44971  14.012  10.548   6.134
 3437POPC   C2B44972  14.151  10.691   6.551
 3437POPC   C3B44973  14.084  10.534   6.964
 3437POPC   C4B44974  13.880  10.717   7.299
 3438POPC   NC344975  34.689  23.507   5.254
 3438POPC   PO444976  34.316  24.015   5.585
 3438POPC   GL144977  34.560  23.635   5.749
 3438POPC   GL244978  34.882  23.743   5.792
 3438POPC   C1A44979  34.697  23.488   6.186
 3438POPC   D2A44980  34.550  23.779   6.505
 3438POPC   C3A44981  34.636  23.672   6.907
 3438POPC   C4A44982  34.447  23.786   7.280
 3438POPC   C1B44983  34.956  23.947   6.208
 3438POPC   C2B44984  35.054  23.835   6.640
 3438POPC   C3B44985  34.993  23.997   7.072
 3438POPC   C4B44986  34.940  23.720   7.431
 3439POPC   NC344987   4.104  17.400   5.387
 3439POPC   PO444988   4.777  17.338   5.348
 3439POPC   GL144989   4.688  17.174   5.783
 3439POPC   GL244990   4.328  17.241   5.888
 3439POPC   C1A44991   4.817  17.324   6.218
 3439POPC   D2A44992   4.988  17.469   6.620
 3439POPC   C3A44993   4.642  17.462   6.935
 3439POPC   C4A44994   4.397  17.203   7.195
 3439POPC   C1B44995   4.315  17.340   6.348
 3439POPC   C2B44996   4.161  17.405   6.776
 3439POPC   C3B44997   4.190  17.733   7.103
 3439POPC   C4B44998   3.827  18.026   7.106
 3440POPC   NC344999  31.286  22.497   5.345
 3440POPC   PO445000  31.149  23.211   5.353
 3440POPC   GL145001  31.151  22.900   5.687
 3440POPC   GL245002  31.430  22.998   5.898
 3440POPC   C1A45003  31.076  22.739   6.122
 3440POPC   D2A45004  31.258  22.676   6.508
 3440POPC   C3A45005  31.034  22.760   6.856
 3440POPC   C4A45006  31.378  22.954   7.156
 3440POPC   C1B45007  31.680  23.023   6.259
 3440POPC   C2B45008  31.834  23.171   6.616
 3440POPC   C3B45009  31.694  23.317   6.985
 3440POPC   C4B45010  31.848  23.106   7.319
 3441POPC   NC345011  16.200  10.507   5.430
 3441POPC   PO445012  15.592  10.793   5.159
 3441POPC   GL145013  15.589  10.580   5.659
 3441POPC   GL245014  15.824  10.347   5.814
 3441POPC   C1A45015  15.580  10.649   6.176
 3441POPC   D2A45016  15.499  10.757   6.661
 3441POPC   C3A45017  15.845  10.570   6.924
 3441POPC   C4A45018  16.221  10.558   7.192
 3441POPC   C1B45019  15.993  10.287   6.270
 3441POPC   C2B45020  16.130  10.179   6.735
 3441POPC   C3B45021  16.204   9.999   7.178
 3441POPC   C4B45022  16.105  10.036   7.648
 3442POPC   NC345023  30.728  17.502   5.101
 3442POPC   PO445024  30.266  17.210   5.540
 3442POPC   GL145025  30.582  17.491   5.750
 3442POPC   GL245026  30.945  17.555   5.603
 3442POPC   C1A45027  30.477  17.566   6.178
 3442POPC   D2A45028  30.699  17.731   6.523
 3442POPC   C3A45029  30.705  17.467   6.886
 3442POPC   C4A45030  30.544  17.515   7.308
 3442POPC   C1B45031  30.974  17.726   6.037
 3442POPC   C2B45032  31.155  17.517   6.411
 3442POPC   C3B45033  31.232  17.539   6.858
 3442POPC   C4B45034  31.061  17.351   7.238
 3443POPC   NC345035  36.446  27.085   5.439
 3443POPC   PO445036  36.166  26.432   5.347
 3443POPC   GL145037  36.182  26.721   5.702
 3443POPC   GL245038  35.815  26.813   5.746
 3443POPC   C1A45039  36.177  26.905   6.136
 3443POPC   D2A45040  36.229  26.696   6.548
 3443POPC   C3A45041  36.360  26.885   6.928
 3443POPC   C4A45042  36.326  27.073   7.345
 3443POPC   C1B45043  35.731  26.568   6.139
 3443POPC   C2B45044  35.765  26.476   6.561
 3443POPC   C3B45045  35.890  26.665   6.950
 3443POPC   C4B45046  35.736  26.502   7.305
 3444POPC   NC345047  26.553  14.549   5.200
 3444POPC   PO445048  27.102  14.550   5.577
 3444POPC   GL145049  26.871  14.242   5.786
 3444POPC   GL245050  26.623  14.457   5.774
 3444POPC   C1A45051  26.805  14.079   6.240
 3444POPC   D2A45052  27.029  14.067   6.635
 3444POPC   C3A45053  26.817  14.338   6.938
 3444POPC   C4A45054  26.992  14.685   7.193
 3444POPC   C1B45055  26.844  14.588   6.186
 3444POPC   C2B45056  26.810  14.753   6.603
 3444POPC   C3B45057  26.551  14.791   6.974
 3444POPC   C4B45058  26.354  14.466   7.177
 3445POPC   NC345059  40.682   2.516   5.696
 3445POPC   PO445060  40.616   1.863   5.505
 3445POPC   GL145061  40.745   2.020   5.932
 3445POPC   GL245062  41.018   2.285   6.029
 3445POPC   C1A45063  40.771   1.918   6.375
 3445POPC   D2A45064  40.967   2.157   6.685
 3445POPC   C3A45065  41.020   1.994   7.080
 3445POPC   C4A45066  40.848   1.681   7.352
 3445POPC   C1B45067  40.721   2.457   6.354
 3445POPC   C2B45068  40.513   2.384   6.751
 3445POPC   C3B45069  40.569   2.394   7.184
 3445POPC   C4B45070  40.819   2.182   7.525
 3446POPC   NC345071  29.159  43.341   5.315
 3446POPC   PO445072  29.205  42.721   5.457
 3446POPC   GL145073  29.296  42.984   5.789
 3446POPC   GL245074  28.970  43.060   5.794
 3446POPC   C1A45075  29.297  43.061   6.255
 3446POPC   D2A45076  29.583  42.960   6.616
 3446POPC   C3A45077  29.429  43.064   7.024
 3446POPC   C4A45078  29.103  42.909   7.295
 3446POPC   C1B45079  28.764  43.068   6.213
 3446POPC   C2B45080  28.699  43.336   6.592
 3446POPC   C3B45081  28.825  43.271   7.014
 3446POPC   C4B45082  28.696  43.334   7.409
 3447POPC   NC345083  11.035   7.573   5.506
 3447POPC   PO445084  10.391   7.678   5.329
 3447POPC   GL145085  10.519   7.414   5.681
 3447POPC   GL245086  10.331   7.666   5.863
 3447POPC   C1A45087  10.487   7.228   6.112
 3447POPC   D2A45088  10.236   7.286   6.512
 3447POPC   C3A45089  10.505   7.195   6.879
 3447POPC   C4A45090  10.793   7.300   7.220
 3447POPC   C1B45091  10.732   7.682   6.097
 3447POPC   C2B45092  10.765   7.492   6.498
 3447POPC   C3B45093  10.691   7.679   6.885
 3447POPC   C4B45094  10.914   7.787   7.217
 3448POPC   NC345095  42.335  34.181   5.316
 3448POPC   PO445096  42.389  33.513   5.277
 3448POPC   GL145097  42.267  33.697   5.699
 3448POPC   GL245098  42.592  33.680   5.760
 3448POPC   C1A45099  42.353  33.879   6.165
 3448POPC   D2A45100  42.342  34.104   6.559
 3448POPC   C3A45101  42.289  33.808   6.892
 3448POPC   C4A45102  42.428  33.958   7.280
 3448POPC   C1B45103  42.764  33.576   6.139
 3448POPC   C2B45104  42.720  33.760   6.537
 3448POPC   C3B45105  42.764  33.691   6.940
 3448POPC   C4B45106  42.737  33.491   7.341
 3449POPC   NC345107   4.820  23.001   5.398
 3449POPC   PO445108   5.383  22.655   5.508
 3449POPC   GL145109   5.227  22.815   5.899
 3449POPC   GL245110   5.104  23.143   5.848
 3449POPC   C1A45111   4.923  22.905   6.251
 3449POPC   D2A45112   4.889  22.694   6.628
 3449POPC   C3A45113   4.949  22.871   7.021
 3449POPC   C4A45114   5.052  22.671   7.386
 3449POPC   C1B45115   5.284  23.272   6.258
 3449POPC   C2B45116   5.159  23.206   6.696
 3449POPC   C3B45117   5.255  23.248   7.140
 3449POPC   C4B45118   5.354  23.484   7.491
 3450POPC   NC345119  40.377   6.733   5.517
 3450POPC   PO445120  39.719   6.846   5.504
 3450POPC   GL145121  39.992   6.507   5.777
 3450POPC   GL245122  40.286   6.245   5.707
 3450POPC   C1A45123  40.202   6.538   6.209
 3450POPC   D2A45124  39.986   6.446   6.618
 3450POPC   C3A45125  40.025   6.726   6.999
 3450POPC   C4A45126  39.679   6.775   7.305
 3450POPC   C1B45127  40.203   6.045   6.120
 3450POPC   C2B45128  40.356   6.082   6.565
 3450POPC   C3B45129  40.253   6.237   6.991
 3450POPC   C4B45130  39.863   6.295   7.212
 3451POPC   NC345131   6.680  32.620   5.405
 3451POPC   PO445132   6.188  32.279   5.310
 3451POPC   GL145133   6.429  32.173   5.708
 3451POPC   GL245134   6.668  32.406   5.869
 3451POPC   C1A45135   6.439  32.064   6.178
 3451POPC   D2A45136   6.803  31.955   6.466
 3451POPC   C3A45137   6.939  32.200   6.841
 3451POPC   C4A45138   6.739  32.128   7.257
 3451POPC   C1B45139   6.813  32.429   6.297
 3451POPC   C2B45140   6.661  32.618   6.670
 3451POPC   C3B45141   6.516  32.546   7.101
 3451POPC   C4B45142   6.587  32.534   7.581
 3452POPC   NC345143  42.941  13.248   5.504
 3452POPC   PO445144  43.544  13.051   5.637
 3452POPC   GL145145  43.204  12.994   5.895
 3452POPC   GL245146  42.909  12.803   5.794
 3452POPC   C1A45147  43.207  12.930   6.328
 3452POPC   D2A45148  43.389  12.631   6.607
 3452POPC   C3A45149  43.191  12.693   6.991
 3452POPC   C4A45150  43.092  13.105   7.147
 3452POPC   C1B45151  42.947  12.520   6.147
 3452POPC   C2B45152  42.824  12.650   6.561
 3452POPC   C3B45153  42.700  12.907   6.907
 3452POPC   C4B45154  42.742  12.653   7.308
 3453POPC   NC345155  40.513  27.802   5.507
 3453POPC   PO445156  40.940  27.292   5.373
 3453POPC   GL145157  40.886  27.500   5.748
 3453POPC   GL245158  41.110  27.776   5.787
 3453POPC   C1A45159  40.792  27.335   6.146
 3453POPC   D2A45160  40.605  27.493   6.530
 3453POPC   C3A45161  40.816  27.338   6.893
 3453POPC   C4A45162  40.581  27.435   7.216
 3453POPC   C1B45163  40.944  27.835   6.187
 3453POPC   C2B45164  41.042  27.748   6.603
 3453POPC   C3B45165  40.770  27.839   6.953
 3453POPC   C4B45166  40.813  27.886   7.374
 3454POPC   NC345167  13.522  13.390   5.463
 3454POPC   PO445168  13.875  13.915   5.435
 3454POPC   GL145169  13.803  13.648   5.841
 3454POPC   GL245170  13.463  13.506   5.951
 3454POPC   C1A45171  13.880  13.630   6.315
 3454POPC   D2A45172  13.749  13.753   6.750
 3454POPC   C3A45173  13.951  13.712   7.158
 3454POPC   C4A45174  13.714  13.737   7.556
 3454POPC   C1B45175  13.194  13.183   6.148
 3454POPC   C2B45176  13.288  12.946   6.528
 3454POPC   C3B45177  13.255  13.173   6.951
 3454POPC   C4B45178  13.405  13.577   7.148
 3455POPC   NC345179  15.130  32.840   5.572
 3455POPC   PO445180  14.797  33.444   5.535
 3455POPC   GL145181  15.110  33.244   5.887
 3455POPC   GL245182  15.386  32.931   5.984
 3455POPC   C1A45183  15.242  33.268   6.318
 3455POPC   D2A45184  15.065  33.193   6.708
 3455POPC   C3A45185  15.288  33.370   7.041
 3455POPC   C4A45186  15.559  33.211   7.326
 3455POPC   C1B45187  15.108  32.787   6.285
 3455POPC   C2B45188  15.270  32.722   6.715
 3455POPC   C3B45189  15.189  32.835   7.147
 3455POPC   C4B45190  15.461  32.763   7.516
 3456POPC   NC345191  18.215  11.639   5.530
 3456POPC   PO445192  18.436  10.999   5.401
 3456POPC   GL145193  18.386  11.232   5.805
 3456POPC   GL245194  18.597  11.556   5.847
 3456POPC   C1A45195  18.101  11.304   6.198
 3456POPC   D2A45196  17.933  11.427   6.605
 3456POPC   C3A45197  18.161  11.199   6.937
 3456POPC   C4A45198  18.085  11.015   7.332
 3456POPC   C1B45199  18.604  11.380   6.236
 3456POPC   C2B45200  18.448  11.503   6.624
 3456POPC   C3B45201  18.617  11.587   7.035
 3456POPC   C4B45202  18.560  11.232   7.294
 3457POPC   NC345203  35.006  26.192   5.325
 3457POPC   PO445204  34.396  25.815   5.134
 3457POPC   GL145205  34.587  25.891   5.585
 3457POPC   GL245206  34.925  25.759   5.653
 3457POPC   C1A45207  34.715  26.085   6.012
 3457POPC   D2A45208  34.836  26.046   6.445
 3457POPC   C3A45209  34.569  26.186   6.784
 3457POPC   C4A45210  34.502  26.146   7.221
 3457POPC   C1B45211  34.902  25.590   6.092
 3457POPC   C2B45212  34.694  25.552   6.482
 3457POPC   C3B45213  34.819  25.725   6.868
 3457POPC   C4B45214  34.919  25.893   7.244
 3458POPC   NC345215  40.998  11.565   5.162
 3458POPC   PO445216  40.713  12.160   5.402
 3458POPC   GL145217  40.721  11.948   5.757
 3458POPC   GL245218  41.081  11.950   5.734
 3458POPC   C1A45219  40.559  12.068   6.164
 3458POPC   D2A45220  40.715  12.258   6.550
 3458POPC   C3A45221  40.577  11.994   6.895
 3458POPC   C4A45222  40.727  11.877   7.278
 3458POPC   C1B45223  41.085  12.121   6.145
 3458POPC   C2B45224  41.308  12.278   6.528
 3458POPC   C3B45225  41.103  12.295   6.931
 3458POPC   C4B45226  40.745  12.386   7.190
 3459POPC   NC345227  35.896  37.784   5.483
 3459POPC   PO445228  36.542  37.443   5.439
 3459POPC   GL145229  36.317  37.603   5.810
 3459POPC   GL245230  36.027  37.824   5.977
 3459POPC   C1A45231  36.398  37.594   6.260
 3459POPC   D2A45232  36.215  37.742   6.641
 3459POPC   C3A45233  36.284  37.499   7.010
 3459POPC   C4A45234  36.420  37.574   7.448
 3459POPC   C1B45235  35.765  37.666   6.329
 3459POPC   C2B45236  35.719  37.716   6.742
 3459POPC   C3B45237  35.888  37.799   7.135
 3459POPC   C4B45238  35.931  37.484   7.416
 3460POPC   NC345239  23.776  12.467   5.468
 3460POPC   PO445240  23.538  11.863   5.283
 3460POPC   GL145241  23.485  11.846   5.754
 3460POPC   GL245242  23.752  12.072   5.846
 3460POPC   C1A45243  23.617  11.656   6.184
 3460POPC   D2A45244  23.895  11.840   6.493
 3460POPC   C3A45245  23.634  12.007   6.830
 3460POPC   C4A45246  23.728  12.086   7.244
 3460POPC   C1B45247  23.458  12.137   6.204
 3460POPC   C2B45248  23.225  12.236   6.573
 3460POPC   C3B45249  23.341  12.459   6.952
 3460POPC   C4B45250  23.426  12.449   7.399
 3461POPC   NC345251   2.846  30.619   5.507
 3461POPC   PO445252   2.369  31.059   5.563
 3461POPC   GL145253   2.693  30.930   5.876
 3461POPC   GL245254   3.038  30.912   5.906
 3461POPC   C1A45255   2.800  30.543   6.168
 3461POPC   D2A45256   3.055  30.470   6.560
 3461POPC   C3A45257   2.878  30.597   6.954
 3461POPC   C4A45258   2.611  30.485   7.280
 3461POPC   C1B45259   2.906  31.015   6.340
 3461POPC   C2B45260   3.133  31.215   6.693
 3461POPC   C3B45261   3.144  31.181   7.143
 3461POPC   C4B45262   2.848  30.927   7.359
 3462POPC   NC345263  39.947  35.954   5.430
 3462POPC   PO445264  40.400  36.348   5.534
 3462POPC   GL145265  40.002  36.320   5.819
 3462POPC   GL245266  39.871  35.972   5.937
 3462POPC   C1A45267  39.859  36.377   6.266
 3462POPC   D2A45268  39.800  36.266   6.723
 3462POPC   C3A45269  40.177  36.219   7.011
 3462POPC   C4A45270  40.155  36.192   7.474
 3462POPC   C1B45271  39.914  35.864   6.378
 3462POPC   C2B45272  39.969  35.790   6.817
 3462POPC   C3B45273  39.824  35.893   7.222
 3462POPC   C4B45274  39.696  35.984   7.644
 3463POPC   NC345275   1.914  24.183   5.259
 3463POPC   PO445276   1.964  23.540   5.369
 3463POPC   GL145277   1.827  23.675   5.786
 3463POPC   GL245278   2.072  23.914   5.841
 3463POPC   C1A45279   1.907  23.664   6.253
 3463POPC   D2A45280   1.766  23.843   6.652
 3463POPC   C3A45281   1.894  23.625   7.042
 3463POPC   C4A45282   1.818  23.704   7.485
 3463POPC   C1B45283   2.363  23.880   6.178
 3463POPC   C2B45284   2.309  23.785   6.597
 3463POPC   C3B45285   2.377  23.766   7.037
 3463POPC   C4B45286   2.328  23.376   7.272
 3464POPC   NC345287  17.331  28.394   5.160
 3464POPC   PO445288  17.916  28.192   5.404
 3464POPC   GL145289  17.590  28.438   5.671
 3464POPC   GL245290  17.820  28.533   5.859
 3464POPC   C1A45291  17.360  28.338   6.127
 3464POPC   D2A45292  17.339  28.158   6.591
 3464POPC   C3A45293  17.414  28.450   6.945
 3464POPC   C4A45294  17.673  28.482   7.306
 3464POPC   C1B45295  17.836  28.404   6.266
 3464POPC   C2B45296  17.820  28.313   6.672
 3464POPC   C3B45297  17.767  28.057   7.007
 3464POPC   C4B45298  17.924  28.011   7.405
 3465POPC   NC345299  14.974  33.786   5.287
 3465POPC   PO445300  15.586  33.853   5.571
 3465POPC   GL145301  15.378  33.708   5.936
 3465POPC   GL245302  15.156  33.999   5.968
 3465POPC   C1A45303  15.377  33.730   6.407
 3465POPC   D2A45304  15.156  33.893   6.740
 3465POPC   C3A45305  15.359  33.875   7.132
 3465POPC   C4A45306  15.319  33.637   7.505
 3465POPC   C1B45307  14.906  33.662   6.177
 3465POPC   C2B45308  14.732  33.572   6.603
 3465POPC   C3B45309  14.842  33.613   7.043
 3465POPC   C4B45310  14.905  33.938   7.310
 3466POPC   NC345311  24.054  44.128   5.188
 3466POPC   PO445312  23.475  43.880   5.319
 3466POPC   GL145313  23.483  43.705   5.721
 3466POPC   GL245314  23.835  43.708   5.758
 3466POPC   C1A45315  23.459  43.808   6.143
 3466POPC   D2A45316  23.739  43.903   6.469
 3466POPC   C3A45317  23.581  43.840   6.877
 3466POPC   C4A45318  23.754  43.949   7.259
 3466POPC   C1B45319  23.861  43.492   6.161
 3466POPC   C2B45320  24.066  43.502   6.557
 3466POPC   C3B45321  24.065  43.659   6.964
 3466POPC   C4B45322  24.130  43.498   7.376
 3467POPC   NC345323   5.360  11.445   5.438
 3467POPC   PO445324   6.031  11.371   5.314
 3467POPC   GL145325   6.084  11.357   5.768
 3467POPC   GL245326   5.711  11.319   5.803
 3467POPC   C1A45327   6.004  11.114   6.168
 3467POPC   D2A45328   5.766  10.853   6.446
 3467POPC   C3A45329   5.614  11.002   6.843
 3467POPC   C4A45330   5.828  11.113   7.226
 3467POPC   C1B45331   5.838  11.589   6.166
 3467POPC   C2B45332   5.855  11.406   6.580
 3467POPC   C3B45333   5.689  11.539   6.960
 3467POPC   C4B45334   5.747  11.935   7.149
 3468POPC   NC345335  29.326  28.511   5.279
 3468POPC   PO445336  29.087  27.922   5.369
 3468POPC   GL145337  29.198  28.155   5.703
 3468POPC   GL245338  28.874  28.261   5.806
 3468POPC   C1A45339  29.281  28.109   6.130
 3468POPC   D2A45340  29.121  28.008   6.535
 3468POPC   C3A45341  29.038  28.255   6.886
 3468POPC   C4A45342  29.172  28.279   7.300
 3468POPC   C1B45343  28.845  28.369   6.254
 3468POPC   C2B45344  28.882  28.644   6.594
 3468POPC   C3B45345  28.704  28.673   6.991
 3468POPC   C4B45346  28.862  28.739   7.418
 3469POPC   NC345347  44.956  41.135   5.312
 3469POPC   PO445348   0.046  40.489   5.399
 3469POPC   GL145349  44.843  40.634   5.788
 3469POPC   GL245350  44.827  40.983   5.792
 3469POPC   C1A45351  44.681  40.572   6.198
 3469POPC   D2A45352  44.346  40.541   6.504
 3469POPC   C3A45353  44.398  40.669   6.965
 3469POPC   C4A45354  44.707  40.930   7.201
 3469POPC   C1B45355  44.540  41.059   6.160
 3469POPC   C2B45356  44.446  41.031   6.610
 3469POPC   C3B45357  44.323  41.240   7.001
 3469POPC   C4B45358  44.518  41.359   7.411
 3470POPC   NC345359  32.525   2.345   5.091
 3470POPC   PO445360  32.161   2.866   5.462
 3470POPC   GL145361  32.191   2.901   5.854
 3470POPC   GL245362  31.901   2.806   6.016
 3470POPC   C1A45363  32.516   2.933   6.162
 3470POPC   D2A45364  32.785   2.956   6.522
 3470POPC   C3A45365  32.565   2.936   6.930
 3470POPC   C4A45366  32.203   2.768   7.186
 3470POPC   C1B45367  32.230   2.508   6.207
 3470POPC   C2B45368  32.515   2.511   6.570
 3470POPC   C3B45369  32.487   2.381   7.000
 3470POPC   C4B45370  32.314   2.338   7.428
 3471POPC   NC345371   2.382  21.556   5.562
 3471POPC   PO445372   2.986  21.411   5.342
 3471POPC   GL145373   2.833  21.444   5.783
 3471POPC   GL245374   2.576  21.182   5.845
 3471POPC   C1A45375   2.914  21.582   6.225
 3471POPC   D2A45376   2.842  21.367   6.600
 3471POPC   C3A45377   2.891  21.505   7.005
 3471POPC   C4A45378   2.913  21.209   7.332
 3471POPC   C1B45379   2.438  21.398   6.225
 3471POPC   C2B45380   2.321  21.420   6.650
 3471POPC   C3B45381   2.447  21.255   7.043
 3471POPC   C4B45382   2.512  21.505   7.390
 3472POPC   NC345383  26.451  23.947   5.408
 3472POPC   PO445384  25.849  23.722   5.650
 3472POPC   GL145385  26.174  23.904   5.886
 3472POPC   GL245386  26.535  23.794   5.879
 3472POPC   C1A45387  26.015  23.962   6.289
 3472POPC   D2A45388  25.934  24.246   6.610
 3472POPC   C3A45389  25.694  24.018   6.913
 3472POPC   C4A45390  25.730  23.867   7.328
 3472POPC   C1B45391  26.559  23.795   6.321
 3472POPC   C2B45392  26.328  23.860   6.680
 3472POPC   C3B45393  26.170  23.846   7.057
 3472POPC   C4B45394  26.089  23.523   7.341
 3473POPC   NC345395  33.309  16.829   5.489
 3473POPC   PO445396  32.646  17.088   5.297
 3473POPC   GL145397  32.709  16.920   5.732
 3473POPC   GL245398  32.417  16.979   5.901
 3473POPC   C1A45399  32.903  16.598   6.022
 3473POPC   D2A45400  33.208  16.619   6.382
 3473POPC   C3A45401  33.120  16.492   6.812
 3473POPC   C4A45402  33.019  16.759   7.152
 3473POPC   C1B45403  32.544  16.824   6.301
 3473POPC   C2B45404  32.746  16.872   6.712
 3473POPC   C3B45405  32.678  17.135   7.070
 3473POPC   C4B45406  32.596  16.919   7.447
 3474POPC   NC345407  23.854  22.379   5.448
 3474POPC   PO445408  23.716  22.984   5.408
 3474POPC   GL145409  23.777  22.875   5.836
 3474POPC   GL245410  23.484  22.692   5.860
 3474POPC   C1A45411  23.727  22.765   6.313
 3474POPC   D2A45412  23.866  23.071   6.639
 3474POPC   C3A45413  23.964  22.933   7.052
 3474POPC   C4A45414  23.919  22.772   7.475
 3474POPC   C1B45415  23.257  22.926   6.179
 3474POPC   C2B45416  23.360  23.094   6.575
 3474POPC   C3B45417  23.371  22.995   7.006
 3474POPC   C4B45418  23.547  23.093   7.392
 3475POPC   NC345419  12.687  42.120   5.498
 3475POPC   PO445420  13.100  42.490   5.775
 3475POPC   GL145421  12.865  42.181   5.986
 3475POPC   GL245422  12.545  42.341   5.941
 3475POPC   C1A45423  12.824  42.149   6.423
 3475POPC   D2A45424  12.909  42.492   6.689
 3475POPC   C3A45425  13.175  42.382   6.988
 3475POPC   C4A45426  13.145  42.284   7.417
 3475POPC   C1B45427  12.470  42.519   6.342
 3475POPC   C2B45428  12.402  42.450   6.783
 3475POPC   C3B45429  12.681  42.372   7.145
 3475POPC   C4B45430  12.820  42.650   7.474
 3476POPC   NC345431  21.165  14.359   5.379
 3476POPC   PO445432  21.762  14.288   5.622
 3476POPC   GL145433  21.446  14.148   5.889
 3476POPC   GL245434  21.308  14.491   5.885
 3476POPC   C1A45435  21.404  14.195   6.361
 3476POPC   D2A45436  21.548  14.494   6.704
 3476POPC   C3A45437  21.441  14.369   7.146
 3476POPC   C4A45438  21.470  14.028   7.472
 3476POPC   C1B45439  20.969  14.224   6.077
 3476POPC   C2B45440  20.866  14.121   6.535
 3476POPC   C3B45441  21.038  14.076   6.991
 3476POPC   C4B45442  21.022  14.256   7.442
 3477POPC   NC345443  16.466  41.811   5.738
 3477POPC   PO445444  16.295  41.197   5.564
 3477POPC   GL145445  16.613  41.325   5.846
 3477POPC   GL245446  16.831  41.068   5.909
 3477POPC   C1A45447  16.794  41.437   6.263
 3477POPC   D2A45448  16.895  41.345   6.692
 3477POPC   C3A45449  16.987  41.681   6.974
 3477POPC   C4A45450  16.805  41.766   7.376
 3477POPC   C1B45451  16.445  41.041   6.229
 3477POPC   C2B45452  16.356  41.231   6.644
 3477POPC   C3B45453  16.497  41.499   7.002
 3477POPC   C4B45454  16.401  41.430   7.449
 3478POPC   NC345455  28.778   6.850   4.944
 3478POPC   PO445456  29.127   6.425   5.424
 3478POPC   GL145457  29.344   6.463   5.776
 3478POPC   GL245458  29.236   6.744   5.876
 3478POPC   C1A45459  29.454   6.320   6.147
 3478POPC   D2A45460  29.241   6.344   6.524
 3478POPC   C3A45461  29.428   6.212   6.890
 3478POPC   C4A45462  29.311   6.518   7.188
 3478POPC   C1B45463  29.063   6.756   6.258
 3478POPC   C2B45464  29.219   6.877   6.665
 3478POPC   C3B45465  29.152   6.989   7.096
 3478POPC   C4B45466  29.154   7.203   7.496
 3479POPC   NC345467  12.809  27.424   5.419
 3479POPC   PO445468  12.342  27.506   5.732
 3479POPC   GL145469  12.689  27.494   5.993
 3479POPC   GL245470  12.752  27.855   5.973
 3479POPC   C1A45471  12.883  27.488   6.427
 3479POPC   D2A45472  12.911  27.254   6.829
 3479POPC   C3A45473  12.545  27.374   7.123
 3479POPC   C4A45474  12.597  27.659   7.507
 3479POPC   C1B45475  12.902  28.040   6.376
 3479POPC   C2B45476  13.139  27.836   6.715
 3479POPC   C3B45477  12.962  27.652   7.117
 3479POPC   C4B45478  12.982  27.293   7.416
 3480POPC   NC345479   5.594  14.628   5.491
 3480POPC   PO445480   6.262  14.313   5.412
 3480POPC   GL145481   6.186  14.352   5.831
 3480POPC   GL245482   6.161  14.703   5.886
 3480POPC   C1A45483   6.022  14.143   6.183
 3480POPC   D2A45484   5.846  14.034   6.557
 3480POPC   C3A45485   6.082  14.140   6.936
 3480POPC   C4A45486   5.987  14.488   7.180
 3480POPC   C1B45487   5.895  14.627   6.221
 3480POPC   C2B45488   5.908  14.563   6.656
 3480POPC   C3B45489   5.730  14.876   6.921
 3480POPC   C4B45490   5.705  14.971   7.354
 3481POPC   NC345491   3.296   3.424   5.424
 3481POPC   PO445492   3.959   3.686   5.383
 3481POPC   GL145493   3.699   3.524   5.732
 3481POPC   GL245494   3.739   3.188   5.878
 3481POPC   C1A45495   3.588   3.733   6.118
 3481POPC   D2A45496   3.749   3.741   6.544
 3481POPC   C3A45497   3.434   3.871   6.843
 3481POPC   C4A45498   3.427   3.833   7.275
 3481POPC   C1B45499   3.561   3.212   6.275
 3481POPC   C2B45500   3.758   3.219   6.671
 3481POPC   C3B45501   3.764   3.484   6.984
 3481POPC   C4B45502   3.362   3.357   7.085
 3482POPC   NC345503  19.258  44.530   5.413
 3482POPC   PO445504  19.388  43.872   5.201
 3482POPC   GL145505  19.450  43.834   5.649
 3482POPC   GL245506  19.559  44.193   5.704
 3482POPC   C1A45507  19.317  43.827   6.080
 3482POPC   D2A45508  19.278  43.777   6.549
 3482POPC   C3A45509  18.921  43.696   6.831
 3482POPC   C4A45510  18.847  43.919   7.231
 3482POPC   C1B45511  19.380  44.343   6.093
 3482POPC   C2B45512  19.447  44.281   6.549
 3482POPC   C3B45513  19.244  44.157   6.952
 3482POPC   C4B45514  19.353  44.097   7.386
 3483POPC   NC345515   5.186   3.590   5.512
 3483POPC   PO445516   5.733   3.100   5.339
 3483POPC   GL145517   5.549   3.270   5.755
 3483POPC   GL245518   5.453   3.605   5.930
 3483POPC   C1A45519   5.332   3.167   6.186
 3483POPC   D2A45520   5.177   2.996   6.611
 3483POPC   C3A45521   4.890   3.224   6.943
 3483POPC   C4A45522   4.810   3.686   6.987
 3483POPC   C1B45523   5.297   3.685   6.359
 3483POPC   C2B45524   5.223   3.949   6.740
 3483POPC   C3B45525   5.311   3.807   7.176
 3483POPC   C4B45526   5.374   3.824   7.634
 3484POPC   NC345527  13.195   5.461   5.406
 3484POPC   PO445528  12.707   5.018   5.613
 3484POPC   GL145529  12.826   5.117   5.961
 3484POPC   GL245530  12.793   5.441   5.902
 3484POPC   C1A45531  12.723   5.088   6.355
 3484POPC   D2A45532  12.906   4.865   6.674
 3484POPC   C3A45533  12.870   5.029   7.043
 3484POPC   C4A45534  12.808   5.204   7.446
 3484POPC   C1B45535  13.030   5.547   6.244
 3484POPC   C2B45536  13.004   5.374   6.656
 3484POPC   C3B45537  12.867   5.539   7.007
 3484POPC   C4B45538  13.168   5.533   7.259
 3485POPC   NC345539  42.084  37.650   5.585
 3485POPC   PO445540  42.687  37.520   5.461
 3485POPC   GL145541  42.536  37.573   5.869
 3485POPC   GL245542  42.467  37.934   5.891
 3485POPC   C1A45543  42.293  37.518   6.267
 3485POPC   D2A45544  42.048  37.703   6.627
 3485POPC   C3A45545  42.137  37.510   6.999
 3485POPC   C4A45546  42.483  37.216   6.980
 3485POPC   C1B45547  42.186  38.032   6.245
 3485POPC   C2B45548  42.331  38.138   6.687
 3485POPC   C3B45549  42.436  37.968   7.107
 3485POPC   C4B45550  42.216  37.960   7.508
 3486POPC   NC345551  42.016  15.646   5.349
 3486POPC   PO445552  41.527  16.124   5.337
 3486POPC   GL145553  41.559  16.045   5.790
 3486POPC   GL245554  41.694  15.726   5.742
 3486POPC   C1A45555  41.828  15.938   6.176
 3486POPC   D2A45556  42.011  16.090   6.563
 3486POPC   C3A45557  41.767  15.875   6.869
 3486POPC   C4A45558  41.665  15.977   7.264
 3486POPC   C1B45559  41.420  15.600   6.046
 3486POPC   C2B45560  41.457  15.693   6.480
 3486POPC   C3B45561  41.220  15.541   6.824
 3486POPC   C4B45562  41.349  15.570   7.259
 3487POPC   NC345563   3.083   5.888   5.366
 3487POPC   PO445564   3.820   6.055   5.338
 3487POPC   GL145565   3.516   5.951   5.633
 3487POPC   GL245566   3.366   5.621   5.741
 3487POPC   C1A45567   3.525   5.974   6.073
 3487POPC   D2A45568   3.584   5.671   6.405
 3487POPC   C3A45569   3.624   5.754   6.834
 3487POPC   C4A45570   3.582   5.651   7.255
 3487POPC   C1B45571   3.130   5.616   6.152
 3487POPC   C2B45572   2.985   5.710   6.575
 3487POPC   C3B45573   3.135   5.771   6.997
 3487POPC   C4B45574   3.202   6.034   7.312
 3488POPC   NC345575  34.164  41.048   5.036
 3488POPC   PO445576  34.702  40.824   5.369
 3488POPC   GL145577  34.727  40.695   5.784
 3488POPC   GL245578  34.911  40.394   5.768
 3488POPC   C1A45579  34.497  40.847   6.139
 3488POPC   D2A45580  34.463  41.144   6.485
 3488POPC   C3A45581  34.315  40.999   6.862
 3488POPC   C4A45582  34.525  40.930   7.244
 3488POPC   C1B45583  34.814  40.376   6.194
 3488POPC   C2B45584  34.718  40.621   6.540
 3488POPC   C3B45585  34.789  40.623   6.945
 3488POPC   C4B45586  34.743  40.465   7.337
 3489POPC   NC345587   5.136   0.900   5.317
 3489POPC   PO445588   4.868   1.572   5.429
 3489POPC   GL145589   4.972   1.254   5.710
 3489POPC   GL245590   5.321   1.153   5.714
 3489POPC   C1A45591   4.855   1.177   6.139
 3489POPC   D2A45592   4.838   1.481   6.498
 3489POPC   C3A45593   4.954   1.270   6.871
 3489POPC   C4A45594   4.848   1.154   7.274
 3489POPC   C1B45595   5.382   1.013   6.115
 3489POPC   C2B45596   5.281   1.178   6.478
 3489POPC   C3B45597   5.458   1.183   6.859
 3489POPC   C4B45598   5.337   1.088   7.259
 3490POPC   NC345599   8.835  15.279   5.075
 3490POPC   PO445600   9.216  15.128   5.575
 3490POPC   GL145601   8.922  14.934   5.807
 3490POPC   GL245602   9.177  14.825   6.023
 3490POPC   C1A45603   8.751  15.106   6.170
 3490POPC   D2A45604   8.981  15.218   6.518
 3490POPC   C3A45605   8.907  14.966   6.867
 3490POPC   C4A45606   8.809  15.156   7.248
 3490POPC   C1B45607   9.220  14.790   6.440
 3490POPC   C2B45608   9.414  15.023   6.748
 3490POPC   C3B45609   9.339  15.030   7.180
 3490POPC   C4B45610   9.323  14.745   7.547
 3491POPC   NC345611   7.235  20.519   5.325
 3491POPC   PO445612   7.764  20.943   5.438
 3491POPC   GL145613   7.473  20.741   5.736
 3491POPC   GL245614   7.491  20.356   5.751
 3491POPC   C1A45615   7.204  20.781   6.096
 3491POPC   D2A45616   7.341  20.637   6.494
 3491POPC   C3A45617   7.251  20.845   6.858
 3491POPC   C4A45618   7.340  20.676   7.232
 3491POPC   C1B45619   7.271  20.251   6.128
 3491POPC   C2B45620   7.034  20.208   6.512
 3491POPC   C3B45621   7.307  20.249   6.886
 3491POPC   C4B45622   7.152  20.203   7.284
 3492POPC   NC345623  18.440   4.169   5.438
 3492POPC   PO445624  17.859   4.574   5.550
 3492POPC   GL145625  18.031   4.311   5.924
 3492POPC   GL245626  18.350   4.118   5.931
 3492POPC   C1A45627  18.210   4.383   6.353
 3492POPC   D2A45628  18.607   4.297   6.540
 3492POPC   C3A45629  18.588   4.123   6.937
 3492POPC   C4A45630  18.554   4.288   7.350
 3492POPC   C1B45631  18.330   3.881   6.309
 3492POPC   C2B45632  18.121   3.840   6.690
 3492POPC   C3B45633  18.183   3.875   7.130
 3492POPC   C4B45634  18.209   3.994   7.574
 3493POPC   NC345635  43.601  31.986   5.587
 3493POPC   PO445636  43.599  32.666   5.411
 3493POPC   GL145637  43.692  32.428   5.814
 3493POPC   GL245638  44.033  32.311   5.789
 3493POPC   C1A45639  43.778  32.083   6.191
 3493POPC   D2A45640  43.973  31.835   6.515
 3493POPC   C3A45641  43.918  32.065   6.903
 3493POPC   C4A45642  43.722  32.137   7.280
 3493POPC   C1B45643  43.990  32.547   6.182
 3493POPC   C2B45644  43.733  32.510   6.546
 3493POPC   C3B45645  43.907  32.606   6.922
 3493POPC   C4B45646  43.898  32.650   7.332
 3494POPC   NC345647  32.610  27.795   5.420
 3494POPC   PO445648  33.088  28.354   5.464
 3494POPC   GL145649  33.269  28.318   5.872
 3494POPC   GL245650  33.202  28.645   5.922
 3494POPC   C1A45651  33.435  28.227   6.315
 3494POPC   D2A45652  33.197  28.132   6.699
 3494POPC   C3A45653  33.228  28.301   7.103
 3494POPC   C4A45654  32.869  28.355   7.379
 3494POPC   C1B45655  32.971  28.472   6.297
 3494POPC   C2B45656  32.871  28.563   6.734
 3494POPC   C3B45657  33.000  28.769   7.103
 3494POPC   C4B45658  32.833  28.836   7.533
 3495POPC   NC345659  31.872  43.150   5.592
 3495POPC   PO445660  32.426  42.848   5.424
 3495POPC   GL145661  32.292  42.976   5.832
 3495POPC   GL245662  32.260  43.345   5.879
 3495POPC   C1A45663  32.294  43.019   6.270
 3495POPC   D2A45664  32.525  43.003   6.589
 3495POPC   C3A45665  32.327  42.795   6.818
 3495POPC   C4A45666  32.165  42.909   7.182
 3495POPC   C1B45667  32.069  43.472   6.295
 3495POPC   C2B45668  32.053  43.245   6.696
 3495POPC   C3B45669  31.856  43.302   7.106
 3495POPC   C4B45670  32.098  43.456   7.467
 3496POPC   NC345671  28.863  35.460   5.169
 3496POPC   PO445672  28.268  35.169   5.443
 3496POPC   GL145673  28.144  35.277   5.845
 3496POPC   GL245674  27.826  35.110   5.802
 3496POPC   C1A45675  28.292  35.485   6.253
 3496POPC   D2A45676  28.374  35.669   6.712
 3496POPC   C3A45677  28.635  35.415   7.014
 3496POPC   C4A45678  28.472  35.170   7.389
 3496POPC   C1B45679  27.904  35.063   6.260
 3496POPC   C2B45680  27.934  34.986   6.695
 3496POPC   C3B45681  28.129  35.247   7.009
 3496POPC   C4B45682  27.990  35.344   7.432
 3497POPC   NC345683  40.359  14.546   5.359
 3497POPC   PO445684  39.892  14.053   5.480
 3497POPC   GL145685  40.108  14.302   5.766
 3497POPC   GL245686  39.878  14.584   5.782
 3497POPC   C1A45687  40.150  14.478   6.193
 3497POPC   D2A45688  40.026  14.685   6.581
 3497POPC   C3A45689  40.324  14.696   6.916
 3497POPC   C4A45690  40.472  14.480   7.280
 3497POPC   C1B45691  39.690  14.770   6.165
 3497POPC   C2B45692  39.501  14.771   6.583
 3497POPC   C3B45693  39.585  14.552   6.959
 3497POPC   C4B45694  39.942  14.523   7.243
 3498POPC   NC345695  35.682  28.477   5.395
 3498POPC   PO445696  36.338  28.333   5.318
 3498POPC   GL145697  36.222  28.200   5.738
 3498POPC   GL245698  35.910  28.329   5.822
 3498POPC   C1A45699  36.254  28.106   6.175
 3498POPC   D2A45700  36.488  28.339   6.481
 3498POPC   C3A45701  36.368  28.254   6.888
 3498POPC   C4A45702  36.480  28.498   7.239
 3498POPC   C1B45703  35.739  28.230   6.217
 3498POPC   C2B45704  35.872  27.992   6.582
 3498POPC   C3B45705  35.873  28.191   7.010
 3498POPC   C4B45706  35.855  27.948   7.369
 3499POPC   NC345707  11.412  38.736   5.353
 3499POPC   PO445708  11.609  39.425   5.424
 3499POPC   GL145709  11.579  39.520   5.876
 3499POPC   GL245710  11.302  39.278   5.965
 3499POPC   C1A45711  11.384  39.685   6.287
 3499POPC   D2A45712  11.207  39.478   6.695
 3499POPC   C3A45713  11.428  39.112   6.898
 3499POPC   C4A45714  11.555  39.105   7.362
 3499POPC   C1B45715  11.154  39.029   6.319
 3499POPC   C2B45716  10.771  38.909   6.515
 3499POPC   C3B45717  10.804  39.125   6.905
 3499POPC   C4B45718  11.083  39.279   7.226
 3500POPC   NC345719  17.818  22.931   5.577
 3500POPC   PO445720  18.220  23.312   5.189
 3500POPC   GL145721  18.296  23.172   5.635
 3500POPC   GL245722  18.322  22.814   5.788
 3500POPC   C1A45723  18.285  23.208   6.113
 3500POPC   D2A45724  18.570  23.029   6.411
 3500POPC   C3A45725  18.503  23.138   6.849
 3500POPC   C4A45726  18.754  23.027   7.214
 3500POPC   C1B45727  18.010  22.783   6.169
 3500POPC   C2B45728  18.086  22.899   6.561
 3500POPC   C3B45729  18.262  22.674   6.887
 3500POPC   C4B45730  18.249  22.754   7.288
 3501POPC   NC345731   0.144  25.078   5.477
 3501POPC   PO445732   0.521  25.581   5.725
 3501POPC   GL145733   0.430  25.194   5.896
 3501POPC   GL245734   0.130  25.402   6.027
 3501POPC   C1A45735   0.232  24.986   6.252
 3501POPC   D2A45736   0.113  25.200   6.642
 3501POPC   C3A45737   0.338  25.175   7.027
 3501POPC   C4A45738   0.387  24.969   7.461
 3501POPC   C1B45739   0.478  25.431   6.363
 3501POPC   C2B45740   0.452  25.678   6.740
 3501POPC   C3B45741   0.443  25.648   7.174
 3501POPC   C4B45742   0.757  25.302   7.283
 3502POPC   NC345743   5.598  32.563   5.626
 3502POPC   PO445744   5.721  31.960   5.233
 3502POPC   GL145745   5.896  32.163   5.690
 3502POPC   GL245746   6.078  32.528   5.763
 3502POPC   C1A45747   5.886  32.227   6.165
 3502POPC   D2A45748   5.656  32.448   6.531
 3502POPC   C3A45749   5.574  32.228   6.921
 3502POPC   C4A45750   5.520  32.235   7.360
 3502POPC   C1B45751   6.295  32.572   6.176
 3502POPC   C2B45752   6.201  32.396   6.580
 3502POPC   C3B45753   6.013  32.507   6.976
 3502POPC   C4B45754   6.108  32.497   7.427
 3503POPC   NC345755  10.563  34.256   5.397
 3503POPC   PO445756  10.564  34.848   5.427
 3503POPC   GL145757  10.568  34.612   5.793
 3503POPC   GL245758  10.296  34.423   5.883
 3503POPC   C1A45759  10.723  34.522   6.208
 3503POPC   D2A45760  10.814  34.744   6.595
 3503POPC   C3A45761  10.877  34.583   6.983
 3503POPC   C4A45762  10.642  34.401   7.294
 3503POPC   C1B45763  10.273  34.777   6.215
 3503POPC   C2B45764  10.306  34.821   6.687
 3503POPC   C3B45765  10.377  34.814   7.155
 3503POPC   C4B45766  10.355  34.667   7.616
 3504POPC   NC345767  34.413  37.927   5.493
 3504POPC   PO445768  34.837  37.398   5.400
 3504POPC   GL145769  34.804  37.656   5.765
 3504POPC   GL245770  34.454  37.566   5.859
 3504POPC   C1A45771  34.792  37.661   6.239
 3504POPC   D2A45772  34.788  37.574   6.685
 3504POPC   C3A45773  34.728  37.315   7.029
 3504POPC   C4A45774  34.869  37.543   7.376
 3504POPC   C1B45775  34.309  37.794   6.226
 3504POPC   C2B45776  34.395  37.886   6.672
 3504POPC   C3B45777  34.384  37.737   7.099
 3504POPC   C4B45778  34.077  37.853   7.429
 3505POPC   NC345779  30.199  34.705   5.547
 3505POPC   PO445780  29.681  34.345   5.420
 3505POPC   GL145781  29.768  34.416   5.861
 3505POPC   GL245782  29.817  34.743   5.895
 3505POPC   C1A45783  29.954  34.483   6.316
 3505POPC   D2A45784  30.238  34.445   6.700
 3505POPC   C3A45785  30.041  34.451   7.103
 3505POPC   C4A45786  29.755  34.162   7.282
 3505POPC   C1B45787  30.080  34.964   6.181
 3505POPC   C2B45788  30.232  34.949   6.579
 3505POPC   C3B45789  30.015  34.951   6.957
 3505POPC   C4B45790  29.796  34.904   7.332
 3506POPC   NC345791   4.045  24.167   5.411
 3506POPC   PO445792   4.690  24.274   5.463
 3506POPC   GL145793   4.357  24.298   5.819
 3506POPC   GL245794   4.108  24.618   5.825
 3506POPC   C1A45795   4.260  24.428   6.264
 3506POPC   D2A45796   4.419  24.541   6.669
 3506POPC   C3A45797   4.310  24.310   7.019
 3506POPC   C4A45798   4.154  24.311   7.427
 3506POPC   C1B45799   3.965  24.855   6.235
 3506POPC   C2B45800   3.987  24.823   6.704
 3506POPC   C3B45801   4.236  24.829   7.098
 3506POPC   C4B45802   4.228  24.918   7.541
 3507POPC   NC345803   1.145  21.621   5.324
 3507POPC   PO445804   0.876  21.035   5.506
 3507POPC   GL145805   1.047  21.402   5.786
 3507POPC   GL245806   1.355  21.632   5.788
 3507POPC   C1A45807   1.214  21.276   6.192
 3507POPC   D2A45808   1.270  21.030   6.599
 3507POPC   C3A45809   1.100  21.189   6.974
 3507POPC   C4A45810   1.128  21.183   7.412
 3507POPC   C1B45811   1.446  21.716   6.237
 3507POPC   C2B45812   1.173  21.571   6.600
 3507POPC   C3B45813   1.023  21.687   6.987
 3507POPC   C4B45814   1.429  21.652   7.179
 3508POPC   NC345815  23.583  14.159   5.405
 3508POPC   PO445816  23.976  14.723   5.475
 3508POPC   GL145817  23.813  14.789   5.879
 3508POPC   GL245818  23.652  14.431   5.897
 3508POPC   C1A45819  23.573  14.783   6.250
 3508POPC   D2A45820  23.561  14.504   6.569
 3508POPC   C3A45821  23.788  14.619   6.934
 3508POPC   C4A45822  23.660  14.845   7.285
 3508POPC   C1B45823  23.537  14.083   6.218
 3508POPC   C2B45824  23.474  14.020   6.685
 3508POPC   C3B45825  23.353  14.338   7.021
 3508POPC   C4B45826  23.515  14.391   7.457
 3509POPC   NC345827  10.813  42.234   5.335
 3509POPC   PO445828  11.490  42.364   5.302
 3509POPC   GL145829  11.389  42.448   5.748
 3509POPC   GL245830  11.046  42.322   5.817
 3509POPC   C1A45831  11.529  42.477   6.205
 3509POPC   D2A45832  11.466  42.640   6.641
 3509POPC   C3A45833  11.359  42.318   6.943
 3509POPC   C4A45834  11.613  42.270   7.311
 3509POPC   C1B45835  10.963  42.101   6.238
 3509POPC   C2B45836  11.045  41.864   6.645
 3509POPC   C3B45837  10.989  41.939   7.100
 3509POPC   C4B45838  11.126  42.137   7.497
 3510POPC   NC345839  39.653  12.892   5.504
 3510POPC   PO445840  38.993  12.956   5.539
 3510POPC   GL145841  39.268  12.912   5.876
 3510POPC   GL245842  39.516  13.212   5.855
 3510POPC   C1A45843  39.227  12.646   6.260
 3510POPC   D2A45844  39.358  12.695   6.686
 3510POPC   C3A45845  39.043  12.663   7.006
 3510POPC   C4A45846  39.247  12.830   7.335
 3510POPC   C1B45847  39.590  13.007   6.262
 3510POPC   C2B45848  39.522  13.225   6.645
 3510POPC   C3B45849  39.551  13.056   7.018
 3510POPC   C4B45850  39.717  12.649   7.150
 3511POPC   NC345851  36.922  15.634   5.568
 3511POPC   PO445852  37.149  15.097   5.269
 3511POPC   GL145853  36.912  15.110   5.718
 3511POPC   GL245854  36.808  15.393   5.976
 3511POPC   C1A45855  36.772  14.923   6.138
 3511POPC   D2A45856  36.821  15.157   6.517
 3511POPC   C3A45857  36.811  14.933   6.898
 3511POPC   C4A45858  37.010  15.166   7.229
 3511POPC   C1B45859  36.439  15.389   6.223
 3511POPC   C2B45860  36.394  15.416   6.633
 3511POPC   C3B45861  36.575  15.360   7.004
 3511POPC   C4B45862  36.534  15.527   7.384
 3512POPC   NC345863  37.190  39.560   5.599
 3512POPC   PO445864  37.241  40.199   5.317
 3512POPC   GL145865  36.991  40.080   5.715
 3512POPC   GL245866  36.784  39.769   5.807
 3512POPC   C1A45867  36.850  40.222   6.145
 3512POPC   D2A45868  36.788  40.033   6.571
 3512POPC   C3A45869  36.752  40.133   7.012
 3512POPC   C4A45870  37.121  40.092   7.276
 3512POPC   C1B45871  37.006  39.754   6.198
 3512POPC   C2B45872  36.935  39.500   6.536
 3512POPC   C3B45873  36.960  39.652   6.922
 3512POPC   C4B45874  36.982  39.572   7.319
 3513POPC   NC345875  43.173  32.523   5.311
 3513POPC   PO445876  43.149  31.911   5.600
 3513POPC   GL145877  43.182  32.266   5.815
 3513POPC   GL245878  42.893  32.485   5.798
 3513POPC   C1A45879  43.345  32.365   6.211
 3513POPC   D2A45880  43.198  32.429   6.622
 3513POPC   C3A45881  42.986  32.094   6.840
 3513POPC   C4A45882  43.213  31.982   7.191
 3513POPC   C1B45883  42.964  32.705   6.217
 3513POPC   C2B45884  42.875  32.830   6.662
 3513POPC   C3B45885  42.901  32.571   7.032
 3513POPC   C4B45886  43.042  32.439   7.462
 3514POPC   NC345887   2.069  16.251   5.522
 3514POPC   PO445888   1.833  15.646   5.415
 3514POPC   GL145889   2.050  15.698   5.800
 3514POPC   GL245890   2.222  16.012   5.926
 3514POPC   C1A45891   1.966  15.726   6.228
 3514POPC   D2A45892   1.941  15.944   6.591
 3514POPC   C3A45893   1.909  15.723   6.937
 3514POPC   C4A45894   1.845  15.827   7.329
 3514POPC   C1B45895   2.187  16.287   6.302
 3514POPC   C2B45896   1.950  16.461   6.690
 3514POPC   C3B45897   1.787  16.291   7.080
 3514POPC   C4B45898   1.990  16.301   7.533
 3515POPC   NC345899  29.070  23.436   5.519
 3515POPC   PO445900  29.515  23.841   5.484
 3515POPC   GL145901  29.312  23.748   5.841
 3515POPC   GL245902  28.998  23.906   5.934
 3515POPC   C1A45903  29.353  23.593   6.203
 3515POPC   D2A45904  29.123  23.763   6.532
 3515POPC   C3A45905  29.320  23.788   6.897
 3515POPC   C4A45906  29.226  23.648   7.314
 3515POPC   C1B45907  28.859  23.522   6.167
 3515POPC   C2B45908  29.009  23.228   6.470
 3515POPC   C3B45909  29.099  23.313   6.896
 3515POPC   C4B45910  28.903  23.249   7.252
 3516POPC   NC345911  31.900   3.319   5.525
 3516POPC   PO445912  32.477   3.679   5.424
 3516POPC   GL145913  32.340   3.426   5.762
 3516POPC   GL245914  32.096   3.676   5.823
 3516POPC   C1A45915  32.162   3.306   6.174
 3516POPC   D2A45916  32.351   3.301   6.581
 3516POPC   C3A45917  32.133   3.228   6.968
 3516POPC   C4A45918  32.177   3.219   7.384
 3516POPC   C1B45919  32.373   3.779   6.157
 3516POPC   C2B45920  32.440   3.831   6.571
 3516POPC   C3B45921  32.169   3.739   6.878
 3516POPC   C4B45922  32.237   3.710   7.284
 3517POPC   NC345923  30.963  43.447   5.444
 3517POPC   PO445924  30.970  42.797   5.222
 3517POPC   GL145925  30.845  42.984   5.662
 3517POPC   GL245926  30.551  43.259   5.705
 3517POPC   C1A45927  30.917  42.947   6.141
 3517POPC   D2A45928  30.996  43.005   6.625
 3517POPC   C3A45929  30.686  42.770   6.912
 3517POPC   C4A45930  30.454  42.977   7.271
 3517POPC   C1B45931  30.737  43.418   6.094
 3517POPC   C2B45932  30.573  43.220   6.475
 3517POPC   C3B45933  30.454  43.296   6.889
 3517POPC   C4B45934  30.529  43.515   7.270
 3518POPC   NC345935  14.762  31.061   5.278
 3518POPC   PO445936  15.236  30.567   5.373
 3518POPC   GL145937  14.984  30.689   5.765
 3518POPC   GL245938  14.894  31.044   5.782
 3518POPC   C1A45939  15.186  30.726   6.208
 3518POPC   D2A45940  15.159  30.782   6.695
 3518POPC   C3A45941  15.298  30.445   7.011
 3518POPC   C4A45942  15.030  30.107   7.189
 3518POPC   C1B45943  14.777  31.071   6.219
 3518POPC   C2B45944  14.949  31.244   6.603
 3518POPC   C3B45945  15.312  31.252   6.904
 3518POPC   C4B45946  15.419  30.985   7.264
 3519POPC   NC345947  42.549   9.701   5.275
 3519POPC   PO445948  42.436  10.334   5.161
 3519POPC   GL145949  42.358  10.009   5.635
 3519POPC   GL245950  42.255   9.650   5.682
 3519POPC   C1A45951  42.521   9.909   6.052
 3519POPC   D2A45952  42.666   9.916   6.467
 3519POPC   C3A45953  42.494   9.807   6.864
 3519POPC   C4A45954  42.662   9.811   7.277
 3519POPC   C1B45955  42.068   9.677   6.087
 3519POPC   C2B45956  42.123   9.583   6.537
 3519POPC   C3B45957  42.010   9.636   6.971
 3519POPC   C4B45958  42.318   9.443   7.214
 3520POPC   NC345959  36.802  28.643   5.371
 3520POPC   PO445960  37.302  28.119   5.404
 3520POPC   GL145961  36.965  28.272   5.728
 3520POPC   GL245962  36.661  28.507   5.855
 3520POPC   C1A45963  36.787  28.085   6.120
 3520POPC   D2A45964  36.871  27.987   6.569
 3520POPC   C3A45965  36.876  28.274   6.952
 3520POPC   C4A45966  36.822  28.148   7.412
 3520POPC   C1B45967  36.906  28.564   6.272
 3520POPC   C2B45968  36.997  28.730   6.676
 3520POPC   C3B45969  36.823  28.832   7.074
 3520POPC   C4B45970  36.969  28.626   7.421
 3521POPC   NC345971  33.039  38.493   5.102
 3521POPC   PO445972  33.327  38.759   5.589
 3521POPC   GL145973  33.275  38.710   5.984
 3521POPC   GL245974  33.103  38.412   5.956
 3521POPC   C1A45975  33.480  38.671   6.372
 3521POPC   D2A45976  33.393  38.515   6.773
 3521POPC   C3A45977  32.980  38.656   6.866
 3521POPC   C4A45978  32.754  38.720   7.250
 3521POPC   C1B45979  33.246  38.182   6.314
 3521POPC   C2B45980  32.986  38.055   6.675
 3521POPC   C3B45981  32.923  38.195   7.085
 3521POPC   C4B45982  33.230  38.252   7.400
 3522POPC   NC345983  13.214  18.769   5.464
 3522POPC   PO445984  12.602  18.477   5.508
 3522POPC   GL145985  12.874  18.378   5.825
 3522POPC   GL245986  12.759  18.035   5.910
 3522POPC   C1A45987  12.849  18.476   6.251
 3522POPC   D2A45988  13.092  18.416   6.625
 3522POPC   C3A45989  12.908  18.521   6.996
 3522POPC   C4A45990  12.720  18.174   7.193
 3522POPC   C1B45991  13.078  18.018   6.244
 3522POPC   C2B45992  13.269  17.930   6.652
 3522POPC   C3B45993  13.226  18.087   7.079
 3522POPC   C4B45994  13.170  17.912   7.502
 3523POPC   NC345995  19.674  27.791   5.219
 3523POPC   PO445996  20.246  27.441   5.376
 3523POPC   GL145997  19.964  27.709   5.749
 3523POPC   GL245998  19.590  27.777   5.844
 3523POPC   C1A45999  19.934  27.904   6.219
 3523POPC   D2A46000  19.947  28.105   6.641
 3523POPC   C3A46001  20.088  27.771   6.951
 3523POPC   C4A46002  19.973  27.438   7.270
 3523POPC   C1B46003  19.444  27.828   6.288
 3523POPC   C2B46004  19.499  27.827   6.745
 3523POPC   C3B46005  19.516  27.600   7.123
 3523POPC   C4B46006  19.435  27.349   7.485
 3524POPC   NC346007  10.445  29.818   5.170
 3524POPC   PO446008  10.337  29.575   5.793
 3524POPC   GL146009  10.546  29.686   6.115
 3524POPC   GL246010  10.606  30.029   6.008
 3524POPC   C1A46011  10.466  29.894   6.489
 3524POPC   D2A46012  10.337  30.322   6.432
 3524POPC   C3A46013  10.292  30.294   6.840
 3524POPC   C4A46014  10.405  29.889   7.044
 3524POPC   C1B46015  10.946  29.949   6.340
 3524POPC   C2B46016  10.897  29.844   6.813
 3524POPC   C3B46017  10.861  29.772   7.271
 3524POPC   C4B46018  10.945  29.958   7.680
 3525POPC   NC346019  32.270  23.102   5.355
 3525POPC   PO446020  31.653  22.736   5.515
 3525POPC   GL146021  31.886  22.770   5.889
 3525POPC   GL246022  31.974  23.066   5.797
 3525POPC   C1A46023  32.109  22.704   6.275
 3525POPC   D2A46024  32.311  22.872   6.627
 3525POPC   C3A46025  32.147  22.724   7.015
 3525POPC   C4A46026  32.326  22.734   7.404
 3525POPC   C1B46027  32.167  23.206   6.178
 3525POPC   C2B46028  32.304  23.390   6.549
 3525POPC   C3B46029  32.222  23.272   6.960
 3525POPC   C4B46030  32.350  23.228   7.353
 3526POPC   NC346031  29.583  11.950   5.336
 3526POPC   PO446032  30.095  12.318   5.285
 3526POPC   GL146033  30.008  12.160   5.706
 3526POPC   GL246034  29.902  11.849   5.788
 3526POPC   C1A46035  30.010  12.231   6.160
 3526POPC   D2A46036  29.907  12.412   6.557
 3526POPC   C3A46037  30.039  12.157   6.882
 3526POPC   C4A46038  30.152  12.191   7.283
 3526POPC   C1B46039  29.650  11.842   6.157
 3526POPC   C2B46040  29.766  11.849   6.570
 3526POPC   C3B46041  29.599  11.918   6.944
 3526POPC   C4B46042  29.638  12.200   7.276
 3527POPC   NC346043   7.311  33.000   5.448
 3527POPC   PO446044   7.909  32.684   5.238
 3527POPC   GL146045   7.730  32.625   5.753
 3527POPC   GL246046   7.438  32.865   5.905
 3527POPC   C1A46047   7.618  32.552   6.216
 3527POPC   D2A46048   7.235  32.714   6.473
 3527POPC   C3A46049   7.354  32.930   6.876
 3527POPC   C4A46050   7.616  32.854   7.272
 3527POPC   C1B46051   7.215  33.192   6.165
 3527POPC   C2B46052   7.210  33.430   6.568
 3527POPC   C3B46053   7.040  33.422   6.966
 3527POPC   C4B46054   7.186  33.159   7.304
 3528POPC   NC346055  35.604   1.444   5.465
 3528POPC   PO446056  36.283   1.299   5.398
 3528POPC   GL146057  36.119   1.143   5.771
 3528POPC   GL246058  35.799   0.922   5.694
 3528POPC   C1A46059  36.347   1.126   6.188
 3528POPC   D2A46060  36.206   1.313   6.590
 3528POPC   C3A46061  36.415   1.313   6.998
 3528POPC   C4A46062  36.078   1.485   7.228
 3528POPC   C1B46063  35.952   0.810   6.128
 3528POPC   C2B46064  36.129   0.799   6.540
 3528POPC   C3B46065  36.034   0.958   6.952
 3528POPC   C4B46066  36.187   0.985   7.371
 3529POPC   NC346067  28.446  14.041   5.456
 3529POPC   PO446068  28.765  14.653   5.549
 3529POPC   GL146069  28.456  14.591   5.855
 3529POPC   GL246070  28.386  14.254   5.901
 3529POPC   C1A46071  28.339  14.627   6.300
 3529POPC   D2A46072  28.472  14.526   6.722
 3529POPC   C3A46073  28.288  14.717   7.092
 3529POPC   C4A46074  28.283  14.612   7.548
 3529POPC   C1B46075  28.201  14.083   6.251
 3529POPC   C2B46076  28.025  14.220   6.629
 3529POPC   C3B46077  28.211  14.212   7.045
 3529POPC   C4B46078  28.626  14.348   7.227
 3530POPC   NC346079   9.562  20.288   5.260
 3530POPC   PO446080   9.898  19.700   5.411
 3530POPC   GL146081   9.777  19.724   5.811
 3530POPC   GL246082   9.636  20.055   5.763
 3530POPC   C1A46083   9.961  19.873   6.202
 3530POPC   D2A46084   9.781  20.037   6.592
 3530POPC   C3A46085   9.680  19.694   6.875
 3530POPC   C4A46086  10.069  19.547   7.014
 3530POPC   C1B46087   9.463  19.960   6.161
 3530POPC   C2B46088   9.291  19.883   6.562
 3530POPC   C3B46089   9.364  20.096   6.937
 3530POPC   C4B46090   9.243  20.015   7.358
 3531POPC   NC346091   4.057   3.241   5.469
 3531POPC   PO446092   4.680   3.592   5.608
 3531POPC   GL146093   4.245   3.589   5.810
 3531POPC   GL246094   4.055   3.873   5.847
 3531POPC   C1A46095   4.027   3.474   6.183
 3531POPC   D2A46096   4.234   3.375   6.555
 3531POPC   C3A46097   4.270   3.662   6.881
 3531POPC   C4A46098   4.430   3.539   7.292
 3531POPC   C1B46099   4.111   3.965   6.257
 3531POPC   C2B46100   4.139   4.147   6.665
 3531POPC   C3B46101   3.908   4.014   6.987
 3531POPC   C4B46102   3.972   3.804   7.325
 3532POPC   NC346103   4.583   4.728   5.172
 3532POPC   PO446104   4.401   5.399   5.314
 3532POPC   GL146105   4.359   5.169   5.728
 3532POPC   GL246106   4.019   5.214   5.846
 3532POPC   C1A46107   4.434   5.034   6.172
 3532POPC   D2A46108   4.292   5.152   6.595
 3532POPC   C3A46109   4.397   5.022   7.017
 3532POPC   C4A46110   4.673   4.976   7.394
 3532POPC   C1B46111   4.123   5.493   6.194
 3532POPC   C2B46112   4.109   5.636   6.625
 3532POPC   C3B46113   4.043   5.388   6.999
 3532POPC   C4B46114   3.901   5.265   7.403
 3533POPC   NC346115  13.282   3.398   5.447
 3533POPC   PO446116  13.723   3.839   5.386
 3533POPC   GL146117  13.790   3.757   5.841
 3533POPC   GL246118  13.440   3.641   5.869
 3533POPC   C1A46119  14.031   3.649   6.272
 3533POPC   D2A46120  14.070   3.332   6.647
 3533POPC   C3A46121  13.829   3.499   6.984
 3533POPC   C4A46122  13.464   3.356   7.206
 3533POPC   C1B46123  13.182   3.839   6.154
 3533POPC   C2B46124  13.226   3.772   6.563
 3533POPC   C3B46125  13.172   3.975   6.920
 3533POPC   C4B46126  13.436   3.873   7.238
 3534POPC   NC346127  26.203  34.068   5.206
 3534POPC   PO446128  26.072  34.731   5.433
 3534POPC   GL146129  25.992  34.518   5.775
 3534POPC   GL246130  26.304  34.330   5.772
 3534POPC   C1A46131  25.803  34.537   6.196
 3534POPC   D2A46132  25.649  34.325   6.555
 3534POPC   C3A46133  25.842  34.452   6.920
 3534POPC   C4A46134  25.937  34.888   7.070
 3534POPC   C1B46135  26.293  34.632   6.155
 3534POPC   C2B46136  26.149  34.664   6.570
 3534POPC   C3B46137  26.370  34.624   6.946
 3534POPC   C4B46138  26.393  34.820   7.333
 3535POPC   NC346139  24.397  10.176   5.600
 3535POPC   PO446140  24.677  10.832   5.611
 3535POPC   GL146141  24.505  10.591   5.905
 3535POPC   GL246142  24.697  10.271   5.999
 3535POPC   C1A46143  24.525  10.829   6.280
 3535POPC   D2A46144  24.745  10.723   6.644
 3535POPC   C3A46145  24.611  10.418   6.930
 3535POPC   C4A46146  24.544  10.625   7.304
 3535POPC   C1B46147  24.447  10.346   6.376
 3535POPC   C2B46148  24.149  10.330   6.719
 3535POPC   C3B46149  24.138  10.352   7.203
 3535POPC   C4B46150  24.375  10.261   7.611
 3536POPC   NC346151  24.997  24.645   5.445
 3536POPC   PO446152  25.634  24.380   5.316
 3536POPC   GL146153  25.386  24.395   5.701
 3536POPC   GL246154  25.451  24.757   5.738
 3536POPC   C1A46155  25.207  24.326   6.136
 3536POPC   D2A46156  25.393  24.201   6.528
 3536POPC   C3A46157  25.235  24.300   6.938
 3536POPC   C4A46158  25.517  24.328   7.283
 3536POPC   C1B46159  25.200  24.839   6.107
 3536POPC   C2B46160  25.081  24.687   6.493
 3536POPC   C3B46161  25.236  24.798   6.863
 3536POPC   C4B46162  25.157  24.715   7.271
 3537POPC   NC346163   2.381   5.228   5.432
 3537POPC   PO446164   2.718   4.762   5.773
 3537POPC   GL146165   2.626   5.224   5.893
 3537POPC   GL246166   2.935   5.323   5.778
 3537POPC   C1A46167   2.681   5.369   6.320
 3537POPC   D2A46168   2.735   5.072   6.636
 3537POPC   C3A46169   2.553   5.173   7.025
 3537POPC   C4A46170   2.557   5.380   7.436
 3537POPC   C1B46171   3.093   5.099   6.174
 3537POPC   C2B46172   3.223   5.262   6.563
 3537POPC   C3B46173   3.045   5.276   6.991
 3537POPC   C4B46174   2.911   5.006   7.356
 3538POPC   NC346175  27.885  42.473   5.208
 3538POPC   PO446176  27.273  42.517   5.245
 3538POPC   GL146177  27.517  42.531   5.671
 3538POPC   GL246178  27.936  42.601   5.690
 3538POPC   C1A46179  27.316  42.466   6.117
 3538POPC   D2A46180  27.199  42.566   6.579
 3538POPC   C3A46181  27.411  42.472   6.986
 3538POPC   C4A46182  27.433  42.107   7.276
 3538POPC   C1B46183  27.820  42.529   6.126
 3538POPC   C2B46184  27.638  42.279   6.481
 3538POPC   C3B46185  27.778  42.113   6.882
 3538POPC   C4B46186  27.887  42.367   7.238
 3539POPC   NC346187  38.077   0.231   5.443
 3539POPC   PO446188  37.906   0.785   5.147
 3539POPC   GL146189  37.793   0.653   5.620
 3539POPC   GL246190  37.410   0.644   5.637
 3539POPC   C1A46191  37.757   0.343   6.023
 3539POPC   D2A46192  37.622   0.384   6.471
 3539POPC   C3A46193  37.753   0.252   6.894
 3539POPC   C4A46194  37.612   0.386   7.280
 3539POPC   C1B46195  37.390   0.713   6.101
 3539POPC   C2B46196  37.520   0.896   6.509
 3539POPC   C3B46197  37.439   0.752   6.920
 3539POPC   C4B46198  37.183   0.697   7.272
 3540POPC   NC346199   4.362  15.536   5.686
 3540POPC   PO446200   4.118  16.115   5.393
 3540POPC   GL146201   4.243  16.046   5.839
 3540POPC   GL246202   4.548  15.964   5.903
 3540POPC   C1A46203   4.268  16.198   6.284
 3540POPC   D2A46204   4.118  16.360   6.674
 3540POPC   C3A46205   4.093  16.038   7.017
 3540POPC   C4A46206   4.311  15.939   7.399
 3540POPC   C1B46207   4.631  15.851   6.346
 3540POPC   C2B46208   4.500  15.852   6.767
 3540POPC   C3B46209   4.715  15.749   7.155
 3540POPC   C4B46210   4.728  15.693   7.598
 3541POPC   NC346211  38.397  38.057   5.391
 3541POPC   PO446212  38.288  37.449   5.388
 3541POPC   GL146213  38.534  37.611   5.733
 3541POPC   GL246214  38.641  37.949   5.824
 3541POPC   C1A46215  38.364  37.647   6.157
 3541POPC   D2A46216  38.140  37.725   6.534
 3541POPC   C3A46217  38.350  37.570   6.884
 3541POPC   C4A46218  38.327  37.660   7.323
 3541POPC   C1B46219  38.825  37.863   6.196
 3541POPC   C2B46220  38.681  37.837   6.596
 3541POPC   C3B46221  38.803  37.791   7.016
 3541POPC   C4B46222  38.814  38.099   7.344
 3542POPC   NC346223  30.410  27.294   5.485
 3542POPC   PO446224  31.041  27.121   5.568
 3542POPC   GL146225  30.808  27.394   5.844
 3542POPC   GL246226  30.724  27.697   5.680
 3542POPC   C1A46227  30.808  27.511   6.285
 3542POPC   D2A46228  30.593  27.432   6.679
 3542POPC   C3A46229  30.816  27.462   7.062
 3542POPC   C4A46230  30.626  27.298   7.406
 3542POPC   C1B46231  30.559  27.889   6.051
 3542POPC   C2B46232  30.606  27.926   6.525
 3542POPC   C3B46233  30.495  27.870   6.957
 3542POPC   C4B46234  30.786  27.922   7.304
 3543POPC   NC346235  19.432  39.120   5.387
 3543POPC   PO446236  18.895  39.524   5.418
 3543POPC   GL146237  18.963  39.366   5.802
 3543POPC   GL246238  19.086  39.062   5.756
 3543POPC   C1A46239  19.168  39.466   6.200
 3543POPC   D2A46240  19.027  39.400   6.628
 3543POPC   C3A46241  19.255  39.117   6.885
 3543POPC   C4A46242  19.289  39.084   7.325
 3543POPC   C1B46243  19.058  38.982   6.214
 3543POPC   C2B46244  18.855  38.884   6.588
 3543POPC   C3B46245  18.746  39.076   6.963
 3543POPC   C4B46246  18.791  38.982   7.377
 3544POPC   NC346247  35.556  32.794   5.265
 3544POPC   PO446248  34.872  32.841   5.510
 3544POPC   GL146249  35.242  32.937   5.756
 3544POPC   GL246250  35.373  33.299   5.848
 3544POPC   C1A46251  35.238  32.802   6.180
 3544POPC   D2A46252  35.357  32.915   6.584
 3544POPC   C3A46253  35.198  32.735   6.944
 3544POPC   C4A46254  35.541  32.756   7.261
 3544POPC   C1B46255  35.267  33.355   6.309
 3544POPC   C2B46256  35.304  33.384   6.783
 3544POPC   C3B46257  35.230  33.196   7.159
 3544POPC   C4B46258  35.227  33.364   7.590
 3545POPC   NC346259  32.226   4.838   5.462
 3545POPC   PO446260  32.503   5.464   5.488
 3545POPC   GL146261  32.394   5.152   5.829
 3545POPC   GL246262  32.004   5.071   5.881
 3545POPC   C1A46263  32.457   4.921   6.226
 3545POPC   D2A46264  32.282   4.768   6.629
 3545POPC   C3A46265  32.475   4.969   7.037
 3545POPC   C4A46266  32.559   4.945   7.526
 3545POPC   C1B46267  31.814   5.214   6.302
 3545POPC   C2B46268  31.823   5.087   6.736
 3545POPC   C3B46269  31.971   4.786   7.031
 3545POPC   C4B46270  32.095   5.087   7.346
 3546POPC   NC346271  14.549  38.775   5.379
 3546POPC   PO446272  14.182  38.174   5.397
 3546POPC   GL146273  14.151  38.469   5.731
 3546POPC   GL246274  14.488  38.476   5.763
 3546POPC   C1A46275  14.186  38.386   6.177
 3546POPC   D2A46276  13.994  38.289   6.538
 3546POPC   C3A46277  14.221  38.417   6.889
 3546POPC   C4A46278  14.058  38.334   7.275
 3546POPC   C1B46279  14.600  38.698   6.113
 3546POPC   C2B46280  14.623  38.603   6.540
 3546POPC   C3B46281  14.585  38.791   6.960
 3546POPC   C4B46282  14.531  38.534   7.336
 3547POPC   NC346283  21.705  24.985   5.428
 3547POPC   PO446284  20.938  24.928   5.405
 3547POPC   GL146285  21.120  24.629   5.768
 3547POPC   GL246286  21.369  24.354   5.653
 3547POPC   C1A46287  21.177  24.459   6.222
 3547POPC   D2A46288  21.070  24.501   6.660
 3547POPC   C3A46289  21.440  24.471   6.897
 3547POPC   C4A46290  21.571  24.690   7.280
 3547POPC   C1B46291  21.541  24.163   6.046
 3547POPC   C2B46292  21.510  24.091   6.498
 3547POPC   C3B46293  21.750  24.041   6.895
 3547POPC   C4B46294  21.595  24.173   7.303
 3548POPC   NC346295  20.456  27.853   5.293
 3548POPC   PO446296  20.580  28.322   5.616
 3548POPC   GL146297  20.423  28.453   5.953
 3548POPC   GL246298  20.230  28.194   5.974
 3548POPC   C1A46299  20.605  28.670   6.305
 3548POPC   D2A46300  20.822  28.583   6.670
 3548POPC   C3A46301  20.673  28.515   7.076
 3548POPC   C4A46302  20.392  28.749   7.220
 3548POPC   C1B46303  20.420  28.180   6.394
 3548POPC   C2B46304  20.519  28.085   6.835
 3548POPC   C3B46305  20.739  27.991   7.227
 3548POPC   C4B46306  21.196  27.984   7.342
 3549POPC   NC346307   3.274  19.515   5.087
 3549POPC   PO446308   3.330  19.918   5.644
 3549POPC   GL146309   3.676  19.712   5.850
 3549POPC   GL246310   3.938  19.957   5.751
 3549POPC   C1A46311   3.557  19.730   6.283
 3549POPC   D2A46312   3.309  20.008   6.516
 3549POPC   C3A46313   3.479  19.885   6.880
 3549POPC   C4A46314   3.610  19.902   7.272
 3549POPC   C1B46315   3.745  20.157   6.101
 3549POPC   C2B46316   3.824  20.106   6.518
 3549POPC   C3B46317   3.976  20.070   6.937
 3549POPC   C4B46318   3.788  20.381   7.140
 3550POPC   NC346319  17.676  24.409   5.127
 3550POPC   PO446320  17.231  24.206   5.476
 3550POPC   GL146321  17.441  24.365   5.829
 3550POPC   GL246322  17.433  24.737   5.864
 3550POPC   C1A46323  17.605  24.412   6.242
 3550POPC   D2A46324  17.801  24.519   6.626
 3550POPC   C3A46325  17.581  24.277   6.952
 3550POPC   C4A46326  17.547  24.331   7.429
 3550POPC   C1B46327  17.436  24.902   6.289
 3550POPC   C2B46328  17.323  24.696   6.662
 3550POPC   C3B46329  17.237  24.796   7.074
 3550POPC   C4B46330  17.541  24.919   7.369
 3551POPC   NC346331  29.468  22.576   5.200
 3551POPC   PO446332  29.853  22.050   5.337
 3551POPC   GL146333  29.967  22.220   5.742
 3551POPC   GL246334  29.736  22.210   6.008
 3551POPC   C1A46335  30.235  22.393   6.065
 3551POPC   D2A46336  30.177  22.251   6.492
 3551POPC   C3A46337  29.957  22.448   6.867
 3551POPC   C4A46338  30.121  22.509   7.306
 3551POPC   C1B46339  29.637  22.178   6.444
 3551POPC   C2B46340  29.862  21.937   6.746
 3551POPC   C3B46341  30.038  22.007   7.113
 3551POPC   C4B46342  29.675  22.149   7.290
 3552POPC   NC346343  42.945   5.513   5.370
 3552POPC   PO446344  43.382   4.978   5.261
 3552POPC   GL146345  43.180   5.002   5.688
 3552POPC   GL246346  42.839   4.883   5.698
 3552POPC   C1A46347  43.033   5.226   6.067
 3552POPC   D2A46348  43.210   5.398   6.449
 3552POPC   C3A46349  43.263   5.191   6.849
 3552POPC   C4A46350  43.115   5.219   7.236
 3552POPC   C1B46351  42.853   4.763   6.148
 3552POPC   C2B46352  43.034   4.850   6.529
 3552POPC   C3B46353  42.874   4.839   6.945
 3552POPC   C4B46354  43.094   4.703   7.276
 3553POPC   NC346355  23.417  41.958   5.423
 3553POPC   PO446356  23.006  42.386   5.341
 3553POPC   GL146357  22.963  42.414   5.778
 3553POPC   GL246358  22.629  42.450   5.905
 3553POPC   C1A46359  23.109  42.269   6.204
 3553POPC   D2A46360  23.317  42.313   6.630
 3553POPC   C3A46361  23.399  42.570   6.981
 3553POPC   C4A46362  23.365  42.435   7.420
 3553POPC   C1B46363  22.597  42.236   6.310
 3553POPC   C2B46364  22.835  42.146   6.649
 3553POPC   C3B46365  22.962  42.324   7.029
 3553POPC   C4B46366  22.949  42.094   7.380
 3554POPC   NC346367  38.594  36.229   5.138
 3554POPC   PO446368  38.216  35.778   5.601
 3554POPC   GL146369  38.388  35.980   5.987
 3554POPC   GL246370  38.497  36.338   6.006
 3554POPC   C1A46371  38.500  35.987   6.412
 3554POPC   D2A46372  38.633  36.287   6.725
 3554POPC   C3A46373  38.756  36.009   7.034
 3554POPC   C4A46374  38.464  35.765   7.201
 3554POPC   C1B46375  38.206  36.398   6.381
 3554POPC   C2B46376  38.079  36.363   6.812
 3554POPC   C3B46377  38.294  36.248   7.163
 3554POPC   C4B46378  38.547  36.393   7.476
 3555POPC   NC346379  25.273   4.632   5.483
 3555POPC   PO446380  24.980   5.208   5.415
 3555POPC   GL146381  25.159   5.044   5.758
 3555POPC   GL246382  24.920   4.784   5.846
 3555POPC   C1A46383  25.453   5.121   6.105
 3555POPC   D2A46384  25.640   5.299   6.504
 3555POPC   C3A46385  25.521   5.149   6.941
 3555POPC   C4A46386  25.652   4.830   7.264
 3555POPC   C1B46387  24.944   5.061   6.199
 3555POPC   C2B46388  25.175   5.067   6.547
 3555POPC   C3B46389  24.975   5.093   6.907
 3555POPC   C4B46390  25.135   4.942   7.253
 3556POPC   NC346391   3.326  22.792   5.527
 3556POPC   PO446392   4.005  22.781   5.579
 3556POPC   GL146393   3.784  22.983   5.882
 3556POPC   GL246394   3.431  23.019   5.979
 3556POPC   C1A46395   3.833  22.881   6.289
 3556POPC   D2A46396   3.574  22.874   6.625
 3556POPC   C3A46397   3.859  22.910   6.899
 3556POPC   C4A46398   3.775  23.023   7.264
 3556POPC   C1B46399   3.344  22.603   6.240
 3556POPC   C2B46400   3.413  22.396   6.681
 3556POPC   C3B46401   3.501  22.603   7.118
 3556POPC   C4B46402   3.359  22.860   7.479
 3557POPC   NC346403  41.890  14.842   5.432
 3557POPC   PO446404  42.447  14.845   5.047
 3557POPC   GL146405  42.371  15.049   5.578
 3557POPC   GL246406  42.628  15.304   5.758
 3557POPC   C1A46407  42.286  15.121   6.097
 3557POPC   D2A46408  42.432  15.242   6.553
 3557POPC   C3A46409  42.106  15.204   6.885
 3557POPC   C4A46410  42.059  15.034   7.312
 3557POPC   C1B46411  42.730  14.896   6.010
 3557POPC   C2B46412  42.778  14.842   6.487
 3557POPC   C3B46413  42.697  14.984   6.932
 3557POPC   C4B46414  42.526  15.349   7.143
 3558POPC   NC346415  34.969  31.612   5.454
 3558POPC   PO446416  34.499  31.135   5.562
 3558POPC   GL146417  34.667  31.443   5.819
 3558POPC   GL246418  34.443  31.698   5.830
 3558POPC   C1A46419  34.842  31.652   6.154
 3558POPC   D2A46420  34.857  31.332   6.486
 3558POPC   C3A46421  34.792  31.397   6.917
 3558POPC   C4A46422  34.752  31.019   7.179
 3558POPC   C1B46423  34.338  31.531   6.233
 3558POPC   C2B46424  34.055  31.448   6.565
 3558POPC   C3B46425  34.293  31.290   6.858
 3558POPC   C4B46426  34.400  31.376   7.241
 3559POPC   NC346427  22.663  10.741   5.427
 3559POPC   PO446428  23.174  10.301   5.361
 3559POPC   GL146429  22.990  10.407   5.788
 3559POPC   GL246430  22.764  10.684   5.916
 3559POPC   C1A46431  23.098  10.452   6.247
 3559POPC   D2A46432  23.218  10.395   6.665
 3559POPC   C3A46433  23.037  10.581   6.991
 3559POPC   C4A46434  23.142  10.614   7.423
 3559POPC   C1B46435  22.624  10.282   6.141
 3559POPC   C2B46436  22.798  10.112   6.530
 3559POPC   C3B46437  22.785  10.123   6.973
 3559POPC   C4B46438  22.665  10.423   7.298
 3560POPC   NC346439   6.090  44.586   5.301
 3560POPC   PO446440   5.414  44.547   5.511
 3560POPC   GL146441   5.678  44.476   5.909
 3560POPC   GL246442   6.047  44.462   5.864
 3560POPC   C1A46443   5.852  44.580   6.340
 3560POPC   D2A46444   5.914  44.976   6.530
 3560POPC   C3A46445   5.721   0.013   6.919
 3560POPC   C4A46446   5.843  44.767   7.296
 3560POPC   C1B46447   6.256  44.278   6.231
 3560POPC   C2B46448   6.091  44.180   6.625
 3560POPC   C3B46449   5.939  44.476   6.880
 3560POPC   C4B46450   6.289  44.481   7.160
 3561POPC   NC346451  44.098  44.053   5.397
 3561POPC   PO446452  43.585  43.895   5.607
 3561POPC   GL146453  43.729  44.178   5.923
 3561POPC   GL246454  44.094  44.238   5.919
 3561POPC   C1A46455  43.815  44.185   6.373
 3561POPC   D2A46456  43.904  44.354   6.753
 3561POPC   C3A46457  43.966  44.069   7.090
 3561POPC   C4A46458  43.670  44.036   7.454
 3561POPC   C1B46459  44.127  43.836   6.190
 3561POPC   C2B46460  44.032  43.688   6.636
 3561POPC   C3B46461  44.302  43.690   7.038
 3561POPC   C4B46462  44.455  43.942   7.382
 3562POPC   NC346463   8.303  14.634   5.367
 3562POPC   PO446464   8.080  14.059   5.620
 3562POPC   GL146465   8.257  14.309   5.899
 3562POPC   GL246466   8.187  14.679   5.890
 3562POPC   C1A46467   8.263  14.372   6.325
 3562POPC   D2A46468   7.979  14.508   6.637
 3562POPC   C3A46469   8.109  14.391   7.041
 3562POPC   C4A46470   8.011  14.450   7.467
 3562POPC   C1B46471   8.296  14.887   6.316
 3562POPC   C2B46472   8.419  14.786   6.768
 3562POPC   C3B46473   8.388  14.806   7.236
 3562POPC   C4B46474   8.445  14.708   7.704
 3563POPC   NC346475  17.751   3.644   5.509
 3563POPC   PO446476  17.206   3.220   5.455
 3563POPC   GL146477  17.438   3.316   5.843
 3563POPC   GL246478  17.788   3.363   5.947
 3563POPC   C1A46479  17.327   3.510   6.240
 3563POPC   D2A46480  17.096   3.458   6.600
 3563POPC   C3A46481  17.239   3.601   6.990
 3563POPC   C4A46482  17.415   3.438   7.377
 3563POPC   C1B46483  17.808   3.722   6.233
 3563POPC   C2B46484  17.611   3.678   6.633
 3563POPC   C3B46485  17.742   3.644   7.045
 3563POPC   C4B46486  17.907   3.593   7.463
 3564POPC   NC346487   8.781  17.459   5.549
 3564POPC   PO446488   9.431  17.547   5.394
 3564POPC   GL146489   9.250  17.535   5.777
 3564POPC   GL246490   9.063  17.845   5.789
 3564POPC   C1A46491   9.331  17.591   6.201
 3564POPC   D2A46492   9.302  17.341   6.578
 3564POPC   C3A46493   9.307  17.614   6.921
 3564POPC   C4A46494   9.079  17.556   7.304
 3564POPC   C1B46495   8.830  17.711   6.163
 3564POPC   C2B46496   8.898  17.670   6.602
 3564POPC   C3B46497   8.744  17.781   7.007
 3564POPC   C4B46498   8.598  17.704   7.465
 3565POPC   NC346499  21.894   0.877   5.503
 3565POPC   PO446500  21.996   1.506   5.648
 3565POPC   GL146501  22.298   1.267   5.852
 3565POPC   GL246502  22.265   0.914   5.846
 3565POPC   C1A46503  22.384   1.331   6.268
 3565POPC   D2A46504  22.153   1.381   6.645
 3565POPC   C3A46505  22.369   1.515   7.002
 3565POPC   C4A46506  22.218   1.369   7.383
 3565POPC   C1B46507  22.136   0.871   6.255
 3565POPC   C2B46508  22.400   0.922   6.597
 3565POPC   C3B46509  22.283   1.011   6.990
 3565POPC   C4B46510  21.997   0.773   7.164
 3566POPC   NC346511   2.979   6.832   5.565
 3566POPC   PO446512   2.332   6.581   5.664
 3566POPC   GL146513   2.628   6.322   5.887
 3566POPC   GL246514   2.931   6.516   5.968
 3566POPC   C1A46515   2.631   6.335   6.353
 3566POPC   D2A46516   2.814   6.619   6.634
 3566POPC   C3A46517   2.553   6.911   6.876
 3566POPC   C4A46518   2.609   6.731   7.260
 3566POPC   C1B46519   2.889   6.920   6.201
 3566POPC   C2B46520   2.952   7.103   6.594
 3566POPC   C3B46521   3.049   6.914   7.006
 3566POPC   C4B46522   3.277   6.890   7.392
 3567POPC   NC346523  14.590  24.330   5.545
 3567POPC   PO446524  14.013  24.660   5.360
 3567POPC   GL146525  14.211  24.605   5.773
 3567POPC   GL246526  14.159  24.244   5.793
 3567POPC   C1A46527  14.367  24.498   6.238
 3567POPC   D2A46528  14.529  24.161   6.547
 3567POPC   C3A46529  14.647  24.357   6.948
 3567POPC   C4A46530  14.591  24.660   7.280
 3567POPC   C1B46531  14.179  24.042   6.160
 3567POPC   C2B46532  14.015  24.060   6.550
 3567POPC   C3B46533  14.196  24.060   6.941
 3567POPC   C4B46534  14.239  24.308   7.283
 3568POPC   NC346535  35.889  11.481   5.380
 3568POPC   PO446536  36.323  10.944   5.461
 3568POPC   GL146537  36.032  11.133   5.791
 3568POPC   GL246538  36.016  11.500   5.860
 3568POPC   C1A46539  36.069  11.236   6.264
 3568POPC   D2A46540  36.283  11.368   6.629
 3568POPC   C3A46541  36.138  11.102   6.927
 3568POPC   C4A46542  35.870  11.186   7.255
 3568POPC   C1B46543  35.927  11.741   6.234
 3568POPC   C2B46544  35.998  11.808   6.642
 3568POPC   C3B46545  36.049  11.628   7.030
 3568POPC   C4B46546  35.842  11.717   7.405
 3569POPC   NC346547  36.344  35.072   5.453
 3569POPC   PO446548  36.010  35.511   5.728
 3569POPC   GL146549  36.399  35.362   5.873
 3569POPC   GL246550  36.475  34.981   5.944
 3569POPC   C1A46551  36.544  35.394   6.263
 3569POPC   D2A46552  36.468  35.215   6.634
 3569POPC   C3A46553  36.364  35.534   6.880
 3569POPC   C4A46554  36.212  35.548   7.260
 3569POPC   C1B46555  36.094  35.087   6.191
 3569POPC   C2B46556  35.942  35.270   6.571
 3569POPC   C3B46557  36.029  35.145   6.987
 3569POPC   C4B46558  35.718  35.010   7.253
 3570POPC   NC346559  13.707  44.207   5.471
 3570POPC   PO446560  13.392  43.729   5.489
 3570POPC   GL146561  13.488  43.905   5.863
 3570POPC   GL246562  13.825  43.891   5.892
 3570POPC   C1A46563  13.497  43.862   6.289
 3570POPC   D2A46564  13.791  43.907   6.560
 3570POPC   C3A46565  13.590  43.826   6.908
 3570POPC   C4A46566  13.546  44.042   7.251
 3570POPC   C1B46567  13.851  43.525   6.168
 3570POPC   C2B46568  14.019  43.417   6.546
 3570POPC   C3B46569  13.940  43.372   6.989
 3570POPC   C4B46570  13.789  43.590   7.334
 3571POPC   NC346571  26.249  19.139   5.132
 3571POPC   PO446572  25.838  18.726   5.449
 3571POPC   GL146573  25.829  18.925   5.878
 3571POPC   GL246574  26.172  19.061   5.995
 3571POPC   C1A46575  25.790  19.264   6.211
 3571POPC   D2A46576  25.871  19.381   6.642
 3571POPC   C3A46577  26.004  19.047   6.895
 3571POPC   C4A46578  25.856  19.095   7.288
 3571POPC   C1B46579  26.265  19.431   6.283
 3571POPC   C2B46580  26.386  19.429   6.725
 3571POPC   C3B46581  26.265  19.425   7.171
 3571POPC   C4B46582  26.328  19.113   7.510
 3572POPC   NC346583   1.559  28.342   5.269
 3572POPC   PO446584   0.891  28.479   5.266
 3572POPC   GL146585   1.228  28.480   5.626
 3572POPC   GL246586   1.026  28.285   5.799
 3572POPC   C1A46587   1.369  28.478   6.091
 3572POPC   D2A46588   1.192  28.371   6.498
 3572POPC   C3A46589   1.476  28.228   6.799
 3572POPC   C4A46590   1.356  28.419   7.166
 3572POPC   C1B46591   1.099  28.007   6.157
 3572POPC   C2B46592   1.090  27.850   6.586
 3572POPC   C3B46593   1.046  27.992   6.989
 3572POPC   C4B46594   0.895  28.138   7.337
 3573POPC   NC346595  15.363  31.868   5.591
 3573POPC   PO446596  15.412  32.347   5.118
 3573POPC   GL146597  15.316  32.375   5.680
 3573POPC   GL246598  15.018  32.431   5.899
 3573POPC   C1A46599  15.437  32.391   6.160
 3573POPC   D2A46600  15.456  32.147   6.559
 3573POPC   C3A46601  15.173  32.239   6.912
 3573POPC   C4A46602  15.354  32.217   7.303
 3573POPC   C1B46603  15.023  32.102   6.242
 3573POPC   C2B46604  14.820  31.992   6.609
 3573POPC   C3B46605  14.691  32.043   7.024
 3573POPC   C4B46606  14.951  31.924   7.360
 3574POPC   NC346607  21.241  36.462   5.441
 3574POPC   PO446608  21.187  35.736   5.252
 3574POPC   GL146609  21.389  35.856   5.665
 3574POPC   GL246610  21.078  36.028   5.751
 3574POPC   C1A46611  21.611  35.837   6.132
 3574POPC   D2A46612  21.687  35.758   6.599
 3574POPC   C3A46613  21.584  36.071   6.960
 3574POPC   C4A46614  21.528  36.523   7.150
 3574POPC   C1B46615  21.120  35.814   6.161
 3574POPC   C2B46616  21.179  35.914   6.611
 3574POPC   C3B46617  21.067  35.804   7.047
 3574POPC   C4B46618  21.214  35.602   7.412
 3575POPC   NC346619   5.380  40.639   5.296
 3575POPC   PO446620   4.844  40.911   5.450
 3575POPC   GL146621   4.990  40.740   5.852
 3575POPC   GL246622   5.348  40.671   5.858
 3575POPC   C1A46623   5.013  40.718   6.313
 3575POPC   D2A46624   5.291  40.856   6.662
 3575POPC   C3A46625   5.228  40.716   7.079
 3575POPC   C4A46626   4.912  40.644   7.335
 3575POPC   C1B46627   5.416  41.046   6.165
 3575POPC   C2B46628   5.703  41.129   6.559
 3575POPC   C3B46629   5.493  41.258   6.955
 3575POPC   C4B46630   5.333  41.178   7.367
 3576POPC   NC346631   8.435  23.746   5.509
 3576POPC   PO446632   7.913  23.382   5.489
 3576POPC   GL146633   8.161  23.494   5.854
 3576POPC   GL246634   8.184  23.872   5.943
 3576POPC   C1A46635   8.080  23.503   6.273
 3576POPC   D2A46636   8.217  23.790   6.569
 3576POPC   C3A46637   8.110  23.631   6.945
 3576POPC   C4A46638   8.274  23.502   7.302
 3576POPC   C1B46639   8.563  23.738   6.170
 3576POPC   C2B46640   8.736  23.834   6.564
 3576POPC   C3B46641   8.636  23.712   6.985
 3576POPC   C4B46642   8.593  23.836   7.432
 3577POPC   NC346643  31.587  23.235   5.481
 3577POPC   PO446644  31.255  23.906   5.514
 3577POPC   GL146645  31.249  23.745   5.883
 3577POPC   GL246646  31.135  23.418   5.830
 3577POPC   C1A46647  31.421  23.866   6.275
 3577POPC   D2A46648  31.473  23.642   6.644
 3577POPC   C3A46649  31.520  23.822   7.027
 3577POPC   C4A46650  31.264  23.989   7.314
 3577POPC   C1B46651  31.280  23.337   6.261
 3577POPC   C2B46652  31.243  23.196   6.701
 3577POPC   C3B46653  31.167  23.412   7.116
 3577POPC   C4B46654  31.475  23.478   7.432
 3578POPC   NC346655   0.925  36.016   5.648
 3578POPC   PO446656   0.562  36.467   5.299
 3578POPC   GL146657   0.504  36.267   5.754
 3578POPC   GL246658   0.220  36.414   5.889
 3578POPC   C1A46659   0.444  35.963   6.111
 3578POPC   D2A46660   0.602  36.014   6.522
 3578POPC   C3A46661   0.516  36.126   6.968
 3578POPC   C4A46662   0.685  36.139   7.418
 3578POPC   C1B46663   0.213  36.351   6.326
 3578POPC   C2B46664   0.051  36.169   6.672
 3578POPC   C3B46665   0.119  36.436   6.979
 3578POPC   C4B46666   0.252  36.382   7.366
 3579POPC   NC346667  15.022   7.897   5.405
 3579POPC   PO446668  15.457   8.407   5.406
 3579POPC   GL146669  15.191   8.324   5.761
 3579POPC   GL246670  15.289   7.994   5.821
 3579POPC   C1A46671  14.965   8.372   6.167
 3579POPC   D2A46672  14.889   8.600   6.569
 3579POPC   C3A46673  14.936   8.391   6.982
 3579POPC   C4A46674  14.989   8.205   7.445
 3579POPC   C1B46675  15.347   8.062   6.237
 3579POPC   C2B46676  15.146   8.117   6.608
 3579POPC   C3B46677  15.390   8.197   6.949
 3579POPC   C4B46678  15.445   8.034   7.348
 3580POPC   NC346679  26.288  16.573   5.478
 3580POPC   PO446680  26.020  17.041   5.238
 3580POPC   GL146681  26.012  16.954   5.730
 3580POPC   GL246682  26.002  16.597   5.891
 3580POPC   C1A46683  25.844  16.995   6.186
 3580POPC   D2A46684  25.660  16.882   6.621
 3580POPC   C3A46685  25.908  16.938   7.009
 3580POPC   C4A46686  25.890  16.991   7.465
 3580POPC   C1B46687  26.301  16.567   6.211
 3580POPC   C2B46688  26.157  16.544   6.621
 3580POPC   C3B46689  26.034  16.443   7.018
 3580POPC   C4B46690  26.237  16.628   7.351
 3581POPC   NC346691  41.336  21.739   5.570
 3581POPC   PO446692  41.542  21.140   5.401
 3581POPC   GL146693  41.440  21.209   5.896
 3581POPC   GL246694  41.510  21.557   6.002
 3581POPC   C1A46695  41.639  21.241   6.363
 3581POPC   D2A46696  41.550  21.434   6.774
 3581POPC   C3A46697  41.663  21.375   7.223
 3581POPC   C4A46698  41.397  21.193   7.562
 3581POPC   C1B46699  41.347  21.880   6.263
 3581POPC   C2B46700  41.466  21.952   6.685
 3581POPC   C3B46701  41.379  21.809   7.095
 3581POPC   C4B46702  41.315  21.666   7.479
 3582POPC   NC346703  25.641   9.220   5.262
 3582POPC   PO446704  26.064   8.744   5.416
 3582POPC   GL146705  25.869   8.736   5.823
 3582POPC   GL246706  25.870   9.095   5.913
 3582POPC   C1A46707  25.934   8.615   6.257
 3582POPC   D2A46708  25.915   8.620   6.713
 3582POPC   C3A46709  26.039   8.952   6.877
 3582POPC   C4A46710  26.428   8.882   7.085
 3582POPC   C1B46711  26.217   9.054   6.233
 3582POPC   C2B46712  26.471   9.155   6.622
 3582POPC   C3B46713  26.312   9.370   6.990
 3582POPC   C4B46714  26.060   9.188   7.329
 3583POPC   NC346715  35.193  37.089   5.420
 3583POPC   PO446716  35.270  36.401   5.378
 3583POPC   GL146717  35.282  36.693   5.717
 3583POPC   GL246718  35.591  36.880   5.700
 3583POPC   C1A46719  35.269  37.014   6.088
 3583POPC   D2A46720  35.416  37.127   6.520
 3583POPC   C3A46721  35.160  36.972   6.861
 3583POPC   C4A46722  35.108  37.052   7.272
 3583POPC   C1B46723  35.761  36.863   6.131
 3583POPC   C2B46724  35.716  36.688   6.537
 3583POPC   C3B46725  35.641  36.762   6.960
 3583POPC   C4B46726  35.758  36.652   7.391
 3584POPC   NC346727  43.835  11.341   5.414
 3584POPC   PO446728  44.289  11.535   5.792
 3584POPC   GL146729  43.979  11.203   5.889
 3584POPC   GL246730  43.653  11.022   5.782
 3584POPC   C1A46731  43.692  11.382   6.175
 3584POPC   D2A46732  43.964  11.504   6.496
 3584POPC   C3A46733  43.868  11.541   6.932
 3584POPC   C4A46734  44.147  11.487   7.243
 3584POPC   C1B46735  43.738  10.891   6.224
 3584POPC   C2B46736  43.680  11.093   6.665
 3584POPC   C3B46737  43.737  11.037   7.137
 3584POPC   C4B46738  43.589  11.000   7.590
 3585POPC   NC346739  41.314   9.964   5.353
 3585POPC   PO446740  41.885   9.721   5.347
 3585POPC   GL146741  41.607   9.751   5.752
 3585POPC   GL246742  41.217   9.634   5.742
 3585POPC   C1A46743  41.648   9.937   6.197
 3585POPC   D2A46744  41.848  10.018   6.594
 3585POPC   C3A46745  41.580   9.943   6.943
 3585POPC   C4A46746  41.618   9.768   7.370
 3585POPC   C1B46747  41.164   9.971   6.059
 3585POPC   C2B46748  41.211   9.989   6.530
 3585POPC   C3B46749  41.116   9.709   6.893
 3585POPC   C4B46750  41.149   9.599   7.334
 3586POPC   NC346751  30.143  39.671   5.342
 3586POPC   PO446752  29.462  39.963   5.307
 3586POPC   GL146753  29.696  39.926   5.725
 3586POPC   GL246754  30.065  39.915   5.793
 3586POPC   C1A46755  29.649  39.892   6.203
 3586POPC   D2A46756  29.550  40.154   6.594
 3586POPC   C3A46757  29.767  40.189   7.004
 3586POPC   C4A46758  29.869  39.886   7.342
 3586POPC   C1B46759  30.097  40.133   6.211
 3586POPC   C2B46760  30.042  39.964   6.631
 3586POPC   C3B46761  30.259  40.068   7.015
 3586POPC   C4B46762  30.311  40.355   7.356
 3587POPC   NC346763  32.558  31.784   5.397
 3587POPC   PO446764  31.982  31.340   5.434
 3587POPC   GL146765  32.223  31.346   5.775
 3587POPC   GL246766  32.517  31.241   5.605
 3587POPC   C1A46767  32.230  31.462   6.248
 3587POPC   D2A46768  32.345  31.677   6.650
 3587POPC   C3A46769  32.195  31.607   7.086
 3587POPC   C4A46770  32.017  31.621   7.509
 3587POPC   C1B46771  32.664  31.320   6.017
 3587POPC   C2B46772  32.683  31.321   6.464
 3587POPC   C3B46773  32.484  31.221   6.860
 3587POPC   C4B46774  32.593  31.310   7.254
 3588POPC   NC346775  15.538   6.978   5.505
 3588POPC   PO446776  15.846   6.462   5.312
 3588POPC   GL146777  15.948   6.376   5.727
 3588POPC   GL246778  15.709   6.595   5.862
 3588POPC   C1A46779  15.995   6.345   6.193
 3588POPC   D2A46780  16.008   6.510   6.608
 3588POPC   C3A46781  15.765   6.348   6.927
 3588POPC   C4A46782  15.902   6.310   7.324
 3588POPC   C1B46783  15.556   6.626   6.297
 3588POPC   C2B46784  15.609   6.814   6.695
 3588POPC   C3B46785  15.430   6.763   7.037
 3588POPC   C4B46786  15.606   6.701   7.410
 3589POPC   NC346787  34.069   2.493   5.449
 3589POPC   PO446788  33.722   3.041   5.350
 3589POPC   GL146789  33.596   2.855   5.813
 3589POPC   GL246790  33.795   2.553   5.871
 3589POPC   C1A46791  33.443   2.625   6.213
 3589POPC   D2A46792  33.523   2.450   6.630
 3589POPC   C3A46793  33.679   2.762   6.864
 3589POPC   C4A46794  33.760   2.814   7.239
 3589POPC   C1B46795  34.116   2.380   6.170
 3589POPC   C2B46796  34.031   2.494   6.598
 3589POPC   C3B46797  34.047   2.408   7.046
 3589POPC   C4B46798  34.072   2.533   7.512
 3590POPC   NC346799  16.928  33.529   5.639
 3590POPC   PO446800  16.750  33.121   5.188
 3590POPC   GL146801  16.912  32.995   5.647
 3590POPC   GL246802  16.729  33.150   5.959
 3590POPC   C1A46803  17.024  32.785   6.088
 3590POPC   D2A46804  16.795  32.971   6.462
 3590POPC   C3A46805  16.757  32.898   6.911
 3590POPC   C4A46806  16.447  32.936   7.250
 3590POPC   C1B46807  16.759  33.499   6.265
 3590POPC   C2B46808  16.647  33.577   6.662
 3590POPC   C3B46809  16.559  33.379   7.012
 3590POPC   C4B46810  16.875  33.233   7.293
 3591POPC   NC346811  11.730  26.250   5.427
 3591POPC   PO446812  12.403  26.021   5.395
 3591POPC   GL146813  12.047  25.985   5.714
 3591POPC   GL246814  12.215  26.030   6.009
 3591POPC   C1A46815  11.764  26.142   6.102
 3591POPC   D2A46816  12.062  26.183   6.479
 3591POPC   C3A46817  11.978  26.119   6.906
 3591POPC   C4A46818  11.858  25.942   7.300
 3591POPC   C1B46819  12.334  25.765   6.330
 3591POPC   C2B46820  12.457  25.845   6.742
 3591POPC   C3B46821  12.338  25.763   7.142
 3591POPC   C4B46822  12.265  25.831   7.572
 3592POPC   NC346823   0.073  14.563   5.371
 3592POPC   PO446824   0.395  13.975   5.473
 3592POPC   GL146825   0.408  14.372   5.727
 3592POPC   GL246826   0.259  14.154   5.948
 3592POPC   C1A46827   0.357  14.561   6.202
 3592POPC   D2A46828   0.318  14.190   6.516
 3592POPC   C3A46829   0.278  14.323   6.929
 3592POPC   C4A46830   0.275  14.738   7.119
 3592POPC   C1B46831   0.684  14.199   6.162
 3592POPC   C2B46832   0.865  14.288   6.541
 3592POPC   C3B46833   0.780  14.522   6.902
 3592POPC   C4B46834   0.681  14.303   7.242
 3593POPC   NC346835  28.293   2.185   5.385
 3593POPC   PO446836  28.557   1.649   5.437
 3593POPC   GL146837  28.255   1.824   5.801
 3593POPC   GL246838  28.045   2.136   5.860
 3593POPC   C1A46839  28.247   1.928   6.257
 3593POPC   D2A46840  28.327   2.139   6.609
 3593POPC   C3A46841  28.453   1.907   6.960
 3593POPC   C4A46842  28.472   2.003   7.389
 3593POPC   C1B46843  28.026   2.418   6.246
 3593POPC   C2B46844  28.046   2.553   6.700
 3593POPC   C3B46845  28.084   2.256   7.062
 3593POPC   C4B46846  27.988   1.847   7.219
 3594POPC   NC346847  39.183  15.027   5.463
 3594POPC   PO446848  39.532  15.547   5.699
 3594POPC   GL146849  39.308  15.242   5.959
 3594POPC   GL246850  38.960  15.191   5.908
 3594POPC   C1A46851  39.275  15.245   6.407
 3594POPC   D2A46852  39.488  15.545   6.709
 3594POPC   C3A46853  39.521  15.395   7.123
 3594POPC   C4A46854  39.463  14.941   7.250
 3594POPC   C1B46855  38.894  14.841   6.205
 3594POPC   C2B46856  38.996  14.772   6.647
 3594POPC   C3B46857  39.144  15.134   6.897
 3594POPC   C4B46858  39.044  15.283   7.316
 3595POPC   NC346859  44.120  25.575   5.385
 3595POPC   PO446860  44.658  25.161   5.444
 3595POPC   GL146861  44.642  25.221   5.865
 3595POPC   GL246862  44.362  25.044   5.924
 3595POPC   C1A46863  44.730  25.174   6.295
 3595POPC   D2A46864  44.792  25.591   6.458
 3595POPC   C3A46865  44.951  25.628   6.883
 3595POPC   C4A46866  44.880  25.313   7.185
 3595POPC   C1B46867  44.228  25.289   6.280
 3595POPC   C2B46868  44.303  25.124   6.679
 3595POPC   C3B46869  44.393  25.167   7.111
 3595POPC   C4B46870  44.123  25.295   7.378
 3596POPC   NC346871  16.276  24.824   5.446
 3596POPC   PO446872  16.375  24.203   5.265
 3596POPC   GL146873  16.059  24.364   5.650
 3596POPC   GL246874  16.118  24.679   5.895
 3596POPC   C1A46875  15.889  24.283   6.112
 3596POPC   D2A46876  15.945  24.206   6.582
 3596POPC   C3A46877  15.909  24.510   6.951
 3596POPC   C4A46878  15.850  24.546   7.425
 3596POPC   C1B46879  16.038  24.795   6.333
 3596POPC   C2B46880  16.285  24.783   6.708
 3596POPC   C3B46881  16.285  24.856   7.159
 3596POPC   C4B46882  16.231  24.958   7.583
 3597POPC   NC346883  14.778  18.309   5.160
 3597POPC   PO446884  14.228  18.583   5.295
 3597POPC   GL146885  14.357  18.657   5.752
 3597POPC   GL246886  14.498  18.334   5.821
 3597POPC   C1A46887  14.235  18.578   6.252
 3597POPC   D2A46888  14.106  18.626   6.748
 3597POPC   C3A46889  14.389  18.447   7.106
 3597POPC   C4A46890  14.519  18.212   7.500
 3597POPC   C1B46891  14.531  18.159   6.255
 3597POPC   C2B46892  14.636  18.215   6.701
 3597POPC   C3B46893  14.683  17.989   7.088
 3597POPC   C4B46894  14.552  17.693   7.457
 3598POPC   NC346895  27.628  39.515   5.229
 3598POPC   PO446896  27.757  39.030   5.689
 3598POPC   GL146897  27.934  39.305   5.998
 3598POPC   GL246898  27.757  39.603   5.937
 3598POPC   C1A46899  27.912  39.350   6.484
 3598POPC   D2A46900  27.636  39.296   6.864
 3598POPC   C3A46901  27.799  39.382   7.296
 3598POPC   C4A46902  27.750  39.297   7.753
 3598POPC   C1B46903  27.434  39.459   6.297
 3598POPC   C2B46904  27.126  39.446   6.685
 3598POPC   C3B46905  27.033  39.259   7.087
 3598POPC   C4B46906  27.328  39.257   7.431
 3599POPC   NC346907  14.518  31.937   5.382
 3599POPC   PO446908  14.345  31.286   5.303
 3599POPC   GL146909  14.227  31.321   5.765
 3599POPC   GL246910  14.274  31.650   5.817
 3599POPC   C1A46911  14.296  31.345   6.252
 3599POPC   D2A46912  14.435  31.087   6.630
 3599POPC   C3A46913  14.397  31.269   7.058
 3599POPC   C4A46914  14.496  31.655   7.292
 3599POPC   C1B46915  13.958  31.738   6.127
 3599POPC   C2B46916  13.909  31.828   6.563
 3599POPC   C3B46917  14.116  31.682   6.935
 3599POPC   C4B46918  13.971  31.542   7.356
 3600POPC   NC346919  24.005  11.735   5.273
 3600POPC   PO446920  23.735  11.119   5.486
 3600POPC   GL146921  23.664  11.256   5.860
 3600POPC   GL246922  23.897  11.541   5.788
 3600POPC   C1A46923  23.659  11.036   6.257
 3600POPC   D2A46924  23.656  11.281   6.615
 3600POPC   C3A46925  23.827  11.112   6.970
 3600POPC   C4A46926  23.734  11.263   7.366
 3600POPC   C1B46927  24.063  11.350   6.207
 3600POPC   C2B46928  24.147  11.422   6.664
 3600POPC   C3B46929  23.925  11.614   6.999
 3600POPC   C4B46930  23.997  11.707   7.414
 3601POPC   NC346931  18.622  13.829   5.473
 3601POPC   PO446932  18.018  13.626   5.435
 3601POPC   GL146933  18.118  13.726   5.858
 3601POPC   GL246934  18.382  13.495   5.823
 3601POPC   C1A46935  18.021  13.730   6.318
 3601POPC   D2A46936  18.303  13.860   6.665
 3601POPC   C3A46937  18.172  13.726   7.063
 3601POPC   C4A46938  17.883  13.591   7.359
 3601POPC   C1B46939  18.532  13.684   6.205
 3601POPC   C2B46940  18.681  13.549   6.606
 3601POPC   C3B46941  18.553  13.412   7.011
 3601POPC   C4B46942  18.375  13.374   7.420
 3602POPC   NC346943  17.812   0.424   5.160
 3602POPC   PO446944  18.492   0.498   5.307
 3602POPC   GL146945  18.441   0.582   5.785
 3602POPC   GL246946  18.311   0.262   5.926
 3602POPC   C1A46947  18.376   0.668   6.255
 3602POPC   D2A46948  18.430   0.886   6.675
 3602POPC   C3A46949  18.463   0.642   7.076
 3602POPC   C4A46950  18.219   0.614   7.500
 3602POPC   C1B46951  18.531   0.159   6.287
 3602POPC   C2B46952  18.591   0.227   6.729
 3602POPC   C3B46953  18.330   0.156   7.103
 3602POPC   C4B46954  18.504   0.192   7.520
 3603POPC   NC346955  17.146  17.246   5.574
 3603POPC   PO446956  17.725  17.640   5.393
 3603POPC   GL146957  17.581  17.470   5.761
 3603POPC   GL246958  17.333  17.713   5.834
 3603POPC   C1A46959  17.449  17.339   6.172
 3603POPC   D2A46960  17.339  17.496   6.563
 3603POPC   C3A46961  17.593  17.295   6.869
 3603POPC   C4A46962  17.683  17.311   7.295
 3603POPC   C1B46963  17.698  17.776   6.160
 3603POPC   C2B46964  17.697  17.860   6.610
 3603POPC   C3B46965  17.475  17.784   7.010
 3603POPC   C4B46966  17.692  17.844   7.400
 3604POPC   NC346967  31.931  17.642   5.340
 3604POPC   PO446968  32.039  17.045   5.557
 3604POPC   GL146969  32.112  17.380   5.801
 3604POPC   GL246970  32.270  17.689   5.746
 3604POPC   C1A46971  32.213  17.367   6.219
 3604POPC   D2A46972  32.440  17.252   6.568
 3604POPC   C3A46973  32.197  17.282   6.893
 3604POPC   C4A46974  32.247  17.305   7.319
 3604POPC   C1B46975  32.268  17.878   6.149
 3604POPC   C2B46976  32.255  17.747   6.589
 3604POPC   C3B46977  32.242  17.777   7.025
 3604POPC   C4B46978  31.949  17.793   7.313
 3605POPC   NC346979  36.799  11.067   5.408
 3605POPC   PO446980  36.609  11.782   5.361
 3605POPC   GL146981  36.790  11.530   5.697
 3605POPC   GL246982  36.513  11.316   5.786
 3605POPC   C1A46983  36.934  11.289   6.073
 3605POPC   D2A46984  36.861  11.377   6.516
 3605POPC   C3A46985  37.218  11.488   6.800
 3605POPC   C4A46986  37.213  11.791   7.144
 3605POPC   C1B46987  36.486  10.985   6.121
 3605POPC   C2B46988  36.558  10.951   6.565
 3605POPC   C3B46989  36.661  11.172   6.961
 3605POPC   C4B46990  37.002  11.314   7.256
 3606POPC   NC346991   4.220  10.450   5.226
 3606POPC   PO446992   4.802  10.264   5.560
 3606POPC   GL146993   4.482  10.515   5.724
 3606POPC   GL246994   4.126  10.472   5.740
 3606POPC   C1A46995   4.432  10.761   6.126
 3606POPC   D2A46996   4.244  10.738   6.544
 3606POPC   C3A46997   4.477  10.741   6.936
 3606POPC   C4A46998   4.263  10.687   7.323
 3606POPC   C1B46999   4.296  10.281   6.129
 3606POPC   C2B47000   4.104  10.225   6.529
 3606POPC   C3B47001   4.223  10.298   6.936
 3606POPC   C4B47002   4.116  10.169   7.323
 3607POPC   NC347003  35.146  37.849   5.397
 3607POPC   PO447004  35.585  37.347   5.449
 3607POPC   GL147005  35.327  37.515   5.750
 3607POPC   GL247006  35.510  37.819   5.847
 3607POPC   C1A47007  35.281  37.535   6.196
 3607POPC   D2A47008  35.247  37.764   6.573
 3607POPC   C3A47009  35.258  37.490   6.927
 3607POPC   C4A47010  35.370  37.555   7.328
 3607POPC   C1B47011  35.620  38.120   6.197
 3607POPC   C2B47012  35.508  38.215   6.635
 3607POPC   C3B47013  35.421  37.997   7.031
 3607POPC   C4B47014  35.563  37.974   7.493
 3608POPC   NC347015   4.550   8.815   5.424
 3608POPC   PO447016   4.072   9.210   5.408
 3608POPC   GL147017   4.284   9.066   5.764
 3608POPC   GL247018   4.109   8.774   5.856
 3608POPC   C1A47019   4.502   8.934   6.144
 3608POPC   D2A47020   4.300   8.867   6.537
 3608POPC   C3A47021   4.558   8.705   6.860
 3608POPC   C4A47022   4.582   8.816   7.295
 3608POPC   C1B47023   4.097   8.504   6.226
 3608POPC   C2B47024   4.133   8.393   6.685
 3608POPC   C3B47025   4.047   8.728   6.996
 3608POPC   C4B47026   4.077   8.996   7.347
 3609POPC   NC347027  26.247  30.006   5.494
 3609POPC   PO447028  25.923  29.422   5.542
 3609POPC   GL147029  25.915  29.787   5.892
 3609POPC   GL247030  25.976  30.161   5.889
 3609POPC   C1A47031  25.967  29.937   6.346
 3609POPC   D2A47032  25.912  30.121   6.739
 3609POPC   C3A47033  25.973  29.902   7.123
 3609POPC   C4A47034  26.252  29.586   7.262
 3609POPC   C1B47035  26.240  30.345   6.231
 3609POPC   C2B47036  26.330  30.411   6.685
 3609POPC   C3B47037  26.137  30.410   7.120
 3609POPC   C4B47038  25.748  30.261   7.406
 3610POPC   NC347039  42.806  23.628   5.535
 3610POPC   PO447040  43.461  23.612   5.607
 3610POPC   GL147041  43.261  23.451   5.951
 3610POPC   GL247042  43.015  23.207   5.826
 3610POPC   C1A47043  43.093  23.691   6.310
 3610POPC   D2A47044  42.995  23.983   6.643
 3610POPC   C3A47045  43.102  23.915   7.029
 3610POPC   C4A47046  43.019  23.762   7.388
 3610POPC   C1B47047  42.970  23.186   6.282
 3610POPC   C2B47048  42.945  23.377   6.688
 3610POPC   C3B47049  43.014  23.343   7.098
 3610POPC   C4B47050  42.952  23.281   7.542
 3611POPC   NC347051  30.854  34.631   5.260
 3611POPC   PO447052  30.423  34.188   5.439
 3611POPC   GL147053  30.798  34.320   5.731
 3611POPC   GL247054  30.792  34.684   5.815
 3611POPC   C1A47055  30.795  34.349   6.212
 3611POPC   D2A47056  30.697  34.183   6.627
 3611POPC   C3A47057  30.987  34.337   6.938
 3611POPC   C4A47058  30.930  34.326   7.359
 3611POPC   C1B47059  30.624  34.828   6.239
 3611POPC   C2B47060  30.694  34.705   6.684
 3611POPC   C3B47061  30.518  34.675   7.100
 3611POPC   C4B47062  30.287  34.897   7.441
 3612POPC   NC347063   1.900  34.156   5.235
 3612POPC   PO447064   2.362  33.727   5.391
 3612POPC   GL147065   2.155  33.689   5.756
 3612POPC   GL247066   1.877  33.862   5.664
 3612POPC   C1A47067   2.136  33.565   6.179
 3612POPC   D2A47068   1.892  33.576   6.565
 3612POPC   C3A47069   2.128  33.513   6.932
 3612POPC   C4A47070   1.902  33.582   7.307
 3612POPC   C1B47071   1.951  34.043   6.074
 3612POPC   C2B47072   2.105  34.031   6.493
 3612POPC   C3B47073   1.974  34.020   6.927
 3612POPC   C4B47074   2.197  34.198   7.253
 3613POPC   NC347075  38.455  26.259   5.249
 3613POPC   PO447076  38.117  25.682   5.404
 3613POPC   GL147077  38.381  25.907   5.739
 3613POPC   GL247078  38.623  26.185   5.737
 3613POPC   C1A47079  38.445  25.965   6.195
 3613POPC   D2A47080  38.483  25.758   6.597
 3613POPC   C3A47081  38.453  26.039   6.892
 3613POPC   C4A47082  38.358  25.970   7.278
 3613POPC   C1B47083  38.787  26.372   6.140
 3613POPC   C2B47084  38.696  26.401   6.598
 3613POPC   C3B47085  38.738  26.524   7.045
 3613POPC   C4B47086  38.571  26.419   7.475
 3614POPC   NC347087  37.419  43.541   5.536
 3614POPC   PO447088  37.979  43.230   5.417
 3614POPC   GL147089  37.844  43.338   5.828
 3614POPC   GL247090  37.543  43.199   5.908
 3614POPC   C1A47091  37.821  43.294   6.303
 3614POPC   D2A47092  37.783  42.999   6.663
 3614POPC   C3A47093  37.894  43.107   7.061
 3614POPC   C4A47094  37.675  43.207   7.456
 3614POPC   C1B47095  37.356  42.977   6.237
 3614POPC   C2B47096  37.274  43.110   6.610
 3614POPC   C3B47097  37.394  43.005   7.013
 3614POPC   C4B47098  37.236  42.949   7.399
 3615POPC   NC347099  14.110   0.121   5.508
 3615POPC   PO447100  14.244   0.771   5.332
 3615POPC   GL147101  14.237   0.644   5.763
 3615POPC   GL247102  14.443   0.337   5.841
 3615POPC   C1A47103  14.459   0.737   6.139
 3615POPC   D2A47104  14.585   0.481   6.451
 3615POPC   C3A47105  14.330   0.559   6.793
 3615POPC   C4A47106  14.218   0.599   7.216
 3615POPC   C1B47107  14.142   0.322   6.212
 3615POPC   C2B47108  14.203   0.090   6.607
 3615POPC   C3B47109  14.202   0.094   7.058
 3615POPC   C4B47110  14.187   0.087   7.520
 3616POPC   NC347111  41.018   4.284   5.416
 3616POPC   PO447112  40.472   4.454   5.645
 3616POPC   GL147113  40.658   4.502   5.984
 3616POPC   GL247114  40.972   4.489   5.881
 3616POPC   C1A47115  40.576   4.350   6.385
 3616POPC   D2A47116  40.780   4.277   6.760
 3616POPC   C3A47117  40.551   4.358   7.142
 3616POPC   C4A47118  40.599   4.460   7.590
 3616POPC   C1B47119  41.053   4.213   6.217
 3616POPC   C2B47120  41.356   4.174   6.554
 3616POPC   C3B47121  41.230   4.206   6.987
 3616POPC   C4B47122  41.066   4.496   7.292
 3617POPC   NC347123  15.756  27.930   5.386
 3617POPC   PO447124  16.329  27.545   5.348
 3617POPC   GL147125  15.987  27.409   5.641
 3617POPC   GL247126  16.099  27.098   5.801
 3617POPC   C1A47127  15.664  27.435   5.940
 3617POPC   D2A47128  15.652  27.464   6.387
 3617POPC   C3A47129  15.591  27.624   6.797
 3617POPC   C4A47130  15.835  27.710   7.168
 3617POPC   C1B47131  16.110  27.374   6.189
 3617POPC   C2B47132  16.094  27.503   6.644
 3617POPC   C3B47133  16.289  27.465   7.047
 3617POPC   C4B47134  16.422  27.524   7.469
 3618POPC   NC347135  24.067   1.244   5.348
 3618POPC   PO447136  24.711   0.949   5.393
 3618POPC   GL147137  24.540   1.057   5.749
 3618POPC   GL247138  24.207   0.880   5.692
 3618POPC   C1A47139  24.570   1.240   6.168
 3618POPC   D2A47140  24.335   1.289   6.548
 3618POPC   C3A47141  24.547   1.314   6.958
 3618POPC   C4A47142  24.687   1.226   7.382
 3618POPC   C1B47143  24.133   0.944   6.087
 3618POPC   C2B47144  24.233   0.806   6.446
 3618POPC   C3B47145  24.197   0.913   6.860
 3618POPC   C4B47146  24.221   1.007   7.289
 3619POPC   NC347147  34.091  35.530   5.437
 3619POPC   PO447148  33.451  35.511   5.452
 3619POPC   GL147149  33.682  35.453   5.858
 3619POPC   GL247150  34.038  35.565   5.947
 3619POPC   C1A47151  33.592  35.513   6.297
 3619POPC   D2A47152  33.546  35.784   6.646
 3619POPC   C3A47153  33.582  35.588   6.996
 3619POPC   C4A47154  33.918  35.488   7.177
 3619POPC   C1B47155  34.036  35.265   6.298
 3619POPC   C2B47156  33.824  35.227   6.702
 3619POPC   C3B47157  34.024  35.003   7.035
 3619POPC   C4B47158  34.031  35.078   7.470
 3620POPC   NC347159  39.730  14.465   5.314
 3620POPC   PO447160  39.047  14.582   5.406
 3620POPC   GL147161  39.349  14.485   5.742
 3620POPC   GL247162  39.446  14.132   5.716
 3620POPC   C1A47163  39.254  14.458   6.209
 3620POPC   D2A47164  38.952  14.281   6.501
 3620POPC   C3A47165  39.108  14.335   6.945
 3620POPC   C4A47166  38.997  14.707   7.164
 3620POPC   C1B47167  39.691  14.229   6.095
 3620POPC   C2B47168  39.738  14.273   6.517
 3620POPC   C3B47169  39.765  14.086   6.917
 3620POPC   C4B47170  39.461  14.032   7.215
 3621POPC   NC347171  40.923  29.673   5.469
 3621POPC   PO447172  40.475  29.085   5.488
 3621POPC   GL147173  40.657  29.305   5.805
 3621POPC   GL247174  40.928  29.098   5.870
 3621POPC   C1A47175  40.549  29.202   6.257
 3621POPC   D2A47176  40.805  29.166   6.644
 3621POPC   C3A47177  40.648  29.315   7.063
 3621POPC   C4A47178  40.608  29.113   7.518
 3621POPC   C1B47179  41.025  29.363   6.180
 3621POPC   C2B47180  41.109  29.589   6.528
 3621POPC   C3B47181  41.152  29.460   6.952
 3621POPC   C4B47182  41.064  29.226   7.347
 3622POPC   NC347183   6.532  42.685   5.543
 3622POPC   PO447184   6.762  43.342   5.504
 3622POPC   GL147185   6.505  43.143   5.811
 3622POPC   GL247186   6.484  43.443   5.968
 3622POPC   C1A47187   6.487  42.978   6.263
 3622POPC   D2A47188   6.447  43.174   6.682
 3622POPC   C3A47189   6.467  42.940   7.088
 3622POPC   C4A47190   6.362  43.061   7.551
 3622POPC   C1B47191   6.890  43.273   6.142
 3622POPC   C2B47192   7.014  43.088   6.554
 3622POPC   C3B47193   6.884  43.224   6.990
 3622POPC   C4B47194   6.846  43.207   7.479
 3623POPC   NC347195  28.932  20.819   5.028
 3623POPC   PO447196  28.231  20.692   5.287
 3623POPC   GL147197  28.365  20.741   5.716
 3623POPC   GL247198  28.043  20.631   5.823
 3623POPC   C1A47199  28.287  20.940   6.154
 3623POPC   D2A47200  28.069  20.980   6.563
 3623POPC   C3A47201  28.248  20.809   6.974
 3623POPC   C4A47202  28.616  20.950   7.240
 3623POPC   C1B47203  28.051  20.412   6.245
 3623POPC   C2B47204  27.915  20.483   6.680
 3623POPC   C3B47205  27.914  20.411   7.152
 3623POPC   C4B47206  28.093  20.586   7.541
 3624POPC   NC347207   6.161   6.546   5.678
 3624POPC   PO447208   5.643   7.018   5.496
 3624POPC   GL147209   5.739   6.809   5.873
 3624POPC   GL247210   5.667   6.442   5.818
 3624POPC   C1A47211   5.983   6.741   6.265
 3624POPC   D2A47212   6.015   6.395   6.522
 3624POPC   C3A47213   5.953   6.572   6.889
 3624POPC   C4A47214   6.095   6.505   7.223
 3624POPC   C1B47215   5.486   6.538   6.227
 3624POPC   C2B47216   5.540   6.693   6.632
 3624POPC   C3B47217   5.552   6.827   7.038
 3624POPC   C4B47218   5.568   6.461   7.278
 3625POPC   NC347219   0.923   3.581   5.549
 3625POPC   PO447220   1.528   3.330   5.504
 3625POPC   GL147221   1.346   3.478   5.858
 3625POPC   GL247222   1.415   3.820   5.847
 3625POPC   C1A47223   1.015   3.442   6.166
 3625POPC   D2A47224   1.079   3.353   6.584
 3625POPC   C3A47225   0.956   3.625   6.928
 3625POPC   C4A47226   0.949   3.466   7.364
 3625POPC   C1B47227   1.402   3.715   6.322
 3625POPC   C2B47228   1.432   3.667   6.755
 3625POPC   C3B47229   1.414   3.668   7.199
 3625POPC   C4B47230   1.355   3.679   7.640
 3626POPC   NC347231  30.875   3.103   5.350
 3626POPC   PO447232  30.669   2.474   5.441
 3626POPC   GL147233  30.561   2.668   5.842
 3626POPC   GL247234  30.864   2.550   5.940
 3626POPC   C1A47235  30.569   2.667   6.326
 3626POPC   D2A47236  30.372   2.835   6.677
 3626POPC   C3A47237  30.458   2.712   7.106
 3626POPC   C4A47238  30.458   2.764   7.586
 3626POPC   C1B47239  30.879   3.009   6.096
 3626POPC   C2B47240  30.864   3.055   6.551
 3626POPC   C3B47241  30.906   2.718   6.865
 3626POPC   C4B47242  30.941   2.603   7.304
 3627POPC   NC347243  41.921   6.418   5.435
 3627POPC   PO447244  42.312   7.034   5.440
 3627POPC   GL147245  42.278   6.676   5.782
 3627POPC   GL247246  42.067   6.387   5.910
 3627POPC   C1A47247  42.455   6.588   6.207
 3627POPC   D2A47248  42.519   6.336   6.588
 3627POPC   C3A47249  42.584   6.490   6.963
 3627POPC   C4A47250  42.364   6.487   7.329
 3627POPC   C1B47251  42.037   6.319   6.364
 3627POPC   C2B47252  42.070   6.500   6.807
 3627POPC   C3B47253  42.042   6.832   7.124
 3627POPC   C4B47254  42.046   6.764   7.597
 3628POPC   NC347255   6.126  18.897   5.539
 3628POPC   PO447256   5.409  18.851   5.566
 3628POPC   GL147257   5.739  18.945   5.891
 3628POPC   GL247258   5.894  19.293   5.820
 3628POPC   C1A47259   5.712  19.141   6.313
 3628POPC   D2A47260   5.695  19.046   6.765
 3628POPC   C3A47261   5.698  19.320   7.130
 3628POPC   C4A47262   6.008  19.348   7.452
 3628POPC   C1B47263   6.202  19.228   6.162
 3628POPC   C2B47264   6.185  19.014   6.550
 3628POPC   C3B47265   6.173  19.144   6.978
 3628POPC   C4B47266   6.328  18.953   7.338
 3629POPC   NC347267  28.103  34.478   5.410
 3629POPC   PO447268  28.736  34.404   5.514
 3629POPC   GL147269  28.471  34.509   5.832
 3629POPC   GL247270  28.194  34.751   5.834
 3629POPC   C1A47271  28.339  34.463   6.252
 3629POPC   D2A47272  28.201  34.548   6.663
 3629POPC   C3A47273  28.520  34.416   6.933
 3629POPC   C4A47274  28.541  34.269   7.326
 3629POPC   C1B47275  28.428  34.964   6.169
 3629POPC   C2B47276  28.435  35.125   6.591
 3629POPC   C3B47277  28.515  34.912   6.956
 3629POPC   C4B47278  28.208  34.718   7.199
 3630POPC   NC347279  30.042  33.076   5.501
 3630POPC   PO447280  29.442  32.996   5.655
 3630POPC   GL147281  29.766  33.154   5.982
 3630POPC   GL247282  30.043  33.407   5.882
 3630POPC   C1A47283  29.872  33.053   6.461
 3630POPC   D2A47284  29.841  32.736   6.817
 3630POPC   C3A47285  30.035  32.751   7.243
 3630POPC   C4A47286  29.807  32.885   7.627
 3630POPC   C1B47287  29.910  33.543   6.307
 3630POPC   C2B47288  29.818  33.487   6.753
 3630POPC   C3B47289  29.952  33.236   7.110
 3630POPC   C4B47290  30.082  33.316   7.585
 3631POPC   NC347291  36.793   3.780   5.562
 3631POPC   PO447292  36.614   3.080   5.413
 3631POPC   GL147293  36.646   3.319   5.783
 3631POPC   GL247294  36.468   3.113   5.999
 3631POPC   C1A47295  36.606   3.553   6.217
 3631POPC   D2A47296  36.594   3.497   6.659
 3631POPC   C3A47297  36.884   3.741   6.874
 3631POPC   C4A47298  36.804   3.728   7.275
 3631POPC   C1B47299  36.859   3.082   6.226
 3631POPC   C2B47300  37.061   3.265   6.587
 3631POPC   C3B47301  36.955   3.246   7.016
 3631POPC   C4B47302  37.174   3.375   7.360
 3632POPC   NC347303   7.225  35.373   5.418
 3632POPC   PO447304   6.504  35.404   5.394
 3632POPC   GL147305   6.568  35.436   5.811
 3632POPC   GL247306   6.869  35.250   5.858
 3632POPC   C1A47307   6.682  35.617   6.203
 3632POPC   D2A47308   6.831  35.374   6.539
 3632POPC   C3A47309   6.657  35.528   6.922
 3632POPC   C4A47310   6.518  35.371   7.329
 3632POPC   C1B47311   6.987  34.904   6.164
 3632POPC   C2B47312   7.146  34.962   6.595
 3632POPC   C3B47313   6.873  35.068   6.978
 3632POPC   C4B47314   6.855  34.990   7.427
 3633POPC   NC347315  39.786  31.518   5.271
 3633POPC   PO447316  40.461  31.550   5.345
 3633POPC   GL147317  40.207  31.613   5.736
 3633POPC   GL247318  39.858  31.506   5.772
 3633POPC   C1A47319  40.201  31.743   6.180
 3633POPC   D2A47320  40.167  31.536   6.583
 3633POPC   C3A47321  40.352  31.661   6.965
 3633POPC   C4A47322  40.060  31.683   7.275
 3633POPC   C1B47323  39.751  31.469   6.201
 3633POPC   C2B47324  39.616  31.368   6.612
 3633POPC   C3B47325  39.830  31.309   6.994
 3633POPC   C4B47326  39.765  31.303   7.433
 3634POPC   NC347327  42.076   8.278   5.420
 3634POPC   PO447328  42.704   8.476   5.546
 3634POPC   GL147329  42.419   8.199   5.827
 3634POPC   GL247330  42.123   7.981   5.831
 3634POPC   C1A47331  42.238   8.257   6.252
 3634POPC   D2A47332  42.290   8.491   6.635
 3634POPC   C3A47333  42.239   8.277   7.000
 3634POPC   C4A47334  42.495   8.184   7.351
 3634POPC   C1B47335  42.034   7.788   6.216
 3634POPC   C2B47336  42.201   7.889   6.628
 3634POPC   C3B47337  42.031   7.803   7.027
 3634POPC   C4B47338  41.958   8.058   7.394
 3635POPC   NC347339  43.132  34.762   5.481
 3635POPC   PO447340  43.170  34.134   5.208
 3635POPC   GL147341  43.122  34.335   5.738
 3635POPC   GL247342  43.389  34.235   5.988
 3635POPC   C1A47343  43.022  34.570   6.151
 3635POPC   D2A47344  42.848  34.713   6.571
 3635POPC   C3A47345  43.031  34.641   6.972
 3635POPC   C4A47346  43.357  34.885   7.175
 3635POPC   C1B47347  43.346  34.228   6.413
 3635POPC   C2B47348  43.397  34.285   6.852
 3635POPC   C3B47349  43.344  34.261   7.280
 3635POPC   C4B47350  43.301  34.245   7.696
 3636POPC   NC347351  41.012  38.742   5.186
 3636POPC   PO447352  40.485  38.308   5.363
 3636POPC   GL147353  40.601  38.230   5.824
 3636POPC   GL247354  40.908  38.314   5.958
 3636POPC   C1A47355  40.534  38.397   6.267
 3636POPC   D2A47356  40.444  38.285   6.702
 3636POPC   C3A47357  40.703  38.541   6.941
 3636POPC   C4A47358  40.694  38.713   7.340
 3636POPC   C1B47359  41.196  38.087   6.231
 3636POPC   C2B47360  41.360  37.932   6.605
 3636POPC   C3B47361  41.130  38.199   6.882
 3636POPC   C4B47362  41.027  38.332   7.262
 3637POPC   NC347363  41.676  14.052   5.464
 3637POPC   PO447364  41.445  14.677   5.344
 3637POPC   GL147365  41.567  14.486   5.729
 3637POPC   GL247366  41.313  14.314   5.903
 3637POPC   C1A47367  41.848  14.331   6.066
 3637POPC   D2A47368  41.952  14.356   6.487
 3637POPC   C3A47369  41.659  14.283   6.822
 3637POPC   C4A47370  41.739  14.304   7.275
 3637POPC   C1B47371  41.410  14.569   6.297
 3637POPC   C2B47372  41.290  14.693   6.726
 3637POPC   C3B47373  41.248  14.451   7.096
 3637POPC   C4B47374  41.332  14.442   7.536
 3638POPC   NC347375  27.834  17.807   5.470
 3638POPC   PO447376  27.606  17.143   5.508
 3638POPC   GL147377  27.699  17.439   5.829
 3638POPC   GL247378  27.468  17.731   5.847
 3638POPC   C1A47379  27.728  17.486   6.275
 3638POPC   D2A47380  27.682  17.272   6.673
 3638POPC   C3A47381  27.623  17.493   7.052
 3638POPC   C4A47382  27.671  17.793   7.378
 3638POPC   C1B47383  27.211  17.770   6.224
 3638POPC   C2B47384  27.360  17.709   6.635
 3638POPC   C3B47385  27.145  17.707   7.008
 3638POPC   C4B47386  27.226  17.505   7.383
 3639POPC   NC347387  17.238   1.309   5.505
 3639POPC   PO447388  17.653   0.798   5.374
 3639POPC   GL147389  17.518   0.979   5.821
 3639POPC   GL247390  17.768   1.258   5.903
 3639POPC   C1A47391  17.595   1.024   6.319
 3639POPC   D2A47392  17.723   1.436   6.576
 3639POPC   C3A47393  17.733   1.385   7.024
 3639POPC   C4A47394  17.562   0.974   7.142
 3639POPC   C1B47395  17.424   1.481   6.149
 3639POPC   C2B47396  17.196   1.314   6.508
 3639POPC   C3B47397  17.234   1.470   6.933
 3639POPC   C4B47398  17.263   1.386   7.357
 3640POPC   NC347399  29.191  39.443   5.134
 3640POPC   PO447400  28.714  39.097   5.409
 3640POPC   GL147401  28.981  39.267   5.734
 3640POPC   GL247402  29.348  39.204   5.818
 3640POPC   C1A47403  28.921  39.251   6.179
 3640POPC   D2A47404  29.117  39.088   6.557
 3640POPC   C3A47405  28.893  39.153   6.929
 3640POPC   C4A47406  28.684  39.368   7.276
 3640POPC   C1B47407  29.384  39.435   6.220
 3640POPC   C2B47408  29.401  39.673   6.601
 3640POPC   C3B47409  29.473  39.697   7.036
 3640POPC   C4B47410  29.246  39.360   7.225
 3641POPC   NC347411  18.890  32.384   5.698
 3641POPC   PO447412  18.935  31.862   5.289
 3641POPC   GL147413  19.119  31.865   5.737
 3641POPC   GL247414  18.775  31.886   5.811
 3641POPC   C1A47415  19.198  32.074   6.188
 3641POPC   D2A47416  19.052  32.405   6.516
 3641POPC   C3A47417  19.239  32.418   6.964
 3641POPC   C4A47418  19.214  32.571   7.399
 3641POPC   C1B47419  18.572  31.979   6.174
 3641POPC   C2B47420  18.607  31.915   6.597
 3641POPC   C3B47421  18.857  32.083   6.877
 3641POPC   C4B47422  18.889  32.173   7.266
 3642POPC   NC347423   7.682  24.401   5.453
 3642POPC   PO447424   7.110  24.738   5.471
 3642POPC   GL147425   7.258  24.451   5.837
 3642POPC   GL247426   7.613  24.366   5.954
 3642POPC   C1A47427   7.224  24.161   6.221
 3642POPC   D2A47428   7.389  24.076   6.634
 3642POPC   C3A47429   7.509  24.416   6.911
 3642POPC   C4A47430   7.388  24.527   7.314
 3642POPC   C1B47431   7.600  24.511   6.400
 3642POPC   C2B47432   7.841  24.757   6.726
 3642POPC   C3B47433   7.698  24.951   7.137
 3642POPC   C4B47434   7.697  24.823   7.596
 3643POPC   NC347435  15.813   1.963   5.322
 3643POPC   PO447436  16.309   2.502   5.360
 3643POPC   GL147437  16.211   2.252   5.797
 3643POPC   GL247438  16.161   1.890   5.742
 3643POPC   C1A47439  15.949   2.138   6.165
 3643POPC   D2A47440  15.834   1.787   6.454
 3643POPC   C3A47441  15.679   1.791   6.878
 3643POPC   C4A47442  15.892   1.991   7.219
 3643POPC   C1B47443  16.296   1.749   6.160
 3643POPC   C2B47444  16.272   1.560   6.578
 3643POPC   C3B47445  16.271   1.773   6.963
 3643POPC   C4B47446  16.262   1.566   7.364
 3644POPC   NC347447  43.607  31.356   5.471
 3644POPC   PO447448  44.048  31.823   5.535
 3644POPC   GL147449  43.845  31.565   5.887
 3644POPC   GL247450  43.617  31.241   5.985
 3644POPC   C1A47451  43.996  31.391   6.268
 3644POPC   D2A47452  43.864  31.368   6.706
 3644POPC   C3A47453  44.151  31.609   6.964
 3644POPC   C4A47454  44.169  31.852   7.335
 3644POPC   C1B47455  43.487  31.608   6.264
 3644POPC   C2B47456  43.476  31.811   6.691
 3644POPC   C3B47457  43.623  31.651   7.094
 3644POPC   C4B47458  43.534  31.277   7.343
 3645POPC   NC347459  35.357  14.751   5.469
 3645POPC   PO447460  35.229  14.088   5.416
 3645POPC   GL147461  35.369  14.276   5.776
 3645POPC   GL247462  35.679  14.153   5.823
 3645POPC   C1A47463  35.328  14.436   6.211
 3645POPC   D2A47464  35.111  14.737   6.506
 3645POPC   C3A47465  35.215  14.742   6.971
 3645POPC   C4A47466  35.086  14.589   7.409
 3645POPC   C1B47467  35.856  14.037   6.236
 3645POPC   C2B47468  35.610  14.085   6.623
 3645POPC   C3B47469  35.574  14.056   7.054
 3645POPC   C4B47470  35.247  14.120   7.356
 3646POPC   NC347471  25.418  36.732   5.456
 3646POPC   PO447472  25.168  36.094   5.509
 3646POPC   GL147473  25.394  36.317   5.843
 3646POPC   GL247474  25.203  36.632   5.935
 3646POPC   C1A47475  25.544  36.129   6.223
 3646POPC   D2A47476  25.467  35.830   6.542
 3646POPC   C3A47477  25.626  35.906   6.941
 3646POPC   C4A47478  25.486  36.070   7.303
 3646POPC   C1B47479  25.442  36.613   6.345
 3646POPC   C2B47480  25.362  36.346   6.729
 3646POPC   C3B47481  25.096  36.307   7.095
 3646POPC   C4B47482  25.161  36.371   7.588
 3647POPC   NC347483  12.884  10.148   5.613
 3647POPC   PO447484  13.100  10.772   5.572
 3647POPC   GL147485  13.011  10.571   5.920
 3647POPC   GL247486  12.668  10.703   5.900
 3647POPC   C1A47487  13.052  10.767   6.326
 3647POPC   D2A47488  12.791  10.874   6.691
 3647POPC   C3A47489  13.009  10.747   7.048
 3647POPC   C4A47490  12.939  10.394   7.272
 3647POPC   C1B47491  12.597  10.374   6.168
 3647POPC   C2B47492  12.786  10.374   6.532
 3647POPC   C3B47493  12.632  10.396   6.886
 3647POPC   C4B47494  12.417  10.424   7.225
 3648POPC   NC347495  31.842  26.856   5.498
 3648POPC   PO447496  31.346  26.430   5.642
 3648POPC   GL147497  31.327  26.702   5.954
 3648POPC   GL247498  31.681  26.753   5.953
 3648POPC   C1A47499  31.433  26.730   6.397
 3648POPC   D2A47500  31.203  26.814   6.761
 3648POPC   C3A47501  31.404  26.695   7.112
 3648POPC   C4A47502  31.320  26.603   7.520
 3648POPC   C1B47503  31.829  27.094   6.218
 3648POPC   C2B47504  31.912  26.948   6.620
 3648POPC   C3B47505  31.764  27.035   7.029
 3648POPC   C4B47506  31.661  26.995   7.459
 3649POPC   NC347507  28.300   8.372   5.465
 3649POPC   PO447508  28.060   7.837   5.181
 3649POPC   GL147509  28.193   7.936   5.700
 3649POPC   GL247510  28.120   7.605   5.809
 3649POPC   C1A47511  28.374   8.162   6.091
 3649POPC   D2A47512  28.720   8.154   6.417
 3649POPC   C3A47513  28.548   8.233   6.841
 3649POPC   C4A47514  28.369   8.467   7.217
 3649POPC   C1B47515  28.049   7.731   6.218
 3649POPC   C2B47516  28.190   7.978   6.552
 3649POPC   C3B47517  28.139   7.880   6.970
 3649POPC   C4B47518  28.014   8.118   7.320
 3650POPC   NC347519   2.575   6.362   5.347
 3650POPC   PO447520   2.658   5.679   5.378
 3650POPC   GL147521   2.786   5.817   5.784
 3650POPC   GL247522   3.057   6.030   5.854
 3650POPC   C1A47523   2.656   5.857   6.182
 3650POPC   D2A47524   2.432   5.794   6.573
 3650POPC   C3A47525   2.636   5.671   6.958
 3650POPC   C4A47526   2.725   5.852   7.360
 3650POPC   C1B47527   3.089   6.128   6.280
 3650POPC   C2B47528   3.103   6.202   6.711
 3650POPC   C3B47529   2.823   6.285   7.066
 3650POPC   C4B47530   2.837   6.337   7.527
 3651POPC   NC347531   0.510  12.973   5.045
 3651POPC   PO447532   0.506  12.391   5.322
 3651POPC   GL147533   0.529  12.612   5.734
 3651POPC   GL247534   0.199  12.505   5.818
 3651POPC   C1A47535   0.474  12.953   6.086
 3651POPC   D2A47536   0.457  13.169   6.514
 3651POPC   C3A47537   0.403  13.003   6.960
 3651POPC   C4A47538   0.629  13.235   7.287
 3651POPC   C1B47539   0.447  12.489   6.233
 3651POPC   C2B47540   0.355  12.566   6.673
 3651POPC   C3B47541   0.588  12.515   7.033
 3651POPC   C4B47542   0.499  12.567   7.510
 3652POPC   NC347543  10.738  11.564   5.421
 3652POPC   PO447544  10.828  10.960   5.430
 3652POPC   GL147545  10.574  11.197   5.775
 3652POPC   GL247546  10.458  11.549   5.853
 3652POPC   C1A47547  10.522  11.174   6.225
 3652POPC   D2A47548  10.769  11.166   6.601
 3652POPC   C3A47549  10.542  11.053   6.974
 3652POPC   C4A47550  10.689  11.030   7.384
 3652POPC   C1B47551  10.384  11.682   6.279
 3652POPC   C2B47552  10.360  11.474   6.688
 3652POPC   C3B47553  10.389  11.509   7.168
 3652POPC   C4B47554  10.729  11.528   7.492
 3653POPC   NC347555   2.347  38.501   5.472
 3653POPC   PO447556   3.037  38.745   5.329
 3653POPC   GL147557   2.994  38.483   5.743
 3653POPC   GL247558   2.647  38.335   5.827
 3653POPC   C1A47559   2.853  38.571   6.206
 3653POPC   D2A47560   2.799  38.820   6.580
 3653POPC   C3A47561   2.984  38.566   6.875
 3653POPC   C4A47562   3.031  38.364   7.242
 3653POPC   C1B47563   2.363  38.407   6.183
 3653POPC   C2B47564   2.498  38.379   6.606
 3653POPC   C3B47565   2.533  38.373   7.034
 3653POPC   C4B47566   2.626  38.049   7.288
 3654POPC   NC347567  13.220   4.065   5.290
 3654POPC   PO447568  12.842   3.482   5.323
 3654POPC   GL147569  12.913   3.454   5.774
 3654POPC   GL247570  12.934   3.809   5.729
 3654POPC   C1A47571  13.064   3.361   6.180
 3654POPC   D2A47572  12.806   3.470   6.513
 3654POPC   C3A47573  13.024   3.379   6.888
 3654POPC   C4A47574  13.005   3.564   7.265
 3654POPC   C1B47575  12.633   3.781   6.091
 3654POPC   C2B47576  12.491   3.884   6.540
 3654POPC   C3B47577  12.648   3.821   6.958
 3654POPC   C4B47578  12.527   3.685   7.366
 3655POPC   NC347579  20.541  10.020   5.416
 3655POPC   PO447580  20.769   9.380   5.408
 3655POPC   GL147581  20.808   9.631   5.773
 3655POPC   GL247582  20.441   9.691   5.827
 3655POPC   C1A47583  20.944   9.793   6.189
 3655POPC   D2A47584  20.783   9.806   6.637
 3655POPC   C3A47585  20.867   9.972   7.059
 3655POPC   C4A47586  20.910   9.684   7.397
 3655POPC   C1B47587  20.426   9.782   6.267
 3655POPC   C2B47588  20.283   9.707   6.684
 3655POPC   C3B47589  20.345   9.817   7.109
 3655POPC   C4B47590  20.336   9.521   7.435
 3656POPC   NC347591   0.495  29.798   5.322
 3656POPC   PO447592   0.616  30.386   5.704
 3656POPC   GL147593   0.430  29.962   5.856
 3656POPC   GL247594   0.235  29.657   5.754
 3656POPC   C1A47595   0.483  29.674   6.237
 3656POPC   D2A47596   0.739  29.658   6.612
 3656POPC   C3A47597   0.564  29.769   7.029
 3656POPC   C4A47598   0.645  30.053   7.382
 3656POPC   C1B47599   0.007  29.756   6.156
 3656POPC   C2B47600   0.054  29.615   6.591
 3656POPC   C3B47601   0.042  29.794   7.039
 3656POPC   C4B47602   0.268  29.702   7.466
 3657POPC   NC347603   6.389  43.638   5.417
 3657POPC   PO447604   6.811  44.146   5.386
 3657POPC   GL147605   6.735  43.868   5.735
 3657POPC   GL247606   6.420  43.940   5.877
 3657POPC   C1A47607   6.791  43.817   6.188
 3657POPC   D2A47608   6.799  43.559   6.544
 3657POPC   C3A47609   6.798  43.757   6.892
 3657POPC   C4A47610   6.834  43.684   7.285
 3657POPC   C1B47611   6.207  43.762   6.256
 3657POPC   C2B47612   6.315  43.701   6.678
 3657POPC   C3B47613   6.370  43.949   7.060
 3657POPC   C4B47614   6.409  44.095   7.490
 3658POPC   NC347615  28.103  33.476   5.663
 3658POPC   PO447616  28.139  33.994   5.252
 3658POPC   GL147617  28.224  34.028   5.721
 3658POPC   GL247618  28.039  34.246   5.896
 3658POPC   C1A47619  28.466  33.966   6.124
 3658POPC   D2A47620  28.445  34.064   6.581
 3658POPC   C3A47621  28.430  33.800   6.974
 3658POPC   C4A47622  28.628  33.753   7.379
 3658POPC   C1B47623  28.000  34.089   6.340
 3658POPC   C2B47624  27.978  34.085   6.757
 3658POPC   C3B47625  28.106  34.173   7.103
 3658POPC   C4B47626  28.149  33.938   7.442
 3659POPC   NC347627  11.289  24.722   5.234
 3659POPC   PO447628  11.339  24.107   5.397
 3659POPC   GL147629  11.374  24.287   5.816
 3659POPC   GL247630  11.333  24.645   5.749
 3659POPC   C1A47631  11.660  24.540   6.119
 3659POPC   D2A47632  11.606  24.743   6.522
 3659POPC   C3A47633  11.372  24.554   6.815
 3659POPC   C4A47634  11.408  24.582   7.237
 3659POPC   C1B47635  11.246  24.856   6.164
 3659POPC   C2B47636  11.135  24.989   6.616
 3659POPC   C3B47637  10.970  24.790   7.016
 3659POPC   C4B47638  10.963  24.303   7.080
 3660POPC   NC347639  20.339  43.138   5.011
 3660POPC   PO447640  20.685  43.278   5.584
 3660POPC   GL147641  20.615  43.220   5.996
 3660POPC   GL247642  20.563  42.890   5.933
 3660POPC   C1A47643  20.680  43.234   6.451
 3660POPC   D2A47644  20.393  43.064   6.761
 3660POPC   C3A47645  20.439  43.235   7.124
 3660POPC   C4A47646  20.807  43.371   7.306
 3660POPC   C1B47647  20.448  42.789   6.338
 3660POPC   C2B47648  20.752  42.717   6.643
 3660POPC   C3B47649  20.958  42.752   7.029
 3660POPC   C4B47650  20.836  42.895   7.430
 3661POPC   NC347651  43.249   7.198   5.345
 3661POPC   PO447652  43.935   7.376   5.399
 3661POPC   GL147653  43.997   7.487   5.827
 3661POPC   GL247654  44.091   7.144   5.900
 3661POPC   C1A47655  43.696   7.705   6.124
 3661POPC   D2A47656  43.485   7.568   6.527
 3661POPC   C3A47657  43.548   7.703   6.956
 3661POPC   C4A47658  43.778   7.540   7.293
 3661POPC   C1B47659  43.902   7.266   6.322
 3661POPC   C2B47660  43.911   7.310   6.798
 3661POPC   C3B47661  44.205   7.315   7.170
 3661POPC   C4B47662  44.266   7.422   7.627
 3662POPC   NC347663   3.236  32.356   5.548
 3662POPC   PO447664   3.747  32.073   5.243
 3662POPC   GL147665   3.655  32.028   5.729
 3662POPC   GL247666   3.329  31.985   5.914
 3662POPC   C1A47667   3.686  32.214   6.191
 3662POPC   D2A47668   3.614  32.081   6.642
 3662POPC   C3A47669   3.622  32.379   6.987
 3662POPC   C4A47670   3.941  32.441   7.273
 3662POPC   C1B47671   3.165  32.253   6.271
 3662POPC   C2B47672   3.149  32.304   6.735
 3662POPC   C3B47673   3.226  32.080   7.112
 3662POPC   C4B47674   3.258  32.062   7.589
 3663POPC   NC347675  36.502  16.717   5.322
 3663POPC   PO447676  35.907  17.033   5.360
 3663POPC   GL147677  36.097  16.793   5.685
 3663POPC   GL247678  36.406  16.955   5.786
 3663POPC   C1A47679  36.045  16.765   6.135
 3663POPC   D2A47680  35.819  16.726   6.535
 3663POPC   C3A47681  35.976  16.659   6.949
 3663POPC   C4A47682  36.076  16.994   7.190
 3663POPC   C1B47683  36.529  16.625   6.119
 3663POPC   C2B47684  36.683  16.690   6.572
 3663POPC   C3B47685  36.626  16.925   6.985
 3663POPC   C4B47686  36.499  16.849   7.411
 3664POPC   NC347687  25.540  25.668   5.041
 3664POPC   PO447688  26.075  25.287   5.281
 3664POPC   GL147689  25.965  25.059   5.657
 3664POPC   GL247690  25.953  25.370   5.818
 3664POPC   C1A47691  25.822  24.935   6.071
 3664POPC   D2A47692  25.888  25.192   6.429
 3664POPC   C3A47693  25.900  25.069   6.853
 3664POPC   C4A47694  26.000  25.266   7.243
 3664POPC   C1B47695  26.011  25.612   6.170
 3664POPC   C2B47696  25.739  25.693   6.519
 3664POPC   C3B47697  25.989  25.597   6.861
 3664POPC   C4B47698  26.254  25.735   7.216
 3665POPC   NC347699  13.639  32.278   4.987
 3665POPC   PO447700  14.049  31.992   5.496
 3665POPC   GL147701  13.773  32.134   5.877
 3665POPC   GL247702  13.445  32.280   5.859
 3665POPC   C1A47703  13.891  32.298   6.311
 3665POPC   D2A47704  13.876  32.676   6.612
 3665POPC   C3A47705  13.753  32.559   7.034
 3665POPC   C4A47706  13.654  32.116   7.178
 3665POPC   C1B47707  13.389  32.154   6.310
 3665POPC   C2B47708  13.430  32.024   6.726
 3665POPC   C3B47709  13.170  32.017   7.130
 3665POPC   C4B47710  13.265  32.107   7.568
 3666POPC   NC347711  16.156  20.719   5.388
 3666POPC   PO447712  15.953  20.104   5.466
 3666POPC   GL147713  16.170  20.390   5.790
 3666POPC   GL247714  16.106  20.784   5.871
 3666POPC   C1A47715  16.029  20.425   6.229
 3666POPC   D2A47716  16.001  20.256   6.645
 3666POPC   C3A47717  16.320  20.371   6.922
 3666POPC   C4A47718  16.290  20.480   7.329
 3666POPC   C1B47719  16.140  20.989   6.237
 3666POPC   C2B47720  16.153  20.759   6.599
 3666POPC   C3B47721  15.960  20.714   6.982
 3666POPC   C4B47722  16.014  20.910   7.317
 3667POPC   NC347723  39.168  41.153   5.479
 3667POPC   PO447724  39.284  40.586   5.145
 3667POPC   GL147725  39.317  40.663   5.629
 3667POPC   GL247726  39.033  40.732   5.864
 3667POPC   C1A47727  39.510  40.758   6.076
 3667POPC   D2A47728  39.661  40.634   6.518
 3667POPC   C3A47729  39.528  40.783   6.904
 3667POPC   C4A47730  39.743  41.074   7.155
 3667POPC   C1B47731  39.049  40.676   6.330
 3667POPC   C2B47732  38.980  40.816   6.748
 3667POPC   C3B47733  39.074  40.743   7.181
 3667POPC   C4B47734  39.164  40.453   7.525
 3668POPC   NC347735  10.968  40.572   5.341
 3668POPC   PO447736  11.188  41.164   5.441
 3668POPC   GL147737  11.210  40.856   5.775
 3668POPC   GL247738  11.025  41.025   6.045
 3668POPC   C1A47739  11.338  40.616   6.168
 3668POPC   D2A47740  11.493  40.672   6.608
 3668POPC   C3A47741  11.373  40.464   6.976
 3668POPC   C4A47742  11.041  40.338   7.269
 3668POPC   C1B47743  11.419  41.121   6.261
 3668POPC   C2B47744  11.518  41.191   6.688
 3668POPC   C3B47745  11.248  40.976   6.937
 3668POPC   C4B47746  11.225  40.818   7.309
 3669POPC   NC347747  31.774  36.858   5.430
 3669POPC   PO447748  31.061  36.748   5.318
 3669POPC   GL147749  31.364  36.892   5.742
 3669POPC   GL247750  31.715  36.719   5.902
 3669POPC   C1A47751  31.565  37.154   6.124
 3669POPC   D2A47752  31.862  37.026   6.495
 3669POPC   C3A47753  31.856  37.145   6.957
 3669POPC   C4A47754  31.510  37.084   7.271
 3669POPC   C1B47755  31.429  36.674   6.208
 3669POPC   C2B47756  31.296  36.597   6.579
 3669POPC   C3B47757  31.475  36.734   6.914
 3669POPC   C4B47758  31.237  36.643   7.269
 3670POPC   NC347759  43.215  25.547   5.207
 3670POPC   PO447760  42.921  25.032   5.459
 3670POPC   GL147761  43.052  25.417   5.722
 3670POPC   GL247762  42.942  25.231   5.973
 3670POPC   C1A47763  43.343  25.499   6.136
 3670POPC   D2A47764  43.378  25.720   6.566
 3670POPC   C3A47765  43.445  25.528   6.994
 3670POPC   C4A47766  43.506  25.557   7.473
 3670POPC   C1B47767  42.844  25.422   6.358
 3670POPC   C2B47768  43.059  25.292   6.715
 3670POPC   C3B47769  43.311  25.015   6.940
 3670POPC   C4B47770  43.249  24.810   7.307
 3671POPC   NC347771  29.562  38.038   5.516
 3671POPC   PO447772  30.036  38.575   5.354
 3671POPC   GL147773  29.806  38.480   5.740
 3671POPC   GL247774  29.859  38.168   5.919
 3671POPC   C1A47775  29.991  38.651   6.113
 3671POPC   D2A47776  29.970  38.810   6.488
 3671POPC   C3A47777  29.948  38.524   6.827
 3671POPC   C4A47778  30.114  38.659   7.228
 3671POPC   C1B47779  29.592  38.358   6.254
 3671POPC   C2B47780  29.416  38.175   6.633
 3671POPC   C3B47781  29.653  37.966   6.970
 3671POPC   C4B47782  29.813  38.036   7.383
 3672POPC   NC347783   9.101   1.366   5.498
 3672POPC   PO447784   8.907   0.717   5.436
 3672POPC   GL147785   8.905   0.987   5.790
 3672POPC   GL247786   8.678   1.294   5.823
 3672POPC   C1A47787   9.123   0.872   6.146
 3672POPC   D2A47788   9.252   1.026   6.499
 3672POPC   C3A47789   9.061   0.916   6.879
 3672POPC   C4A47790   9.100   1.052   7.268
 3672POPC   C1B47791   8.831   1.291   6.273
 3672POPC   C2B47792   8.956   1.392   6.716
 3672POPC   C3B47793   8.752   1.371   7.125
 3672POPC   C4B47794   8.623   1.346   7.567
 3673POPC   NC347795  16.977   3.711   5.469
 3673POPC   PO447796  16.432   3.257   5.353
 3673POPC   GL147797  16.661   3.368   5.730
 3673POPC   GL247798  16.604   3.742   5.835
 3673POPC   C1A47799  16.757   3.404   6.178
 3673POPC   D2A47800  16.597   3.604   6.545
 3673POPC   C3A47801  16.685   3.326   6.876
 3673POPC   C4A47802  16.905   3.325   7.266
 3673POPC   C1B47803  16.918   3.896   6.196
 3673POPC   C2B47804  16.954   3.952   6.678
 3673POPC   C3B47805  16.777   3.796   7.091
 3673POPC   C4B47806  17.066   3.801   7.450
 3674POPC   NC347807   6.189  13.852   5.440
 3674POPC   PO447808   5.687  13.305   5.412
 3674POPC   GL147809   5.659  13.573   5.765
 3674POPC   GL247810   5.876  13.358   5.896
 3674POPC   C1A47811   5.593  13.709   6.206
 3674POPC   D2A47812   5.421  13.706   6.623
 3674POPC   C3A47813   5.714  13.791   6.968
 3674POPC   C4A47814   5.733  14.071   7.324
 3674POPC   C1B47815   6.100  13.656   6.071
 3674POPC   C2B47816   6.238  13.725   6.442
 3674POPC   C3B47817   6.431  13.598   6.756
 3674POPC   C4B47818   6.197  13.640   7.087
 3675POPC   NC347819   2.642  38.981   5.408
 3675POPC   PO447820   2.859  39.709   5.465
 3675POPC   GL147821   2.755  39.352   5.765
 3675POPC   GL247822   2.955  39.009   5.804
 3675POPC   C1A47823   2.731  39.246   6.215
 3675POPC   D2A47824   2.948  39.325   6.617
 3675POPC   C3A47825   2.683  39.421   7.002
 3675POPC   C4A47826   2.548  39.364   7.435
 3675POPC   C1B47827   3.160  38.972   6.200
 3675POPC   C2B47828   3.303  38.945   6.644
 3675POPC   C3B47829   3.070  39.043   7.025
 3675POPC   C4B47830   2.660  38.906   7.161
 3676POPC   NC347831  18.536  24.660   5.572
 3676POPC   PO447832  18.025  24.223   5.389
 3676POPC   GL147833  17.956  24.375   5.827
 3676POPC   GL247834  17.948  24.708   5.973
 3676POPC   C1A47835  18.061  24.210   6.226
 3676POPC   D2A47836  18.263  24.313   6.593
 3676POPC   C3A47837  18.514  24.306   6.917
 3676POPC   C4A47838  18.475  24.308   7.367
 3676POPC   C1B47839  18.335  24.694   6.240
 3676POPC   C2B47840  18.497  24.772   6.672
 3676POPC   C3B47841  18.235  24.733   6.976
 3676POPC   C4B47842  17.887  24.616   7.165
 3677POPC   NC347843  13.155  33.889   5.430
 3677POPC   PO447844  12.632  33.538   5.384
 3677POPC   GL147845  12.873  33.567   5.792
 3677POPC   GL247846  12.994  33.902   5.915
 3677POPC   C1A47847  12.971  33.519   6.249
 3677POPC   D2A47848  13.052  33.504   6.679
 3677POPC   C3A47849  12.743  33.737   6.900
 3677POPC   C4A47850  12.885  33.716   7.281
 3677POPC   C1B47851  12.925  34.116   6.325
 3677POPC   C2B47852  13.100  34.073   6.752
 3677POPC   C3B47853  13.122  34.171   7.209
 3677POPC   C4B47854  13.065  34.048   7.670
 3678POPC   NC347855  22.342  23.333   5.289
 3678POPC   PO447856  22.209  23.935   5.457
 3678POPC   GL147857  22.173  23.677   5.818
 3678POPC   GL247858  21.886  23.837   5.919
 3678POPC   C1A47859  22.347  23.747   6.254
 3678POPC   D2A47860  22.210  23.902   6.687
 3678POPC   C3A47861  22.559  23.948   6.956
 3678POPC   C4A47862  22.610  23.586   7.170
 3678POPC   C1B47863  21.855  23.733   6.368
 3678POPC   C2B47864  22.096  23.395   6.592
 3678POPC   C3B47865  22.125  23.449   7.042
 3678POPC   C4B47866  22.119  23.855   7.231
 3679POPC   NC347867  37.555  14.879   5.399
 3679POPC   PO447868  38.056  15.340   5.429
 3679POPC   GL147869  37.741  15.291   5.765
 3679POPC   GL247870  37.383  15.470   5.768
 3679POPC   C1A47871  37.818  15.166   6.211
 3679POPC   D2A47872  37.641  15.254   6.631
 3679POPC   C3A47873  37.817  15.100   7.054
 3679POPC   C4A47874  37.748  15.097   7.530
 3679POPC   C1B47875  37.313  15.093   6.044
 3679POPC   C2B47876  37.265  14.891   6.452
 3679POPC   C3B47877  37.334  14.943   6.896
 3679POPC   C4B47878  37.385  14.787   7.307
 3680POPC   NC347879  23.687  39.669   5.394
 3680POPC   PO447880  23.721  39.059   5.451
 3680POPC   GL147881  23.669  39.174   5.882
 3680POPC   GL247882  23.324  39.107   5.959
 3680POPC   C1A47883  23.677  39.057   6.325
 3680POPC   D2A47884  23.497  39.224   6.713
 3680POPC   C3A47885  23.779  39.258   7.097
 3680POPC   C4A47886  23.738  38.985   7.468
 3680POPC   C1B47887  23.408  39.500   6.241
 3680POPC   C2B47888  23.447  39.736   6.672
 3680POPC   C3B47889  23.358  39.554   7.100
 3680POPC   C4B47890  23.306  39.077   7.196
 3681POPC   NC347891  33.529  15.142   5.484
 3681POPC   PO447892  33.969  15.553   5.306
 3681POPC   GL147893  33.919  15.368   5.757
 3681POPC   GL247894  33.627  15.523   5.840
 3681POPC   C1A47895  34.043  15.295   6.262
 3681POPC   D2A47896  34.158  15.053   6.680
 3681POPC   C3A47897  34.203  15.295   7.073
 3681POPC   C4A47898  33.998  15.334   7.490
 3681POPC   C1B47899  33.521  15.309   6.224
 3681POPC   C2B47900  33.675  15.262   6.650
 3681POPC   C3B47901  33.704  15.137   7.075
 3681POPC   C4B47902  33.505  15.184   7.458
 3682POPC   NC347903  14.258  36.109   5.436
 3682POPC   PO447904  14.845  36.152   5.162
 3682POPC   GL147905  14.667  36.354   5.653
 3682POPC   GL247906  14.358  36.228   5.905
 3682POPC   C1A47907  14.725  36.430   6.159
 3682POPC   D2A47908  14.621  36.296   6.594
 3682POPC   C3A47909  14.310  36.339   6.914
 3682POPC   C4A47910  14.586  36.283   7.278
 3682POPC   C1B47911  14.136  36.142   6.315
 3682POPC   C2B47912  14.305  35.879   6.653
 3682POPC   C3B47913  14.478  35.868   7.024
 3682POPC   C4B47914  14.183  36.018   7.362
 3683POPC   NC347915  26.111  32.567   5.550
 3683POPC   PO447916  26.271  33.203   5.347
 3683POPC   GL147917  26.154  33.048   5.774
 3683POPC   GL247918  25.818  32.962   5.792
 3683POPC   C1A47919  26.083  32.960   6.245
 3683POPC   D2A47920  26.174  33.154   6.659
 3683POPC   C3A47921  26.062  33.101   7.111
 3683POPC   C4A47922  25.751  32.950   7.452
 3683POPC   C1B47923  25.770  33.306   6.006
 3683POPC   C2B47924  25.733  33.333   6.419
 3683POPC   C3B47925  25.668  33.309   6.841
 3683POPC   C4B47926  25.729  33.488   7.228
 3684POPC   NC347927  31.916  37.764   5.440
 3684POPC   PO447928  32.488  37.388   5.389
 3684POPC   GL147929  32.378  37.698   5.760
 3684POPC   GL247930  32.057  37.865   5.899
 3684POPC   C1A47931  32.478  37.788   6.207
 3684POPC   D2A47932  32.359  37.872   6.630
 3684POPC   C3A47933  32.059  37.613   6.847
 3684POPC   C4A47934  32.180  37.500   7.265
 3684POPC   C1B47935  31.945  37.792   6.294
 3684POPC   C2B47936  31.816  38.044   6.610
 3684POPC   C3B47937  32.011  38.106   6.985
 3684POPC   C4B47938  31.966  37.974   7.395
 3685POPC   NC347939  35.704  41.817   5.432
 3685POPC   PO447940  35.180  41.473   5.425
 3685POPC   GL147941  35.316  41.662   5.823
 3685POPC   GL247942  35.155  41.369   5.984
 3685POPC   C1A47943  35.555  41.597   6.227
 3685POPC   D2A47944  35.620  41.856   6.609
 3685POPC   C3A47945  35.687  41.620   6.988
 3685POPC   C4A47946  35.414  41.407   7.278
 3685POPC   C1B47947  34.999  41.139   6.371
 3685POPC   C2B47948  35.130  41.149   6.822
 3685POPC   C3B47949  35.005  41.098   7.254
 3685POPC   C4B47950  34.746  41.341   7.561
 3686POPC   NC347951  16.520  42.843   5.647
 3686POPC   PO447952  16.582  42.151   5.439
 3686POPC   GL147953  16.811  42.387   5.780
 3686POPC   GL247954  16.532  42.426   5.925
 3686POPC   C1A47955  16.933  42.415   6.251
 3686POPC   D2A47956  16.895  42.065   6.598
 3686POPC   C3A47957  16.771  42.175   7.031
 3686POPC   C4A47958  16.718  42.262   7.465
 3686POPC   C1B47959  16.446  42.628   6.295
 3686POPC   C2B47960  16.526  42.512   6.704
 3686POPC   C3B47961  16.512  42.680   7.104
 3686POPC   C4B47962  16.485  42.739   7.552
 3687POPC   NC347963  38.112  27.032   5.449
 3687POPC   PO447964  38.691  27.341   5.414
 3687POPC   GL147965  38.538  27.042   5.760
 3687POPC   GL247966  38.392  26.684   5.749
 3687POPC   C1A47967  38.306  27.003   6.167
 3687POPC   D2A47968  38.355  26.807   6.571
 3687POPC   C3A47969  38.316  27.040   6.935
 3687POPC   C4A47970  38.486  26.897   7.300
 3687POPC   C1B47971  38.289  26.476   6.169
 3687POPC   C2B47972  38.151  26.348   6.614
 3687POPC   C3B47973  38.220  26.470   7.074
 3687POPC   C4B47974  38.084  26.607   7.508
 3688POPC   NC347975  13.253   9.976   5.144
 3688POPC   PO447976  12.806   9.665   5.530
 3688POPC   GL147977  13.052   9.739   5.918
 3688POPC   GL247978  13.234  10.074   5.980
 3688POPC   C1A47979  12.899   9.894   6.328
 3688POPC   D2A47980  12.792   9.918   6.764
 3688POPC   C3A47981  12.693   9.551   6.974
 3688POPC   C4A47982  12.723   9.300   7.330
 3688POPC   C1B47983  13.253  10.265   6.383
 3688POPC   C2B47984  13.202  10.236   6.836
 3688POPC   C3B47985  13.093   9.930   7.172
 3688POPC   C4B47986  12.646   9.960   7.281
 3689POPC   NC347987  42.858  11.132   5.450
 3689POPC   PO447988  42.984  11.790   5.283
 3689POPC   GL147989  43.049  11.655   5.724
 3689POPC   GL247990  42.731  11.533   5.789
 3689POPC   C1A47991  43.178  11.544   6.179
 3689POPC   D2A47992  43.441  11.602   6.574
 3689POPC   C3A47993  43.380  11.420   6.974
 3689POPC   C4A47994  43.233  11.152   7.263
 3689POPC   C1B47995  42.753  11.239   6.161
 3689POPC   C2B47996  42.995  11.247   6.568
 3689POPC   C3B47997  42.862  11.376   6.968
 3689POPC   C4B47998  42.600  11.118   7.228
 3690POPC   NC347999  41.170  15.046   5.318
 3690POPC   PO448000  41.691  15.328   5.435
 3690POPC   GL148001  41.892  15.233   5.781
 3690POPC   GL248002  41.616  14.988   5.863
 3690POPC   C1A48003  41.815  15.332   6.201
 3690POPC   D2A48004  41.491  15.181   6.482
 3690POPC   C3A48005  41.587  15.224   6.926
 3690POPC   C4A48006  41.216  15.060   7.117
 3690POPC   C1B48007  41.857  14.825   6.233
 3690POPC   C2B48008  41.785  14.805   6.692
 3690POPC   C3B48009  41.648  14.773   7.144
 3690POPC   C4B48010  41.749  14.708   7.605
 3691POPC   NC348011  21.534   8.231   5.447
 3691POPC   PO448012  21.015   7.715   5.472
 3691POPC   GL148013  21.180   8.007   5.767
 3691POPC   GL248014  21.501   7.882   5.828
 3691POPC   C1A48015  21.308   8.301   6.096
 3691POPC   D2A48016  21.353   8.569   6.462
 3691POPC   C3A48017  21.503   8.415   6.838
 3691POPC   C4A48018  21.231   8.273   7.131
 3691POPC   C1B48019  21.638   7.916   6.233
 3691POPC   C2B48020  21.503   7.941   6.658
 3691POPC   C3B48021  21.633   7.942   7.109
 3691POPC   C4B48022  21.375   8.010   7.525
 3692POPC   NC348023  23.454  40.549   5.510
 3692POPC   PO448024  22.832  40.827   5.288
 3692POPC   GL148025  22.770  40.885   5.707
 3692POPC   GL248026  23.055  40.722   5.791
 3692POPC   C1A48027  22.588  40.941   6.124
 3692POPC   D2A48028  22.751  41.155   6.485
 3692POPC   C3A48029  22.715  41.008   6.898
 3692POPC   C4A48030  23.030  41.024   7.204
 3692POPC   C1B48031  23.087  40.851   6.200
 3692POPC   C2B48032  23.025  40.714   6.611
 3692POPC   C3B48033  23.206  40.608   6.998
 3692POPC   C4B48034  23.352  40.498   7.396
 3693POPC   NC348035   6.493  33.468   5.113
 3693POPC   PO448036   6.887  32.989   5.230
 3693POPC   GL148037   6.775  33.033   5.720
 3693POPC   GL248038   6.458  32.882   5.784
 3693POPC   C1A48039   6.785  32.917   6.192
 3693POPC   D2A48040   6.806  33.110   6.614
 3693POPC   C3A48041   6.832  32.937   7.038
 3693POPC   C4A48042   7.034  32.598   7.279
 3693POPC   C1B48043   6.315  33.094   6.145
 3693POPC   C2B48044   6.322  33.265   6.535
 3693POPC   C3B48045   6.346  33.014   6.896
 3693POPC   C4B48046   6.340  32.960   7.333
 3694POPC   NC348047  20.676  28.758   5.656
 3694POPC   PO448048  20.474  29.218   5.183
 3694POPC   GL148049  20.452  29.349   5.707
 3694POPC   GL248050  20.717  29.229   5.855
 3694POPC   C1A48051  20.388  29.149   6.217
 3694POPC   D2A48052  20.571  29.032   6.662
 3694POPC   C3A48053  20.363  29.209   7.016
 3694POPC   C4A48054  20.462  29.188   7.457
 3694POPC   C1B48055  20.925  29.144   6.257
 3694POPC   C2B48056  21.081  29.091   6.669
 3694POPC   C3B48057  21.031  29.125   7.102
 3694POPC   C4B48058  20.875  28.892   7.412
 3695POPC   NC348059   2.258  43.169   5.545
 3695POPC   PO448060   1.775  42.640   5.483
 3695POPC   GL148061   1.883  42.868   5.827
 3695POPC   GL248062   2.212  42.779   5.881
 3695POPC   C1A48063   1.845  42.871   6.278
 3695POPC   D2A48064   1.744  42.918   6.709
 3695POPC   C3A48065   1.791  43.326   6.885
 3695POPC   C4A48066   1.919  43.454   7.288
 3695POPC   C1B48067   2.357  42.961   6.234
 3695POPC   C2B48068   2.214  43.124   6.633
 3695POPC   C3B48069   2.123  42.979   7.062
 3695POPC   C4B48070   2.318  43.104   7.455
 3696POPC   NC348071  35.895  31.959   5.604
 3696POPC   PO448072  36.589  32.029   5.493
 3696POPC   GL148073  36.370  32.176   5.830
 3696POPC   GL248074  36.483  32.522   5.931
 3696POPC   C1A48075  36.282  32.123   6.251
 3696POPC   D2A48076  36.293  32.288   6.640
 3696POPC   C3A48077  36.041  32.068   6.915
 3696POPC   C4A48078  36.288  32.142   7.213
 3696POPC   C1B48079  36.095  32.613   6.195
 3696POPC   C2B48080  35.902  32.735   6.603
 3696POPC   C3B48081  36.074  32.593   6.999
 3696POPC   C4B48082  36.496  32.605   7.212
 3697POPC   NC348083  28.556  22.590   5.609
 3697POPC   PO448084  28.389  23.120   5.174
 3697POPC   GL148085  28.560  23.153   5.608
 3697POPC   GL248086  28.245  23.120   5.791
 3697POPC   C1A48087  28.674  23.066   6.062
 3697POPC   D2A48088  28.469  23.187   6.437
 3697POPC   C3A48089  28.596  23.076   6.861
 3697POPC   C4A48090  28.452  23.046   7.283
 3697POPC   C1B48091  28.244  22.807   6.141
 3697POPC   C2B48092  28.225  22.748   6.574
 3697POPC   C3B48093  28.068  22.963   6.924
 3697POPC   C4B48094  28.044  22.768   7.306
 3698POPC   NC348095   5.109  10.855   5.088
 3698POPC   PO448096   4.936  11.255   5.577
 3698POPC   GL148097   5.213  11.156   5.886
 3698POPC   GL248098   4.949  10.995   6.083
 3698POPC   C1A48099   5.422  11.219   6.298
 3698POPC   D2A48100   5.241  11.427   6.678
 3698POPC   C3A48101   5.267  11.282   7.122
 3698POPC   C4A48102   5.422  11.330   7.559
 3698POPC   C1B48103   4.928  11.422   6.244
 3698POPC   C2B48104   4.691  11.541   6.607
 3698POPC   C3B48105   4.836  11.579   7.008
 3698POPC   C4B48106   4.792  11.314   7.339
 3699POPC   NC348107  26.999  18.069   5.535
 3699POPC   PO448108  26.752  18.693   5.519
 3699POPC   GL148109  26.672  18.433   5.914
 3699POPC   GL248110  26.933  18.162   6.022
 3699POPC   C1A48111  26.605  18.326   6.371
 3699POPC   D2A48112  26.936  18.063   6.615
 3699POPC   C3A48113  26.990  18.217   7.038
 3699POPC   C4A48114  26.623  18.502   7.174
 3699POPC   C1B48115  26.654  17.840   6.204
 3699POPC   C2B48116  26.444  17.888   6.617
 3699POPC   C3B48117  26.525  18.001   7.058
 3699POPC   C4B48118  26.858  17.880   7.392
 3700POPC   NC348119  35.141  27.690   5.249
 3700POPC   PO448120  34.499  27.630   5.470
 3700POPC   GL148121  34.626  27.479   5.860
 3700POPC   GL248122  34.587  27.800   6.017
 3700POPC   C1A48123  34.521  27.379   6.284
 3700POPC   D2A48124  34.403  27.708   6.571
 3700POPC   C3A48125  34.400  27.516   6.960
 3700POPC   C4A48126  34.516  27.560   7.378
 3700POPC   C1B48127  34.889  27.736   6.363
 3700POPC   C2B48128  34.899  27.568   6.793
 3700POPC   C3B48129  34.980  27.649   7.242
 3700POPC   C4B48130  34.884  27.779   7.704
 3701POPC   NC348131   4.812  38.820   5.546
 3701POPC   PO448132   5.203  38.298   5.464
 3701POPC   GL148133   5.017  38.258   5.875
 3701POPC   GL248134   4.740  38.459   5.924
 3701POPC   C1A48135   4.992  38.285   6.334
 3701POPC   D2A48136   5.196  38.091   6.677
 3701POPC   C3A48137   5.135  38.337   7.058
 3701POPC   C4A48138   5.118  38.189   7.496
 3701POPC   C1B48139   4.864  38.786   6.242
 3701POPC   C2B48140   5.173  38.956   6.547
 3701POPC   C3B48141   5.345  38.839   6.985
 3701POPC   C4B48142   5.136  38.723   7.388
 3702POPC   NC348143  24.462   2.864   5.186
 3702POPC   PO448144  24.947   2.615   5.530
 3702POPC   GL148145  24.562   2.825   5.710
 3702POPC   GL248146  24.583   2.645   5.965
 3702POPC   C1A48147  24.248   2.995   6.096
 3702POPC   D2A48148  24.040   2.975   6.535
 3702POPC   C3A48149  24.149   2.878   6.965
 3702POPC   C4A48150  24.513   2.888   7.254
 3702POPC   C1B48151  24.688   2.887   6.343
 3702POPC   C2B48152  24.646   2.753   6.776
 3702POPC   C3B48153  24.828   2.530   7.176
 3702POPC   C4B48154  24.832   2.676   7.636
 3703POPC   NC348155  18.213  38.207   5.374
 3703POPC   PO448156  18.748  38.639   5.445
 3703POPC   GL148157  18.378  38.601   5.752
 3703POPC   GL248158  18.131  38.336   5.876
 3703POPC   C1A48159  18.158  38.786   6.128
 3703POPC   D2A48160  18.336  38.869   6.535
 3703POPC   C3A48161  18.165  38.603   6.872
 3703POPC   C4A48162  18.152  38.712   7.312
 3703POPC   C1B48163  18.160  38.325   6.355
 3703POPC   C2B48164  18.244  38.051   6.699
 3703POPC   C3B48165  17.927  38.064   6.955
 3703POPC   C4B48166  17.945  38.255   7.337
 3704POPC   NC348167  38.965  39.191   5.424
 3704POPC   PO448168  38.292  39.157   5.440
 3704POPC   GL148169  38.467  39.023   5.819
 3704POPC   GL248170  38.670  39.297   5.831
 3704POPC   C1A48171  38.678  39.095   6.278
 3704POPC   D2A48172  38.822  39.066   6.728
 3704POPC   C3A48173  38.469  39.153   7.020
 3704POPC   C4A48174  38.074  38.896   7.052
 3704POPC   C1B48175  38.638  39.609   6.149
 3704POPC   C2B48176  38.718  39.739   6.549
 3704POPC   C3B48177  38.867  39.545   6.903
 3704POPC   C4B48178  38.717  39.643   7.297
 3705POPC   NC348179   3.286  14.135   5.373
 3705POPC   PO448180   3.480  14.726   5.147
 3705POPC   GL148181   3.525  14.482   5.648
 3705POPC   GL248182   3.716  14.145   5.701
 3705POPC   C1A48183   3.531  14.528   6.131
 3705POPC   D2A48184   3.833  14.666   6.478
 3705POPC   C3A48185   3.727  14.526   6.924
 3705POPC   C4A48186   3.340  14.456   7.190
 3705POPC   C1B48187   3.488  14.010   6.100
 3705POPC   C2B48188   3.354  14.171   6.543
 3705POPC   C3B48189   3.483  13.986   6.972
 3705POPC   C4B48190   3.636  14.040   7.410
 3706POPC   NC348191  43.452  36.684   5.218
 3706POPC   PO448192  42.974  36.988   5.649
 3706POPC   GL148193  43.166  37.103   5.968
 3706POPC   GL248194  43.489  37.111   5.822
 3706POPC   C1A48195  43.029  36.862   6.317
 3706POPC   D2A48196  42.741  36.951   6.592
 3706POPC   C3A48197  42.933  36.874   6.928
 3706POPC   C4A48198  42.855  37.054   7.280
 3706POPC   C1B48199  43.541  36.933   6.260
 3706POPC   C2B48200  43.534  36.696   6.624
 3706POPC   C3B48201  43.450  36.850   7.038
 3706POPC   C4B48202  43.237  36.756   7.413
 3707POPC   NC348203  11.695   1.295   5.416
 3707POPC   PO448204  11.127   1.659   5.407
 3707POPC   GL148205  11.336   1.379   5.806
 3707POPC   GL248206  11.601   1.067   5.861
 3707POPC   C1A48207  11.171   1.028   6.105
 3707POPC   D2A48208  11.258   0.824   6.529
 3707POPC   C3A48209  11.271   0.952   6.921
 3707POPC   C4A48210  11.101   1.044   7.311
 3707POPC   C1B48211  11.584   1.249   6.279
 3707POPC   C2B48212  11.604   1.310   6.724
 3707POPC   C3B48213  11.359   1.430   7.046
 3707POPC   C4B48214  11.401   1.466   7.481
 3708POPC   NC348215  34.834  41.692   5.229
 3708POPC   PO448216  34.195  41.621   5.341
 3708POPC   GL148217  34.464  41.604   5.713
 3708POPC   GL248218  34.813  41.727   5.736
 3708POPC   C1A48219  34.642  41.446   6.118
 3708POPC   D2A48220  34.622  41.658   6.528
 3708POPC   C3A48221  34.641  41.442   6.935
 3708POPC   C4A48222  34.315  41.394   7.247
 3708POPC   C1B48223  34.944  41.857   6.152
 3708POPC   C2B48224  35.132  41.629   6.501
 3708POPC   C3B48225  35.132  41.683   6.933
 3708POPC   C4B48226  34.917  41.787   7.326
 3709POPC   NC348227   4.406  41.330   5.400
 3709POPC   PO448228   3.895  41.854   5.247
 3709POPC   GL148229   4.229  41.724   5.653
 3709POPC   GL248230   4.136  41.371   5.866
 3709POPC   C1A48231   4.500  41.639   6.071
 3709POPC   D2A48232   4.417  41.265   6.371
 3709POPC   C3A48233   4.471  41.283   6.841
 3709POPC   C4A48234   4.227  41.392   7.223
 3709POPC   C1B48235   4.032  41.588   6.281
 3709POPC   C2B48236   4.240  41.710   6.655
 3709POPC   C3B48237   4.116  41.888   7.052
 3709POPC   C4B48238   3.947  41.788   7.445
 3710POPC   NC348239   3.854  14.788   5.438
 3710POPC   PO448240   4.187  14.190   5.478
 3710POPC   GL148241   4.309  14.473   5.811
 3710POPC   GL248242   3.996  14.629   5.910
 3710POPC   C1A48243   4.452  14.435   6.248
 3710POPC   D2A48244   4.351  14.242   6.647
 3710POPC   C3A48245   4.411  14.458   7.056
 3710POPC   C4A48246   4.490  14.183   7.396
 3710POPC   C1B48247   3.972  14.240   6.166
 3710POPC   C2B48248   3.855  14.132   6.591
 3710POPC   C3B48249   4.008  14.095   7.031
 3710POPC   C4B48250   4.020  14.382   7.390
 3711POPC   NC348251  11.205  33.763   5.439
 3711POPC   PO448252  10.559  33.808   5.274
 3711POPC   GL148253  10.722  33.794   5.706
 3711POPC   GL248254  10.727  34.108   5.863
 3711POPC   C1A48255  10.489  33.643   6.101
 3711POPC   D2A48256  10.454  33.451   6.528
 3711POPC   C3A48257  10.607  33.721   6.848
 3711POPC   C4A48258  10.462  33.939   7.227
 3711POPC   C1B48259  10.883  34.013   6.264
 3711POPC   C2B48260  10.826  34.182   6.669
 3711POPC   C3B48261  10.970  34.063   7.075
 3711POPC   C4B48262  10.875  34.028   7.539
 3712POPC   NC348263  19.233  24.014   5.527
 3712POPC   PO448264  18.877  23.466   5.323
 3712POPC   GL148265  19.014  23.612   5.743
 3712POPC   GL248266  18.781  23.848   5.795
 3712POPC   C1A48267  19.131  23.784   6.214
 3712POPC   D2A48268  19.345  23.718   6.662
 3712POPC   C3A48269  19.398  24.013   7.000
 3712POPC   C4A48270  19.155  23.808   7.257
 3712POPC   C1B48271  18.666  23.547   6.145
 3712POPC   C2B48272  18.883  23.436   6.545
 3712POPC   C3B48273  18.908  23.459   6.982
 3712POPC   C4B48274  18.776  23.477   7.444
 3713POPC   NC348275   9.421  42.672   5.513
 3713POPC   PO448276  10.088  42.501   5.519
 3713POPC   GL148277   9.794  42.405   5.859
 3713POPC   GL248278   9.424  42.236   5.794
 3713POPC   C1A48279   9.925  42.237   6.276
 3713POPC   D2A48280  10.188  42.367   6.642
 3713POPC   C3A48281   9.984  42.283   7.016
 3713POPC   C4A48282   9.790  42.687   6.996
 3713POPC   C1B48283   9.441  42.374   6.233
 3713POPC   C2B48284   9.572  42.309   6.699
 3713POPC   C3B48285   9.462  42.353   7.175
 3713POPC   C4B48286   9.379  42.489   7.647
 3714POPC   NC348287  41.568  41.033   5.593
 3714POPC   PO448288  41.517  41.624   5.276
 3714POPC   GL148289  41.565  41.600   5.720
 3714POPC   GL248290  41.903  41.589   5.850
 3714POPC   C1A48291  41.400  41.549   6.144
 3714POPC   D2A48292  41.446  41.642   6.582
 3714POPC   C3A48293  41.235  41.474   6.928
 3714POPC   C4A48294  41.579  41.401   7.223
 3714POPC   C1B48295  41.853  41.744   6.263
 3714POPC   C2B48296  41.984  41.621   6.665
 3714POPC   C3B48297  41.940  41.781   7.106
 3714POPC   C4B48298  41.792  42.186   7.265
 3715POPC   NC348299  35.334   9.967   5.591
 3715POPC   PO448300  35.705   9.394   5.477
 3715POPC   GL148301  35.489   9.571   5.901
 3715POPC   GL248302  35.135   9.723   5.985
 3715POPC   C1A48303  35.476   9.727   6.371
 3715POPC   D2A48304  35.307   9.863   6.802
 3715POPC   C3A48305  35.568   9.744   7.186
 3715POPC   C4A48306  35.823   9.404   7.409
 3715POPC   C1B48307  35.045   9.998   6.329
 3715POPC   C2B48308  34.818  10.165   6.627
 3715POPC   C3B48309  34.888  10.066   7.050
 3715POPC   C4B48310  35.136   9.923   7.403
 3716POPC   NC348311  17.115  20.728   5.476
 3716POPC   PO448312  16.520  20.428   5.364
 3716POPC   GL148313  16.617  20.689   5.744
 3716POPC   GL248314  16.881  20.937   5.870
 3716POPC   C1A48315  16.532  20.671   6.179
 3716POPC   D2A48316  16.648  20.647   6.604
 3716POPC   C3A48317  16.963  20.377   6.752
 3716POPC   C4A48318  16.778  20.353   7.145
 3716POPC   C1B48319  17.020  20.846   6.291
 3716POPC   C2B48320  17.106  20.874   6.724
 3716POPC   C3B48321  16.829  20.887   7.048
 3716POPC   C4B48322  16.986  20.721   7.402
 3717POPC   NC348323  11.404  21.759   5.420
 3717POPC   PO448324  11.206  21.071   5.444
 3717POPC   GL148325  11.390  21.324   5.730
 3717POPC   GL248326  11.127  21.558   5.792
 3717POPC   C1A48327  11.426  21.223   6.154
 3717POPC   D2A48328  11.498  20.972   6.512
 3717POPC   C3A48329  11.362  21.119   6.887
 3717POPC   C4A48330  11.291  21.311   7.260
 3717POPC   C1B48331  11.284  21.711   6.161
 3717POPC   C2B48332  11.265  21.522   6.571
 3717POPC   C3B48333  11.535  21.607   6.927
 3717POPC   C4B48334  11.374  21.835   7.252
 3718POPC   NC348335  44.150  35.937   5.198
 3718POPC   PO448336  43.759  36.404   5.441
 3718POPC   GL148337  44.020  36.217   5.753
 3718POPC   GL248338  44.029  35.883   5.757
 3718POPC   C1A48339  44.203  36.159   6.152
 3718POPC   D2A48340  44.071  35.947   6.513
 3718POPC   C3A48341  44.163  36.114   6.914
 3718POPC   C4A48342  43.939  36.181   7.272
 3718POPC   C1B48343  43.766  35.736   6.093
 3718POPC   C2B48344  43.676  35.631   6.521
 3718POPC   C3B48345  43.844  35.717   6.928
 3718POPC   C4B48346  43.592  35.817   7.251
 3719POPC   NC348347  18.028  28.678   5.365
 3719POPC   PO448348  18.184  29.370   5.499
 3719POPC   GL148349  18.183  29.341   5.924
 3719POPC   GL248350  18.343  29.025   5.905
 3719POPC   C1A48351  18.289  29.309   6.367
 3719POPC   D2A48352  18.297  29.151   6.803
 3719POPC   C3A48353  18.196  29.445   7.150
 3719POPC   C4A48354  18.207  29.540   7.604
 3719POPC   C1B48355  17.973  28.934   6.185
 3719POPC   C2B48356  17.961  28.790   6.630
 3719POPC   C3B48357  17.956  28.887   7.093
 3719POPC   C4B48358  17.849  29.170   7.453
 3720POPC   NC348359  11.852   7.679   5.373
 3720POPC   PO448360  12.427   7.241   5.451
 3720POPC   GL148361  12.187   7.136   5.802
 3720POPC   GL248362  11.913   7.394   5.811
 3720POPC   C1A48363  12.200   7.295   6.216
 3720POPC   D2A48364  12.289   7.607   6.512
 3720POPC   C3A48365  12.264   7.460   6.921
 3720POPC   C4A48366  12.291   7.614   7.329
 3720POPC   C1B48367  11.709   7.422   6.236
 3720POPC   C2B48368  11.787   7.586   6.684
 3720POPC   C3B48369  11.801   7.580   7.175
 3720POPC   C4B48370  11.801   7.376   7.605
 3721POPC   NC348371  13.391  40.028   5.471
 3721POPC   PO448372  14.026  39.987   5.514
 3721POPC   GL148373  13.784  40.233   5.842
 3721POPC   GL248374  13.427  40.330   5.861
 3721POPC   C1A48375  13.700  40.069   6.263
 3721POPC   D2A48376  13.928  39.851   6.605
 3721POPC   C3A48377  13.756  39.877   7.024
 3721POPC   C4A48378  13.963  39.909   7.433
 3721POPC   C1B48379  13.374  40.464   6.260
 3721POPC   C2B48380  13.458  40.312   6.669
 3721POPC   C3B48381  13.282  40.300   7.084
 3721POPC   C4B48382  13.299  40.220   7.528
 3722POPC   NC348383  43.542  17.627   5.396
 3722POPC   PO448384  44.280  17.608   5.459
 3722POPC   GL148385  43.987  17.440   5.806
 3722POPC   GL248386  44.154  17.174   6.020
 3722POPC   C1A48387  43.662  17.266   6.149
 3722POPC   D2A48388  43.582  17.161   6.615
 3722POPC   C3A48389  43.883  17.273   6.924
 3722POPC   C4A48390  44.068  17.465   7.294
 3722POPC   C1B48391  44.086  17.545   6.295
 3722POPC   C2B48392  44.104  17.697   6.716
 3722POPC   C3B48393  44.394  17.762   7.009
 3722POPC   C4B48394  44.367  17.865   7.409
 3723POPC   NC348395  17.796  26.207   5.277
 3723POPC   PO448396  17.202  26.137   5.457
 3723POPC   GL148397  17.488  26.158   5.823
 3723POPC   GL248398  17.822  26.000   5.784
 3723POPC   C1A48399  17.606  26.186   6.263
 3723POPC   D2A48400  17.531  25.960   6.651
 3723POPC   C3A48401  17.548  26.074   7.084
 3723POPC   C4A48402  17.346  25.856   7.410
 3723POPC   C1B48403  18.030  25.918   6.172
 3723POPC   C2B48404  18.036  26.085   6.564
 3723POPC   C3B48405  18.153  26.142   6.972
 3723POPC   C4B48406  17.992  26.091   7.358
 3724POPC   NC348407  28.981  42.357   5.301
 3724POPC   PO448408  29.576  42.259   5.436
 3724POPC   GL148409  29.213  42.326   5.784
 3724POPC   GL248410  28.884  42.117   5.797
 3724POPC   C1A48411  29.049  42.630   6.116
 3724POPC   D2A48412  29.140  42.678   6.589
 3724POPC   C3A48413  29.013  42.409   6.959
 3724POPC   C4A48414  28.941  42.423   7.438
 3724POPC   C1B48415  29.009  42.153   6.244
 3724POPC   C2B48416  29.078  41.961   6.637
 3724POPC   C3B48417  29.177  41.926   7.058
 3724POPC   C4B48418  29.404  42.224   7.249
 3725POPC   NC348419  11.212   0.275   5.372
 3725POPC   PO448420  11.370   0.914   5.434
 3725POPC   GL148421  11.422   0.577   5.762
 3725POPC   GL248422  11.534   0.194   5.789
 3725POPC   C1A48423  11.516   0.602   6.179
 3725POPC   D2A48424  11.471   0.346   6.572
 3725POPC   C3A48425  11.188   0.457   6.911
 3725POPC   C4A48426  11.357   0.619   7.322
 3725POPC   C1B48427  11.287   0.074   6.178
 3725POPC   C2B48428  11.164  44.949   6.648
 3725POPC   C3B48429  11.369   0.014   7.069
 3725POPC   C4B48430  11.197   0.162   7.473
 3726POPC   NC348431  18.368   9.634   5.387
 3726POPC   PO448432  17.770   9.465   5.272
 3726POPC   GL148433  17.942   9.774   5.643
 3726POPC   GL248434  18.302   9.880   5.820
 3726POPC   C1A48435  17.900   9.836   6.112
 3726POPC   D2A48436  18.063   9.583   6.448
 3726POPC   C3A48437  17.998   9.652   6.880
 3726POPC   C4A48438  17.834   9.696   7.257
 3726POPC   C1B48439  18.415   9.922   6.279
 3726POPC   C2B48440  18.453   9.820   6.728
 3726POPC   C3B48441  18.481   9.550   7.132
 3726POPC   C4B48442  18.616   9.268   7.504
 3727POPC   NC348443   5.165   7.474   5.083
 3727POPC   PO448444   5.031   7.720   5.672
 3727POPC   GL148445   5.076   7.440   5.962
 3727POPC   GL248446   4.784   7.280   5.803
 3727POPC   C1A48447   5.273   7.478   6.367
 3727POPC   D2A48448   5.371   7.308   6.777
 3727POPC   C3A48449   5.289   7.626   7.087
 3727POPC   C4A48450   5.353   7.641   7.542
 3727POPC   C1B48451   4.713   7.178   6.201
 3727POPC   C2B48452   4.904   7.189   6.578
 3727POPC   C3B48453   4.881   7.353   6.965
 3727POPC   C4B48454   5.018   7.295   7.389
 3728POPC   NC348455  25.182  13.933   5.472
 3728POPC   PO448456  25.639  13.462   5.348
 3728POPC   GL148457  25.376  13.538   5.713
 3728POPC   GL248458  25.591  13.774   5.862
 3728POPC   C1A48459  25.171  13.653   6.119
 3728POPC   D2A48460  25.357  13.697   6.543
 3728POPC   C3A48461  25.119  13.813   6.926
 3728POPC   C4A48462  25.105  13.607   7.307
 3728POPC   C1B48463  25.616  13.366   6.133
 3728POPC   C2B48464  25.516  13.149   6.544
 3728POPC   C3B48465  25.392  13.347   6.960
 3728POPC   C4B48466  25.539  13.378   7.403
 3729POPC   NC348467  41.294  37.868   5.411
 3729POPC   PO448468  41.888  38.118   5.517
 3729POPC   GL148469  41.646  37.804   5.793
 3729POPC   GL248470  41.461  37.488   5.753
 3729POPC   C1A48471  41.735  37.631   6.203
 3729POPC   D2A48472  41.621  37.414   6.575
 3729POPC   C3A48473  41.639  37.662   6.948
 3729POPC   C4A48474  41.898  37.982   7.100
 3729POPC   C1B48475  41.216  37.529   6.178
 3729POPC   C2B48476  41.126  37.323   6.576
 3729POPC   C3B48477  41.308  37.278   6.965
 3729POPC   C4B48478  41.314  37.502   7.336
 3730POPC   NC348479  33.814  33.080   5.444
 3730POPC   PO448480  33.264  32.670   5.542
 3730POPC   GL148481  33.544  32.880   5.815
 3730POPC   GL248482  33.558  33.241   5.894
 3730POPC   C1A48483  33.819  32.864   6.166
 3730POPC   D2A48484  33.762  32.795   6.572
 3730POPC   C3A48485  34.052  32.771   6.888
 3730POPC   C4A48486  33.796  32.892   7.245
 3730POPC   C1B48487  34.031  33.298   6.011
 3730POPC   C2B48488  34.114  33.196   6.453
 3730POPC   C3B48489  33.835  33.235   6.818
 3730POPC   C4B48490  33.964  33.368   7.204
 3731POPC   NC348491  11.562  34.263   5.454
 3731POPC   PO448492  11.592  33.521   5.434
 3731POPC   GL148493  11.608  33.879   5.791
 3731POPC   GL248494  11.254  33.988   5.904
 3731POPC   C1A48495  11.622  34.124   6.217
 3731POPC   D2A48496  11.319  34.047   6.593
 3731POPC   C3A48497  11.396  33.755   6.941
 3731POPC   C4A48498  11.418  33.448   7.305
 3731POPC   C1B48499  11.403  33.644   6.219
 3731POPC   C2B48500  11.343  33.345   6.590
 3731POPC   C3B48501  11.033  33.404   6.903
 3731POPC   C4B48502  10.872  33.593   7.266
 3732POPC   NC348503   8.872  20.617   5.420
 3732POPC   PO448504   9.516  20.995   5.401
 3732POPC   GL148505   9.293  20.709   5.664
 3732POPC   GL248506   9.000  20.830   5.857
 3732POPC   C1A48507   9.331  20.453   6.039
 3732POPC   D2A48508   9.225  20.381   6.488
 3732POPC   C3A48509   9.298  20.636   6.859
 3732POPC   C4A48510   9.331  20.510   7.289
 3732POPC   C1B48511   8.831  20.598   6.221
 3732POPC   C2B48512   8.771  20.570   6.679
 3732POPC   C3B48513   8.853  20.703   7.103
 3732POPC   C4B48514   9.179  21.012   7.256
 3733POPC   NC348515  42.029   1.790   5.401
 3733POPC   PO448516  42.444   1.184   5.366
 3733POPC   GL148517  42.220   1.197   5.742
 3733POPC   GL248518  41.946   1.449   5.771
 3733POPC   C1A48519  42.446   1.201   6.134
 3733POPC   D2A48520  42.586   1.004   6.513
 3733POPC   C3A48521  42.644   1.294   6.837
 3733POPC   C4A48522  42.583   1.163   7.256
 3733POPC   C1B48523  41.919   1.237   6.145
 3733POPC   C2B48524  42.124   1.334   6.527
 3733POPC   C3B48525  42.170   1.147   6.874
 3733POPC   C4B48526  42.050   1.151   7.241
 3734POPC   NC348527  30.316  20.840   4.976
 3734POPC   PO448528  30.693  20.409   5.355
 3734POPC   GL148529  30.854  20.548   5.772
 3734POPC   GL248530  30.725  20.812   5.958
 3734POPC   C1A48531  30.726  20.406   6.225
 3734POPC   D2A48532  30.767  20.686   6.590
 3734POPC   C3A48533  30.664  20.474   6.963
 3734POPC   C4A48534  30.811  20.424   7.405
 3734POPC   C1B48535  30.373  20.808   6.250
 3734POPC   C2B48536  30.260  20.782   6.688
 3734POPC   C3B48537  30.353  20.830   7.107
 3734POPC   C4B48538  30.349  20.616   7.505
 3735POPC   NC348539  34.263  12.181   5.434
 3735POPC   PO448540  34.898  11.883   5.360
 3735POPC   GL148541  34.692  12.042   5.719
 3735POPC   GL248542  34.427  11.836   5.850
 3735POPC   C1A48543  34.696  12.296   6.109
 3735POPC   D2A48544  34.914  12.165   6.492
 3735POPC   C3A48545  34.712  12.157   6.905
 3735POPC   C4A48546  34.737  12.387   7.300
 3735POPC   C1B48547  34.733  11.782   6.177
 3735POPC   C2B48548  34.736  11.591   6.604
 3735POPC   C3B48549  34.586  11.660   7.023
 3735POPC   C4B48550  34.636  11.883   7.426
 3736POPC   NC348551  16.221   6.221   5.249
 3736POPC   PO448552  15.986   5.692   5.300
 3736POPC   GL148553  15.879   5.663   5.748
 3736POPC   GL248554  15.671   5.948   5.740
 3736POPC   C1A48555  15.950   5.838   6.174
 3736POPC   D2A48556  16.124   6.007   6.563
 3736POPC   C3A48557  15.998   5.864   6.945
 3736POPC   C4A48558  16.173   5.873   7.335
 3736POPC   C1B48559  15.529   6.149   6.096
 3736POPC   C2B48560  15.608   6.059   6.521
 3736POPC   C3B48561  15.483   5.919   6.924
 3736POPC   C4B48562  15.641   5.889   7.306
 3737POPC   NC348563   2.644   0.523   5.442
 3737POPC   PO448564   3.039  44.909   5.365
 3737POPC   GL148565   3.011   0.249   5.735
 3737POPC   GL248566   3.131   0.521   5.917
 3737POPC   C1A48567   2.670   0.408   6.087
 3737POPC   D2A48568   2.462   0.307   6.509
 3737POPC   C3A48569   2.694   0.167   6.907
 3737POPC   C4A48570   2.667   0.115   7.387
 3737POPC   C1B48571   2.987   0.749   6.307
 3737POPC   C2B48572   2.843   0.674   6.745
 3737POPC   C3B48573   2.767   0.597   7.197
 3737POPC   C4B48574   2.779   0.899   7.542
 3738POPC   NC348575  37.721  36.599   5.150
 3738POPC   PO448576  37.500  37.186   5.310
 3738POPC   GL148577  37.722  36.983   5.699
 3738POPC   GL248578  37.526  36.695   5.833
 3738POPC   C1A48579  37.853  36.900   6.164
 3738POPC   D2A48580  38.085  36.852   6.572
 3738POPC   C3A48581  37.891  37.029   6.916
 3738POPC   C4A48582  37.548  37.153   7.203
 3738POPC   C1B48583  37.535  36.475   6.244
 3738POPC   C2B48584  37.613  36.539   6.670
 3738POPC   C3B48585  37.646  36.642   7.110
 3738POPC   C4B48586  38.078  36.701   7.264
 3739POPC   NC348587   4.405   1.564   5.471
 3739POPC   PO448588   3.842   1.283   5.475
 3739POPC   GL148589   4.048   1.438   5.827
 3739POPC   GL248590   3.895   1.732   5.955
 3739POPC   C1A48591   4.394   1.431   6.159
 3739POPC   D2A48592   4.458   1.156   6.528
 3739POPC   C3A48593   4.465   1.287   6.974
 3739POPC   C4A48594   4.372   1.035   7.365
 3739POPC   C1B48595   3.915   1.442   6.314
 3739POPC   C2B48596   4.054   1.399   6.712
 3739POPC   C3B48597   3.990   1.262   7.119
 3739POPC   C4B48598   4.085   1.398   7.564
 3740POPC   NC348599  12.352  43.471   5.109
 3740POPC   PO448600  11.812  43.120   5.355
 3740POPC   GL148601  11.944  43.123   5.781
 3740POPC   GL248602  11.776  43.434   5.834
 3740POPC   C1A48603  12.169  43.075   6.207
 3740POPC   D2A48604  12.241  43.258   6.624
 3740POPC   C3A48605  12.188  42.965   6.946
 3740POPC   C4A48606  12.205  43.039   7.391
 3740POPC   C1B48607  11.869  43.499   6.283
 3740POPC   C2B48608  11.872  43.620   6.732
 3740POPC   C3B48609  11.935  43.388   7.126
 3740POPC   C4B48610  11.910  43.415   7.607
 3741POPC   NC348611  23.812   0.179   5.397
 3741POPC   PO448612  23.734   0.888   5.320
 3741POPC   GL148613  23.668   0.833   5.802
 3741POPC   GL248614  23.727   0.466   5.833
 3741POPC   C1A48615  23.657   0.698   6.289
 3741POPC   D2A48616  23.879   0.537   6.677
 3741POPC   C3A48617  23.801   0.669   7.094
 3741POPC   C4A48618  23.465   0.652   7.389
 3741POPC   C1B48619  23.875   0.246   6.221
 3741POPC   C2B48620  23.655   0.106   6.589
 3741POPC   C3B48621  23.888   0.098   6.975
 3741POPC   C4B48622  23.759   0.238   7.363
 3742POPC   NC348623  34.833  30.825   5.442
 3742POPC   PO448624  34.344  30.388   5.522
 3742POPC   GL148625  34.474  30.661   5.816
 3742POPC   GL248626  34.762  30.472   5.891
 3742POPC   C1A48627  34.508  30.725   6.263
 3742POPC   D2A48628  34.597  30.930   6.652
 3742POPC   C3A48629  34.337  30.772   6.948
 3742POPC   C4A48630  34.540  30.533   7.237
 3742POPC   C1B48631  34.770  30.291   6.313
 3742POPC   C2B48632  34.693  30.414   6.738
 3742POPC   C3B48633  35.014  30.512   7.042
 3742POPC   C4B48634  34.999  30.424   7.488
 3743POPC   NC348635  10.369   6.513   5.374
 3743POPC   PO448636  10.854   7.137   5.388
 3743POPC   GL148637  10.776   6.930   5.736
 3743POPC   GL248638  10.416   6.856   5.751
 3743POPC   C1A48639  10.768   6.773   6.139
 3743POPC   D2A48640  10.487   6.849   6.465
 3743POPC   C3A48641  10.670   6.704   6.851
 3743POPC   C4A48642  10.560   6.808   7.248
 3743POPC   C1B48643  10.370   6.475   6.073
 3743POPC   C2B48644  10.429   6.360   6.537
 3743POPC   C3B48645  10.282   6.334   6.984
 3743POPC   C4B48646  10.386   6.353   7.443
 3744POPC   NC348647  17.506  42.861   5.477
 3744POPC   PO448648  17.336  43.493   5.305
 3744POPC   GL148649  17.374  43.289   5.748
 3744POPC   GL248650  17.608  43.049   5.945
 3744POPC   C1A48651  17.395  43.424   6.203
 3744POPC   D2A48652  17.683  43.190   6.489
 3744POPC   C3A48653  17.648  43.172   6.934
 3744POPC   C4A48654  17.326  43.261   7.215
 3744POPC   C1B48655  17.429  42.758   6.214
 3744POPC   C2B48656  17.381  42.824   6.653
 3744POPC   C3B48657  17.297  42.760   7.066
 3744POPC   C4B48658  17.502  42.750   7.462
 3745POPC   NC348659  28.839  21.806   5.477
 3745POPC   PO448660  29.269  21.309   5.319
 3745POPC   GL148661  29.322  21.365   5.765
 3745POPC   GL248662  29.063  21.564   5.854
 3745POPC   C1A48663  29.318  21.325   6.231
 3745POPC   D2A48664  29.250  21.105   6.607
 3745POPC   C3A48665  29.343  21.300   6.998
 3745POPC   C4A48666  29.406  21.327   7.461
 3745POPC   C1B48667  28.849  21.761   6.190
 3745POPC   C2B48668  28.686  21.630   6.586
 3745POPC   C3B48669  28.819  21.765   7.011
 3745POPC   C4B48670  28.706  21.794   7.487
 3746POPC   NC348671   8.666  44.447   5.493
 3746POPC   PO448672   7.955  44.526   5.646
 3746POPC   GL148673   8.218  44.554   5.960
 3746POPC   GL248674   8.495  44.280   5.972
 3746POPC   C1A48675   8.312  44.848   6.324
 3746POPC   D2A48676   8.245   0.074   6.743
 3746POPC   C3A48677   8.328  44.793   7.116
 3746POPC   C4A48678   8.002  44.610   7.395
 3746POPC   C1B48679   8.281  44.316   6.390
 3746POPC   C2B48680   8.275  44.349   6.847
 3746POPC   C3B48681   8.267  44.181   7.261
 3746POPC   C4B48682   8.182  44.276   7.740
 3747POPC   NC348683  14.287  13.099   5.523
 3747POPC   PO448684  14.272  12.477   5.767
 3747POPC   GL148685  14.141  12.742   6.084
 3747POPC   GL248686  14.433  12.912   5.980
 3747POPC   C1A48687  14.378  12.737   6.487
 3747POPC   D2A48688  14.568  12.712   6.911
 3747POPC   C3A48689  14.260  12.827   7.216
 3747POPC   C4A48690  14.080  12.562   7.545
 3747POPC   C1B48691  14.643  13.192   6.205
 3747POPC   C2B48692  14.619  13.184   6.625
 3747POPC   C3B48693  14.825  13.169   6.969
 3747POPC   C4B48694  14.730  13.044   7.346
 3748POPC   NC348695   6.688  21.304   5.403
 3748POPC   PO448696   6.596  22.027   5.444
 3748POPC   GL148697   6.577  21.688   5.743
 3748POPC   GL248698   6.898  21.515   5.831
 3748POPC   C1A48699   6.533  21.600   6.181
 3748POPC   D2A48700   6.786  21.691   6.528
 3748POPC   C3A48701   6.560  21.569   6.891
 3748POPC   C4A48702   6.578  21.367   7.240
 3748POPC   C1B48703   6.834  21.181   6.143
 3748POPC   C2B48704   6.601  21.184   6.529
 3748POPC   C3B48705   6.753  21.014   6.909
 3748POPC   C4B48706   6.999  21.071   7.256
 3749POPC   NC348707  27.248  37.738   5.258
 3749POPC   PO448708  27.791  37.497   5.469
 3749POPC   GL148709  27.566  37.759   5.774
 3749POPC   GL248710  27.773  37.583   5.982
 3749POPC   C1A48711  27.582  37.983   6.203
 3749POPC   D2A48712  27.737  37.838   6.624
 3749POPC   C3A48713  27.527  38.008   6.994
 3749POPC   C4A48714  27.637  37.943   7.435
 3749POPC   C1B48715  27.444  37.523   6.307
 3749POPC   C2B48716  27.304  37.467   6.725
 3749POPC   C3B48717  27.430  37.532   7.120
 3749POPC   C4B48718  27.685  37.373   7.421
 3750POPC   NC348719  31.160   9.289   5.437
 3750POPC   PO448720  31.470   8.670   5.321
 3750POPC   GL148721  31.235   8.775   5.706
 3750POPC   GL248722  31.322   9.082   5.863
 3750POPC   C1A48723  31.223   8.690   6.185
 3750POPC   D2A48724  31.463   8.739   6.579
 3750POPC   C3A48725  31.258   8.734   6.984
 3750POPC   C4A48726  31.412   8.857   7.380
 3750POPC   C1B48727  31.557   9.148   6.228
 3750POPC   C2B48728  31.531   9.241   6.648
 3750POPC   C3B48729  31.735   9.213   7.012
 3750POPC   C4B48730  31.563   9.325   7.388
 3751POPC   NC348731  14.902  39.924   5.481
 3751POPC   PO448732  15.581  39.874   5.471
 3751POPC   GL148733  15.399  39.987   5.867
 3751POPC   GL248734  15.098  39.845   5.984
 3751POPC   C1A48735  15.427  40.156   6.283
 3751POPC   D2A48736  15.331  39.944   6.681
 3751POPC   C3A48737  15.376  40.234   7.091
 3751POPC   C4A48738  15.473  40.090   7.502
 3751POPC   C1B48739  14.916  40.084   6.379
 3751POPC   C2B48740  14.894  40.090   6.866
 3751POPC   C3B48741  15.150  39.769   7.157
 3751POPC   C4B48742  15.124  39.741   7.623
 3752POPC   NC348743  31.810  29.120   5.292
 3752POPC   PO448744  32.449  28.970   5.389
 3752POPC   GL148745  32.242  29.148   5.682
 3752POPC   GL248746  32.084  28.833   5.853
 3752POPC   C1A48747  32.235  29.269   6.100
 3752POPC   D2A48748  32.184  29.080   6.495
 3752POPC   C3A48749  32.236  29.352   6.821
 3752POPC   C4A48750  32.259  29.413   7.233
 3752POPC   C1B48751  31.821  28.746   6.257
 3752POPC   C2B48752  31.805  28.858   6.732
 3752POPC   C3B48753  32.143  28.884   7.036
 3752POPC   C4B48754  32.499  28.605   7.119
 3753POPC   NC348755   4.228  37.112   5.441
 3753POPC   PO448756   4.426  37.751   5.112
 3753POPC   GL148757   4.373  37.747   5.605
 3753POPC   GL248758   4.045  37.641   5.709
 3753POPC   C1A48759   4.437  37.497   6.032
 3753POPC   D2A48760   4.751  37.429   6.383
 3753POPC   C3A48761   4.608  37.491   6.832
 3753POPC   C4A48762   4.360  37.500   7.211
 3753POPC   C1B48763   3.959  37.651   6.161
 3753POPC   C2B48764   4.192  37.695   6.546
 3753POPC   C3B48765   3.999  37.739   6.936
 3753POPC   C4B48766   3.900  37.717   7.359
 3754POPC   NC348767  28.311  38.751   5.059
 3754POPC   PO448768  28.398  38.148   5.398
 3754POPC   GL148769  28.324  38.242   5.818
 3754POPC   GL248770  28.060  38.068   6.014
 3754POPC   C1A48771  28.312  38.501   6.173
 3754POPC   D2A48772  28.442  38.463   6.583
 3754POPC   C3A48773  28.268  38.490   6.964
 3754POPC   C4A48774  28.627  38.404   7.209
 3754POPC   C1B48775  28.411  38.028   6.299
 3754POPC   C2B48776  28.319  37.960   6.706
 3754POPC   C3B48777  28.038  38.032   7.021
 3754POPC   C4B48778  28.169  38.182   7.381
 3755POPC   NC348779  15.741  34.267   5.445
 3755POPC   PO448780  16.001  34.883   5.424
 3755POPC   GL148781  16.177  34.773   5.803
 3755POPC   GL248782  16.006  34.493   5.829
 3755POPC   C1A48783  16.066  34.863   6.214
 3755POPC   D2A48784  15.869  34.769   6.580
 3755POPC   C3A48785  16.053  34.886   6.940
 3755POPC   C4A48786  15.839  34.638   7.256
 3755POPC   C1B48787  15.816  34.382   6.218
 3755POPC   C2B48788  15.482  34.215   6.454
 3755POPC   C3B48789  15.600  34.279   6.865
 3755POPC   C4B48790  15.835  34.128   7.187
 3756POPC   NC348791   8.637   6.745   5.468
 3756POPC   PO448792   9.127   6.259   5.387
 3756POPC   GL148793   9.100   6.363   5.805
 3756POPC   GL248794   8.733   6.433   5.887
 3756POPC   C1A48795   9.136   6.513   6.211
 3756POPC   D2A48796   8.794   6.505   6.505
 3756POPC   C3A48797   8.921   6.433   6.898
 3756POPC   C4A48798   9.110   6.493   7.313
 3756POPC   C1B48799   8.772   6.843   6.125
 3756POPC   C2B48800   9.042   6.967   6.498
 3756POPC   C3B48801   9.164   6.889   6.946
 3756POPC   C4B48802   9.053   6.978   7.408
 3757POPC   NC348803   9.161  12.141   5.374
 3757POPC   PO448804   8.629  11.802   5.396
 3757POPC   GL148805   8.838  12.043   5.780
 3757POPC   GL248806   9.126  12.299   5.849
 3757POPC   C1A48807   8.988  11.983   6.206
 3757POPC   D2A48808   8.872  12.159   6.582
 3757POPC   C3A48809   9.077  11.984   6.928
 3757POPC   C4A48810   8.896  12.083   7.311
 3757POPC   C1B48811   9.205  12.472   6.270
 3757POPC   C2B48812   9.380  12.368   6.681
 3757POPC   C3B48813   9.430  12.428   7.153
 3757POPC   C4B48814   9.311  12.272   7.572
 3758POPC   NC348815  20.889  29.371   5.367
 3758POPC   PO448816  20.454  29.959   5.414
 3758POPC   GL148817  20.475  29.850   5.833
 3758POPC   GL248818  20.823  29.731   5.740
 3758POPC   C1A48819  20.462  29.966   6.292
 3758POPC   D2A48820  20.766  29.990   6.624
 3758POPC   C3A48821  20.582  30.016   7.041
 3758POPC   C4A48822  20.468  29.897   7.456
 3758POPC   C1B48823  20.818  29.627   6.154
 3758POPC   C2B48824  20.625  29.510   6.499
 3758POPC   C3B48825  20.759  29.510   6.865
 3758POPC   C4B48826  20.716  29.547   7.232
 3759POPC   NC348827  32.630  20.801   5.304
 3759POPC   PO448828  33.229  20.764   5.465
 3759POPC   GL148829  33.097  20.615   5.846
 3759POPC   GL248830  32.756  20.645   5.772
 3759POPC   C1A48831  33.056  20.650   6.305
 3759POPC   D2A48832  33.028  20.828   6.727
 3759POPC   C3A48833  33.314  20.697   7.050
 3759POPC   C4A48834  33.383  20.720   7.520
 3759POPC   C1B48835  32.596  20.485   6.147
 3759POPC   C2B48836  32.629  20.499   6.602
 3759POPC   C3B48837  32.741  20.564   7.059
 3759POPC   C4B48838  32.639  20.531   7.490
 3760POPC   NC348839  44.489   1.386   5.452
 3760POPC   PO448840  44.909   0.786   5.380
 3760POPC   GL148841  44.810   1.091   5.745
 3760POPC   GL248842  44.455   1.194   5.913
 3760POPC   C1A48843  44.872   1.097   6.194
 3760POPC   D2A48844  44.666   1.209   6.573
 3760POPC   C3A48845  44.916   1.219   6.949
 3760POPC   C4A48846  44.922   0.917   7.266
 3760POPC   C1B48847  44.357   1.499   6.268
 3760POPC   C2B48848  44.314   1.568   6.749
 3760POPC   C3B48849  44.463   1.380   7.173
 3760POPC   C4B48850  44.314   1.261   7.614
 3761POPC   NC348851  16.901  13.864   5.436
 3761POPC   PO448852  16.416  13.380   5.353
 3761POPC   GL148853  16.716  13.441   5.750
 3761POPC   GL248854  17.114  13.516   5.759
 3761POPC   C1A48855  16.600  13.387   6.212
 3761POPC   D2A48856  16.782  13.467   6.615
 3761POPC   C3A48857  16.638  13.575   7.021
 3761POPC   C4A48858  16.597  13.471   7.441
 3761POPC   C1B48859  17.016  13.687   6.176
 3761POPC   C2B48860  17.131  13.821   6.594
 3761POPC   C3B48861  17.162  13.658   6.999
 3761POPC   C4B48862  17.003  13.789   7.412
 3762POPC   NC348863  35.995  25.868   5.534
 3762POPC   PO448864  35.490  26.252   5.223
 3762POPC   GL148865  35.437  26.039   5.653
 3762POPC   GL248866  35.436  25.665   5.686
 3762POPC   C1A48867  35.226  26.029   6.080
 3762POPC   D2A48868  35.325  26.222   6.497
 3762POPC   C3A48869  35.117  26.172   6.884
 3762POPC   C4A48870  35.350  26.138   7.305
 3762POPC   C1B48871  35.413  25.556   6.151
 3762POPC   C2B48872  35.218  25.701   6.534
 3762POPC   C3B48873  35.358  25.726   6.964
 3762POPC   C4B48874  35.521  25.649   7.389
 3763POPC   NC348875  37.837  41.955   5.561
 3763POPC   PO448876  37.703  41.270   5.427
 3763POPC   GL148877  37.695  41.499   5.803
 3763POPC   GL248878  37.433  41.780   5.829
 3763POPC   C1A48879  37.594  41.320   6.200
 3763POPC   D2A48880  37.817  41.347   6.574
 3763POPC   C3A48881  37.691  41.371   6.989
 3763POPC   C4A48882  37.965  41.462   7.311
 3763POPC   C1B48883  37.582  41.834   6.269
 3763POPC   C2B48884  37.731  41.844   6.729
 3763POPC   C3B48885  37.928  41.950   7.151
 3763POPC   C4B48886  37.857  41.978   7.621
 3764POPC   NC348887  27.595   3.486   5.391
 3764POPC   PO448888  27.927   4.072   5.467
 3764POPC   GL148889  27.842   3.731   5.783
 3764POPC   GL248890  27.523   3.547   5.908
 3764POPC   C1A48891  27.958   3.715   6.209
 3764POPC   D2A48892  28.025   3.509   6.576
 3764POPC   C3A48893  27.745   3.543   6.901
 3764POPC   C4A48894  27.888   3.433   7.305
 3764POPC   C1B48895  27.480   3.553   6.372
 3764POPC   C2B48896  27.151   3.750   6.626
 3764POPC   C3B48897  27.212   3.960   7.020
 3764POPC   C4B48898  27.535   3.817   7.299
 3765POPC   NC348899  36.407  29.893   5.223
 3765POPC   PO448900  35.930  30.333   5.389
 3765POPC   GL148901  36.041  30.068   5.772
 3765POPC   GL248902  36.338  29.788   5.824
 3765POPC   C1A48903  36.004  29.968   6.223
 3765POPC   D2A48904  35.949  30.196   6.630
 3765POPC   C3A48905  36.043  30.062   7.041
 3765POPC   C4A48906  36.261  30.247   7.377
 3765POPC   C1B48907  36.345  29.566   6.278
 3765POPC   C2B48908  36.292  29.640   6.778
 3765POPC   C3B48909  36.469  29.797   7.218
 3765POPC   C4B48910  36.484  29.940   7.715
 3766POPC   NC348911  37.862  25.276   5.477
 3766POPC   PO448912  37.363  25.630   5.422
 3766POPC   GL148913  37.470  25.404   5.822
 3766POPC   GL248914  37.441  25.020   5.804
 3766POPC   C1A48915  37.787  25.488   6.167
 3766POPC   D2A48916  37.964  25.338   6.583
 3766POPC   C3A48917  37.833  25.485   6.995
 3766POPC   C4A48918  37.610  25.404   7.385
 3766POPC   C1B48919  37.601  25.004   6.251
 3766POPC   C2B48920  37.756  24.879   6.689
 3766POPC   C3B48921  37.560  25.015   7.051
 3766POPC   C4B48922  37.163  25.227   7.168
 3767POPC   NC348923  15.566  40.355   5.555
 3767POPC   PO448924  16.288  40.231   5.504
 3767POPC   GL148925  15.966  40.106   5.828
 3767POPC   GL248926  15.852  39.737   5.892
 3767POPC   C1A48927  15.936  40.092   6.279
 3767POPC   D2A48928  15.775  40.168   6.697
 3767POPC   C3A48929  15.708  39.885   7.018
 3767POPC   C4A48930  15.921  40.177   7.246
 3767POPC   C1B48931  16.253  39.718   6.112
 3767POPC   C2B48932  16.385  39.927   6.475
 3767POPC   C3B48933  16.172  39.865   6.850
 3767POPC   C4B48934  16.116  39.719   7.307
 3768POPC   NC348935  23.266  44.170   5.614
 3768POPC   PO448936  23.572  44.764   5.359
 3768POPC   GL148937  23.516  44.598   5.782
 3768POPC   GL248938  23.697  44.253   5.873
 3768POPC   C1A48939  23.672  44.767   6.169
 3768POPC   D2A48940  23.844  44.653   6.581
 3768POPC   C3A48941  23.555  44.728   6.948
 3768POPC   C4A48942  23.811  44.440   7.110
 3768POPC   C1B48943  23.423  44.322   6.245
 3768POPC   C2B48944  23.476  44.307   6.684
 3768POPC   C3B48945  23.349  44.245   7.094
 3768POPC   C4B48946  23.314  44.266   7.538
 3769POPC   NC348947  33.951  41.247   5.523
 3769POPC   PO448948  33.255  41.364   5.411
 3769POPC   GL148949  33.543  41.524   5.786
 3769POPC   GL248950  33.921  41.680   5.809
 3769POPC   C1A48951  33.638  41.611   6.239
 3769POPC   D2A48952  33.538  41.386   6.611
 3769POPC   C3A48953  33.650  41.549   7.008
 3769POPC   C4A48954  33.511  41.601   7.472
 3769POPC   C1B48955  34.137  41.508   6.205
 3769POPC   C2B48956  34.143  41.509   6.670
 3769POPC   C3B48957  34.226  41.823   6.965
 3769POPC   C4B48958  33.968  41.800   7.322
 3770POPC   NC348959  27.888  35.454   5.382
 3770POPC   PO448960  27.337  35.191   5.081
 3770POPC   GL148961  27.355  35.157   5.581
 3770POPC   GL248962  27.429  35.456   5.780
 3770POPC   C1A48963  27.396  35.057   6.069
 3770POPC   D2A48964  27.433  35.345   6.446
 3770POPC   C3A48965  27.420  35.269   6.912
 3770POPC   C4A48966  27.208  35.060   7.320
 3770POPC   C1B48967  27.786  35.536   6.113
 3770POPC   C2B48968  27.902  35.496   6.584
 3770POPC   C3B48969  27.819  35.652   7.005
 3770POPC   C4B48970  27.869  35.845   7.430
 3771POPC   NC348971  44.444  33.940   5.328
 3771POPC   PO448972  44.875  33.504   5.673
 3771POPC   GL148973  44.602  33.798   5.828
 3771POPC   GL248974  44.316  33.617   5.726
 3771POPC   C1A48975  44.682  34.062   6.190
 3771POPC   D2A48976  44.827  34.062   6.627
 3771POPC   C3A48977  44.533  34.083   6.941
 3771POPC   C4A48978  44.677  33.760   7.116
 3771POPC   C1B48979  44.243  33.546   6.196
 3771POPC   C2B48980  44.464  33.379   6.583
 3771POPC   C3B48981  44.453  33.316   7.042
 3771POPC   C4B48982  44.345  33.571   7.422
 3772POPC   NC348983  42.472  40.960   5.433
 3772POPC   PO448984  41.875  40.584   5.319
 3772POPC   GL148985  42.239  40.552   5.744
 3772POPC   GL248986  42.530  40.764   5.872
 3772POPC   C1A48987  42.247  40.757   6.255
 3772POPC   D2A48988  42.524  40.655   6.607
 3772POPC   C3A48989  42.308  40.778   6.974
 3772POPC   C4A48990  41.874  40.781   7.097
 3772POPC   C1B48991  42.660  41.056   6.219
 3772POPC   C2B48992  42.502  41.174   6.627
 3772POPC   C3B48993  42.725  41.119   7.012
 3772POPC   C4B48994  42.801  41.192   7.434
 3773POPC   NC348995  18.225  21.118   5.372
 3773POPC   PO448996  18.264  20.444   5.366
 3773POPC   GL148997  18.207  20.683   5.774
 3773POPC   GL248998  17.933  20.916   5.780
 3773POPC   C1A48999  18.064  20.642   6.210
 3773POPC   D2A49000  17.995  20.496   6.609
 3773POPC   C3A49001  18.331  20.565   6.853
 3773POPC   C4A49002  18.305  20.490   7.264
 3773POPC   C1B49003  17.803  21.070   6.199
 3773POPC   C2B49004  18.012  21.023   6.619
 3773POPC   C3B49005  17.998  20.890   7.061
 3773POPC   C4B49006  18.224  20.973   7.443
 3774POPC   NC349007  22.449   4.915   5.521
 3774POPC   PO449008  21.969   5.317   5.301
 3774POPC   GL149009  22.129   5.291   5.713
 3774POPC   GL249010  21.989   4.969   5.725
 3774POPC   C1A49011  22.460   5.293   6.068
 3774POPC   D2A49012  22.345   5.185   6.502
 3774POPC   C3A49013  22.429   5.453   6.861
 3774POPC   C4A49014  22.374   5.298   7.242
 3774POPC   C1B49015  22.185   4.865   6.123
 3774POPC   C2B49016  21.984   4.785   6.502
 3774POPC   C3B49017  22.051   4.958   6.888
 3774POPC   C4B49018  22.185   4.777   7.234
 3775POPC   NC349019  22.813   9.963   5.399
 3775POPC   PO449020  23.296   9.423   5.291
 3775POPC   GL149021  22.998   9.516   5.699
 3775POPC   GL249022  22.950   9.863   5.895
 3775POPC   C1A49023  22.940   9.426   6.177
 3775POPC   D2A49024  22.992   9.651   6.569
 3775POPC   C3A49025  22.838   9.590   6.999
 3775POPC   C4A49026  23.047   9.408   7.320
 3775POPC   C1B49027  23.258   9.960   6.257
 3775POPC   C2B49028  23.377   9.931   6.727
 3775POPC   C3B49029  23.309  10.140   7.138
 3775POPC   C4B49030  23.384  10.220   7.618
 3776POPC   NC349031   9.086  16.464   5.097
 3776POPC   PO449032   8.964  17.030   5.518
 3776POPC   GL149033   9.186  16.854   5.869
 3776POPC   GL249034   9.384  17.095   6.041
 3776POPC   C1A49035   9.089  16.686   6.292
 3776POPC   D2A49036   9.026  16.740   6.738
 3776POPC   C3A49037   8.751  16.467   6.985
 3776POPC   C4A49038   8.835  16.369   7.443
 3776POPC   C1B49039   8.965  17.210   6.191
 3776POPC   C2B49040   8.764  17.160   6.586
 3776POPC   C3B49041   8.905  17.145   7.017
 3776POPC   C4B49042   9.075  16.794   7.275
 3777POPC   NC349043  10.730  15.865   5.579
 3777POPC   PO449044  10.419  15.171   5.486
 3777POPC   GL149045  10.449  15.177   5.904
 3777POPC   GL249046  10.100  15.132   5.926
 3777POPC   C1A49047  10.698  14.982   6.232
 3777POPC   D2A49048  10.791  15.173   6.605
 3777POPC   C3A49049  10.827  14.945   6.929
 3777POPC   C4A49050  10.581  15.065   7.242
 3777POPC   C1B49051  10.203  15.002   6.349
 3777POPC   C2B49052  10.307  15.121   6.771
 3777POPC   C3B49053  10.194  15.403   7.102
 3777POPC   C4B49054  10.194  15.214   7.513
 3778POPC   NC349055  41.134  25.529   5.450
 3778POPC   PO449056  41.686  25.232   5.759
 3778POPC   GL149057  41.300  25.371   5.937
 3778POPC   GL249058  41.226  25.032   5.895
 3778POPC   C1A49059  41.225  25.347   6.384
 3778POPC   D2A49060  41.495  25.138   6.682
 3778POPC   C3A49061  41.521  25.348   7.071
 3778POPC   C4A49062  41.678  25.499   7.498
 3778POPC   C1B49063  41.271  24.863   6.262
 3778POPC   C2B49064  41.061  24.848   6.633
 3778POPC   C3B49065  41.230  24.868   7.041
 3778POPC   C4B49066  41.350  25.089   7.451
 3779POPC   NC349067  12.851  18.069   5.402
 3779POPC   PO449068  12.600  17.507   5.265
 3779POPC   GL149069  12.719  17.506   5.693
 3779POPC   GL249070  12.507  17.237   5.849
 3779POPC   C1A49071  12.798  17.572   6.137
 3779POPC   D2A49072  12.602  17.703   6.507
 3779POPC   C3A49073  12.820  17.779   6.880
 3779POPC   C4A49074  13.020  17.527   7.204
 3779POPC   C1B49075  12.350  17.239   6.297
 3779POPC   C2B49076  12.452  17.273   6.761
 3779POPC   C3B49077  12.595  17.206   7.197
 3779POPC   C4B49078  12.847  17.031   7.553
 3780POPC   NC349079  43.411  22.441   5.496
 3780POPC   PO449080  42.730  22.108   5.456
 3780POPC   GL149081  42.859  22.199   5.853
 3780POPC   GL249082  43.222  22.225   5.916
 3780POPC   C1A49083  42.852  22.117   6.281
 3780POPC   D2A49084  43.145  22.263   6.578
 3780POPC   C3A49085  43.041  22.451   6.945
 3780POPC   C4A49086  42.785  22.351   7.262
 3780POPC   C1B49087  43.479  22.071   6.244
 3780POPC   C2B49088  43.454  21.878   6.683
 3780POPC   C3B49089  43.421  22.106   7.096
 3780POPC   C4B49090  43.490  22.105   7.585
 3781POPC   NC349091  34.365  42.793   5.339
 3781POPC   PO449092  34.313  43.451   5.253
 3781POPC   GL149093  34.409  43.156   5.711
 3781POPC   GL249094  34.627  42.834   5.792
 3781POPC   C1A49095  34.600  43.191   6.174
 3781POPC   D2A49096  34.610  42.998   6.617
 3781POPC   C3A49097  34.615  43.241   7.010
 3781POPC   C4A49098  34.210  43.397   7.201
 3781POPC   C1B49099  34.343  42.746   6.187
 3781POPC   C2B49100  34.208  42.674   6.651
 3781POPC   C3B49101  34.351  42.793   7.092
 3781POPC   C4B49102  34.555  42.656   7.481
 3782POPC   NC349103  12.496  36.726   5.048
 3782POPC   PO449104  12.099  37.190   5.225
 3782POPC   GL149105  11.998  37.016   5.676
 3782POPC   GL249106  11.769  37.227   5.815
 3782POPC   C1A49107  12.267  36.871   6.076
 3782POPC   D2A49108  12.150  36.749   6.508
 3782POPC   C3A49109  12.370  36.836   6.910
 3782POPC   C4A49110  12.284  36.751   7.328
 3782POPC   C1B49111  11.761  36.925   6.133
 3782POPC   C2B49112  11.692  37.056   6.540
 3782POPC   C3B49113  11.847  36.903   6.900
 3782POPC   C4B49114  11.779  36.726   7.275
 3783POPC   NC349115   6.071  19.720   5.389
 3783POPC   PO449116   5.409  19.824   5.337
 3783POPC   GL149117   5.868  19.935   5.785
 3783POPC   GL249118   6.172  19.729   5.881
 3783POPC   C1A49119   5.895  19.724   6.286
 3783POPC   D2A49120   6.201  19.555   6.602
 3783POPC   C3A49121   6.077  19.671   7.023
 3783POPC   C4A49122   5.706  19.859   7.135
 3783POPC   C1B49123   6.216  20.099   6.212
 3783POPC   C2B49124   6.046  20.116   6.665
 3783POPC   C3B49125   6.138  20.189   7.128
 3783POPC   C4B49126   6.393  19.937   7.433
 3784POPC   NC349127  10.404  23.010   5.405
 3784POPC   PO449128  10.198  22.399   5.583
 3784POPC   GL149129  10.416  22.693   5.841
 3784POPC   GL249130  10.603  22.997   5.879
 3784POPC   C1A49131  10.383  22.741   6.279
 3784POPC   D2A49132  10.607  22.739   6.634
 3784POPC   C3A49133  10.384  22.852   6.963
 3784POPC   C4A49134  10.470  22.884   7.373
 3784POPC   C1B49135  10.871  22.903   6.227
 3784POPC   C2B49136  10.965  23.104   6.595
 3784POPC   C3B49137  10.829  23.111   6.979
 3784POPC   C4B49138  11.008  23.198   7.355
 3785POPC   NC349139   5.397  43.310   5.435
 3785POPC   PO449140   6.023  43.216   5.138
 3785POPC   GL149141   6.018  43.249   5.627
 3785POPC   GL249142   5.726  43.029   5.715
 3785POPC   C1A49143   6.053  43.211   6.121
 3785POPC   D2A49144   5.926  43.302   6.581
 3785POPC   C3A49145   6.008  43.121   6.999
 3785POPC   C4A49146   5.884  42.939   7.400
 3785POPC   C1B49147   5.561  43.079   6.136
 3785POPC   C2B49148   5.558  42.929   6.536
 3785POPC   C3B49149   5.512  43.048   6.936
 3785POPC   C4B49150   5.420  42.818   7.287
 3786POPC   NC349151   4.272  22.423   5.384
 3786POPC   PO449152   3.899  21.816   5.397
 3786POPC   GL149153   4.084  22.137   5.742
 3786POPC   GL249154   4.481  22.272   5.827
 3786POPC   C1A49155   4.072  22.379   6.131
 3786POPC   D2A49156   4.115  22.181   6.528
 3786POPC   C3A49157   4.461  22.151   6.847
 3786POPC   C4A49158   4.338  22.112   7.269
 3786POPC   C1B49159   4.552  22.388   6.305
 3786POPC   C2B49160   4.399  22.621   6.714
 3786POPC   C3B49161   4.638  22.500   7.149
 3786POPC   C4B49162   4.737  22.313   7.603
 3787POPC   NC349163  29.521  10.778   5.518
 3787POPC   PO449164  29.034  10.357   5.309
 3787POPC   GL149165  28.915  10.409   5.738
 3787POPC   GL249166  29.059  10.724   5.878
 3787POPC   C1A49167  28.859  10.259   6.153
 3787POPC   D2A49168  29.077  10.437   6.507
 3787POPC   C3A49169  29.067  10.327   6.932
 3787POPC   C4A49170  29.141  10.586   7.296
 3787POPC   C1B49171  29.183  10.897   6.302
 3787POPC   C2B49172  29.233  10.855   6.782
 3787POPC   C3B49173  29.526  10.890   7.107
 3787POPC   C4B49174  29.533  10.829   7.535
 3788POPC   NC349175   3.471  21.803   5.569
 3788POPC   PO449176   3.088  22.395   5.489
 3788POPC   GL149177   3.294  22.216   5.873
 3788POPC   GL249178   3.050  21.954   5.897
 3788POPC   C1A49179   3.616  22.144   6.241
 3788POPC   D2A49180   3.678  21.941   6.672
 3788POPC   C3A49181   3.861  22.261   6.959
 3788POPC   C4A49182   3.835  22.269   7.392
 3788POPC   C1B49183   3.112  22.074   6.344
 3788POPC   C2B49184   3.175  21.782   6.653
 3788POPC   C3B49185   3.336  21.749   7.049
 3788POPC   C4B49186   3.386  22.127   7.180
 3789POPC   NC349187  40.935  28.857   5.427
 3789POPC   PO449188  40.841  28.154   5.470
 3789POPC   GL149189  40.978  28.452   5.813
 3789POPC   GL249190  40.647  28.674   5.826
 3789POPC   C1A49191  41.090  28.336   6.266
 3789POPC   D2A49192  40.830  28.236   6.635
 3789POPC   C3A49193  40.950  28.337   7.074
 3789POPC   C4A49194  41.070  28.302   7.539
 3789POPC   C1B49195  40.826  28.768   6.239
 3789POPC   C2B49196  41.038  28.702   6.650
 3789POPC   C3B49197  40.837  28.838   7.049
 3789POPC   C4B49198  40.732  28.645   7.413
 3790POPC   NC349199  13.360  44.872   5.463
 3790POPC   PO449200  13.971  44.590   5.507
 3790POPC   GL149201  13.694  44.728   5.832
 3790POPC   GL249202  13.432  44.481   5.814
 3790POPC   C1A49203  13.663  44.883   6.281
 3790POPC   D2A49204  13.750  44.878   6.754
 3790POPC   C3A49205  13.453  44.790   7.102
 3790POPC   C4A49206  13.598  44.838   7.544
 3790POPC   C1B49207  13.714  44.319   6.134
 3790POPC   C2B49208  13.593  44.408   6.507
 3790POPC   C3B49209  13.689  44.356   6.888
 3790POPC   C4B49210  13.854  44.509   7.253
 3791POPC   NC349211  28.107  23.468   5.444
 3791POPC   PO449212  28.723  23.729   5.560
 3791POPC   GL149213  28.443  23.617   5.890
 3791POPC   GL249214  28.128  23.761   5.870
 3791POPC   C1A49215  28.417  23.707   6.355
 3791POPC   D2A49216  28.686  23.564   6.715
 3791POPC   C3A49217  28.722  23.720   7.157
 3791POPC   C4A49218  28.564  23.482   7.548
 3791POPC   C1B49219  28.030  23.413   6.163
 3791POPC   C2B49220  28.030  23.378   6.616
 3791POPC   C3B49221  28.257  23.474   7.017
 3791POPC   C4B49222  28.243  23.840   7.322
 3792POPC   NC349223  19.197  28.062   5.476
 3792POPC   PO449224  19.128  28.707   5.714
 3792POPC   GL149225  19.051  28.298   5.886
 3792POPC   GL249226  18.729  28.199   5.827
 3792POPC   C1A49227  19.036  28.106   6.272
 3792POPC   D2A49228  19.298  28.283   6.576
 3792POPC   C3A49229  19.180  28.207   6.963
 3792POPC   C4A49230  19.005  28.406   7.280
 3792POPC   C1B49231  18.791  28.535   6.249
 3792POPC   C2B49232  18.856  28.589   6.735
 3792POPC   C3B49233  18.596  28.687   7.145
 3792POPC   C4B49234  18.632  28.571   7.615
 3793POPC   NC349235  36.657  44.179   5.433
 3793POPC   PO449236  37.356  44.014   5.437
 3793POPC   GL149237  37.080  43.967   5.809
 3793POPC   GL249238  36.990  44.310   5.842
 3793POPC   C1A49239  36.736  43.822   6.151
 3793POPC   D2A49240  36.546  43.906   6.599
 3793POPC   C3A49241  36.763  43.772   7.016
 3793POPC   C4A49242  37.022  43.815   7.424
 3793POPC   C1B49243  37.062  44.179   6.284
 3793POPC   C2B49244  37.073  43.802   6.577
 3793POPC   C3B49245  37.249  43.942   6.973
 3793POPC   C4B49246  37.262  44.387   7.076
 3794POPC   NC349247  23.803   5.584   5.589
 3794POPC   PO449248  23.450   6.160   5.402
 3794POPC   GL149249  23.772   6.074   5.749
 3794POPC   GL249250  24.126   6.223   5.691
 3794POPC   C1A49251  23.726   5.793   6.164
 3794POPC   D2A49252  23.738   5.497   6.538
 3794POPC   C3A49253  23.563   5.644   6.898
 3794POPC   C4A49254  23.657   5.903   7.201
 3794POPC   C1B49255  24.017   6.300   6.134
 3794POPC   C2B49256  23.840   6.102   6.532
 3794POPC   C3B49257  24.024   5.897   6.846
 3794POPC   C4B49258  24.048   6.228   7.105
 3795POPC   NC349259   1.436  30.134   5.501
 3795POPC   PO449260   0.895  30.028   5.303
 3795POPC   GL149261   0.985  29.767   5.687
 3795POPC   GL249262   1.356  29.699   5.819
 3795POPC   C1A49263   0.950  29.850   6.141
 3795POPC   D2A49264   0.991  30.128   6.529
 3795POPC   C3A49265   1.060  29.947   6.949
 3795POPC   C4A49266   1.434  30.049   7.152
 3795POPC   C1B49267   1.438  29.854   6.274
 3795POPC   C2B49268   1.497  29.745   6.733
 3795POPC   C3B49269   1.409  29.524   7.156
 3795POPC   C4B49270   1.512  29.293   7.584
 3796POPC   NC349271   0.691  42.701   5.405
 3796POPC   PO449272   0.189  42.205   5.391
 3796POPC   GL149273   0.324  42.360   5.780
 3796POPC   GL249274   0.687  42.337   5.761
 3796POPC   C1A49275   0.182  42.391   6.231
 3796POPC   D2A49276   0.274  42.565   6.664
 3796POPC   C3A49277   0.304  42.366   7.079
 3796POPC   C4A49278   0.200  42.283   7.551
 3796POPC   C1B49279   0.711  42.421   6.190
 3796POPC   C2B49280   0.690  42.173   6.576
 3796POPC   C3B49281   0.913  42.076   6.978
 3796POPC   C4B49282   0.687  42.183   7.350
 3797POPC   NC349283  16.016   5.256   5.416
 3797POPC   PO449284  15.898   4.623   5.215
 3797POPC   GL149285  15.957   4.833   5.708
 3797POPC   GL249286  15.736   5.117   5.845
 3797POPC   C1A49287  16.020   4.804   6.176
 3797POPC   D2A49288  15.834   4.860   6.621
 3797POPC   C3A49289  16.012   5.023   7.070
 3797POPC   C4A49290  16.090   5.004   7.570
 3797POPC   C1B49291  15.910   5.327   6.190
 3797POPC   C2B49292  15.794   5.533   6.582
 3797POPC   C3B49293  15.693   5.438   6.993
 3797POPC   C4B49294  15.900   5.443   7.358
 3798POPC   NC349295  32.775  29.275   5.504
 3798POPC   PO449296  33.381  29.314   5.505
 3798POPC   GL149297  33.067  29.150   5.885
 3798POPC   GL249298  32.753  28.898   5.839
 3798POPC   C1A49299  33.074  28.979   6.317
 3798POPC   D2A49300  33.289  29.132   6.687
 3798POPC   C3A49301  33.107  29.265   7.056
 3798POPC   C4A49302  33.235  29.135   7.449
 3798POPC   C1B49303  32.571  28.821   6.255
 3798POPC   C2B49304  32.670  29.025   6.665
 3798POPC   C3B49305  32.621  29.099   7.089
 3798POPC   C4B49306  32.733  29.330   7.445
 3799POPC   NC349307  16.056  19.146   5.475
 3799POPC   PO449308  16.196  18.472   5.233
 3799POPC   GL149309  15.999  18.705   5.734
 3799POPC   GL249310  15.800  19.070   5.895
 3799POPC   C1A49311  16.032  18.800   6.224
 3799POPC   D2A49312  16.211  18.741   6.636
 3799POPC   C3A49313  16.138  18.976   7.026
 3799POPC   C4A49314  15.939  18.854   7.388
 3799POPC   C1B49315  15.609  19.106   6.306
 3799POPC   C2B49316  15.790  19.158   6.706
 3799POPC   C3B49317  15.649  19.184   7.136
 3799POPC   C4B49318  15.727  19.263   7.592
 3800POPC   NC349319  35.124  28.557   5.391
 3800POPC   PO449320  35.671  28.804   5.721
 3800POPC   GL149321  35.404  28.461   5.857
 3800POPC   GL249322  35.142  28.631   5.888
 3800POPC   C1A49323  35.232  28.323   6.290
 3800POPC   D2A49324  35.482  28.316   6.675
 3800POPC   C3A49325  35.370  28.148   7.078
 3800POPC   C4A49326  35.523  28.487   7.330
 3800POPC   C1B49327  34.879  28.738   6.214
 3800POPC   C2B49328  34.872  28.618   6.610
 3800POPC   C3B49329  35.113  28.561   6.937
 3800POPC   C4B49330  34.964  28.637   7.288
 3801POPC   NC349331  31.102   6.961   5.478
 3801POPC   PO449332  31.620   6.551   5.261
 3801POPC   GL149333  31.546   6.590   5.695
 3801POPC   GL249334  31.489   6.943   5.841
 3801POPC   C1A49335  31.573   6.520   6.113
 3801POPC   D2A49336  31.311   6.506   6.457
 3801POPC   C3A49337  31.429   6.457   6.859
 3801POPC   C4A49338  31.659   6.412   7.209
 3801POPC   C1B49339  31.284   6.977   6.273
 3801POPC   C2B49340  31.346   6.953   6.751
 3801POPC   C3B49341  31.405   6.873   7.212
 3801POPC   C4B49342  31.418   7.062   7.638
 3802POPC   NC349343  31.897  18.642   5.333
 3802POPC   PO449344  32.243  18.002   5.349
 3802POPC   GL149345  32.203  18.254   5.737
 3802POPC   GL249346  31.906  18.473   5.815
 3802POPC   C1A49347  32.240  18.387   6.181
 3802POPC   D2A49348  32.120  18.250   6.592
 3802POPC   C3A49349  32.463  18.215   6.876
 3802POPC   C4A49350  32.478  18.148   7.311
 3802POPC   C1B49351  31.774  18.569   6.247
 3802POPC   C2B49352  32.011  18.750   6.608
 3802POPC   C3B49353  32.139  18.612   7.013
 3802POPC   C4B49354  31.994  18.283   7.274
 3803POPC   NC349355  44.989  13.758   5.362
 3803POPC   PO449356  44.333  13.584   5.457
 3803POPC   GL149357  44.485  13.824   5.818
 3803POPC   GL249358  44.817  13.909   5.839
 3803POPC   C1A49359  44.419  13.898   6.250
 3803POPC   D2A49360  44.446  13.666   6.650
 3803POPC   C3A49361  44.500  13.816   7.058
 3803POPC   C4A49362  44.716  13.618   7.382
 3803POPC   C1B49363  44.930  13.925   6.265
 3803POPC   C2B49364  44.839  14.048   6.703
 3803POPC   C3B49365   0.047  13.891   7.083
 3803POPC   C4B49366   0.146  13.840   7.528
 3804POPC   NC349367  43.588   8.766   5.404
 3804POPC   PO449368  44.065   9.211   5.295
 3804POPC   GL149369  43.954   9.059   5.712
 3804POPC   GL249370  43.948   8.694   5.773
 3804POPC   C1A49371  43.774   9.033   6.138
 3804POPC   D2A49372  43.521   8.955   6.517
 3804POPC   C3A49373  43.733   9.052   6.895
 3804POPC   C4A49374  43.737   8.982   7.334
 3804POPC   C1B49375  44.264   8.794   6.103
 3804POPC   C2B49376  44.269   8.732   6.570
 3804POPC   C3B49377  44.033   8.628   6.965
 3804POPC   C4B49378  44.061   8.611   7.402
 3805POPC   NC349379  31.673  13.932   5.499
 3805POPC   PO449380  31.043  13.646   5.441
 3805POPC   GL149381  31.310  13.607   5.820
 3805POPC   GL249382  31.515  13.281   5.843
 3805POPC   C1A49383  31.444  13.735   6.234
 3805POPC   D2A49384  31.390  14.032   6.575
 3805POPC   C3A49385  31.487  13.884   6.981
 3805POPC   C4A49386  31.157  13.880   7.253
 3805POPC   C1B49387  31.747  13.326   6.241
 3805POPC   C2B49388  31.709  13.539   6.663
 3805POPC   C3B49389  31.641  13.403   7.113
 3805POPC   C4B49390  31.833  13.504   7.557
 3806POPC   NC349391  19.685   1.628   5.501
 3806POPC   PO449392  19.983   0.955   5.322
 3806POPC   GL149393  19.755   1.153   5.664
 3806POPC   GL249394  20.003   1.281   5.801
 3806POPC   C1A49395  19.607   1.092   6.090
 3806POPC   D2A49396  19.746   1.020   6.526
 3806POPC   C3A49397  19.618   1.202   6.906
 3806POPC   C4A49398  19.671   1.032   7.302
 3806POPC   C1B49399  19.925   1.485   6.176
 3806POPC   C2B49400  20.128   1.417   6.557
 3806POPC   C3B49401  20.040   1.475   6.984
 3806POPC   C4B49402  19.850   1.489   7.382
 3807POPC   NC349403  39.443  26.261   5.403
 3807POPC   PO449404  38.832  25.979   5.261
 3807POPC   GL149405  39.089  25.961   5.644
 3807POPC   GL249406  38.915  25.710   5.776
 3807POPC   C1A49407  39.226  26.110   6.070
 3807POPC   D2A49408  39.199  26.390   6.464
 3807POPC   C3A49409  39.207  26.321   6.922
 3807POPC   C4A49410  39.274  26.208   7.362
 3807POPC   C1B49411  38.831  25.596   6.174
 3807POPC   C2B49412  38.939  25.910   6.442
 3807POPC   C3B49413  38.941  25.901   6.850
 3807POPC   C4B49414  38.838  26.070   7.230
 3808POPC   NC349415   1.663   6.662   5.238
 3808POPC   PO449416   1.088   7.026   5.212
 3808POPC   GL149417   1.153   6.914   5.689
 3808POPC   GL249418   0.948   6.620   5.806
 3808POPC   C1A49419   1.254   6.843   6.175
 3808POPC   D2A49420   1.492   7.001   6.578
 3808POPC   C3A49421   1.389   6.817   6.981
 3808POPC   C4A49422   1.617   6.471   7.156
 3808POPC   C1B49423   0.971   6.419   6.234
 3808POPC   C2B49424   1.176   6.506   6.640
 3808POPC   C3B49425   1.112   6.407   7.103
 3808POPC   C4B49426   0.996   6.552   7.540
 3809POPC   NC349427  40.314  41.507   5.549
 3809POPC   PO449428  39.657  41.282   5.411
 3809POPC   GL149429  39.819  41.525   5.784
 3809POPC   GL249430  39.514  41.689   5.902
 3809POPC   C1A49431  40.076  41.490   6.179
 3809POPC   D2A49432  40.316  41.353   6.525
 3809POPC   C3A49433  40.212  41.467   6.949
 3809POPC   C4A49434  40.207  41.329   7.346
 3809POPC   C1B49435  39.552  41.518   6.310
 3809POPC   C2B49436  39.745  41.428   6.703
 3809POPC   C3B49437  39.653  41.567   7.098
 3809POPC   C4B49438  39.566  41.804   7.419
 3810POPC   NC349439  24.624  37.902   5.336
 3810POPC   PO449440  24.142  37.481   5.450
 3810POPC   GL149441  24.273  37.652   5.808
 3810POPC   GL249442  24.640  37.723   5.816
 3810POPC   C1A49443  24.342  37.687   6.255
 3810POPC   D2A49444  24.053  37.645   6.592
 3810POPC   C3A49445  24.270  37.650   6.970
 3810POPC   C4A49446  24.558  37.683   7.315
 3810POPC   C1B49447  24.780  37.951   6.190
 3810POPC   C2B49448  24.721  37.783   6.608
 3810POPC   C3B49449  24.933  37.751   6.974
 3810POPC   C4B49450  24.966  37.973   7.376
 3811POPC   NC349451  10.677  32.602   5.125
 3811POPC   PO449452  10.477  32.049   5.405
 3811POPC   GL149453  10.351  32.235   5.786
 3811POPC   GL249454  10.079  32.517   5.734
 3811POPC   C1A49455  10.495  32.165   6.223
 3811POPC   D2A49456  10.346  32.208   6.646
 3811POPC   C3A49457  10.565  32.041   6.941
 3811POPC   C4A49458  10.574  32.281   7.269
 3811POPC   C1B49459  10.082  32.561   6.178
 3811POPC   C2B49460   9.960  32.541   6.601
 3811POPC   C3B49461  10.207  32.672   6.956
 3811POPC   C4B49462  10.168  32.586   7.398
 3812POPC   NC349463  39.349  43.790   5.148
 3812POPC   PO449464  38.759  43.995   5.287
 3812POPC   GL149465  39.054  43.867   5.704
 3812POPC   GL249466  39.323  44.083   5.793
 3812POPC   C1A49467  38.990  43.982   6.190
 3812POPC   D2A49468  39.032  44.146   6.643
 3812POPC   C3A49469  39.164  43.860   6.990
 3812POPC   C4A49470  39.476  43.549   7.075
 3812POPC   C1B49471  39.544  44.100   6.190
 3812POPC   C2B49472  39.552  44.263   6.610
 3812POPC   C3B49473  39.616  44.090   7.005
 3812POPC   C4B49474  39.656  43.963   7.446
 3813POPC   NC349475  42.696  31.746   5.610
 3813POPC   PO449476  43.156  31.352   5.348
 3813POPC   GL149477  43.177  31.379   5.789
 3813POPC   GL249478  43.020  31.637   5.990
 3813POPC   C1A49479  43.122  31.196   6.218
 3813POPC   D2A49480  43.382  31.190   6.582
 3813POPC   C3A49481  43.137  31.143   6.946
 3813POPC   C4A49482  43.112  31.488   7.134
 3813POPC   C1B49483  43.050  31.908   6.337
 3813POPC   C2B49484  42.995  31.601   6.647
 3813POPC   C3B49485  42.656  31.428   6.864
 3813POPC   C4B49486  42.651  31.296   7.293
 3814POPC   NC349487  17.481   2.851   5.542
 3814POPC   PO449488  17.890   2.255   5.412
 3814POPC   GL149489  17.638   2.415   5.828
 3814POPC   GL249490  17.722   2.766   5.989
 3814POPC   C1A49491  17.411   2.503   6.281
 3814POPC   D2A49492  17.520   2.710   6.724
 3814POPC   C3A49493  17.459   2.666   7.203
 3814POPC   C4A49494  17.325   2.509   7.664
 3814POPC   C1B49495  17.572   3.053   6.337
 3814POPC   C2B49496  17.545   3.205   6.805
 3814POPC   C3B49497  17.783   3.131   7.200
 3814POPC   C4B49498  17.970   3.117   7.628
 3815POPC   NC349499  33.578  37.391   5.369
 3815POPC   PO449500  34.000  37.935   5.291
 3815POPC   GL149501  33.986  37.609   5.633
 3815POPC   GL249502  33.720  37.797   5.765
 3815POPC   C1A49503  33.937  37.471   6.103
 3815POPC   D2A49504  33.922  37.730   6.539
 3815POPC   C3A49505  33.866  37.584   6.990
 3815POPC   C4A49506  33.841  37.398   7.402
 3815POPC   C1B49507  33.514  37.722   6.198
 3815POPC   C2B49508  33.421  37.791   6.623
 3815POPC   C3B49509  33.361  37.902   7.054
 3815POPC   C4B49510  33.497  37.800   7.486
 3816POPC   NC349511  29.920  14.501   5.384
 3816POPC   PO449512  29.557  14.916   5.799
 3816POPC   GL149513  29.700  14.498   5.870
 3816POPC   GL249514  30.042  14.359   5.855
 3816POPC   C1A49515  29.768  14.348   6.286
 3816POPC   D2A49516  29.526  14.452   6.637
 3816POPC   C3A49517  29.447  14.103   6.856
 3816POPC   C4A49518  29.600  14.102   7.245
 3816POPC   C1B49519  30.212  14.615   6.203
 3816POPC   C2B49520  30.063  14.635   6.636
 3816POPC   C3B49521  30.004  14.445   7.039
 3816POPC   C4B49522  29.941  14.684   7.411
 3817POPC   NC349523   2.361  37.639   5.374
 3817POPC   PO449524   1.834  38.005   5.511
 3817POPC   GL149525   2.124  37.802   5.822
 3817POPC   GL249526   2.260  37.438   5.844
 3817POPC   C1A49527   1.982  37.662   6.234
 3817POPC   D2A49528   1.708  37.730   6.588
 3817POPC   C3A49529   1.901  37.641   7.009
 3817POPC   C4A49530   1.982  37.691   7.507
 3817POPC   C1B49531   2.409  37.397   6.294
 3817POPC   C2B49532   2.284  37.352   6.751
 3817POPC   C3B49533   2.434  37.162   7.163
 3817POPC   C4B49534   2.341  37.338   7.611
 3818POPC   NC349535  23.379  11.438   5.437
 3818POPC   PO449536  22.756  11.209   5.323
 3818POPC   GL149537  22.948  11.206   5.744
 3818POPC   GL249538  23.222  10.952   5.730
 3818POPC   C1A49539  22.879  11.379   6.185
 3818POPC   D2A49540  22.771  11.110   6.556
 3818POPC   C3A49541  22.931  11.183   6.977
 3818POPC   C4A49542  22.829  11.458   7.307
 3818POPC   C1B49543  23.151  10.950   6.188
 3818POPC   C2B49544  23.281  10.903   6.635
 3818POPC   C3B49545  23.379  10.937   7.086
 3818POPC   C4B49546  23.197  11.137   7.438
 3819POPC   NC349547   3.466  37.068   5.274
 3819POPC   PO449548   2.924  36.682   5.384
 3819POPC   GL149549   3.179  36.949   5.710
 3819POPC   GL249550   3.541  37.128   5.773
 3819POPC   C1A49551   3.316  36.877   6.141
 3819POPC   D2A49552   3.557  36.892   6.511
 3819POPC   C3A49553   3.377  36.965   6.903
 3819POPC   C4A49554   3.519  37.008   7.324
 3819POPC   C1B49555   3.803  37.170   6.165
 3819POPC   C2B49556   3.826  37.315   6.647
 3819POPC   C3B49557   3.894  37.265   7.140
 3819POPC   C4B49558   3.719  37.341   7.644
 3820POPC   NC349559  41.509  44.496   5.473
 3820POPC   PO449560  41.250   0.072   5.590
 3820POPC   GL149561  41.356  44.791   5.881
 3820POPC   GL249562  41.706  44.811   5.882
 3820POPC   C1A49563  41.389  44.681   6.295
 3820POPC   D2A49564  41.727  44.638   6.559
 3820POPC   C3A49565  41.564  44.633   6.942
 3820POPC   C4A49566  41.461  44.840   7.284
 3820POPC   C1B49567  41.794  44.393   6.096
 3820POPC   C2B49568  41.823  44.155   6.492
 3820POPC   C3B49569  41.946  44.215   6.896
 3820POPC   C4B49570  41.863  44.405   7.282
 3821POPC   NC349571  10.958  26.089   5.470
 3821POPC   PO449572  11.556  25.812   5.420
 3821POPC   GL149573  11.370  26.017   5.766
 3821POPC   GL249574  11.122  25.755   5.812
 3821POPC   C1A49575  11.268  26.246   6.182
 3821POPC   D2A49576  11.563  26.302   6.553
 3821POPC   C3A49577  11.469  26.171   6.999
 3821POPC   C4A49578  11.446  26.190   7.457
 3821POPC   C1B49579  11.356  25.746   6.193
 3821POPC   C2B49580  11.254  25.884   6.603
 3821POPC   C3B49581  11.154  25.750   7.009
 3821POPC   C4B49582  10.990  25.983   7.339
 3822POPC   NC349583  12.818   3.014   5.406
 3822POPC   PO449584  13.303   2.618   5.197
 3822POPC   GL149585  12.986   2.579   5.700
 3822POPC   GL249586  12.679   2.727   5.790
 3822POPC   C1A49587  12.907   2.485   6.165
 3822POPC   D2A49588  12.805   2.484   6.620
 3822POPC   C3A49589  13.204   2.594   6.811
 3822POPC   C4A49590  13.338   2.850   7.155
 3822POPC   C1B49591  12.739   2.983   6.141
 3822POPC   C2B49592  12.953   2.975   6.535
 3822POPC   C3B49593  12.783   2.909   6.933
 3822POPC   C4B49594  12.911   3.054   7.316
 3823POPC   NC349595  12.219  16.481   5.503
 3823POPC   PO449596  12.088  15.885   5.342
 3823POPC   GL149597  11.986  15.918   5.736
 3823POPC   GL249598  11.732  16.147   5.775
 3823POPC   C1A49599  12.002  16.006   6.177
 3823POPC   D2A49600  11.870  15.777   6.519
 3823POPC   C3A49601  12.136  15.807   6.827
 3823POPC   C4A49602  11.986  15.766   7.209
 3823POPC   C1B49603  11.596  16.333   6.149
 3823POPC   C2B49604  11.709  16.260   6.527
 3823POPC   C3B49605  11.727  16.119   6.914
 3823POPC   C4B49606  11.763  16.333   7.289
 3824POPC   NC349607  24.422   7.108   5.421
 3824POPC   PO449608  24.705   7.831   5.348
 3824POPC   GL149609  24.655   7.686   5.765
 3824POPC   GL249610  24.692   7.292   5.830
 3824POPC   C1A49611  24.681   7.619   6.224
 3824POPC   D2A49612  24.757   7.392   6.626
 3824POPC   C3A49613  24.625   7.587   7.025
 3824POPC   C4A49614  24.259   7.770   7.196
 3824POPC   C1B49615  24.451   7.135   6.222
 3824POPC   C2B49616  24.538   6.925   6.635
 3824POPC   C3B49617  24.534   7.086   7.035
 3824POPC   C4B49618  24.102   7.303   7.094
 3825POPC   NC349619  23.426  13.187   5.580
 3825POPC   PO449620  23.963  12.868   5.368
 3825POPC   GL149621  23.853  12.981   5.800
 3825POPC   GL249622  23.556  12.782   5.845
 3825POPC   C1A49623  23.749  13.030   6.255
 3825POPC   D2A49624  23.542  12.762   6.548
 3825POPC   C3A49625  23.604  12.908   6.942
 3825POPC   C4A49626  23.859  13.174   7.163
 3825POPC   C1B49627  23.756  12.529   6.122
 3825POPC   C2B49628  23.841  12.358   6.522
 3825POPC   C3B49629  23.871  12.458   6.928
 3825POPC   C4B49630  23.864  12.673   7.287
 3826POPC   NC349631  44.800  44.602   5.381
 3826POPC   PO449632   0.476  44.559   5.274
 3826POPC   GL149633   0.393  44.531   5.732
 3826POPC   GL249634   0.353  44.885   5.762
 3826POPC   C1A49635   0.544  44.550   6.172
 3826POPC   D2A49636   0.759  44.382   6.558
 3826POPC   C3A49637   0.587  44.519   6.981
 3826POPC   C4A49638   0.332  44.538   7.373
 3826POPC   C1B49639   0.282  44.998   6.201
 3826POPC   C2B49640   0.279  44.788   6.601
 3826POPC   C3B49641   0.210  44.926   7.031
 3826POPC   C4B49642   0.081   0.082   7.407
 3827POPC   NC349643  28.461   2.987   5.338
 3827POPC   PO449644  28.117   2.547   5.597
 3827POPC   GL149645  28.432   2.535   5.870
 3827POPC   GL249646  28.438   2.886   5.904
 3827POPC   C1A49647  28.514   2.518   6.307
 3827POPC   D2A49648  28.595   2.768   6.638
 3827POPC   C3A49649  28.525   2.480   6.937
 3827POPC   C4A49650  28.603   2.518   7.342
 3827POPC   C1B49651  28.265   2.977   6.312
 3827POPC   C2B49652  28.181   3.052   6.767
 3827POPC   C3B49653  28.218   2.826   7.153
 3827POPC   C4B49654  28.313   2.878   7.567
 3828POPC   NC349655  34.815  13.885   5.381
 3828POPC   PO449656  34.363  13.301   5.450
 3828POPC   GL149657  34.432  13.509   5.851
 3828POPC   GL249658  34.734  13.637   5.837
 3828POPC   C1A49659  34.452  13.764   6.224
 3828POPC   D2A49660  34.625  13.752   6.622
 3828POPC   C3A49661  34.478  14.006   6.945
 3828POPC   C4A49662  34.345  13.891   7.365
 3828POPC   C1B49663  34.991  13.564   6.205
 3828POPC   C2B49664  35.143  13.720   6.609
 3828POPC   C3B49665  34.992  13.885   6.977
 3828POPC   C4B49666  34.850  13.727   7.332
 3829POPC   NC349667  14.422  39.390   5.207
 3829POPC   PO449668  14.887  39.494   5.652
 3829POPC   GL149669  14.576  39.252   5.850
 3829POPC   GL249670  14.326  38.991   5.781
 3829POPC   C1A49671  14.480  39.184   6.265
 3829POPC   D2A49672  14.198  39.396   6.498
 3829POPC   C3A49673  14.329  39.298   6.905
 3829POPC   C4A49674  14.230  39.508   7.292
 3829POPC   C1B49675  14.085  38.886   6.159
 3829POPC   C2B49676  14.205  38.874   6.599
 3829POPC   C3B49677  14.026  38.880   7.018
 3829POPC   C4B49678  14.306  39.008   7.329
 3830POPC   NC349679   8.716  43.589   5.382
 3830POPC   PO449680   9.150  44.111   5.532
 3830POPC   GL149681   8.868  43.908   5.804
 3830POPC   GL249682   9.113  43.662   5.909
 3830POPC   C1A49683   8.744  43.786   6.239
 3830POPC   D2A49684   8.798  43.511   6.602
 3830POPC   C3A49685   8.928  43.660   7.004
 3830POPC   C4A49686   8.803  43.983   7.253
 3830POPC   C1B49687   9.225  43.615   6.337
 3830POPC   C2B49688   9.130  43.947   6.626
 3830POPC   C3B49689   9.286  44.119   7.004
 3830POPC   C4B49690   9.313  43.855   7.373
 3831POPC   NC349691   5.390  34.520   5.168
 3831POPC   PO449692   4.834  34.755   5.483
 3831POPC   GL149693   4.706  34.551   5.834
 3831POPC   GL249694   5.020  34.443   6.008
 3831POPC   C1A49695   4.725  34.743   6.261
 3831POPC   D2A49696   5.143  34.712   6.522
 3831POPC   C3A49697   5.093  34.586   6.948
 3831POPC   C4A49698   4.950  34.822   7.293
 3831POPC   C1B49699   5.271  34.256   6.313
 3831POPC   C2B49700   5.474  34.326   6.694
 3831POPC   C3B49701   5.483  34.250   7.125
 3831POPC   C4B49702   5.366  34.555   7.398
 3832POPC   NC349703  25.633  38.197   5.354
 3832POPC   PO449704  25.051  37.890   5.522
 3832POPC   GL149705  25.170  37.695   5.890
 3832POPC   GL249706  25.518  37.795   5.792
 3832POPC   C1A49707  25.122  37.586   6.333
 3832POPC   D2A49708  25.034  37.300   6.642
 3832POPC   C3A49709  25.254  37.315   6.998
 3832POPC   C4A49710  25.109  37.482   7.368
 3832POPC   C1B49711  25.588  37.510   6.134
 3832POPC   C2B49712  25.599  37.629   6.576
 3832POPC   C3B49713  25.465  37.770   6.984
 3832POPC   C4B49714  25.629  37.670   7.350
 3833POPC   NC349715   4.203  29.945   5.326
 3833POPC   PO449716   4.768  29.885   5.261
 3833POPC   GL149717   4.536  29.764   5.689
 3833POPC   GL249718   4.194  29.951   5.814
 3833POPC   C1A49719   4.439  29.714   6.162
 3833POPC   D2A49720   4.399  29.944   6.515
 3833POPC   C3A49721   4.453  29.765   6.924
 3833POPC   C4A49722   4.298  29.895   7.341
 3833POPC   C1B49723   3.912  29.759   6.101
 3833POPC   C2B49724   3.810  29.767   6.540
 3833POPC   C3B49725   3.944  29.847   6.955
 3833POPC   C4B49726   3.863  29.586   7.320
 3834POPC   NC349727  38.903   2.516   5.410
 3834POPC   PO449728  38.354   2.899   5.266
 3834POPC   GL149729  38.388   2.632   5.675
 3834POPC   GL249730  38.717   2.724   5.822
 3834POPC   C1A49731  38.132   2.679   6.087
 3834POPC   D2A49732  38.239   2.819   6.518
 3834POPC   C3A49733  38.091   2.664   6.907
 3834POPC   C4A49734  38.265   2.721   7.327
 3834POPC   C1B49735  38.606   2.528   6.191
 3834POPC   C2B49736  38.746   2.689   6.558
 3834POPC   C3B49737  38.619   2.752   6.928
 3834POPC   C4B49738  38.715   2.502   7.235
 3835POPC   NC349739  22.831   5.294   5.207
 3835POPC   PO449740  23.504   5.380   5.288
 3835POPC   GL149741  23.278   5.205   5.705
 3835POPC   GL249742  22.899   5.132   5.865
 3835POPC   C1A49743  23.244   5.352   6.153
 3835POPC   D2A49744  23.055   5.106   6.498
 3835POPC   C3A49745  22.930   5.244   6.928
 3835POPC   C4A49746  23.087   5.129   7.321
 3835POPC   C1B49747  22.694   4.846   6.207
 3835POPC   C2B49748  22.473   4.626   6.564
 3835POPC   C3B49749  22.542   4.494   7.002
 3835POPC   C4B49750  22.680   4.832   7.304
 3836POPC   NC349751  44.899  19.251   4.987
 3836POPC   PO449752  44.318  19.182   5.429
 3836POPC   GL149753  44.557  19.266   5.820
 3836POPC   GL249754  44.881  19.137   5.715
 3836POPC   C1A49755  44.648  19.077   6.246
 3836POPC   D2A49756  44.637  19.113   6.670
 3836POPC   C3A49757  44.612  18.869   7.019
 3836POPC   C4A49758  44.559  19.087   7.392
 3836POPC   C1B49759   0.096  18.936   6.069
 3836POPC   C2B49760   0.107  18.864   6.519
 3836POPC   C3B49761   0.085  19.055   6.934
 3836POPC   C4B49762   0.037  18.858   7.331
 3837POPC   NC349763  40.882  31.682   5.513
 3837POPC   PO449764  40.851  31.016   5.612
 3837POPC   GL149765  40.644  31.346   5.880
 3837POPC   GL249766  40.675  31.725   5.962
 3837POPC   C1A49767  40.620  31.396   6.349
 3837POPC   D2A49768  40.855  31.520   6.741
 3837POPC   C3A49769  40.721  31.300   7.093
 3837POPC   C4A49770  40.296  31.122   7.183
 3837POPC   C1B49771  41.035  31.690   6.254
 3837POPC   C2B49772  41.153  31.931   6.627
 3837POPC   C3B49773  41.084  31.876   7.085
 3837POPC   C4B49774  40.845  31.665   7.420
 3838POPC   NC349775  24.731  22.239   5.673
 3838POPC   PO449776  25.253  22.067   5.157
 3838POPC   GL149777  25.217  22.077   5.674
 3838POPC   GL249778  25.133  21.762   5.856
 3838POPC   C1A49779  25.269  22.319   6.136
 3838POPC   D2A49780  25.529  22.468   6.556
 3838POPC   C3A49781  25.357  22.379   6.997
 3838POPC   C4A49782  24.917  22.386   7.214
 3838POPC   C1B49783  25.413  21.842   6.215
 3838POPC   C2B49784  25.318  21.973   6.647
 3838POPC   C3B49785  25.160  21.902   7.075
 3838POPC   C4B49786  25.394  22.055   7.418
 3839POPC   NC349787  18.492  15.728   5.387
 3839POPC   PO449788  17.871  15.550   5.481
 3839POPC   GL149789  18.039  15.857   5.800
 3839POPC   GL249790  18.375  16.045   5.788
 3839POPC   C1A49791  18.144  15.920   6.230
 3839POPC   D2A49792  18.085  15.721   6.610
 3839POPC   C3A49793  18.130  15.977   6.905
 3839POPC   C4A49794  18.217  16.183   7.252
 3839POPC   C1B49795  18.536  16.295   6.146
 3839POPC   C2B49796  18.476  16.216   6.574
 3839POPC   C3B49797  18.628  16.101   6.926
 3839POPC   C4B49798  18.537  15.794   7.184
 3840POPC   NC349799  19.829  43.942   5.319
 3840POPC   PO449800  20.329  44.330   5.328
 3840POPC   GL149801  20.076  44.168   5.723
 3840POPC   GL249802  19.940  43.839   5.823
 3840POPC   C1A49803  19.861  44.176   6.167
 3840POPC   D2A49804  20.025  44.084   6.580
 3840POPC   C3A49805  19.770  44.125   6.937
 3840POPC   C4A49806  19.866  44.203   7.339
 3840POPC   C1B49807  19.969  43.669   6.251
 3840POPC   C2B49808  19.751  43.654   6.668
 3840POPC   C3B49809  19.498  43.699   7.068
 3840POPC   C4B49810  19.732  43.748   7.478
 3841POPC   NC349811  38.735  12.551   5.611
 3841POPC   PO449812  38.330  13.075   5.384
 3841POPC   GL149813  38.341  12.877   5.790
 3841POPC   GL249814  38.604  13.108   5.849
 3841POPC   C1A49815  38.356  12.803   6.269
 3841POPC   D2A49816  38.183  12.868   6.726
 3841POPC   C3A49817  38.210  12.582   7.111
 3841POPC   C4A49818  38.426  12.687   7.515
 3841POPC   C1B49819  38.839  12.990   6.209
 3841POPC   C2B49820  38.755  12.915   6.653
 3841POPC   C3B49821  38.587  12.948   7.085
 3841POPC   C4B49822  38.793  13.056   7.476
 3842POPC   NC349823  33.763   4.709   5.198
 3842POPC   PO449824  34.074   5.292   5.389
 3842POPC   GL149825  33.869   5.152   5.792
 3842POPC   GL249826  34.092   4.864   5.843
 3842POPC   C1A49827  33.720   5.196   6.250
 3842POPC   D2A49828  33.622   5.398   6.668
 3842POPC   C3A49829  33.872   5.193   6.981
 3842POPC   C4A49830  34.058   5.230   7.374
 3842POPC   C1B49831  33.990   4.718   6.270
 3842POPC   C2B49832  34.064   4.770   6.714
 3842POPC   C3B49833  34.046   4.725   7.157
 3842POPC   C4B49834  33.664   4.812   7.299
 3843POPC   NC349835  10.560  43.017   5.019
 3843POPC   PO449836  10.364  43.458   5.541
 3843POPC   GL149837  10.511  43.114   5.760
 3843POPC   GL249838  10.268  42.868   5.844
 3843POPC   C1A49839  10.564  43.102   6.196
 3843POPC   D2A49840  10.453  43.284   6.594
 3843POPC   C3A49841  10.582  43.222   7.030
 3843POPC   C4A49842  10.664  42.859   7.270
 3843POPC   C1B49843  10.200  42.682   6.207
 3843POPC   C2B49844  10.082  42.888   6.563
 3843POPC   C3B49845  10.263  42.843   6.934
 3843POPC   C4B49846  10.111  43.000   7.300
 3844POPC   NC349847  19.941  33.639   5.539
 3844POPC   PO449848  19.504  34.231   5.512
 3844POPC   GL149849  19.681  34.017   5.884
 3844POPC   GL249850  20.043  33.932   5.984
 3844POPC   C1A49851  19.615  33.755   6.263
 3844POPC   D2A49852  19.827  33.638   6.647
 3844POPC   C3A49853  19.604  33.702   7.031
 3844POPC   C4A49854  19.818  33.966   7.307
 3844POPC   C1B49855  20.070  33.488   6.167
 3844POPC   C2B49856  20.177  33.214   6.494
 3844POPC   C3B49857  20.236  33.332   6.901
 3844POPC   C4B49858  20.053  33.518   7.223
 3845POPC   NC349859  35.304   4.775   5.657
 3845POPC   PO449860  34.986   5.450   5.558
 3845POPC   GL149861  35.232   5.275   5.877
 3845POPC   GL249862  35.419   5.553   5.955
 3845POPC   C1A49863  35.241   5.049   6.287
 3845POPC   D2A49864  35.055   5.034   6.694
 3845POPC   C3A49865  35.378   4.976   7.025
 3845POPC   C4A49866  35.386   5.111   7.484
 3845POPC   C1B49867  35.587   5.618   6.305
 3845POPC   C2B49868  35.549   5.361   6.640
 3845POPC   C3B49869  35.537   5.451   7.062
 3845POPC   C4B49870  35.829   5.351   7.346
 3846POPC   NC349871   5.282  19.432   5.575
 3846POPC   PO449872   4.593  19.421   5.472
 3846POPC   GL149873   4.872  19.124   5.788
 3846POPC   GL249874   5.255  19.140   5.973
 3846POPC   C1A49875   4.907  18.911   6.228
 3846POPC   D2A49876   5.201  19.096   6.548
 3846POPC   C3A49877   5.044  19.066   6.974
 3846POPC   C4A49878   4.764  19.041   7.351
 3846POPC   C1B49879   5.372  18.741   6.218
 3846POPC   C2B49880   5.162  18.600   6.607
 3846POPC   C3B49881   5.405  18.698   6.985
 3846POPC   C4B49882   5.370  18.991   7.362
 3847POPC   NC349883  33.244  43.640   5.491
 3847POPC   PO449884  32.985  44.288   5.266
 3847POPC   GL149885  33.017  44.125   5.756
 3847POPC   GL249886  33.333  43.970   5.853
 3847POPC   C1A49887  32.894  43.992   6.203
 3847POPC   D2A49888  32.628  44.001   6.608
 3847POPC   C3A49889  32.824  43.976   7.050
 3847POPC   C4A49890  32.673  44.165   7.480
 3847POPC   C1B49891  33.303  43.702   6.225
 3847POPC   C2B49892  33.066  43.690   6.611
 3847POPC   C3B49893  33.147  43.569   7.022
 3847POPC   C4B49894  33.309  43.464   7.385
 3848POPC   NC349895  18.012  33.158   5.392
 3848POPC   PO449896  18.567  32.672   5.501
 3848POPC   GL149897  18.248  32.871   5.764
 3848POPC   GL249898  18.395  33.211   5.766
 3848POPC   C1A49899  18.219  32.896   6.213
 3848POPC   D2A49900  18.431  32.927   6.623
 3848POPC   C3A49901  18.253  32.803   7.032
 3848POPC   C4A49902  18.368  32.799   7.507
 3848POPC   C1B49903  18.137  33.376   6.083
 3848POPC   C2B49904  18.034  33.321   6.504
 3848POPC   C3B49905  18.268  33.342   6.884
 3848POPC   C4B49906  18.243  33.228   7.305
 3849POPC   NC349907  24.635   6.117   5.436
 3849POPC   PO449908  24.250   6.669   5.454
 3849POPC   GL149909  24.409   6.735   5.840
 3849POPC   GL249910  24.603   6.424   5.840
 3849POPC   C1A49911  24.396   6.606   6.272
 3849POPC   D2A49912  24.252   6.403   6.645
 3849POPC   C3A49913  24.433   6.576   7.032
 3849POPC   C4A49914  24.165   6.845   7.295
 3849POPC   C1B49915  24.838   6.348   6.213
 3849POPC   C2B49916  24.799   6.489   6.630
 3849POPC   C3B49917  24.956   6.337   7.009
 3849POPC   C4B49918  24.789   6.347   7.399
 3850POPC   NC349919  10.099  25.518   5.671
 3850POPC   PO449920  10.055  25.002   5.246
 3850POPC   GL149921   9.687  25.198   5.595
 3850POPC   GL249922   9.448  25.000   5.788
 3850POPC   C1A49923   9.617  25.388   6.092
 3850POPC   D2A49924   9.415  25.504   6.511
 3850POPC   C3A49925   9.562  25.453   6.947
 3850POPC   C4A49926   9.779  25.594   7.277
 3850POPC   C1B49927   9.558  24.896   6.212
 3850POPC   C2B49928   9.714  25.061   6.601
 3850POPC   C3B49929   9.609  24.959   7.030
 3850POPC   C4B49930   9.735  25.096   7.431
 3851POPC   NC349931  40.271  11.422   5.212
 3851POPC   PO449932  39.768  11.019   5.319
 3851POPC   GL149933  39.908  11.252   5.684
 3851POPC   GL249934  40.230  11.389   5.725
 3851POPC   C1A49935  40.039  11.150   6.128
 3851POPC   D2A49936  40.126  10.991   6.558
 3851POPC   C3A49937  40.034  11.069   6.995
 3851POPC   C4A49938  40.216  11.195   7.398
 3851POPC   C1B49939  40.310  11.584   6.161
 3851POPC   C2B49940  40.157  11.521   6.586
 3851POPC   C3B49941  40.327  11.527   6.997
 3851POPC   C4B49942  40.262  11.723   7.374
 3852POPC   NC349943  42.689   6.980   5.702
 3852POPC   PO449944  42.913   7.514   5.340
 3852POPC   GL149945  43.107   7.519   5.761
 3852POPC   GL249946  42.862   7.401   6.012
 3852POPC   C1A49947  43.352   7.290   6.103
 3852POPC   D2A49948  43.170   7.158   6.506
 3852POPC   C3A49949  43.425   7.163   6.883
 3852POPC   C4A49950  43.332   7.285   7.280
 3852POPC   C1B49951  43.061   7.770   6.247
 3852POPC   C2B49952  43.089   7.867   6.687
 3852POPC   C3B49953  43.037   7.513   6.926
 3852POPC   C4B49954  42.784   7.370   7.256
 3853POPC   NC349955   2.997  27.085   5.433
 3853POPC   PO449956   2.611  26.564   5.495
 3853POPC   GL149957   2.682  26.658   5.899
 3853POPC   GL249958   2.949  26.423   5.953
 3853POPC   C1A49959   2.874  26.897   6.239
 3853POPC   D2A49960   2.802  27.084   6.648
 3853POPC   C3A49961   2.703  26.840   7.011
 3853POPC   C4A49962   2.828  26.879   7.438
 3853POPC   C1B49963   2.845  26.401   6.369
 3853POPC   C2B49964   3.051  26.627   6.680
 3853POPC   C3B49965   3.109  26.481   7.111
 3853POPC   C4B49966   3.041  26.432   7.519
 3854POPC   NC349967  22.824  41.298   5.303
 3854POPC   PO449968  23.424  41.506   5.341
 3854POPC   GL149969  23.078  41.581   5.661
 3854POPC   GL249970  22.892  41.912   5.681
 3854POPC   C1A49971  22.967  41.341   6.041
 3854POPC   D2A49972  23.239  41.310   6.420
 3854POPC   C3A49973  23.081  41.389   6.844
 3854POPC   C4A49974  23.143  41.538   7.276
 3854POPC   C1B49975  22.709  41.788   6.091
 3854POPC   C2B49976  22.743  41.656   6.533
 3854POPC   C3B49977  22.776  41.777   6.999
 3854POPC   C4B49978  22.675  41.674   7.452
 3855POPC   NC349979   7.878   8.300   5.502
 3855POPC   PO449980   8.435   7.836   5.523
 3855POPC   GL149981   8.204   8.001   5.839
 3855POPC   GL249982   8.259   8.324   5.902
 3855POPC   C1A49983   8.298   7.942   6.275
 3855POPC   D2A49984   8.176   8.131   6.660
 3855POPC   C3A49985   8.235   7.935   7.052
 3855POPC   C4A49986   8.233   8.124   7.439
 3855POPC   C1B49987   8.522   8.395   6.278
 3855POPC   C2B49988   8.692   8.231   6.651
 3855POPC   C3B49989   8.584   8.287   7.080
 3855POPC   C4B49990   8.296   8.599   7.281
 3856POPC   NC349991  21.547   5.347   5.497
 3856POPC   PO449992  21.644   6.014   5.506
 3856POPC   GL149993  21.783   5.853   5.885
 3856POPC   GL249994  21.567   5.551   5.965
 3856POPC   C1A49995  21.687   5.879   6.341
 3856POPC   D2A49996  21.505   5.660   6.707
 3856POPC   C3A49997  21.638   5.870   7.082
 3856POPC   C4A49998  21.689   6.003   7.530
 3856POPC   C1B49999  21.216   5.714   6.235
 3856POPC   C2B50000  21.009   5.565   6.630
 3856POPC   C3B50001  21.120   5.772   7.033
 3856POPC   C4B50002  21.199   5.885   7.455
 3857POPC   NC350003  22.496  24.315   5.397
 3857POPC   PO450004  21.827  24.523   5.406
 3857POPC   GL150005  22.057  24.319   5.773
 3857POPC   GL250006  22.376  24.473   5.876
 3857POPC   C1A50007  22.076  24.196   6.220
 3857POPC   D2A50008  21.987  24.390   6.616
 3857POPC   C3A50009  22.197  24.306   7.020
 3857POPC   C4A50010  22.107  24.333   7.482
 3857POPC   C1B50011  22.313  24.680   6.303
 3857POPC   C2B50012  22.364  24.728   6.776
 3857POPC   C3B50013  22.342  24.737   7.242
 3857POPC   C4B50014  22.457  25.032   7.546
 3858POPC   NC350015   2.173  41.481   5.357
 3858POPC   PO450016   1.526  41.717   5.456
 3858POPC   GL150017   1.801  41.499   5.747
 3858POPC   GL250018   2.159  41.544   5.856
 3858POPC   C1A50019   1.777  41.447   6.186
 3858POPC   D2A50020   1.818  41.640   6.584
 3858POPC   C3A50021   1.663  41.452   6.936
 3858POPC   C4A50022   1.765  41.561   7.323
 3858POPC   C1B50023   2.306  41.415   6.249
 3858POPC   C2B50024   2.267  41.417   6.664
 3858POPC   C3B50025   2.187  41.623   7.011
 3858POPC   C4B50026   2.237  41.379   7.349
 3859POPC   NC350027  29.040  44.975   5.455
 3859POPC   PO450028  28.840  44.364   5.409
 3859POPC   GL150029  28.798  44.664   5.789
 3859POPC   GL250030  29.061  44.924   5.941
 3859POPC   C1A50031  28.800  44.561   6.217
 3859POPC   D2A50032  28.862  44.269   6.571
 3859POPC   C3A50033  29.005  44.522   6.953
 3859POPC   C4A50034  28.991  44.475   7.401
 3859POPC   C1B50035  29.225  44.818   6.320
 3859POPC   C2B50036  29.037  44.988   6.675
 3859POPC   C3B50037  29.248   0.068   7.021
 3859POPC   C4B50038  29.496  44.778   7.225
 3860POPC   NC350039  40.729  39.620   5.127
 3860POPC   PO450040  40.662  40.210   5.436
 3860POPC   GL150041  40.723  40.013   5.837
 3860POPC   GL250042  40.823  39.667   5.813
 3860POPC   C1A50043  40.754  40.141   6.272
 3860POPC   D2A50044  40.856  40.154   6.716
 3860POPC   C3A50045  40.531  40.272   7.006
 3860POPC   C4A50046  40.716  40.192   7.388
 3860POPC   C1B50047  40.958  39.645   6.264
 3860POPC   C2B50048  40.812  39.641   6.691
 3860POPC   C3B50049  40.840  39.713   7.152
 3860POPC   C4B50050  41.025  39.722   7.583
 3861POPC   NC350051  32.904  15.918   5.569
 3861POPC   PO450052  33.445  16.346   5.523
 3861POPC   GL150053  33.225  16.190   5.898
 3861POPC   GL250054  33.248  15.839   5.923
 3861POPC   C1A50055  32.899  16.106   6.236
 3861POPC   D2A50056  32.794  15.897   6.649
 3861POPC   C3A50057  33.073  15.984   6.994
 3861POPC   C4A50058  33.071  16.280   7.310
 3861POPC   C1B50059  33.102  15.622   6.265
 3861POPC   C2B50060  33.275  15.628   6.655
 3861POPC   C3B50061  33.286  15.484   7.056
 3861POPC   C4B50062  33.220  15.732   7.454
 3862POPC   NC350063  12.249   8.607   5.123
 3862POPC   PO450064  12.149   8.114   5.459
 3862POPC   GL150065  11.835   8.037   5.785
 3862POPC   GL250066  12.115   8.141   6.004
 3862POPC   C1A50067  11.720   7.932   6.235
 3862POPC   D2A50068  11.988   8.065   6.583
 3862POPC   C3A50069  11.818   8.060   6.989
 3862POPC   C4A50070  12.036   8.042   7.369
 3862POPC   C1B50071  12.116   8.484   6.295
 3862POPC   C2B50072  11.906   8.605   6.664
 3862POPC   C3B50073  12.051   8.525   7.077
 3862POPC   C4B50074  12.194   8.546   7.523
 3863POPC   NC350075  44.205  18.096   5.527
 3863POPC   PO450076  43.515  18.052   5.570
 3863POPC   GL150077  43.890  17.976   5.911
 3863POPC   GL250078  44.244  18.186   6.019
 3863POPC   C1A50079  43.923  18.028   6.363
 3863POPC   D2A50080  43.860  18.258   6.694
 3863POPC   C3A50081  44.037  18.135   7.055
 3863POPC   C4A50082  43.736  18.120   7.301
 3863POPC   C1B50083  44.256  18.526   6.351
 3863POPC   C2B50084  44.195  18.613   6.812
 3863POPC   C3B50085  43.782  18.606   7.070
 3863POPC   C4B50086  43.747  18.566   7.522
 3864POPC   NC350087  40.531  37.318   5.150
 3864POPC   PO450088  40.877  36.782   5.403
 3864POPC   GL150089  40.826  36.976   5.766
 3864POPC   GL250090  40.619  36.696   5.858
 3864POPC   C1A50091  40.957  36.998   6.200
 3864POPC   D2A50092  40.810  36.827   6.586
 3864POPC   C3A50093  40.838  37.083   6.956
 3864POPC   C4A50094  41.064  37.071   7.374
 3864POPC   C1B50095  40.335  36.529   6.166
 3864POPC   C2B50096  40.248  36.526   6.594
 3864POPC   C3B50097  40.489  36.635   6.940
 3864POPC   C4B50098  40.725  36.709   7.290
 3865POPC   NC350099  23.272  38.884   5.478
 3865POPC   PO450100  22.760  39.330   5.395
 3865POPC   GL150101  22.802  39.216   5.813
 3865POPC   GL250102  22.848  38.889   5.903
 3865POPC   C1A50103  22.924  39.275   6.245
 3865POPC   D2A50104  22.986  39.552   6.564
 3865POPC   C3A50105  22.895  39.357   6.944
 3865POPC   C4A50106  22.850  39.208   7.349
 3865POPC   C1B50107  22.533  38.935   6.227
 3865POPC   C2B50108  22.660  38.999   6.663
 3865POPC   C3B50109  22.509  38.960   7.094
 3865POPC   C4B50110  22.544  38.927   7.611
 3866POPC   NC350111  35.666  31.826   5.099
 3866POPC   PO450112  35.345  31.319   5.415
 3866POPC   GL150113  35.296  31.458   5.802
 3866POPC   GL250114  35.573  31.628   5.821
 3866POPC   C1A50115  35.289  31.420   6.212
 3866POPC   D2A50116  35.199  31.687   6.554
 3866POPC   C3A50117  35.290  31.471   6.912
 3866POPC   C4A50118  35.084  31.421   7.344
 3866POPC   C1B50119  35.585  31.842   6.227
 3866POPC   C2B50120  35.675  31.771   6.684
 3866POPC   C3B50121  35.581  31.902   7.125
 3866POPC   C4B50122  35.581  31.890   7.608
 3867POPC   NC350123  35.949  43.634   5.530
 3867POPC   PO450124  36.228  43.056   5.462
 3867POPC   GL150125  36.062  43.222   5.846
 3867POPC   GL250126  35.756  43.064   5.701
 3867POPC   C1A50127  36.142  43.160   6.320
 3867POPC   D2A50128  36.441  42.932   6.615
 3867POPC   C3A50129  36.502  43.176   6.986
 3867POPC   C4A50130  36.167  43.359   7.218
 3867POPC   C1B50131  35.720  42.925   6.129
 3867POPC   C2B50132  35.656  43.075   6.551
 3867POPC   C3B50133  35.942  43.015   6.919
 3867POPC   C4B50134  36.284  42.723   7.103
 3868POPC   NC350135  24.102  35.282   5.247
 3868POPC   PO450136  24.312  35.883   5.274
 3868POPC   GL150137  24.256  35.589   5.702
 3868POPC   GL250138  24.135  35.201   5.758
 3868POPC   C1A50139  24.327  35.553   6.202
 3868POPC   D2A50140  24.482  35.684   6.652
 3868POPC   C3A50141  24.579  35.394   7.002
 3868POPC   C4A50142  24.636  34.949   7.080
 3868POPC   C1B50143  24.210  35.038   6.198
 3868POPC   C2B50144  24.218  35.207   6.629
 3868POPC   C3B50145  24.098  35.114   7.047
 3868POPC   C4B50146  24.310  35.158   7.435
 3869POPC   NC350147  31.287  29.427   5.510
 3869POPC   PO450148  31.506  28.774   5.415
 3869POPC   GL150149  31.523  29.030   5.768
 3869POPC   GL250150  31.770  29.266   5.821
 3869POPC   C1A50151  31.283  29.113   6.116
 3869POPC   D2A50152  31.366  28.920   6.508
 3869POPC   C3A50153  31.293  29.098   6.918
 3869POPC   C4A50154  31.308  29.064   7.371
 3869POPC   C1B50155  31.746  29.234   6.278
 3869POPC   C2B50156  31.708  29.365   6.693
 3869POPC   C3B50157  31.759  29.211   7.115
 3869POPC   C4B50158  31.879  29.101   7.511
 3870POPC   NC350159  17.872  14.097   5.486
 3870POPC   PO450160  18.528  14.318   5.394
 3870POPC   GL150161  18.335  14.184   5.759
 3870POPC   GL250162  18.094  14.434   5.852
 3870POPC   C1A50163  18.286  14.142   6.213
 3870POPC   D2A50164  18.002  14.240   6.563
 3870POPC   C3A50165  18.238  14.267   6.971
 3870POPC   C4A50166  18.090  14.121   7.364
 3870POPC   C1B50167  18.160  14.639   6.251
 3870POPC   C2B50168  18.090  14.714   6.703
 3870POPC   C3B50169  17.857  14.589   7.092
 3870POPC   C4B50170  18.018  14.632   7.507
 3871POPC   NC350171  19.429  16.210   5.098
 3871POPC   PO450172  18.932  15.775   5.286
 3871POPC   GL150173  18.876  15.856   5.729
 3871POPC   GL250174  18.711  15.600   5.889
 3871POPC   C1A50175  19.098  15.959   6.115
 3871POPC   D2A50176  18.963  16.107   6.514
 3871POPC   C3A50177  19.132  16.065   6.919
 3871POPC   C4A50178  18.924  16.122   7.341
 3871POPC   C1B50179  18.629  15.810   6.231
 3871POPC   C2B50180  18.594  15.701   6.618
 3871POPC   C3B50181  18.925  15.573   6.833
 3871POPC   C4B50182  19.020  15.647   7.223
 3872POPC   NC350183  33.070  39.464   5.338
 3872POPC   PO450184  32.644  39.040   5.364
 3872POPC   GL150185  32.904  39.037   5.760
 3872POPC   GL250186  33.059  39.343   5.821
 3872POPC   C1A50187  32.910  38.996   6.232
 3872POPC   D2A50188  32.793  39.267   6.596
 3872POPC   C3A50189  32.865  39.150   6.996
 3872POPC   C4A50190  33.210  39.027   7.176
 3872POPC   C1B50191  32.854  39.507   6.148
 3872POPC   C2B50192  33.011  39.728   6.507
 3872POPC   C3B50193  33.181  39.588   6.896
 3872POPC   C4B50194  33.027  39.543   7.300
 3873POPC   NC350195  16.584  12.946   5.316
 3873POPC   PO450196  17.168  13.212   5.362
 3873POPC   GL150197  16.919  12.979   5.687
 3873POPC   GL250198  16.923  12.631   5.692
 3873POPC   C1A50199  16.663  12.908   6.053
 3873POPC   D2A50200  16.809  12.962   6.486
 3873POPC   C3A50201  16.562  13.074   6.853
 3873POPC   C4A50202  16.652  13.018   7.257
 3873POPC   C1B50203  17.096  12.673   6.135
 3873POPC   C2B50204  16.959  12.482   6.565
 3873POPC   C3B50205  16.868  12.638   6.958
 3873POPC   C4B50206  17.233  12.739   7.178
 3874POPC   NC350207  24.898  28.137   5.548
 3874POPC   PO450208  25.251  28.682   5.512
 3874POPC   GL150209  25.236  28.389   5.866
 3874POPC   GL250210  25.546  28.201   5.878
 3874POPC   C1A50211  25.181  28.207   6.287
 3874POPC   D2A50212  24.906  28.285   6.676
 3874POPC   C3A50213  25.069  28.502   7.043
 3874POPC   C4A50214  25.090  28.463   7.488
 3874POPC   C1B50215  25.690  28.371   6.311
 3874POPC   C2B50216  25.439  28.381   6.701
 3874POPC   C3B50217  25.436  28.151   7.115
 3874POPC   C4B50218  25.503  28.174   7.581
 3875POPC   NC350219  27.073  19.029   5.400
 3875POPC   PO450220  27.765  19.083   5.409
 3875POPC   GL150221  27.488  19.087   5.771
 3875POPC   GL250222  27.548  18.733   5.805
 3875POPC   C1A50223  27.382  19.002   6.224
 3875POPC   D2A50224  27.423  18.769   6.605
 3875POPC   C3A50225  27.462  19.046   6.923
 3875POPC   C4A50226  27.292  19.143   7.298
 3875POPC   C1B50227  27.883  18.956   6.066
 3875POPC   C2B50228  27.872  19.024   6.490
 3875POPC   C3B50229  27.963  18.925   6.891
 3875POPC   C4B50230  27.777  18.932   7.291
 3876POPC   NC350231   7.957   5.319   5.328
 3876POPC   PO450232   8.315   5.934   5.482
 3876POPC   GL150233   8.097   5.882   5.876
 3876POPC   GL250234   7.981   5.558   5.847
 3876POPC   C1A50235   8.127   6.084   6.286
 3876POPC   D2A50236   8.475   6.113   6.587
 3876POPC   C3A50237   8.343   6.183   7.002
 3876POPC   C4A50238   8.380   5.973   7.378
 3876POPC   C1B50239   7.803   5.690   6.261
 3876POPC   C2B50240   7.978   5.789   6.705
 3876POPC   C3B50241   7.923   5.836   7.163
 3876POPC   C4B50242   8.021   5.725   7.600
 3877POPC   NC350243  10.640  26.939   5.284
 3877POPC   PO450244  10.173  26.589   5.229
 3877POPC   GL150245  10.428  26.658   5.670
 3877POPC   GL250246  10.614  26.999   5.793
 3877POPC   C1A50247  10.368  26.730   6.140
 3877POPC   D2A50248  10.479  26.878   6.566
 3877POPC   C3A50249  10.601  26.729   6.968
 3877POPC   C4A50250  10.394  26.860   7.332
 3877POPC   C1B50251  10.734  27.162   6.233
 3877POPC   C2B50252  10.725  27.305   6.703
 3877POPC   C3B50253  10.761  27.156   7.167
 3877POPC   C4B50254  10.695  27.137   7.658
 3878POPC   NC350255  19.743  11.222   5.394
 3878POPC   PO450256  19.910  11.866   5.473
 3878POPC   GL150257  19.933  11.734   5.890
 3878POPC   GL250258  19.678  11.477   5.878
 3878POPC   C1A50259  20.066  11.702   6.352
 3878POPC   D2A50260  20.227  11.463   6.705
 3878POPC   C3A50261  19.898  11.276   6.946
 3878POPC   C4A50262  19.487  11.316   7.119
 3878POPC   C1B50263  19.865  11.249   6.249
 3878POPC   C2B50264  20.145  10.983   6.527
 3878POPC   C3B50265  19.984  10.727   6.869
 3878POPC   C4B50266  19.619  10.828   7.139
 3879POPC   NC350267  42.730  16.153   5.046
 3879POPC   PO450268  42.501  15.565   5.317
 3879POPC   GL150269  42.377  15.795   5.702
 3879POPC   GL250270  42.096  16.061   5.712
 3879POPC   C1A50271  42.296  15.635   6.129
 3879POPC   D2A50272  42.081  15.603   6.520
 3879POPC   C3A50273  42.266  15.730   6.888
 3879POPC   C4A50274  42.006  15.588   7.240
 3879POPC   C1B50275  42.337  16.135   6.102
 3879POPC   C2B50276  42.537  16.023   6.492
 3879POPC   C3B50277  42.405  16.308   6.815
 3879POPC   C4B50278  42.140  16.190   7.143
 3880POPC   NC350279  13.278   1.552   5.511
 3880POPC   PO450280  13.896   1.291   5.554
 3880POPC   GL150281  13.729   1.242   5.940
 3880POPC   GL250282  13.453   1.034   5.852
 3880POPC   C1A50283  13.881   1.207   6.368
 3880POPC   D2A50284  13.939   0.926   6.725
 3880POPC   C3A50285  13.917   1.223   7.068
 3880POPC   C4A50286  13.615   1.536   7.172
 3880POPC   C1B50287  13.422   1.013   6.314
 3880POPC   C2B50288  13.497   1.197   6.727
 3880POPC   C3B50289  13.449   1.050   7.131
 3880POPC   C4B50290  13.747   0.776   7.311
 3881POPC   NC350291   5.505   2.678   5.469
 3881POPC   PO450292   5.134   3.193   5.229
 3881POPC   GL150293   5.119   2.978   5.727
 3881POPC   GL250294   5.322   2.702   5.922
 3881POPC   C1A50295   4.910   2.819   6.164
 3881POPC   D2A50296   4.997   2.504   6.510
 3881POPC   C3A50297   4.976   2.671   6.954
 3881POPC   C4A50298   4.903   2.629   7.417
 3881POPC   C1B50299   5.502   2.672   6.330
 3881POPC   C2B50300   5.478   2.604   6.791
 3881POPC   C3B50301   5.396   2.669   7.235
 3881POPC   C4B50302   5.629   2.982   7.435
 3882POPC   NC350303  16.497  38.293   5.065
 3882POPC   PO450304  16.547  38.806   5.508
 3882POPC   GL150305  16.597  38.401   5.718
 3882POPC   GL250306  16.920  38.421   5.909
 3882POPC   C1A50307  16.565  38.088   6.070
 3882POPC   D2A50308  16.576  38.039   6.533
 3882POPC   C3A50309  16.695  38.448   6.741
 3882POPC   C4A50310  16.659  38.604   7.169
 3882POPC   C1B50311  17.012  38.692   6.298
 3882POPC   C2B50312  17.044  38.861   6.727
 3882POPC   C3B50313  17.131  38.521   7.024
 3882POPC   C4B50314  16.987  38.364   7.462
 3883POPC   NC350315   9.931  29.449   5.642
 3883POPC   PO450316   9.429  29.814   5.450
 3883POPC   GL150317   9.646  29.978   5.834
 3883POPC   GL250318  10.027  30.034   5.770
 3883POPC   C1A50319   9.535  29.963   6.299
 3883POPC   D2A50320   9.456  30.055   6.762
 3883POPC   C3A50321   9.486  29.763   7.095
 3883POPC   C4A50322   9.679  29.946   7.448
 3883POPC   C1B50323  10.041  29.953   6.213
 3883POPC   C2B50324   9.962  29.826   6.632
 3883POPC   C3B50325   9.904  30.032   7.005
 3883POPC   C4B50326  10.077  30.236   7.345
 3884POPC   NC350327  23.602  16.081   5.462
 3884POPC   PO450328  24.107  15.688   5.412
 3884POPC   GL150329  23.905  15.810   5.805
 3884POPC   GL250330  23.909  16.147   5.859
 3884POPC   C1A50331  23.635  15.805   6.199
 3884POPC   D2A50332  23.419  15.686   6.605
 3884POPC   C3A50333  23.519  15.891   6.965
 3884POPC   C4A50334  23.902  15.735   7.157
 3884POPC   C1B50335  23.942  16.231   6.279
 3884POPC   C2B50336  23.917  16.036   6.660
 3884POPC   C3B50337  24.031  16.206   7.036
 3884POPC   C4B50338  23.837  16.467   7.264
 3885POPC   NC350339  38.427  39.614   5.511
 3885POPC   PO450340  38.393  40.138   5.068
 3885POPC   GL150341  38.458  40.142   5.571
 3885POPC   GL250342  38.715  40.371   5.694
 3885POPC   C1A50343  38.354  40.048   6.053
 3885POPC   D2A50344  38.298  40.156   6.533
 3885POPC   C3A50345  38.408  39.921   6.939
 3885POPC   C4A50346  38.091  39.780   7.271
 3885POPC   C1B50347  38.777  40.280   6.171
 3885POPC   C2B50348  38.791  40.252   6.623
 3885POPC   C3B50349  38.701  40.394   7.041
 3885POPC   C4B50350  38.751  40.183   7.449
 3886POPC   NC350351   6.458  18.058   5.107
 3886POPC   PO450352   6.737  17.566   5.480
 3886POPC   GL150353   6.756  17.540   5.891
 3886POPC   GL250354   6.599  17.215   5.919
 3886POPC   C1A50355   6.545  17.619   6.283
 3886POPC   D2A50356   6.366  17.654   6.680
 3886POPC   C3A50357   6.661  17.762   6.976
 3886POPC   C4A50358   6.890  17.445   7.232
 3886POPC   C1B50359   6.890  17.215   6.280
 3886POPC   C2B50360   6.832  17.364   6.711
 3886POPC   C3B50361   6.456  17.273   7.004
 3886POPC   C4B50362   6.203  17.174   7.361
 3887POPC   NC350363  23.204  24.900   5.523
 3887POPC   PO450364  23.724  24.498   5.380
 3887POPC   GL150365  23.843  24.384   5.778
 3887POPC   GL250366  23.770  24.689   5.895
 3887POPC   C1A50367  23.643  24.293   6.190
 3887POPC   D2A50368  23.749  24.481   6.581
 3887POPC   C3A50369  23.682  24.389   7.019
 3887POPC   C4A50370  23.416  24.124   7.273
 3887POPC   C1B50371  23.565  24.848   6.263
 3887POPC   C2B50372  23.701  24.991   6.666
 3887POPC   C3B50373  23.764  24.876   7.106
 3887POPC   C4B50374  23.721  24.993   7.547
 3888POPC   NC350375  25.878  31.098   5.500
 3888POPC   PO450376  26.070  30.422   5.402
 3888POPC   GL150377  25.963  30.656   5.756
 3888POPC   GL250378  26.251  30.907   5.782
 3888POPC   C1A50379  25.734  30.539   6.149
 3888POPC   D2A50380  25.870  30.596   6.572
 3888POPC   C3A50381  25.661  30.528   6.979
 3888POPC   C4A50382  25.789  30.759   7.409
 3888POPC   C1B50383  26.138  30.852   6.203
 3888POPC   C2B50384  26.287  30.910   6.601
 3888POPC   C3B50385  26.042  30.898   6.954
 3888POPC   C4B50386  25.629  31.027   7.010
 3889POPC   NC350387  23.678  15.084   5.461
 3889POPC   PO450388  23.407  15.649   5.533
 3889POPC   GL150389  23.623  15.379   5.878
 3889POPC   GL250390  24.014  15.298   5.779
 3889POPC   C1A50391  23.534  15.274   6.335
 3889POPC   D2A50392  23.440  14.993   6.722
 3889POPC   C3A50393  23.384  15.256   7.088
 3889POPC   C4A50394  23.451  15.620   7.383
 3889POPC   C1B50395  24.019  15.315   6.219
 3889POPC   C2B50396  23.940  14.998   6.566
 3889POPC   C3B50397  23.864  15.189   6.958
 3889POPC   C4B50398  23.831  15.298   7.402
 3890POPC   NC350399  11.573  12.556   5.489
 3890POPC   PO450400  12.141  12.176   5.631
 3890POPC   GL150401  12.104  12.013   5.956
 3890POPC   GL250402  11.783  11.903   5.939
 3890POPC   C1A50403  12.280  12.064   6.320
 3890POPC   D2A50404  12.228  11.818   6.632
 3890POPC   C3A50405  12.441  11.908   6.961
 3890POPC   C4A50406  12.364  11.764   7.327
 3890POPC   C1B50407  11.720  12.236   6.227
 3890POPC   C2B50408  11.912  12.247   6.635
 3890POPC   C3B50409  11.841  12.097   7.056
 3890POPC   C4B50410  11.731  12.379   7.392
 3891POPC   NC350411  27.125  36.513   5.618
 3891POPC   PO450412  26.870  36.050   5.288
 3891POPC   GL150413  26.811  36.163   5.771
 3891POPC   GL250414  27.112  36.000   5.791
 3891POPC   C1A50415  26.642  36.239   6.206
 3891POPC   D2A50416  26.470  35.944   6.499
 3891POPC   C3A50417  26.659  35.942   6.876
 3891POPC   C4A50418  26.533  36.103   7.273
 3891POPC   C1B50419  27.144  36.229   6.221
 3891POPC   C2B50420  27.084  36.189   6.691
 3891POPC   C3B50421  27.037  36.282   7.159
 3891POPC   C4B50422  27.144  36.343   7.620
 3892POPC   NC350423  14.065   5.189   5.687
 3892POPC   PO450424  14.635   4.874   5.366
 3892POPC   GL150425  14.581   5.150   5.743
 3892POPC   GL250426  14.445   4.890   5.943
 3892POPC   C1A50427  14.556   5.335   6.173
 3892POPC   D2A50428  14.450   5.080   6.519
 3892POPC   C3A50429  14.334   5.188   6.920
 3892POPC   C4A50430  14.501   5.130   7.313
 3892POPC   C1B50431  14.175   4.702   6.276
 3892POPC   C2B50432  14.058   4.793   6.669
 3892POPC   C3B50433  14.107   4.725   7.044
 3892POPC   C4B50434  14.088   4.820   7.463
 3893POPC   NC350435  40.426  33.754   5.730
 3893POPC   PO450436  40.969  34.153   5.594
 3893POPC   GL150437  41.096  34.037   5.950
 3893POPC   GL250438  40.977  33.693   5.903
 3893POPC   C1A50439  40.900  33.965   6.331
 3893POPC   D2A50440  40.513  33.917   6.539
 3893POPC   C3A50441  40.672  34.074   6.915
 3893POPC   C4A50442  40.511  34.094   7.300
 3893POPC   C1B50443  40.927  33.464   6.297
 3893POPC   C2B50444  40.728  33.486   6.709
 3893POPC   C3B50445  40.670  33.590   7.144
 3893POPC   C4B50446  40.481  33.285   7.392
 3894POPC   NC350447  28.494  15.043   5.524
 3894POPC   PO450448  28.080  15.540   5.483
 3894POPC   GL150449  28.244  15.323   5.902
 3894POPC   GL250450  28.534  15.076   6.030
 3894POPC   C1A50451  28.141  15.205   6.341
 3894POPC   D2A50452  28.378  15.031   6.676
 3894POPC   C3A50453  28.456  15.194   7.101
 3894POPC   C4A50454  28.241  15.116   7.532
 3894POPC   C1B50455  28.788  14.901   6.406
 3894POPC   C2B50456  28.817  14.888   6.900
 3894POPC   C3B50457  28.700  14.848   7.380
 3894POPC   C4B50458  28.681  14.981   7.833
 3895POPC   NC350459  14.349  40.309   5.525
 3895POPC   PO450460  14.604  39.818   5.157
 3895POPC   GL150461  14.462  39.805   5.696
 3895POPC   GL250462  14.644  40.071   5.902
 3895POPC   C1A50463  14.220  39.947   6.153
 3895POPC   D2A50464  14.438  39.957   6.590
 3895POPC   C3A50465  14.270  39.987   7.021
 3895POPC   C4A50466  14.494  39.940   7.428
 3895POPC   C1B50467  14.642  39.680   6.197
 3895POPC   C2B50468  14.724  39.516   6.602
 3895POPC   C3B50469  14.664  39.661   7.010
 3895POPC   C4B50470  14.743  39.497   7.393
 3896POPC   NC350471  36.149  14.072   5.295
 3896POPC   PO450472  35.792  14.584   5.511
 3896POPC   GL150473  36.165  14.609   5.806
 3896POPC   GL250474  36.173  14.278   5.886
 3896POPC   C1A50475  36.339  14.520   6.279
 3896POPC   D2A50476  36.061  14.339   6.614
 3896POPC   C3A50477  36.119  14.232   7.038
 3896POPC   C4A50478  36.177  14.550   7.335
 3896POPC   C1B50479  35.832  14.542   6.182
 3896POPC   C2B50480  35.626  14.623   6.610
 3896POPC   C3B50481  35.721  14.546   7.036
 3896POPC   C4B50482  35.706  14.393   7.450
 3897POPC   NC350483  30.204  17.662   5.444
 3897POPC   PO450484  29.947  18.213   5.370
 3897POPC   GL150485  30.092  18.278   5.797
 3897POPC   GL250486  29.864  18.524   5.920
 3897POPC   C1A50487  30.111  18.261   6.270
 3897POPC   D2A50488  30.074  18.007   6.661
 3897POPC   C3A50489  30.130  18.183   7.078
 3897POPC   C4A50490  29.840  18.414   7.309
 3897POPC   C1B50491  29.612  18.799   6.155
 3897POPC   C2B50492  29.585  18.848   6.585
 3897POPC   C3B50493  29.577  18.577   6.920
 3897POPC   C4B50494  29.454  18.735   7.339
 3898POPC   NC350495   3.320  21.048   5.335
 3898POPC   PO450496   3.631  21.403   5.739
 3898POPC   GL150497   3.312  21.424   5.950
 3898POPC   GL250498   3.424  21.690   6.163
 3898POPC   C1A50499   3.271  21.230   6.340
 3898POPC   D2A50500   3.497  21.394   6.672
 3898POPC   C3A50501   3.362  21.242   7.073
 3898POPC   C4A50502   3.369  21.385   7.510
 3898POPC   C1B50503   3.876  21.612   6.317
 3898POPC   C2B50504   4.019  21.292   6.619
 3898POPC   C3B50505   3.862  21.402   7.027
 3898POPC   C4B50506   3.824  21.808   7.184
 3899POPC   NC350507  33.098   0.356   5.363
 3899POPC   PO450508  33.523   0.769   5.733
 3899POPC   GL150509  33.254   0.440   5.852
 3899POPC   GL250510  32.863   0.434   5.814
 3899POPC   C1A50511  33.103   0.472   6.264
 3899POPC   D2A50512  32.863   0.362   6.610
 3899POPC   C3A50513  33.091   0.285   6.974
 3899POPC   C4A50514  33.171   0.506   7.335
 3899POPC   C1B50515  32.669   0.705   6.133
 3899POPC   C2B50516  32.569   0.789   6.590
 3899POPC   C3B50517  32.722   0.656   7.030
 3899POPC   C4B50518  32.701   0.622   7.500
 3900POPC   NC350519  23.805  34.025   5.720
 3900POPC   PO450520  23.659  33.459   5.356
 3900POPC   GL150521  23.590  33.568   5.837
 3900POPC   GL250522  23.665  33.851   6.145
 3900POPC   C1A50523  23.639  33.385   6.267
 3900POPC   D2A50524  23.450  33.621   6.552
 3900POPC   C3A50525  23.627  33.671   6.917
 3900POPC   C4A50526  23.409  33.725   7.288
 3900POPC   C1B50527  23.652  34.217   6.405
 3900POPC   C2B50528  23.613  34.176   6.841
 3900POPC   C3B50529  23.832  34.069   7.242
 3900POPC   C4B50530  23.965  34.132   7.726
 3901POPC   NC350531  31.709   2.713   5.525
 3901POPC   PO450532  31.273   3.091   5.103
 3901POPC   GL150533  31.192   2.805   5.617
 3901POPC   GL250534  31.323   2.471   5.740
 3901POPC   C1A50535  31.293   2.737   6.165
 3901POPC   D2A50536  31.375   2.654   6.635
 3901POPC   C3A50537  31.367   2.964   7.014
 3901POPC   C4A50538  31.700   3.048   7.341
 3901POPC   C1B50539  31.250   2.238   6.128
 3901POPC   C2B50540  31.244   2.153   6.547
 3901POPC   C3B50541  31.464   2.220   6.893
 3901POPC   C4B50542  31.445   2.482   7.199
 3902POPC   NC350543  23.648   4.936   5.422
 3902POPC   PO450544  23.466   4.326   5.375
 3902POPC   GL150545  23.722   4.287   5.776
 3902POPC   GL250546  23.593   4.561   5.884
 3902POPC   C1A50547  23.662   4.066   6.185
 3902POPC   D2A50548  23.410   4.020   6.554
 3902POPC   C3A50549  23.665   4.004   6.916
 3902POPC   C4A50550  23.464   3.978   7.278
 3902POPC   C1B50551  23.651   4.544   6.328
 3902POPC   C2B50552  23.840   4.470   6.727
 3902POPC   C3B50553  23.653   4.500   7.152
 3902POPC   C4B50554  23.742   4.678   7.577
 3903POPC   NC350555  11.531  32.124   5.333
 3903POPC   PO450556  12.205  32.050   5.398
 3903POPC   GL150557  11.950  32.186   5.783
 3903POPC   GL250558  11.875  32.561   5.778
 3903POPC   C1A50559  12.131  32.280   6.218
 3903POPC   D2A50560  12.460  32.304   6.555
 3903POPC   C3A50561  12.317  32.257   6.967
 3903POPC   C4A50562  11.910  32.179   7.129
 3903POPC   C1B50563  11.945  32.738   6.205
 3903POPC   C2B50564  12.016  32.556   6.640
 3903POPC   C3B50565  12.003  32.699   7.064
 3903POPC   C4B50566  11.876  32.580   7.478
 3904POPC   NC350567  25.782  12.427   5.425
 3904POPC   PO450568  26.330  12.272   5.115
 3904POPC   GL150569  26.242  12.262   5.640
 3904POPC   GL250570  26.247  11.927   5.833
 3904POPC   C1A50571  26.026  12.344   6.075
 3904POPC   D2A50572  25.838  12.216   6.497
 3904POPC   C3A50573  25.953  12.119   6.942
 3904POPC   C4A50574  25.696  11.832   7.183
 3904POPC   C1B50575  26.203  11.907   6.285
 3904POPC   C2B50576  26.373  12.060   6.672
 3904POPC   C3B50577  26.331  11.803   7.076
 3904POPC   C4B50578  26.336  11.860   7.544
 3905POPC   NC350579   9.359   5.161   5.057
 3905POPC   PO450580   8.857   4.965   5.416
 3905POPC   GL150581   8.754   5.038   5.845
 3905POPC   GL250582   9.046   5.216   5.878
 3905POPC   C1A50583   8.767   5.188   6.284
 3905POPC   D2A50584   8.990   5.259   6.613
 3905POPC   C3A50585   8.763   5.210   6.972
 3905POPC   C4A50586   8.934   5.204   7.355
 3905POPC   C1B50587   9.263   5.017   6.232
 3905POPC   C2B50588   9.451   5.038   6.631
 3905POPC   C3B50589   9.215   4.959   7.002
 3905POPC   C4B50590   8.941   4.699   7.212
 3906POPC   NC350591  44.362  23.114   5.448
 3906POPC   PO450592  43.840  22.689   5.542
 3906POPC   GL150593  43.929  22.886   5.914
 3906POPC   GL250594  44.265  22.837   5.911
 3906POPC   C1A50595  43.956  23.151   6.280
 3906POPC   D2A50596  43.890  22.999   6.697
 3906POPC   C3A50597  43.771  23.298   7.011
 3906POPC   C4A50598  43.818  23.096   7.400
 3906POPC   C1B50599  44.161  22.688   6.340
 3906POPC   C2B50600  44.166  22.557   6.786
 3906POPC   C3B50601  44.189  22.752   7.206
 3906POPC   C4B50602  44.183  22.770   7.683
 3907POPC   NC350603  26.528  34.731   5.574
 3907POPC   PO450604  26.988  34.336   5.366
 3907POPC   GL150605  26.892  34.384   5.782
 3907POPC   GL250606  26.773  34.035   5.779
 3907POPC   C1A50607  26.842  34.727   6.114
 3907POPC   D2A50608  26.633  34.830   6.464
 3907POPC   C3A50609  26.882  34.639   6.747
 3907POPC   C4A50610  26.874  34.705   7.168
 3907POPC   C1B50611  26.598  34.223   6.165
 3907POPC   C2B50612  26.545  34.303   6.574
 3907POPC   C3B50613  26.701  34.228   6.968
 3907POPC   C4B50614  26.592  34.324   7.348
 3908POPC   NC350615  43.293  36.623   5.695
 3908POPC   PO450616  43.073  35.981   5.583
 3908POPC   GL150617  43.217  36.023   5.967
 3908POPC   GL250618  43.528  36.180   5.897
 3908POPC   C1A50619  43.128  36.346   6.277
 3908POPC   D2A50620  43.118  36.416   6.715
 3908POPC   C3A50621  42.898  36.068   6.874
 3908POPC   C4A50622  42.871  35.981   7.282
 3908POPC   C1B50623  43.596  36.143   6.371
 3908POPC   C2B50624  43.608  36.183   6.835
 3908POPC   C3B50625  43.391  36.300   7.236
 3908POPC   C4B50626  43.482  36.396   7.706
 3909POPC   NC350627  25.386  27.267   5.482
 3909POPC   PO450628  25.048  26.674   5.492
 3909POPC   GL150629  25.393  26.700   5.807
 3909POPC   GL250630  25.579  26.351   5.886
 3909POPC   C1A50631  25.365  26.981   6.185
 3909POPC   D2A50632  25.213  27.172   6.593
 3909POPC   C3A50633  25.299  26.988   7.006
 3909POPC   C4A50634  25.328  26.757   7.389
 3909POPC   C1B50635  25.704  26.587   6.216
 3909POPC   C2B50636  25.575  26.756   6.590
 3909POPC   C3B50637  25.564  26.529   6.959
 3909POPC   C4B50638  25.653  26.321   7.311
 3910POPC   NC350639  10.344  10.851   5.463
 3910POPC   PO450640  10.619  10.277   5.300
 3910POPC   GL150641  10.528  10.359   5.798
 3910POPC   GL250642  10.368  10.708   5.933
 3910POPC   C1A50643  10.613  10.460   6.268
 3910POPC   D2A50644  10.608  10.656   6.661
 3910POPC   C3A50645  10.700  10.408   7.032
 3910POPC   C4A50646  10.848  10.544   7.421
 3910POPC   C1B50647  10.110  10.791   6.278
 3910POPC   C2B50648  10.090  10.887   6.710
 3910POPC   C3B50649  10.222  10.613   7.041
 3910POPC   C4B50650  10.327  10.683   7.461
 3911POPC   NC350651  30.488  33.471   4.985
 3911POPC   PO450652  30.477  33.197   5.556
 3911POPC   GL150653  30.548  33.026   5.908
 3911POPC   GL250654  30.234  32.935   5.973
 3911POPC   C1A50655  30.839  33.117   6.237
 3911POPC   D2A50656  30.820  32.966   6.643
 3911POPC   C3A50657  30.706  33.223   6.964
 3911POPC   C4A50658  30.434  33.139   7.283
 3911POPC   C1B50659  30.361  32.944   6.381
 3911POPC   C2B50660  30.308  32.930   6.814
 3911POPC   C3B50661  30.540  32.676   7.071
 3911POPC   C4B50662  30.451  32.462   7.456
 3912POPC   NC350663  35.185  23.886   5.400
 3912POPC   PO450664  35.810  23.776   5.779
 3912POPC   GL150665  35.399  23.692   5.852
 3912POPC   GL250666  35.314  24.007   5.875
 3912POPC   C1A50667  35.211  23.517   6.231
 3912POPC   D2A50668  35.425  23.479   6.638
 3912POPC   C3A50669  35.226  23.495   7.042
 3912POPC   C4A50670  35.567  23.437   7.367
 3912POPC   C1B50671  35.466  23.969   6.306
 3912POPC   C2B50672  35.398  24.230   6.648
 3912POPC   C3B50673  35.481  23.937   6.922
 3912POPC   C4B50674  35.429  23.896   7.309
 3913POPC   NC350675  31.400  16.857   5.021
 3913POPC   PO450676  31.135  16.656   5.682
 3913POPC   GL150677  31.217  16.870   6.018
 3913POPC   GL250678  31.528  16.723   6.057
 3913POPC   C1A50679  31.339  17.022   6.417
 3913POPC   D2A50680  31.586  16.696   6.612
 3913POPC   C3A50681  31.339  16.592   6.966
 3913POPC   C4A50682  31.343  16.898   7.294
 3913POPC   C1B50683  31.783  16.380   6.263
 3913POPC   C2B50684  31.929  16.271   6.690
 3913POPC   C3B50685  31.836  16.544   7.046
 3913POPC   C4B50686  31.650  16.502   7.439
 3914POPC   NC350687  26.871  43.794   5.430
 3914POPC   PO450688  26.566  44.269   5.248
 3914POPC   GL150689  26.542  44.062   5.713
 3914POPC   GL250690  26.566  43.717   5.887
 3914POPC   C1A50691  26.834  44.145   6.062
 3914POPC   D2A50692  27.158  44.033   6.390
 3914POPC   C3A50693  27.025  43.989   6.833
 3914POPC   C4A50694  27.249  44.088   7.221
 3914POPC   C1B50695  26.702  43.761   6.367
 3914POPC   C2B50696  26.672  43.569   6.795
 3914POPC   C3B50697  26.703  43.756   7.222
 3914POPC   C4B50698  26.633  43.587   7.689
 3915POPC   NC350699  41.090   6.849   5.095
 3915POPC   PO450700  40.761   6.467   5.592
 3915POPC   GL150701  40.849   6.573   5.989
 3915POPC   GL250702  40.612   6.817   6.004
 3915POPC   C1A50703  40.709   6.421   6.359
 3915POPC   D2A50704  40.488   6.610   6.697
 3915POPC   C3A50705  40.722   6.448   7.012
 3915POPC   C4A50706  40.863   6.154   7.256
 3915POPC   C1B50707  40.981   7.022   6.233
 3915POPC   C2B50708  41.163   6.985   6.618
 3915POPC   C3B50709  40.917   6.941   6.975
 3915POPC   C4B50710  41.137   6.663   7.208
 3916POPC   NC350711  17.732  29.483   5.402
 3916POPC   PO450712  17.509  28.794   5.292
 3916POPC   GL150713  17.542  29.080   5.634
 3916POPC   GL250714  17.839  29.015   5.711
 3916POPC   C1A50715  17.631  29.312   6.062
 3916POPC   D2A50716  17.758  29.246   6.516
 3916POPC   C3A50717  17.676  29.364   6.959
 3916POPC   C4A50718  17.264  29.474   7.106
 3916POPC   C1B50719  17.482  28.832   6.057
 3916POPC   C2B50720  17.404  28.735   6.498
 3916POPC   C3B50721  17.170  28.896   6.882
 3916POPC   C4B50722  17.451  28.936   7.222
 3917POPC   NC350723  23.859  25.668   5.371
 3917POPC   PO450724  23.568  25.170   5.475
 3917POPC   GL150725  23.668  25.178   5.877
 3917POPC   GL250726  24.005  25.173   5.859
 3917POPC   C1A50727  23.758  25.357   6.277
 3917POPC   D2A50728  23.736  25.552   6.674
 3917POPC   C3A50729  23.542  25.344   7.015
 3917POPC   C4A50730  23.386  25.476   7.416
 3917POPC   C1B50731  24.117  25.007   6.272
 3917POPC   C2B50732  24.141  25.230   6.673
 3917POPC   C3B50733  24.072  25.283   7.152
 3917POPC   C4B50734  24.249  25.174   7.578
 3918POPC   NC350735   7.764   9.165   5.427
 3918POPC   PO450736   8.298   8.638   5.492
 3918POPC   GL150737   8.215   8.831   5.877
 3918POPC   GL250738   8.114   9.132   5.790
 3918POPC   C1A50739   8.121   8.773   6.311
 3918POPC   D2A50740   7.904   8.606   6.691
 3918POPC   C3A50741   7.922   8.900   7.041
 3918POPC   C4A50742   8.320   9.098   7.151
 3918POPC   C1B50743   7.803   9.207   6.123
 3918POPC   C2B50744   7.803   9.125   6.562
 3918POPC   C3B50745   7.979   9.409   6.856
 3918POPC   C4B50746   7.924   9.442   7.282
 3919POPC   NC350747   4.953  31.999   5.468
 3919POPC   PO450748   5.095  31.339   5.491
 3919POPC   GL150749   5.078  31.632   5.816
 3919POPC   GL250750   5.330  31.755   5.936
 3919POPC   C1A50751   4.945  31.634   6.276
 3919POPC   D2A50752   4.993  31.275   6.602
 3919POPC   C3A50753   4.985  31.413   7.056
 3919POPC   C4A50754   4.768  31.784   7.255
 3919POPC   C1B50755   5.354  31.358   6.184
 3919POPC   C2B50756   5.478  31.392   6.631
 3919POPC   C3B50757   5.507  31.271   7.056
 3919POPC   C4B50758   5.350  31.416   7.436
 3920POPC   NC350759  20.904  42.867   5.523
 3920POPC   PO450760  21.610  43.006   5.607
 3920POPC   GL150761  21.447  43.222   5.952
 3920POPC   GL250762  21.109  43.351   5.898
 3920POPC   C1A50763  21.424  43.406   6.358
 3920POPC   D2A50764  21.664  43.618   6.679
 3920POPC   C3A50765  21.627  43.462   7.079
 3920POPC   C4A50766  21.635  43.007   7.184
 3920POPC   C1B50767  21.054  42.973   6.187
 3920POPC   C2B50768  21.226  42.933   6.616
 3920POPC   C3B50769  21.190  43.197   7.008
 3920POPC   C4B50770  21.260  43.224   7.476
 3921POPC   NC350771  33.882   0.889   5.420
 3921POPC   PO450772  33.499   1.512   5.485
 3921POPC   GL150773  33.784   1.316   5.826
 3921POPC   GL250774  33.974   0.977   5.913
 3921POPC   C1A50775  33.804   1.325   6.299
 3921POPC   D2A50776  33.614   1.099   6.697
 3921POPC   C3A50777  33.767   1.246   7.104
 3921POPC   C4A50778  34.139   1.375   7.319
 3921POPC   C1B50779  33.819   0.803   6.321
 3921POPC   C2B50780  33.536   0.574   6.584
 3921POPC   C3B50781  33.535   0.637   7.004
 3921POPC   C4B50782  33.550   0.882   7.387
 3922POPC   NC350783  10.058   4.161   5.625
 3922POPC   PO450784   9.831   4.794   5.564
 3922POPC   GL150785   9.654   4.625   5.904
 3922POPC   GL250786   9.509   4.295   5.803
 3922POPC   C1A50787   9.727   4.710   6.334
 3922POPC   D2A50788   9.964   4.723   6.700
 3922POPC   C3A50789   9.754   4.463   6.998
 3922POPC   C4A50790   9.667   4.621   7.401
 3922POPC   C1B50791   9.734   4.204   6.208
 3922POPC   C2B50792  10.108   4.280   6.475
 3922POPC   C3B50793  10.241   4.286   6.927
 3922POPC   C4B50794  10.076   4.257   7.373
 3923POPC   NC350795  35.437   5.543   5.454
 3923POPC   PO450796  35.175   6.184   5.347
 3923POPC   GL150797  35.290   5.975   5.713
 3923POPC   GL250798  35.634   6.035   5.675
 3923POPC   C1A50799  35.226   5.992   6.164
 3923POPC   D2A50800  35.398   5.974   6.590
 3923POPC   C3A50801  35.153   6.072   6.922
 3923POPC   C4A50802  35.238   5.847   7.285
 3923POPC   C1B50803  35.702   6.165   6.097
 3923POPC   C2B50804  35.896   6.034   6.447
 3923POPC   C3B50805  35.896   5.752   6.796
 3923POPC   C4B50806  35.788   5.850   7.230
 3924POPC   NC350807  15.439   2.285   5.729
 3924POPC   PO450808  15.382   1.777   5.261
 3924POPC   GL150809  15.361   1.791   5.759
 3924POPC   GL250810  15.037   1.980   5.859
 3924POPC   C1A50811  15.365   1.810   6.247
 3924POPC   D2A50812  15.073   1.839   6.626
 3924POPC   C3A50813  15.192   1.756   7.094
 3924POPC   C4A50814  15.014   1.890   7.492
 3924POPC   C1B50815  15.066   2.239   6.243
 3924POPC   C2B50816  14.938   2.377   6.622
 3924POPC   C3B50817  15.038   2.219   6.980
 3924POPC   C4B50818  15.266   2.308   7.330
 3925POPC   NC350819  37.343  30.149   5.465
 3925POPC   PO450820  37.816  29.611   5.433
 3925POPC   GL150821  37.577  29.773   5.759
 3925POPC   GL250822  37.275  29.568   5.766
 3925POPC   C1A50823  37.704  29.969   6.151
 3925POPC   D2A50824  37.828  30.135   6.553
 3925POPC   C3A50825  37.728  29.992   6.974
 3925POPC   C4A50826  37.720  30.331   7.268
 3925POPC   C1B50827  37.429  29.534   6.196
 3925POPC   C2B50828  37.511  29.666   6.617
 3925POPC   C3B50829  37.545  29.483   7.020
 3925POPC   C4B50830  37.672  29.640   7.435
 3926POPC   NC350831  10.206  11.745   5.037
 3926POPC   PO450832   9.627  11.846   5.436
 3926POPC   GL150833   9.531  11.989   5.815
 3926POPC   GL250834   9.813  12.192   5.882
 3926POPC   C1A50835   9.477  12.058   6.240
 3926POPC   D2A50836   9.546  11.910   6.628
 3926POPC   C3A50837   9.753  11.815   6.981
 3926POPC   C4A50838   9.464  11.881   7.303
 3926POPC   C1B50839   9.962  11.973   6.273
 3926POPC   C2B50840  10.046  12.159   6.658
 3926POPC   C3B50841   9.907  12.283   7.056
 3926POPC   C4B50842   9.964  12.035   7.441
 3927POPC   NC350843   1.723  39.104   5.431
 3927POPC   PO450844   2.309  38.910   5.710
 3927POPC   GL150845   1.969  39.149   5.885
 3927POPC   GL250846   1.967  39.484   5.741
 3927POPC   C1A50847   1.857  39.234   6.319
 3927POPC   D2A50848   1.900  39.210   6.796
 3927POPC   C3A50849   2.206  39.165   7.102
 3927POPC   C4A50850   2.108  39.108   7.526
 3927POPC   C1B50851   1.766  39.706   6.084
 3927POPC   C2B50852   1.692  39.703   6.492
 3927POPC   C3B50853   1.662  39.667   6.898
 3927POPC   C4B50854   1.803  39.456   7.260
 3928POPC   NC350855  34.660  27.138   5.465
 3928POPC   PO450856  34.666  26.449   5.477
 3928POPC   GL150857  34.634  26.796   5.833
 3928POPC   GL250858  34.339  27.046   5.903
 3928POPC   C1A50859  34.844  26.933   6.216
 3928POPC   D2A50860  34.808  26.572   6.491
 3928POPC   C3A50861  34.858  26.628   6.908
 3928POPC   C4A50862  34.699  26.623   7.307
 3928POPC   C1B50863  34.342  26.896   6.337
 3928POPC   C2B50864  34.576  27.045   6.714
 3928POPC   C3B50865  34.435  27.049   7.155
 3928POPC   C4B50866  34.107  27.273   7.385
 3929POPC   NC350867  12.682  10.899   5.421
 3929POPC   PO450868  13.243  11.183   5.167
 3929POPC   GL150869  13.096  11.293   5.648
 3929POPC   GL250870  12.798  11.491   5.722
 3929POPC   C1A50871  13.082  11.479   6.134
 3929POPC   D2A50872  13.081  11.262   6.543
 3929POPC   C3A50873  12.959  11.276   6.994
 3929POPC   C4A50874  13.290  11.472   7.223
 3929POPC   C1B50875  12.528  11.414   6.126
 3929POPC   C2B50876  12.334  11.304   6.536
 3929POPC   C3B50877  12.443  11.390   6.944
 3929POPC   C4B50878  12.521  11.270   7.349
 3930POPC   NC350879  42.354  25.505   5.119
 3930POPC   PO450880  42.195  26.039   5.457
 3930POPC   GL150881  42.324  26.100   5.825
 3930POPC   GL250882  42.010  26.064   5.949
 3930POPC   C1A50883  42.504  25.949   6.189
 3930POPC   D2A50884  42.419  25.691   6.551
 3930POPC   C3A50885  42.451  25.835   6.991
 3930POPC   C4A50886  42.624  25.615   7.348
 3930POPC   C1B50887  41.970  25.939   6.357
 3930POPC   C2B50888  41.991  25.899   6.774
 3930POPC   C3B50889  41.969  25.615   7.075
 3930POPC   C4B50890  41.978  25.886   7.387
 3931POPC   NC350891  13.184  21.477   5.329
 3931POPC   PO450892  13.859  21.568   5.503
 3931POPC   GL150893  13.490  21.571   5.745
 3931POPC   GL250894  13.373  21.209   5.754
 3931POPC   C1A50895  13.473  21.672   6.186
 3931POPC   D2A50896  13.373  21.346   6.475
 3931POPC   C3A50897  13.370  21.504   6.906
 3931POPC   C4A50898  13.698  21.580   7.250
 3931POPC   C1B50899  13.698  21.200   6.086
 3931POPC   C2B50900  13.845  21.136   6.513
 3931POPC   C3B50901  13.875  21.139   6.969
 3931POPC   C4B50902  13.889  21.074   7.403
 3932POPC   NC350903  10.608  36.959   5.329
 3932POPC   PO450904   9.932  36.943   5.510
 3932POPC   GL150905  10.338  37.071   5.756
 3932POPC   GL250906  10.606  36.784   5.830
 3932POPC   C1A50907  10.558  37.169   6.160
 3932POPC   D2A50908  10.444  36.967   6.548
 3932POPC   C3A50909  10.634  37.098   6.920
 3932POPC   C4A50910  10.388  36.987   7.252
 3932POPC   C1B50911  10.807  36.711   6.283
 3932POPC   C2B50912  10.783  36.614   6.761
 3932POPC   C3B50913  10.898  36.743   7.200
 3932POPC   C4B50914  11.011  36.568   7.641
 3933POPC   NC350915   9.292   4.250   5.133
 3933POPC   PO450916   8.707   4.234   5.513
 3933POPC   GL150917   8.904   4.436   5.856
 3933POPC   GL250918   9.141   4.690   5.814
 3933POPC   C1A50919   8.851   4.228   6.264
 3933POPC   D2A50920   8.991   4.049   6.650
 3933POPC   C3A50921   8.770   4.233   6.987
 3933POPC   C4A50922   8.831   4.234   7.424
 3933POPC   C1B50923   9.268   4.504   6.240
 3933POPC   C2B50924   9.292   4.508   6.722
 3933POPC   C3B50925   9.286   4.313   7.168
 3933POPC   C4B50926   9.223   4.478   7.600
 3934POPC   NC350927  28.604   0.617   5.568
 3934POPC   PO450928  27.927   0.638   5.475
 3934POPC   GL150929  28.177   0.570   5.873
 3934POPC   GL250930  28.105   0.266   6.040
 3934POPC   C1A50931  28.524   0.496   6.227
 3934POPC   D2A50932  28.578   0.238   6.613
 3934POPC   C3A50933  28.456   0.419   7.012
 3934POPC   C4A50934  28.385   0.492   7.437
 3934POPC   C1B50935  28.054   0.513   6.410
 3934POPC   C2B50936  27.997   0.516   6.812
 3934POPC   C3B50937  28.012   0.169   7.119
 3934POPC   C4B50938  27.959   0.213   7.559
 3935POPC   NC350939  38.754  13.309   5.355
 3935POPC   PO450940  38.157  13.700   5.363
 3935POPC   GL150941  38.327  13.871   5.761
 3935POPC   GL250942  38.620  13.655   5.802
 3935POPC   C1A50943  38.448  13.941   6.219
 3935POPC   D2A50944  38.661  13.872   6.630
 3935POPC   C3A50945  38.384  13.954   6.982
 3935POPC   C4A50946  38.168  13.776   7.334
 3935POPC   C1B50947  38.610  13.463   6.235
 3935POPC   C2B50948  38.262  13.527   6.559
 3935POPC   C3B50949  38.213  13.377   6.983
 3935POPC   C4B50950  38.556  13.451   7.274
 3936POPC   NC350951  40.126   4.734   5.571
 3936POPC   PO450952  40.153   5.366   5.409
 3936POPC   GL150953  39.995   5.199   5.778
 3936POPC   GL250954  40.338   5.085   5.879
 3936POPC   C1A50955  39.932   4.990   6.179
 3936POPC   D2A50956  40.078   5.111   6.586
 3936POPC   C3A50957  39.770   5.121   6.899
 3936POPC   C4A50958  39.598   5.291   7.251
 3936POPC   C1B50959  40.425   4.846   6.271
 3936POPC   C2B50960  40.373   4.707   6.703
 3936POPC   C3B50961  40.278   4.923   7.078
 3936POPC   C4B50962  40.112   5.303   7.275
 3937POPC   NC350963  21.773  24.052   5.439
 3937POPC   PO450964  21.157  23.967   5.338
 3937POPC   GL150965  21.389  23.724   5.681
 3937POPC   GL250966  21.688  23.490   5.606
 3937POPC   C1A50967  21.399  23.665   6.137
 3937POPC   D2A50968  21.239  23.633   6.559
 3937POPC   C3A50969  21.271  23.884   6.918
 3937POPC   C4A50970  21.178  23.855   7.338
 3937POPC   C1B50971  21.794  23.357   6.048
 3937POPC   C2B50972  21.596  23.294   6.456
 3937POPC   C3B50973  21.665  23.532   6.826
 3937POPC   C4B50974  21.653  23.672   7.246
 3938POPC   NC350975  12.040  39.460   5.614
 3938POPC   PO450976  12.503  39.028   5.634
 3938POPC   GL150977  12.247  39.083   5.967
 3938POPC   GL250978  12.337  39.444   6.045
 3938POPC   C1A50979  11.939  39.137   6.297
 3938POPC   D2A50980  11.730  39.437   6.577
 3938POPC   C3A50981  11.815  39.417   7.011
 3938POPC   C4A50982  12.104  39.537   7.291
 3938POPC   C1B50983  12.460  39.209   6.426
 3938POPC   C2B50984  12.190  39.062   6.766
 3938POPC   C3B50985  11.961  38.915   7.128
 3938POPC   C4B50986  12.054  38.996   7.577
 3939POPC   NC350987  38.695  11.176   5.072
 3939POPC   PO450988  38.235  11.378   5.358
 3939POPC   GL150989  38.246  11.312   5.828
 3939POPC   GL250990  38.574  11.451   5.977
 3939POPC   C1A50991  38.378  11.043   6.205
 3939POPC   D2A50992  38.709  11.042   6.549
 3939POPC   C3A50993  38.637  11.247   6.941
 3939POPC   C4A50994  38.731  11.055   7.324
 3939POPC   C1B50995  38.495  11.495   6.424
 3939POPC   C2B50996  38.269  11.643   6.791
 3939POPC   C3B50997  38.544  11.744   7.111
 3939POPC   C4B50998  38.875  11.603   7.339
 3940POPC   NC350999  42.876  39.955   5.417
 3940POPC   PO451000  43.530  40.034   5.520
 3940POPC   GL151001  43.414  40.144   5.938
 3940POPC   GL251002  43.080  40.073   5.879
 3940POPC   C1A51003  43.272  40.053   6.382
 3940POPC   D2A51004  43.273  39.849   6.784
 3940POPC   C3A51005  43.342  40.189   7.068
 3940POPC   C4A51006  43.289  40.304   7.484
 3940POPC   C1B51007  42.876  39.773   6.143
 3940POPC   C2B51008  42.754  39.882   6.537
 3940POPC   C3B51009  42.835  40.085   6.898
 3940POPC   C4B51010  42.934  39.961   7.263
 3941POPC   NC351011  16.783   8.137   5.549
 3941POPC   PO451012  16.372   8.716   5.515
 3941POPC   GL151013  16.611   8.548   5.837
 3941POPC   GL251014  16.958   8.555   5.845
 3941POPC   C1A51015  16.535   8.284   6.166
 3941POPC   D2A51016  16.354   8.123   6.526
 3941POPC   C3A51017  16.676   8.147   6.860
 3941POPC   C4A51018  16.844   8.089   7.279
 3941POPC   C1B51019  16.954   8.576   6.322
 3941POPC   C2B51020  16.998   8.551   6.797
 3941POPC   C3B51021  17.085   8.559   7.223
 3941POPC   C4B51022  17.355   8.319   7.503
 3942POPC   NC351023   5.812  36.520   5.345
 3942POPC   PO451024   5.915  35.848   5.372
 3942POPC   GL151025   6.015  36.182   5.738
 3942POPC   GL251026   5.734  36.469   5.839
 3942POPC   C1A51027   6.239  36.020   6.146
 3942POPC   D2A51028   5.891  35.852   6.398
 3942POPC   C3A51029   5.890  35.914   6.824
 3942POPC   C4A51030   5.766  36.008   7.246
 3942POPC   C1B51031   5.853  36.333   6.219
 3942POPC   C2B51032   6.104  36.293   6.559
 3942POPC   C3B51033   6.016  36.385   6.970
 3942POPC   C4B51034   5.726  36.538   7.250
 3943POPC   NC351035  28.357  33.221   5.037
 3943POPC   PO451036  28.572  33.489   5.634
 3943POPC   GL151037  28.471  33.175   5.933
 3943POPC   GL251038  28.255  32.901   5.810
 3943POPC   C1A51039  28.503  33.142   6.402
 3943POPC   D2A51040  28.336  33.298   6.805
 3943POPC   C3A51041  28.661  33.294   7.137
 3943POPC   C4A51042  29.017  33.046   7.296
 3943POPC   C1B51043  28.050  33.037   6.203
 3943POPC   C2B51044  27.881  32.847   6.580
 3943POPC   C3B51045  28.116  32.741   6.994
 3943POPC   C4B51046  27.989  32.677   7.440
 3944POPC   NC351047  25.310  37.484   5.440
 3944POPC   PO451048  25.789  37.022   5.438
 3944POPC   GL151049  25.532  37.100   5.785
 3944POPC   GL251050  25.705  36.760   5.889
 3944POPC   C1A51051  25.225  37.112   6.140
 3944POPC   D2A51052  24.989  36.835   6.423
 3944POPC   C3A51053  25.140  36.811   6.854
 3944POPC   C4A51054  25.069  36.938   7.285
 3944POPC   C1B51055  25.734  37.027   6.232
 3944POPC   C2B51056  25.536  37.113   6.601
 3944POPC   C3B51057  25.627  36.945   7.001
 3944POPC   C4B51058  25.467  36.619   7.250
 3945POPC   NC351059   2.004   8.116   5.407
 3945POPC   PO451060   1.665   8.684   5.415
 3945POPC   GL151061   1.932   8.479   5.781
 3945POPC   GL251062   2.007   8.100   5.904
 3945POPC   C1A51063   2.210   8.505   6.145
 3945POPC   D2A51064   2.294   8.197   6.478
 3945POPC   C3A51065   2.330   8.363   6.888
 3945POPC   C4A51066   2.159   8.308   7.292
 3945POPC   C1B51067   1.798   8.214   6.247
 3945POPC   C2B51068   1.703   8.058   6.608
 3945POPC   C3B51069   1.818   8.060   6.990
 3945POPC   C4B51070   1.827   7.748   7.321
 3946POPC   NC351071   4.092  31.849   5.445
 3946POPC   PO451072   4.492  32.304   5.211
 3946POPC   GL151073   4.434  32.393   5.707
 3946POPC   GL251074   4.123  32.227   5.812
 3946POPC   C1A51075   4.486  32.302   6.172
 3946POPC   D2A51076   4.600  32.540   6.530
 3946POPC   C3A51077   4.590  32.585   6.959
 3946POPC   C4A51078   4.434  32.274   7.239
 3946POPC   C1B51079   4.114  31.941   6.170
 3946POPC   C2B51080   4.153  32.058   6.604
 3946POPC   C3B51081   4.012  31.993   7.031
 3946POPC   C4B51082   4.097  31.982   7.502
 3947POPC   NC351083  39.091  37.917   5.561
 3947POPC   PO451084  39.188  37.302   5.482
 3947POPC   GL151085  39.062  37.490   5.888
 3947POPC   GL251086  39.372  37.660   5.931
 3947POPC   C1A51087  39.110  37.479   6.373
 3947POPC   D2A51088  39.377  37.612   6.744
 3947POPC   C3A51089  39.219  37.536   7.164
 3947POPC   C4A51090  39.067  37.688   7.585
 3947POPC   C1B51091  39.325  37.935   6.257
 3947POPC   C2B51092  39.154  38.064   6.616
 3947POPC   C3B51093  39.248  38.033   7.066
 3947POPC   C4B51094  39.475  37.965   7.452
 3948POPC   NC351095   2.156  40.581   5.566
 3948POPC   PO451096   1.829  41.142   5.235
 3948POPC   GL151097   1.808  40.946   5.696
 3948POPC   GL251098   1.658  40.600   5.766
 3948POPC   C1A51099   2.012  40.989   6.132
 3948POPC   D2A51100   1.824  41.102   6.562
 3948POPC   C3A51101   2.017  41.080   6.987
 3948POPC   C4A51102   1.983  40.940   7.426
 3948POPC   C1B51103   1.592  40.718   6.215
 3948POPC   C2B51104   1.788  40.566   6.606
 3948POPC   C3B51105   1.974  40.558   7.015
 3948POPC   C4B51106   1.859  40.446   7.423
 3949POPC   NC351107   0.269  20.127   5.295
 3949POPC   PO451108   0.810  19.755   5.506
 3949POPC   GL151109   0.405  19.808   5.701
 3949POPC   GL251110   0.268  19.493   5.730
 3949POPC   C1A51111   0.339  19.821   6.149
 3949POPC   D2A51112   0.476  19.651   6.529
 3949POPC   C3A51113   0.502  19.887   6.902
 3949POPC   C4A51114   0.736  19.793   7.258
 3949POPC   C1B51115  44.987  19.455   6.094
 3949POPC   C2B51116   0.054  19.368   6.523
 3949POPC   C3B51117   0.081  19.576   6.939
 3949POPC   C4B51118   0.251  19.738   7.327
 3950POPC   NC351119  35.285   4.676   5.168
 3950POPC   PO451120  35.646   4.129   5.318
 3950POPC   GL151121  35.512   4.293   5.784
 3950POPC   GL251122  35.162   4.365   5.923
 3950POPC   C1A51123  35.504   4.495   6.252
 3950POPC   D2A51124  35.344   4.586   6.674
 3950POPC   C3A51125  35.623   4.398   6.936
 3950POPC   C4A51126  35.710   4.215   7.322
 3950POPC   C1B51127  34.975   4.601   6.320
 3950POPC   C2B51128  34.846   4.471   6.767
 3950POPC   C3B51129  35.129   4.362   7.135
 3950POPC   C4B51130  35.440   4.620   7.396
 3951POPC   NC351131  12.384   0.002   5.291
 3951POPC   PO451132  12.982  44.632   5.364
 3951POPC   GL151133  12.755  44.557   5.733
 3951POPC   GL251134  12.602  44.223   5.778
 3951POPC   C1A51135  12.884  44.643   6.132
 3951POPC   D2A51136  13.124  44.624   6.509
 3951POPC   C3A51137  12.883  44.730   6.861
 3951POPC   C4A51138  12.921  44.768   7.271
 3951POPC   C1B51139  12.603  44.005   6.129
 3951POPC   C2B51140  12.693  44.118   6.548
 3951POPC   C3B51141  12.670  44.268   6.971
 3951POPC   C4B51142  12.651  44.376   7.422
 3952POPC   NC351143   1.639  37.590   5.505
 3952POPC   PO451144   1.016  37.390   5.530
 3952POPC   GL151145   1.178  37.744   5.784
 3952POPC   GL251146   0.892  37.959   5.893
 3952POPC   C1A51147   1.390  37.891   6.170
 3952POPC   D2A51148   1.205  37.967   6.588
 3952POPC   C3A51149   1.416  37.871   6.981
 3952POPC   C4A51150   1.509  37.529   7.288
 3952POPC   C1B51151   0.935  37.651   6.231
 3952POPC   C2B51152   1.124  37.455   6.591
 3952POPC   C3B51153   1.047  37.520   7.015
 3952POPC   C4B51154   0.764  37.681   7.301
 3953POPC   NC351155   0.625  19.354   5.377
 3953POPC   PO451156   0.176  18.878   5.366
 3953POPC   GL151157   0.455  19.018   5.733
 3953POPC   GL251158   0.762  18.848   5.777
 3953POPC   C1A51159   0.468  19.264   6.158
 3953POPC   D2A51160   0.549  19.114   6.582
 3953POPC   C3A51161   0.553  19.353   6.941
 3953POPC   C4A51162   0.438  19.185   7.294
 3953POPC   C1B51163   0.545  18.710   6.170
 3953POPC   C2B51164   0.642  18.600   6.582
 3953POPC   C3B51165   0.457  18.714   6.973
 3953POPC   C4B51166   0.465  18.594   7.399
 3954POPC   NC351167  23.711   9.586   5.174
 3954POPC   PO451168  23.971  10.150   5.420
 3954POPC   GL151169  23.735   9.982   5.740
 3954POPC   GL251170  23.698   9.629   5.681
 3954POPC   C1A51171  23.778   9.865   6.184
 3954POPC   D2A51172  23.956   9.810   6.621
 3954POPC   C3A51173  23.803  10.049   6.964
 3954POPC   C4A51174  23.810  10.016   7.388
 3954POPC   C1B51175  23.430   9.503   6.012
 3954POPC   C2B51176  23.473   9.519   6.454
 3954POPC   C3B51177  23.367   9.419   6.886
 3954POPC   C4B51178  23.745   9.533   7.099
 3955POPC   NC351179  15.881  33.499   5.597
 3955POPC   PO451180  16.183  34.089   5.382
 3955POPC   GL151181  16.064  33.950   5.800
 3955POPC   GL251182  16.231  34.113   6.076
 3955POPC   C1A51183  15.813  33.869   6.182
 3955POPC   D2A51184  15.919  33.981   6.591
 3955POPC   C3A51185  15.716  33.680   6.851
 3955POPC   C4A51186  15.781  33.639   7.283
 3955POPC   C1B51187  16.289  33.720   6.289
 3955POPC   C2B51188  16.154  33.534   6.653
 3955POPC   C3B51189  16.203  33.764   7.051
 3955POPC   C4B51190  16.181  33.896   7.507
 3956POPC   NC351191  32.685  22.696   5.498
 3956POPC   PO451192  32.740  23.294   5.269
 3956POPC   GL151193  32.773  23.155   5.728
 3956POPC   GL251194  32.478  22.977   5.863
 3956POPC   C1A51195  33.020  23.021   6.129
 3956POPC   D2A51196  33.092  23.259   6.536
 3956POPC   C3A51197  33.166  23.019   6.916
 3956POPC   C4A51198  33.173  22.968   7.359
 3956POPC   C1B51199  32.608  22.728   6.213
 3956POPC   C2B51200  32.839  22.744   6.615
 3956POPC   C3B51201  32.718  22.795   7.069
 3956POPC   C4B51202  32.844  22.583   7.463
 3957POPC   NC351203  25.370  18.773   5.461
 3957POPC   PO451204  25.054  19.326   5.289
 3957POPC   GL151205  25.201  19.242   5.723
 3957POPC   GL251206  25.032  18.954   5.806
 3957POPC   C1A51207  25.331  19.076   6.173
 3957POPC   D2A51208  25.576  18.945   6.550
 3957POPC   C3A51209  25.483  19.160   6.936
 3957POPC   C4A51210  25.116  19.290   7.169
 3957POPC   C1B51211  25.038  18.664   6.143
 3957POPC   C2B51212  25.056  18.799   6.568
 3957POPC   C3B51213  25.285  18.689   6.915
 3957POPC   C4B51214  25.329  18.832   7.323
 3958POPC   NC351215  20.627   3.788   5.327
 3958POPC   PO451216  20.438   3.186   5.391
 3958POPC   GL151217  20.722   3.297   5.762
 3958POPC   GL251218  20.725   3.663   5.816
 3958POPC   C1A51219  20.873   3.352   6.184
 3958POPC   D2A51220  20.567   3.248   6.495
 3958POPC   C3A51221  20.566   3.345   6.919
 3958POPC   C4A51222  20.585   3.455   7.376
 3958POPC   C1B51223  20.484   3.670   6.195
 3958POPC   C2B51224  20.415   3.786   6.625
 3958POPC   C3B51225  20.584   3.847   7.040
 3958POPC   C4B51226  20.691   4.033   7.447
 3959POPC   NC351227   1.347  26.382   5.397
 3959POPC   PO451228   1.258  25.722   5.293
 3959POPC   GL151229   1.328  25.938   5.664
 3959POPC   GL251230   1.061  25.869   5.831
 3959POPC   C1A51231   1.512  26.051   6.059
 3959POPC   D2A51232   1.500  26.004   6.525
 3959POPC   C3A51233   1.177  26.294   6.723
 3959POPC   C4A51234   1.123  26.412   7.164
 3959POPC   C1B51235   1.046  25.993   6.272
 3959POPC   C2B51236   1.061  25.768   6.649
 3959POPC   C3B51237   1.278  25.897   7.023
 3959POPC   C4B51238   1.079  25.862   7.428
 3960POPC   NC351239  39.624  13.658   5.524
 3960POPC   PO451240  38.947  13.741   5.395
 3960POPC   GL151241  39.170  13.679   5.784
 3960POPC   GL251242  39.041  13.375   5.820
 3960POPC   C1A51243  39.322  13.870   6.198
 3960POPC   D2A51244  39.323  13.970   6.652
 3960POPC   C3A51245  39.360  13.626   6.926
 3960POPC   C4A51246  39.014  13.705   7.158
 3960POPC   C1B51247  39.192  13.362   6.234
 3960POPC   C2B51248  38.991  13.398   6.628
 3960POPC   C3B51249  39.041  13.202   7.024
 3960POPC   C4B51250  39.291  13.332   7.366
 3961POPC   NC351251  26.753  13.819   5.452
 3961POPC   PO451252  26.664  13.210   5.206
 3961POPC   GL151253  26.811  13.398   5.768
 3961POPC   GL251254  26.978  13.735   5.887
 3961POPC   C1A51255  26.634  13.579   6.210
 3961POPC   D2A51256  26.708  13.687   6.620
 3961POPC   C3A51257  26.443  13.628   6.977
 3961POPC   C4A51258  26.663  13.699   7.369
 3961POPC   C1B51259  27.171  13.701   6.279
 3961POPC   C2B51260  27.241  13.552   6.686
 3961POPC   C3B51261  27.166  13.748   7.064
 3961POPC   C4B51262  27.055  14.088   7.312
 3962POPC   NC351263   9.268  43.652   5.424
 3962POPC   PO451264   9.826  43.989   5.280
 3962POPC   GL151265   9.886  43.765   5.652
 3962POPC   GL251266  10.173  43.886   5.814
 3962POPC   C1A51267   9.730  43.665   6.092
 3962POPC   D2A51268   9.623  43.901   6.480
 3962POPC   C3A51269   9.573  43.673   6.870
 3962POPC   C4A51270   9.834  43.779   7.236
 3962POPC   C1B51271  10.083  44.029   6.268
 3962POPC   C2B51272  10.053  43.940   6.757
 3962POPC   C3B51273  10.225  44.113   7.133
 3962POPC   C4B51274  10.129  44.148   7.581
 3963POPC   NC351275   1.979   6.057   5.372
 3963POPC   PO451276   1.666   5.597   5.478
 3963POPC   GL151277   1.919   5.769   5.793
 3963POPC   GL251278   2.274   5.679   5.729
 3963POPC   C1A51279   1.797   5.823   6.210
 3963POPC   D2A51280   1.919   5.869   6.635
 3963POPC   C3A51281   1.721   5.683   6.978
 3963POPC   C4A51282   1.796   6.013   7.263
 3963POPC   C1B51283   2.228   5.539   6.148
 3963POPC   C2B51284   1.953   5.372   6.470
 3963POPC   C3B51285   2.141   5.420   6.849
 3963POPC   C4B51286   2.192   5.673   7.211
 3964POPC   NC351287   4.158  38.827   5.453
 3964POPC   PO451288   4.492  39.451   5.337
 3964POPC   GL151289   4.409  39.197   5.722
 3964POPC   GL251290   4.065  39.281   5.935
 3964POPC   C1A51291   4.465  39.103   6.169
 3964POPC   D2A51292   4.242  39.290   6.517
 3964POPC   C3A51293   4.239  39.125   6.931
 3964POPC   C4A51294   4.414  39.222   7.329
 3964POPC   C1B51295   3.839  39.528   6.289
 3964POPC   C2B51296   3.908  39.610   6.767
 3964POPC   C3B51297   3.999  39.489   7.213
 3964POPC   C4B51298   4.055  39.379   7.658
 3965POPC   NC351299  25.636   1.737   5.573
 3965POPC   PO451300  26.085   1.279   5.315
 3965POPC   GL151301  26.035   1.242   5.817
 3965POPC   GL251302  26.349   1.402   5.902
 3965POPC   C1A51303  25.829   1.145   6.282
 3965POPC   D2A51304  25.828   0.870   6.697
 3965POPC   C3A51305  26.049   1.008   7.092
 3965POPC   C4A51306  25.875   1.406   7.313
 3965POPC   C1B51307  26.304   1.308   6.343
 3965POPC   C2B51308  26.095   1.365   6.739
 3965POPC   C3B51309  26.352   1.421   7.130
 3965POPC   C4B51310  26.373   1.406   7.583
 3966POPC   NC351311  41.217   6.190   5.536
 3966POPC   PO451312  40.831   5.639   5.261
 3966POPC   GL151313  40.760   5.864   5.714
 3966POPC   GL251314  40.944   6.087   5.933
 3966POPC   C1A51315  40.635   5.796   6.183
 3966POPC   D2A51316  40.787   5.683   6.605
 3966POPC   C3A51317  40.558   5.815   6.979
 3966POPC   C4A51318  40.624   5.741   7.429
 3966POPC   C1B51319  41.137   5.895   6.273
 3966POPC   C2B51320  41.238   5.908   6.683
 3966POPC   C3B51321  41.087   5.727   7.055
 3966POPC   C4B51322  41.183   5.830   7.485
 3967POPC   NC351323   3.525   0.953   5.394
 3967POPC   PO451324   3.167   1.600   5.546
 3967POPC   GL151325   3.472   1.387   5.888
 3967POPC   GL251326   3.644   1.064   5.876
 3967POPC   C1A51327   3.474   1.191   6.320
 3967POPC   D2A51328   3.562   1.330   6.701
 3967POPC   C3A51329   3.313   1.300   7.023
 3967POPC   C4A51330   3.103   0.968   7.141
 3967POPC   C1B51331   3.931   0.946   6.207
 3967POPC   C2B51332   3.856   0.905   6.642
 3967POPC   C3B51333   3.640   0.909   7.067
 3967POPC   C4B51334   3.819   0.940   7.469
 3968POPC   NC351335   5.753  37.452   5.191
 3968POPC   PO451336   6.092  36.881   5.341
 3968POPC   GL151337   6.087  36.847   5.784
 3968POPC   GL251338   5.788  37.046   5.776
 3968POPC   C1A51339   5.936  36.823   6.227
 3968POPC   D2A51340   5.804  36.723   6.653
 3968POPC   C3A51341   6.024  36.899   7.012
 3968POPC   C4A51342   5.875  37.051   7.409
 3968POPC   C1B51343   6.060  37.297   6.089
 3968POPC   C2B51344   6.126  37.173   6.548
 3968POPC   C3B51345   6.090  37.399   6.932
 3968POPC   C4B51346   6.175  37.491   7.346
 3969POPC   NC351347  10.244  18.543   5.459
 3969POPC   PO451348  10.851  18.211   5.465
 3969POPC   GL151349  10.455  18.204   5.768
 3969POPC   GL251350  10.243  17.921   5.880
 3969POPC   C1A51351  10.333  18.363   6.168
 3969POPC   D2A51352  10.738  18.362   6.372
 3969POPC   C3A51353  10.784  18.305   6.805
 3969POPC   C4A51354  10.679  18.548   7.128
 3969POPC   C1B51355  10.381  17.878   6.331
 3969POPC   C2B51356  10.408  17.929   6.802
 3969POPC   C3B51357  10.373  18.047   7.249
 3969POPC   C4B51358  10.292  17.943   7.741
 3970POPC   NC351359   9.515  21.917   5.415
 3970POPC   PO451360   9.908  22.376   5.132
 3970POPC   GL151361   9.719  22.298   5.645
 3970POPC   GL251362   9.837  21.985   5.826
 3970POPC   C1A51363   9.727  22.429   6.094
 3970POPC   D2A51364   9.985  22.386   6.485
 3970POPC   C3A51365   9.769  22.368   6.902
 3970POPC   C4A51366   9.658  22.500   7.326
 3970POPC   C1B51367   9.527  21.942   6.206
 3970POPC   C2B51368   9.350  22.053   6.652
 3970POPC   C3B51369   9.461  21.965   7.102
 3970POPC   C4B51370   9.409  22.092   7.546
 3971POPC   NC351371  31.847  28.436   5.509
 3971POPC   PO451372  31.314  28.008   5.477
 3971POPC   GL151373  31.464  28.241   5.803
 3971POPC   GL251374  31.792  28.033   5.828
 3971POPC   C1A51375  31.359  28.485   6.175
 3971POPC   D2A51376  31.552  28.420   6.580
 3971POPC   C3A51377  31.428  28.589   6.971
 3971POPC   C4A51378  31.654  28.686   7.305
 3971POPC   C1B51379  31.602  28.022   6.239
 3971POPC   C2B51380  31.532  27.880   6.649
 3971POPC   C3B51381  31.574  28.096   6.981
 3971POPC   C4B51382  31.677  28.047   7.335
 3972POPC   NC351383  18.850   3.299   5.161
 3972POPC   PO451384  19.068   3.778   5.467
 3972POPC   GL151385  19.100   3.504   5.826
 3972POPC   GL251386  18.878   3.214   5.808
 3972POPC   C1A51387  19.147   3.322   6.256
 3972POPC   D2A51388  19.061   3.401   6.687
 3972POPC   C3A51389  19.168   3.405   7.098
 3972POPC   C4A51390  19.287   3.676   7.460
 3972POPC   C1B51391  18.688   3.066   6.204
 3972POPC   C2B51392  18.863   2.935   6.619
 3972POPC   C3B51393  18.682   3.145   6.988
 3972POPC   C4B51394  18.793   3.288   7.439
 3973POPC   NC351395   8.282   7.385   5.512
 3973POPC   PO451396   7.663   7.412   5.469
 3973POPC   GL151397   7.858   7.298   5.864
 3973POPC   GL251398   8.124   7.522   5.968
 3973POPC   C1A51399   7.770   7.430   6.319
 3973POPC   D2A51400   7.703   7.317   6.752
 3973POPC   C3A51401   7.808   7.586   7.108
 3973POPC   C4A51402   8.108   7.628   7.448
 3973POPC   C1B51403   8.261   7.451   6.363
 3973POPC   C2B51404   8.174   7.539   6.759
 3973POPC   C3B51405   8.456   7.482   7.128
 3973POPC   C4B51406   8.552   7.071   7.330
 3974POPC   NC351407   8.503  16.542   5.260
 3974POPC   PO451408   7.913  16.862   5.304
 3974POPC   GL151409   8.179  16.695   5.647
 3974POPC   GL251410   8.522  16.798   5.710
 3974POPC   C1A51411   8.177  16.503   6.058
 3974POPC   D2A51412   7.911  16.410   6.393
 3974POPC   C3A51413   8.139  16.283   6.783
 3974POPC   C4A51414   8.157  16.531   7.149
 3974POPC   C1B51415   8.580  16.847   6.151
 3974POPC   C2B51416   8.455  16.678   6.545
 3974POPC   C3B51417   8.437  16.894   6.925
 3974POPC   C4B51418   8.544  16.782   7.336
 3975POPC   NC351419  36.029  41.061   5.495
 3975POPC   PO451420  36.395  40.589   5.511
 3975POPC   GL151421  36.347  40.775   5.883
 3975POPC   GL251422  36.002  40.740   5.898
 3975POPC   C1A51423  36.280  40.817   6.326
 3975POPC   D2A51424  36.013  40.801   6.672
 3975POPC   C3A51425  36.259  40.720   7.020
 3975POPC   C4A51426  36.335  41.004   7.318
 3975POPC   C1B51427  35.788  40.592   6.244
 3975POPC   C2B51428  35.749  40.362   6.638
 3975POPC   C3B51429  35.785  40.517   7.056
 3975POPC   C4B51430  35.968  40.676   7.453
 3976POPC   NC351431  27.693  27.093   5.434
 3976POPC   PO451432  27.398  26.453   5.411
 3976POPC   GL151433  27.368  26.670   5.777
 3976POPC   GL251434  27.671  26.515   5.862
 3976POPC   C1A51435  27.483  26.853   6.190
 3976POPC   D2A51436  27.518  26.699   6.591
 3976POPC   C3A51437  27.450  27.014   6.865
 3976POPC   C4A51438  27.739  27.144   7.133
 3976POPC   C1B51439  27.766  26.379   6.254
 3976POPC   C2B51440  27.948  26.408   6.658
 3976POPC   C3B51441  27.875  26.650   7.004
 3976POPC   C4B51442  27.957  26.785   7.405
 3977POPC   NC351443  34.944  33.311   5.557
 3977POPC   PO451444  34.277  33.177   5.404
 3977POPC   GL151445  34.507  33.129   5.796
 3977POPC   GL251446  34.313  32.871   5.953
 3977POPC   C1A51447  34.805  33.105   6.173
 3977POPC   D2A51448  34.856  33.171   6.625
 3977POPC   C3A51449  34.441  33.244   6.881
 3977POPC   C4A51450  34.320  33.008   7.247
 3977POPC   C1B51451  34.674  32.620   6.121
 3977POPC   C2B51452  34.864  32.606   6.520
 3977POPC   C3B51453  34.663  32.770   6.885
 3977POPC   C4B51454  34.768  32.757   7.276
 3978POPC   NC351455  42.554  39.276   5.361
 3978POPC   PO451456  41.879  38.921   5.377
 3978POPC   GL151457  42.165  38.961   5.765
 3978POPC   GL251458  42.560  38.958   5.771
 3978POPC   C1A51459  42.261  39.325   6.065
 3978POPC   D2A51460  42.524  39.413   6.432
 3978POPC   C3A51461  42.312  39.431   6.838
 3978POPC   C4A51462  42.361  39.397   7.287
 3978POPC   C1B51463  42.501  38.902   6.213
 3978POPC   C2B51464  42.215  39.016   6.560
 3978POPC   C3B51465  42.240  38.942   7.039
 3978POPC   C4B51466  42.420  38.784   7.445
 3979POPC   NC351467   7.668  23.602   5.158
 3979POPC   PO451468   7.338  24.015   5.560
 3979POPC   GL151469   7.348  23.797   5.895
 3979POPC   GL251470   7.649  23.613   5.874
 3979POPC   C1A51471   7.298  23.607   6.281
 3979POPC   D2A51472   7.248  23.530   6.692
 3979POPC   C3A51473   7.065  23.802   6.933
 3979POPC   C4A51474   7.008  23.672   7.331
 3979POPC   C1B51475   7.733  23.899   6.226
 3979POPC   C2B51476   7.719  23.693   6.618
 3979POPC   C3B51477   7.595  23.760   7.043
 3979POPC   C4B51478   7.857  23.836   7.399
 3980POPC   NC351479  28.771  12.457   5.027
 3980POPC   PO451480  29.160  11.944   5.158
 3980POPC   GL151481  29.144  11.977   5.653
 3980POPC   GL251482  28.828  12.081   5.772
 3980POPC   C1A51483  29.187  12.107   6.141
 3980POPC   D2A51484  29.380  12.225   6.569
 3980POPC   C3A51485  29.144  12.112   6.964
 3980POPC   C4A51486  29.129  12.283   7.366
 3980POPC   C1B51487  28.647  11.887   6.131
 3980POPC   C2B51488  28.720  11.669   6.491
 3980POPC   C3B51489  28.745  11.758   6.926
 3980POPC   C4B51490  28.867  11.858   7.345
 3981POPC   NC351491  20.597  42.075   5.351
 3981POPC   PO451492  20.460  42.805   5.351
 3981POPC   GL151493  20.521  42.472   5.655
 3981POPC   GL251494  20.242  42.221   5.685
 3981POPC   C1A51495  20.640  42.403   6.080
 3981POPC   D2A51496  20.598  42.230   6.496
 3981POPC   C3A51497  20.747  42.299   6.942
 3981POPC   C4A51498  20.924  42.371   7.393
 3981POPC   C1B51499  20.338  41.996   6.072
 3981POPC   C2B51500  20.157  41.969   6.498
 3981POPC   C3B51501  20.333  42.011   6.881
 3981POPC   C4B51502  20.507  41.695   7.107
 3982POPC   NC351503  19.991  34.421   5.503
 3982POPC   PO451504  19.485  34.919   5.418
 3982POPC   GL151505  19.784  34.815   5.759
 3982POPC   GL251506  20.013  35.083   5.899
 3982POPC   C1A51507  19.768  34.488   6.112
 3982POPC   D2A51508  19.612  34.495   6.516
 3982POPC   C3A51509  19.811  34.285   6.870
 3982POPC   C4A51510  19.800  34.473   7.270
 3982POPC   C1B51511  20.189  34.769   6.150
 3982POPC   C2B51512  20.130  34.525   6.499
 3982POPC   C3B51513  20.025  34.747   6.857
 3982POPC   C4B51514  20.286  34.708   7.211
 3983POPC   NC351515  38.827   1.721   5.226
 3983POPC   PO451516  39.327   2.185   5.430
 3983POPC   GL151517  39.191   2.042   5.813
 3983POPC   GL251518  38.900   2.237   5.846
 3983POPC   C1A51519  39.364   1.870   6.201
 3983POPC   D2A51520  39.286   1.887   6.641
 3983POPC   C3A51521  39.626   1.797   6.912
 3983POPC   C4A51522  39.465   1.883   7.319
 3983POPC   C1B51523  39.014   2.240   6.285
 3983POPC   C2B51524  38.884   2.210   6.720
 3983POPC   C3B51525  39.023   2.061   7.111
 3983POPC   C4B51526  39.174   2.348   7.420
 3984POPC   NC351527  24.558  38.193   4.787
 3984POPC   PO451528  24.485  38.460   5.421
 3984POPC   GL151529  24.344  38.463   5.833
 3984POPC   GL251530  24.286  38.143   5.778
 3984POPC   C1A51531  24.542  38.424   6.259
 3984POPC   D2A51532  24.794  38.308   6.644
 3984POPC   C3A51533  24.758  38.516   7.068
 3984POPC   C4A51534  24.473  38.510   7.451
 3984POPC   C1B51535  24.126  38.143   6.183
 3984POPC   C2B51536  24.312  38.094   6.605
 3984POPC   C3B51537  24.501  38.089   7.011
 3984POPC   C4B51538  24.189  38.070   7.322
 3985POPC   NC351539  21.796  12.950   5.655
 3985POPC   PO451540  22.342  12.824   5.284
 3985POPC   GL151541  22.333  12.986   5.694
 3985POPC   GL251542  22.218  12.703   5.811
 3985POPC   C1A51543  22.190  13.064   6.163
 3985POPC   D2A51544  21.975  12.848   6.534
 3985POPC   C3A51545  22.138  12.890   6.931
 3985POPC   C4A51546  22.039  12.815   7.341
 3985POPC   C1B51547  22.246  12.523   6.235
 3985POPC   C2B51548  22.305  12.440   6.693
 3985POPC   C3B51549  22.363  12.466   7.146
 3985POPC   C4B51550  22.359  12.500   7.601
 3986POPC   NC351551  25.629  35.921   5.528
 3986POPC   PO451552  25.637  35.223   5.359
 3986POPC   GL151553  25.586  35.465   5.783
 3986POPC   GL251554  25.320  35.761   5.917
 3986POPC   C1A51555  25.485  35.344   6.224
 3986POPC   D2A51556  25.432  35.327   6.675
 3986POPC   C3A51557  25.093  35.137   6.889
 3986POPC   C4A51558  24.986  35.215   7.299
 3986POPC   C1B51559  25.015  35.752   6.304
 3986POPC   C2B51560  25.010  35.644   6.770
 3986POPC   C3B51561  25.249  35.617   7.159
 3986POPC   C4B51562  25.199  35.501   7.650
 3987POPC   NC351563  32.144   3.988   5.361
 3987POPC   PO451564  32.413   4.493   5.076
 3987POPC   GL151565  32.295   4.363   5.631
 3987POPC   GL251566  32.477   4.079   5.761
 3987POPC   C1A51567  32.426   4.410   6.147
 3987POPC   D2A51568  32.592   4.336   6.579
 3987POPC   C3A51569  32.455   4.466   7.020
 3987POPC   C4A51570  32.497   4.154   7.356
 3987POPC   C1B51571  32.035   4.131   6.002
 3987POPC   C2B51572  31.922   4.115   6.430
 3987POPC   C3B51573  32.099   4.245   6.761
 3987POPC   C4B51574  32.035   4.198   7.184
 3988POPC   NC351575   0.772  23.512   5.311
 3988POPC   PO451576   0.157  23.802   5.205
 3988POPC   GL151577   0.419  23.808   5.578
 3988POPC   GL251578   0.415  23.461   5.688
 3988POPC   C1A51579   0.416  23.879   6.032
 3988POPC   D2A51580   0.346  23.661   6.428
 3988POPC   C3A51581   0.300  23.841   6.830
 3988POPC   C4A51582   0.151  23.734   7.242
 3988POPC   C1B51583   0.612  23.353   6.079
 3988POPC   C2B51584   0.740  23.342   6.509
 3988POPC   C3B51585   0.586  23.402   6.898
 3988POPC   C4B51586   0.665  23.701   7.192
 3989POPC   NC351587   8.877  33.418   5.430
 3989POPC   PO451588   8.944  34.088   5.408
 3989POPC   GL151589   8.890  33.845   5.762
 3989POPC   GL251590   9.194  33.711   5.887
 3989POPC   C1A51591   8.795  33.788   6.205
 3989POPC   D2A51592   8.953  33.558   6.551
 3989POPC   C3A51593   8.801  33.724   6.922
 3989POPC   C4A51594   8.865  33.463   7.214
 3989POPC   C1B51595   9.404  33.560   6.285
 3989POPC   C2B51596   9.476  33.407   6.734
 3989POPC   C3B51597   9.367  33.512   7.187
 3989POPC   C4B51598   9.145  33.828   7.416
 3990POPC   NC351599  26.945   6.972   5.375
 3990POPC   PO451600  26.608   7.549   5.389
 3990POPC   GL151601  26.797   7.359   5.742
 3990POPC   GL251602  26.558   7.094   5.772
 3990POPC   C1A51603  26.955   7.546   6.159
 3990POPC   D2A51604  26.669   7.578   6.510
 3990POPC   C3A51605  26.605   7.487   6.919
 3990POPC   C4A51606  26.804   7.584   7.300
 3990POPC   C1B51607  26.782   7.079   6.174
 3990POPC   C2B51608  26.989   7.160   6.532
 3990POPC   C3B51609  26.931   7.101   6.951
 3990POPC   C4B51610  26.747   7.099   7.344
 3991POPC   NC351611  18.117   0.835   5.461
 3991POPC   PO451612  18.619   1.263   5.398
 3991POPC   GL151613  18.321   1.346   5.722
 3991POPC   GL251614  18.257   1.054   5.904
 3991POPC   C1A51615  18.307   1.554   6.132
 3991POPC   D2A51616  18.449   1.625   6.558
 3991POPC   C3A51617  18.248   1.459   6.911
 3991POPC   C4A51618  18.372   1.402   7.347
 3991POPC   C1B51619  18.098   1.107   6.327
 3991POPC   C2B51620  17.933   0.970   6.731
 3991POPC   C3B51621  18.119   1.015   7.129
 3991POPC   C4B51622  17.927   1.191   7.456
 3992POPC   NC351623   3.171  43.756   5.279
 3992POPC   PO451624   3.819  43.791   5.411
 3992POPC   GL151625   3.661  43.627   5.806
 3992POPC   GL251626   3.591  43.976   5.868
 3992POPC   C1A51627   3.432  43.705   6.244
 3992POPC   D2A51628   3.176  43.752   6.614
 3992POPC   C3A51629   3.396  43.718   6.992
 3992POPC   C4A51630   3.501  43.708   7.428
 3992POPC   C1B51631   3.794  44.094   6.292
 3992POPC   C2B51632   3.743  44.158   6.747
 3992POPC   C3B51633   3.733  44.086   7.191
 3992POPC   C4B51634   3.891  43.978   7.597
 3993POPC   NC351635  33.210  40.832   5.245
 3993POPC   PO451636  33.095  40.439   5.755
 3993POPC   GL151637  33.068  40.859   5.926
 3993POPC   GL251638  32.739  40.915   5.989
 3993POPC   C1A51639  33.148  40.928   6.380
 3993POPC   D2A51640  33.421  40.683   6.685
 3993POPC   C3A51641  33.216  40.572   7.087
 3993POPC   C4A51642  33.046  40.710   7.485
 3993POPC   C1B51643  32.733  40.567   6.278
 3993POPC   C2B51644  32.852  40.586   6.708
 3993POPC   C3B51645  32.700  40.775   7.087
 3993POPC   C4B51646  32.766  41.123   7.351
 3994POPC   NC351647  23.349  29.231   5.309
 3994POPC   PO451648  23.715  28.767   5.387
 3994POPC   GL151649  23.794  29.069   5.742
 3994POPC   GL251650  23.990  28.912   6.016
 3994POPC   C1A51651  23.723  29.330   6.161
 3994POPC   D2A51652  23.841  29.238   6.621
 3994POPC   C3A51653  23.647  29.352   7.025
 3994POPC   C4A51654  23.606  29.322   7.463
 3994POPC   C1B51655  24.197  28.903   6.429
 3994POPC   C2B51656  24.185  28.916   6.868
 3994POPC   C3B51657  23.912  28.948   7.234
 3994POPC   C4B51658  24.044  28.757   7.614
 3995POPC   NC351659  42.054  19.248   5.516
 3995POPC   PO451660  42.602  18.882   5.432
 3995POPC   GL151661  42.410  19.029   5.805
 3995POPC   GL251662  42.515  19.389   5.695
 3995POPC   C1A51663  42.190  19.069   6.219
 3995POPC   D2A51664  41.977  19.149   6.637
 3995POPC   C3A51665  42.214  19.213   7.012
 3995POPC   C4A51666  42.479  18.913   7.230
 3995POPC   C1B51667  42.571  19.445   6.136
 3995POPC   C2B51668  42.521  19.319   6.575
 3995POPC   C3B51669  42.698  19.387   6.998
 3995POPC   C4B51670  42.532  19.414   7.393
 3996POPC   NC351671  16.144   7.696   5.160
 3996POPC   PO451672  15.542   7.414   5.329
 3996POPC   GL151673  15.645   7.361   5.825
 3996POPC   GL251674  15.448   7.066   5.990
 3996POPC   C1A51675  15.777   7.519   6.275
 3996POPC   D2A51676  16.091   7.677   6.628
 3996POPC   C3A51677  16.086   7.528   7.078
 3996POPC   C4A51678  16.115   7.481   7.538
 3996POPC   C1B51679  15.421   7.179   6.400
 3996POPC   C2B51680  15.658   7.363   6.766
 3996POPC   C3B51681  15.792   7.114   7.109
 3996POPC   C4B51682  16.049   6.743   7.104
 3997POPC   NC351683  40.221  20.640   5.266
 3997POPC   PO451684  39.987  21.210   5.352
 3997POPC   GL151685  40.061  20.888   5.720
 3997POPC   GL251686  40.097  20.525   5.763
 3997POPC   C1A51687  40.154  20.845   6.161
 3997POPC   D2A51688  40.332  20.964   6.547
 3997POPC   C3A51689  40.098  20.862   6.878
 3997POPC   C4A51690  40.137  20.692   7.241
 3997POPC   C1B51691  39.821  20.452   6.125
 3997POPC   C2B51692  39.876  20.514   6.549
 3997POPC   C3B51693  40.131  20.343   6.867
 3997POPC   C4B51694  39.865  20.273   7.213
 3998POPC   NC351695  36.466   0.859   5.334
 3998POPC   PO451696  36.000   0.340   5.372
 3998POPC   GL151697  36.012   0.441   5.766
 3998POPC   GL251698  36.272   0.657   5.752
 3998POPC   C1A51699  36.024   0.290   6.186
 3998POPC   D2A51700  36.233   0.298   6.567
 3998POPC   C3A51701  35.970   0.411   6.915
 3998POPC   C4A51702  35.808   0.316   7.313
 3998POPC   C1B51703  36.455   0.593   6.139
 3998POPC   C2B51704  36.628   0.641   6.533
 3998POPC   C3B51705  36.431   0.630   6.933
 3998POPC   C4B51706  36.298   0.467   7.343
 3999POPC   NC351707  39.807   7.553   5.484
 3999POPC   PO451708  40.360   7.908   5.446
 3999POPC   GL151709  40.376   8.178   5.874
 3999POPC   GL251710  40.071   8.409   5.924
 3999POPC   C1A51711  40.364   8.389   6.335
 3999POPC   D2A51712  40.361   8.552   6.787
 3999POPC   C3A51713  40.129   8.260   7.097
 3999POPC   C4A51714  40.201   7.793   7.164
 3999POPC   C1B51715  39.788   8.467   6.341
 3999POPC   C2B51716  39.476   8.402   6.734
 3999POPC   C3B51717  39.515   8.157   7.136
 3999POPC   C4B51718  39.767   7.914   7.471
 4000POPC   NC351719  35.582  39.400   5.483
 4000POPC   PO451720  35.039  39.019   5.348
 4000POPC   GL151721  35.219  39.153   5.786
 4000POPC   GL251722  35.576  39.189   5.943
 4000POPC   C1A51723  35.165  39.329   6.219
 4000POPC   D2A51724  35.353  39.165   6.590
 4000POPC   C3A51725  35.353  39.373   6.993
 4000POPC   C4A51726  35.120  39.326   7.369
 4000POPC   C1B51727  35.627  39.534   6.260
 4000POPC   C2B51728  35.758  39.442   6.682
 4000POPC   C3B51729  35.748  39.047   7.003
 4000POPC   C4B51730  35.458  38.945   7.362
 4001POPC   NC351731  22.387  44.278   5.455
 4001POPC   PO451732  22.127  43.617   5.450
 4001POPC   GL151733  22.041  43.668   5.860
 4001POPC   GL251734  22.124  44.027   5.874
 4001POPC   C1A51735  21.989  43.707   6.276
 4001POPC   D2A51736  22.189  43.568   6.618
 4001POPC   C3A51737  22.073  43.831   6.947
 4001POPC   C4A51738  21.932  43.794   7.343
 4001POPC   C1B51739  22.453  44.012   6.172
 4001POPC   C2B51740  22.610  44.056   6.581
 4001POPC   C3B51741  22.462  44.167   6.969
 4001POPC   C4B51742  22.411  43.953   7.370
 4002POPC   NC351743  44.292  24.809   5.446
 4002POPC   PO451744  44.768  24.298   5.462
 4002POPC   GL151745  44.516  24.486   5.777
 4002POPC   GL251746  44.770  24.747   5.747
 4002POPC   C1A51747  44.355  24.367   6.188
 4002POPC   D2A51748  44.482  24.187   6.608
 4002POPC   C3A51749  44.596  24.445   6.991
 4002POPC   C4A51750  44.569  24.668   7.400
 4002POPC   C1B51751  44.836  24.602   6.164
 4002POPC   C2B51752  44.600  24.700   6.517
 4002POPC   C3B51753  44.750  24.918   6.849
 4002POPC   C4B51754   0.015  24.807   7.152
 4003POPC   NC351755  13.539  19.468   5.391
 4003POPC   PO451756  13.683  18.846   5.393
 4003POPC   GL151757  13.736  19.124   5.728
 4003POPC   GL251758  13.382  19.236   5.819
 4003POPC   C1A51759  13.807  19.338   6.122
 4003POPC   D2A51760  13.508  19.397   6.468
 4003POPC   C3A51761  13.658  19.204   6.830
 4003POPC   C4A51762  13.734  19.159   7.232
 4003POPC   C1B51763  13.432  18.951   6.163
 4003POPC   C2B51764  13.383  18.831   6.602
 4003POPC   C3B51765  13.414  18.741   7.061
 4003POPC   C4B51766  13.491  18.828   7.513
 4004POPC   NC351767   2.456  23.910   5.520
 4004POPC   PO451768   3.060  23.530   5.600
 4004POPC   GL151769   2.741  23.645   5.856
 4004POPC   GL251770   2.381  23.480   5.852
 4004POPC   C1A51771   2.874  23.886   6.193
 4004POPC   D2A51772   2.701  24.104   6.529
 4004POPC   C3A51773   2.830  23.930   6.878
 4004POPC   C4A51774   2.794  24.106   7.257
 4004POPC   C1B51775   2.590  23.404   6.277
 4004POPC   C2B51776   2.972  23.477   6.524
 4004POPC   C3B51777   3.020  23.465   6.966
 4004POPC   C4B51778   2.786  23.599   7.310
 4005POPC   NC351779   5.454  38.808   5.449
 4005POPC   PO451780   5.981  38.326   5.474
 4005POPC   GL151781   5.864  38.277   5.864
 4005POPC   GL251782   5.527  38.440   5.831
 4005POPC   C1A51783   6.121  38.290   6.235
 4005POPC   D2A51784   6.412  38.358   6.577
 4005POPC   C3A51785   6.167  38.357   6.960
 4005POPC   C4A51786   5.893  38.696   7.109
 4005POPC   C1B51787   5.468  38.147   6.154
 4005POPC   C2B51788   5.699  38.112   6.517
 4005POPC   C3B51789   5.637  38.269   6.937
 4005POPC   C4B51790   5.580  38.366   7.361
 4006POPC   NC351791  26.806   4.778   5.178
 4006POPC   PO451792  26.561   4.274   5.644
 4006POPC   GL151793  26.837   4.334   6.017
 4006POPC   GL251794  26.608   4.521   6.177
 4006POPC   C1A51795  26.913   4.247   6.470
 4006POPC   D2A51796  26.803   4.575   6.779
 4006POPC   C3A51797  26.843   4.401   7.197
 4006POPC   C4A51798  26.871   4.248   7.626
 4006POPC   C1B51799  26.490   4.020   6.216
 4006POPC   C2B51800  26.631   3.801   6.554
 4006POPC   C3B51801  26.703   3.971   6.937
 4006POPC   C4B51802  26.471   4.035   7.288
 4007POPC   NC351803  25.783  33.204   5.361
 4007POPC   PO451804  25.810  33.837   5.128
 4007POPC   GL151805  25.907  33.684   5.563
 4007POPC   GL251806  25.922  33.997   5.724
 4007POPC   C1A51807  26.165  33.627   5.972
 4007POPC   D2A51808  26.274  33.606   6.419
 4007POPC   C3A51809  26.063  33.623   6.827
 4007POPC   C4A51810  26.207  33.631   7.232
 4007POPC   C1B51811  26.075  34.109   6.167
 4007POPC   C2B51812  26.095  34.078   6.608
 4007POPC   C3B51813  26.217  34.108   7.032
 4007POPC   C4B51814  26.096  34.416   7.345
 4008POPC   NC351815  29.321  17.669   5.425
 4008POPC   PO451816  28.727  17.289   5.380
 4008POPC   GL151817  29.005  17.286   5.782
 4008POPC   GL251818  29.090  17.641   5.882
 4008POPC   C1A51819  28.854  17.358   6.239
 4008POPC   D2A51820  28.795  17.635   6.602
 4008POPC   C3A51821  29.168  17.677   6.881
 4008POPC   C4A51822  29.228  17.499   7.259
 4008POPC   C1B51823  29.406  17.867   6.157
 4008POPC   C2B51824  29.581  17.879   6.581
 4008POPC   C3B51825  29.658  17.985   7.012
 4008POPC   C4B51826  29.597  17.819   7.423
 4009POPC   NC351827   5.919  17.235   5.283
 4009POPC   PO451828   6.070  17.898   5.339
 4009POPC   GL151829   5.906  17.679   5.681
 4009POPC   GL251830   6.174  17.422   5.707
 4009POPC   C1A51831   5.712  17.849   6.107
 4009POPC   D2A51832   5.473  17.747   6.512
 4009POPC   C3A51833   5.700  17.835   6.944
 4009POPC   C4A51834   6.018  17.579   7.097
 4009POPC   C1B51835   5.896  17.366   6.097
 4009POPC   C2B51836   5.919  17.464   6.547
 4009POPC   C3B51837   5.948  17.143   6.874
 4009POPC   C4B51838   5.712  17.144   7.246
 4010POPC   NC351839   3.776   9.560   5.332
 4010POPC   PO451840   3.098   9.848   5.330
 4010POPC   GL151841   3.405   9.891   5.706
 4010POPC   GL251842   3.671   9.720   5.830
 4010POPC   C1A51843   3.304   9.895   6.186
 4010POPC   D2A51844   3.229   9.620   6.584
 4010POPC   C3A51845   3.540   9.709   6.916
 4010POPC   C4A51846   3.568  10.030   7.235
 4010POPC   C1B51847   3.676   9.520   6.257
 4010POPC   C2B51848   3.675   9.274   6.640
 4010POPC   C3B51849   3.888   9.343   7.032
 4010POPC   C4B51850   3.952   9.690   7.298
 4011POPC   NC351851  36.920  25.565   5.307
 4011POPC   PO451852  36.725  24.903   5.449
 4011POPC   GL151853  36.933  25.216   5.699
 4011POPC   GL251854  36.621  25.433   5.714
 4011POPC   C1A51855  37.066  25.237   6.133
 4011POPC   D2A51856  36.752  25.022   6.410
 4011POPC   C3A51857  36.758  25.149   6.835
 4011POPC   C4A51858  36.700  24.953   7.218
 4011POPC   C1B51859  36.616  25.468   6.156
 4011POPC   C2B51860  36.878  25.596   6.522
 4011POPC   C3B51861  36.859  25.651   6.975
 4011POPC   C4B51862  36.532  25.491   7.229
 4012POPC   NC351863  31.737  23.864   5.536
 4012POPC   PO451864  31.806  24.597   5.550
 4012POPC   GL151865  31.572  24.674   5.915
 4012POPC   GL251866  31.201  24.673   5.897
 4012POPC   C1A51867  31.502  24.430   6.289
 4012POPC   D2A51868  31.692  24.161   6.627
 4012POPC   C3A51869  31.551  24.340   7.020
 4012POPC   C4A51870  31.751  24.382   7.416
 4012POPC   C1B51871  31.050  24.738   6.271
 4012POPC   C2B51872  31.234  24.718   6.676
 4012POPC   C3B51873  31.045  24.928   7.018
 4012POPC   C4B51874  30.967  24.707   7.359
 4013POPC   NC351875   3.871  43.312   5.382
 4013POPC   PO451876   4.394  42.694   5.380
 4013POPC   GL151877   4.252  42.948   5.786
 4013POPC   GL251878   4.040  43.238   5.858
 4013POPC   C1A51879   4.527  43.214   6.096
 4013POPC   D2A51880   4.420  43.438   6.480
 4013POPC   C3A51881   4.549  43.299   6.902
 4013POPC   C4A51882   4.627  42.956   7.187
 4013POPC   C1B51883   4.082  43.096   6.301
 4013POPC   C2B51884   4.034  43.205   6.735
 4013POPC   C3B51885   4.118  43.145   7.171
 4013POPC   C4B51886   4.029  43.027   7.579
 4014POPC   NC351887  29.896  26.994   5.303
 4014POPC   PO451888  29.452  26.581   5.617
 4014POPC   GL151889  29.763  26.852   5.807
 4014POPC   GL251890  30.095  26.705   5.780
 4014POPC   C1A51891  30.030  27.097   6.117
 4014POPC   D2A51892  30.241  27.075   6.538
 4014POPC   C3A51893  30.029  27.012   6.926
 4014POPC   C4A51894  30.113  27.209   7.309
 4014POPC   C1B51895  30.293  26.650   6.219
 4014POPC   C2B51896  30.413  26.598   6.669
 4014POPC   C3B51897  30.177  26.531   7.051
 4014POPC   C4B51898  29.779  26.472   7.208
 4015POPC   NC351899  10.988  37.286   5.601
 4015POPC   PO451900  11.648  37.614   5.497
 4015POPC   GL151901  11.635  37.703   5.943
 4015POPC   GL251902  11.310  37.551   5.896
 4015POPC   C1A51903  11.431  37.620   6.371
 4015POPC   D2A51904  11.172  37.834   6.684
 4015POPC   C3A51905  11.501  37.772   7.013
 4015POPC   C4A51906  11.495  37.807   7.465
 4015POPC   C1B51907  10.951  37.568   6.189
 4015POPC   C2B51908  10.899  37.341   6.550
 4015POPC   C3B51909  11.101  37.401   6.953
 4015POPC   C4B51910  11.048  37.795   7.220
 4016POPC   NC351911  21.814  16.098   5.486
 4016POPC   PO451912  22.453  15.935   5.445
 4016POPC   GL151913  22.172  15.916   5.794
 4016POPC   GL251914  21.924  15.632   5.769
 4016POPC   C1A51915  21.977  16.079   6.187
 4016POPC   D2A51916  22.112  16.299   6.557
 4016POPC   C3A51917  22.138  16.098   6.986
 4016POPC   C4A51918  22.242  16.215   7.370
 4016POPC   C1B51919  22.183  15.592   6.170
 4016POPC   C2B51920  22.148  15.760   6.593
 4016POPC   C3B51921  22.069  15.577   7.003
 4016POPC   C4B51922  22.146  15.727   7.445
 4017POPC   NC351923  35.461  13.210   5.538
 4017POPC   PO451924  35.167  12.711   5.380
 4017POPC   GL151925  35.164  12.866   5.790
 4017POPC   GL251926  35.483  12.741   5.868
 4017POPC   C1A51927  35.043  12.756   6.210
 4017POPC   D2A51928  35.242  12.734   6.604
 4017POPC   C3A51929  34.977  12.786   6.977
 4017POPC   C4A51930  34.903  12.882   7.397
 4017POPC   C1B51931  35.656  12.774   6.279
 4017POPC   C2B51932  35.666  13.082   6.608
 4017POPC   C3B51933  35.428  13.058   6.982
 4017POPC   C4B51934  35.479  12.954   7.391
 4018POPC   NC351935  20.326  10.713   5.684
 4018POPC   PO451936  20.836  10.376   5.466
 4018POPC   GL151937  20.755  10.470   5.861
 4018POPC   GL251938  20.967  10.751   5.845
 4018POPC   C1A51939  20.550  10.309   6.255
 4018POPC   D2A51940  20.461  10.202   6.706
 4018POPC   C3A51941  20.395  10.478   7.060
 4018POPC   C4A51942  20.377  10.246   7.460
 4018POPC   C1B51943  20.674  10.829   6.219
 4018POPC   C2B51944  20.582  10.702   6.614
 4018POPC   C3B51945  20.850  10.673   6.962
 4018POPC   C4B51946  20.727  10.645   7.405
 4019POPC   NC351947   4.758  21.631   5.316
 4019POPC   PO451948   5.247  21.299   5.620
 4019POPC   GL151949   4.893  21.444   5.855
 4019POPC   GL251950   4.814  21.818   5.785
 4019POPC   C1A51951   4.823  21.195   6.230
 4019POPC   D2A51952   4.961  20.948   6.580
 4019POPC   C3A51953   5.032  21.239   6.934
 4019POPC   C4A51954   5.158  21.169   7.363
 4019POPC   C1B51955   4.886  21.908   6.180
 4019POPC   C2B51956   4.954  21.680   6.563
 4019POPC   C3B51957   4.758  21.713   6.969
 4019POPC   C4B51958   5.026  21.654   7.308
 4020POPC   NC351959  25.841   3.262   5.336
 4020POPC   PO451960  25.944   3.845   5.164
 4020POPC   GL151961  25.791   3.717   5.626
 4020POPC   GL251962  25.520   3.965   5.756
 4020POPC   C1A51963  25.945   3.492   6.041
 4020POPC   D2A51964  26.135   3.644   6.438
 4020POPC   C3A51965  25.938   3.521   6.823
 4020POPC   C4A51966  26.141   3.368   7.187
 4020POPC   C1B51967  25.821   3.980   6.120
 4020POPC   C2B51968  25.880   4.097   6.555
 4020POPC   C3B51969  26.091   4.022   6.931
 4020POPC   C4B51970  25.976   3.862   7.298
 4021POPC   NC351971   7.880  43.161   5.384
 4021POPC   PO451972   8.509  43.190   5.500
 4021POPC   GL151973   8.475  43.366   5.879
 4021POPC   GL251974   8.121  43.365   5.860
 4021POPC   C1A51975   8.397  43.364   6.328
 4021POPC   D2A51976   8.411  43.068   6.668
 4021POPC   C3A51977   8.627  43.084   7.058
 4021POPC   C4A51978   8.278  43.001   7.392
 4021POPC   C1B51979   7.868  43.493   6.221
 4021POPC   C2B51980   7.973  43.367   6.639
 4021POPC   C3B51981   7.961  42.999   6.936
 4021POPC   C4B51982   7.700  42.983   7.310
 4022POPC   NC351983  15.962  42.212   5.274
 4022POPC   PO451984  15.885  42.868   5.405
 4022POPC   GL151985  16.086  42.534   5.685
 4022POPC   GL251986  15.803  42.385   5.727
 4022POPC   C1A51987  16.111  42.234   6.112
 4022POPC   D2A51988  15.921  42.153   6.558
 4022POPC   C3A51989  16.169  42.222   6.950
 4022POPC   C4A51990  16.223  42.353   7.371
 4022POPC   C1B51991  15.625  42.334   6.137
 4022POPC   C2B51992  15.436  42.323   6.545
 4022POPC   C3B51993  15.630  42.347   6.964
 4022POPC   C4B51994  15.733  42.410   7.381
 4023POPC   NC351995   9.112  32.520   5.605
 4023POPC   PO451996   8.781  33.008   5.235
 4023POPC   GL151997   9.015  33.004   5.674
 4023POPC   GL251998   8.731  33.095   5.831
 4023POPC   C1A51999   9.177  33.083   6.141
 4023POPC   D2A52000   9.272  32.913   6.586
 4023POPC   C3A52001   9.156  33.080   7.001
 4023POPC   C4A52002   8.997  33.055   7.458
 4023POPC   C1B52003   8.715  32.895   6.246
 4023POPC   C2B52004   8.790  33.070   6.634
 4023POPC   C3B52005   8.694  32.882   7.006
 4023POPC   C4B52006   8.614  32.752   7.360
 4024POPC   NC352007  25.224  15.510   5.370
 4024POPC   PO452008  25.570  14.955   5.518
 4024POPC   GL152009  25.253  15.179   5.769
 4024POPC   GL252010  25.058  14.943   5.936
 4024POPC   C1A52011  25.178  15.338   6.196
 4024POPC   D2A52012  25.291  15.048   6.543
 4024POPC   C3A52013  25.212  15.217   6.955
 4024POPC   C4A52014  25.246  15.569   7.229
 4024POPC   C1B52015  24.834  14.982   6.297
 4024POPC   C2B52016  24.802  15.191   6.680
 4024POPC   C3B52017  24.705  15.040   7.103
 4024POPC   C4B52018  24.615  15.195   7.535
 4025POPC   NC352019  23.105  35.207   5.205
 4025POPC   PO452020  22.856  35.433   5.791
 4025POPC   GL152021  22.843  35.052   5.916
 4025POPC   GL252022  22.487  35.051   5.862
 4025POPC   C1A52023  23.000  35.015   6.316
 4025POPC   D2A52024  22.872  35.452   6.423
 4025POPC   C3A52025  22.906  35.551   6.847
 4025POPC   C4A52026  23.152  35.377   7.184
 4025POPC   C1B52027  22.491  35.045   6.308
 4025POPC   C2B52028  22.682  34.973   6.726
 4025POPC   C3B52029  22.657  35.080   7.158
 4025POPC   C4B52030  22.549  35.232   7.576
 4026POPC   NC352031  13.517   7.661   5.512
 4026POPC   PO452032  14.011   7.115   5.553
 4026POPC   GL152033  13.686   7.289   5.823
 4026POPC   GL252034  13.911   7.576   5.866
 4026POPC   C1A52035  13.443   7.514   6.171
 4026POPC   D2A52036  13.274   7.526   6.604
 4026POPC   C3A52037  13.588   7.346   6.872
 4026POPC   C4A52038  13.648   7.354   7.300
 4026POPC   C1B52039  13.871   7.804   6.247
 4026POPC   C2B52040  13.694   7.839   6.647
 4026POPC   C3B52041  13.871   7.839   7.056
 4026POPC   C4B52042  13.864   7.762   7.488
 4027POPC   NC352043   1.719  29.193   5.316
 4027POPC   PO452044   2.257  29.601   5.120
 4027POPC   GL152045   2.121  29.193   5.579
 4027POPC   GL252046   1.770  29.225   5.819
 4027POPC   C1A52047   2.133  28.923   6.011
 4027POPC   D2A52048   2.030  28.832   6.480
 4027POPC   C3A52049   1.980  29.194   6.762
 4027POPC   C4A52050   1.865  29.310   7.175
 4027POPC   C1B52051   1.634  28.911   6.154
 4027POPC   C2B52052   1.536  28.739   6.597
 4027POPC   C3B52053   1.677  28.842   7.026
 4027POPC   C4B52054   2.097  28.857   7.155
 4028POPC   NC352055  30.589  25.708   5.445
 4028POPC   PO452056  31.080  26.096   5.134
 4028POPC   GL152057  30.906  26.086   5.647
 4028POPC   GL252058  30.543  25.966   5.866
 4028POPC   C1A52059  30.929  26.093   6.139
 4028POPC   D2A52060  31.083  25.900   6.532
 4028POPC   C3A52061  30.845  25.909   6.909
 4028POPC   C4A52062  30.949  25.964   7.317
 4028POPC   C1B52063  30.304  25.596   6.119
 4028POPC   C2B52064  30.223  25.354   6.542
 4028POPC   C3B52065  30.252  25.584   6.957
 4028POPC   C4B52066  30.467  25.706   7.329
 4029POPC   NC352067  40.205  10.888   5.468
 4029POPC   PO452068  40.081  10.217   5.519
 4029POPC   GL152069  40.048  10.378   5.887
 4029POPC   GL252070  39.910  10.719   5.854
 4029POPC   C1A52071  40.341  10.216   6.177
 4029POPC   D2A52072  40.202  10.350   6.538
 4029POPC   C3A52073  40.283  10.313   6.942
 4029POPC   C4A52074  39.953  10.444   7.239
 4029POPC   C1B52075  39.852  10.632   6.293
 4029POPC   C2B52076  39.810  10.604   6.737
 4029POPC   C3B52077  39.517  10.623   7.048
 4029POPC   C4B52078  39.638  10.907   7.340
 4030POPC   NC352079   8.778   5.861   5.472
 4030POPC   PO452080   9.314   5.522   5.517
 4030POPC   GL152081   9.100   5.838   5.836
 4030POPC   GL252082   8.789   5.640   5.960
 4030POPC   C1A52083   8.914   6.037   6.235
 4030POPC   D2A52084   8.920   5.768   6.619
 4030POPC   C3A52085   8.711   5.753   7.005
 4030POPC   C4A52086   8.832   6.083   7.242
 4030POPC   C1B52087   9.196   5.557   6.227
 4030POPC   C2B52088   9.417   5.611   6.605
 4030POPC   C3B52089   9.223   5.494   6.991
 4030POPC   C4B52090   9.113   5.691   7.360
 4031POPC   NC352091  33.611  11.226   5.558
 4031POPC   PO452092  34.110  11.718   5.450
 4031POPC   GL152093  34.072  11.387   5.815
 4031POPC   GL252094  33.745  11.305   6.023
 4031POPC   C1A52095  34.142  11.078   6.191
 4031POPC   D2A52096  33.917  11.263   6.553
 4031POPC   C3A52097  33.788  11.056   6.948
 4031POPC   C4A52098  33.909  11.159   7.352
 4031POPC   C1B52099  33.451  11.343   6.337
 4031POPC   C2B52100  33.524  11.568   6.694
 4031POPC   C3B52101  33.465  11.426   7.069
 4031POPC   C4B52102  33.578  11.670   7.349
 4032POPC   NC352103   7.871  22.087   5.474
 4032POPC   PO452104   8.339  22.584   5.357
 4032POPC   GL152105   8.246  22.347   5.733
 4032POPC   GL252106   8.304  21.956   5.734
 4032POPC   C1A52107   8.015  22.303   6.126
 4032POPC   D2A52108   8.245  22.227   6.528
 4032POPC   C3A52109   7.984  22.052   6.836
 4032POPC   C4A52110   7.872  22.273   7.219
 4032POPC   C1B52111   8.243  21.845   6.175
 4032POPC   C2B52112   8.286  21.672   6.603
 4032POPC   C3B52113   8.482  21.856   6.967
 4032POPC   C4B52114   8.392  22.238   7.204
 4033POPC   NC352115  16.604  41.447   5.333
 4033POPC   PO452116  16.732  40.736   5.144
 4033POPC   GL152117  16.773  40.599   5.703
 4033POPC   GL252118  16.466  40.618   5.926
 4033POPC   C1A52119  16.850  40.697   6.234
 4033POPC   D2A52120  16.607  40.775   6.643
 4033POPC   C3A52121  16.822  40.955   7.007
 4033POPC   C4A52122  16.863  41.275   7.291
 4033POPC   C1B52123  16.322  40.447   6.340
 4033POPC   C2B52124  16.260  40.383   6.784
 4033POPC   C3B52125  16.499  40.582   7.122
 4033POPC   C4B52126  16.915  40.576   7.339
 4034POPC   NC352127  17.769  23.927   5.641
 4034POPC   PO452128  17.203  23.654   5.380
 4034POPC   GL152129  17.312  23.836   5.816
 4034POPC   GL252130  17.458  23.545   5.889
 4034POPC   C1A52131  17.540  23.868   6.257
 4034POPC   D2A52132  17.423  23.603   6.603
 4034POPC   C3A52133  17.259  23.855   6.927
 4034POPC   C4A52134  17.500  23.855   7.284
 4034POPC   C1B52135  17.718  23.346   6.240
 4034POPC   C2B52136  17.924  23.386   6.630
 4034POPC   C3B52137  17.746  23.320   7.014
 4034POPC   C4B52138  17.838  23.063   7.367
 4035POPC   NC352139  24.359  13.533   5.477
 4035POPC   PO452140  25.031  13.538   5.290
 4035POPC   GL152141  24.813  13.716   5.739
 4035POPC   GL252142  24.507  13.549   5.966
 4035POPC   C1A52143  24.735  13.948   6.164
 4035POPC   D2A52144  24.429  13.751   6.482
 4035POPC   C3A52145  24.596  13.748   6.909
 4035POPC   C4A52146  24.719  13.925   7.293
 4035POPC   C1B52147  24.314  13.258   6.288
 4035POPC   C2B52148  24.412  13.270   6.737
 4035POPC   C3B52149  24.300  13.403   7.152
 4035POPC   C4B52150  24.218  13.249   7.558
 4036POPC   NC352151  24.500  10.179   5.104
 4036POPC   PO452152  24.229   9.504   5.266
 4036POPC   GL152153  24.230   9.723   5.745
 4036POPC   GL252154  24.601   9.746   5.817
 4036POPC   C1A52155  24.310   9.857   6.236
 4036POPC   D2A52156  24.512   9.946   6.672
 4036POPC   C3A52157  24.341   9.910   7.070
 4036POPC   C4A52158  24.250   9.508   7.172
 4036POPC   C1B52159  24.527   9.406   6.152
 4036POPC   C2B52160  24.483   9.402   6.628
 4036POPC   C3B52161  24.727   9.569   6.976
 4036POPC   C4B52162  24.789   9.470   7.384
 4037POPC   NC352163  30.105  13.450   5.444
 4037POPC   PO452164  29.503  13.340   5.759
 4037POPC   GL152165  29.796  13.678   5.882
 4037POPC   GL252166  30.192  13.623   5.927
 4037POPC   C1A52167  29.905  13.827   6.304
 4037POPC   D2A52168  29.981  13.540   6.662
 4037POPC   C3A52169  29.724  13.648   7.004
 4037POPC   C4A52170  29.815  13.695   7.427
 4037POPC   C1B52171  30.391  13.696   6.350
 4037POPC   C2B52172  30.278  13.972   6.704
 4037POPC   C3B52173  30.164  13.949   7.151
 4037POPC   C4B52174  30.276  13.777   7.580
 4038POPC   NC352175  16.568   0.347   5.422
 4038POPC   PO452176  17.154   0.130   5.674
 4038POPC   GL152177  16.871   0.459   5.868
 4038POPC   GL252178  16.552   0.683   5.821
 4038POPC   C1A52179  16.888   0.395   6.290
 4038POPC   D2A52180  16.641   0.229   6.595
 4038POPC   C3A52181  16.848   0.327   6.942
 4038POPC   C4A52182  16.765   0.361   7.347
 4038POPC   C1B52183  16.644   0.825   6.264
 4038POPC   C2B52184  16.637   0.745   6.712
 4038POPC   C3B52185  16.625   0.813   7.152
 4038POPC   C4B52186  16.648   0.835   7.605
 4039POPC   NC352187  22.483  40.516   5.271
 4039POPC   PO452188  21.854  40.674   5.384
 4039POPC   GL152189  22.005  40.804   5.803
 4039POPC   GL252190  22.334  40.634   5.800
 4039POPC   C1A52191  21.995  41.011   6.236
 4039POPC   D2A52192  22.298  40.955   6.549
 4039POPC   C3A52193  22.258  40.770   6.912
 4039POPC   C4A52194  22.025  40.908   7.217
 4039POPC   C1B52195  22.171  40.543   6.228
 4039POPC   C2B52196  22.109  40.243   6.545
 4039POPC   C3B52197  21.996  40.327   6.984
 4039POPC   C4B52198  22.294  40.404   7.274
 4040POPC   NC352199  20.458  16.928   5.367
 4040POPC   PO452200  21.123  17.137   5.531
 4040POPC   GL152201  20.781  16.940   5.846
 4040POPC   GL252202  20.504  16.707   5.837
 4040POPC   C1A52203  20.552  16.978   6.284
 4040POPC   D2A52204  20.749  17.055   6.727
 4040POPC   C3A52205  20.541  17.040   7.159
 4040POPC   C4A52206  20.625  16.879   7.621
 4040POPC   C1B52207  20.544  16.433   6.201
 4040POPC   C2B52208  20.451  16.364   6.614
 4040POPC   C3B52209  20.627  16.569   6.961
 4040POPC   C4B52210  20.510  16.442   7.386
 4041POPC   NC352211  36.368  13.111   5.127
 4041POPC   PO452212  35.873  13.393   5.571
 4041POPC   GL152213  35.876  13.105   5.923
 4041POPC   GL252214  36.026  12.748   5.895
 4041POPC   C1A52215  36.111  13.030   6.316
 4041POPC   D2A52216  36.231  13.010   6.757
 4041POPC   C3A52217  35.941  13.104   7.071
 4041POPC   C4A52218  35.837  12.658   7.151
 4041POPC   C1B52219  36.373  12.609   6.174
 4041POPC   C2B52220  36.391  12.434   6.572
 4041POPC   C3B52221  36.466  12.587   6.988
 4041POPC   C4B52222  36.429  12.986   7.272
 4042POPC   NC352223  30.962  13.837   5.037
 4042POPC   PO452224  30.491  13.670   5.495
 4042POPC   GL152225  30.708  13.505   5.807
 4042POPC   GL252226  30.706  13.792   5.972
 4042POPC   C1A52227  30.885  13.376   6.184
 4042POPC   D2A52228  30.804  13.495   6.572
 4042POPC   C3A52229  31.086  13.592   6.846
 4042POPC   C4A52230  30.933  13.397   7.230
 4042POPC   C1B52231  30.957  13.901   6.289
 4042POPC   C2B52232  30.799  13.999   6.681
 4042POPC   C3B52233  30.669  13.838   7.091
 4042POPC   C4B52234  30.769  13.785   7.543
 4043POPC   NC352235  30.975  36.277   5.508
 4043POPC   PO452236  30.419  35.983   5.277
 4043POPC   GL152237  30.537  35.949   5.779
 4043POPC   GL252238  30.871  35.995   5.931
 4043POPC   C1A52239  30.525  36.143   6.253
 4043POPC   D2A52240  30.830  36.382   6.526
 4043POPC   C3A52241  30.760  36.272   6.953
 4043POPC   C4A52242  30.497  36.103   7.307
 4043POPC   C1B52243  31.115  35.711   6.253
 4043POPC   C2B52244  31.120  35.638   6.718
 4043POPC   C3B52245  30.929  35.823   7.103
 4043POPC   C4B52246  31.014  36.160   7.423
 4044POPC   NC352247   8.651  21.592   5.457
 4044POPC   PO452248   8.044  21.654   5.398
 4044POPC   GL152249   8.253  21.392   5.709
 4044POPC   GL252250   7.981  21.193   5.850
 4044POPC   C1A52251   8.388  21.362   6.148
 4044POPC   D2A52252   8.065  21.221   6.437
 4044POPC   C3A52253   8.184  21.130   6.866
 4044POPC   C4A52254   8.338  21.398   7.181
 4044POPC   C1B52255   7.822  21.560   6.083
 4044POPC   C2B52256   7.743  21.606   6.535
 4044POPC   C3B52257   7.866  21.528   6.950
 4044POPC   C4B52258   8.032  21.793   7.265
 4045POPC   NC352259  37.666  25.979   5.452
 4045POPC   PO452260  38.083  26.550   5.343
 4045POPC   GL152261  37.956  26.349   5.753
 4045POPC   GL252262  37.587  26.336   5.819
 4045POPC   C1A52263  37.879  26.166   6.194
 4045POPC   D2A52264  37.975  25.851   6.520
 4045POPC   C3A52265  37.937  25.987   6.958
 4045POPC   C4A52266  37.904  26.153   7.371
 4045POPC   C1B52267  37.400  25.974   6.062
 4045POPC   C2B52268  37.409  25.702   6.462
 4045POPC   C3B52269  37.375  25.699   6.922
 4045POPC   C4B52270  37.453  26.049   7.195
 4046POPC   NC352271  41.330  12.950   5.216
 4046POPC   PO452272  41.871  12.986   5.532
 4046POPC   GL152273  41.519  12.976   5.779
 4046POPC   GL252274  41.504  12.623   5.835
 4046POPC   C1A52275  41.503  12.935   6.234
 4046POPC   D2A52276  41.758  12.922   6.586
 4046POPC   C3A52277  41.458  13.011   6.882
 4046POPC   C4A52278  41.324  13.024   7.269
 4046POPC   C1B52279  41.888  12.588   6.136
 4046POPC   C2B52280  41.925  12.404   6.563
 4046POPC   C3B52281  41.881  12.564   6.989
 4046POPC   C4B52282  41.463  12.565   7.167
 4047POPC   NC352283  13.820   9.229   5.493
 4047POPC   PO452284  13.295   8.760   5.483
 4047POPC   GL152285  13.533   8.918   5.806
 4047POPC   GL252286  13.395   9.268   5.823
 4047POPC   C1A52287  13.770   8.808   6.189
 4047POPC   D2A52288  13.662   8.773   6.631
 4047POPC   C3A52289  13.991   8.786   6.944
 4047POPC   C4A52290  13.882   8.887   7.356
 4047POPC   C1B52291  13.365   9.129   6.262
 4047POPC   C2B52292  13.539   9.283   6.647
 4047POPC   C3B52293  13.798   9.273   7.011
 4047POPC   C4B52294  13.600   9.286   7.435
 4048POPC   NC352295  11.748  23.845   5.376
 4048POPC   PO452296  12.392  23.504   5.528
 4048POPC   GL152297  12.162  23.778   5.775
 4048POPC   GL252298  11.880  23.579   5.768
 4048POPC   C1A52299  12.140  23.697   6.217
 4048POPC   D2A52300  12.166  23.391   6.559
 4048POPC   C3A52301  12.276  23.629   6.931
 4048POPC   C4A52302  12.536  23.836   7.227
 4048POPC   C1B52303  11.668  23.528   6.112
 4048POPC   C2B52304  11.699  23.653   6.515
 4048POPC   C3B52305  11.780  23.497   6.909
 4048POPC   C4B52306  11.767  23.779   7.213
 4049POPC   NC352307   4.277   6.166   5.433
 4049POPC   PO452308   4.134   6.787   5.397
 4049POPC   GL152309   4.289   6.616   5.724
 4049POPC   GL252310   4.414   6.904   5.853
 4049POPC   C1A52311   4.314   6.384   6.074
 4049POPC   D2A52312   4.161   6.481   6.455
 4049POPC   C3A52313   4.343   6.479   6.848
 4049POPC   C4A52314   4.137   6.367   7.185
 4049POPC   C1B52315   4.271   6.940   6.237
 4049POPC   C2B52316   4.538   6.838   6.544
 4049POPC   C3B52317   4.556   6.930   6.947
 4049POPC   C4B52318   4.264   6.835   7.261
 4050POPC   NC352319  28.605  26.566   5.616
 4050POPC   PO452320  28.050  26.814   5.321
 4050POPC   GL152321  28.142  26.760   5.789
 4050POPC   GL252322  28.422  27.006   5.873
 4050POPC   C1A52323  28.036  26.808   6.263
 4050POPC   D2A52324  27.941  27.030   6.666
 4050POPC   C3A52325  28.246  27.011   7.021
 4050POPC   C4A52326  28.400  26.629   7.211
 4050POPC   C1B52327  28.550  26.765   6.240
 4050POPC   C2B52328  28.434  26.652   6.655
 4050POPC   C3B52329  28.791  26.676   6.910
 4050POPC   C4B52330  28.754  26.999   7.213
 4051POPC   NC352331  27.846  24.204   5.159
 4051POPC   PO452332  27.753  23.497   5.147
 4051POPC   GL152333  27.724  23.395   5.738
 4051POPC   GL252334  27.624  23.672   5.903
 4051POPC   C1A52335  27.512  23.329   6.234
 4051POPC   D2A52336  27.533  23.309   6.737
 4051POPC   C3A52337  27.624  23.612   7.112
 4051POPC   C4A52338  27.487  23.510   7.561
 4051POPC   C1B52339  27.755  23.877   6.271
 4051POPC   C2B52340  27.567  23.921   6.678
 4051POPC   C3B52341  27.579  24.130   7.092
 4051POPC   C4B52342  27.591  24.032   7.519
 4052POPC   NC352343  33.909  14.265   5.191
 4052POPC   PO452344  33.895  14.826   5.540
 4052POPC   GL152345  34.017  14.451   5.825
 4052POPC   GL252346  33.928  14.121   5.679
 4052POPC   C1A52347  33.977  14.475   6.300
 4052POPC   D2A52348  33.739  14.725   6.611
 4052POPC   C3A52349  33.826  14.642   7.022
 4052POPC   C4A52350  33.636  14.647   7.405
 4052POPC   C1B52351  34.013  13.966   6.086
 4052POPC   C2B52352  34.142  14.043   6.514
 4052POPC   C3B52353  33.868  14.175   6.811
 4052POPC   C4B52354  33.836  14.172   7.241
 4053POPC   NC352355  38.045  44.532   5.424
 4053POPC   PO452356  37.526  44.924   5.485
 4053POPC   GL152357  37.739  44.721   5.822
 4053POPC   GL252358  37.438  44.592   6.041
 4053POPC   C1A52359  37.886  44.839   6.214
 4053POPC   D2A52360  37.693  44.827   6.613
 4053POPC   C3A52361  37.906  44.720   6.983
 4053POPC   C4A52362  38.061  44.466   7.286
 4053POPC   C1B52363  37.331   0.001   6.279
 4053POPC   C2B52364  37.281   0.089   6.752
 4053POPC   C3B52365  37.448  44.864   7.141
 4053POPC   C4B52366  37.403  44.673   7.581
 4054POPC   NC352367  16.059  39.780   5.429
 4054POPC   PO452368  15.657  39.131   5.414
 4054POPC   GL152369  15.901  39.155   5.800
 4054POPC   GL252370  16.209  38.920   5.883
 4054POPC   C1A52371  15.914  39.352   6.209
 4054POPC   D2A52372  15.796  39.647   6.532
 4054POPC   C3A52373  15.897  39.435   6.914
 4054POPC   C4A52374  16.020  39.219   7.273
 4054POPC   C1B52375  15.913  38.843   6.204
 4054POPC   C2B52376  15.833  39.017   6.593
 4054POPC   C3B52377  16.184  38.989   6.847
 4054POPC   C4B52378  16.185  38.728   7.187
 4055POPC   NC352379   7.787   0.773   5.643
 4055POPC   PO452380   7.305   1.256   5.439
 4055POPC   GL152381   7.347   1.007   5.769
 4055POPC   GL252382   7.645   1.218   5.885
 4055POPC   C1A52383   7.432   0.892   6.199
 4055POPC   D2A52384   7.774   0.874   6.489
 4055POPC   C3A52385   7.561   0.995   6.847
 4055POPC   C4A52386   7.170   0.994   7.035
 4055POPC   C1B52387   7.474   1.416   6.242
 4055POPC   C2B52388   7.521   1.508   6.695
 4055POPC   C3B52389   7.411   1.676   7.115
 4055POPC   C4B52390   7.251   1.360   7.393
 4056POPC   NC352391  44.792  23.532   5.110
 4056POPC   PO452392  44.804  22.906   5.383
 4056POPC   GL152393  44.735  23.075   5.808
 4056POPC   GL252394  44.781  22.801   6.003
 4056POPC   C1A52395  44.488  23.173   6.218
 4056POPC   D2A52396  44.403  23.043   6.662
 4056POPC   C3A52397  44.694  22.979   7.018
 4056POPC   C4A52398  44.573  22.999   7.463
 4056POPC   C1B52399  44.901  22.930   6.416
 4056POPC   C2B52400  44.975  22.598   6.679
 4056POPC   C3B52401  44.883  22.498   7.087
 4056POPC   C4B52402  44.990  22.726   7.445
 4057POPC   NC352403  38.028  19.213   5.420
 4057POPC   PO452404  38.241  18.649   5.228
 4057POPC   GL152405  38.440  18.966   5.603
 4057POPC   GL252406  38.490  19.361   5.676
 4057POPC   C1A52407  38.409  19.056   6.080
 4057POPC   D2A52408  38.602  19.108   6.520
 4057POPC   C3A52409  38.313  19.018   6.825
 4057POPC   C4A52410  38.159  19.078   7.213
 4057POPC   C1B52411  38.754  19.422   6.115
 4057POPC   C2B52412  38.739  19.602   6.550
 4057POPC   C3B52413  38.813  19.443   6.981
 4057POPC   C4B52414  38.677  19.083   7.218
 4058POPC   NC352415  16.645   2.829   5.305
 4058POPC   PO452416  17.158   2.500   5.466
 4058POPC   GL152417  16.910   2.816   5.740
 4058POPC   GL252418  16.570   2.637   5.801
 4058POPC   C1A52419  16.797   2.896   6.202
 4058POPC   D2A52420  17.035   2.940   6.609
 4058POPC   C3A52421  16.853   2.859   7.033
 4058POPC   C4A52422  17.030   2.870   7.437
 4058POPC   C1B52423  16.911   2.420   6.063
 4058POPC   C2B52424  16.962   2.296   6.482
 4058POPC   C3B52425  17.103   2.463   6.847
 4058POPC   C4B52426  17.029   2.372   7.268
 4059POPC   NC352427  12.452   3.820   5.398
 4059POPC   PO452428  11.971   3.253   5.411
 4059POPC   GL152429  12.109   3.557   5.694
 4059POPC   GL252430  12.432   3.367   5.645
 4059POPC   C1A52431  12.106   3.798   6.112
 4059POPC   D2A52432  11.971   3.917   6.545
 4059POPC   C3A52433  12.114   3.674   6.908
 4059POPC   C4A52434  12.032   3.525   7.326
 4059POPC   C1B52435  12.370   3.339   6.088
 4059POPC   C2B52436  12.280   3.401   6.510
 4059POPC   C3B52437  12.498   3.330   6.906
 4059POPC   C4B52438  12.442   3.195   7.319
 4060POPC   NC352439  26.797  31.270   5.318
 4060POPC   PO452440  27.101  31.819   5.279
 4060POPC   GL152441  26.892  31.617   5.720
 4060POPC   GL252442  26.686  31.271   5.801
 4060POPC   C1A52443  26.842  31.596   6.228
 4060POPC   D2A52444  26.615  31.715   6.654
 4060POPC   C3A52445  26.682  31.755   7.122
 4060POPC   C4A52446  27.014  31.602   7.396
 4060POPC   C1B52447  26.518  31.195   6.200
 4060POPC   C2B52448  26.713  31.196   6.639
 4060POPC   C3B52449  26.796  31.238   7.098
 4060POPC   C4B52450  26.614  31.353   7.517
 4061POPC   NC352451  33.236  34.876   5.471
 4061POPC   PO452452  32.973  34.171   5.520
 4061POPC   GL152453  32.865  34.525   5.810
 4061POPC   GL252454  33.109  34.790   5.961
 4061POPC   C1A52455  32.782  34.512   6.252
 4061POPC   D2A52456  32.986  34.330   6.607
 4061POPC   C3A52457  32.990  34.545   7.015
 4061POPC   C4A52458  32.814  34.486   7.437
 4061POPC   C1B52459  33.301  34.419   6.170
 4061POPC   C2B52460  33.505  34.290   6.568
 4061POPC   C3B52461  33.346  34.107   6.921
 4061POPC   C4B52462  33.178  34.142   7.300
 4062POPC   NC352463  11.773  35.230   5.310
 4062POPC   PO452464  12.299  35.629   5.409
 4062POPC   GL152465  12.068  35.365   5.739
 4062POPC   GL252466  11.702  35.401   5.823
 4062POPC   C1A52467  12.023  35.148   6.156
 4062POPC   D2A52468  11.953  35.291   6.571
 4062POPC   C3A52469  12.176  35.199   6.920
 4062POPC   C4A52470  11.956  35.107   7.271
 4062POPC   C1B52471  11.902  35.662   6.171
 4062POPC   C2B52472  11.938  35.783   6.623
 4062POPC   C3B52473  11.846  35.585   7.020
 4062POPC   C4B52474  11.922  35.580   7.448
 4063POPC   NC352475  43.730  15.668   5.494
 4063POPC   PO452476  44.021  16.338   5.334
 4063POPC   GL152477  43.985  16.059   5.752
 4063POPC   GL252478  44.082  15.686   5.882
 4063POPC   C1A52479  43.765  15.985   6.178
 4063POPC   D2A52480  43.813  16.154   6.594
 4063POPC   C3A52481  43.861  15.813   6.851
 4063POPC   C4A52482  43.742  15.755   7.251
 4063POPC   C1B52483  44.280  15.958   6.227
 4063POPC   C2B52484  44.330  16.035   6.687
 4063POPC   C3B52485  44.282  15.897   7.144
 4063POPC   C4B52486  44.376  15.749   7.580
 4064POPC   NC352487   8.652  38.371   5.289
 4064POPC   PO452488   9.231  38.595   5.509
 4064POPC   GL152489   8.832  38.563   5.806
 4064POPC   GL252490   8.563  38.265   5.787
 4064POPC   C1A52491   8.926  38.676   6.255
 4064POPC   D2A52492   8.864  38.889   6.652
 4064POPC   C3A52493   9.008  38.666   7.027
 4064POPC   C4A52494   9.182  38.302   7.291
 4064POPC   C1B52495   8.716  38.200   6.217
 4064POPC   C2B52496   8.680  38.390   6.666
 4064POPC   C3B52497   8.691  38.273   7.139
 4064POPC   C4B52498   8.798  38.211   7.621
 4065POPC   NC352499  10.152  22.023   5.308
 4065POPC   PO452500  10.782  21.817   5.495
 4065POPC   GL152501  10.377  21.961   5.761
 4065POPC   GL252502  10.479  22.215   5.993
 4065POPC   C1A52503  10.182  21.875   6.189
 4065POPC   D2A52504  10.408  22.103   6.503
 4065POPC   C3A52505  10.305  22.098   6.914
 4065POPC   C4A52506  10.208  22.436   7.183
 4065POPC   C1B52507  10.788  22.399   6.249
 4065POPC   C2B52508  10.845  22.287   6.675
 4065POPC   C3B52509  10.702  22.457   7.050
 4065POPC   C4B52510  10.955  22.702   7.260
 4066POPC   NC352511  39.036  24.178   5.569
 4066POPC   PO452512  39.068  23.572   5.478
 4066POPC   GL152513  39.242  23.730   5.862
 4066POPC   GL252514  39.339  24.069   5.951
 4066POPC   C1A52515  39.255  23.606   6.305
 4066POPC   D2A52516  38.936  23.520   6.639
 4066POPC   C3A52517  39.107  23.525   7.055
 4066POPC   C4A52518  39.107  23.764   7.435
 4066POPC   C1B52519  39.273  24.121   6.370
 4066POPC   C2B52520  39.211  23.939   6.731
 4066POPC   C3B52521  39.436  23.933   7.068
 4066POPC   C4B52522  39.449  24.188   7.388
 4067POPC   NC352523  16.880  23.323   5.405
 4067POPC   PO452524  16.531  22.788   5.483
 4067POPC   GL152525  16.666  23.023   5.792
 4067POPC   GL252526  16.413  23.044   5.963
 4067POPC   C1A52527  16.880  22.897   6.167
 4067POPC   D2A52528  17.008  22.706   6.535
 4067POPC   C3A52529  16.734  22.873   6.844
 4067POPC   C4A52530  16.717  23.084   7.213
 4067POPC   C1B52531  16.400  22.640   6.120
 4067POPC   C2B52532  16.509  22.502   6.505
 4067POPC   C3B52533  16.265  22.595   6.844
 4067POPC   C4B52534  16.385  22.696   7.253
 4068POPC   NC352535  32.773  25.339   5.502
 4068POPC   PO452536  33.417  25.007   5.426
 4068POPC   GL152537  33.212  25.247   5.733
 4068POPC   GL252538  32.999  24.959   5.787
 4068POPC   C1A52539  33.121  25.510   6.108
 4068POPC   D2A52540  33.446  25.501   6.442
 4068POPC   C3A52541  33.301  25.382   6.841
 4068POPC   C4A52542  33.146  25.620   7.190
 4068POPC   C1B52543  33.200  25.024   6.196
 4068POPC   C2B52544  32.953  25.109   6.583
 4068POPC   C3B52545  32.893  25.078   7.053
 4068POPC   C4B52546  32.977  24.949   7.519
 4069POPC   NC352547   9.020  29.350   5.531
 4069POPC   PO452548   8.409  28.949   5.388
 4069POPC   GL152549   8.608  29.032   5.786
 4069POPC   GL252550   8.964  28.966   5.873
 4069POPC   C1A52551   8.671  29.315   6.145
 4069POPC   D2A52552   8.733  29.510   6.560
 4069POPC   C3A52553   8.787  29.291   6.961
 4069POPC   C4A52554   9.091  29.427   7.256
 4069POPC   C1B52555   9.159  28.828   6.270
 4069POPC   C2B52556   9.099  28.844   6.738
 4069POPC   C3B52557   8.896  28.762   7.129
 4069POPC   C4B52558   8.942  28.723   7.557
 4070POPC   NC352559  18.922  19.348   5.493
 4070POPC   PO452560  19.245  18.809   5.429
 4070POPC   GL152561  18.947  18.753   5.832
 4070POPC   GL252562  18.797  19.054   5.900
 4070POPC   C1A52563  18.915  18.856   6.346
 4070POPC   D2A52564  19.229  18.990   6.710
 4070POPC   C3A52565  19.225  18.980   7.202
 4070POPC   C4A52566  18.996  18.649   7.463
 4070POPC   C1B52567  18.728  19.337   6.232
 4070POPC   C2B52568  18.865  19.374   6.636
 4070POPC   C3B52569  18.803  19.133   6.978
 4070POPC   C4B52570  18.856  19.333   7.338
 4071POPC   NC352571   7.265  28.986   5.405
 4071POPC   PO452572   7.090  29.675   5.332
 4071POPC   GL152573   7.132  29.399   5.747
 4071POPC   GL252574   7.176  29.029   5.895
 4071POPC   C1A52575   7.282  29.423   6.212
 4071POPC   D2A52576   7.591  29.250   6.527
 4071POPC   C3A52577   7.502  29.299   6.971
 4071POPC   C4A52578   7.785  29.203   7.267
 4071POPC   C1B52579   7.259  28.899   6.331
 4071POPC   C2B52580   7.426  28.811   6.757
 4071POPC   C3B52581   7.447  28.817   7.217
 4071POPC   C4B52582   7.271  28.721   7.632
 4072POPC   NC352583  10.023  14.284   5.369
 4072POPC   PO452584   9.329  14.135   5.563
 4072POPC   GL152585   9.670  14.360   5.826
 4072POPC   GL252586  10.043  14.247   5.862
 4072POPC   C1A52587   9.771  14.493   6.242
 4072POPC   D2A52588   9.893  14.695   6.647
 4072POPC   C3A52589   9.749  14.560   7.099
 4072POPC   C4A52590   9.821  14.454   7.578
 4072POPC   C1B52591  10.068  14.027   6.216
 4072POPC   C2B52592   9.916  14.146   6.610
 4072POPC   C3B52593   9.748  14.063   7.001
 4072POPC   C4B52594  10.095  14.188   7.243
 4073POPC   NC352595   6.192   9.004   5.128
 4073POPC   PO452596   5.679   8.789   5.531
 4073POPC   GL152597   5.719   8.895   5.931
 4073POPC   GL252598   5.966   8.719   6.002
 4073POPC   C1A52599   5.833   8.929   6.415
 4073POPC   D2A52600   6.155   9.117   6.637
 4073POPC   C3A52601   5.942   9.136   7.026
 4073POPC   C4A52602   5.498   9.102   7.174
 4073POPC   C1B52603   6.011   8.470   6.327
 4073POPC   C2B52604   6.098   8.592   6.710
 4073POPC   C3B52605   6.257   8.498   7.080
 4073POPC   C4B52606   6.147   8.464   7.480
 4074POPC   NC352607  28.174  19.269   5.269
 4074POPC   PO452608  28.572  18.923   5.565
 4074POPC   GL152609  28.407  19.174   5.890
 4074POPC   GL252610  28.088  19.365   5.811
 4074POPC   C1A52611  28.588  19.126   6.318
 4074POPC   D2A52612  28.394  19.181   6.716
 4074POPC   C3A52613  28.477  18.918   7.055
 4074POPC   C4A52614  28.196  18.634   7.251
 4074POPC   C1B52615  28.160  19.433   6.296
 4074POPC   C2B52616  27.982  19.457   6.751
 4074POPC   C3B52617  28.137  19.295   7.175
 4074POPC   C4B52618  28.484  19.318   7.446
 4075POPC   NC352619  20.132  31.938   5.523
 4075POPC   PO452620  19.635  32.380   5.373
 4075POPC   GL152621  19.609  32.312   5.827
 4075POPC   GL252622  19.662  31.988   5.784
 4075POPC   C1A52623  19.590  32.412   6.309
 4075POPC   D2A52624  19.823  32.264   6.679
 4075POPC   C3A52625  19.616  32.064   7.034
 4075POPC   C4A52626  19.569  32.222   7.449
 4075POPC   C1B52627  19.957  32.082   6.144
 4075POPC   C2B52628  20.156  31.912   6.506
 4075POPC   C3B52629  20.054  31.797   6.937
 4075POPC   C4B52630  20.209  31.921   7.335
 4076POPC   NC352631  19.789   3.435   5.477
 4076POPC   PO452632  20.197   3.997   5.253
 4076POPC   GL152633  20.239   3.777   5.724
 4076POPC   GL252634  20.220   3.430   5.774
 4076POPC   C1A52635  19.997   3.783   6.177
 4076POPC   D2A52636  19.602   3.580   6.364
 4076POPC   C3A52637  19.606   3.388   6.779
 4076POPC   C4A52638  19.680   3.321   7.212
 4076POPC   C1B52639  20.064   3.265   6.147
 4076POPC   C2B52640  20.077   3.415   6.560
 4076POPC   C3B52641  20.105   3.522   6.998
 4076POPC   C4B52642  20.175   3.169   7.241
 4077POPC   NC352643  33.283   6.416   5.046
 4077POPC   PO452644  32.921   6.773   5.487
 4077POPC   GL152645  33.162   6.673   5.846
 4077POPC   GL252646  32.934   6.472   5.952
 4077POPC   C1A52647  33.208   6.726   6.322
 4077POPC   D2A52648  33.361   6.716   6.773
 4077POPC   C3A52649  33.090   6.674   7.131
 4077POPC   C4A52650  33.265   6.966   7.399
 4077POPC   C1B52651  32.880   6.330   6.353
 4077POPC   C2B52652  33.084   6.277   6.742
 4077POPC   C3B52653  32.939   6.168   7.160
 4077POPC   C4B52654  32.842   6.278   7.618
 4078POPC   NC352655  30.403  29.063   5.467
 4078POPC   PO452656  30.841  29.514   5.516
 4078POPC   GL152657  30.811  29.159   5.852
 4078POPC   GL252658  30.949  28.792   5.786
 4078POPC   C1A52659  30.606  29.155   6.299
 4078POPC   D2A52660  30.674  28.981   6.742
 4078POPC   C3A52661  30.832  29.247   7.118
 4078POPC   C4A52662  30.978  29.436   7.534
 4078POPC   C1B52663  30.936  28.773   6.260
 4078POPC   C2B52664  31.020  28.591   6.676
 4078POPC   C3B52665  30.948  28.729   7.108
 4078POPC   C4B52666  30.473  28.811   7.204
 4079POPC   NC352667  14.164  12.230   5.402
 4079POPC   PO452668  13.569  12.023   5.220
 4079POPC   GL152669  13.648  12.027   5.705
 4079POPC   GL252670  13.797  12.323   5.854
 4079POPC   C1A52671  13.564  11.991   6.201
 4079POPC   D2A52672  13.606  12.189   6.662
 4079POPC   C3A52673  13.441  11.951   7.067
 4079POPC   C4A52674  13.691  11.772   7.434
 4079POPC   C1B52675  13.993  12.248   6.289
 4079POPC   C2B52676  14.185  12.296   6.689
 4079POPC   C3B52677  13.952  12.458   7.030
 4079POPC   C4B52678  13.678  12.305   7.354
 4080POPC   NC352679  33.008  27.347   5.101
 4080POPC   PO452680  33.065  26.714   5.390
 4080POPC   GL152681  33.027  26.750   5.805
 4080POPC   GL252682  32.906  27.054   5.885
 4080POPC   C1A52683  32.807  26.617   6.180
 4080POPC   D2A52684  32.819  26.817   6.576
 4080POPC   C3A52685  33.190  26.763   6.864
 4080POPC   C4A52686  33.150  26.708   7.327
 4080POPC   C1B52687  33.256  27.130   6.138
 4080POPC   C2B52688  33.201  27.224   6.572
 4080POPC   C3B52689  32.833  27.268   6.806
 4080POPC   C4B52690  32.773  26.985   7.121
 4081POPC   NC352691  32.435  26.059   5.460
 4081POPC   PO452692  31.871  25.592   5.482
 4081POPC   GL152693  32.137  25.810   5.778
 4081POPC   GL252694  32.034  26.187   5.757
 4081POPC   C1A52695  32.356  25.739   6.172
 4081POPC   D2A52696  32.076  25.648   6.541
 4081POPC   C3A52697  32.190  25.748   6.925
 4081POPC   C4A52698  32.449  25.801   7.291
 4081POPC   C1B52699  32.352  26.239   6.112
 4081POPC   C2B52700  32.456  26.080   6.559
 4081POPC   C3B52701  32.362  26.212   6.963
 4081POPC   C4B52702  32.165  26.226   7.350
 4082POPC   NC352703   2.862  14.736   5.551
 4082POPC   PO452704   2.831  14.058   5.510
 4082POPC   GL152705   2.673  14.324   5.846
 4082POPC   GL252706   2.956  14.514   6.024
 4082POPC   C1A52707   2.539  14.235   6.268
 4082POPC   D2A52708   2.689  14.431   6.649
 4082POPC   C3A52709   2.484  14.269   7.036
 4082POPC   C4A52710   2.702  14.275   7.431
 4082POPC   C1B52711   2.602  14.742   6.235
 4082POPC   C2B52712   2.327  14.909   6.568
 4082POPC   C3B52713   2.296  14.795   7.022
 4082POPC   C4B52714   2.459  14.718   7.460
 4083POPC   NC352715  17.705  36.215   5.546
 4083POPC   PO452716  17.143  35.894   5.360
 4083POPC   GL152717  17.292  35.932   5.756
 4083POPC   GL252718  17.287  36.308   5.810
 4083POPC   C1A52719  17.302  35.937   6.202
 4083POPC   D2A52720  17.556  36.221   6.478
 4083POPC   C3A52721  17.562  36.033   6.894
 4083POPC   C4A52722  17.592  36.213   7.288
 4083POPC   C1B52723  17.144  36.429   6.219
 4083POPC   C2B52724  17.069  36.233   6.647
 4083POPC   C3B52725  17.159  36.371   7.080
 4083POPC   C4B52726  17.166  36.425   7.578
 4084POPC   NC352727   3.696   6.588   5.369
 4084POPC   PO452728   3.038   6.352   5.452
 4084POPC   GL152729   3.411   6.436   5.780
 4084POPC   GL252730   3.809   6.335   5.799
 4084POPC   C1A52731   3.472   6.469   6.250
 4084POPC   D2A52732   3.329   6.706   6.632
 4084POPC   C3A52733   3.349   6.493   7.050
 4084POPC   C4A52734   3.659   6.187   7.185
 4084POPC   C1B52735   3.864   6.714   6.028
 4084POPC   C2B52736   3.810   6.842   6.469
 4084POPC   C3B52737   3.825   6.628   6.854
 4084POPC   C4B52738   3.759   6.713   7.274
 4085POPC   NC352739  15.956  43.246   5.146
 4085POPC   PO452740  16.403  43.296   5.607
 4085POPC   GL152741  16.066  43.045   5.844
 4085POPC   GL252742  15.776  43.187   6.080
 4085POPC   C1A52743  15.972  42.733   6.138
 4085POPC   D2A52744  16.021  42.930   6.519
 4085POPC   C3A52745  16.024  42.707   6.892
 4085POPC   C4A52746  16.044  42.826   7.305
 4085POPC   C1B52747  15.640  43.286   6.491
 4085POPC   C2B52748  15.800  43.219   6.904
 4085POPC   C3B52749  15.848  43.274   7.361
 4085POPC   C4B52750  15.718  43.363   7.784
 4086POPC   NC352751  33.916  44.957   5.061
 4086POPC   PO452752  33.548   0.539   5.259
 4086POPC   GL152753  33.973   0.492   5.684
 4086POPC   GL252754  33.793   0.394   5.969
 4086POPC   C1A52755  34.215   0.557   6.134
 4086POPC   D2A52756  33.964   0.306   6.474
 4086POPC   C3A52757  33.992   0.402   6.904
 4086POPC   C4A52758  33.955   0.520   7.288
 4086POPC   C1B52759  33.520   0.178   6.203
 4086POPC   C2B52760  33.320   0.105   6.548
 4086POPC   C3B52761  33.580   0.102   6.869
 4086POPC   C4B52762  33.587   0.196   7.259
 4087POPC   NC352763  13.729  35.542   5.160
 4087POPC   PO452764  13.607  35.031   5.686
 4087POPC   GL152765  13.551  35.258   6.044
 4087POPC   GL252766  13.901  35.365   5.941
 4087POPC   C1A52767  13.233  35.528   6.210
 4087POPC   D2A52768  13.051  35.556   6.607
 4087POPC   C3A52769  13.422  35.484   6.825
 4087POPC   C4A52770  13.588  35.325   7.193
 4087POPC   C1B52771  13.935  35.080   6.301
 4087POPC   C2B52772  13.805  35.086   6.718
 4087POPC   C3B52773  13.979  35.013   7.107
 4087POPC   C4B52774  14.013  35.311   7.481
 4088POPC   NC352775  42.399  43.297   5.582
 4088POPC   PO452776  42.045  42.863   5.267
 4088POPC   GL152777  42.203  42.821   5.743
 4088POPC   GL252778  41.873  42.908   5.871
 4088POPC   C1A52779  42.530  42.969   6.124
 4088POPC   D2A52780  42.700  42.937   6.564
 4088POPC   C3A52781  42.451  43.164   6.892
 4088POPC   C4A52782  42.500  43.439   7.253
 4088POPC   C1B52783  42.057  42.861   6.281
 4088POPC   C2B52784  41.972  43.011   6.709
 4088POPC   C3B52785  42.006  42.771   7.072
 4088POPC   C4B52786  42.311  42.922   7.333
 4089POPC   NC352787  22.028  43.178   5.516
 4089POPC   PO452788  22.444  42.652   5.473
 4089POPC   GL152789  22.284  42.873   5.838
 4089POPC   GL252790  22.490  43.165   5.812
 4089POPC   C1A52791  22.067  43.175   6.171
 4089POPC   D2A52792  21.848  43.154   6.584
 4089POPC   C3A52793  22.062  43.216   6.982
 4089POPC   C4A52794  22.126  42.941   7.351
 4089POPC   C1B52795  22.538  42.993   6.263
 4089POPC   C2B52796  22.495  43.117   6.685
 4089POPC   C3B52797  22.542  43.138   7.115
 4089POPC   C4B52798  22.332  43.427   7.375
 4090POPC   NC352799  13.366  33.007   5.504
 4090POPC   PO452800  14.054  32.848   5.477
 4090POPC   GL152801  13.820  33.086   5.795
 4090POPC   GL252802  13.712  32.754   5.921
 4090POPC   C1A52803  13.721  33.142   6.259
 4090POPC   D2A52804  13.494  33.044   6.644
 4090POPC   C3A52805  13.735  33.074   7.019
 4090POPC   C4A52806  13.664  33.384   7.348
 4090POPC   C1B52807  13.467  32.650   6.301
 4090POPC   C2B52808  13.295  32.516   6.707
 4090POPC   C3B52809  13.267  32.511   7.168
 4090POPC   C4B52810  13.413  32.868   7.350
 4091POPC   NC352811   8.012  18.098   5.562
 4091POPC   PO452812   8.420  18.602   5.277
 4091POPC   GL152813   8.328  18.507   5.719
 4091POPC   GL252814   8.539  18.223   5.735
 4091POPC   C1A52815   8.067  18.424   6.128
 4091POPC   D2A52816   8.038  18.572   6.552
 4091POPC   C3A52817   8.109  18.352   6.923
 4091POPC   C4A52818   8.181  18.488   7.354
 4091POPC   C1B52819   8.403  18.001   6.092
 4091POPC   C2B52820   8.456  17.914   6.504
 4091POPC   C3B52821   8.240  17.846   6.867
 4091POPC   C4B52822   8.378  18.056   7.214
 4092POPC   NC352823  23.665  43.427   5.316
 4092POPC   PO452824  24.070  42.899   5.402
 4092POPC   GL152825  23.999  43.184   5.748
 4092POPC   GL252826  23.647  43.208   5.777
 4092POPC   C1A52827  23.877  42.995   6.181
 4092POPC   D2A52828  23.683  43.114   6.575
 4092POPC   C3A52829  23.908  43.170   6.971
 4092POPC   C4A52830  24.114  42.997   7.327
 4092POPC   C1B52831  23.404  43.283   6.154
 4092POPC   C2B52832  23.331  43.507   6.549
 4092POPC   C3B52833  23.443  43.364   6.955
 4092POPC   C4B52834  23.635  43.441   7.302
 4093POPC   NC352835   8.410  35.642   5.189
 4093POPC   PO452836   8.259  36.242   5.301
 4093POPC   GL152837   8.104  36.139   5.722
 4093POPC   GL252838   8.314  35.851   5.785
 4093POPC   C1A52839   8.186  36.105   6.197
 4093POPC   D2A52840   8.478  36.159   6.554
 4093POPC   C3A52841   8.249  36.248   6.966
 4093POPC   C4A52842   7.842  36.403   7.188
 4093POPC   C1B52843   8.554  35.710   6.171
 4093POPC   C2B52844   8.353  35.670   6.558
 4093POPC   C3B52845   8.513  35.755   6.939
 4093POPC   C4B52846   8.509  35.920   7.358
 4094POPC   NC352847  27.594  43.394   5.130
 4094POPC   PO452848  28.024  43.102   5.571
 4094POPC   GL152849  27.669  42.975   5.893
 4094POPC   GL252850  27.331  43.051   5.776
 4094POPC   C1A52851  27.527  42.899   6.323
 4094POPC   D2A52852  27.795  42.732   6.668
 4094POPC   C3A52853  27.870  42.964   7.049
 4094POPC   C4A52854  27.638  42.777   7.368
 4094POPC   C1B52855  27.314  43.359   6.137
 4094POPC   C2B52856  27.124  43.511   6.538
 4094POPC   C3B52857  27.155  43.501   6.987
 4094POPC   C4B52858  27.342  43.158   7.218
 4095POPC   NC352859  26.634   8.009   5.324
 4095POPC   PO452860  27.039   8.541   5.323
 4095POPC   GL152861  26.827   8.335   5.687
 4095POPC   GL252862  26.528   8.524   5.670
 4095POPC   C1A52863  26.857   8.061   6.087
 4095POPC   D2A52864  27.038   7.936   6.519
 4095POPC   C3A52865  26.764   7.989   6.870
 4095POPC   C4A52866  26.837   8.071   7.310
 4095POPC   C1B52867  26.452   8.402   6.099
 4095POPC   C2B52868  26.290   8.323   6.514
 4095POPC   C3B52869  26.386   8.354   6.937
 4095POPC   C4B52870  26.505   8.433   7.370
 4096POPC   NC352871  29.771  11.198   5.147
 4096POPC   PO452872  30.043  11.789   5.285
 4096POPC   GL152873  29.928  11.389   5.592
 4096POPC   GL252874  30.110  11.081   5.747
 4096POPC   C1A52875  29.808  11.352   6.057
 4096POPC   D2A52876  29.950  11.370   6.496
 4096POPC   C3A52877  29.708  11.382   6.892
 4096POPC   C4A52878  29.855  11.623   7.248
 4096POPC   C1B52879  30.304  11.090   6.215
 4096POPC   C2B52880  30.397  11.198   6.666
 4096POPC   C3B52881  30.216  11.242   7.103
 4096POPC   C4B52882  30.019  10.963   7.432
 4097POPC   NC352883  14.620  37.017   5.412
 4097POPC   PO452884  14.133  36.546   5.556
 4097POPC   GL152885  14.411  36.773   5.850
 4097POPC   GL252886  14.774  36.822   5.850
 4097POPC   C1A52887  14.305  37.066   6.163
 4097POPC   D2A52888  14.038  36.995   6.518
 4097POPC   C3A52889  14.183  36.857   6.910
 4097POPC   C4A52890  14.293  37.075   7.240
 4097POPC   C1B52891  14.793  36.932   6.254
 4097POPC   C2B52892  14.569  36.849   6.592
 4097POPC   C3B52893  14.672  36.690   6.984
 4097POPC   C4B52894  14.623  36.743   7.426
 4098POPC   NC352895  38.441  44.268   5.109
 4098POPC   PO452896  38.405  44.930   5.290
 4098POPC   GL152897  38.361  44.891   5.753
 4098POPC   GL252898  38.708  44.772   5.825
 4098POPC   C1A52899  38.412  44.883   6.233
 4098POPC   D2A52900  38.231  44.614   6.580
 4098POPC   C3A52901  38.445  44.596   6.994
 4098POPC   C4A52902  38.398  44.850   7.398
 4098POPC   C1B52903  38.698  44.452   6.172
 4098POPC   C2B52904  38.749  44.592   6.573
 4098POPC   C3B52905  38.832  44.907   6.878
 4098POPC   C4B52906  38.878  44.698   7.272
 4099POPC   NC352907  29.296   8.293   5.520
 4099POPC   PO452908  28.791   7.888   5.564
 4099POPC   GL152909  29.058   8.031   5.890
 4099POPC   GL252910  28.874   8.341   5.926
 4099POPC   C1A52911  29.245   7.885   6.285
 4099POPC   D2A52912  28.955   7.739   6.600
 4099POPC   C3A52913  28.992   7.990   6.986
 4099POPC   C4A52914  29.024   8.026   7.429
 4099POPC   C1B52915  29.185   8.406   6.242
 4099POPC   C2B52916  29.283   8.270   6.658
 4099POPC   C3B52917  29.464   8.196   7.074
 4099POPC   C4B52918  29.309   8.440   7.394
 4100POPC   NC352919  31.876  10.610   5.473
 4100POPC   PO452920  31.436  10.103   5.325
 4100POPC   GL152921  31.575  10.262   5.728
 4100POPC   GL252922  31.310  10.197   5.965
 4100POPC   C1A52923  31.754  10.482   6.114
 4100POPC   D2A52924  31.927  10.599   6.529
 4100POPC   C3A52925  31.768  10.436   6.904
 4100POPC   C4A52926  31.536  10.668   7.168
 4100POPC   C1B52927  31.274  10.447   6.313
 4100POPC   C2B52928  31.289  10.452   6.732
 4100POPC   C3B52929  31.320  10.220   7.087
 4100POPC   C4B52930  31.231  10.381   7.477
 4101POPC   NC352931  40.879  17.867   5.278
 4101POPC   PO452932  40.493  18.420   5.241
 4101POPC   GL152933  40.635  18.179   5.638
 4101POPC   GL252934  40.993  18.046   5.768
 4101POPC   C1A52935  40.585  18.075   6.092
 4101POPC   D2A52936  40.896  18.045   6.430
 4101POPC   C3A52937  40.787  18.034   6.862
 4101POPC   C4A52938  40.653  18.340   7.174
 4101POPC   C1B52939  41.184  18.325   6.121
 4101POPC   C2B52940  41.300  18.358   6.604
 4101POPC   C3B52941  41.169  18.321   7.059
 4101POPC   C4B52942  41.035  18.097   7.436
 4102POPC   NC352943  27.427  25.289   5.311
 4102POPC   PO452944  27.990  25.020   5.538
 4102POPC   GL152945  27.686  25.032   5.855
 4102POPC   GL252946  27.364  24.879   5.715
 4102POPC   C1A52947  27.495  25.292   6.219
 4102POPC   D2A52948  27.465  25.634   6.552
 4102POPC   C3A52949  27.585  25.494   6.969
 4102POPC   C4A52950  27.291  25.586   7.306
 4102POPC   C1B52951  27.385  24.775   6.167
 4102POPC   C2B52952  27.342  24.923   6.587
 4102POPC   C3B52953  27.222  24.879   6.997
 4102POPC   C4B52954  27.517  25.082   7.287
 4103POPC   NC352955  28.272   3.718   5.450
 4103POPC   PO452956  28.815   3.315   5.369
 4103POPC   GL152957  28.575   3.354   5.738
 4103POPC   GL252958  28.219   3.364   5.880
 4103POPC   C1A52959  28.703   3.262   6.166
 4103POPC   D2A52960  28.508   3.364   6.532
 4103POPC   C3A52961  28.580   3.562   6.913
 4103POPC   C4A52962  28.396   3.363   7.271
 4103POPC   C1B52963  28.480   3.717   6.100
 4103POPC   C2B52964  28.499   3.894   6.513
 4103POPC   C3B52965  28.160   3.957   6.772
 4103POPC   C4B52966  28.033   3.880   7.176
 4104POPC   NC352967  37.867  34.827   5.220
 4104POPC   PO452968  37.405  34.397   5.424
 4104POPC   GL152969  37.595  34.497   5.793
 4104POPC   GL252970  37.958  34.556   5.663
 4104POPC   C1A52971  37.546  34.353   6.228
 4104POPC   D2A52972  37.658  34.150   6.592
 4104POPC   C3A52973  37.366  34.175   6.918
 4104POPC   C4A52974  37.598  34.201   7.261
 4104POPC   C1B52975  38.015  34.497   6.103
 4104POPC   C2B52976  37.910  34.602   6.525
 4104POPC   C3B52977  37.808  34.562   6.953
 4104POPC   C4B52978  37.478  34.701   7.248
 4105POPC   NC352979   1.998  23.072   5.232
 4105POPC   PO452980   1.648  22.657   5.711
 4105POPC   GL152981   1.996  22.878   5.911
 4105POPC   GL252982   1.951  23.179   5.746
 4105POPC   C1A52983   2.125  23.184   6.266
 4105POPC   D2A52984   2.223  23.301   6.725
 4105POPC   C3A52985   2.158  22.957   7.017
 4105POPC   C4A52986   1.843  22.668   7.120
 4105POPC   C1B52987   1.637  23.244   6.086
 4105POPC   C2B52988   1.628  23.328   6.538
 4105POPC   C3B52989   1.665  23.162   6.954
 4105POPC   C4B52990   1.862  23.202   7.376
 4106POPC   NC352991   7.751  10.779   5.458
 4106POPC   PO452992   7.260  10.281   5.439
 4106POPC   GL152993   7.135  10.394   5.843
 4106POPC   GL252994   7.385  10.658   5.840
 4106POPC   C1A52995   7.237  10.306   6.262
 4106POPC   D2A52996   7.089  10.306   6.689
 4106POPC   C3A52997   7.433  10.323   6.984
 4106POPC   C4A52998   7.264  10.422   7.362
 4106POPC   C1B52999   7.697  10.836   6.143
 4106POPC   C2B53000   7.846  10.944   6.581
 4106POPC   C3B53001   7.632  10.810   6.977
 4106POPC   C4B53002   7.688  10.704   7.413
 4107POPC   NC353003  40.597   3.324   5.381
 4107POPC   PO453004  41.162   3.761   5.435
 4107POPC   GL153005  40.883   3.659   5.757
 4107POPC   GL253006  40.772   4.013   5.804
 4107POPC   C1A53007  40.877   3.403   6.151
 4107POPC   D2A53008  40.648   3.406   6.542
 4107POPC   C3A53009  40.774   3.333   6.938
 4107POPC   C4A53010  40.968   3.436   7.321
 4107POPC   C1B53011  40.628   3.853   6.193
 4107POPC   C2B53012  40.472   3.872   6.611
 4107POPC   C3B53013  40.646   3.824   7.018
 4107POPC   C4B53014  40.901   3.985   7.341
 4108POPC   NC353015   3.492  20.270   5.395
 4108POPC   PO453016   3.797  20.829   5.276
 4108POPC   GL153017   3.620  20.723   5.652
 4108POPC   GL253018   3.881  20.477   5.717
 4108POPC   C1A53019   3.479  20.807   6.086
 4108POPC   D2A53020   3.659  20.925   6.515
 4108POPC   C3A53021   3.527  20.768   6.929
 4108POPC   C4A53022   3.270  20.788   7.310
 4108POPC   C1B53023   3.930  20.614   6.173
 4108POPC   C2B53024   4.001  20.562   6.636
 4108POPC   C3B53025   4.045  20.826   6.977
 4108POPC   C4B53026   3.929  21.016   7.331
 4109POPC   NC353027  27.786  28.017   5.135
 4109POPC   PO453028  27.481  28.513   5.534
 4109POPC   GL153029  27.446  28.461   5.967
 4109POPC   GL253030  27.456  28.107   5.972
 4109POPC   C1A53031  27.649  28.594   6.356
 4109POPC   D2A53032  27.726  28.841   6.714
 4109POPC   C3A53033  27.548  28.685   7.105
 4109POPC   C4A53034  27.865  28.410   7.160
 4109POPC   C1B53035  27.566  28.073   6.383
 4109POPC   C2B53036  27.524  28.291   6.761
 4109POPC   C3B53037  27.432  28.086   7.099
 4109POPC   C4B53038  27.808  27.923   7.179
 4110POPC   NC353039  30.378   2.155   5.287
 4110POPC   PO453040  30.813   1.716   5.438
 4110POPC   GL153041  30.614   1.862   5.835
 4110POPC   GL253042  30.521   2.164   5.808
 4110POPC   C1A53043  30.771   2.072   6.231
 4110POPC   D2A53044  30.723   2.136   6.668
 4110POPC   C3A53045  30.960   2.165   7.042
 4110POPC   C4A53046  30.953   2.018   7.478
 4110POPC   C1B53047  30.298   2.270   6.173
 4110POPC   C2B53048  30.273   2.345   6.604
 4110POPC   C3B53049  30.335   2.170   7.024
 4110POPC   C4B53050  30.523   2.288   7.396
 4111POPC   NC353051   6.505  11.449   5.463
 4111POPC   PO453052   7.208  11.255   5.407
 4111POPC   GL153053   6.953  11.398   5.777
 4111POPC   GL253054   6.658  11.217   5.916
 4111POPC   C1A53055   6.926  11.468   6.252
 4111POPC   D2A53056   6.919  11.136   6.577
 4111POPC   C3A53057   6.781  11.233   7.009
 4111POPC   C4A53058   6.828  11.514   7.394
 4111POPC   C1B53059   6.485  11.007   6.305
 4111POPC   C2B53060   6.199  11.017   6.682
 4111POPC   C3B53061   6.268  11.274   7.069
 4111POPC   C4B53062   6.510  11.119   7.458
 4112POPC   NC353063  14.264  26.765   5.484
 4112POPC   PO453064  14.761  27.128   5.488
 4112POPC   GL153065  14.683  26.921   5.899
 4112POPC   GL253066  14.363  27.072   5.934
 4112POPC   C1A53067  14.450  26.630   6.215
 4112POPC   D2A53068  14.360  26.493   6.654
 4112POPC   C3A53069  14.478  26.789   6.974
 4112POPC   C4A53070  14.247  26.875   7.300
 4112POPC   C1B53071  14.361  27.123   6.399
 4112POPC   C2B53072  14.497  27.280   6.820
 4112POPC   C3B53073  14.411  27.368   7.270
 4112POPC   C4B53074  14.085  27.234   7.589
 4113POPC   NC353075   7.872  17.316   5.324
 4113POPC   PO453076   8.382  17.729   5.467
 4113POPC   GL153077   8.072  17.549   5.757
 4113POPC   GL253078   8.146  17.191   5.779
 4113POPC   C1A53079   7.872  17.409   6.170
 4113POPC   D2A53080   7.777  17.565   6.598
 4113POPC   C3A53081   7.946  17.382   6.963
 4113POPC   C4A53082   8.072  17.657   7.311
 4113POPC   C1B53083   8.409  17.364   6.142
 4113POPC   C2B53084   8.327  17.418   6.594
 4113POPC   C3B53085   8.449  17.389   7.035
 4113POPC   C4B53086   8.241  17.184   7.342
 4114POPC   NC353087  33.908  23.049   5.449
 4114POPC   PO453088  34.035  22.365   5.413
 4114POPC   GL153089  34.093  22.687   5.785
 4114POPC   GL253090  34.128  23.083   5.907
 4114POPC   C1A53091  33.804  22.757   6.125
 4114POPC   D2A53092  33.843  22.702   6.568
 4114POPC   C3A53093  34.060  22.935   6.870
 4114POPC   C4A53094  34.011  22.801   7.340
 4114POPC   C1B53095  33.904  23.206   6.323
 4114POPC   C2B53096  33.615  23.180   6.674
 4114POPC   C3B53097  33.638  23.056   7.106
 4114POPC   C4B53098  33.850  23.274   7.421
 4115POPC   NC353099  42.069  32.207   5.390
 4115POPC   PO453100  42.515  31.831   5.188
 4115POPC   GL153101  42.526  32.201   5.590
 4115POPC   GL253102  42.357  32.506   5.777
 4115POPC   C1A53103  42.588  32.169   6.093
 4115POPC   D2A53104  42.664  32.372   6.516
 4115POPC   C3A53105  42.410  32.427   6.902
 4115POPC   C4A53106  42.561  32.288   7.301
 4115POPC   C1B53107  42.192  32.462   6.241
 4115POPC   C2B53108  41.952  32.582   6.616
 4115POPC   C3B53109  41.903  32.456   7.047
 4115POPC   C4B53110  42.065  32.287   7.437
 4116POPC   NC353111  23.233  33.275   5.387
 4116POPC   PO453112  22.624  33.169   5.587
 4116POPC   GL153113  22.882  33.233   5.939
 4116POPC   GL253114  23.258  33.171   5.891
 4116POPC   C1A53115  22.818  32.910   6.316
 4116POPC   D2A53116  22.682  32.857   6.736
 4116POPC   C3A53117  22.935  32.862   7.111
 4116POPC   C4A53118  22.692  33.123   7.356
 4116POPC   C1B53119  23.177  33.247   6.328
 4116POPC   C2B53120  23.192  33.095   6.713
 4116POPC   C3B53121  23.323  33.258   7.091
 4116POPC   C4B53122  23.153  33.267   7.493
 4117POPC   NC353123  23.703  17.006   5.482
 4117POPC   PO453124  24.041  16.358   5.406
 4117POPC   GL153125  23.942  16.643   5.746
 4117POPC   GL253126  23.594  16.544   5.716
 4117POPC   C1A53127  23.820  16.724   6.179
 4117POPC   D2A53128  23.919  16.655   6.645
 4117POPC   C3A53129  23.842  17.003   6.948
 4117POPC   C4A53130  23.490  16.980   7.229
 4117POPC   C1B53131  23.463  16.326   6.073
 4117POPC   C2B53132  23.439  16.200   6.500
 4117POPC   C3B53133  23.524  16.393   6.885
 4117POPC   C4B53134  23.271  16.512   7.247
 4118POPC   NC353135  12.275  43.502   5.665
 4118POPC   PO453136  12.145  44.109   5.407
 4118POPC   GL153137  11.988  43.913   5.760
 4118POPC   GL253138  11.657  43.924   5.660
 4118POPC   C1A53139  12.082  43.978   6.202
 4118POPC   D2A53140  12.337  43.736   6.489
 4118POPC   C3A53141  12.300  43.873   6.916
 4118POPC   C4A53142  12.194  44.240   7.184
 4118POPC   C1B53143  11.590  43.897   6.097
 4118POPC   C2B53144  11.548  44.056   6.518
 4118POPC   C3B53145  11.754  44.105   6.919
 4118POPC   C4B53146  11.850  43.857   7.266
 4119POPC   NC353147   1.985   9.021   5.359
 4119POPC   PO453148   2.624   8.977   5.342
 4119POPC   GL153149   2.279   8.914   5.764
 4119POPC   GL253150   1.878   8.986   5.839
 4119POPC   C1A53151   2.174   9.024   6.223
 4119POPC   D2A53152   2.290   9.224   6.617
 4119POPC   C3A53153   2.215   8.935   6.975
 4119POPC   C4A53154   2.111   9.089   7.391
 4119POPC   C1B53155   1.748   8.733   6.220
 4119POPC   C2B53156   1.900   8.558   6.634
 4119POPC   C3B53157   1.805   8.608   7.094
 4119POPC   C4B53158   1.878   8.659   7.561
 4120POPC   NC353159  26.976  42.800   5.465
 4120POPC   PO453160  27.143  43.453   5.282
 4120POPC   GL153161  26.876  43.330   5.691
 4120POPC   GL253162  26.612  43.054   5.771
 4120POPC   C1A53163  26.809  43.310   6.157
 4120POPC   D2A53164  26.966  43.007   6.460
 4120POPC   C3A53165  26.933  43.024   6.923
 4120POPC   C4A53166  26.752  43.269   7.265
 4120POPC   C1B53167  26.447  42.948   6.223
 4120POPC   C2B53168  26.471  42.969   6.707
 4120POPC   C3B53169  26.513  42.837   7.182
 4120POPC   C4B53170  26.275  42.682   7.537
 4121POPC   NC353171   6.404  40.280   5.410
 4121POPC   PO453172   6.981  40.057   5.167
 4121POPC   GL153173   6.711  39.967   5.680
 4121POPC   GL253174   6.512  40.157   5.884
 4121POPC   C1A53175   6.868  40.018   6.206
 4121POPC   D2A53176   6.917  40.256   6.608
 4121POPC   C3A53177   6.882  40.074   7.032
 4121POPC   C4A53178   6.699  39.931   7.442
 4121POPC   C1B53179   6.364  40.017   6.275
 4121POPC   C2B53180   6.408  40.241   6.627
 4121POPC   C3B53181   6.390  40.111   7.011
 4121POPC   C4B53182   6.521  40.371   7.340
 4122POPC   NC353183  19.558   0.127   5.466
 4122POPC   PO453184  19.090  44.803   5.074
 4122POPC   GL153185  19.104  44.947   5.610
 4122POPC   GL253186  19.405  44.814   5.836
 4122POPC   C1A53187  18.963  44.787   6.080
 4122POPC   D2A53188  18.799  44.798   6.524
 4122POPC   C3A53189  18.953  44.603   6.900
 4122POPC   C4A53190  19.164  44.866   7.217
 4122POPC   C1B53191  19.470  44.791   6.314
 4122POPC   C2B53192  19.407  44.764   6.761
 4122POPC   C3B53193  19.536  44.548   7.152
 4122POPC   C4B53194  19.381  44.563   7.608
 4123POPC   NC353195   7.990  34.835   5.391
 4123POPC   PO453196   8.672  34.679   5.339
 4123POPC   GL153197   8.431  34.556   5.781
 4123POPC   GL253198   8.548  34.226   5.890
 4123POPC   C1A53199   8.382  34.764   6.213
 4123POPC   D2A53200   8.533  34.760   6.646
 4123POPC   C3A53201   8.207  34.792   6.962
 4123POPC   C4A53202   8.156  34.607   7.327
 4123POPC   C1B53203   8.580  34.293   6.319
 4123POPC   C2B53204   8.530  34.129   6.731
 4123POPC   C3B53205   8.534  34.304   7.153
 4123POPC   C4B53206   8.445  34.329   7.645
 4124POPC   NC353207  40.646  18.795   5.033
 4124POPC   PO453208  40.797  19.326   5.391
 4124POPC   GL153209  40.715  19.072   5.783
 4124POPC   GL253210  40.561  18.735   5.679
 4124POPC   C1A53211  40.774  19.062   6.248
 4124POPC   D2A53212  40.990  19.056   6.655
 4124POPC   C3A53213  40.770  19.276   6.956
 4124POPC   C4A53214  40.472  19.304   7.282
 4124POPC   C1B53215  40.528  18.603   6.136
 4124POPC   C2B53216  40.487  18.764   6.589
 4124POPC   C3B53217  40.558  18.825   7.054
 4124POPC   C4B53218  40.391  18.681   7.461
 4125POPC   NC353219  21.650  34.037   5.553
 4125POPC   PO453220  21.156  33.688   5.266
 4125POPC   GL153221  21.278  33.701   5.690
 4125POPC   GL253222  21.070  33.975   5.762
 4125POPC   C1A53223  21.526  33.576   6.060
 4125POPC   D2A53224  21.453  33.651   6.485
 4125POPC   C3A53225  21.658  33.784   6.863
 4125POPC   C4A53226  21.474  33.672   7.255
 4125POPC   C1B53227  21.293  34.046   6.155
 4125POPC   C2B53228  21.363  34.135   6.598
 4125POPC   C3B53229  21.263  34.066   7.023
 4125POPC   C4B53230  21.614  34.195   7.278
 4126POPC   NC353231  33.427   2.679   5.364
 4126POPC   PO453232  32.772   2.735   5.282
 4126POPC   GL153233  32.965   2.765   5.687
 4126POPC   GL253234  33.134   3.079   5.722
 4126POPC   C1A53235  32.936   2.643   6.129
 4126POPC   D2A53236  33.032   2.418   6.499
 4126POPC   C3A53237  32.957   2.604   6.888
 4126POPC   C4A53238  33.235   2.708   7.211
 4126POPC   C1B53239  33.187   3.112   6.164
 4126POPC   C2B53240  33.304   2.971   6.575
 4126POPC   C3B53241  33.078   3.105   6.915
 4126POPC   C4B53242  32.949   3.138   7.302
 4127POPC   NC353243  41.173   8.706   5.387
 4127POPC   PO453244  40.535   8.892   5.413
 4127POPC   GL153245  40.772   8.767   5.798
 4127POPC   GL253246  41.056   8.990   5.838
 4127POPC   C1A53247  40.701   8.790   6.275
 4127POPC   D2A53248  40.801   8.983   6.675
 4127POPC   C3A53249  40.705   8.848   7.100
 4127POPC   C4A53250  40.541   9.042   7.493
 4127POPC   C1B53251  41.164   8.998   6.273
 4127POPC   C2B53252  41.309   9.142   6.648
 4127POPC   C3B53253  41.100   9.185   7.040
 4127POPC   C4B53254  41.041   9.061   7.445
 4128POPC   NC353255  38.749  27.836   5.597
 4128POPC   PO453256  39.281  27.431   5.219
 4128POPC   GL153257  39.377  27.457   5.705
 4128POPC   GL253258  39.104  27.628   5.904
 4128POPC   C1A53259  39.423  27.323   6.151
 4128POPC   D2A53260  39.079  27.321   6.478
 4128POPC   C3A53261  39.247  27.331   6.889
 4128POPC   C4A53262  39.216  27.464   7.324
 4128POPC   C1B53263  39.044  27.821   6.322
 4128POPC   C2B53264  39.041  27.810   6.789
 4128POPC   C3B53265  39.209  27.961   7.187
 4128POPC   C4B53266  39.049  27.925   7.606
 4129POPC   NC353267  26.837  15.616   5.417
 4129POPC   PO453268  26.527  16.182   5.408
 4129POPC   GL153269  26.605  15.951   5.769
 4129POPC   GL253270  26.383  16.122   5.969
 4129POPC   C1A53271  26.936  15.829   6.080
 4129POPC   D2A53272  27.046  15.777   6.530
 4129POPC   C3A53273  26.954  16.065   6.859
 4129POPC   C4A53274  27.015  16.320   7.217
 4129POPC   C1B53275  26.460  15.790   6.277
 4129POPC   C2B53276  26.545  15.754   6.728
 4129POPC   C3B53277  26.679  15.779   7.169
 4129POPC   C4B53278  27.147  15.702   7.203
 4130POPC   NC353279  37.908  12.426   5.590
 4130POPC   PO453280  37.549  11.852   5.435
 4130POPC   GL153281  37.575  12.069   5.816
 4130POPC   GL253282  37.373  12.353   5.700
 4130POPC   C1A53283  37.690  12.019   6.271
 4130POPC   D2A53284  37.461  11.954   6.675
 4130POPC   C3A53285  37.678  11.944   7.053
 4130POPC   C4A53286  37.742  12.099   7.472
 4130POPC   C1B53287  37.242  12.278   6.148
 4130POPC   C2B53288  37.439  12.429   6.491
 4130POPC   C3B53289  37.687  12.410   6.841
 4130POPC   C4B53290  37.482  12.453   7.217
 4131POPC   NC353291  39.487  41.742   5.389
 4131POPC   PO453292  38.884  41.788   5.216
 4131POPC   GL153293  39.014  41.613   5.665
 4131POPC   GL253294  38.812  41.313   5.826
 4131POPC   C1A53295  39.059  41.658   6.123
 4131POPC   D2A53296  39.033  41.456   6.537
 4131POPC   C3A53297  39.213  41.701   6.842
 4131POPC   C4A53298  39.101  41.793   7.243
 4131POPC   C1B53299  39.137  41.149   6.135
 4131POPC   C2B53300  39.381  41.072   6.508
 4131POPC   C3B53301  39.292  41.213   6.928
 4131POPC   C4B53302  38.911  41.326   7.086
 4132POPC   NC353303   8.913  23.162   5.079
 4132POPC   PO453304   9.302  22.836   5.474
 4132POPC   GL153305   9.148  22.702   5.873
 4132POPC   GL253306   8.844  22.914   5.946
 4132POPC   C1A53307   9.164  22.791   6.320
 4132POPC   D2A53308   8.907  23.027   6.606
 4132POPC   C3A53309   8.948  22.845   7.008
 4132POPC   C4A53310   8.748  22.657   7.327
 4132POPC   C1B53311   8.492  23.175   6.159
 4132POPC   C2B53312   8.478  23.348   6.576
 4132POPC   C3B53313   8.494  23.163   6.976
 4132POPC   C4B53314   8.384  23.020   7.395
 4133POPC   NC353315  40.376  25.268   5.434
 4133POPC   PO453316  41.029  25.064   5.426
 4133POPC   GL153317  40.802  25.274   5.765
 4133POPC   GL253318  40.536  25.481   5.883
 4133POPC   C1A53319  40.796  25.119   6.184
 4133POPC   D2A53320  40.715  25.303   6.553
 4133POPC   C3A53321  41.012  25.299   6.869
 4133POPC   C4A53322  40.887  25.259   7.282
 4133POPC   C1B53323  40.421  25.741   6.217
 4133POPC   C2B53324  40.573  25.793   6.624
 4133POPC   C3B53325  40.570  25.557   6.996
 4133POPC   C4B53326  40.331  25.441   7.343
 4134POPC   NC353327  29.115  41.359   5.336
 4134POPC   PO453328  29.686  41.519   5.568
 4134POPC   GL153329  29.343  41.577   5.870
 4134POPC   GL253330  28.961  41.584   5.771
 4134POPC   C1A53331  29.413  41.822   6.260
 4134POPC   D2A53332  29.557  41.794   6.693
 4134POPC   C3A53333  29.385  41.475   6.953
 4134POPC   C4A53334  29.111  41.474   7.311
 4134POPC   C1B53335  28.932  41.662   6.172
 4134POPC   C2B53336  29.074  41.473   6.532
 4134POPC   C3B53337  28.853  41.442   6.896
 4134POPC   C4B53338  28.548  41.523   7.234
 4135POPC   NC353339  19.300  22.427   5.314
 4135POPC   PO453340  18.776  22.023   5.535
 4135POPC   GL153341  19.157  22.103   5.716
 4135POPC   GL253342  19.115  22.411   5.807
 4135POPC   C1A53343  19.232  22.074   6.155
 4135POPC   D2A53344  19.238  22.337   6.514
 4135POPC   C3A53345  18.987  22.186   6.861
 4135POPC   C4A53346  19.085  22.199   7.292
 4135POPC   C1B53347  18.860  22.509   6.214
 4135POPC   C2B53348  18.718  22.579   6.665
 4135POPC   C3B53349  18.723  22.542   7.135
 4135POPC   C4B53350  18.867  22.547   7.600
 4136POPC   NC353351  40.139  29.462   5.433
 4136POPC   PO453352  39.736  28.933   5.524
 4136POPC   GL153353  39.822  29.267   5.801
 4136POPC   GL253354  40.160  29.206   5.887
 4136POPC   C1A53355  39.648  29.443   6.169
 4136POPC   D2A53356  39.544  29.183   6.510
 4136POPC   C3A53357  39.625  29.315   6.922
 4136POPC   C4A53358  39.771  29.006   7.202
 4136POPC   C1B53359  40.038  29.147   6.322
 4136POPC   C2B53360  40.260  29.130   6.727
 4136POPC   C3B53361  40.276  28.989   7.159
 4136POPC   C4B53362  40.095  29.153   7.557
 4137POPC   NC353363  39.080  27.106   5.469
 4137POPC   PO453364  39.455  26.647   5.668
 4137POPC   GL153365  39.153  26.774   5.951
 4137POPC   GL253366  39.010  27.113   5.966
 4137POPC   C1A53367  39.308  26.872   6.361
 4137POPC   D2A53368  39.319  26.825   6.800
 4137POPC   C3A53369  39.464  26.669   7.191
 4137POPC   C4A53370  39.540  26.530   7.610
 4137POPC   C1B53371  38.791  26.903   6.298
 4137POPC   C2B53372  38.822  26.927   6.738
 4137POPC   C3B53373  38.978  26.994   7.144
 4137POPC   C4B53374  38.874  27.121   7.539
 4138POPC   NC353375  42.931   1.358   5.424
 4138POPC   PO453376  43.254   0.728   5.368
 4138POPC   GL153377  43.273   1.094   5.704
 4138POPC   GL253378  43.560   1.091   5.891
 4138POPC   C1A53379  43.048   1.263   6.102
 4138POPC   D2A53380  43.094   1.200   6.576
 4138POPC   C3A53381  43.105   1.474   6.955
 4138POPC   C4A53382  43.106   1.182   7.303
 4138POPC   C1B53383  43.412   0.942   6.276
 4138POPC   C2B53384  43.465   0.780   6.706
 4138POPC   C3B53385  43.346   0.774   7.125
 4138POPC   C4B53386  43.547   0.961   7.491
 4139POPC   NC353387  43.197  41.272   5.459
 4139POPC   PO453388  42.840  40.662   5.433
 4139POPC   GL153389  43.016  40.899   5.770
 4139POPC   GL253390  42.992  40.581   5.937
 4139POPC   C1A53391  43.185  41.008   6.185
 4139POPC   D2A53392  43.061  40.975   6.631
 4139POPC   C3A53393  43.291  40.755   6.998
 4139POPC   C4A53394  43.128  40.802   7.444
 4139POPC   C1B53395  42.859  40.353   6.281
 4139POPC   C2B53396  43.021  40.469   6.665
 4139POPC   C3B53397  42.807  40.581   7.065
 4139POPC   C4B53398  42.806  40.409   7.486
 4140POPC   NC353399   6.024  15.523   5.370
 4140POPC   PO453400   5.904  14.972   5.512
 4140POPC   GL153401   6.023  15.223   5.858
 4140POPC   GL253402   5.799  15.539   5.862
 4140POPC   C1A53403   5.837  15.144   6.275
 4140POPC   D2A53404   5.785  15.363   6.651
 4140POPC   C3A53405   5.981  15.307   7.043
 4140POPC   C4A53406   6.065  15.362   7.468
 4140POPC   C1B53407   5.530  15.592   6.247
 4140POPC   C2B53408   5.356  15.626   6.674
 4140POPC   C3B53409   5.440  15.351   7.046
 4140POPC   C4B53410   5.553  15.436   7.468
 4141POPC   NC353411   7.123  22.747   5.402
 4141POPC   PO453412   7.546  23.163   5.166
 4141POPC   GL153413   7.502  23.150   5.672
 4141POPC   GL253414   7.331  22.894   5.828
 4141POPC   C1A53415   7.585  23.159   6.174
 4141POPC   D2A53416   7.618  22.773   6.505
 4141POPC   C3A53417   7.554  22.856   6.970
 4141POPC   C4A53418   7.439  23.275   7.125
 4141POPC   C1B53419   7.177  22.840   6.244
 4141POPC   C2B53420   7.190  23.039   6.651
 4141POPC   C3B53421   7.016  22.989   7.068
 4141POPC   C4B53422   7.069  22.738   7.420
 4142POPC   NC353423  33.843  24.790   5.505
 4142POPC   PO453424  33.509  24.258   5.460
 4142POPC   GL153425  33.663  24.256   5.844
 4142POPC   GL253426  34.011  24.382   5.813
 4142POPC   C1A53427  33.665  24.583   6.152
 4142POPC   D2A53428  33.873  24.574   6.527
 4142POPC   C3A53429  33.706  24.449   6.906
 4142POPC   C4A53430  33.830  24.491   7.322
 4142POPC   C1B53431  34.014  24.162   6.219
 4142POPC   C2B53432  34.160  24.137   6.650
 4142POPC   C3B53433  34.102  24.122   7.100
 4142POPC   C4B53434  34.108  24.124   7.571
 4143POPC   NC353435  43.636  21.533   5.574
 4143POPC   PO453436  44.237  21.697   5.573
 4143POPC   GL153437  44.011  21.474   5.918
 4143POPC   GL253438  43.639  21.567   6.070
 4143POPC   C1A53439  43.986  21.225   6.280
 4143POPC   D2A53440  43.810  21.521   6.581
 4143POPC   C3A53441  43.738  21.452   7.007
 4143POPC   C4A53442  43.897  21.071   7.131
 4143POPC   C1B53443  43.501  21.147   6.191
 4143POPC   C2B53444  43.649  21.002   6.609
 4143POPC   C3B53445  43.407  21.026   6.995
 4143POPC   C4B53446  43.429  21.057   7.425
 4144POPC   NC353447  44.950   8.241   5.457
 4144POPC   PO453448  44.436   7.842   5.541
 4144POPC   GL153449  44.722   8.031   5.867
 4144POPC   GL253450  44.744   8.399   5.897
 4144POPC   C1A53451  44.949   8.105   6.266
 4144POPC   D2A53452  44.750   8.136   6.666
 4144POPC   C3A53453  44.955   8.047   7.046
 4144POPC   C4A53454  44.898   8.417   7.289
 4144POPC   C1B53455  44.471   8.332   6.253
 4144POPC   C2B53456  44.237   8.215   6.618
 4144POPC   C3B53457  44.385   8.231   7.032
 4144POPC   C4B53458  44.437   8.286   7.458
 4145POPC   NC353459   0.778  13.763   5.340
 4145POPC   PO453460   0.256  13.344   5.156
 4145POPC   GL153461   0.310  13.460   5.651
 4145POPC   GL253462   0.576  13.659   5.807
 4145POPC   C1A53463   0.161  13.358   6.110
 4145POPC   D2A53464   0.093  13.544   6.545
 4145POPC   C3A53465   0.352  13.505   6.904
 4145POPC   C4A53466   0.153  13.399   7.266
 4145POPC   C1B53467   0.442  13.756   6.189
 4145POPC   C2B53468   0.622  13.712   6.527
 4145POPC   C3B53469   0.662  13.935   6.881
 4145POPC   C4B53470   0.578  13.788   7.277
 4146POPC   NC353471  23.893  19.348   5.543
 4146POPC   PO453472  23.725  20.063   5.507
 4146POPC   GL153473  23.716  20.145   5.931
 4146POPC   GL253474  23.519  20.427   5.963
 4146POPC   C1A53475  23.498  20.013   6.333
 4146POPC   D2A53476  23.352  19.698   6.693
 4146POPC   C3A53477  23.478  19.718   7.152
 4146POPC   C4A53478  23.902  19.653   7.334
 4146POPC   C1B53479  23.766  20.491   6.360
 4146POPC   C2B53480  23.725  20.240   6.739
 4146POPC   C3B53481  23.847  20.109   7.141
 4146POPC   C4B53482  23.922  20.328   7.515
 4147POPC   NC353483  31.065  15.567   5.515
 4147POPC   PO453484  31.359  14.999   5.255
 4147POPC   GL153485  31.386  15.189   5.690
 4147POPC   GL253486  31.077  15.088   5.800
 4147POPC   C1A53487  31.546  15.334   6.103
 4147POPC   D2A53488  31.607  15.066   6.458
 4147POPC   C3A53489  31.570  15.215   6.876
 4147POPC   C4A53490  31.470  15.503   7.216
 4147POPC   C1B53491  31.101  15.102   6.242
 4147POPC   C2B53492  31.126  15.027   6.662
 4147POPC   C3B53493  31.072  15.158   7.055
 4147POPC   C4B53494  30.956  15.012   7.448
 4148POPC   NC353495   5.382  30.976   5.390
 4148POPC   PO453496   5.278  30.389   5.681
 4148POPC   GL153497   5.160  30.809   5.818
 4148POPC   GL253498   4.841  30.965   5.742
 4148POPC   C1A53499   5.084  30.884   6.241
 4148POPC   D2A53500   5.192  30.584   6.554
 4148POPC   C3A53501   5.251  30.827   6.917
 4148POPC   C4A53502   5.168  30.957   7.332
 4148POPC   C1B53503   4.677  30.635   6.008
 4148POPC   C2B53504   4.674  30.453   6.428
 4148POPC   C3B53505   4.781  30.560   6.863
 4148POPC   C4B53506   4.583  30.587   7.223
 4149POPC   NC353507  37.074  15.620   5.052
 4149POPC   PO453508  36.679  16.018   5.493
 4149POPC   GL153509  36.730  15.998   5.908
 4149POPC   GL253510  37.071  15.882   5.996
 4149POPC   C1A53511  36.655  15.839   6.296
 4149POPC   D2A53512  36.783  15.731   6.687
 4149POPC   C3A53513  36.537  15.880   7.016
 4149POPC   C4A53514  36.649  16.045   7.404
 4149POPC   C1B53515  37.143  15.548   6.339
 4149POPC   C2B53516  37.177  15.439   6.800
 4149POPC   C3B53517  37.007  15.670   7.171
 4149POPC   C4B53518  36.994  15.576   7.593
 4150POPC   NC353519  22.879  42.814   5.389
 4150POPC   PO453520  23.200  43.360   5.226
 4150POPC   GL153521  23.111  43.340   5.679
 4150POPC   GL253522  23.175  42.994   5.773
 4150POPC   C1A53523  22.911  43.313   6.094
 4150POPC   D2A53524  22.993  43.130   6.502
 4150POPC   C3A53525  22.957  43.325   6.916
 4150POPC   C4A53526  23.131  43.273   7.357
 4150POPC   C1B53527  22.977  42.787   6.110
 4150POPC   C2B53528  22.905  42.629   6.509
 4150POPC   C3B53529  22.887  42.811   6.894
 4150POPC   C4B53530  23.042  42.793   7.303
 4151POPC   NC353531  20.047  24.642   5.023
 4151POPC   PO453532  19.629  24.249   5.423
 4151POPC   GL153533  19.749  24.390   5.834
 4151POPC   GL253534  20.052  24.567   5.820
 4151POPC   C1A53535  19.681  24.450   6.260
 4151POPC   D2A53536  19.593  24.159   6.550
 4151POPC   C3A53537  19.663  24.431   6.865
 4151POPC   C4A53538  19.690  24.417   7.269
 4151POPC   C1B53539  20.186  24.599   6.249
 4151POPC   C2B53540  20.051  24.754   6.665
 4151POPC   C3B53541  20.152  24.535   7.064
 4151POPC   C4B53542  20.168  24.642   7.546
 4152POPC   NC353543  42.721  24.613   5.382
 4152POPC   PO453544  43.388  24.616   5.420
 4152POPC   GL153545  43.245  24.527   5.851
 4152POPC   GL253546  42.929  24.712   5.875
 4152POPC   C1A53547  43.220  24.267   6.267
 4152POPC   D2A53548  43.489  24.152   6.676
 4152POPC   C3A53549  43.415  24.310   7.125
 4152POPC   C4A53550  43.361  24.440   7.614
 4152POPC   C1B53551  43.156  24.828   6.270
 4152POPC   C2B53552  43.222  24.609   6.645
 4152POPC   C3B53553  42.983  24.550   6.964
 4152POPC   C4B53554  42.966  24.307   7.326
 4153POPC   NC353555  18.676  44.146   5.393
 4153POPC   PO453556  18.266  43.716   5.363
 4153POPC   GL153557  18.291  43.816   5.794
 4153POPC   GL253558  18.211  43.505   5.823
 4153POPC   C1A53559  18.294  43.862   6.269
 4153POPC   D2A53560  18.133  44.101   6.633
 4153POPC   C3A53561  18.299  44.167   7.085
 4153POPC   C4A53562  17.998  44.121   7.430
 4153POPC   C1B53563  17.957  43.462   6.156
 4153POPC   C2B53564  17.945  43.615   6.571
 4153POPC   C3B53565  18.087  43.716   6.978
 4153POPC   C4B53566  18.458  43.575   7.191
 4154POPC   NC353567   2.509  31.450   5.306
 4154POPC   PO453568   2.958  31.837   5.614
 4154POPC   GL153569   2.629  31.558   5.799
 4154POPC   GL253570   2.912  31.402   5.922
 4154POPC   C1A53571   2.479  31.317   6.172
 4154POPC   D2A53572   2.664  31.401   6.560
 4154POPC   C3A53573   2.660  31.108   6.893
 4154POPC   C4A53574   2.642  31.375   7.251
 4154POPC   C1B53575   3.012  31.712   6.238
 4154POPC   C2B53576   2.950  31.860   6.615
 4154POPC   C3B53577   2.941  31.622   6.938
 4154POPC   C4B53578   3.071  31.666   7.347
 4155POPC   NC353579  37.359  28.582   5.456
 4155POPC   PO453580  38.012  28.756   5.340
 4155POPC   GL153581  37.893  28.507   5.752
 4155POPC   GL253582  37.630  28.253   5.757
 4155POPC   C1A53583  37.674  28.547   6.189
 4155POPC   D2A53584  37.508  28.740   6.588
 4155POPC   C3A53585  37.597  28.548   6.988
 4155POPC   C4A53586  37.915  28.658   7.293
 4155POPC   C1B53587  37.301  28.216   6.109
 4155POPC   C2B53588  37.293  28.269   6.542
 4155POPC   C3B53589  37.317  28.002   6.890
 4155POPC   C4B53590  37.303  28.220   7.247
 4156POPC   NC353591  44.286  28.977   5.486
 4156POPC   PO453592  43.609  28.880   5.364
 4156POPC   GL153593  43.722  29.107   5.732
 4156POPC   GL253594  44.014  29.329   5.734
 4156POPC   C1A53595  43.897  29.037   6.151
 4156POPC   D2A53596  43.723  29.158   6.539
 4156POPC   C3A53597  43.664  28.918   6.910
 4156POPC   C4A53598  43.756  29.121   7.306
 4156POPC   C1B53599  44.190  29.470   6.125
 4156POPC   C2B53600  44.243  29.288   6.530
 4156POPC   C3B53601  44.132  29.127   6.897
 4156POPC   C4B53602  44.253  29.210   7.284
 4157POPC   NC353603  11.067  10.189   5.343
 4157POPC   PO453604  11.592  10.598   5.316
 4157POPC   GL153605  11.326  10.538   5.668
 4157POPC   GL253606  11.381  10.864   5.801
 4157POPC   C1A53607  11.104  10.525   6.072
 4157POPC   D2A53608  11.048  10.290   6.449
 4157POPC   C3A53609  11.196  10.364   6.835
 4157POPC   C4A53610  11.303  10.055   7.125
 4157POPC   C1B53611  11.561  10.794   6.177
 4157POPC   C2B53612  11.612  10.580   6.528
 4157POPC   C3B53613  11.532  10.754   6.904
 4157POPC   C4B53614  11.380  10.554   7.275
 4158POPC   NC353615   0.286  22.663   5.104
 4158POPC   PO453616   0.793  23.048   5.370
 4158POPC   GL153617   0.676  22.909   5.803
 4158POPC   GL253618   0.308  22.972   5.860
 4158POPC   C1A53619   0.739  22.890   6.272
 4158POPC   D2A53620   0.676  22.889   6.741
 4158POPC   C3A53621   0.251  23.000   6.866
 4158POPC   C4A53622   0.215  23.224   7.238
 4158POPC   C1B53623   0.297  22.666   6.204
 4158POPC   C2B53624   0.449  22.416   6.526
 4158POPC   C3B53625   0.405  22.501   6.939
 4158POPC   C4B53626   0.474  22.776   7.284
 4159POPC   NC353627  18.264  35.724   5.595
 4159POPC   PO453628  18.142  36.366   5.307
 4159POPC   GL153629  18.241  36.282   5.761
 4159POPC   GL253630  18.545  36.106   5.796
 4159POPC   C1A53631  18.216  36.150   6.227
 4159POPC   D2A53632  18.051  36.203   6.629
 4159POPC   C3A53633  18.093  35.985   6.990
 4159POPC   C4A53634  18.095  36.311   7.271
 4159POPC   C1B53635  18.702  36.226   6.199
 4159POPC   C2B53636  18.557  36.340   6.614
 4159POPC   C3B53637  18.553  36.260   7.060
 4159POPC   C4B53638  18.578  36.334   7.510
 4160POPC   NC353639   6.938  22.039   5.119
 4160POPC   PO453640   7.426  22.285   5.525
 4160POPC   GL153641   7.532  22.124   5.898
 4160POPC   GL253642   7.466  22.442   6.044
 4160POPC   C1A53643   7.512  22.004   6.328
 4160POPC   D2A53644   7.291  21.815   6.693
 4160POPC   C3A53645   7.513  21.885   7.090
 4160POPC   C4A53646   7.272  21.967   7.440
 4160POPC   C1B53647   7.105  22.320   6.294
 4160POPC   C2B53648   7.144  22.336   6.715
 4160POPC   C3B53649   7.267  22.361   7.119
 4160POPC   C4B53650   7.511  22.556   7.400
 4161POPC   NC353651  11.271   6.867   5.420
 4161POPC   PO453652  11.131   6.201   5.608
 4161POPC   GL153653  11.389   6.432   5.906
 4161POPC   GL253654  11.258   6.768   5.933
 4161POPC   C1A53655  11.448   6.435   6.341
 4161POPC   D2A53656  11.492   6.702   6.720
 4161POPC   C3A53657  11.330   6.522   7.117
 4161POPC   C4A53658  10.890   6.398   7.222
 4161POPC   C1B53659  11.649   6.893   6.146
 4161POPC   C2B53660  11.861   7.032   6.528
 4161POPC   C3B53661  11.682   7.146   6.926
 4161POPC   C4B53662  11.537   7.040   7.325
 4162POPC   NC353663   9.583   8.094   5.142
 4162POPC   PO453664   9.967   8.534   5.453
 4162POPC   GL153665   9.768   8.248   5.747
 4162POPC   GL253666   9.942   8.011   5.934
 4162POPC   C1A53667   9.547   8.319   6.129
 4162POPC   D2A53668   9.717   8.192   6.505
 4162POPC   C3A53669   9.589   8.322   6.889
 4162POPC   C4A53670   9.652   8.624   7.175
 4162POPC   C1B53671   9.579   7.813   6.147
 4162POPC   C2B53672   9.572   7.681   6.547
 4162POPC   C3B53673   9.796   7.835   6.865
 4162POPC   C4B53674   9.698   7.974   7.251
 4163POPC   NC353675  18.647  12.342   5.450
 4163POPC   PO453676  18.221  11.957   5.213
 4163POPC   GL153677  18.378  12.047   5.743
 4163POPC   GL253678  18.084  12.028   5.880
 4163POPC   C1A53679  18.361  12.286   6.207
 4163POPC   D2A53680  18.495  12.455   6.626
 4163POPC   C3A53681  18.339  12.221   6.987
 4163POPC   C4A53682  18.494  12.050   7.375
 4163POPC   C1B53683  18.244  11.788   6.209
 4163POPC   C2B53684  18.143  11.923   6.602
 4163POPC   C3B53685  18.141  11.740   6.989
 4163POPC   C4B53686  18.208  11.593   7.394
 4164POPC   NC353687  10.897  41.411   5.692
 4164POPC   PO453688  10.542  41.771   5.238
 4164POPC   GL153689  10.387  41.736   5.735
 4164POPC   GL253690  10.232  41.460   5.837
 4164POPC   C1A53691  10.609  41.693   6.197
 4164POPC   D2A53692  10.470  41.573   6.575
 4164POPC   C3A53693  10.666  41.556   6.915
 4164POPC   C4A53694  10.528  41.568   7.304
 4164POPC   C1B53695  10.108  41.724   6.204
 4164POPC   C2B53696  10.041  41.863   6.621
 4164POPC   C3B53697  10.135  41.669   6.991
 4164POPC   C4B53698  10.128  41.904   7.390
 4165POPC   NC353699  10.936  17.408   5.052
 4165POPC   PO453700  10.599  17.245   5.599
 4165POPC   GL153701  10.520  17.497   5.888
 4165POPC   GL253702  10.717  17.766   5.719
 4165POPC   C1A53703  10.292  17.380   6.254
 4165POPC   D2A53704  10.444  17.216   6.637
 4165POPC   C3A53705  10.380  17.397   7.040
 4165POPC   C4A53706  10.719  17.240   7.271
 4165POPC   C1B53707  10.859  17.767   6.147
 4165POPC   C2B53708  10.772  17.630   6.582
 4165POPC   C3B53709  10.819  17.689   7.035
 4165POPC   C4B53710  10.687  17.724   7.485
 4166POPC   NC353711  31.389   4.448   5.519
 4166POPC   PO453712  31.735   3.802   5.476
 4166POPC   GL153713  31.544   4.044   5.823
 4166POPC   GL253714  31.162   4.090   5.810
 4166POPC   C1A53715  31.622   4.406   6.140
 4166POPC   D2A53716  31.750   4.608   6.543
 4166POPC   C3A53717  31.629   4.379   6.915
 4166POPC   C4A53718  31.645   4.519   7.333
 4166POPC   C1B53719  31.123   4.451   6.122
 4166POPC   C2B53720  31.233   4.520   6.557
 4166POPC   C3B53721  31.122   4.418   6.982
 4166POPC   C4B53722  31.049   4.283   7.367
 4167POPC   NC353723   5.861   5.814   5.228
 4167POPC   PO453724   6.256   6.093   5.669
 4167POPC   GL153725   6.017   5.862   5.964
 4167POPC   GL253726   5.845   5.604   5.759
 4167POPC   C1A53727   5.714   6.051   6.281
 4167POPC   D2A53728   5.578   6.180   6.713
 4167POPC   C3A53729   5.858   6.096   7.050
 4167POPC   C4A53730   5.686   5.998   7.471
 4167POPC   C1B53731   5.623   5.550   6.167
 4167POPC   C2B53732   5.601   5.661   6.611
 4167POPC   C3B53733   5.591   5.690   7.054
 4167POPC   C4B53734   5.911   5.576   7.349
 4168POPC   NC353735  35.892  29.055   5.412
 4168POPC   PO453736  36.364  29.465   5.395
 4168POPC   GL153737  36.241  29.231   5.768
 4168POPC   GL253738  36.224  28.828   5.759
 4168POPC   C1A53739  35.980  29.207   6.138
 4168POPC   D2A53740  36.011  28.995   6.524
 4168POPC   C3A53741  35.940  29.207   6.892
 4168POPC   C4A53742  36.187  29.355   7.216
 4168POPC   C1B53743  36.145  28.615   6.174
 4168POPC   C2B53744  35.996  28.494   6.591
 4168POPC   C3B53745  36.071  28.690   6.991
 4168POPC   C4B53746  35.885  28.897   7.337
 4169POPC   NC353747  26.170  27.083   5.299
 4169POPC   PO453748  25.812  26.581   5.483
 4169POPC   GL153749  25.870  26.941   5.744
 4169POPC   GL253750  26.239  26.977   5.791
 4169POPC   C1A53751  25.933  27.028   6.191
 4169POPC   D2A53752  26.069  26.878   6.593
 4169POPC   C3A53753  25.823  26.980   6.976
 4169POPC   C4A53754  25.807  26.844   7.423
 4169POPC   C1B53755  26.452  26.950   6.205
 4169POPC   C2B53756  26.490  27.191   6.603
 4169POPC   C3B53757  26.387  26.964   6.975
 4169POPC   C4B53758  26.118  26.584   7.076
 4170POPC   NC353759  18.742   4.980   5.606
 4170POPC   PO453760  18.252   5.373   5.597
 4170POPC   GL153761  18.346   5.123   5.956
 4170POPC   GL253762  18.310   4.750   5.875
 4170POPC   C1A53763  18.352   5.266   6.404
 4170POPC   D2A53764  18.108   5.316   6.780
 4170POPC   C3A53765  18.091   5.469   7.186
 4170POPC   C4A53766  18.232   5.248   7.549
 4170POPC   C1B53767  18.044   4.863   6.265
 4170POPC   C2B53768  18.043   4.789   6.721
 4170POPC   C3B53769  18.116   4.939   7.156
 4170POPC   C4B53770  18.480   4.816   7.482
 4171POPC   NC353771  36.541   1.716   5.686
 4171POPC   PO453772  36.100   2.115   5.378
 4171POPC   GL153773  36.198   2.091   5.782
 4171POPC   GL253774  36.067   1.762   5.882
 4171POPC   C1A53775  36.309   2.167   6.201
 4171POPC   D2A53776  36.098   2.029   6.563
 4171POPC   C3A53777  36.322   1.873   6.927
 4171POPC   C4A53778  36.308   2.064   7.330
 4171POPC   C1B53779  35.724   1.962   6.122
 4171POPC   C2B53780  35.558   1.977   6.545
 4171POPC   C3B53781  35.756   1.887   6.939
 4171POPC   C4B53782  35.557   1.724   7.266
 4172POPC   NC353783  32.808  32.576   5.472
 4172POPC   PO453784  32.215  32.186   5.321
 4172POPC   GL153785  32.360  32.360   5.739
 4172POPC   GL253786  32.042  32.559   5.797
 4172POPC   C1A53787  32.557  32.241   6.182
 4172POPC   D2A53788  32.368  32.197   6.605
 4172POPC   C3A53789  32.563  32.285   6.985
 4172POPC   C4A53790  32.832  32.181   7.333
 4172POPC   C1B53791  32.090  32.432   6.224
 4172POPC   C2B53792  32.001  32.559   6.644
 4172POPC   C3B53793  32.044  32.413   7.070
 4172POPC   C4B53794  31.997  32.277   7.494
 4173POPC   NC353795  14.780  34.151   5.624
 4173POPC   PO453796  14.292  33.738   5.374
 4173POPC   GL153797  14.388  33.770   5.789
 4173POPC   GL253798  14.087  33.986   5.861
 4173POPC   C1A53799  14.376  33.697   6.236
 4173POPC   D2A53800  14.243  33.870   6.637
 4173POPC   C3A53801  14.347  33.586   6.957
 4173POPC   C4A53802  14.178  33.269   7.229
 4173POPC   C1B53803  14.393  34.192   6.125
 4173POPC   C2B53804  14.723  34.075   6.417
 4173POPC   C3B53805  14.684  34.076   6.852
 4173POPC   C4B53806  14.421  34.042   7.198
 4174POPC   NC353807   9.349   6.682   5.453
 4174POPC   PO453808   9.924   6.903   5.105
 4174POPC   GL153809   9.840   6.754   5.641
 4174POPC   GL253810   9.651   6.409   5.752
 4174POPC   C1A53811   9.567   6.804   6.103
 4174POPC   D2A53812   9.466   6.649   6.576
 4174POPC   C3A53813   9.665   6.766   7.000
 4174POPC   C4A53814   9.945   6.583   7.341
 4174POPC   C1B53815   9.872   6.409   6.150
 4174POPC   C2B53816   9.917   6.360   6.590
 4174POPC   C3B53817   9.753   6.248   6.969
 4174POPC   C4B53818   9.556   6.251   7.376
 4175POPC   NC353819  19.649  36.835   5.389
 4175POPC   PO453820  20.209  37.037   5.731
 4175POPC   GL153821  19.917  36.774   5.825
 4175POPC   GL253822  20.154  36.507   5.828
 4175POPC   C1A53823  19.645  36.844   6.179
 4175POPC   D2A53824  19.737  36.730   6.619
 4175POPC   C3A53825  19.981  37.034   6.907
 4175POPC   C4A53826  19.829  37.145   7.342
 4175POPC   C1B53827  20.103  36.578   6.270
 4175POPC   C2B53828  20.232  36.538   6.681
 4175POPC   C3B53829  20.053  36.525   7.071
 4175POPC   C4B53830  19.653  36.699   7.121
 4176POPC   NC353831  15.313   8.799   5.226
 4176POPC   PO453832  14.903   9.243   5.432
 4176POPC   GL153833  15.163   9.062   5.758
 4176POPC   GL253834  15.446   8.806   5.735
 4176POPC   C1A53835  15.122   8.862   6.167
 4176POPC   D2A53836  15.209   9.019   6.579
 4176POPC   C3A53837  15.045   8.892   6.964
 4176POPC   C4A53838  15.311   9.071   7.252
 4176POPC   C1B53839  15.527   8.535   6.095
 4176POPC   C2B53840  15.422   8.540   6.515
 4176POPC   C3B53841  15.515   8.686   6.923
 4176POPC   C4B53842  15.329   8.558   7.307
 4177POPC   NC353843  42.378  26.453   5.439
 4177POPC   PO453844  42.531  27.051   5.653
 4177POPC   GL153845  42.173  26.921   5.867
 4177POPC   GL253846  42.031  26.568   5.837
 4177POPC   C1A53847  42.113  26.947   6.300
 4177POPC   D2A53848  42.197  26.743   6.674
 4177POPC   C3A53849  42.479  26.921   7.010
 4177POPC   C4A53850  42.348  27.179   7.359
 4177POPC   C1B53851  42.286  26.449   6.196
 4177POPC   C2B53852  42.354  26.226   6.585
 4177POPC   C3B53853  42.246  26.332   6.980
 4177POPC   C4B53854  42.014  26.716   7.155
 4178POPC   NC353855  30.325  12.020   5.007
 4178POPC   PO453856  30.719  12.188   5.516
 4178POPC   GL153857  30.842  11.902   5.845
 4178POPC   GL253858  31.090  12.130   5.896
 4178POPC   C1A53859  30.682  11.922   6.272
 4178POPC   D2A53860  30.418  12.206   6.512
 4178POPC   C3A53861  30.551  12.188   6.929
 4178POPC   C4A53862  30.643  12.046   7.348
 4178POPC   C1B53863  30.862  12.391   6.201
 4178POPC   C2B53864  30.967  12.238   6.601
 4178POPC   C3B53865  31.043  12.032   6.981
 4178POPC   C4B53866  31.094  12.260   7.338
 4179POPC   NC353867  22.596   3.330   5.470
 4179POPC   PO453868  21.954   3.676   5.518
 4179POPC   GL153869  22.197   3.779   5.887
 4179POPC   GL253870  22.586   3.721   5.821
 4179POPC   C1A53871  22.001   3.745   6.313
 4179POPC   D2A53872  21.818   3.342   6.500
 4179POPC   C3A53873  21.884   3.225   6.939
 4179POPC   C4A53874  21.897   3.369   7.369
 4179POPC   C1B53875  22.531   3.795   6.271
 4179POPC   C2B53876  22.388   3.563   6.649
 4179POPC   C3B53877  22.315   3.511   7.101
 4179POPC   C4B53878  22.247   3.681   7.528
 4180POPC   NC353879   4.131  39.651   5.588
 4180POPC   PO453880   3.580  40.069   5.399
 4180POPC   GL153881   3.661  39.831   5.813
 4180POPC   GL253882   3.991  39.982   5.957
 4180POPC   C1A53883   3.470  39.919   6.243
 4180POPC   D2A53884   3.365  40.231   6.576
 4180POPC   C3A53885   3.322  40.053   6.975
 4180POPC   C4A53886   3.603  39.771   7.156
 4180POPC   C1B53887   3.926  40.110   6.394
 4180POPC   C2B53888   3.824  40.128   6.817
 4180POPC   C3B53889   4.066  40.007   7.158
 4180POPC   C4B53890   3.940  39.858   7.580
 4181POPC   NC353891   7.508  29.841   5.113
 4181POPC   PO453892   7.321  30.405   5.414
 4181POPC   GL153893   7.390  30.071   5.695
 4181POPC   GL253894   7.674  30.264   5.786
 4181POPC   C1A53895   7.519  29.909   6.147
 4181POPC   D2A53896   7.601  29.759   6.588
 4181POPC   C3A53897   7.417  29.825   6.993
 4181POPC   C4A53898   7.509  29.684   7.414
 4181POPC   C1B53899   7.631  30.413   6.190
 4181POPC   C2B53900   7.790  30.296   6.604
 4181POPC   C3B53901   7.587  30.326   6.995
 4181POPC   C4B53902   7.692  30.251   7.429
 4182POPC   NC353903   3.474  17.897   5.305
 4182POPC   PO453904   3.552  18.499   5.503
 4182POPC   GL153905   3.599  18.248   5.850
 4182POPC   GL253906   3.349  17.976   5.828
 4182POPC   C1A53907   3.505  18.403   6.275
 4182POPC   D2A53908   3.735  18.351   6.649
 4182POPC   C3A53909   3.512  18.423   7.022
 4182POPC   C4A53910   3.645  18.386   7.455
 4182POPC   C1B53911   3.524  17.900   6.249
 4182POPC   C2B53912   3.422  17.930   6.702
 4182POPC   C3B53913   3.306  17.960   7.138
 4182POPC   C4B53914   3.287  18.049   7.597
 4183POPC   NC353915  30.637  35.595   5.416
 4183POPC   PO453916  30.970  35.016   5.461
 4183POPC   GL153917  30.662  35.188   5.751
 4183POPC   GL253918  30.849  35.483   5.866
 4183POPC   C1A53919  30.454  35.309   6.147
 4183POPC   D2A53920  30.386  35.441   6.575
 4183POPC   C3A53921  30.483  35.189   6.965
 4183POPC   C4A53922  30.616  35.291   7.384
 4183POPC   C1B53923  30.974  35.201   6.177
 4183POPC   C2B53924  30.863  35.177   6.614
 4183POPC   C3B53925  31.012  35.136   7.058
 4183POPC   C4B53926  31.134  35.457   7.373
 4184POPC   NC353927  37.177  24.548   5.504
 4184POPC   PO453928  36.593  24.267   5.290
 4184POPC   GL153929  36.643  24.373   5.752
 4184POPC   GL253930  36.782  24.694   5.905
 4184POPC   C1A53931  36.700  24.293   6.222
 4184POPC   D2A53932  36.934  24.472   6.581
 4184POPC   C3A53933  36.697  24.502   6.963
 4184POPC   C4A53934  36.827  24.464   7.383
 4184POPC   C1B53935  37.145  24.739   6.186
 4184POPC   C2B53936  37.225  24.910   6.623
 4184POPC   C3B53937  37.137  24.735   7.031
 4184POPC   C4B53938  37.339  24.474   7.347
 4185POPC   NC353939   0.600   5.088   5.342
 4185POPC   PO453940   0.726   5.745   5.253
 4185POPC   GL153941   0.733   5.447   5.700
 4185POPC   GL253942   0.433   5.208   5.812
 4185POPC   C1A53943   0.852   5.059   6.015
 4185POPC   D2A53944   0.874   5.043   6.473
 4185POPC   C3A53945   0.678   5.055   6.873
 4185POPC   C4A53946   0.781   5.086   7.275
 4185POPC   C1B53947   0.533   5.367   6.232
 4185POPC   C2B53948   0.383   5.366   6.602
 4185POPC   C3B53949   0.470   5.552   6.969
 4185POPC   C4B53950   0.367   5.405   7.376
 4186POPC   NC353951   7.001  38.888   5.535
 4186POPC   PO453952   7.526  39.279   5.480
 4186POPC   GL153953   7.445  39.381   5.903
 4186POPC   GL253954   7.191  39.105   5.958
 4186POPC   C1A53955   7.386  39.332   6.365
 4186POPC   D2A53956   7.194  39.375   6.757
 4186POPC   C3A53957   7.472  39.267   7.052
 4186POPC   C4A53958   7.662  39.624   7.211
 4186POPC   C1B53959   6.948  39.062   6.384
 4186POPC   C2B53960   6.914  38.985   6.868
 4186POPC   C3B53961   7.018  39.176   7.271
 4186POPC   C4B53962   7.020  39.018   7.719
 4187POPC   NC353963  12.742  35.465   5.373
 4187POPC   PO453964  13.309  35.142   5.263
 4187POPC   GL153965  13.056  35.292   5.761
 4187POPC   GL253966  12.818  35.595   5.872
 4187POPC   C1A53967  12.867  35.179   6.202
 4187POPC   D2A53968  12.803  34.970   6.626
 4187POPC   C3A53969  12.871  35.184   7.027
 4187POPC   C4A53970  13.035  35.589   7.151
 4187POPC   C1B53971  12.438  35.477   6.095
 4187POPC   C2B53972  12.398  35.532   6.526
 4187POPC   C3B53973  12.603  35.626   6.892
 4187POPC   C4B53974  12.471  35.428   7.267
 4188POPC   NC353975  42.972   0.360   5.474
 4188POPC   PO453976  43.666   0.359   5.631
 4188POPC   GL153977  43.548   0.566   5.958
 4188POPC   GL253978  43.230   0.617   5.870
 4188POPC   C1A53979  43.374   0.436   6.347
 4188POPC   D2A53980  43.148   0.185   6.642
 4188POPC   C3A53981  43.070   0.340   7.043
 4188POPC   C4A53982  43.289   0.358   7.437
 4188POPC   C1B53983  42.944   0.753   6.176
 4188POPC   C2B53984  42.977   0.681   6.601
 4188POPC   C3B53985  42.850   0.833   6.971
 4188POPC   C4B53986  42.858   0.677   7.381
 4189POPC   NC353987   1.111  20.633   5.479
 4189POPC   PO453988   1.507  21.246   5.426
 4189POPC   GL153989   1.319  20.975   5.791
 4189POPC   GL253990   1.476  20.700   5.887
 4189POPC   C1A53991   1.086  20.781   6.180
 4189POPC   D2A53992   0.791  20.626   6.492
 4189POPC   C3A53993   0.861  20.738   6.903
 4189POPC   C4A53994   0.820  20.759   7.345
 4189POPC   C1B53995   1.548  20.499   6.280
 4189POPC   C2B53996   1.302  20.511   6.660
 4189POPC   C3B53997   1.301  20.584   7.106
 4189POPC   C4B53998   1.420  20.293   7.409
 4190POPC   NC353999   8.534  41.439   5.511
 4190POPC   PO454000   8.892  41.966   5.420
 4190POPC   GL154001   8.913  41.711   5.768
 4190POPC   GL254002   9.263  41.724   5.874
 4190POPC   C1A54003   8.884  41.519   6.187
 4190POPC   D2A54004   8.580  41.461   6.519
 4190POPC   C3A54005   8.720  41.224   6.894
 4190POPC   C4A54006   8.923  41.419   7.247
 4190POPC   C1B54007   9.077  42.000   6.168
 4190POPC   C2B54008   8.813  41.933   6.528
 4190POPC   C3B54009   8.962  41.823   6.922
 4190POPC   C4B54010   9.176  41.965   7.299
 4191POPC   NC354011   0.719  37.734   5.482
 4191POPC   PO454012   0.108  38.084   5.489
 4191POPC   GL154013   0.364  37.944   5.847
 4191POPC   GL254014   0.498  37.615   5.916
 4191POPC   C1A54015   0.521  37.939   6.289
 4191POPC   D2A54016   0.631  37.720   6.687
 4191POPC   C3A54017   0.438  37.964   7.013
 4191POPC   C4A54018   0.331  37.883   7.430
 4191POPC   C1B54019   0.476  37.404   6.296
 4191POPC   C2B54020   0.216  37.331   6.655
 4191POPC   C3B54021   0.337  37.453   7.072
 4191POPC   C4B54022   0.679  37.193   7.209
 4192POPC   NC354023  24.731   8.223   5.116
 4192POPC   PO454024  25.306   8.193   5.384
 4192POPC   GL154025  24.977   8.183   5.679
 4192POPC   GL254026  25.153   8.476   5.815
 4192POPC   C1A54027  24.992   8.082   6.118
 4192POPC   D2A54028  25.237   8.135   6.493
 4192POPC   C3A54029  25.029   8.091   6.862
 4192POPC   C4A54030  25.204   8.088   7.250
 4192POPC   C1B54031  25.477   8.376   6.100
 4192POPC   C2B54032  25.474   8.584   6.496
 4192POPC   C3B54033  25.473   8.452   6.943
 4192POPC   C4B54034  25.561   8.414   7.392
 4193POPC   NC354035  11.588  39.892   5.403
 4193POPC   PO454036  11.445  40.510   5.262
 4193POPC   GL154037  11.366  40.306   5.701
 4193POPC   GL254038  11.601  40.051   5.871
 4193POPC   C1A54039  11.151  40.139   6.098
 4193POPC   D2A54040  11.195  40.252   6.536
 4193POPC   C3A54041  11.066  39.987   6.876
 4193POPC   C4A54042  11.141  39.796   7.265
 4193POPC   C1B54043  11.652  40.190   6.276
 4193POPC   C2B54044  11.636  39.964   6.664
 4193POPC   C3B54045  11.572  40.018   7.085
 4193POPC   C4B54046  11.642  39.739   7.374
 4194POPC   NC354047  36.483  27.879   5.393
 4194POPC   PO454048  36.013  27.374   5.490
 4194POPC   GL154049  36.143  27.676   5.804
 4194POPC   GL254050  35.847  27.814   5.951
 4194POPC   C1A54051  36.267  27.576   6.238
 4194POPC   D2A54052  36.440  27.232   6.516
 4194POPC   C3A54053  36.412  27.400   6.931
 4194POPC   C4A54054  36.153  27.765   6.982
 4194POPC   C1B54055  35.754  27.485   6.279
 4194POPC   C2B54056  35.952  27.398   6.678
 4194POPC   C3B54057  35.931  27.312   7.126
 4194POPC   C4B54058  35.764  27.454   7.509
 4195POPC   NC354059   1.765  36.630   5.404
 4195POPC   PO454060   2.002  37.306   5.382
 4195POPC   GL154061   1.879  37.087   5.761
 4195POPC   GL254062   2.077  36.796   5.811
 4195POPC   C1A54063   2.004  37.106   6.213
 4195POPC   D2A54064   2.165  36.868   6.580
 4195POPC   C3A54065   1.936  36.964   6.972
 4195POPC   C4A54066   1.912  37.209   7.358
 4195POPC   C1B54067   1.923  36.599   6.200
 4195POPC   C2B54068   2.010  36.364   6.580
 4195POPC   C3B54069   2.147  36.487   6.967
 4195POPC   C4B54070   1.857  36.521   7.301
 4196POPC   NC354071  44.079   0.139   5.606
 4196POPC   PO454072  43.880  44.463   5.471
 4196POPC   GL154073  43.811  44.690   5.800
 4196POPC   GL254074  44.115  44.771   5.954
 4196POPC   C1A54075  43.697  44.654   6.221
 4196POPC   D2A54076  43.864  44.854   6.575
 4196POPC   C3A54077  43.642  44.788   6.937
 4196POPC   C4A54078  43.832  44.529   7.227
 4196POPC   C1B54079  44.213  44.550   6.339
 4196POPC   C2B54080  44.350  44.608   6.763
 4196POPC   C3B54081  44.335  44.534   7.200
 4196POPC   C4B54082  44.155  44.769   7.530
 4197POPC   NC354083  27.896  26.362   5.428
 4197POPC   PO454084  27.628  25.718   5.259
 4197POPC   GL154085  27.554  26.015   5.655
 4197POPC   GL254086  27.235  26.150   5.783
 4197POPC   C1A54087  27.557  25.936   6.126
 4197POPC   D2A54088  27.910  25.919   6.441
 4197POPC   C3A54089  27.787  25.962   6.874
 4197POPC   C4A54090  27.790  25.816   7.311
 4197POPC   C1B54091  27.253  26.372   6.192
 4197POPC   C2B54092  27.411  26.190   6.579
 4197POPC   C3B54093  27.477  26.333   6.989
 4197POPC   C4B54094  27.624  26.390   7.391
 4198POPC   NC354095  25.172   7.746   5.448
 4198POPC   PO454096  25.253   7.145   5.314
 4198POPC   GL154097  25.229   7.235   5.797
 4198POPC   GL254098  25.129   7.576   5.928
 4198POPC   C1A54099  25.407   7.262   6.257
 4198POPC   D2A54100  25.409   7.255   6.736
 4198POPC   C3A54101  25.057   7.273   7.044
 4198POPC   C4A54102  24.929   7.247   7.497
 4198POPC   C1B54103  25.459   7.810   6.145
 4198POPC   C2B54104  25.564   7.718   6.583
 4198POPC   C3B54105  25.386   7.698   6.995
 4198POPC   C4B54106  25.378   7.492   7.398
 4199POPC   NC354107  29.908  41.933   5.542
 4199POPC   PO454108  30.190  42.567   5.539
 4199POPC   GL154109  30.044  42.311   5.865
 4199POPC   GL254110  29.714  42.331   5.904
 4199POPC   C1A54111  29.949  42.149   6.305
 4199POPC   D2A54112  30.046  41.957   6.688
 4199POPC   C3A54113  29.852  42.050   7.061
 4199POPC   C4A54114  29.960  42.375   7.333
 4199POPC   C1B54115  29.478  42.365   6.277
 4199POPC   C2B54116  29.493  42.300   6.711
 4199POPC   C3B54117  29.632  42.593   6.987
 4199POPC   C4B54118  29.549  42.691   7.377
 4200POPC   NC354119  43.425  30.074   5.571
 4200POPC   PO454120  44.067  30.141   5.534
 4200POPC   GL154121  43.894  29.835   5.800
 4200POPC   GL254122  43.588  29.611   5.711
 4200POPC   C1A54123  43.947  29.917   6.226
 4200POPC   D2A54124  44.062  29.760   6.591
 4200POPC   C3A54125  43.961  30.005   6.924
 4200POPC   C4A54126  44.121  30.095   7.315
 4200POPC   C1B54127  43.650  29.513   6.140
 4200POPC   C2B54128  43.547  29.649   6.576
 4200POPC   C3B54129  43.782  29.499   6.933
 4200POPC   C4B54130  43.873  29.647   7.329
 4201POPC   NC354131  15.302  24.522   5.335
 4201POPC   PO454132  14.831  24.629   5.796
 4201POPC   GL154133  15.264  24.553   5.889
 4201POPC   GL254134  15.472  24.281   5.768
 4201POPC   C1A54135  15.538  24.668   6.248
 4201POPC   D2A54136  15.526  24.797   6.702
 4201POPC   C3A54137  15.111  24.695   6.923
 4201POPC   C4A54138  14.939  25.009   7.204
 4201POPC   C1B54139  15.398  24.167   6.223
 4201POPC   C2B54140  15.444  24.291   6.669
 4201POPC   C3B54141  15.456  24.338   7.124
 4201POPC   C4B54142  15.495  24.144   7.531
 4202POPC   NC354143  27.971   6.026   5.407
 4202POPC   PO454144  28.528   5.625   5.420
 4202POPC   GL154145  28.201   5.711   5.736
 4202POPC   GL254146  28.364   6.009   5.765
 4202POPC   C1A54147  28.072   5.800   6.170
 4202POPC   D2A54148  27.851   5.793   6.591
 4202POPC   C3A54149  28.081   5.810   6.981
 4202POPC   C4A54150  28.450   5.794   7.265
 4202POPC   C1B54151  28.577   5.756   6.121
 4202POPC   C2B54152  28.434   5.732   6.579
 4202POPC   C3B54153  28.450   6.126   6.863
 4202POPC   C4B54154  28.638   6.297   7.223
 4203POPC   NC354155  34.514  29.961   5.302
 4203POPC   PO454156  34.209  29.403   5.624
 4203POPC   GL154157  34.596  29.612   5.791
 4203POPC   GL254158  34.682  29.965   5.830
 4203POPC   C1A54159  34.568  29.648   6.245
 4203POPC   D2A54160  34.532  29.926   6.580
 4203POPC   C3A54161  34.555  29.808   6.980
 4203POPC   C4A54162  34.795  30.082   7.194
 4203POPC   C1B54163  34.330  30.108   6.123
 4203POPC   C2B54164  34.196  30.311   6.519
 4203POPC   C3B54165  34.215  30.229   6.984
 4203POPC   C4B54166  34.356  30.089   7.419
 4204POPC   NC354167  32.816   4.301   5.381
 4204POPC   PO454168  33.384   4.595   5.422
 4204POPC   GL154169  33.118   4.478   5.783
 4204POPC   GL254170  33.035   4.133   5.821
 4204POPC   C1A54171  32.968   4.526   6.221
 4204POPC   D2A54172  33.190   4.447   6.631
 4204POPC   C3A54173  32.937   4.372   6.974
 4204POPC   C4A54174  32.827   4.543   7.382
 4204POPC   C1B54175  32.822   4.031   6.212
 4204POPC   C2B54176  32.944   3.958   6.651
 4204POPC   C3B54177  32.844   3.896   7.099
 4204POPC   C4B54178  32.959   4.041   7.533
 4205POPC   NC354179  17.860  12.165   5.432
 4205POPC   PO454180  17.192  12.331   5.334
 4205POPC   GL154181  17.350  12.361   5.787
 4205POPC   GL254182  17.571  12.083   5.901
 4205POPC   C1A54183  17.242  12.212   6.239
 4205POPC   D2A54184  17.429  12.238   6.619
 4205POPC   C3A54185  17.170  12.201   6.975
 4205POPC   C4A54186  17.202  12.289   7.427
 4205POPC   C1B54187  17.695  11.840   6.315
 4205POPC   C2B54188  17.664  11.828   6.811
 4205POPC   C3B54189  17.512  11.877   7.262
 4205POPC   C4B54190  17.718  11.683   7.641
 4206POPC   NC354191  13.911  37.354   5.343
 4206POPC   PO454192  13.411  37.782   5.520
 4206POPC   GL154193  13.690  37.795   5.869
 4206POPC   GL254194  14.017  37.631   5.779
 4206POPC   C1A54195  13.899  37.841   6.290
 4206POPC   D2A54196  13.995  37.812   6.767
 4206POPC   C3A54197  13.722  37.991   7.088
 4206POPC   C4A54198  13.390  37.754   7.246
 4206POPC   C1B54199  13.832  37.338   6.090
 4206POPC   C2B54200  13.720  37.393   6.515
 4206POPC   C3B54201  13.853  37.272   6.908
 4206POPC   C4B54202  13.871  37.518   7.233
 4207POPC   NC354203   9.346  23.358   5.602
 4207POPC   PO454204   8.841  23.706   5.288
 4207POPC   GL154205   8.931  23.741   5.747
 4207POPC   GL254206   8.754  23.432   5.802
 4207POPC   C1A54207   9.168  23.795   6.157
 4207POPC   D2A54208   9.203  24.041   6.508
 4207POPC   C3A54209   9.232  23.934   6.909
 4207POPC   C4A54210   9.070  23.763   7.280
 4207POPC   C1B54211   8.954  23.355   6.208
 4207POPC   C2B54212   9.128  23.505   6.604
 4207POPC   C3B54213   9.016  23.344   7.000
 4207POPC   C4B54214   8.768  23.348   7.357
 4208POPC   NC354215  19.283  23.196   5.461
 4208POPC   PO454216  18.897  22.706   5.253
 4208POPC   GL154217  18.955  22.869   5.686
 4208POPC   GL254218  18.774  23.155   5.801
 4208POPC   C1A54219  19.242  22.815   6.080
 4208POPC   D2A54220  19.080  22.922   6.504
 4208POPC   C3A54221  19.183  22.694   6.874
 4208POPC   C4A54222  19.209  22.737   7.289
 4208POPC   C1B54223  19.102  23.285   6.103
 4208POPC   C2B54224  19.427  23.289   6.401
 4208POPC   C3B54225  19.360  23.214   6.856
 4208POPC   C4B54226  19.259  23.257   7.294
 4209POPC   NC354227   3.154  38.125   5.341
 4209POPC   PO454228   3.544  37.509   5.426
 4209POPC   GL154229   3.553  37.697   5.812
 4209POPC   GL254230   3.429  38.015   5.785
 4209POPC   C1A54231   3.433  37.523   6.179
 4209POPC   D2A54232   3.259  37.284   6.477
 4209POPC   C3A54233   3.226  37.506   6.846
 4209POPC   C4A54234   3.441  37.494   7.227
 4209POPC   C1B54235   3.627  38.052   6.190
 4209POPC   C2B54236   3.622  37.795   6.561
 4209POPC   C3B54237   3.520  37.926   6.948
 4209POPC   C4B54238   3.550  38.067   7.349
 4210POPC   NC354239  24.753  17.244   5.413
 4210POPC   PO454240  24.473  17.854   5.557
 4210POPC   GL154241  24.376  17.450   5.828
 4210POPC   GL254242  24.103  17.147   5.927
 4210POPC   C1A54243  24.481  17.411   6.274
 4210POPC   D2A54244  24.800  17.273   6.588
 4210POPC   C3A54245  24.710  17.444   7.006
 4210POPC   C4A54246  24.383  17.753   7.145
 4210POPC   C1B54247  24.225  16.988   6.366
 4210POPC   C2B54248  24.301  17.206   6.765
 4210POPC   C3B54249  24.283  17.233   7.226
 4210POPC   C4B54250  24.178  17.284   7.714
 4211POPC   NC354251  44.456  15.381   5.520
 4211POPC   PO454252  44.976  15.019   5.371
 4211POPC   GL154253  44.701  14.958   5.729
 4211POPC   GL254254  44.749  15.261   5.921
 4211POPC   C1A54255  44.598  14.834   6.165
 4211POPC   D2A54256  44.656  15.108   6.518
 4211POPC   C3A54257  44.634  14.983   6.933
 4211POPC   C4A54258  44.838  15.045   7.326
 4211POPC   C1B54259  44.477  15.483   6.221
 4211POPC   C2B54260  44.313  15.493   6.668
 4211POPC   C3B54261  44.487  15.439   7.088
 4211POPC   C4B54262  44.816  15.552   7.338
 4212POPC   NC354263  26.926  26.464   5.512
 4212POPC   PO454264  26.639  27.102   5.362
 4212POPC   GL154265  26.735  26.874   5.753
 4212POPC   GL254266  26.525  26.546   5.806
 4212POPC   C1A54267  26.954  26.821   6.157
 4212POPC   D2A54268  26.819  26.797   6.592
 4212POPC   C3A54269  27.094  26.639   6.881
 4212POPC   C4A54270  27.294  26.754   7.274
 4212POPC   C1B54271  26.590  26.446   6.239
 4212POPC   C2B54272  26.436  26.476   6.668
 4212POPC   C3B54273  26.641  26.544   7.062
 4212POPC   C4B54274  26.816  26.922   7.246
 4213POPC   NC354275  27.282  34.033   5.539
 4213POPC   PO454276  27.183  33.470   5.169
 4213POPC   GL154277  27.019  33.578   5.636
 4213POPC   GL254278  27.235  33.725   5.937
 4213POPC   C1A54279  26.748  33.592   6.058
 4213POPC   D2A54280  26.732  33.826   6.465
 4213POPC   C3A54281  26.582  33.709   6.871
 4213POPC   C4A54282  26.663  33.817   7.315
 4213POPC   C1B54283  27.087  34.077   6.191
 4213POPC   C2B54284  27.096  34.153   6.631
 4213POPC   C3B54285  27.058  33.897   7.026
 4213POPC   C4B54286  27.180  33.962   7.450
 4214POPC   NC354287  13.129   4.856   5.569
 4214POPC   PO454288  12.797   4.216   5.424
 4214POPC   GL154289  12.849   4.308   5.864
 4214POPC   GL254290  12.641   4.618   5.955
 4214POPC   C1A54291  12.856   4.182   6.313
 4214POPC   D2A54292  12.661   4.417   6.619
 4214POPC   C3A54293  12.760   4.315   7.041
 4214POPC   C4A54294  12.939   4.056   7.366
 4214POPC   C1B54295  12.996   4.650   6.223
 4214POPC   C2B54296  13.201   4.442   6.604
 4214POPC   C3B54297  13.177   4.609   7.028
 4214POPC   C4B54298  12.925   4.627   7.422
 4215POPC   NC354299   0.701  44.188   5.512
 4215POPC   PO454300   1.071  43.619   5.582
 4215POPC   GL154301   1.046  43.950   5.885
 4215POPC   GL254302   0.828  44.162   6.011
 4215POPC   C1A54303   1.293  44.115   6.235
 4215POPC   D2A54304   1.435  43.853   6.569
 4215POPC   C3A54305   1.404  44.000   6.961
 4215POPC   C4A54306   1.495  43.768   7.305
 4215POPC   C1B54307   0.882  43.822   6.339
 4215POPC   C2B54308   0.932  43.905   6.749
 4215POPC   C3B54309   0.956  43.780   7.144
 4215POPC   C4B54310   1.079  44.095   7.361
 4216POPC   NC354311  28.233   4.548   5.594
 4216POPC   PO454312  28.638   4.061   5.427
 4216POPC   GL154313  28.503   4.206   5.856
 4216POPC   GL254314  28.693   4.525   5.854
 4216POPC   C1A54315  28.331   4.352   6.293
 4216POPC   D2A54316  27.974   4.415   6.632
 4216POPC   C3A54317  28.157   4.382   7.063
 4216POPC   C4A54318  28.502   4.031   7.143
 4216POPC   C1B54319  28.983   4.665   6.170
 4216POPC   C2B54320  28.839   4.641   6.562
 4216POPC   C3B54321  28.584   4.381   6.772
 4216POPC   C4B54322  28.648   4.509   7.196
 4217POPC   NC354323  33.167   9.179   5.592
 4217POPC   PO454324  32.602   8.837   5.324
 4217POPC   GL154325  32.917   8.751   5.697
 4217POPC   GL254326  33.309   8.693   5.681
 4217POPC   C1A54327  32.900   8.889   6.165
 4217POPC   D2A54328  32.694   8.950   6.585
 4217POPC   C3A54329  32.945   9.048   6.951
 4217POPC   C4A54330  32.986   8.957   7.399
 4217POPC   C1B54331  33.388   8.760   6.136
 4217POPC   C2B54332  33.175   8.706   6.571
 4217POPC   C3B54333  33.175   8.601   7.024
 4217POPC   C4B54334  33.419   8.713   7.391
 4218POPC   NC354335  29.515  16.159   5.526
 4218POPC   PO454336  29.020  15.774   5.236
 4218POPC   GL154337  28.968  15.915   5.712
 4218POPC   GL254338  29.259  15.789   5.796
 4218POPC   C1A54339  28.872  15.913   6.199
 4218POPC   D2A54340  28.751  15.826   6.666
 4218POPC   C3A54341  28.931  15.911   7.084
 4218POPC   C4A54342  28.856  16.240   7.394
 4218POPC   C1B54343  29.298  15.636   6.201
 4218POPC   C2B54344  29.255  15.842   6.588
 4218POPC   C3B54345  29.458  15.860   6.974
 4218POPC   C4B54346  29.549  15.915   7.420
 4219POPC   NC354347   2.161  26.570   5.554
 4219POPC   PO454348   1.745  27.093   5.328
 4219POPC   GL154349   1.953  27.018   5.735
 4219POPC   GL254350   2.313  27.048   5.734
 4219POPC   C1A54351   1.920  26.917   6.213
 4219POPC   D2A54352   2.119  27.029   6.655
 4219POPC   C3A54353   1.866  26.959   7.047
 4219POPC   C4A54354   1.627  26.554   7.137
 4219POPC   C1B54355   2.405  27.057   6.196
 4219POPC   C2B54356   2.474  26.700   6.535
 4219POPC   C3B54357   2.254  26.608   6.952
 4219POPC   C4B54358   2.318  26.843   7.370
 4220POPC   NC354359  37.123  27.118   5.504
 4220POPC   PO454360  37.729  27.141   5.187
 4220POPC   GL154361  37.729  26.828   5.686
 4220POPC   GL254362  37.369  26.798   5.832
 4220POPC   C1A54363  37.836  26.739   6.115
 4220POPC   D2A54364  37.888  26.981   6.496
 4220POPC   C3A54365  37.855  26.801   6.901
 4220POPC   C4A54366  37.569  26.886   7.219
 4220POPC   C1B54367  37.365  26.552   6.248
 4220POPC   C2B54368  37.409  26.530   6.715
 4220POPC   C3B54369  37.246  26.515   7.147
 4220POPC   C4B54370  37.546  26.465   7.536
 4221POPC   NC354371  26.151  15.886   5.374
 4221POPC   PO454372  25.714  16.447   5.502
 4221POPC   GL154373  25.897  16.081   5.788
 4221POPC   GL254374  26.097  15.717   5.831
 4221POPC   C1A54375  25.951  16.160   6.230
 4221POPC   D2A54376  26.114  16.022   6.607
 4221POPC   C3A54377  25.862  15.969   6.938
 4221POPC   C4A54378  26.087  16.023   7.327
 4221POPC   C1B54379  25.969  15.657   6.236
 4221POPC   C2B54380  26.057  15.506   6.626
 4221POPC   C3B54381  26.174  15.578   7.015
 4221POPC   C4B54382  26.279  15.535   7.398
 4222POPC   NC354383  12.941   6.195   5.333
 4222POPC   PO454384  12.744   5.505   5.361
 4222POPC   GL154385  12.743   5.878   5.679
 4222POPC   GL254386  13.060   5.940   5.825
 4222POPC   C1A54387  12.617   5.904   6.148
 4222POPC   D2A54388  12.671   5.754   6.569
 4222POPC   C3A54389  12.758   6.031   6.948
 4222POPC   C4A54390  12.821   5.936   7.350
 4222POPC   C1B54391  13.081   6.075   6.265
 4222POPC   C2B54392  13.168   5.878   6.679
 4222POPC   C3B54393  13.292   6.019   7.088
 4222POPC   C4B54394  13.159   6.312   7.408
 4223POPC   NC354395  32.243  19.321   5.329
 4223POPC   PO454396  32.388  18.721   5.363
 4223POPC   GL154397  32.141  18.930   5.695
 4223POPC   GL254398  32.025  19.293   5.775
 4223POPC   C1A54399  32.139  18.927   6.145
 4223POPC   D2A54400  32.384  19.087   6.493
 4223POPC   C3A54401  32.251  19.130   6.914
 4223POPC   C4A54402  32.473  18.971   7.236
 4223POPC   C1B54403  32.293  19.437   6.133
 4223POPC   C2B54404  32.362  19.586   6.599
 4223POPC   C3B54405  32.483  19.599   7.052
 4223POPC   C4B54406  32.640  19.407   7.439
 4224POPC   NC354407   1.296   7.410   5.428
 4224POPC   PO454408   1.873   7.719   5.579
 4224POPC   GL154409   1.455   7.674   5.824
 4224POPC   GL254410   1.052   7.610   5.859
 4224POPC   C1A54411   1.359   7.339   6.140
 4224POPC   D2A54412   1.060   7.253   6.471
 4224POPC   C3A54413   1.203   7.286   6.908
 4224POPC   C4A54414   1.439   7.367   7.306
 4224POPC   C1B54415   0.894   7.699   6.291
 4224POPC   C2B54416   0.840   7.638   6.765
 4224POPC   C3B54417   0.945   7.580   7.222
 4224POPC   C4B54418   1.002   7.529   7.703
 4225POPC   NC354419  31.299   3.625   5.526
 4225POPC   PO454420  31.571   3.100   5.746
 4225POPC   GL154421  31.594   3.522   5.919
 4225POPC   GL254422  31.232   3.623   6.029
 4225POPC   C1A54423  31.795   3.664   6.261
 4225POPC   D2A54424  31.813   3.420   6.635
 4225POPC   C3A54425  31.712   3.549   7.067
 4225POPC   C4A54426  31.360   3.441   7.336
 4225POPC   C1B54427  31.363   3.969   6.286
 4225POPC   C2B54428  31.302   4.027   6.701
 4225POPC   C3B54429  31.339   3.935   7.127
 4225POPC   C4B54430  31.659   4.017   7.442
 4226POPC   NC354431  15.570   2.831   5.470
 4226POPC   PO454432  15.048   2.365   5.524
 4226POPC   GL154433  14.993   2.598   5.872
 4226POPC   GL254434  15.324   2.732   5.937
 4226POPC   C1A54435  14.970   2.781   6.294
 4226POPC   D2A54436  15.256   2.782   6.637
 4226POPC   C3A54437  15.074   2.727   7.038
 4226POPC   C4A54438  14.774   2.967   7.210
 4226POPC   C1B54439  15.620   2.771   6.271
 4226POPC   C2B54440  15.744   2.951   6.684
 4226POPC   C3B54441  15.471   3.073   7.037
 4226POPC   C4B54442  15.518   3.254   7.450
 4227POPC   NC354443  33.999  43.435   5.581
 4227POPC   PO454444  33.317  43.167   5.463
 4227POPC   GL154445  33.608  43.133   5.762
 4227POPC   GL254446  33.568  43.472   5.856
 4227POPC   C1A54447  33.858  42.991   6.125
 4227POPC   D2A54448  34.134  43.166   6.427
 4227POPC   C3A54449  33.978  43.152   6.817
 4227POPC   C4A54450  33.852  42.833   7.073
 4227POPC   C1B54451  33.759  43.485   6.254
 4227POPC   C2B54452  33.550  43.465   6.651
 4227POPC   C3B54453  33.699  43.512   7.059
 4227POPC   C4B54454  33.761  43.224   7.418
 4228POPC   NC354455   2.960  27.929   5.436
 4228POPC   PO454456   2.592  27.324   5.400
 4228POPC   GL154457   2.661  27.615   5.752
 4228POPC   GL254458   2.841  27.396   5.966
 4228POPC   C1A54459   2.636  27.832   6.177
 4228POPC   D2A54460   2.894  27.806   6.554
 4228POPC   C3A54461   2.760  27.820   6.986
 4228POPC   C4A54462   2.360  27.866   7.176
 4228POPC   C1B54463   3.103  27.370   6.336
 4228POPC   C2B54464   3.127  27.437   6.806
 4228POPC   C3B54465   2.871  27.316   7.185
 4228POPC   C4B54466   3.067  27.321   7.628
 4229POPC   NC354467   6.827  10.493   5.447
 4229POPC   PO454468   6.385  10.944   5.590
 4229POPC   GL154469   6.674  10.707   5.892
 4229POPC   GL254470   6.577  10.376   5.886
 4229POPC   C1A54471   6.833  10.629   6.319
 4229POPC   D2A54472   6.628  10.708   6.724
 4229POPC   C3A54473   6.761  10.514   7.101
 4229POPC   C4A54474   6.803  10.689   7.527
 4229POPC   C1B54475   6.459  10.256   6.283
 4229POPC   C2B54476   6.554  10.180   6.716
 4229POPC   C3B54477   6.309  10.257   7.092
 4229POPC   C4B54478   6.371  10.436   7.505
 4230POPC   NC354479   1.331   5.720   5.181
 4230POPC   PO454480   1.074   5.098   5.427
 4230POPC   GL154481   1.267   4.831   5.815
 4230POPC   GL254482   1.642   4.730   5.771
 4230POPC   C1A54483   1.309   4.980   6.232
 4230POPC   D2A54484   1.341   5.258   6.573
 4230POPC   C3A54485   1.196   4.989   6.864
 4230POPC   C4A54486   1.277   4.900   7.242
 4230POPC   C1B54487   1.519   4.511   6.158
 4230POPC   C2B54488   1.268   4.545   6.546
 4230POPC   C3B54489   1.444   4.523   6.941
 4230POPC   C4B54490   1.756   4.680   7.218
 4231POPC   NC354491  37.077  13.818   5.425
 4231POPC   PO454492  36.740  13.181   5.398
 4231POPC   GL154493  36.766  13.436   5.823
 4231POPC   GL254494  36.871  13.776   5.872
 4231POPC   C1A54495  37.005  13.427   6.243
 4231POPC   D2A54496  37.128  13.334   6.674
 4231POPC   C3A54497  36.869  13.508   7.018
 4231POPC   C4A54498  36.741  13.403   7.432
 4231POPC   C1B54499  37.099  13.960   6.197
 4231POPC   C2B54500  36.971  13.855   6.593
 4231POPC   C3B54501  36.887  14.032   6.982
 4231POPC   C4B54502  36.985  13.923   7.394
 4232POPC   NC354503  37.556  26.701   5.251
 4232POPC   PO454504  36.820  26.785   5.442
 4232POPC   GL154505  36.764  26.993   5.859
 4232POPC   GL254506  37.062  27.215   5.995
 4232POPC   C1A54507  36.688  26.824   6.281
 4232POPC   D2A54508  36.904  26.555   6.587
 4232POPC   C3A54509  36.692  26.463   6.957
 4232POPC   C4A54510  36.704  26.730   7.279
 4232POPC   C1B54511  37.418  27.115   6.273
 4232POPC   C2B54512  37.420  27.050   6.709
 4232POPC   C3B54513  37.070  26.964   6.941
 4232POPC   C4B54514  37.109  27.060   7.339
 4233POPC   NC354515  29.335  44.272   5.411
 4233POPC   PO454516  28.997  43.747   5.161
 4233POPC   GL154517  28.798  43.792   5.616
 4233POPC   GL254518  28.992  43.568   5.878
 4233POPC   C1A54519  28.823  44.028   6.049
 4233POPC   D2A54520  29.008  43.756   6.396
 4233POPC   C3A54521  29.084  43.685   6.845
 4233POPC   C4A54522  29.194  43.926   7.210
 4233POPC   C1B54523  29.428  43.548   6.136
 4233POPC   C2B54524  29.665  43.501   6.577
 4233POPC   C3B54525  29.550  43.579   7.023
 4233POPC   C4B54526  29.226  43.411   7.329
 4234POPC   NC354527  18.277  34.184   5.630
 4234POPC   PO454528  18.309  33.544   5.342
 4234POPC   GL154529  18.479  33.727   5.747
 4234POPC   GL254530  18.194  33.852   5.989
 4234POPC   C1A54531  18.638  33.708   6.162
 4234POPC   D2A54532  18.389  33.691   6.495
 4234POPC   C3A54533  18.535  33.808   6.884
 4234POPC   C4A54534  18.386  33.701   7.261
 4234POPC   C1B54535  18.287  34.182   6.299
 4234POPC   C2B54536  18.409  34.296   6.687
 4234POPC   C3B54537  18.151  34.171   6.978
 4234POPC   C4B54538  18.096  34.088   7.380
 4235POPC   NC354539  31.849  25.060   5.600
 4235POPC   PO454540  32.551  24.906   5.488
 4235POPC   GL154541  32.353  25.182   5.797
 4235POPC   GL254542  32.655  25.289   6.006
 4235POPC   C1A54543  32.173  25.271   6.214
 4235POPC   D2A54544  32.528  25.408   6.535
 4235POPC   C3A54545  32.439  25.323   6.971
 4235POPC   C4A54546  32.011  25.219   7.061
 4235POPC   C1B54547  32.527  24.919   6.251
 4235POPC   C2B54548  32.259  24.965   6.636
 4235POPC   C3B54549  32.423  24.816   7.028
 4235POPC   C4B54550  32.490  24.877   7.464
 4236POPC   NC354551   3.249  10.282   5.381
 4236POPC   PO454552   3.822  10.704   5.273
 4236POPC   GL154553   3.616  10.534   5.655
 4236POPC   GL254554   3.688  10.803   5.831
 4236POPC   C1A54555   3.383  10.442   6.078
 4236POPC   D2A54556   3.344  10.288   6.539
 4236POPC   C3A54557   3.291  10.480   6.980
 4236POPC   C4A54558   3.371  10.452   7.440
 4236POPC   C1B54559   3.853  10.579   6.224
 4236POPC   C2B54560   3.757  10.577   6.689
 4236POPC   C3B54561   3.782  10.504   7.133
 4236POPC   C4B54562   3.840  10.542   7.573
 4237POPC   NC354563  44.535   3.149   5.400
 4237POPC   PO454564   0.073   2.746   5.277
 4237POPC   GL154565  44.839   2.822   5.682
 4237POPC   GL254566  44.495   2.797   5.791
 4237POPC   C1A54567  44.868   2.729   6.161
 4237POPC   D2A54568  45.000   2.651   6.613
 4237POPC   C3A54569  44.818   2.904   6.911
 4237POPC   C4A54570  44.628   2.811   7.290
 4237POPC   C1B54571  44.343   2.490   6.107
 4237POPC   C2B54572  44.168   2.568   6.508
 4237POPC   C3B54573  44.261   2.645   6.943
 4237POPC   C4B54574  44.149   2.658   7.379
 4238POPC   NC354575  15.020   5.264   5.510
 4238POPC   PO454576  15.026   5.913   5.475
 4238POPC   GL154577  15.163   5.821   5.851
 4238POPC   GL254578  15.383   5.527   5.775
 4238POPC   C1A54579  14.960   5.645   6.221
 4238POPC   D2A54580  14.730   5.657   6.643
 4238POPC   C3A54581  14.941   5.954   6.968
 4238POPC   C4A54582  15.132   5.878   7.402
 4238POPC   C1B54583  15.478   5.651   6.199
 4238POPC   C2B54584  15.277   5.584   6.612
 4238POPC   C3B54585  15.195   5.511   7.048
 4238POPC   C4B54586  15.407   5.457   7.433
 4239POPC   NC354587  40.608  34.449   5.511
 4239POPC   PO454588  41.183  34.672   5.249
 4239POPC   GL154589  41.139  34.630   5.738
 4239POPC   GL254590  40.821  34.788   5.823
 4239POPC   C1A54591  41.031  34.489   6.188
 4239POPC   D2A54592  41.029  34.353   6.624
 4239POPC   C3A54593  41.142  34.589   6.979
 4239POPC   C4A54594  40.981  34.326   7.257
 4239POPC   C1B54595  40.619  34.764   6.213
 4239POPC   C2B54596  40.799  34.798   6.612
 4239POPC   C3B54597  40.658  34.688   6.997
 4239POPC   C4B54598  40.533  34.597   7.382
 4240POPC   NC354599   0.947  22.592   5.459
 4240POPC   PO454600   1.536  22.929   5.259
 4240POPC   GL154601   1.245  22.955   5.676
 4240POPC   GL254602   1.076  23.252   5.732
 4240POPC   C1A54603   1.193  22.740   6.129
 4240POPC   D2A54604   1.438  22.522   6.489
 4240POPC   C3A54605   1.359  22.688   6.925
 4240POPC   C4A54606   1.441  22.907   7.330
 4240POPC   C1B54607   1.122  23.257   6.171
 4240POPC   C2B54608   1.170  23.040   6.577
 4240POPC   C3B54609   1.078  23.175   7.004
 4240POPC   C4B54610   0.754  23.213   7.351
 4241POPC   NC354611  35.100   8.074   5.504
 4241POPC   PO454612  35.163   8.693   5.476
 4241POPC   GL154613  35.039   8.436   5.848
 4241POPC   GL254614  35.364   8.277   5.891
 4241POPC   C1A54615  35.051   8.334   6.288
 4241POPC   D2A54616  34.974   8.243   6.709
 4241POPC   C3A54617  35.309   8.125   6.994
 4241POPC   C4A54618  35.506   8.217   7.393
 4241POPC   C1B54619  35.306   7.893   6.146
 4241POPC   C2B54620  35.429   7.799   6.561
 4241POPC   C3B54621  35.597   7.698   6.960
 4241POPC   C4B54622  35.365   7.701   7.322
 4242POPC   NC354623  36.002  42.642   5.421
 4242POPC   PO454624  36.611  42.324   5.310
 4242POPC   GL154625  36.373  42.153   5.703
 4242POPC   GL254626  35.982  42.185   5.730
 4242POPC   C1A54627  36.276  42.129   6.159
 4242POPC   D2A54628  36.066  42.149   6.602
 4242POPC   C3A54629  36.314  42.199   6.997
 4242POPC   C4A54630  36.281  42.121   7.470
 4242POPC   C1B54631  35.834  42.383   6.156
 4242POPC   C2B54632  35.914  42.635   6.544
 4242POPC   C3B54633  35.803  42.507   6.976
 4242POPC   C4B54634  35.844  42.120   7.204
 4243POPC   NC354635  24.649   9.239   5.141
 4243POPC   PO454636  24.362   8.894   5.625
 4243POPC   GL154637  24.537   8.851   5.987
 4243POPC   GL254638  24.690   8.540   6.027
 4243POPC   C1A54639  24.552   8.941   6.406
 4243POPC   D2A54640  24.627   8.889   6.823
 4243POPC   C3A54641  24.527   9.091   7.171
 4243POPC   C4A54642  24.444   9.200   7.616
 4243POPC   C1B54643  25.000   8.626   6.304
 4243POPC   C2B54644  25.031   8.606   6.740
 4243POPC   C3B54645  24.824   8.511   7.122
 4243POPC   C4B54646  24.861   8.789   7.431
 4244POPC   NC354647  12.721   7.660   5.549
 4244POPC   PO454648  13.300   7.275   5.412
 4244POPC   GL154649  13.105   7.376   5.803
 4244POPC   GL254650  12.767   7.230   5.839
 4244POPC   C1A54651  12.923   7.528   6.222
 4244POPC   D2A54652  12.755   7.390   6.635
 4244POPC   C3A54653  12.819   7.559   7.057
 4244POPC   C4A54654  13.083   7.353   7.402
 4244POPC   C1B54655  12.634   7.016   6.221
 4244POPC   C2B54656  12.399   7.036   6.601
 4244POPC   C3B54657  12.550   7.036   6.985
 4244POPC   C4B54658  12.601   7.212   7.341
 4245POPC   NC354659   0.137  10.674   5.295
 4245POPC   PO454660   0.311  10.074   5.204
 4245POPC   GL154661   0.296  10.369   5.660
 4245POPC   GL254662   0.420  10.740   5.736
 4245POPC   C1A54663   0.244  10.459   6.118
 4245POPC   D2A54664   0.641  10.568   6.422
 4245POPC   C3A54665   0.553  10.524   6.902
 4245POPC   C4A54666   0.138  10.406   7.096
 4245POPC   C1B54667   0.337  10.946   6.158
 4245POPC   C2B54668   0.196  10.751   6.577
 4245POPC   C3B54669   0.226  10.912   7.004
 4245POPC   C4B54670   0.415  10.779   7.395
 4246POPC   NC354671  30.964  26.643   5.493
 4246POPC   PO454672  30.365  26.864   5.327
 4246POPC   GL154673  30.578  26.876   5.747
 4246POPC   GL254674  30.593  26.504   5.835
 4246POPC   C1A54675  30.575  27.068   6.154
 4246POPC   D2A54676  30.767  26.963   6.546
 4246POPC   C3A54677  30.657  26.963   6.978
 4246POPC   C4A54678  30.473  26.811   7.366
 4246POPC   C1B54679  30.848  26.599   6.202
 4246POPC   C2B54680  30.896  26.394   6.619
 4246POPC   C3B54681  30.970  26.431   7.076
 4246POPC   C4B54682  30.822  26.484   7.518
 4247POPC   NC354683   2.979  23.267   5.243
 4247POPC   PO454684   2.524  22.775   5.244
 4247POPC   GL154685   2.715  22.747   5.667
 4247POPC   GL254686   2.928  23.045   5.766
 4247POPC   C1A54687   2.516  22.864   6.077
 4247POPC   D2A54688   2.481  22.869   6.549
 4247POPC   C3A54689   2.673  23.036   6.948
 4247POPC   C4A54690   2.527  22.920   7.386
 4247POPC   C1B54691   2.979  22.996   6.235
 4247POPC   C2B54692   3.054  22.799   6.645
 4247POPC   C3B54693   3.233  23.015   7.000
 4247POPC   C4B54694   2.969  23.139   7.369
 4248POPC   NC354695  42.420  25.530   5.644
 4248POPC   PO454696  41.982  25.253   5.193
 4248POPC   GL154697  42.172  25.117   5.694
 4248POPC   GL254698  42.517  25.020   5.776
 4248POPC   C1A54699  42.195  25.213   6.181
 4248POPC   D2A54700  42.021  25.390   6.574
 4248POPC   C3A54701  42.335  25.310   6.901
 4248POPC   C4A54702  42.273  24.985   7.170
 4248POPC   C1B54703  42.623  24.922   6.252
 4248POPC   C2B54704  42.588  24.855   6.726
 4248POPC   C3B54705  42.798  25.028   7.090
 4248POPC   C4B54706  43.073  25.330   7.296
 4249POPC   NC354707  21.648  35.520   5.265
 4249POPC   PO454708  21.130  35.135   5.485
 4249POPC   GL154709  21.295  35.371   5.830
 4249POPC   GL254710  20.993  35.352   5.999
 4249POPC   C1A54711  21.404  35.399   6.273
 4249POPC   D2A54712  21.143  35.414   6.617
 4249POPC   C3A54713  21.413  35.454   6.922
 4249POPC   C4A54714  21.672  35.590   7.202
 4249POPC   C1B54715  20.997  35.045   6.307
 4249POPC   C2B54716  21.069  34.901   6.704
 4249POPC   C3B54717  21.203  35.051   7.114
 4249POPC   C4B54718  21.251  35.120   7.535
 4250POPC   NC354719  26.370   9.823   5.426
 4250POPC   PO454720  25.692   9.671   5.362
 4250POPC   GL154721  25.953   9.848   5.728
 4250POPC   GL254722  26.174   9.557   5.838
 4250POPC   C1A54723  26.160   9.993   6.123
 4250POPC   D2A54724  25.999   9.991   6.554
 4250POPC   C3A54725  26.288   9.980   6.881
 4250POPC   C4A54726  26.227  10.159   7.268
 4250POPC   C1B54727  25.891   9.541   6.213
 4250POPC   C2B54728  25.689   9.513   6.634
 4250POPC   C3B54729  25.680   9.429   7.081
 4250POPC   C4B54730  26.012   9.704   7.240
 4251POPC   NC354731  20.894  35.530   5.542
 4251POPC   PO454732  20.290  35.614   5.311
 4251POPC   GL154733  20.444  35.452   5.732
 4251POPC   GL254734  20.633  35.726   5.918
 4251POPC   C1A54735  20.540  35.152   6.066
 4251POPC   D2A54736  20.527  35.184   6.520
 4251POPC   C3A54737  20.756  35.233   6.910
 4251POPC   C4A54738  20.785  35.272   7.345
 4251POPC   C1B54739  20.681  35.632   6.322
 4251POPC   C2B54740  20.701  35.697   6.728
 4251POPC   C3B54741  20.546  35.675   7.142
 4251POPC   C4B54742  20.769  35.799   7.524
 4252POPC   NC354743  41.216  35.397   5.247
 4252POPC   PO454744  41.816  35.395   5.527
 4252POPC   GL154745  41.447  35.519   5.772
 4252POPC   GL254746  41.492  35.183   5.952
 4252POPC   C1A54747  41.313  35.604   6.221
 4252POPC   D2A54748  41.574  35.432   6.574
 4252POPC   C3A54749  41.548  35.553   7.011
 4252POPC   C4A54750  41.751  35.346   7.345
 4252POPC   C1B54751  41.233  34.958   6.255
 4252POPC   C2B54752  41.193  35.096   6.673
 4252POPC   C3B54753  41.115  35.100   7.088
 4252POPC   C4B54754  41.194  35.415   7.357
 4253POPC   NC354755  32.350  36.147   5.299
 4253POPC   PO454756  31.750  36.377   5.518
 4253POPC   GL154757  31.988  36.117   5.829
 4253POPC   GL254758  32.366  35.981   5.811
 4253POPC   C1A54759  32.086  35.991   6.277
 4253POPC   D2A54760  32.258  36.265   6.621
 4253POPC   C3A54761  32.132  36.202   7.047
 4253POPC   C4A54762  32.344  36.476   7.292
 4253POPC   C1B54763  32.560  36.161   6.206
 4253POPC   C2B54764  32.653  35.952   6.629
 4253POPC   C3B54765  32.630  36.019   7.084
 4253POPC   C4B54766  32.790  35.857   7.482
 4254POPC   NC354767  12.812  24.839   5.444
 4254POPC   PO454768  12.556  25.404   5.227
 4254POPC   GL154769  12.749  25.382   5.715
 4254POPC   GL254770  13.057  25.559   5.817
 4254POPC   C1A54771  12.650  25.334   6.188
 4254POPC   D2A54772  12.874  25.099   6.554
 4254POPC   C3A54773  12.726  25.143   6.987
 4254POPC   C4A54774  12.905  25.073   7.344
 4254POPC   C1B54775  13.158  25.300   6.161
 4254POPC   C2B54776  13.376  25.302   6.541
 4254POPC   C3B54777  13.245  25.185   6.924
 4254POPC   C4B54778  13.318  25.376   7.304
 4255POPC   NC354779  28.008  37.923   5.529
 4255POPC   PO454780  28.411  37.352   5.501
 4255POPC   GL154781  28.283  37.625   5.856
 4255POPC   GL254782  28.591  37.794   5.893
 4255POPC   C1A54783  28.129  37.613   6.319
 4255POPC   D2A54784  28.246  37.453   6.725
 4255POPC   C3A54785  27.976  37.528   7.038
 4255POPC   C4A54786  28.082  37.685   7.436
 4255POPC   C1B54787  28.648  37.557   6.300
 4255POPC   C2B54788  28.745  37.574   6.764
 4255POPC   C3B54789  28.503  37.737   7.139
 4255POPC   C4B54790  28.669  37.986   7.496
 4256POPC   NC354791   6.555   0.333   5.334
 4256POPC   PO454792   7.108   0.706   5.310
 4256POPC   GL154793   6.797   0.670   5.708
 4256POPC   GL254794   6.631   0.340   5.816
 4256POPC   C1A54795   6.525   0.724   6.123
 4256POPC   D2A54796   6.320   0.770   6.541
 4256POPC   C3A54797   6.540   0.613   6.899
 4256POPC   C4A54798   6.764   0.779   7.237
 4256POPC   C1B54799   6.645   0.193   6.210
 4256POPC   C2B54800   6.406   0.215   6.566
 4256POPC   C3B54801   6.696   0.130   6.863
 4256POPC   C4B54802   6.765   0.226   7.273
 4257POPC   NC354803  24.527  15.603   5.560
 4257POPC   PO454804  24.805  14.976   5.490
 4257POPC   GL154805  24.541  15.074   5.844
 4257POPC   GL254806  24.749  15.358   5.940
 4257POPC   C1A54807  24.346  14.943   6.254
 4257POPC   D2A54808  24.450  14.799   6.682
 4257POPC   C3A54809  24.231  14.861   7.081
 4257POPC   C4A54810  24.444  14.736   7.478
 4257POPC   C1B54811  24.526  15.423   6.319
 4257POPC   C2B54812  24.317  15.311   6.730
 4257POPC   C3B54813  24.281  15.378   7.195
 4257POPC   C4B54814  24.216  15.501   7.664
 4258POPC   NC354815  33.615   0.186   5.544
 4258POPC   PO454816  33.733  44.558   5.202
 4258POPC   GL154817  33.722  44.714   5.671
 4258POPC   GL254818  33.950  44.864   5.922
 4258POPC   C1A54819  33.499  44.686   6.093
 4258POPC   D2A54820  33.665  44.740   6.513
 4258POPC   C3A54821  33.564  44.505   6.869
 4258POPC   C4A54822  33.738  44.718   7.202
 4258POPC   C1B54823  34.003  44.494   6.248
 4258POPC   C2B54824  34.024  44.340   6.703
 4258POPC   C3B54825  34.154  44.423   7.149
 4258POPC   C4B54826  34.029  44.557   7.583
 4259POPC   NC354827  12.480  18.997   5.428
 4259POPC   PO454828  13.085  19.281   5.379
 4259POPC   GL154829  12.856  19.150   5.752
 4259POPC   GL254830  12.511  19.296   5.839
 4259POPC   C1A54831  12.892  19.012   6.179
 4259POPC   D2A54832  12.798  18.860   6.589
 4259POPC   C3A54833  13.020  19.062   6.905
 4259POPC   C4A54834  13.049  19.021   7.332
 4259POPC   C1B54835  12.780  19.533   6.106
 4259POPC   C2B54836  12.861  19.438   6.528
 4259POPC   C3B54837  12.558  19.275   6.797
 4259POPC   C4B54838  12.627  19.318   7.225
 4260POPC   NC354839  36.152   3.209   5.439
 4260POPC   PO454840  36.345   3.841   5.650
 4260POPC   GL154841  36.198   3.538   5.919
 4260POPC   GL254842  35.916   3.380   5.872
 4260POPC   C1A54843  36.106   3.373   6.346
 4260POPC   D2A54844  35.987   3.412   6.790
 4260POPC   C3A54845  36.334   3.456   7.117
 4260POPC   C4A54846  36.628   3.280   7.434
 4260POPC   C1B54847  35.813   3.760   6.168
 4260POPC   C2B54848  35.730   4.036   6.540
 4260POPC   C3B54849  35.800   3.870   6.957
 4260POPC   C4B54850  35.811   3.501   7.265
 4261POPC   NC354851  29.562   0.556   5.289
 4261POPC   PO454852  28.885   0.371   5.284
 4261POPC   GL154853  29.134   0.424   5.690
 4261POPC   GL254854  29.464   0.219   5.707
 4261POPC   C1A54855  29.041   0.439   6.147
 4261POPC   D2A54856  28.914   0.684   6.527
 4261POPC   C3A54857  28.947   0.468   6.905
 4261POPC   C4A54858  29.013   0.469   7.337
 4261POPC   C1B54859  29.509   0.222   6.176
 4261POPC   C2B54860  29.350   0.412   6.606
 4261POPC   C3B54861  29.431   0.570   7.058
 4261POPC   C4B54862  29.497   0.288   7.408
 4262POPC   NC354863   7.050  41.204   5.335
 4262POPC   PO454864   6.504  40.749   5.431
 4262POPC   GL154865   6.722  40.636   5.773
 4262POPC   GL254866   6.679  40.969   5.920
 4262POPC   C1A54867   6.746  40.533   6.200
 4262POPC   D2A54868   6.809  40.776   6.570
 4262POPC   C3A54869   6.728  40.593   6.939
 4262POPC   C4A54870   6.942  40.666   7.328
 4262POPC   C1B54871   6.429  41.003   6.309
 4262POPC   C2B54872   6.490  41.200   6.734
 4262POPC   C3B54873   6.775  41.128   7.065
 4262POPC   C4B54874   6.487  40.888   7.282
 4263POPC   NC354875  37.783  24.054   5.476
 4263POPC   PO454876  37.702  24.689   5.452
 4263POPC   GL154877  37.834  24.501   5.848
 4263POPC   GL254878  38.169  24.365   5.948
 4263POPC   C1A54879  37.877  24.571   6.293
 4263POPC   D2A54880  37.492  24.479   6.469
 4263POPC   C3A54881  37.523  24.445   6.876
 4263POPC   C4A54882  37.832  24.589   7.192
 4263POPC   C1B54883  37.869  24.089   6.142
 4263POPC   C2B54884  37.815  24.024   6.548
 4263POPC   C3B54885  37.918  24.133   6.933
 4263POPC   C4B54886  37.589  24.056   7.219
 4264POPC   NC354887  42.478   7.394   5.180
 4264POPC   PO454888  41.964   7.828   5.364
 4264POPC   GL154889  42.272   7.532   5.648
 4264POPC   GL254890  42.576   7.701   5.692
 4264POPC   C1A54891  42.267   7.344   6.094
 4264POPC   D2A54892  42.115   7.402   6.550
 4264POPC   C3A54893  42.300   7.325   6.961
 4264POPC   C4A54894  42.518   6.971   7.113
 4264POPC   C1B54895  42.539   7.782   6.143
 4264POPC   C2B54896  42.634   7.595   6.560
 4264POPC   C3B54897  42.562   7.758   6.979
 4264POPC   C4B54898  42.375   7.689   7.380
 4265POPC   NC354899  34.732   1.411   5.349
 4265POPC   PO454900  35.239   0.845   5.372
 4265POPC   GL154901  35.299   1.110   5.748
 4265POPC   GL254902  35.033   1.378   5.805
 4265POPC   C1A54903  35.541   1.249   6.136
 4265POPC   D2A54904  35.703   1.098   6.549
 4265POPC   C3A54905  35.620   1.284   6.972
 4265POPC   C4A54906  35.376   1.268   7.350
 4265POPC   C1B54907  35.035   1.082   6.180
 4265POPC   C2B54908  35.166   0.858   6.565
 4265POPC   C3B54909  35.125   0.991   6.989
 4265POPC   C4B54910  35.105   0.837   7.404
 4266POPC   NC354911  39.483  25.549   5.083
 4266POPC   PO454912  39.091  25.090   5.520
 4266POPC   GL154913  39.217  25.287   5.849
 4266POPC   GL254914  39.454  25.578   5.736
 4266POPC   C1A54915  39.368  25.035   6.173
 4266POPC   D2A54916  39.436  24.837   6.557
 4266POPC   C3A54917  39.273  24.952   6.937
 4266POPC   C4A54918  39.475  25.084   7.349
 4266POPC   C1B54919  39.361  25.623   6.187
 4266POPC   C2B54920  39.179  25.376   6.523
 4266POPC   C3B54921  39.107  25.427   6.946
 4266POPC   C4B54922  38.791  25.576   7.220
 4267POPC   NC354923  40.287  26.057   5.391
 4267POPC   PO454924  39.775  26.525   5.219
 4267POPC   GL154925  39.905  26.306   5.644
 4267POPC   GL254926  39.674  26.059   5.822
 4267POPC   C1A54927  40.130  26.128   6.036
 4267POPC   D2A54928  40.216  26.150   6.502
 4267POPC   C3A54929  40.129  25.856   6.876
 4267POPC   C4A54930  40.119  25.911   7.331
 4267POPC   C1B54931  39.688  26.339   6.235
 4267POPC   C2B54932  39.683  26.427   6.724
 4267POPC   C3B54933  39.722  26.185   7.147
 4267POPC   C4B54934  39.661  25.978   7.586
 4268POPC   NC354935   7.559   1.642   5.550
 4268POPC   PO454936   7.203   2.248   5.358
 4268POPC   GL154937   7.287   2.035   5.787
 4268POPC   GL254938   7.030   1.755   5.931
 4268POPC   C1A54939   7.446   1.921   6.207
 4268POPC   D2A54940   7.791   1.957   6.467
 4268POPC   C3A54941   7.753   2.152   6.889
 4268POPC   C4A54942   7.718   2.045   7.327
 4268POPC   C1B54943   7.034   1.706   6.413
 4268POPC   C2B54944   7.319   1.965   6.701
 4268POPC   C3B54945   7.286   2.293   7.043
 4268POPC   C4B54946   7.262   2.170   7.471
 4269POPC   NC354947  11.828  19.184   5.101
 4269POPC   PO454948  11.344  18.689   5.177
 4269POPC   GL154949  11.180  18.751   5.660
 4269POPC   GL254950  11.246  19.077   5.815
 4269POPC   C1A54951  11.010  18.796   6.163
 4269POPC   D2A54952  10.767  18.828   6.590
 4269POPC   C3A54953  10.994  18.920   6.981
 4269POPC   C4A54954  11.271  19.008   7.320
 4269POPC   C1B54955  11.169  19.363   6.171
 4269POPC   C2B54956  11.350  19.502   6.576
 4269POPC   C3B54957  11.304  19.405   7.007
 4269POPC   C4B54958  11.340  19.565   7.434
 4270POPC   NC354959   2.619  33.335   5.338
 4270POPC   PO454960   3.042  32.770   5.375
 4270POPC   GL154961   2.898  33.062   5.693
 4270POPC   GL254962   3.154  33.200   5.904
 4270POPC   C1A54963   2.694  33.053   6.105
 4270POPC   D2A54964   2.586  32.818   6.467
 4270POPC   C3A54965   2.655  33.018   6.863
 4270POPC   C4A54966   2.539  32.790   7.232
 4270POPC   C1B54967   3.139  32.823   6.203
 4270POPC   C2B54968   3.066  32.793   6.670
 4270POPC   C3B54969   3.117  32.993   7.094
 4270POPC   C4B54970   3.231  33.431   7.199
 4271POPC   NC354971  37.742   3.584   5.318
 4271POPC   PO454972  37.144   3.466   5.641
 4271POPC   GL154973  37.572   3.366   5.817
 4271POPC   GL254974  37.927   3.248   5.694
 4271POPC   C1A54975  37.681   3.449   6.260
 4271POPC   D2A54976  37.755   3.758   6.602
 4271POPC   C3A54977  37.482   3.680   6.960
 4271POPC   C4A54978  37.795   3.796   7.249
 4271POPC   C1B54979  38.093   3.190   6.133
 4271POPC   C2B54980  38.074   3.327   6.576
 4271POPC   C3B54981  37.863   3.343   6.966
 4271POPC   C4B54982  38.019   3.356   7.389
 4272POPC   NC354983  25.082   3.087   5.507
 4272POPC   PO454984  25.650   2.765   5.265
 4272POPC   GL154985  25.351   2.715   5.781
 4272POPC   GL254986  25.048   2.887   5.952
 4272POPC   C1A54987  25.467   2.672   6.209
 4272POPC   D2A54988  25.492   2.403   6.533
 4272POPC   C3A54989  25.494   2.624   6.872
 4272POPC   C4A54990  25.644   2.571   7.235
 4272POPC   C1B54991  25.193   3.105   6.273
 4272POPC   C2B54992  25.153   2.867   6.582
 4272POPC   C3B54993  25.092   2.911   6.955
 4272POPC   C4B54994  25.189   2.855   7.328
 4273POPC   NC354995  44.369  32.507   5.460
 4273POPC   PO454996  44.891  32.019   5.364
 4273POPC   GL154997  44.869  32.063   5.813
 4273POPC   GL254998  44.577  32.212   5.848
 4273POPC   C1A54999  44.938  31.935   6.269
 4273POPC   D2A55000  44.608  31.952   6.591
 4273POPC   C3A55001  44.656  32.041   7.038
 4273POPC   C4A55002  44.751  32.479   7.229
 4273POPC   C1B55003  44.311  32.112   6.171
 4273POPC   C2B55004  44.203  32.276   6.540
 4273POPC   C3B55005  44.395  32.413   6.838
 4273POPC   C4B55006  44.253  32.331   7.210
 4274POPC   NC355007  14.004  21.015   5.536
 4274POPC   PO455008  13.447  20.735   5.352
 4274POPC   GL155009  13.658  20.725   5.774
 4274POPC   GL255010  13.889  20.438   5.720
 4274POPC   C1A55011  13.850  20.703   6.204
 4274POPC   D2A55012  13.654  20.650   6.620
 4274POPC   C3A55013  13.399  20.982   6.825
 4274POPC   C4A55014  13.409  21.142   7.267
 4274POPC   C1B55015  13.972  20.202   6.105
 4274POPC   C2B55016  13.972  20.249   6.557
 4274POPC   C3B55017  13.950  20.412   6.982
 4274POPC   C4B55018  13.655  20.685   7.151
 4275POPC   NC355019  19.622  31.008   5.538
 4275POPC   PO455020  19.802  31.641   5.360
 4275POPC   GL155021  19.681  31.482   5.739
 4275POPC   GL255022  19.995  31.578   5.882
 4275POPC   C1A55023  19.478  31.642   6.115
 4275POPC   D2A55024  19.635  31.817   6.500
 4275POPC   C3A55025  19.585  31.567   6.877
 4275POPC   C4A55026  19.750  31.532   7.269
 4275POPC   C1B55027  20.199  31.460   6.256
 4275POPC   C2B55028  19.986  31.410   6.603
 4275POPC   C3B55029  20.118  31.238   6.948
 4275POPC   C4B55030  20.244  31.427   7.303
 4276POPC   NC355031   8.325  33.048   5.285
 4276POPC   PO455032   7.762  33.107   5.578
 4276POPC   GL155033   8.127  32.941   5.745
 4276POPC   GL255034   8.248  33.247   5.798
 4276POPC   C1A55035   8.213  32.911   6.175
 4276POPC   D2A55036   8.297  33.013   6.589
 4276POPC   C3A55037   7.995  32.993   6.909
 4276POPC   C4A55038   8.126  32.872   7.322
 4276POPC   C1B55039   8.475  33.374   6.179
 4276POPC   C2B55040   8.434  33.528   6.600
 4276POPC   C3B55041   8.435  33.320   6.981
 4276POPC   C4B55042   8.464  33.245   7.408
 4277POPC   NC355043  19.829   5.190   5.423
 4277POPC   PO455044  19.737   4.521   5.478
 4277POPC   GL155045  19.931   4.829   5.773
 4277POPC   GL255046  19.705   5.082   5.919
 4277POPC   C1A55047  20.041   4.888   6.232
 4277POPC   D2A55048  20.165   5.202   6.537
 4277POPC   C3A55049  19.987   5.053   6.921
 4277POPC   C4A55050  19.897   5.070   7.368
 4277POPC   C1B55051  19.693   5.293   6.342
 4277POPC   C2B55052  19.791   5.616   6.660
 4277POPC   C3B55053  19.814   5.506   7.072
 4277POPC   C4B55054  19.513   5.162   7.070
 4278POPC   NC355055  26.303  37.421   5.340
 4278POPC   PO455056  25.816  37.775   5.365
 4278POPC   GL155057  26.027  37.734   5.789
 4278POPC   GL255058  26.399  37.639   5.799
 4278POPC   C1A55059  25.924  37.896   6.220
 4278POPC   D2A55060  26.165  37.907   6.591
 4278POPC   C3A55061  25.985  37.808   6.974
 4278POPC   C4A55062  26.117  37.835   7.387
 4278POPC   C1B55063  26.527  37.676   6.229
 4278POPC   C2B55064  26.680  37.942   6.534
 4278POPC   C3B55065  26.534  38.038   6.945
 4278POPC   C4B55066  26.620  37.928   7.344
 4279POPC   NC355067  29.693  42.704   5.516
 4279POPC   PO455068  29.678  43.401   5.373
 4279POPC   GL155069  29.774  43.181   5.747
 4279POPC   GL255070  30.085  43.002   5.813
 4279POPC   C1A55071  29.792  43.180   6.198
 4279POPC   D2A55072  30.081  43.074   6.550
 4279POPC   C3A55073  29.939  43.157   6.968
 4279POPC   C4A55074  29.803  43.317   7.361
 4279POPC   C1B55075  29.948  42.700   6.176
 4279POPC   C2B55076  29.967  42.557   6.606
 4279POPC   C3B55077  30.147  42.691   6.995
 4279POPC   C4B55078  30.007  42.866   7.433
 4280POPC   NC355079  41.739  18.341   5.366
 4280POPC   PO455080  41.331  17.898   5.379
 4280POPC   GL155081  41.555  18.109   5.791
 4280POPC   GL255082  41.605  18.490   5.850
 4280POPC   C1A55083  41.660  18.175   6.267
 4280POPC   D2A55084  41.855  18.013   6.644
 4280POPC   C3A55085  41.668  17.994   7.035
 4280POPC   C4A55086  41.534  18.183   7.403
 4280POPC   C1B55087  41.887  18.618   6.199
 4280POPC   C2B55088  41.922  18.551   6.650
 4280POPC   C3B55089  41.643  18.508   7.008
 4280POPC   C4B55090  41.396  18.693   7.366
 4281POPC   NC355091  42.937   2.244   5.463
 4281POPC   PO455092  43.313   1.648   5.524
 4281POPC   GL155093  43.306   1.907   5.923
 4281POPC   GL255094  43.434   2.273   5.853
 4281POPC   C1A55095  43.088   1.823   6.349
 4281POPC   D2A55096  42.883   2.090   6.701
 4281POPC   C3A55097  42.850   2.024   7.169
 4281POPC   C4A55098  42.851   2.107   7.662
 4281POPC   C1B55099  43.305   2.294   6.291
 4281POPC   C2B55100  43.414   2.069   6.666
 4281POPC   C3B55101  43.299   2.309   7.014
 4281POPC   C4B55102  43.299   2.116   7.411
 4282POPC   NC355103  25.272  13.128   5.430
 4282POPC   PO455104  25.364  12.509   5.221
 4282POPC   GL155105  25.190  12.675   5.682
 4282POPC   GL255106  25.321  12.971   5.939
 4282POPC   C1A55107  25.084  12.571   6.134
 4282POPC   D2A55108  25.260  12.495   6.547
 4282POPC   C3A55109  25.094  12.545   6.973
 4282POPC   C4A55110  25.083  12.908   7.262
 4282POPC   C1B55111  25.611  12.690   6.235
 4282POPC   C2B55112  25.725  12.673   6.694
 4282POPC   C3B55113  25.545  12.870   7.033
 4282POPC   C4B55114  25.540  12.886   7.485
 4283POPC   NC355115  20.909   2.072   5.490
 4283POPC   PO455116  20.429   2.420   5.159
 4283POPC   GL155117  20.427   2.117   5.649
 4283POPC   GL255118  20.567   1.789   5.797
 4283POPC   C1A55119  20.681   2.175   6.096
 4283POPC   D2A55120  20.614   2.240   6.519
 4283POPC   C3A55121  20.762   1.960   6.815
 4283POPC   C4A55122  20.822   1.985   7.227
 4283POPC   C1B55123  20.298   1.856   6.202
 4283POPC   C2B55124  20.246   1.908   6.682
 4283POPC   C3B55125  20.331   1.845   7.160
 4283POPC   C4B55126  20.184   1.784   7.615
 4284POPC   NC355127  35.788  44.196   5.406
 4284POPC   PO455128  36.383  43.781   5.425
 4284POPC   GL155129  36.313  43.825   5.866
 4284POPC   GL255130  36.045  44.008   5.921
 4284POPC   C1A55131  36.160  43.687   6.297
 4284POPC   D2A55132  36.201  43.533   6.736
 4284POPC   C3A55133  36.276  43.831   7.109
 4284POPC   C4A55134  36.481  43.741   7.530
 4284POPC   C1B55135  36.105  44.207   6.331
 4284POPC   C2B55136  35.991  44.065   6.743
 4284POPC   C3B55137  35.900  44.162   7.197
 4284POPC   C4B55138  35.756  44.123   7.627
 4285POPC   NC355139  10.201  43.729   5.204
 4285POPC   PO455140  10.564  44.140   5.519
 4285POPC   GL155141  10.662  43.940   5.926
 4285POPC   GL255142  10.746  43.565   5.924
 4285POPC   C1A55143  10.518  43.776   6.339
 4285POPC   D2A55144  10.530  43.751   6.783
 4285POPC   C3A55145  10.748  44.105   7.004
 4285POPC   C4A55146  10.749  44.022   7.407
 4285POPC   C1B55147  10.907  43.449   6.332
 4285POPC   C2B55148  10.954  43.428   6.755
 4285POPC   C3B55149  10.899  43.630   7.119
 4285POPC   C4B55150  10.870  43.542   7.535
 4286POPC   NC355151   3.027  26.345   5.457
 4286POPC   PO455152   2.661  25.789   5.211
 4286POPC   GL155153   2.836  25.861   5.610
 4286POPC   GL255154   2.596  26.102   5.715
 4286POPC   C1A55155   2.812  25.782   6.049
 4286POPC   D2A55156   2.807  25.897   6.476
 4286POPC   C3A55157   2.886  25.735   6.897
 4286POPC   C4A55158   2.884  26.010   7.250
 4286POPC   C1B55159   2.436  26.227   6.112
 4286POPC   C2B55160   2.395  26.183   6.566
 4286POPC   C3B55161   2.679  26.310   6.878
 4286POPC   C4B55162   2.574  26.409   7.312
 4287POPC   NC355163  28.452  36.270   5.523
 4287POPC   PO455164  27.825  36.544   5.450
 4287POPC   GL155165  28.023  36.466   5.875
 4287POPC   GL255166  28.118  36.129   5.915
 4287POPC   C1A55167  28.065  36.465   6.338
 4287POPC   D2A55168  27.982  36.081   6.607
 4287POPC   C3A55169  28.129  36.056   7.025
 4287POPC   C4A55170  28.317  35.695   7.267
 4287POPC   C1B55171  28.499  36.266   6.176
 4287POPC   C2B55172  28.493  36.218   6.634
 4287POPC   C3B55173  28.644  36.021   7.025
 4287POPC   C4B55174  28.792  35.955   7.444
 4288POPC   NC355175  25.315  43.633   5.449
 4288POPC   PO455176  24.912  44.198   5.514
 4288POPC   GL155177  25.116  43.948   5.807
 4288POPC   GL255178  24.853  43.742   5.767
 4288POPC   C1A55179  25.313  43.838   6.206
 4288POPC   D2A55180  25.362  44.046   6.570
 4288POPC   C3A55181  25.457  43.904   6.945
 4288POPC   C4A55182  25.236  43.970   7.303
 4288POPC   C1B55183  24.755  43.625   6.167
 4288POPC   C2B55184  24.997  43.547   6.521
 4288POPC   C3B55185  25.026  43.642   6.942
 4288POPC   C4B55186  24.985  43.530   7.355
 4289POPC   NC355187  38.851   3.413   5.542
 4289POPC   PO455188  39.493   3.171   5.452
 4289POPC   GL155189  39.292   3.349   5.860
 4289POPC   GL255190  38.972   3.198   5.962
 4289POPC   C1A55191  39.289   3.729   6.186
 4289POPC   D2A55192  39.073   3.905   6.607
 4289POPC   C3A55193  39.230   3.711   7.043
 4289POPC   C4A55194  39.288   3.362   7.352
 4289POPC   C1B55195  38.875   3.466   6.286
 4289POPC   C2B55196  39.113   3.392   6.645
 4289POPC   C3B55197  38.959   3.187   6.992
 4289POPC   C4B55198  38.668   3.497   7.094
 4290POPC   NC355199  14.657  20.854   5.093
 4290POPC   PO455200  14.362  20.337   5.410
 4290POPC   GL155201  14.385  20.536   5.838
 4290POPC   GL255202  14.501  20.895   5.797
 4290POPC   C1A55203  14.341  20.505   6.299
 4290POPC   D2A55204  14.603  20.493   6.661
 4290POPC   C3A55205  14.523  20.299   7.070
 4290POPC   C4A55206  14.485  20.447   7.506
 4290POPC   C1B55207  14.310  21.007   6.214
 4290POPC   C2B55208  14.243  20.864   6.668
 4290POPC   C3B55209  14.296  20.806   7.121
 4290POPC   C4B55210  14.370  20.970   7.541
 4291POPC   NC355211   0.015  17.361   5.145
 4291POPC   PO455212   0.636  17.216   5.449
 4291POPC   GL155213   0.366  17.375   5.772
 4291POPC   GL255214   0.084  17.148   5.836
 4291POPC   C1A55215   0.438  17.657   6.142
 4291POPC   D2A55216   0.578  17.833   6.549
 4291POPC   C3A55217   0.727  17.596   6.925
 4291POPC   C4A55218   0.654  17.624   7.360
 4291POPC   C1B55219   0.080  17.279   6.232
 4291POPC   C2B55220   0.322  17.378   6.587
 4291POPC   C3B55221   0.289  17.353   7.026
 4291POPC   C4B55222   0.002  17.091   7.219
 4292POPC   NC355223  30.656  36.980   5.321
 4292POPC   PO455224  30.583  36.446   5.687
 4292POPC   GL155225  30.613  36.883   5.839
 4292POPC   GL255226  30.895  37.127   5.750
 4292POPC   C1A55227  30.503  36.953   6.272
 4292POPC   D2A55228  30.746  37.074   6.628
 4292POPC   C3A55229  30.789  36.773   6.961
 4292POPC   C4A55230  30.746  36.577   7.362
 4292POPC   C1B55231  31.034  37.004   6.173
 4292POPC   C2B55232  31.268  37.106   6.567
 4292POPC   C3B55233  31.105  37.162   6.991
 4292POPC   C4B55234  30.961  37.059   7.412
 4293POPC   NC355235  29.569   5.216   5.348
 4293POPC   PO455236  30.111   5.028   5.510
 4293POPC   GL155237  29.736   5.080   5.825
 4293POPC   GL255238  29.541   5.429   5.823
 4293POPC   C1A55239  29.733   4.906   6.263
 4293POPC   D2A55240  29.944   5.061   6.649
 4293POPC   C3A55241  29.830   4.915   7.075
 4293POPC   C4A55242  29.889   4.894   7.530
 4293POPC   C1B55243  29.720   5.429   6.248
 4293POPC   C2B55244  29.832   5.576   6.659
 4293POPC   C3B55245  29.954   5.423   7.046
 4293POPC   C4B55246  29.713   5.371   7.385
 4294POPC   NC355247   3.146  25.624   5.072
 4294POPC   PO455248   3.481  26.071   5.493
 4294POPC   GL155249   3.417  26.219   5.875
 4294POPC   GL255250   3.271  25.947   5.957
 4294POPC   C1A55251   3.328  26.289   6.328
 4294POPC   D2A55252   3.167  26.137   6.728
 4294POPC   C3A55253   3.400  26.032   7.092
 4294POPC   C4A55254   3.558  26.341   7.383
 4294POPC   C1B55255   3.636  25.872   6.275
 4294POPC   C2B55256   3.882  25.735   6.661
 4294POPC   C3B55257   3.744  25.635   7.064
 4294POPC   C4B55258   3.712  25.833   7.493
 4295POPC   NC355259  42.689  22.648   5.374
 4295POPC   PO455260  42.481  23.303   5.438
 4295POPC   GL155261  42.541  22.978   5.808
 4295POPC   GL255262  42.226  22.861   5.906
 4295POPC   C1A55263  42.505  22.979   6.309
 4295POPC   D2A55264  42.265  23.284   6.583
 4295POPC   C3A55265  42.367  23.154   7.009
 4295POPC   C4A55266  42.432  22.711   7.180
 4295POPC   C1B55267  42.056  22.708   6.285
 4295POPC   C2B55268  42.197  22.780   6.697
 4295POPC   C3B55269  41.965  22.805   7.072
 4295POPC   C4B55270  41.771  22.508   7.293
 4296POPC   NC355271  41.695  32.715   5.755
 4296POPC   PO455272  41.594  32.130   5.439
 4296POPC   GL155273  41.670  32.122   5.868
 4296POPC   GL255274  42.008  32.140   5.888
 4296POPC   C1A55275  41.688  32.244   6.319
 4296POPC   D2A55276  41.515  32.293   6.731
 4296POPC   C3A55277  41.530  32.143   7.165
 4296POPC   C4A55278  41.588  32.308   7.584
 4296POPC   C1B55279  42.084  31.919   6.268
 4296POPC   C2B55280  42.078  32.091   6.668
 4296POPC   C3B55281  41.989  31.943   7.077
 4296POPC   C4B55282  41.832  31.841   7.497
 4297POPC   NC355283  41.226  13.451   5.645
 4297POPC   PO455284  41.813  13.607   5.393
 4297POPC   GL155285  41.715  13.484   5.797
 4297POPC   GL255286  41.562  13.812   5.921
 4297POPC   C1A55287  41.648  13.422   6.233
 4297POPC   D2A55288  41.606  13.668   6.583
 4297POPC   C3A55289  41.370  13.519   6.870
 4297POPC   C4A55290  41.415  13.497   7.288
 4297POPC   C1B55291  41.496  14.060   6.304
 4297POPC   C2B55292  41.187  14.164   6.617
 4297POPC   C3B55293  41.170  13.948   7.011
 4297POPC   C4B55294  41.369  13.978   7.385
 4298POPC   NC355295  27.530   8.489   5.408
 4298POPC   PO455296  27.706   7.870   5.648
 4298POPC   GL155297  27.722   8.275   5.840
 4298POPC   GL255298  27.341   8.369   5.846
 4298POPC   C1A55299  27.853   8.262   6.259
 4298POPC   D2A55300  27.669   7.918   6.523
 4298POPC   C3A55301  27.658   8.067   6.914
 4298POPC   C4A55302  27.525   8.075   7.299
 4298POPC   C1B55303  27.346   8.213   6.231
 4298POPC   C2B55304  27.344   8.394   6.624
 4298POPC   C3B55305  27.182   8.286   6.998
 4298POPC   C4B55306  27.185   8.412   7.433
 4299POPC   NC355307  43.573  42.153   5.582
 4299POPC   PO455308  42.920  42.382   5.305
 4299POPC   GL155309  43.036  42.429   5.766
 4299POPC   GL255310  43.364  42.532   5.900
 4299POPC   C1A55311  42.939  42.330   6.216
 4299POPC   D2A55312  42.721  42.334   6.639
 4299POPC   C3A55313  42.966  42.358   7.041
 4299POPC   C4A55314  43.238  42.049   7.147
 4299POPC   C1B55315  43.457  42.307   6.320
 4299POPC   C2B55316  43.539  42.376   6.779
 4299POPC   C3B55317  43.435  42.525   7.180
 4299POPC   C4B55318  43.477  42.251   7.578
 4300POPC   NC355319  11.095  16.951   5.612
 4300POPC   PO455320  11.457  17.354   5.185
 4300POPC   GL155321  11.412  17.540   5.647
 4300POPC   GL255322  11.088  17.419   5.822
 4300POPC   C1A55323  11.394  17.727   6.111
 4300POPC   D2A55324  11.294  17.564   6.562
 4300POPC   C3A55325  11.589  17.592   6.933
 4300POPC   C4A55326  11.596  17.922   7.262
 4300POPC   C1B55327  10.884  17.250   6.221
 4300POPC   C2B55328  10.976  17.160   6.652
 4300POPC   C3B55329  11.177  17.293   7.042
 4300POPC   C4B55330  11.170  17.122   7.472
 4301POPC   NC355331  28.747  37.044   5.626
 4301POPC   PO455332  29.199  36.668   5.357
 4301POPC   GL155333  29.143  36.732   5.789
 4301POPC   GL255334  28.834  36.542   5.818
 4301POPC   C1A55335  29.173  37.015   6.180
 4301POPC   D2A55336  28.990  36.949   6.591
 4301POPC   C3A55337  29.027  37.163   7.001
 4301POPC   C4A55338  29.431  37.121   7.160
 4301POPC   C1B55339  28.968  36.537   6.246
 4301POPC   C2B55340  28.941  36.459   6.693
 4301POPC   C3B55341  29.179  36.665   7.002
 4301POPC   C4B55342  29.150  36.759   7.445
 4302POPC   NC355343   4.492   7.142   5.415
 4302POPC   PO455344   4.100   7.730   5.309
 4302POPC   GL155345   4.043   7.533   5.725
 4302POPC   GL255346   3.997   7.185   5.684
 4302POPC   C1A55347   4.286   7.497   6.129
 4302POPC   D2A55348   4.527   7.550   6.529
 4302POPC   C3A55349   4.374   7.493   6.941
 4302POPC   C4A55350   4.501   7.287   7.286
 4302POPC   C1B55351   3.852   7.220   6.105
 4302POPC   C2B55352   3.974   7.331   6.512
 4302POPC   C3B55353   4.050   7.103   6.872
 4302POPC   C4B55354   3.985   7.267   7.277
 4303POPC   NC355355  28.940  11.561   5.296
 4303POPC   PO455356  29.419  11.225   5.443
 4303POPC   GL155357  28.999  11.235   5.745
 4303POPC   GL255358  28.865  11.562   5.808
 4303POPC   C1A55359  28.779  11.230   6.190
 4303POPC   D2A55360  29.003  11.281   6.590
 4303POPC   C3A55361  28.792  11.233   6.951
 4303POPC   C4A55362  29.068  11.093   7.247
 4303POPC   C1B55363  29.148  11.595   6.171
 4303POPC   C2B55364  29.232  11.734   6.603
 4303POPC   C3B55365  29.215  11.573   7.040
 4303POPC   C4B55366  29.366  11.797   7.403
 4304POPC   NC355367  15.741  44.807   5.575
 4304POPC   PO455368  16.129  44.339   5.632
 4304POPC   GL155369  16.026  44.689   5.983
 4304POPC   GL255370  15.756   0.006   6.028
 4304POPC   C1A55371  15.813  44.596   6.383
 4304POPC   D2A55372  15.728  44.709   6.801
 4304POPC   C3A55373  15.842  44.473   7.188
 4304POPC   C4A55374  16.156  44.553   7.544
 4304POPC   C1B55375  16.019   0.065   6.347
 4304POPC   C2B55376  16.186  44.990   6.695
 4304POPC   C3B55377  16.155  44.853   7.049
 4304POPC   C4B55378  15.886  44.956   7.299
 4305POPC   NC355379  20.903  31.870   5.628
 4305POPC   PO455380  20.423  32.333   5.502
 4305POPC   GL155381  20.666  32.280   5.834
 4305POPC   GL255382  20.972  32.491   5.767
 4305POPC   C1A55383  20.492  32.284   6.241
 4305POPC   D2A55384  20.311  32.414   6.620
 4305POPC   C3A55385  20.421  32.142   6.895
 4305POPC   C4A55386  20.558  32.290   7.242
 4305POPC   C1B55387  21.025  32.336   6.213
 4305POPC   C2B55388  20.855  32.326   6.665
 4305POPC   C3B55389  21.030  32.271   7.101
 4305POPC   C4B55390  20.950  32.385   7.571
 4306POPC   NC355391  26.181  26.295   5.484
 4306POPC   PO455392  25.680  25.938   5.387
 4306POPC   GL155393  25.904  25.932   5.783
 4306POPC   GL255394  26.259  25.797   5.728
 4306POPC   C1A55395  25.890  26.109   6.224
 4306POPC   D2A55396  25.948  26.359   6.618
 4306POPC   C3A55397  25.994  26.105   6.978
 4306POPC   C4A55398  25.778  25.829   7.273
 4306POPC   C1B55399  26.372  25.992   6.119
 4306POPC   C2B55400  26.320  25.951   6.568
 4306POPC   C3B55401  26.534  26.061   6.950
 4306POPC   C4B55402  26.406  26.208   7.362
 4307POPC   NC355403  34.993  32.390   5.578
 4307POPC   PO455404  35.623  32.240   5.341
 4307POPC   GL155405  35.421  32.133   5.751
 4307POPC   GL255406  35.103  31.946   5.814
 4307POPC   C1A55407  35.565  32.355   6.130
 4307POPC   D2A55408  35.799  32.242   6.495
 4307POPC   C3A55409  35.601  32.371   6.891
 4307POPC   C4A55410  35.275  32.317   7.215
 4307POPC   C1B55411  35.128  32.108   6.246
 4307POPC   C2B55412  35.094  32.163   6.711
 4307POPC   C3B55413  35.049  31.880   7.074
 4307POPC   C4B55414  35.098  31.970   7.534
 4308POPC   NC355415  23.970  24.925   5.406
 4308POPC   PO455416  24.578  24.588   5.260
 4308POPC   GL155417  24.516  24.522   5.693
 4308POPC   GL255418  24.279  24.735   5.834
 4308POPC   C1A55419  24.721  24.561   6.092
 4308POPC   D2A55420  24.601  24.519   6.524
 4308POPC   C3A55421  24.710  24.754   6.899
 4308POPC   C4A55422  24.705  24.510   7.287
 4308POPC   C1B55423  24.160  24.510   6.249
 4308POPC   C2B55424  24.170  24.704   6.718
 4308POPC   C3B55425  24.202  24.547   7.154
 4308POPC   C4B55426  24.273  24.201   7.517
 4309POPC   NC355427  14.789   9.659   5.260
 4309POPC   PO455428  14.157   9.558   5.473
 4309POPC   GL155429  14.359   9.793   5.794
 4309POPC   GL255430  14.183  10.089   5.872
 4309POPC   C1A55431  14.583   9.758   6.195
 4309POPC   D2A55432  14.413   9.773   6.592
 4309POPC   C3A55433  14.577   9.598   6.950
 4309POPC   C4A55434  14.478   9.633   7.357
 4309POPC   C1B55435  14.395  10.232   6.257
 4309POPC   C2B55436  14.445  10.269   6.705
 4309POPC   C3B55437  14.477  10.084   7.084
 4309POPC   C4B55438  14.379  10.108   7.517
 4310POPC   NC355439   0.569   2.526   5.529
 4310POPC   PO455440   0.683   3.191   5.576
 4310POPC   GL155441   0.663   2.901   5.881
 4310POPC   GL255442   0.312   2.853   5.855
 4310POPC   C1A55443   0.832   2.988   6.282
 4310POPC   D2A55444   0.574   3.237   6.570
 4310POPC   C3A55445   0.369   2.964   6.870
 4310POPC   C4A55446   0.574   2.810   7.249
 4310POPC   C1B55447   0.362   2.834   6.306
 4310POPC   C2B55448   0.644   2.596   6.605
 4310POPC   C3B55449   0.442   2.408   6.967
 4310POPC   C4B55450   0.108   2.614   7.232
 4311POPC   NC355451  27.032  16.342   5.504
 4311POPC   PO455452  26.631  16.920   5.511
 4311POPC   GL155453  26.873  16.802   5.859
 4311POPC   GL255454  26.684  16.508   5.837
 4311POPC   C1A55455  26.976  16.815   6.299
 4311POPC   D2A55456  26.926  16.594   6.713
 4311POPC   C3A55457  26.715  16.788   7.054
 4311POPC   C4A55458  26.725  16.688   7.460
 4311POPC   C1B55459  26.820  16.318   6.205
 4311POPC   C2B55460  26.577  16.236   6.545
 4311POPC   C3B55461  26.509  16.286   6.980
 4311POPC   C4B55462  26.550  16.231   7.406
 4312POPC   NC355463  15.661   0.748   5.553
 4312POPC   PO455464  15.988   1.434   5.394
 4312POPC   GL155465  16.113   1.370   5.820
 4312POPC   GL255466  16.014   1.028   5.811
 4312POPC   C1A55467  15.948   1.342   6.232
 4312POPC   D2A55468  15.748   1.237   6.619
 4312POPC   C3A55469  15.950   1.365   6.992
 4312POPC   C4A55470  15.728   1.504   7.371
 4312POPC   C1B55471  16.151   0.874   6.184
 4312POPC   C2B55472  16.229   1.027   6.582
 4312POPC   C3B55473  16.126   0.865   6.985
 4312POPC   C4B55474  15.738   0.956   7.217
 4313POPC   NC355475   7.134   8.620   5.628
 4313POPC   PO455476   7.467   8.082   5.474
 4313POPC   GL155477   7.411   7.981   5.865
 4313POPC   GL255478   7.714   7.795   5.836
 4313POPC   C1A55479   7.294   8.211   6.258
 4313POPC   D2A55480   7.451   8.362   6.654
 4313POPC   C3A55481   7.262   8.230   7.051
 4313POPC   C4A55482   7.375   8.324   7.494
 4313POPC   C1B55483   7.789   7.962   6.235
 4313POPC   C2B55484   7.721   7.862   6.660
 4313POPC   C3B55485   7.759   8.115   7.026
 4313POPC   C4B55486   7.736   7.977   7.434
 4314POPC   NC355487  42.776   6.308   5.283
 4314POPC   PO455488  43.270   6.749   5.467
 4314POPC   GL155489  43.112   6.596   5.820
 4314POPC   GL255490  42.774   6.455   5.786
 4314POPC   C1A55491  43.034   6.739   6.221
 4314POPC   D2A55492  42.984   6.568   6.608
 4314POPC   C3A55493  42.975   6.882   6.912
 4314POPC   C4A55494  42.918   6.692   7.293
 4314POPC   C1B55495  42.829   6.243   6.182
 4314POPC   C2B55496  42.960   6.047   6.572
 4314POPC   C3B55497  43.016   6.221   7.015
 4314POPC   C4B55498  42.788   6.209   7.437
 4315POPC   NC355499  40.077  39.013   5.413
 4315POPC   PO455500  39.997  39.646   5.457
 4315POPC   GL155501  39.938  39.362   5.831
 4315POPC   GL255502  40.216  39.163   5.879
 4315POPC   C1A55503  40.042  39.396   6.294
 4315POPC   D2A55504  39.942  39.567   6.708
 4315POPC   C3A55505  40.005  39.266   7.042
 4315POPC   C4A55506  39.690  39.185   7.368
 4315POPC   C1B55507  40.323  38.914   6.263
 4315POPC   C2B55508  40.242  39.011   6.656
 4315POPC   C3B55509  40.284  38.824   7.034
 4315POPC   C4B55510  40.351  39.078   7.393
 4316POPC   NC355511  39.222  40.182   5.351
 4316POPC   PO455512  38.907  39.636   5.514
 4316POPC   GL155513  38.947  39.926   5.837
 4316POPC   GL255514  39.177  40.225   5.876
 4316POPC   C1A55515  39.112  39.857   6.244
 4316POPC   D2A55516  39.490  39.759   6.477
 4316POPC   C3A55517  39.396  39.860   6.882
 4316POPC   C4A55518  39.024  39.999   7.069
 4316POPC   C1B55519  39.402  40.273   6.273
 4316POPC   C2B55520  39.273  40.362   6.697
 4316POPC   C3B55521  39.413  40.330   7.084
 4316POPC   C4B55522  39.439  40.026   7.395
 4317POPC   NC355523  17.935  25.248   5.029
 4317POPC   PO455524  18.387  25.217   5.525
 4317POPC   GL155525  18.582  25.116   5.896
 4317POPC   GL255526  18.233  25.166   6.026
 4317POPC   C1A55527  18.622  25.132   6.340
 4317POPC   D2A55528  18.319  25.253   6.694
 4317POPC   C3A55529  18.493  25.163   7.089
 4317POPC   C4A55530  18.391  25.286   7.482
 4317POPC   C1B55531  17.937  25.069   6.363
 4317POPC   C2B55532  17.782  25.031   6.794
 4317POPC   C3B55533  17.976  25.130   7.189
 4317POPC   C4B55534  17.937  25.112   7.644
 4318POPC   NC355535  43.470  39.187   5.642
 4318POPC   PO455536  42.972  39.499   5.368
 4318POPC   GL155537  43.045  39.433   5.798
 4318POPC   GL255538  43.348  39.631   5.863
 4318POPC   C1A55539  43.036  39.160   6.169
 4318POPC   D2A55540  43.054  38.950   6.591
 4318POPC   C3A55541  42.711  39.057   6.826
 4318POPC   C4A55542  42.767  39.094   7.245
 4318POPC   C1B55543  43.330  39.558   6.320
 4318POPC   C2B55544  43.004  39.452   6.591
 4318POPC   C3B55545  42.832  39.542   6.966
 4318POPC   C4B55546  43.193  39.523   7.201
 4319POPC   NC355547   2.990  16.285   5.708
 4319POPC   PO455548   2.736  16.612   5.178
 4319POPC   GL155549   2.833  16.772   5.700
 4319POPC   GL255550   3.148  16.992   5.790
 4319POPC   C1A55551   2.689  16.658   6.165
 4319POPC   D2A55552   2.910  16.360   6.483
 4319POPC   C3A55553   3.049  16.495   6.907
 4319POPC   C4A55554   2.986  16.312   7.305
 4319POPC   C1B55555   3.154  16.813   6.226
 4319POPC   C2B55556   2.867  16.868   6.607
 4319POPC   C3B55557   3.000  17.019   7.017
 4319POPC   C4B55558   2.971  17.063   7.464
 4320POPC   NC355559  41.414   2.948   5.169
 4320POPC   PO455560  41.431   2.442   5.547
 4320POPC   GL155561  41.517   2.543   5.927
 4320POPC   GL255562  41.605   2.888   5.850
 4320POPC   C1A55563  41.624   2.698   6.321
 4320POPC   D2A55564  41.567   2.974   6.645
 4320POPC   C3A55565  41.490   2.714   7.008
 4320POPC   C4A55566  41.674   2.660   7.409
 4320POPC   C1B55567  41.394   3.162   6.181
 4320POPC   C2B55568  41.121   3.189   6.552
 4320POPC   C3B55569  41.231   3.152   6.984
 4320POPC   C4B55570  41.328   3.022   7.390
 4321POPC   NC355571  35.926  24.141   5.513
 4321POPC   PO455572  36.389  23.583   5.458
 4321POPC   GL155573  36.336  23.644   5.893
 4321POPC   GL255574  36.309  23.997   5.887
 4321POPC   C1A55575  36.202  23.562   6.329
 4321POPC   D2A55576  36.316  23.676   6.746
 4321POPC   C3A55577  36.305  23.384   7.082
 4321POPC   C4A55578  35.970  23.166   7.244
 4321POPC   C1B55579  36.220  24.073   6.328
 4321POPC   C2B55580  35.895  23.915   6.622
 4321POPC   C3B55581  35.935  23.781   7.090
 4321POPC   C4B55582  35.871  23.812   7.546
 4322POPC   NC355583   3.073  42.742   5.576
 4322POPC   PO455584   3.355  43.281   5.267
 4322POPC   GL155585   3.545  43.043   5.693
 4322POPC   GL255586   3.335  42.832   5.977
 4322POPC   C1A55587   3.601  43.224   6.138
 4322POPC   D2A55588   3.347  43.272   6.517
 4322POPC   C3A55589   3.548  43.230   6.903
 4322POPC   C4A55590   3.622  43.193   7.326
 4322POPC   C1B55591   3.232  42.624   6.385
 4322POPC   C2B55592   3.133  42.857   6.746
 4322POPC   C3B55593   3.260  42.859   7.151
 4322POPC   C4B55594   3.258  42.892   7.589
 4323POPC   NC355595   3.280  18.867   5.503
 4323POPC   PO455596   3.883  19.200   5.337
 4323POPC   GL155597   3.660  19.153   5.722
 4323POPC   GL255598   3.338  19.337   5.728
 4323POPC   C1A55599   3.678  18.826   6.055
 4323POPC   D2A55600   3.696  18.852   6.515
 4323POPC   C3A55601   3.379  18.893   6.866
 4323POPC   C4A55602   3.412  18.844   7.328
 4323POPC   C1B55603   3.459  19.253   6.192
 4323POPC   C2B55604   3.500  19.348   6.636
 4323POPC   C3B55605   3.553  19.403   7.086
 4323POPC   C4B55606   3.434  19.368   7.514
 4324POPC   NC355607  18.938   1.636   5.386
 4324POPC   PO455608  19.561   2.131   5.417
 4324POPC   GL155609  19.284   1.900   5.771
 4324POPC   GL255610  18.896   1.846   5.834
 4324POPC   C1A55611  19.319   1.857   6.250
 4324POPC   D2A55612  19.348   2.074   6.685
 4324POPC   C3A55613  19.105   1.955   7.051
 4324POPC   C4A55614  18.775   1.670   7.163
 4324POPC   C1B55615  18.864   1.591   6.194
 4324POPC   C2B55616  18.923   1.794   6.577
 4324POPC   C3B55617  18.694   2.090   6.793
 4324POPC   C4B55618  18.604   2.139   7.209
 4325POPC   NC355619  36.058   6.253   5.426
 4325POPC   PO455620  35.972   5.614   5.520
 4325POPC   GL155621  35.934   5.702   5.931
 4325POPC   GL255622  36.129   6.008   5.889
 4325POPC   C1A55623  36.079   5.520   6.308
 4325POPC   D2A55624  36.247   5.329   6.655
 4325POPC   C3A55625  36.404   5.629   6.930
 4325POPC   C4A55626  36.247   5.668   7.326
 4325POPC   C1B55627  36.375   5.954   6.262
 4325POPC   C2B55628  36.342   6.112   6.677
 4325POPC   C3B55629  36.072   6.225   7.016
 4325POPC   C4B55630  36.438   6.122   7.216
 4326POPC   NC355631   0.050  22.596   5.619
 4326POPC   PO455632  44.652  22.115   5.436
 4326POPC   GL155633  44.538  22.017   5.854
 4326POPC   GL255634  44.508  22.358   5.928
 4326POPC   C1A55635  44.724  21.910   6.234
 4326POPC   D2A55636  44.760  22.134   6.637
 4326POPC   C3A55637  44.722  21.817   6.948
 4326POPC   C4A55638  44.712  21.607   7.301
 4326POPC   C1B55639  44.333  22.218   6.311
 4326POPC   C2B55640  44.288  21.984   6.682
 4326POPC   C3B55641  44.430  22.211   7.077
 4326POPC   C4B55642  44.526  22.452   7.455
 4327POPC   NC355643  26.980  19.883   5.398
 4327POPC   PO455644  26.686  19.286   5.257
 4327POPC   GL155645  26.665  19.555   5.692
 4327POPC   GL255646  26.594  19.907   5.781
 4327POPC   C1A55647  26.736  19.606   6.181
 4327POPC   D2A55648  26.630  19.883   6.572
 4327POPC   C3A55649  26.642  19.761   7.023
 4327POPC   C4A55650  26.698  19.727   7.475
 4327POPC   C1B55651  27.027  19.990   6.016
 4327POPC   C2B55652  27.159  19.996   6.447
 4327POPC   C3B55653  27.116  19.907   6.883
 4327POPC   C4B55654  26.994  20.072   7.267
 4328POPC   NC355655  14.371  11.455   5.493
 4328POPC   PO455656  14.838  10.946   5.427
 4328POPC   GL155657  14.624  11.102   5.789
 4328POPC   GL255658  14.273  11.050   5.822
 4328POPC   C1A55659  14.508  11.311   6.187
 4328POPC   D2A55660  14.488  11.151   6.582
 4328POPC   C3A55661  14.538  11.348   6.989
 4328POPC   C4A55662  14.747  11.120   7.326
 4328POPC   C1B55663  14.015  11.079   6.191
 4328POPC   C2B55664  13.988  11.257   6.592
 4328POPC   C3B55665  14.094  11.063   6.966
 4328POPC   C4B55666  14.249  11.116   7.392
 4329POPC   NC355667   6.347  41.915   5.368
 4329POPC   PO455668   6.870  42.348   5.450
 4329POPC   GL155669   6.767  42.240   5.864
 4329POPC   GL255670   6.478  42.024   5.847
 4329POPC   C1A55671   6.855  42.441   6.284
 4329POPC   D2A55672   6.665  42.670   6.643
 4329POPC   C3A55673   6.772  42.536   7.063
 4329POPC   C4A55674   6.712  42.707   7.482
 4329POPC   C1B55675   6.351  42.294   6.182
 4329POPC   C2B55676   6.101  42.292   6.524
 4329POPC   C3B55677   6.286  42.428   6.896
 4329POPC   C4B55678   6.464  42.158   7.218
 4330POPC   NC355679  44.673   5.427   5.469
 4330POPC   PO455680  44.354   4.764   5.354
 4330POPC   GL155681  44.572   4.943   5.764
 4330POPC   GL255682  44.931   5.052   5.750
 4330POPC   C1A55683  44.552   4.987   6.256
 4330POPC   D2A55684  44.484   4.867   6.738
 4330POPC   C3A55685  44.398   5.120   7.131
 4330POPC   C4A55686  44.351   5.201   7.591
 4330POPC   C1B55687   0.042   5.168   6.178
 4330POPC   C2B55688  44.889   5.228   6.586
 4330POPC   C3B55689   0.049   5.172   6.995
 4330POPC   C4B55690  44.857   5.261   7.385
 4331POPC   NC355691   8.448   3.803   5.432
 4331POPC   PO455692   8.108   3.183   5.576
 4331POPC   GL155693   8.344   3.434   5.874
 4331POPC   GL255694   8.153   3.756   5.848
 4331POPC   C1A55695   8.290   3.536   6.348
 4331POPC   D2A55696   8.023   3.795   6.669
 4331POPC   C3A55697   8.066   3.684   7.129
 4331POPC   C4A55698   8.447   3.430   7.304
 4331POPC   C1B55699   8.473   3.936   6.083
 4331POPC   C2B55700   8.494   3.978   6.533
 4331POPC   C3B55701   8.536   3.772   6.910
 4331POPC   C4B55702   8.466   3.934   7.322
 4332POPC   NC355703  10.675  31.606   5.345
 4332POPC   PO455704  10.146  31.172   5.591
 4332POPC   GL155705  10.576  31.373   5.792
 4332POPC   GL255706  10.696  31.775   5.825
 4332POPC   C1A55707  10.755  31.426   6.220
 4332POPC   D2A55708  10.627  31.250   6.616
 4332POPC   C3A55709  10.602  31.465   7.008
 4332POPC   C4A55710  10.533  31.292   7.449
 4332POPC   C1B55711  10.318  31.700   6.109
 4332POPC   C2B55712  10.275  31.685   6.588
 4332POPC   C3B55713  10.180  31.724   7.043
 4332POPC   C4B55714  10.527  31.792   7.386
 4333POPC   NC355715  31.707  41.766   5.442
 4333POPC   PO455716  31.545  41.113   5.274
 4333POPC   GL155717  31.574  41.336   5.704
 4333POPC   GL255718  31.237  41.485   5.842
 4333POPC   C1A55719  31.618  41.396   6.182
 4333POPC   D2A55720  31.393  41.405   6.604
 4333POPC   C3A55721  31.679  41.403   6.980
 4333POPC   C4A55722  31.596  41.383   7.425
 4333POPC   C1B55723  31.250  41.750   6.252
 4333POPC   C2B55724  31.376  41.896   6.680
 4333POPC   C3B55725  31.374  41.799   7.116
 4333POPC   C4B55726  31.211  42.025   7.435
 4334POPC   NC355727  14.558  42.859   5.467
 4334POPC   PO455728  14.280  43.432   5.649
 4334POPC   GL155729  14.339  43.070   5.902
 4334POPC   GL255730  14.680  43.125   5.954
 4334POPC   C1A55731  14.219  42.909   6.320
 4334POPC   D2A55732  14.158  42.958   6.767
 4334POPC   C3A55733  14.083  42.875   7.199
 4334POPC   C4A55734  14.078  43.176   7.561
 4334POPC   C1B55735  14.485  43.371   6.314
 4334POPC   C2B55736  14.460  43.413   6.781
 4334POPC   C3B55737  14.451  43.211   7.154
 4334POPC   C4B55738  14.671  42.808   7.188
 4335POPC   NC355739  26.253   2.401   5.151
 4335POPC   PO455740  25.794   2.201   5.571
 4335POPC   GL155741  25.957   2.006   5.930
 4335POPC   GL255742  26.281   1.912   5.860
 4335POPC   C1A55743  25.998   1.751   6.304
 4335POPC   D2A55744  25.701   1.792   6.639
 4335POPC   C3A55745  25.702   2.161   6.942
 4335POPC   C4A55746  25.720   2.099   7.427
 4335POPC   C1B55747  26.366   2.123   6.282
 4335POPC   C2B55748  26.124   2.132   6.665
 4335POPC   C3B55749  26.058   1.819   7.007
 4335POPC   C4B55750  26.188   1.840   7.421
 4336POPC   NC355751   1.898  31.884   5.140
 4336POPC   PO455752   2.136  32.406   5.592
 4336POPC   GL155753   1.919  32.192   5.921
 4336POPC   GL255754   2.235  32.196   6.112
 4336POPC   C1A55755   1.816  32.390   6.329
 4336POPC   D2A55756   2.204  32.462   6.602
 4336POPC   C3A55757   2.116  32.420   7.040
 4336POPC   C4A55758   1.682  32.254   7.111
 4336POPC   C1B55759   2.027  31.944   6.448
 4336POPC   C2B55760   1.939  31.851   6.877
 4336POPC   C3B55761   2.190  31.951   7.220
 4336POPC   C4B55762   1.999  32.227   7.531
 4337POPC   NC355763  42.068   5.601   5.495
 4337POPC   PO455764  42.369   6.250   5.480
 4337POPC   GL155765  42.442   6.031   5.881
 4337POPC   GL255766  42.458   5.658   5.848
 4337POPC   C1A55767  42.437   5.926   6.326
 4337POPC   D2A55768  42.158   5.958   6.699
 4337POPC   C3A55769  42.384   6.019   7.097
 4337POPC   C4A55770  42.283   6.025   7.544
 4337POPC   C1B55771  42.113   5.588   6.175
 4337POPC   C2B55772  42.181   5.449   6.604
 4337POPC   C3B55773  42.104   5.571   7.047
 4337POPC   C4B55774  42.247   5.506   7.469
 4338POPC   NC355775  17.598  13.411   5.312
 4338POPC   PO455776  17.381  14.005   5.435
 4338POPC   GL155777  17.592  13.750   5.754
 4338POPC   GL255778  17.733  13.400   5.799
 4338POPC   C1A55779  17.519  13.750   6.185
 4338POPC   D2A55780  17.603  13.628   6.597
 4338POPC   C3A55781  17.696  13.868   6.937
 4338POPC   C4A55782  17.491  13.894   7.329
 4338POPC   C1B55783  17.687  13.254   6.209
 4338POPC   C2B55784  17.726  13.149   6.638
 4338POPC   C3B55785  17.556  13.318   7.020
 4338POPC   C4B55786  17.624  13.144   7.420
 4339POPC   NC355787  18.308  14.732   5.459
 4339POPC   PO455788  18.585  15.297   5.522
 4339POPC   GL155789  18.232  15.361   5.810
 4339POPC   GL255790  18.081  15.032   5.918
 4339POPC   C1A55791  18.304  15.415   6.248
 4339POPC   D2A55792  18.575  15.191   6.548
 4339POPC   C3A55793  18.529  15.317   6.990
 4339POPC   C4A55794  18.543  15.351   7.431
 4339POPC   C1B55795  17.926  15.099   6.350
 4339POPC   C2B55796  18.089  15.224   6.751
 4339POPC   C3B55797  18.145  15.021   7.152
 4339POPC   C4B55798  17.765  15.073   7.322
 4340POPC   NC355799  16.499  17.877   5.441
 4340POPC   PO455800  16.695  17.223   5.525
 4340POPC   GL155801  16.653  17.447   5.906
 4340POPC   GL255802  16.805  17.704   5.827
 4340POPC   C1A55803  16.889  17.660   6.309
 4340POPC   D2A55804  17.010  17.882   6.702
 4340POPC   C3A55805  17.034  17.509   6.995
 4340POPC   C4A55806  16.720  17.220   7.181
 4340POPC   C1B55807  16.484  17.913   6.107
 4340POPC   C2B55808  16.486  17.900   6.556
 4340POPC   C3B55809  16.527  17.674   6.948
 4340POPC   C4B55810  16.378  17.826   7.373
 4341POPC   NC355811   3.820  35.544   5.559
 4341POPC   PO455812   3.334  35.134   5.479
 4341POPC   GL155813   3.546  35.171   5.858
 4341POPC   GL255814   3.526  35.543   5.963
 4341POPC   C1A55815   3.419  35.187   6.294
 4341POPC   D2A55816   3.522  35.531   6.579
 4341POPC   C3A55817   3.339  35.515   6.977
 4341POPC   C4A55818   3.398  35.194   7.229
 4341POPC   C1B55819   3.889  35.672   6.249
 4341POPC   C2B55820   4.029  35.671   6.702
 4341POPC   C3B55821   3.785  35.713   7.071
 4341POPC   C4B55822   3.663  35.570   7.492
 4342POPC   NC355823   9.744  34.848   5.276
 4342POPC   PO455824   9.760  34.260   5.330
 4342POPC   GL155825   9.835  34.547   5.686
 4342POPC   GL255826  10.080  34.845   5.662
 4342POPC   C1A55827   9.777  34.514   6.138
 4342POPC   D2A55828   9.406  34.494   6.399
 4342POPC   C3A55829   9.425  34.503   6.854
 4342POPC   C4A55830   9.352  34.616   7.292
 4342POPC   C1B55831   9.850  35.003   6.035
 4342POPC   C2B55832   9.765  34.911   6.510
 4342POPC   C3B55833   9.862  34.800   6.965
 4342POPC   C4B55834   9.914  34.840   7.424
 4343POPC   NC355835  33.504  28.598   5.405
 4343POPC   PO455836  33.849  27.981   5.569
 4343POPC   GL155837  33.768  28.194   5.922
 4343POPC   GL255838  33.728  28.563   5.886
 4343POPC   C1A55839  33.942  28.347   6.302
 4343POPC   D2A55840  33.889  28.615   6.643
 4343POPC   C3A55841  33.801  28.389   7.008
 4343POPC   C4A55842  34.091  28.328   7.366
 4343POPC   C1B55843  33.539  28.727   6.284
 4343POPC   C2B55844  33.375  28.633   6.691
 4343POPC   C3B55845  33.507  28.842   7.073
 4343POPC   C4B55846  33.772  28.722   7.409
 4344POPC   NC355847  21.128  17.614   5.535
 4344POPC   PO455848  21.760  17.301   5.366
 4344POPC   GL155849  21.531  17.343   5.801
 4344POPC   GL255850  21.480  17.711   5.916
 4344POPC   C1A55851  21.249  17.354   6.199
 4344POPC   D2A55852  21.170  17.527   6.630
 4344POPC   C3A55853  21.171  17.295   7.041
 4344POPC   C4A55854  21.301  17.417   7.485
 4344POPC   C1B55855  21.595  17.709   6.379
 4344POPC   C2B55856  21.702  17.392   6.699
 4344POPC   C3B55857  21.671  17.359   7.155
 4344POPC   C4B55858  21.688  17.737   7.459
 4345POPC   NC355859  22.376  30.495   5.375
 4345POPC   PO455860  21.959  31.159   5.502
 4345POPC   GL155861  22.295  30.997   5.785
 4345POPC   GL255862  22.177  30.663   5.822
 4345POPC   C1A55863  22.288  30.881   6.258
 4345POPC   D2A55864  21.945  30.852   6.565
 4345POPC   C3A55865  21.956  30.815   7.004
 4345POPC   C4A55866  22.326  30.953   7.208
 4345POPC   C1B55867  21.962  30.461   6.199
 4345POPC   C2B55868  22.093  30.311   6.617
 4345POPC   C3B55869  21.952  30.293   7.013
 4345POPC   C4B55870  22.151  30.465   7.323
 4346POPC   NC355871  10.332  19.537   5.398
 4346POPC   PO455872  10.792  20.146   5.383
 4346POPC   GL155873  10.601  19.908   5.701
 4346POPC   GL255874  10.236  19.936   5.738
 4346POPC   C1A55875  10.587  19.743   6.121
 4346POPC   D2A55876  10.400  19.647   6.514
 4346POPC   C3A55877  10.614  19.793   6.874
 4346POPC   C4A55878  10.472  19.664   7.269
 4346POPC   C1B55879  10.335  20.184   6.088
 4346POPC   C2B55880  10.339  20.159   6.532
 4346POPC   C3B55881  10.182  20.053   6.942
 4346POPC   C4B55882  10.245  20.096   7.378
 4347POPC   NC355883  21.088   0.213   5.468
 4347POPC   PO455884  21.471   0.775   5.348
 4347POPC   GL155885  21.410   0.542   5.698
 4347POPC   GL255886  21.070   0.647   5.780
 4347POPC   C1A55887  21.380   0.311   6.088
 4347POPC   D2A55888  21.525   0.456   6.488
 4347POPC   C3A55889  21.359   0.173   6.804
 4347POPC   C4A55890  21.384   0.279   7.235
 4347POPC   C1B55891  21.218   0.779   6.187
 4347POPC   C2B55892  21.057   0.634   6.579
 4347POPC   C3B55893  21.296   0.677   6.944
 4347POPC   C4B55894  21.132   0.752   7.326
 4348POPC   NC355895  12.282   6.776   5.390
 4348POPC   PO455896  11.658   6.602   5.481
 4348POPC   GL155897  11.953   6.653   5.797
 4348POPC   GL255898  12.151   6.368   5.834
 4348POPC   C1A55899  12.165   6.770   6.183
 4348POPC   D2A55900  12.251   6.562   6.578
 4348POPC   C3A55901  12.071   6.789   6.926
 4348POPC   C4A55902  12.096   7.108   7.267
 4348POPC   C1B55903  11.935   6.303   6.228
 4348POPC   C2B55904  11.818   6.290   6.675
 4348POPC   C3B55905  12.032   6.258   7.062
 4348POPC   C4B55906  12.204   6.527   7.326
 4349POPC   NC355907  30.888  38.804   5.422
 4349POPC   PO455908  30.561  39.431   5.389
 4349POPC   GL155909  30.695  39.225   5.728
 4349POPC   GL255910  30.460  38.920   5.745
 4349POPC   C1A55911  30.840  39.420   6.109
 4349POPC   D2A55912  30.857  39.566   6.541
 4349POPC   C3A55913  30.595  39.413   6.894
 4349POPC   C4A55914  30.736  39.333   7.327
 4349POPC   C1B55915  30.746  38.905   6.105
 4349POPC   C2B55916  30.799  39.059   6.532
 4349POPC   C3B55917  30.911  38.988   6.964
 4349POPC   C4B55918  30.623  38.832   7.276
 4350POPC   NC355919   3.582  25.622   5.641
 4350POPC   PO455920   3.088  25.227   5.283
 4350POPC   GL155921   3.127  25.444   5.735
 4350POPC   GL255922   3.403  25.232   5.886
 4350POPC   C1A55923   3.231  25.542   6.233
 4350POPC   D2A55924   3.361  25.670   6.664
 4350POPC   C3A55925   3.280  25.419   7.035
 4350POPC   C4A55926   3.455  25.412   7.437
 4350POPC   C1B55927   3.518  25.113   6.280
 4350POPC   C2B55928   3.674  25.247   6.682
 4350POPC   C3B55929   3.710  25.108   7.090
 4350POPC   C4B55930   3.348  24.936   7.286
 4351POPC   NC355931  30.547   4.871   5.479
 4351POPC   PO455932  30.895   5.462   5.457
 4351POPC   GL155933  30.740   5.244   5.810
 4351POPC   GL255934  30.923   4.913   5.878
 4351POPC   C1A55935  30.525   5.218   6.212
 4351POPC   D2A55936  30.466   5.024   6.627
 4351POPC   C3A55937  30.624   5.240   7.016
 4351POPC   C4A55938  30.371   5.301   7.388
 4351POPC   C1B55939  30.896   4.862   6.341
 4351POPC   C2B55940  30.908   4.857   6.798
 4351POPC   C3B55941  30.837   4.768   7.220
 4351POPC   C4B55942  31.224   4.748   7.474
 4352POPC   NC355943  33.188  41.826   5.352
 4352POPC   PO455944  32.936  42.535   5.271
 4352POPC   GL155945  33.017  42.443   5.715
 4352POPC   GL255946  33.284  42.195   5.737
 4352POPC   C1A55947  33.096  42.484   6.155
 4352POPC   D2A55948  33.195  42.429   6.594
 4352POPC   C3A55949  32.978  42.636   6.918
 4352POPC   C4A55950  33.029  42.471   7.326
 4352POPC   C1B55951  33.283  41.970   6.142
 4352POPC   C2B55952  33.362  41.909   6.591
 4352POPC   C3B55953  33.174  42.078   6.977
 4352POPC   C4B55954  33.215  41.990   7.396
 4353POPC   NC355955  15.409   1.320   5.178
 4353POPC   PO455956  15.200   0.858   5.612
 4353POPC   GL155957  15.253   1.269   5.759
 4353POPC   GL255958  14.973   1.511   5.608
 4353POPC   C1A55959  15.393   1.278   6.212
 4353POPC   D2A55960  15.181   1.226   6.618
 4353POPC   C3A55961  15.388   1.292   7.008
 4353POPC   C4A55962  15.291   1.130   7.411
 4353POPC   C1B55963  14.972   1.536   6.084
 4353POPC   C2B55964  14.759   1.475   6.457
 4353POPC   C3B55965  14.771   1.502   6.904
 4353POPC   C4B55966  14.883   1.428   7.371
 4354POPC   NC355967  39.590  15.941   5.455
 4354POPC   PO455968  38.963  16.315   5.405
 4354POPC   GL155969  39.217  16.055   5.780
 4354POPC   GL255970  39.072  15.712   5.842
 4354POPC   C1A55971  39.379  15.903   6.226
 4354POPC   D2A55972  39.323  16.053   6.653
 4354POPC   C3A55973  39.529  15.954   7.052
 4354POPC   C4A55974  39.309  16.237   7.351
 4354POPC   C1B55975  38.907  15.615   6.214
 4354POPC   C2B55976  38.993  15.648   6.624
 4354POPC   C3B55977  39.071  15.716   7.030
 4354POPC   C4B55978  38.829  15.791   7.383
 4355POPC   NC355979  42.183  27.136   5.381
 4355POPC   PO455980  41.695  27.645   5.364
 4355POPC   GL155981  41.533  27.462   5.738
 4355POPC   GL255982  41.863  27.503   5.874
 4355POPC   C1A55983  41.316  27.472   6.144
 4355POPC   D2A55984  41.514  27.409   6.529
 4355POPC   C3A55985  41.330  27.463   6.917
 4355POPC   C4A55986  41.589  27.495   7.267
 4355POPC   C1B55987  41.949  27.791   6.234
 4355POPC   C2B55988  41.896  27.777   6.700
 4355POPC   C3B55989  41.767  27.956   7.101
 4355POPC   C4B55990  41.827  27.866   7.564
 4356POPC   NC355991  35.255  12.253   5.334
 4356POPC   PO455992  35.646  11.802   5.630
 4356POPC   GL155993  35.241  11.969   5.801
 4356POPC   GL255994  35.129  12.334   5.824
 4356POPC   C1A55995  35.237  11.823   6.211
 4356POPC   D2A55996  35.475  11.767   6.561
 4356POPC   C3A55997  35.153  11.816   6.865
 4356POPC   C4A55998  35.112  12.060   7.225
 4356POPC   C1B55999  35.367  12.330   6.214
 4356POPC   C2B56000  35.383  12.257   6.659
 4356POPC   C3B56001  35.372  12.483   7.049
 4356POPC   C4B56002  35.221  12.508   7.479
 4357POPC   NC356003  33.284   7.078   5.517
 4357POPC   PO456004  32.910   7.667   5.502
 4357POPC   GL156005  33.189   7.532   5.843
 4357POPC   GL256006  33.095   7.198   5.959
 4357POPC   C1A56007  33.360   7.496   6.268
 4357POPC   D2A56008  33.065   7.541   6.629
 4357POPC   C3A56009  33.152   7.425   7.099
 4357POPC   C4A56010  33.125   7.736   7.447
 4357POPC   C1B56011  32.756   6.956   6.094
 4357POPC   C2B56012  32.722   6.814   6.486
 4357POPC   C3B56013  32.895   7.048   6.814
 4357POPC   C4B56014  32.764   7.079   7.216
 4358POPC   NC356015  42.814  30.141   5.162
 4358POPC   PO456016  43.256  29.708   5.335
 4358POPC   GL156017  43.056  29.739   5.769
 4358POPC   GL256018  42.855  30.028   5.923
 4358POPC   C1A56019  42.872  29.606   6.192
 4358POPC   D2A56020  42.836  29.869   6.584
 4358POPC   C3A56021  43.076  29.774   6.961
 4358POPC   C4A56022  43.500  29.911   7.100
 4358POPC   C1B56023  43.230  29.986   6.224
 4358POPC   C2B56024  43.368  30.187   6.621
 4358POPC   C3B56025  43.197  30.303   7.012
 4358POPC   C4B56026  42.830  30.160   7.244
 4359POPC   NC356027  18.691  31.446   5.413
 4359POPC   PO456028  19.182  30.997   5.406
 4359POPC   GL156029  19.181  31.312   5.746
 4359POPC   GL256030  18.836  31.375   5.895
 4359POPC   C1A56031  19.219  31.203   6.182
 4359POPC   D2A56032  18.979  31.235   6.558
 4359POPC   C3A56033  19.161  31.260   6.938
 4359POPC   C4A56034  19.318  31.234   7.331
 4359POPC   C1B56035  18.939  31.638   6.249
 4359POPC   C2B56036  19.144  31.725   6.650
 4359POPC   C3B56037  19.174  31.752   7.124
 4359POPC   C4B56038  18.901  31.714   7.489
 4360POPC   NC356039  39.557   1.038   5.265
 4360POPC   PO456040  39.041   1.331   5.440
 4360POPC   GL156041  39.270   1.200   5.812
 4360POPC   GL256042  39.643   1.120   5.782
 4360POPC   C1A56043  39.211   1.327   6.266
 4360POPC   D2A56044  39.444   1.372   6.655
 4360POPC   C3A56045  39.219   1.519   7.028
 4360POPC   C4A56046  39.121   1.455   7.455
 4360POPC   C1B56047  39.581   0.975   6.216
 4360POPC   C2B56048  39.272   0.865   6.549
 4360POPC   C3B56049  39.343   0.983   6.972
 4360POPC   C4B56050  39.548   1.201   7.266
 4361POPC   NC356051  12.441   4.664   5.478
 4361POPC   PO456052  12.058   4.088   5.458
 4361POPC   GL156053  12.335   4.228   5.759
 4361POPC   GL256054  12.123   4.528   5.861
 4361POPC   C1A56055  12.368   4.249   6.200
 4361POPC   D2A56056  12.147   4.407   6.536
 4361POPC   C3A56057  12.258   4.344   6.933
 4361POPC   C4A56058  12.211   4.050   7.218
 4361POPC   C1B56059  11.828   4.647   6.197
 4361POPC   C2B56060  11.848   4.810   6.640
 4361POPC   C3B56061  11.958   4.766   7.062
 4361POPC   C4B56062  12.067   4.539   7.430
 4362POPC   NC356063  28.905   4.489   5.375
 4362POPC   PO456064  29.445   4.091   5.350
 4362POPC   GL156065  29.281   4.304   5.713
 4362POPC   GL256066  29.004   4.110   5.804
 4362POPC   C1A56067  29.336   4.290   6.179
 4362POPC   D2A56068  29.383   4.602   6.515
 4362POPC   C3A56069  29.335   4.438   6.923
 4362POPC   C4A56070  29.499   4.006   7.045
 4362POPC   C1B56071  28.842   4.160   6.242
 4362POPC   C2B56072  29.010   4.094   6.670
 4362POPC   C3B56073  28.989   4.128   7.130
 4362POPC   C4B56074  28.792   4.139   7.571
 4363POPC   NC356075   2.496  17.797   5.423
 4363POPC   PO456076   2.310  17.222   5.445
 4363POPC   GL156077   2.500  17.435   5.813
 4363POPC   GL256078   2.887  17.443   5.748
 4363POPC   C1A56079   2.705  17.716   6.146
 4363POPC   D2A56080   2.954  17.734   6.526
 4363POPC   C3A56081   2.749  17.672   6.919
 4363POPC   C4A56082   2.828  17.854   7.322
 4363POPC   C1B56083   2.813  17.201   6.142
 4363POPC   C2B56084   2.587  17.318   6.518
 4363POPC   C3B56085   2.522  17.148   6.921
 4363POPC   C4B56086   2.614  17.368   7.291
 4364POPC   NC356087  42.257   3.303   5.448
 4364POPC   PO456088  42.550   2.788   5.148
 4364POPC   GL156089  42.440   2.730   5.609
 4364POPC   GL256090  42.151   2.918   5.771
 4364POPC   C1A56091  42.547   2.827   6.072
 4364POPC   D2A56092  42.467   3.136   6.404
 4364POPC   C3A56093  42.425   3.070   6.867
 4364POPC   C4A56094  42.611   2.915   7.237
 4364POPC   C1B56095  42.001   3.041   6.181
 4364POPC   C2B56096  42.048   2.854   6.606
 4364POPC   C3B56097  41.937   2.999   7.033
 4364POPC   C4B56098  42.126   2.924   7.429
 4365POPC   NC356099   9.659  33.118   5.267
 4365POPC   PO456100   9.514  32.462   5.309
 4365POPC   GL156101   9.593  32.710   5.698
 4365POPC   GL256102   9.760  33.039   5.766
 4365POPC   C1A56103   9.587  32.741   6.162
 4365POPC   D2A56104   9.753  33.003   6.498
 4365POPC   C3A56105   9.675  32.868   6.936
 4365POPC   C4A56106   9.541  33.047   7.330
 4365POPC   C1B56107  10.081  33.096   6.097
 4365POPC   C2B56108  10.261  32.981   6.503
 4365POPC   C3B56109  10.088  33.178   6.867
 4365POPC   C4B56110  10.058  33.064   7.287
 4366POPC   NC356111  18.143  27.443   5.399
 4366POPC   PO456112  18.773  27.678   5.361
 4366POPC   GL156113  18.546  27.562   5.757
 4366POPC   GL256114  18.243  27.687   5.841
 4366POPC   C1A56115  18.415  27.312   6.150
 4366POPC   D2A56116  18.443  27.508   6.594
 4366POPC   C3A56117  18.334  27.299   6.990
 4366POPC   C4A56118  18.573  27.247   7.380
 4366POPC   C1B56119  18.143  27.731   6.242
 4366POPC   C2B56120  18.141  27.927   6.634
 4366POPC   C3B56121  18.275  27.845   7.031
 4366POPC   C4B56122  18.231  27.613   7.415
 4367POPC   NC356123  14.682  19.861   5.450
 4367POPC   PO456124  14.015  19.554   5.403
 4367POPC   GL156125  14.277  19.633   5.736
 4367POPC   GL256126  14.301  19.980   5.780
 4367POPC   C1A56127  14.325  19.588   6.197
 4367POPC   D2A56128  14.458  19.489   6.630
 4367POPC   C3A56129  14.635  19.776   6.952
 4367POPC   C4A56130  14.355  19.600   7.255
 4367POPC   C1B56131  14.532  20.062   6.123
 4367POPC   C2B56132  14.428  20.011   6.551
 4367POPC   C3B56133  14.153  19.936   6.923
 4367POPC   C4B56134  14.128  20.099   7.355
 4368POPC   NC356135  43.478  14.718   5.674
 4368POPC   PO456136  43.826  14.330   5.195
 4368POPC   GL156137  43.941  14.475   5.674
 4368POPC   GL256138  44.063  14.216   5.909
 4368POPC   C1A56139  43.900  14.626   6.161
 4368POPC   D2A56140  43.913  14.482   6.606
 4368POPC   C3A56141  43.943  14.627   7.037
 4368POPC   C4A56142  43.963  14.409   7.453
 4368POPC   C1B56143  43.900  14.085   6.270
 4368POPC   C2B56144  43.744  13.985   6.654
 4368POPC   C3B56145  43.877  14.120   7.010
 4368POPC   C4B56146  43.778  13.942   7.336
 4369POPC   NC356147  19.659  10.286   5.306
 4369POPC   PO456148  19.901  10.873   5.640
 4369POPC   GL156149  19.902  10.530   5.926
 4369POPC   GL256150  19.613  10.326   5.816
 4369POPC   C1A56151  20.063  10.471   6.369
 4369POPC   D2A56152  19.963  10.114   6.633
 4369POPC   C3A56153  19.997  10.182   7.064
 4369POPC   C4A56154  19.953  10.500   7.350
 4369POPC   C1B56155  19.621  10.237   6.250
 4369POPC   C2B56156  19.579  10.459   6.632
 4369POPC   C3B56157  19.515  10.306   7.027
 4369POPC   C4B56158  19.606  10.129   7.412
 4370POPC   NC356159   0.991  18.573   5.405
 4370POPC   PO456160   1.120  19.206   5.390
 4370POPC   GL156161   1.190  19.172   5.809
 4370POPC   GL256162   0.877  19.360   5.862
 4370POPC   C1A56163   1.422  19.022   6.230
 4370POPC   D2A56164   1.463  19.257   6.631
 4370POPC   C3A56165   1.449  18.998   6.986
 4370POPC   C4A56166   1.312  18.935   7.408
 4370POPC   C1B56167   0.924  19.048   6.226
 4370POPC   C2B56168   1.040  18.932   6.664
 4370POPC   C3B56169   0.883  18.950   7.106
 4370POPC   C4B56170   0.792  18.958   7.579
 4371POPC   NC356171  28.587  10.466   5.343
 4371POPC   PO456172  28.001  10.719   5.414
 4371POPC   GL156173  28.252  10.535   5.755
 4371POPC   GL256174  28.534  10.762   5.784
 4371POPC   C1A56175  28.319  10.333   6.170
 4371POPC   D2A56176  28.557  10.356   6.574
 4371POPC   C3A56177  28.318  10.406   6.942
 4371POPC   C4A56178  28.387  10.496   7.358
 4371POPC   C1B56179  28.661  10.729   6.209
 4371POPC   C2B56180  28.749  10.841   6.610
 4371POPC   C3B56181  28.747  10.715   7.023
 4371POPC   C4B56182  28.611  10.936   7.402
 4372POPC   NC356183  12.120  20.533   5.155
 4372POPC   PO456184  11.665  20.188   5.545
 4372POPC   GL156185  11.897  20.421   5.831
 4372POPC   GL256186  12.020  20.695   5.689
 4372POPC   C1A56187  11.775  20.695   6.157
 4372POPC   D2A56188  11.721  20.515   6.549
 4372POPC   C3A56189  11.740  20.729   6.903
 4372POPC   C4A56190  11.871  20.499   7.236
 4372POPC   C1B56191  12.223  20.919   6.039
 4372POPC   C2B56192  12.192  20.757   6.470
 4372POPC   C3B56193  12.255  20.696   6.910
 4372POPC   C4B56194  12.177  20.903   7.264
 4373POPC   NC356195  19.310  29.776   5.359
 4373POPC   PO456196  18.739  30.116   5.239
 4373POPC   GL156197  18.956  29.919   5.696
 4373POPC   GL256198  19.311  30.067   5.789
 4373POPC   C1A56199  19.012  29.950   6.193
 4373POPC   D2A56200  19.304  30.121   6.577
 4373POPC   C3A56201  19.140  30.004   6.972
 4373POPC   C4A56202  19.139  29.545   7.028
 4373POPC   C1B56203  19.503  29.822   6.156
 4373POPC   C2B56204  19.707  29.804   6.591
 4373POPC   C3B56205  19.614  29.810   7.054
 4373POPC   C4B56206  19.561  30.161   7.368
 4374POPC   NC356207   3.012   9.569   5.685
 4374POPC   PO456208   2.596  10.068   5.491
 4374POPC   GL156209   2.766   9.973   5.856
 4374POPC   GL256210   3.019  10.183   5.828
 4374POPC   C1A56211   2.806   9.755   6.261
 4374POPC   D2A56212   2.511   9.692   6.582
 4374POPC   C3A56213   2.646   9.755   6.985
 4374POPC   C4A56214   2.650   9.537   7.365
 4374POPC   C1B56215   2.888  10.258   6.250
 4374POPC   C2B56216   2.889  10.069   6.641
 4374POPC   C3B56217   3.118   9.992   6.977
 4374POPC   C4B56218   3.153   9.663   7.275
 4375POPC   NC356219   6.144  22.169   5.430
 4375POPC   PO456220   5.631  21.781   5.361
 4375POPC   GL156221   5.776  21.983   5.765
 4375POPC   GL256222   5.740  22.336   5.727
 4375POPC   C1A56223   6.025  22.188   6.138
 4375POPC   D2A56224   6.127  22.127   6.585
 4375POPC   C3A56225   5.852  21.880   6.842
 4375POPC   C4A56226   6.034  21.688   7.163
 4375POPC   C1B56227   5.584  22.446   6.123
 4375POPC   C2B56228   5.798  22.530   6.511
 4375POPC   C3B56229   5.736  22.369   6.915
 4375POPC   C4B56230   5.899  22.226   7.306
 4376POPC   NC356231  42.901  17.728   5.502
 4376POPC   PO456232  43.373  17.200   5.354
 4376POPC   GL156233  43.119  17.296   5.677
 4376POPC   GL256234  43.285  17.596   5.845
 4376POPC   C1A56235  42.937  17.303   6.092
 4376POPC   D2A56236  43.187  17.427   6.441
 4376POPC   C3A56237  43.040  17.601   6.832
 4376POPC   C4A56238  43.146  17.477   7.253
 4376POPC   C1B56239  43.512  17.758   6.214
 4376POPC   C2B56240  43.597  17.690   6.667
 4376POPC   C3B56241  43.612  17.657   7.139
 4376POPC   C4B56242  43.360  17.848   7.523
 4377POPC   NC356243   0.916  44.903   5.294
 4377POPC   PO456244   1.167  44.276   5.519
 4377POPC   GL156245   0.953  44.586   5.738
 4377POPC   GL256246   1.227  44.817   5.745
 4377POPC   C1A56247   1.063  44.590   6.177
 4377POPC   D2A56248   1.254  44.704   6.558
 4377POPC   C3A56249   1.145  44.466   6.939
 4377POPC   C4A56250   1.460  44.403   7.273
 4377POPC   C1B56251   1.329   0.064   6.142
 4377POPC   C2B56252   1.368   0.240   6.571
 4377POPC   C3B56253   1.171   0.054   6.929
 4377POPC   C4B56254   1.166  44.823   7.306
 4378POPC   NC356255  26.816   3.093   5.511
 4378POPC   PO456256  27.191   2.524   5.660
 4378POPC   GL156257  27.025   2.465   6.043
 4378POPC   GL256258  26.799   2.766   5.996
 4378POPC   C1A56259  26.758   2.461   6.408
 4378POPC   D2A56260  26.772   2.816   6.681
 4378POPC   C3A56261  26.919   2.854   7.106
 4378POPC   C4A56262  26.930   2.789   7.574
 4378POPC   C1B56263  26.456   2.891   6.290
 4378POPC   C2B56264  26.214   3.070   6.652
 4378POPC   C3B56265  26.475   3.080   6.980
 4378POPC   C4B56266  26.525   3.037   7.375
 4379POPC   NC356267  19.537  25.486   5.194
 4379POPC   PO456268  19.939  24.931   5.370
 4379POPC   GL156269  19.943  25.070   5.775
 4379POPC   GL256270  19.835  25.394   5.687
 4379POPC   C1A56271  19.799  24.932   6.193
 4379POPC   D2A56272  19.507  24.933   6.565
 4379POPC   C3A56273  19.609  24.910   7.013
 4379POPC   C4A56274  19.967  24.969   7.214
 4379POPC   C1B56275  19.633  25.403   6.103
 4379POPC   C2B56276  19.843  25.336   6.508
 4379POPC   C3B56277  19.821  25.365   6.946
 4379POPC   C4B56278  20.101  25.510   7.298
 4380POPC   NC356279  16.947  42.385   5.281
 4380POPC   PO456280  17.585  42.206   5.352
 4380POPC   GL156281  17.595  42.392   5.771
 4380POPC   GL256282  17.866  42.624   5.760
 4380POPC   C1A56283  17.433  42.235   6.187
 4380POPC   D2A56284  17.322  42.334   6.608
 4380POPC   C3A56285  17.316  42.095   6.980
 4380POPC   C4A56286  17.197  42.329   7.339
 4380POPC   C1B56287  17.878  42.508   6.207
 4380POPC   C2B56288  17.824  42.280   6.593
 4380POPC   C3B56289  17.723  42.431   7.014
 4380POPC   C4B56290  18.031  42.338   7.322
 4381POPC   NC356291   6.952  41.899   5.502
 4381POPC   PO456292   6.423  41.446   5.409
 4381POPC   GL156293   6.495  41.471   5.879
 4381POPC   GL256294   6.799  41.642   5.901
 4381POPC   C1A56295   6.691  41.429   6.328
 4381POPC   D2A56296   6.855  41.637   6.696
 4381POPC   C3A56297   6.581  41.676   7.033
 4381POPC   C4A56298   6.352  41.405   7.213
 4381POPC   C1B56299   6.747  41.937   6.280
 4381POPC   C2B56300   6.664  42.119   6.712
 4381POPC   C3B56301   6.940  42.023   7.087
 4381POPC   C4B56302   6.936  41.890   7.532
 4382POPC   NC356303   4.473  13.026   5.501
 4382POPC   PO456304   3.928  12.459   5.545
 4382POPC   GL156305   4.164  12.782   5.833
 4382POPC   GL256306   4.533  12.734   5.907
 4382POPC   C1A56307   4.157  13.067   6.235
 4382POPC   D2A56308   4.055  13.166   6.709
 4382POPC   C3A56309   4.313  12.985   7.060
 4382POPC   C4A56310   4.614  12.638   7.149
 4382POPC   C1B56311   4.694  13.029   6.226
 4382POPC   C2B56312   4.856  12.936   6.668
 4382POPC   C3B56313   4.828  13.104   7.081
 4382POPC   C4B56314   4.711  13.007   7.504
 4383POPC   NC356315  16.383   4.516   5.460
 4383POPC   PO456316  16.968   4.173   5.337
 4383POPC   GL156317  16.758   4.238   5.723
 4383POPC   GL256318  17.037   4.312   5.874
 4383POPC   C1A56319  16.567   4.288   6.162
 4383POPC   D2A56320  16.260   4.400   6.534
 4383POPC   C3A56321  16.426   4.230   6.956
 4383POPC   C4A56322  16.861   4.289   7.130
 4383POPC   C1B56323  17.160   4.541   6.243
 4383POPC   C2B56324  17.089   4.453   6.669
 4383POPC   C3B56325  17.187   4.666   7.044
 4383POPC   C4B56326  16.878   4.844   7.222
 4384POPC   NC356327  30.303  24.779   5.377
 4384POPC   PO456328  29.822  24.425   5.133
 4384POPC   GL156329  29.880  24.357   5.636
 4384POPC   GL256330  30.209  24.498   5.776
 4384POPC   C1A56331  29.731  24.518   6.084
 4384POPC   D2A56332  29.694  24.324   6.525
 4384POPC   C3A56333  29.589  24.384   6.990
 4384POPC   C4A56334  29.768  24.732   7.238
 4384POPC   C1B56335  30.151  24.262   6.114
 4384POPC   C2B56336  30.199  24.210   6.546
 4384POPC   C3B56337  30.089  24.449   6.885
 4384POPC   C4B56338  30.033  24.281   7.266
 4385POPC   NC356339  27.309   9.742   5.475
 4385POPC   PO456340  26.671   9.468   5.389
 4385POPC   GL156341  26.821   9.710   5.754
 4385POPC   GL256342  27.144   9.620   5.935
 4385POPC   C1A56343  26.736   9.812   6.208
 4385POPC   D2A56344  27.000   9.635   6.560
 4385POPC   C3A56345  26.784   9.595   6.958
 4385POPC   C4A56346  26.523   9.746   7.266
 4385POPC   C1B56347  27.192  10.034   6.135
 4385POPC   C2B56348  27.023  10.146   6.523
 4385POPC   C3B56349  26.848  10.088   6.893
 4385POPC   C4B56350  27.086   9.947   7.225
 4386POPC   NC356351  15.128  40.877   5.282
 4386POPC   PO456352  15.094  40.324   5.603
 4386POPC   GL156353  15.221  40.635   5.852
 4386POPC   GL256354  15.226  40.986   5.780
 4386POPC   C1A56355  15.101  40.572   6.267
 4386POPC   D2A56356  15.228  40.463   6.672
 4386POPC   C3A56357  15.023  40.605   7.089
 4386POPC   C4A56358  15.217  40.607   7.524
 4386POPC   C1B56359  15.010  41.062   6.189
 4386POPC   C2B56360  14.929  40.898   6.621
 4386POPC   C3B56361  14.819  41.069   6.995
 4386POPC   C4B56362  14.956  41.367   7.268
 4387POPC   NC356363  34.365  14.751   5.599
 4387POPC   PO456364  34.340  14.131   5.325
 4387POPC   GL156365  34.469  14.082   5.744
 4387POPC   GL256366  34.842  14.150   5.809
 4387POPC   C1A56367  34.428  14.287   6.123
 4387POPC   D2A56368  34.567  14.342   6.526
 4387POPC   C3A56369  34.275  14.493   6.801
 4387POPC   C4A56370  34.283  14.401   7.225
 4387POPC   C1B56371  34.890  14.061   6.243
 4387POPC   C2B56372  35.073  14.238   6.621
 4387POPC   C3B56373  34.827  14.407   6.970
 4387POPC   C4B56374  34.732  14.219   7.346
 4388POPC   NC356375  41.295  17.449   5.288
 4388POPC   PO456376  41.871  17.058   5.437
 4388POPC   GL156377  41.764  17.301   5.847
 4388POPC   GL256378  41.531  17.589   5.766
 4388POPC   C1A56379  41.463  17.348   6.232
 4388POPC   D2A56380  41.239  17.333   6.651
 4388POPC   C3A56381  41.549  17.385   6.964
 4388POPC   C4A56382  41.845  17.247   7.281
 4388POPC   C1B56383  41.324  17.821   6.140
 4388POPC   C2B56384  41.342  17.841   6.610
 4388POPC   C3B56385  41.210  17.784   7.052
 4388POPC   C4B56386  41.484  17.657   7.381
 4389POPC   NC356387  20.714  39.107   5.404
 4389POPC   PO456388  20.484  39.758   5.381
 4389POPC   GL156389  20.560  39.454   5.777
 4389POPC   GL256390  20.874  39.203   5.860
 4389POPC   C1A56391  20.613  39.400   6.250
 4389POPC   D2A56392  20.703  39.542   6.654
 4389POPC   C3A56393  20.583  39.418   7.079
 4389POPC   C4A56394  20.782  39.433   7.501
 4389POPC   C1B56395  20.660  38.898   6.144
 4389POPC   C2B56396  20.489  38.985   6.562
 4389POPC   C3B56397  20.695  38.926   6.954
 4389POPC   C4B56398  20.504  38.972   7.351
 4390POPC   NC356399   6.069  35.430   5.192
 4390POPC   PO456400   5.663  34.892   5.217
 4390POPC   GL156401   5.838  34.959   5.659
 4390POPC   GL256402   6.064  35.277   5.711
 4390POPC   C1A56403   5.839  35.054   6.134
 4390POPC   D2A56404   5.812  35.342   6.517
 4390POPC   C3A56405   5.864  35.159   6.926
 4390POPC   C4A56406   5.890  35.212   7.357
 4390POPC   C1B56407   6.150  35.488   6.129
 4390POPC   C2B56408   6.282  35.581   6.577
 4390POPC   C3B56409   6.151  35.560   7.047
 4390POPC   C4B56410   6.056  35.672   7.506
 4391POPC   NC356411  40.385  36.779   5.353
 4391POPC   PO456412  39.727  36.892   5.651
 4391POPC   GL156413  40.096  36.868   5.860
 4391POPC   GL256414  40.331  37.140   5.760
 4391POPC   C1A56415  39.965  36.880   6.295
 4391POPC   D2A56416  39.702  36.763   6.624
 4391POPC   C3A56417  39.933  36.832   7.003
 4391POPC   C4A56418  40.195  36.671   7.348
 4391POPC   C1B56419  40.442  37.017   6.207
 4391POPC   C2B56420  40.299  37.038   6.672
 4391POPC   C3B56421  40.354  37.105   7.133
 4391POPC   C4B56422  40.252  37.444   7.419
 4392POPC   NC356423  28.809  19.359   5.570
 4392POPC   PO456424  29.223  18.806   5.360
 4392POPC   GL156425  29.185  19.031   5.716
 4392POPC   GL256426  29.501  19.134   5.799
 4392POPC   C1A56427  29.102  18.952   6.149
 4392POPC   D2A56428  29.177  19.167   6.543
 4392POPC   C3A56429  28.873  19.255   6.851
 4392POPC   C4A56430  28.905  19.112   7.264
 4392POPC   C1B56431  29.456  19.397   6.172
 4392POPC   C2B56432  29.580  19.483   6.623
 4392POPC   C3B56433  29.370  19.344   7.016
 4392POPC   C4B56434  29.341  19.286   7.453
 4393POPC   NC356435  23.114  38.128   5.565
 4393POPC   PO456436  22.589  37.755   5.518
 4393POPC   GL156437  22.932  37.608   5.802
 4393POPC   GL256438  23.127  37.304   5.762
 4393POPC   C1A56439  22.844  37.395   6.204
 4393POPC   D2A56440  23.003  37.517   6.617
 4393POPC   C3A56441  22.859  37.871   6.869
 4393POPC   C4A56442  22.754  37.757   7.290
 4393POPC   C1B56443  23.336  37.516   6.134
 4393POPC   C2B56444  23.491  37.688   6.564
 4393POPC   C3B56445  23.344  37.735   7.005
 4393POPC   C4B56446  23.256  37.895   7.407
 4394POPC   NC356447  39.410  35.651   5.147
 4394POPC   PO456448  38.983  35.207   5.487
 4394POPC   GL156449  39.362  35.290   5.755
 4394POPC   GL256450  39.517  35.656   5.735
 4394POPC   C1A56451  39.199  35.205   6.169
 4394POPC   D2A56452  39.053  35.456   6.472
 4394POPC   C3A56453  39.061  35.199   6.835
 4394POPC   C4A56454  39.266  35.100   7.184
 4394POPC   C1B56455  39.512  35.604   6.196
 4394POPC   C2B56456  39.530  35.344   6.618
 4394POPC   C3B56457  39.630  35.447   7.068
 4394POPC   C4B56458  39.519  35.505   7.545
 4395POPC   NC356459  32.402  35.164   5.399
 4395POPC   PO456460  32.153  35.740   5.400
 4395POPC   GL156461  32.013  35.613   5.848
 4395POPC   GL256462  32.292  35.430   5.832
 4395POPC   C1A56463  32.045  35.368   6.268
 4395POPC   D2A56464  32.317  35.109   6.568
 4395POPC   C3A56465  32.229  35.264   6.995
 4395POPC   C4A56466  32.199  35.700   7.138
 4395POPC   C1B56467  32.479  35.632   6.202
 4395POPC   C2B56468  32.735  35.453   6.524
 4395POPC   C3B56469  32.700  35.499   6.971
 4395POPC   C4B56470  32.546  35.419   7.382
 4396POPC   NC356471   8.230  11.619   5.203
 4396POPC   PO456472   8.433  10.985   5.316
 4396POPC   GL156473   8.131  11.080   5.690
 4396POPC   GL256474   8.026  11.422   5.751
 4396POPC   C1A56475   8.140  11.109   6.163
 4396POPC   D2A56476   8.411  11.337   6.482
 4396POPC   C3A56477   8.311  11.242   6.941
 4396POPC   C4A56478   8.574  11.145   7.348
 4396POPC   C1B56479   8.027  11.600   6.173
 4396POPC   C2B56480   7.956  11.497   6.600
 4396POPC   C3B56481   8.033  11.653   6.987
 4396POPC   C4B56482   8.069  11.444   7.359
 4397POPC   NC356483  29.528  27.761   5.546
 4397POPC   PO456484  30.259  27.731   5.445
 4397POPC   GL156485  30.218  27.571   5.854
 4397POPC   GL256486  29.910  27.666   5.879
 4397POPC   C1A56487  30.268  27.534   6.290
 4397POPC   D2A56488  30.089  27.758   6.638
 4397POPC   C3A56489  29.990  27.810   7.104
 4397POPC   C4A56490  29.849  27.916   7.565
 4397POPC   C1B56491  29.736  27.516   6.225
 4397POPC   C2B56492  29.599  27.586   6.620
 4397POPC   C3B56493  29.604  27.368   6.971
 4397POPC   C4B56494  29.655  27.504   7.350
 4398POPC   NC356495  18.067  42.265   5.426
 4398POPC   PO456496  18.405  42.743   5.550
 4398POPC   GL156497  18.311  42.381   5.839
 4398POPC   GL256498  18.342  42.602   6.059
 4398POPC   C1A56499  18.256  42.146   6.229
 4398POPC   D2A56500  18.369  42.363   6.595
 4398POPC   C3A56501  18.259  42.093   6.901
 4398POPC   C4A56502  18.319  41.893   7.289
 4398POPC   C1B56503  18.620  42.764   6.309
 4398POPC   C2B56504  18.507  42.852   6.692
 4398POPC   C3B56505  18.719  42.618   6.944
 4398POPC   C4B56506  18.524  42.369   7.229
 4399POPC   NC356507  44.974  28.933   5.393
 4399POPC   PO456508  44.459  29.419   5.475
 4399POPC   GL156509  44.779  29.349   5.794
 4399POPC   GL256510  44.774  29.010   5.870
 4399POPC   C1A56511  44.686  29.390   6.245
 4399POPC   D2A56512  44.762  29.142   6.585
 4399POPC   C3A56513  44.664  29.269   6.973
 4399POPC   C4A56514  44.820  29.450   7.345
 4399POPC   C1B56515  44.433  28.957   6.200
 4399POPC   C2B56516  44.385  28.759   6.619
 4399POPC   C3B56517  44.458  28.773   7.071
 4399POPC   C4B56518  44.787  28.937   7.334
 4400POPC   NC356519  17.936  17.154   5.460
 4400POPC   PO456520  18.249  16.476   5.492
 4400POPC   GL156521  18.207  16.814   5.750
 4400POPC   GL256522  18.122  16.549   5.990
 4400POPC   C1A56523  18.316  16.980   6.140
 4400POPC   D2A56524  18.448  16.716   6.458
 4400POPC   C3A56525  18.560  16.814   6.891
 4400POPC   C4A56526  18.598  16.507   7.216
 4400POPC   C1B56527  18.049  16.393   6.395
 4400POPC   C2B56528  18.131  16.508   6.848
 4400POPC   C3B56529  18.156  16.822   7.209
 4400POPC   C4B56530  18.031  17.083   7.593
 4401POPC   NC356531  18.534  26.504   5.536
 4401POPC   PO456532  18.511  27.174   5.427
 4401POPC   GL156533  18.310  26.956   5.758
 4401POPC   GL256534  18.076  26.651   5.743
 4401POPC   C1A56535  18.424  26.783   6.143
 4401POPC   D2A56536  18.384  26.974   6.544
 4401POPC   C3A56537  18.228  26.799   6.894
 4401POPC   C4A56538  18.338  26.815   7.291
 4401POPC   C1B56539  18.062  26.428   6.147
 4401POPC   C2B56540  17.927  26.575   6.562
 4401POPC   C3B56541  17.814  26.521   7.021
 4401POPC   C4B56542  17.946  26.584   7.478
 4402POPC   NC356543  14.773  41.172   5.586
 4402POPC   PO456544  14.225  41.598   5.464
 4402POPC   GL156545  14.356  41.419   5.830
 4402POPC   GL256546  14.538  41.717   5.885
 4402POPC   C1A56547  14.477  41.406   6.271
 4402POPC   D2A56548  14.357  41.653   6.643
 4402POPC   C3A56549  14.580  41.519   6.943
 4402POPC   C4A56550  14.407  41.309   7.265
 4402POPC   C1B56551  14.373  41.963   6.244
 4402POPC   C2B56552  14.200  42.143   6.615
 4402POPC   C3B56553  14.029  41.998   6.951
 4402POPC   C4B56554  14.301  41.828   7.223
 4403POPC   NC356555  22.403  33.603   5.383
 4403POPC   PO456556  22.423  34.249   5.498
 4403POPC   GL156557  22.285  33.928   5.785
 4403POPC   GL256558  21.950  33.859   5.961
 4403POPC   C1A56559  22.389  33.786   6.193
 4403POPC   D2A56560  22.174  33.941   6.568
 4403POPC   C3A56561  22.170  33.734   6.934
 4403POPC   C4A56562  21.965  33.824   7.302
 4403POPC   C1B56563  21.958  33.550   6.333
 4403POPC   C2B56564  21.877  33.357   6.716
 4403POPC   C3B56565  21.845  33.357   7.144
 4403POPC   C4B56566  21.896  33.373   7.608
 4404POPC   NC356567  14.756  21.653   5.372
 4404POPC   PO456568  14.210  22.123   5.387
 4404POPC   GL156569  14.402  22.245   5.772
 4404POPC   GL256570  14.518  21.903   5.752
 4404POPC   C1A56571  14.507  22.410   6.202
 4404POPC   D2A56572  14.339  22.399   6.649
 4404POPC   C3A56573  14.047  22.154   6.914
 4404POPC   C4A56574  14.138  22.126   7.362
 4404POPC   C1B56575  14.614  21.909   6.174
 4404POPC   C2B56576  14.741  22.040   6.597
 4404POPC   C3B56577  14.532  22.017   7.007
 4404POPC   C4B56578  14.568  21.866   7.452
 4405POPC   NC356579  14.732   4.454   5.570
 4405POPC   PO456580  15.329   4.178   5.370
 4405POPC   GL156581  15.227   4.392   5.812
 4405POPC   GL256582  15.455   4.680   5.992
 4405POPC   C1A56583  15.222   4.241   6.230
 4405POPC   D2A56584  14.966   4.213   6.600
 4405POPC   C3A56585  15.231   4.086   6.927
 4405POPC   C4A56586  15.501   4.301   7.223
 4405POPC   C1B56587  15.318   4.697   6.426
 4405POPC   C2B56588  15.075   4.685   6.785
 4405POPC   C3B56589  15.027   4.504   7.200
 4405POPC   C4B56590  15.294   4.612   7.578
 4406POPC   NC356591  30.296  22.359   5.377
 4406POPC   PO456592  30.797  21.846   5.403
 4406POPC   GL156593  30.547  22.022   5.742
 4406POPC   GL256594  30.789  22.243   5.927
 4406POPC   C1A56595  30.457  21.924   6.175
 4406POPC   D2A56596  30.667  22.037   6.560
 4406POPC   C3A56597  30.497  21.813   6.939
 4406POPC   C4A56598  30.492  21.978   7.371
 4406POPC   C1B56599  31.115  22.224   6.256
 4406POPC   C2B56600  31.173  22.196   6.707
 4406POPC   C3B56601  30.848  22.191   7.019
 4406POPC   C4B56602  30.673  22.470   7.289
 4407POPC   NC356603  34.589   3.896   5.551
 4407POPC   PO456604  35.038   3.347   5.452
 4407POPC   GL156605  34.895   3.518   5.825
 4407POPC   GL256606  34.944   3.870   5.909
 4407POPC   C1A56607  34.577   3.382   6.135
 4407POPC   D2A56608  34.302   3.419   6.492
 4407POPC   C3A56609  34.447   3.343   6.902
 4407POPC   C4A56610  34.462   3.528   7.276
 4407POPC   C1B56611  34.923   3.713   6.309
 4407POPC   C2B56612  34.793   3.679   6.697
 4407POPC   C3B56613  34.715   3.990   6.986
 4407POPC   C4B56614  34.880   3.847   7.340
 4408POPC   NC356615  42.818  21.638   5.458
 4408POPC   PO456616  43.321  21.172   5.474
 4408POPC   GL156617  43.069  21.339   5.831
 4408POPC   GL256618  43.179  21.703   5.814
 4408POPC   C1A56619  43.003  21.223   6.296
 4408POPC   D2A56620  43.299  21.362   6.619
 4408POPC   C3A56621  43.209  21.541   7.005
 4408POPC   C4A56622  43.014  21.372   7.315
 4408POPC   C1B56623  43.164  21.692   6.239
 4408POPC   C2B56624  42.950  21.740   6.607
 4408POPC   C3B56625  42.841  21.944   6.957
 4408POPC   C4B56626  43.040  21.914   7.357
 4409POPC   NC356627  16.829  24.017   5.555
 4409POPC   PO456628  16.446  23.544   5.382
 4409POPC   GL156629  16.535  23.527   5.823
 4409POPC   GL256630  16.881  23.583   5.849
 4409POPC   C1A56631  16.674  23.377   6.261
 4409POPC   D2A56632  16.593  23.421   6.706
 4409POPC   C3A56633  16.891  23.510   7.023
 4409POPC   C4A56634  16.521  23.570   7.262
 4409POPC   C1B56635  17.013  23.790   6.247
 4409POPC   C2B56636  16.809  23.882   6.648
 4409POPC   C3B56637  16.730  23.990   7.086
 4409POPC   C4B56638  16.995  23.867   7.408
 4410POPC   NC356639  37.320   7.054   5.390
 4410POPC   PO456640  37.480   6.466   5.469
 4410POPC   GL156641  37.611   6.589   5.885
 4410POPC   GL256642  37.712   6.302   6.032
 4410POPC   C1A56643  37.698   6.714   6.363
 4410POPC   D2A56644  37.646   6.672   6.825
 4410POPC   C3A56645  37.634   7.066   7.109
 4410POPC   C4A56646  37.461   7.186   7.541
 4410POPC   C1B56647  37.986   6.283   6.392
 4410POPC   C2B56648  37.907   6.137   6.808
 4410POPC   C3B56649  37.949   6.290   7.207
 4410POPC   C4B56650  38.233   6.423   7.507
 4411POPC   NC356651  31.594  19.534   5.378
 4411POPC   PO456652  31.355  20.186   5.433
 4411POPC   GL156653  31.359  19.832   5.773
 4411POPC   GL256654  31.696  19.699   5.844
 4411POPC   C1A56655  31.418  19.714   6.247
 4411POPC   D2A56656  31.663  19.722   6.609
 4411POPC   C3A56657  31.542  19.527   6.952
 4411POPC   C4A56658  31.187  19.631   7.184
 4411POPC   C1B56659  31.668  20.125   6.088
 4411POPC   C2B56660  31.591  20.252   6.530
 4411POPC   C3B56661  31.458  20.047   6.937
 4411POPC   C4B56662  31.573  19.892   7.375
 4412POPC   NC356663  35.029   7.436   5.535
 4412POPC   PO456664  34.338   7.277   5.376
 4412POPC   GL156665  34.570   7.296   5.756
 4412POPC   GL256666  34.298   7.452   5.906
 4412POPC   C1A56667  34.652   7.176   6.191
 4412POPC   D2A56668  34.709   7.339   6.610
 4412POPC   C3A56669  34.521   7.135   6.959
 4412POPC   C4A56670  34.654   7.150   7.385
 4412POPC   C1B56671  34.446   7.667   6.245
 4412POPC   C2B56672  34.372   7.799   6.634
 4412POPC   C3B56673  34.564   7.682   6.963
 4412POPC   C4B56674  34.378   7.567   7.278
 4413POPC   NC356675   5.559  42.522   5.469
 4413POPC   PO456676   6.234  42.332   5.522
 4413POPC   GL156677   5.915  42.268   5.855
 4413POPC   GL256678   5.639  41.982   5.833
 4413POPC   C1A56679   5.859  42.611   6.191
 4413POPC   D2A56680   6.060  42.803   6.574
 4413POPC   C3A56681   5.820  42.638   6.940
 4413POPC   C4A56682   5.885  42.277   7.180
 4413POPC   C1B56683   5.636  42.127   6.268
 4413POPC   C2B56684   5.643  42.165   6.736
 4413POPC   C3B56685   5.622  41.857   7.047
 4413POPC   C4B56686   5.656  41.931   7.519
 4414POPC   NC356687  22.816  39.770   5.559
 4414POPC   PO456688  23.446  40.055   5.454
 4414POPC   GL156689  23.100  40.176   5.775
 4414POPC   GL256690  22.757  40.316   5.700
 4414POPC   C1A56691  22.972  40.001   6.202
 4414POPC   D2A56692  22.941  40.175   6.629
 4414POPC   C3A56693  22.993  39.885   6.951
 4414POPC   C4A56694  22.873  39.709   7.313
 4414POPC   C1B56695  22.709  40.443   6.138
 4414POPC   C2B56696  22.558  40.513   6.564
 4414POPC   C3B56697  22.705  40.493   6.988
 4414POPC   C4B56698  22.904  40.254   7.314
 4415POPC   NC356699  42.947  27.763   5.318
 4415POPC   PO456700  43.430  27.280   5.483
 4415POPC   GL156701  43.187  27.557   5.798
 4415POPC   GL256702  42.850  27.495   5.790
 4415POPC   C1A56703  43.276  27.758   6.252
 4415POPC   D2A56704  43.451  27.634   6.679
 4415POPC   C3A56705  43.233  27.602   7.078
 4415POPC   C4A56706  43.077  27.620   7.538
 4415POPC   C1B56707  42.793  27.564   6.229
 4415POPC   C2B56708  42.926  27.648   6.647
 4415POPC   C3B56709  42.776  27.840   7.022
 4415POPC   C4B56710  42.603  27.647   7.355
 4416POPC   NC356711  37.774  37.552   5.414
 4416POPC   PO456712  37.957  38.215   5.463
 4416POPC   GL156713  37.736  37.929   5.819
 4416POPC   GL256714  37.602  37.558   5.889
 4416POPC   C1A56715  37.546  37.920   6.258
 4416POPC   D2A56716  37.725  37.981   6.705
 4416POPC   C3A56717  37.448  37.810   7.053
 4416POPC   C4A56718  37.433  37.869   7.516
 4416POPC   C1B56719  37.686  37.396   6.301
 4416POPC   C2B56720  37.678  37.457   6.732
 4416POPC   C3B56721  37.890  37.505   7.095
 4416POPC   C4B56722  37.957  37.302   7.465
 4417POPC   NC356723   2.626  44.590   5.362
 4417POPC   PO456724   2.335   0.185   5.262
 4417POPC   GL156725   2.575   0.011   5.692
 4417POPC   GL256726   2.857  44.716   5.791
 4417POPC   C1A56727   2.635  44.909   6.181
 4417POPC   D2A56728   2.987  44.696   6.451
 4417POPC   C3A56729   3.026  44.760   6.912
 4417POPC   C4A56730   2.629  44.687   7.119
 4417POPC   C1B56731   3.194  44.455   6.029
 4417POPC   C2B56732   3.282  44.248   6.452
 4417POPC   C3B56733   3.021  44.209   6.853
 4417POPC   C4B56734   3.030  44.393   7.286
 4418POPC   NC356735   1.983   0.348   5.011
 4418POPC   PO456736   1.582   0.308   5.573
 4418POPC   GL156737   1.854   0.447   5.891
 4418POPC   GL256738   2.234   0.489   5.807
 4418POPC   C1A56739   1.860   0.319   6.305
 4418POPC   D2A56740   1.869   0.523   6.687
 4418POPC   C3A56741   1.801   0.253   7.001
 4418POPC   C4A56742   1.506   0.208   7.292
 4418POPC   C1B56743   2.207   0.690   6.248
 4418POPC   C2B56744   2.329   0.748   6.715
 4418POPC   C3B56745   2.289   0.447   7.055
 4418POPC   C4B56746   2.172   0.129   7.347
 4419POPC   NC356747   8.587   9.004   5.549
 4419POPC   PO456748   9.061   8.572   5.493
 4419POPC   GL156749   9.092   8.645   5.893
 4419POPC   GL256750   8.706   8.594   5.859
 4419POPC   C1A56751   9.320   8.773   6.301
 4419POPC   D2A56752   9.316   9.109   6.658
 4419POPC   C3A56753   8.904   9.156   6.903
 4419POPC   C4A56754   8.765   9.251   7.341
 4419POPC   C1B56755   8.752   8.857   6.193
 4419POPC   C2B56756   8.875   8.710   6.565
 4419POPC   C3B56757   8.583   8.736   6.857
 4419POPC   C4B56758   8.768   8.764   7.234
 4420POPC   NC356759  24.182  20.128   5.470
 4420POPC   PO456760  24.294  19.508   5.369
 4420POPC   GL156761  24.334  19.719   5.764
 4420POPC   GL256762  24.657  19.870   5.719
 4420POPC   C1A56763  24.479  19.836   6.205
 4420POPC   D2A56764  24.590  19.675   6.622
 4420POPC   C3A56765  24.383  19.843   6.989
 4420POPC   C4A56766  24.345  20.163   7.279
 4420POPC   C1B56767  24.971  19.810   6.070
 4420POPC   C2B56768  25.039  19.874   6.490
 4420POPC   C3B56769  24.967  19.955   6.903
 4420POPC   C4B56770  24.834  19.764   7.217
 4421POPC   NC356771  42.009  12.562   5.435
 4421POPC   PO456772  42.577  12.987   5.391
 4421POPC   GL156773  42.536  13.151   5.817
 4421POPC   GL256774  42.266  12.925   5.844
 4421POPC   C1A56775  42.586  13.020   6.254
 4421POPC   D2A56776  42.274  12.819   6.509
 4421POPC   C3A56777  42.186  12.981   6.874
 4421POPC   C4A56778  42.298  12.908   7.253
 4421POPC   C1B56779  42.050  13.118   6.162
 4421POPC   C2B56780  42.082  13.376   6.526
 4421POPC   C3B56781  41.846  13.353   6.894
 4421POPC   C4B56782  41.823  13.111   7.234
 4422POPC   NC356783  33.347  42.694   5.419
 4422POPC   PO456784  33.990  42.536   5.440
 4422POPC   GL156785  33.880  42.544   5.877
 4422POPC   GL256786  33.524  42.636   5.904
 4422POPC   C1A56787  34.073  42.310   6.249
 4422POPC   D2A56788  33.907  41.951   6.512
 4422POPC   C3A56789  33.744  42.047   6.925
 4422POPC   C4A56790  34.040  42.334   7.085
 4422POPC   C1B56791  33.582  42.380   6.270
 4422POPC   C2B56792  33.714  42.482   6.677
 4422POPC   C3B56793  33.465  42.517   7.055
 4422POPC   C4B56794  33.471  42.708   7.486
 4423POPC   NC356795  25.007  10.516   5.642
 4423POPC   PO456796  25.549  10.794   5.366
 4423POPC   GL156797  25.586  10.711   5.790
 4423POPC   GL256798  25.495  10.366   5.832
 4423POPC   C1A56799  25.497  10.709   6.234
 4423POPC   D2A56800  25.236  10.617   6.580
 4423POPC   C3A56801  25.377  10.482   6.978
 4423POPC   C4A56802  25.595  10.762   7.238
 4423POPC   C1B56803  25.198  10.270   6.197
 4423POPC   C2B56804  24.932  10.203   6.540
 4423POPC   C3B56805  25.003  10.056   6.953
 4423POPC   C4B56806  25.252  10.138   7.344
 4424POPC   NC356807  25.605  30.469   5.343
 4424POPC   PO456808  25.332  31.097   5.409
 4424POPC   GL156809  25.308  30.868   5.783
 4424POPC   GL256810  24.979  30.662   5.803
 4424POPC   C1A56811  25.484  30.979   6.172
 4424POPC   D2A56812  25.415  30.809   6.584
 4424POPC   C3A56813  25.062  30.869   6.852
 4424POPC   C4A56814  25.196  30.987   7.260
 4424POPC   C1B56815  25.176  30.545   6.211
 4424POPC   C2B56816  25.316  30.313   6.604
 4424POPC   C3B56817  25.186  30.353   7.035
 4424POPC   C4B56818  24.909  30.579   7.270
 4425POPC   NC356819   5.444  20.190   5.634
 4425POPC   PO456820   5.782  20.793   5.407
 4425POPC   GL156821   5.954  20.797   5.828
 4425POPC   GL256822   5.995  20.435   5.892
 4425POPC   C1A56823   5.796  20.767   6.247
 4425POPC   D2A56824   5.757  20.570   6.653
 4425POPC   C3A56825   5.800  20.834   7.000
 4425POPC   C4A56826   5.979  20.703   7.356
 4425POPC   C1B56827   5.712  20.239   6.257
 4425POPC   C2B56828   5.532  20.090   6.689
 4425POPC   C3B56829   5.425  20.278   7.119
 4425POPC   C4B56830   5.686  20.259   7.499
 4426POPC   NC356831  33.716  11.971   5.388
 4426POPC   PO456832  33.356  11.584   5.730
 4426POPC   GL156833  33.723  11.780   5.875
 4426POPC   GL256834  33.955  12.032   5.838
 4426POPC   C1A56835  33.819  11.752   6.287
 4426POPC   D2A56836  33.820  12.070   6.565
 4426POPC   C3A56837  33.741  11.980   6.959
 4426POPC   C4A56838  33.551  12.222   7.216
 4426POPC   C1B56839  34.200  12.124   6.217
 4426POPC   C2B56840  34.151  12.466   6.548
 4426POPC   C3B56841  34.272  12.436   6.988
 4426POPC   C4B56842  34.224  12.033   7.154
 4427POPC   NC356843  21.281   9.351   5.336
 4427POPC   PO456844  21.553   9.962   5.627
 4427POPC   GL156845  21.379   9.740   5.901
 4427POPC   GL256846  21.512   9.420   5.824
 4427POPC   C1A56847  21.499   9.663   6.319
 4427POPC   D2A56848  21.558   9.472   6.720
 4427POPC   C3A56849  21.539   9.749   7.058
 4427POPC   C4A56850  21.836   9.907   7.355
 4427POPC   C1B56851  21.181   9.306   6.071
 4427POPC   C2B56852  21.086   9.410   6.502
 4427POPC   C3B56853  21.091   9.501   6.932
 4427POPC   C4B56854  21.368   9.285   7.179
 4428POPC   NC356855  25.613  34.807   5.532
 4428POPC   PO456856  25.150  34.346   5.406
 4428POPC   GL156857  25.276  34.516   5.818
 4428POPC   GL256858  25.530  34.297   5.855
 4428POPC   C1A56859  25.369  34.785   6.216
 4428POPC   D2A56860  25.648  34.853   6.602
 4428POPC   C3A56861  25.431  34.734   6.970
 4428POPC   C4A56862  25.105  34.720   7.250
 4428POPC   C1B56863  25.302  34.129   6.226
 4428POPC   C2B56864  25.208  34.071   6.688
 4428POPC   C3B56865  25.094  34.202   7.091
 4428POPC   C4B56866  25.461  34.292   7.276
 4429POPC   NC356867  18.008  40.351   5.505
 4429POPC   PO456868  18.353  40.927   5.241
 4429POPC   GL156869  18.322  40.776   5.722
 4429POPC   GL256870  18.226  40.447   5.957
 4429POPC   C1A56871  18.362  40.891   6.187
 4429POPC   D2A56872  18.075  40.772   6.528
 4429POPC   C3A56873  18.157  40.721   6.982
 4429POPC   C4A56874  18.064  41.048   7.278
 4429POPC   C1B56875  18.406  40.398   6.361
 4429POPC   C2B56876  18.572  40.693   6.671
 4429POPC   C3B56877  18.667  40.579   7.098
 4429POPC   C4B56878  18.315  40.387   7.360
 4430POPC   NC356879  25.735  23.285   5.629
 4430POPC   PO456880  26.121  22.779   5.457
 4430POPC   GL156881  26.161  23.009   5.812
 4430POPC   GL256882  26.318  23.336   5.722
 4430POPC   C1A56883  25.987  23.011   6.237
 4430POPC   D2A56884  26.130  22.978   6.657
 4430POPC   C3A56885  25.885  22.767   6.976
 4430POPC   C4A56886  25.852  22.763   7.424
 4430POPC   C1B56887  26.192  23.475   6.147
 4430POPC   C2B56888  25.992  23.481   6.539
 4430POPC   C3B56889  25.788  23.383   6.916
 4430POPC   C4B56890  25.701  23.205   7.288
 4431POPC   NC356891  27.127  35.563   5.307
 4431POPC   PO456892  26.802  35.067   5.459
 4431POPC   GL156893  26.905  35.363   5.777
 4431POPC   GL256894  26.717  35.662   5.675
 4431POPC   C1A56895  26.952  35.264   6.221
 4431POPC   D2A56896  27.012  35.118   6.636
 4431POPC   C3A56897  26.647  35.075   6.910
 4431POPC   C4A56898  26.699  35.212   7.306
 4431POPC   C1B56899  26.823  35.757   6.135
 4431POPC   C2B56900  27.021  35.674   6.548
 4431POPC   C3B56901  26.935  35.510   6.955
 4431POPC   C4B56902  26.932  35.795   7.273
 4432POPC   NC356903  29.471  22.542   5.716
 4432POPC   PO456904  28.900  22.352   5.371
 4432POPC   GL156905  29.050  22.189   5.795
 4432POPC   GL256906  29.354  22.001   5.705
 4432POPC   C1A56907  29.088  22.228   6.265
 4432POPC   D2A56908  28.814  22.115   6.607
 4432POPC   C3A56909  28.856  22.271   7.008
 4432POPC   C4A56910  29.225  22.337   7.192
 4432POPC   C1B56911  29.386  21.833   6.128
 4432POPC   C2B56912  29.237  21.742   6.550
 4432POPC   C3B56913  29.340  21.875   6.957
 4432POPC   C4B56914  29.205  21.820   7.373
 4433POPC   NC356915   8.871  31.729   5.580
 4433POPC   PO456916   9.152  31.075   5.551
 4433POPC   GL156917   8.981  31.308   5.871
 4433POPC   GL256918   9.141  31.640   5.981
 4433POPC   C1A56919   9.137  31.244   6.264
 4433POPC   D2A56920   9.281  31.473   6.565
 4433POPC   C3A56921   9.176  31.259   6.926
 4433POPC   C4A56922   8.829  31.411   7.127
 4433POPC   C1B56923   8.872  31.714   6.336
 4433POPC   C2B56924   8.820  32.040   6.642
 4433POPC   C3B56925   8.950  31.957   7.057
 4433POPC   C4B56926   8.723  31.802   7.415
 4434POPC   NC356927   0.417  20.991   5.593
 4434POPC   PO456928   0.422  21.530   5.178
 4434POPC   GL156929   0.560  21.549   5.630
 4434POPC   GL256930   0.209  21.541   5.698
 4434POPC   C1A56931   0.638  21.422   6.107
 4434POPC   D2A56932   0.788  21.191   6.508
 4434POPC   C3A56933   0.568  21.163   6.919
 4434POPC   C4A56934   0.273  21.229   7.265
 4434POPC   C1B56935   0.161  21.650   6.131
 4434POPC   C2B56936   0.287  21.438   6.536
 4434POPC   C3B56937   0.346  21.619   6.953
 4434POPC   C4B56938   0.209  21.723   7.386
 4435POPC   NC356939  41.073  14.420   5.452
 4435POPC   PO456940  40.550  14.051   5.296
 4435POPC   GL156941  40.647  14.218   5.716
 4435POPC   GL256942  40.584  14.553   5.817
 4435POPC   C1A56943  40.559  14.154   6.169
 4435POPC   D2A56944  40.411  14.283   6.599
 4435POPC   C3A56945  40.740  14.235   6.918
 4435POPC   C4A56946  40.889  14.188   7.347
 4435POPC   C1B56947  40.900  14.527   6.148
 4435POPC   C2B56948  40.802  14.621   6.578
 4435POPC   C3B56949  40.831  14.740   7.006
 4435POPC   C4B56950  40.942  14.715   7.432
 4436POPC   NC356951  21.003  12.611   5.466
 4436POPC   PO456952  20.493  13.075   5.472
 4436POPC   GL156953  20.585  12.768   5.718
 4436POPC   GL256954  20.377  12.509   5.544
 4436POPC   C1A56955  20.602  12.878   6.149
 4436POPC   D2A56956  20.610  12.996   6.575
 4436POPC   C3A56957  20.328  12.930   6.926
 4436POPC   C4A56958  20.558  12.878   7.296
 4436POPC   C1B56959  20.215  12.578   5.978
 4436POPC   C2B56960  20.316  12.561   6.442
 4436POPC   C3B56961  20.241  12.428   6.883
 4436POPC   C4B56962  20.329  12.429   7.337
 4437POPC   NC356963  42.004  41.711   5.360
 4437POPC   PO456964  42.706  41.413   5.425
 4437POPC   GL156965  42.411  41.597   5.681
 4437POPC   GL256966  42.365  41.290   5.862
 4437POPC   C1A56967  42.335  41.768   6.097
 4437POPC   D2A56968  42.517  41.710   6.502
 4437POPC   C3A56969  42.414  41.576   6.947
 4437POPC   C4A56970  42.382  41.726   7.396
 4437POPC   C1B56971  42.121  41.278   6.247
 4437POPC   C2B56972  41.986  41.078   6.634
 4437POPC   C3B56973  42.009  41.254   7.017
 4437POPC   C4B56974  42.294  41.212   7.287
 4438POPC   NC356975  27.842  28.877   5.603
 4438POPC   PO456976  27.378  29.221   5.230
 4438POPC   GL156977  27.343  29.129   5.700
 4438POPC   GL256978  27.460  29.442   5.824
 4438POPC   C1A56979  27.496  29.051   6.174
 4438POPC   D2A56980  27.328  29.160   6.630
 4438POPC   C3A56981  27.596  29.231   7.007
 4438POPC   C4A56982  27.955  28.983   7.189
 4438POPC   C1B56983  27.327  29.527   6.257
 4438POPC   C2B56984  27.411  29.665   6.687
 4438POPC   C3B56985  27.592  29.740   7.112
 4438POPC   C4B56986  27.658  29.636   7.577
 4439POPC   NC356987  33.029   8.820   5.154
 4439POPC   PO456988  33.019   8.291   5.490
 4439POPC   GL156989  32.937   8.085   5.848
 4439POPC   GL256990  33.056   8.375   6.031
 4439POPC   C1A56991  33.056   7.913   6.242
 4439POPC   D2A56992  33.134   8.161   6.603
 4439POPC   C3A56993  33.076   7.956   6.980
 4439POPC   C4A56994  32.951   8.200   7.342
 4439POPC   C1B56995  32.767   8.437   6.362
 4439POPC   C2B56996  32.720   8.468   6.819
 4439POPC   C3B56997  32.658   8.603   7.255
 4439POPC   C4B56998  32.874   8.561   7.697
 4440POPC   NC356999  13.520  10.887   5.390
 4440POPC   PO457000  13.597  10.252   5.252
 4440POPC   GL157001  13.456  10.407   5.644
 4440POPC   GL257002  13.699  10.236   5.793
 4440POPC   C1A57003  13.501  10.602   6.092
 4440POPC   D2A57004  13.670  10.523   6.525
 4440POPC   C3A57005  13.538  10.607   6.927
 4440POPC   C4A57006  13.435  10.351   7.277
 4440POPC   C1B57007  13.719  10.116   6.197
 4440POPC   C2B57008  13.970  10.124   6.560
 4440POPC   C3B57009  13.759  10.135   6.933
 4440POPC   C4B57010  13.917  10.184   7.339
 4441POPC   NC357011  37.717  40.303   5.365
 4441POPC   PO457012  37.648  39.651   5.523
 4441POPC   GL157013  37.603  40.007   5.766
 4441POPC   GL257014  37.959  40.151   5.764
 4441POPC   C1A57015  37.493  39.944   6.185
 4441POPC   D2A57016  37.394  39.711   6.562
 4441POPC   C3A57017  37.444  39.980   6.913
 4441POPC   C4A57018  37.594  39.882   7.359
 4441POPC   C1B57019  37.890  40.310   6.158
 4441POPC   C2B57020  37.822  40.379   6.585
 4441POPC   C3B57021  37.919  40.162   6.951
 4441POPC   C4B57022  37.763  40.388   7.283
 4442POPC   NC357023   8.921  35.128   5.176
 4442POPC   PO457024   8.485  35.431   5.587
 4442POPC   GL157025   8.887  35.345   5.888
 4442POPC   GL257026   9.260  35.294   5.883
 4442POPC   C1A57027   8.950  35.268   6.325
 4442POPC   D2A57028   8.629  35.258   6.597
 4442POPC   C3A57029   8.602  35.129   7.009
 4442POPC   C4A57030   8.664  35.440   7.337
 4442POPC   C1B57031   9.362  34.985   6.200
 4442POPC   C2B57032   9.211  34.941   6.627
 4442POPC   C3B57033   9.058  35.288   6.886
 4442POPC   C4B57034   9.029  35.099   7.282
 4443POPC   NC357035  30.409  33.728   5.543
 4443POPC   PO457036  31.090  33.551   5.394
 4443POPC   GL157037  30.936  33.790   5.753
 4443POPC   GL257038  30.766  33.492   5.863
 4443POPC   C1A57039  30.851  33.832   6.217
 4443POPC   D2A57040  30.767  33.622   6.624
 4443POPC   C3A57041  30.793  33.851   7.025
 4443POPC   C4A57042  30.467  34.139   7.167
 4443POPC   C1B57043  30.446  33.453   6.200
 4443POPC   C2B57044  30.303  33.394   6.614
 4443POPC   C3B57045  30.352  33.579   6.992
 4443POPC   C4B57046  30.473  33.642   7.415
 4444POPC   NC357047  33.669  39.947   5.172
 4444POPC   PO457048  34.262  40.001   5.426
 4444POPC   GL157049  33.883  39.998   5.706
 4444POPC   GL257050  33.976  40.301   5.867
 4444POPC   C1A57051  33.661  40.050   6.151
 4444POPC   D2A57052  33.780  40.163   6.553
 4444POPC   C3A57053  33.581  39.924   6.843
 4444POPC   C4A57054  33.620  39.876   7.255
 4444POPC   C1B57055  34.139  39.890   6.141
 4444POPC   C2B57056  34.122  39.781   6.583
 4444POPC   C3B57057  34.068  39.978   6.975
 4444POPC   C4B57058  34.118  39.832   7.340
 4445POPC   NC357059  34.876   2.940   5.607
 4445POPC   PO457060  34.511   2.434   5.556
 4445POPC   GL157061  34.363   2.714   5.855
 4445POPC   GL257062  34.100   2.953   5.752
 4445POPC   C1A57063  34.588   2.858   6.227
 4445POPC   D2A57064  34.771   3.124   6.560
 4445POPC   C3A57065  34.778   2.898   6.982
 4445POPC   C4A57066  34.829   2.825   7.440
 4445POPC   C1B57067  34.052   2.894   6.226
 4445POPC   C2B57068  34.283   2.922   6.631
 4445POPC   C3B57069  34.233   2.892   7.053
 4445POPC   C4B57070  34.023   3.261   7.204
 4446POPC   NC357071  10.606  39.773   5.551
 4446POPC   PO457072  10.394  39.240   5.489
 4446POPC   GL157073  10.373  38.974   5.885
 4446POPC   GL257074  10.728  38.985   5.999
 4446POPC   C1A57075  10.291  39.056   6.306
 4446POPC   D2A57076  10.384  39.283   6.649
 4446POPC   C3A57077  10.300  39.116   7.051
 4446POPC   C4A57078  10.589  39.134   7.390
 4446POPC   C1B57079  10.748  39.377   6.274
 4446POPC   C2B57080  10.723  39.663   6.653
 4446POPC   C3B57081  10.687  39.574   7.107
 4446POPC   C4B57082  10.837  39.561   7.588
 4447POPC   NC357083  25.455   5.906   5.470
 4447POPC   PO457084  24.803   5.705   5.329
 4447POPC   GL157085  25.035   5.723   5.767
 4447POPC   GL257086  25.333   5.535   5.815
 4447POPC   C1A57087  25.226   6.006   6.150
 4447POPC   D2A57088  25.233   6.228   6.566
 4447POPC   C3A57089  25.355   6.009   6.955
 4447POPC   C4A57090  25.621   5.683   7.087
 4447POPC   C1B57091  25.181   5.518   6.266
 4447POPC   C2B57092  25.269   5.555   6.714
 4447POPC   C3B57093  25.138   5.537   7.133
 4447POPC   C4B57094  24.852   5.865   7.257
 4448POPC   NC357095  40.473   1.547   5.202
 4448POPC   PO457096  40.015   1.076   5.295
 4448POPC   GL157097  40.181   1.117   5.732
 4448POPC   GL257098  40.374   1.429   5.722
 4448POPC   C1A57099  40.019   1.280   6.159
 4448POPC   D2A57100  39.941   1.480   6.586
 4448POPC   C3A57101  39.930   1.159   6.914
 4448POPC   C4A57102  40.290   1.007   7.188
 4448POPC   C1B57103  40.367   1.656   6.135
 4448POPC   C2B57104  40.448   1.444   6.517
 4448POPC   C3B57105  40.342   1.459   6.950
 4448POPC   C4B57106  39.982   1.571   7.233
 4449POPC   NC357107  18.450  43.188   5.456
 4449POPC   PO457108  17.852  43.155   5.522
 4449POPC   GL157109  18.134  43.028   5.891
 4449POPC   GL257110  18.518  43.071   5.932
 4449POPC   C1A57111  18.153  43.009   6.342
 4449POPC   D2A57112  17.951  42.777   6.682
 4449POPC   C3A57113  18.179  42.756   7.078
 4449POPC   C4A57114  18.535  42.866   7.344
 4449POPC   C1B57115  18.514  43.388   6.221
 4449POPC   C2B57116  18.450  43.471   6.635
 4449POPC   C3B57117  18.180  43.226   6.849
 4449POPC   C4B57118  18.045  43.260   7.244
 4450POPC   NC357119  16.686  27.233   5.407
 4450POPC   PO457120  16.966  27.889   5.331
 4450POPC   GL157121  16.719  27.693   5.721
 4450POPC   GL257122  16.478  27.424   5.837
 4450POPC   C1A57123  16.742  27.643   6.194
 4450POPC   D2A57124  16.560  27.712   6.607
 4450POPC   C3A57125  16.854  27.638   6.925
 4450POPC   C4A57126  16.959  27.668   7.370
 4450POPC   C1B57127  16.550  27.157   6.271
 4450POPC   C2B57128  16.639  27.188   6.724
 4450POPC   C3B57129  16.715  27.216   7.179
 4450POPC   C4B57130  16.823  27.259   7.628
 4451POPC   NC357131  37.057   6.284   5.433
 4451POPC   PO457132  36.880   6.948   5.450
 4451POPC   GL157133  37.103   6.705   5.764
 4451POPC   GL257134  36.889   6.442   5.891
 4451POPC   C1A57135  37.227   6.639   6.205
 4451POPC   D2A57136  37.106   6.564   6.622
 4451POPC   C3A57137  37.193   6.848   6.943
 4451POPC   C4A57138  37.403   6.685   7.317
 4451POPC   C1B57139  36.719   6.714   6.223
 4451POPC   C2B57140  36.630   6.742   6.679
 4451POPC   C3B57141  36.728   6.786   7.133
 4451POPC   C4B57142  37.003   7.084   7.362
 4452POPC   NC357143   5.674  40.223   5.559
 4452POPC   PO457144   6.221  39.843   5.505
 4452POPC   GL157145   6.007  40.060   5.909
 4452POPC   GL257146   5.648  40.014   6.002
 4452POPC   C1A57147   5.902  40.201   6.365
 4452POPC   D2A57148   5.963  40.013   6.696
 4452POPC   C3A57149   5.818  40.099   7.050
 4452POPC   C4A57150   6.064  40.101   7.388
 4452POPC   C1B57151   5.701  39.724   6.345
 4452POPC   C2B57152   5.651  39.625   6.795
 4452POPC   C3B57153   5.410  39.805   7.127
 4452POPC   C4B57154   5.595  39.963   7.536
 4453POPC   NC357155  39.017  35.660   5.642
 4453POPC   PO457156  39.491  36.060   5.370
 4453POPC   GL157157  39.132  36.155   5.656
 4453POPC   GL257158  39.401  36.182   5.889
 4453POPC   C1A57159  38.954  36.159   6.122
 4453POPC   D2A57160  38.999  35.965   6.552
 4453POPC   C3A57161  39.201  36.201   6.906
 4453POPC   C4A57162  38.901  36.499   7.118
 4453POPC   C1B57163  39.444  36.104   6.329
 4453POPC   C2B57164  39.479  35.837   6.667
 4453POPC   C3B57165  39.187  35.675   6.937
 4453POPC   C4B57166  39.307  35.854   7.268
 4454POPC   NC357167  14.723   8.837   5.572
 4454POPC   PO457168  14.018   8.789   5.536
 4454POPC   GL157169  14.309   8.930   5.862
 4454POPC   GL257170  14.455   9.248   5.770
 4454POPC   C1A57171  14.576   8.882   6.244
 4454POPC   D2A57172  14.367   8.690   6.587
 4454POPC   C3A57173  14.536   8.756   6.985
 4454POPC   C4A57174  14.338   8.729   7.395
 4454POPC   C1B57175  14.323   9.320   6.211
 4454POPC   C2B57176  14.262   9.235   6.658
 4454POPC   C3B57177  14.292   9.197   7.095
 4454POPC   C4B57178  14.672   9.154   7.309
 4455POPC   NC357179  17.982  10.711   5.356
 4455POPC   PO457180  18.276  10.105   5.340
 4455POPC   GL157181  18.218  10.370   5.727
 4455POPC   GL257182  18.262  10.709   5.786
 4455POPC   C1A57183  18.504  10.387   6.112
 4455POPC   D2A57184  18.622  10.525   6.530
 4455POPC   C3A57185  18.376  10.321   6.843
 4455POPC   C4A57186  18.267  10.012   7.176
 4455POPC   C1B57187  18.363  10.870   6.183
 4455POPC   C2B57188  18.178  10.827   6.570
 4455POPC   C3B57189  17.992  10.664   6.920
 4455POPC   C4B57190  18.140  10.498   7.271
 4456POPC   NC357191  26.986  27.439   5.297
 4456POPC   PO457192  26.696  28.019   5.565
 4456POPC   GL157193  26.584  27.776   5.902
 4456POPC   GL257194  26.553  27.439   5.753
 4456POPC   C1A57195  26.587  27.831   6.309
 4456POPC   D2A57196  26.735  27.640   6.641
 4456POPC   C3A57197  26.517  27.719   6.980
 4456POPC   C4A57198  26.604  27.411   7.249
 4456POPC   C1B57199  26.782  27.350   6.147
 4456POPC   C2B57200  27.057  27.252   6.499
 4456POPC   C3B57201  27.013  27.285   6.944
 4456POPC   C4B57202  27.084  27.331   7.405
 4457POPC   NC357203  10.628  33.350   5.353
 4457POPC   PO457204  10.093  32.962   5.369
 4457POPC   GL157205  10.396  32.977   5.698
 4457POPC   GL257206  10.547  32.678   5.603
 4457POPC   C1A57207  10.610  33.121   6.128
 4457POPC   D2A57208  10.835  33.063   6.554
 4457POPC   C3A57209  10.593  33.149   6.943
 4457POPC   C4A57210  10.369  33.450   7.217
 4457POPC   C1B57211  10.573  32.629   6.035
 4457POPC   C2B57212  10.617  32.606   6.475
 4457POPC   C3B57213  10.726  32.617   6.896
 4457POPC   C4B57214  10.618  32.780   7.289
 4458POPC   NC357215  43.394  12.948   5.216
 4458POPC   PO457216  44.083  12.936   5.281
 4458POPC   GL157217  43.987  12.870   5.788
 4458POPC   GL257218  44.133  12.668   6.014
 4458POPC   C1A57219  43.702  12.796   6.194
 4458POPC   D2A57220  43.884  12.803   6.598
 4458POPC   C3A57221  43.683  13.082   6.858
 4458POPC   C4A57222  43.587  12.976   7.246
 4458POPC   C1B57223  44.343  12.867   6.325
 4458POPC   C2B57224  44.389  12.806   6.752
 4458POPC   C3B57225  44.107  12.819   7.095
 4458POPC   C4B57226  44.037  13.027   7.479
 4459POPC   NC357227  35.541  33.706   5.465
 4459POPC   PO457228  35.279  34.291   5.268
 4459POPC   GL157229  35.356  34.121   5.733
 4459POPC   GL257230  35.705  34.007   5.835
 4459POPC   C1A57231  35.201  33.986   6.176
 4459POPC   D2A57232  35.073  34.212   6.565
 4459POPC   C3A57233  35.205  33.967   6.913
 4459POPC   C4A57234  35.244  33.711   7.241
 4459POPC   C1B57235  35.643  33.676   6.131
 4459POPC   C2B57236  35.561  33.761   6.556
 4459POPC   C3B57237  35.701  33.663   6.985
 4459POPC   C4B57238  35.714  33.758   7.433
 4460POPC   NC357239  21.738  43.856   5.483
 4460POPC   PO457240  21.186  44.034   5.249
 4460POPC   GL157241  21.197  43.854   5.703
 4460POPC   GL257242  21.505  43.746   5.938
 4460POPC   C1A57243  21.014  43.829   6.131
 4460POPC   D2A57244  21.207  43.846   6.553
 4460POPC   C3A57245  21.088  44.029   6.943
 4460POPC   C4A57246  21.188  43.683   7.209
 4460POPC   C1B57247  21.607  44.051   6.293
 4460POPC   C2B57248  21.660  44.102   6.761
 4460POPC   C3B57249  21.549  44.074   7.188
 4460POPC   C4B57250  21.685  44.136   7.625
 4461POPC   NC357251   6.054  10.024   5.446
 4461POPC   PO457252   5.949   9.339   5.364
 4461POPC   GL157253   5.901   9.544   5.756
 4461POPC   GL257254   6.103   9.252   5.902
 4461POPC   C1A57255   5.739   9.838   6.125
 4461POPC   D2A57256   5.542   9.920   6.533
 4461POPC   C3A57257   5.795  10.043   6.887
 4461POPC   C4A57258   5.602   9.991   7.277
 4461POPC   C1B57259   5.735   9.341   6.177
 4461POPC   C2B57260   5.733   9.446   6.608
 4461POPC   C3B57261   5.648   9.563   7.029
 4461POPC   C4B57262   5.550   9.536   7.478
 4462POPC   NC357263  41.890  21.331   5.712
 4462POPC   PO457264  42.535  21.244   5.455
 4462POPC   GL157265  42.543  21.256   5.842
 4462POPC   GL257266  42.372  21.590   5.841
 4462POPC   C1A57267  42.332  21.184   6.213
 4462POPC   D2A57268  42.103  21.462   6.489
 4462POPC   C3A57269  42.042  21.267   6.872
 4462POPC   C4A57270  42.188  21.310   7.277
 4462POPC   C1B57271  42.652  21.602   6.197
 4462POPC   C2B57272  42.607  21.370   6.594
 4462POPC   C3B57273  42.611  21.438   6.996
 4462POPC   C4B57274  42.580  21.671   7.322
 4463POPC   NC357275  20.317  40.660   5.296
 4463POPC   PO457276  20.956  40.639   5.354
 4463POPC   GL157277  20.655  40.757   5.706
 4463POPC   GL257278  20.848  40.941   5.989
 4463POPC   C1A57279  20.335  40.919   6.016
 4463POPC   D2A57280  20.500  41.043   6.437
 4463POPC   C3A57281  20.343  40.843   6.818
 4463POPC   C4A57282  20.530  40.735   7.195
 4463POPC   C1B57283  20.660  40.575   6.213
 4463POPC   C2B57284  20.515  40.391   6.600
 4463POPC   C3B57285  20.697  40.288   7.002
 4463POPC   C4B57286  20.937  40.460   7.344
 4464POPC   NC357287  38.109  32.012   5.554
 4464POPC   PO457288  37.737  31.498   5.321
 4464POPC   GL157289  37.646  31.558   5.744
 4464POPC   GL257290  37.930  31.716   5.928
 4464POPC   C1A57291  37.507  31.340   6.104
 4464POPC   D2A57292  37.605  31.187   6.543
 4464POPC   C3A57293  37.430  31.359   6.896
 4464POPC   C4A57294  37.555  31.316   7.280
 4464POPC   C1B57295  37.645  31.798   6.288
 4464POPC   C2B57296  37.630  31.797   6.740
 4464POPC   C3B57297  37.911  31.771   7.112
 4464POPC   C4B57298  37.836  31.634   7.544
 4465POPC   NC357299  31.057  10.011   5.576
 4465POPC   PO457300  30.621   9.528   5.402
 4465POPC   GL157301  30.649   9.695   5.812
 4465POPC   GL257302  30.664  10.027   5.893
 4465POPC   C1A57303  30.572   9.563   6.225
 4465POPC   D2A57304  30.662   9.763   6.601
 4465POPC   C3A57305  30.631   9.525   6.937
 4465POPC   C4A57306  30.333   9.281   7.150
 4465POPC   C1B57307  30.948   9.940   6.221
 4465POPC   C2B57308  31.111  10.008   6.616
 4465POPC   C3B57309  30.882   9.973   7.019
 4465POPC   C4B57310  30.981   9.966   7.452
 4466POPC   NC357311   7.379  34.385   5.383
 4466POPC   PO457312   8.045  34.393   5.486
 4466POPC   GL157313   7.641  34.609   5.779
 4466POPC   GL257314   7.254  34.535   5.840
 4466POPC   C1A57315   7.510  34.645   6.268
 4466POPC   D2A57316   7.658  34.419   6.677
 4466POPC   C3A57317   7.669  34.585   7.075
 4466POPC   C4A57318   7.293  34.806   7.071
 4466POPC   C1B57319   7.118  34.301   6.199
 4466POPC   C2B57320   7.139  34.431   6.618
 4466POPC   C3B57321   7.250  34.293   7.013
 4466POPC   C4B57322   7.118  34.440   7.388
 4467POPC   NC357323   4.255  39.703   5.032
 4467POPC   PO457324   4.518  39.971   5.553
 4467POPC   GL157325   4.530  39.972   5.941
 4467POPC   GL257326   4.472  39.636   5.970
 4467POPC   C1A57327   4.438  40.251   6.310
 4467POPC   D2A57328   4.288  40.357   6.736
 4467POPC   C3A57329   4.572  40.124   7.045
 4467POPC   C4A57330   4.680  40.209   7.476
 4467POPC   C1B57331   4.289  39.751   6.314
 4467POPC   C2B57332   4.336  39.852   6.682
 4467POPC   C3B57333   4.429  39.618   7.004
 4467POPC   C4B57334   4.429  39.744   7.430
 4468POPC   NC357335  42.034  10.263   5.371
 4468POPC   PO457336  41.509  10.647   5.368
 4468POPC   GL157337  41.612  10.662   5.842
 4468POPC   GL257338  41.906  10.449   5.980
 4468POPC   C1A57339  41.486  10.442   6.278
 4468POPC   D2A57340  41.642  10.468   6.724
 4468POPC   C3A57341  41.341  10.514   7.062
 4468POPC   C4A57342  41.176  10.118   7.227
 4468POPC   C1B57343  41.851  10.818   6.280
 4468POPC   C2B57344  41.744  10.972   6.707
 4468POPC   C3B57345  41.798  10.761   7.131
 4468POPC   C4B57346  41.932  10.949   7.530
 4469POPC   NC357347  19.803  21.564   5.275
 4469POPC   PO457348  19.366  21.242   5.505
 4469POPC   GL157349  19.489  21.554   5.873
 4469POPC   GL257350  19.774  21.768   5.768
 4469POPC   C1A57351  19.641  21.489   6.355
 4469POPC   D2A57352  19.402  21.348   6.757
 4469POPC   C3A57353  19.670  21.233   7.114
 4469POPC   C4A57354  20.054  21.158   7.354
 4469POPC   C1B57355  19.734  21.959   6.185
 4469POPC   C2B57356  19.839  21.961   6.626
 4469POPC   C3B57357  19.689  21.747   7.006
 4469POPC   C4B57358  19.473  21.861   7.392
 4470POPC   NC357359  33.580  23.818   5.558
 4470POPC   PO457360  33.731  23.336   5.142
 4470POPC   GL157361  34.032  23.559   5.628
 4470POPC   GL257362  33.783  23.708   5.981
 4470POPC   C1A57363  34.211  23.560   6.122
 4470POPC   D2A57364  33.931  23.704   6.492
 4470POPC   C3A57365  33.864  23.581   6.944
 4470POPC   C4A57366  33.761  23.828   7.323
 4470POPC   C1B57367  33.467  23.554   6.294
 4470POPC   C2B57368  33.219  23.806   6.557
 4470POPC   C3B57369  33.364  23.816   6.987
 4470POPC   C4B57370  33.372  23.447   7.240
 4471POPC   NC357371  26.911  42.266   5.125
 4471POPC   PO457372  26.516  42.731   5.383
 4471POPC   GL157373  26.679  42.368   5.621
 4471POPC   GL257374  26.428  42.169   5.852
 4471POPC   C1A57375  26.805  42.441   6.060
 4471POPC   D2A57376  26.686  42.554   6.480
 4471POPC   C3A57377  26.807  42.284   6.821
 4471POPC   C4A57378  26.916  42.471   7.194
 4471POPC   C1B57379  26.481  42.099   6.366
 4471POPC   C2B57380  26.369  41.972   6.848
 4471POPC   C3B57381  26.552  42.095   7.280
 4471POPC   C4B57382  26.968  42.063   7.511
 4472POPC   NC357383  35.390   6.567   5.197
 4472POPC   PO457384  35.106   7.001   5.672
 4472POPC   GL157385  35.358   6.792   5.917
 4472POPC   GL257386  35.314   6.450   5.905
 4472POPC   C1A57387  35.350   6.955   6.300
 4472POPC   D2A57388  35.052   6.968   6.592
 4472POPC   C3A57389  35.305   6.787   6.886
 4472POPC   C4A57390  35.323   6.782   7.296
 4472POPC   C1B57391  35.374   6.449   6.386
 4472POPC   C2B57392  35.637   6.398   6.752
 4472POPC   C3B57393  35.526   6.299   7.197
 4472POPC   C4B57394  35.569   6.080   7.609
 4473POPC   NC357395  44.186  10.406   5.450
 4473POPC   PO457396  44.742  10.680   5.539
 4473POPC   GL157397  44.510  10.469   5.856
 4473POPC   GL257398  44.743  10.172   5.935
 4473POPC   C1A57399  44.464  10.568   6.282
 4473POPC   D2A57400  44.774  10.430   6.566
 4473POPC   C3A57401  44.761  10.756   6.853
 4473POPC   C4A57402  44.802  10.753   7.271
 4473POPC   C1B57403  44.399  10.070   6.242
 4473POPC   C2B57404  44.285  10.226   6.684
 4473POPC   C3B57405  44.584  10.308   7.063
 4473POPC   C4B57406  44.804  10.284   7.484
 4474POPC   NC357407  13.888   5.717   5.382
 4474POPC   PO457408  13.313   5.904   5.359
 4474POPC   GL157409  13.530   5.732   5.744
 4474POPC   GL257410  13.767   6.007   5.805
 4474POPC   C1A57411  13.696   5.530   6.134
 4474POPC   D2A57412  13.476   5.503   6.528
 4474POPC   C3A57413  13.623   5.628   6.961
 4474POPC   C4A57414  13.656   5.544   7.416
 4474POPC   C1B57415  13.591   6.017   6.220
 4474POPC   C2B57416  13.801   5.993   6.602
 4474POPC   C3B57417  13.914   6.059   7.008
 4474POPC   C4B57418  13.738   6.052   7.374
 4475POPC   NC357419  36.978  33.391   5.246
 4475POPC   PO457420  36.597  32.935   5.418
 4475POPC   GL157421  36.768  32.955   5.827
 4475POPC   GL257422  37.110  33.077   5.875
 4475POPC   C1A57423  36.750  32.830   6.268
 4475POPC   D2A57424  36.550  32.808   6.695
 4475POPC   C3A57425  36.837  33.008   6.985
 4475POPC   C4A57426  36.904  32.882   7.409
 4475POPC   C1B57427  37.293  33.184   6.302
 4475POPC   C2B57428  37.329  33.171   6.767
 4475POPC   C3B57429  37.322  33.152   7.220
 4475POPC   C4B57430  37.076  33.344   7.565
 4476POPC   NC357431  39.147  29.460   5.392
 4476POPC   PO457432  39.134  28.845   5.195
 4476POPC   GL157433  39.216  28.981   5.652
 4476POPC   GL257434  39.022  29.243   5.824
 4476POPC   C1A57435  39.371  28.883   6.093
 4476POPC   D2A57436  39.227  28.702   6.500
 4476POPC   C3A57437  39.280  28.920   6.879
 4476POPC   C4A57438  39.278  29.057   7.260
 4476POPC   C1B57439  39.148  29.365   6.200
 4476POPC   C2B57440  39.056  29.281   6.606
 4476POPC   C3B57441  39.113  29.468   7.002
 4476POPC   C4B57442  39.386  29.543   7.326
 4477POPC   NC357443  33.766   5.664   5.494
 4477POPC   PO457444  33.448   6.289   5.472
 4477POPC   GL157445  33.702   6.097   5.819
 4477POPC   GL257446  33.597   5.760   5.970
 4477POPC   C1A57447  33.930   6.113   6.223
 4477POPC   D2A57448  33.861   5.856   6.610
 4477POPC   C3A57449  33.899   5.994   7.041
 4477POPC   C4A57450  34.210   6.226   7.258
 4477POPC   C1B57451  34.002   5.605   6.149
 4477POPC   C2B57452  34.147   5.429   6.557
 4477POPC   C3B57453  34.195   5.594   6.985
 4477POPC   C4B57454  34.131   5.734   7.432
 4478POPC   NC357455  33.510  38.339   5.630
 4478POPC   PO457456  33.951  38.581   5.169
 4478POPC   GL157457  34.002  38.539   5.648
 4478POPC   GL257458  34.093  38.200   5.771
 4478POPC   C1A57459  33.923  38.586   6.116
 4478POPC   D2A57460  33.971  38.776   6.547
 4478POPC   C3A57461  33.882  38.601   6.977
 4478POPC   C4A57462  33.515  38.643   7.255
 4478POPC   C1B57463  33.883  38.078   6.146
 4478POPC   C2B57464  33.750  38.233   6.518
 4478POPC   C3B57465  33.828  38.089   6.913
 4478POPC   C4B57466  33.759  38.209   7.318
 4479POPC   NC357467  31.725   8.986   5.548
 4479POPC   PO457468  32.162   8.620   5.527
 4479POPC   GL157469  32.426   8.741   5.860
 4479POPC   GL257470  32.560   9.080   5.865
 4479POPC   C1A57471  32.316   8.809   6.261
 4479POPC   D2A57472  32.012   8.830   6.567
 4479POPC   C3A57473  32.269   8.759   6.894
 4479POPC   C4A57474  32.063   8.873   7.251
 4479POPC   C1B57475  32.572   9.332   6.227
 4479POPC   C2B57476  32.267   9.272   6.552
 4479POPC   C3B57477  32.261   9.274   6.971
 4479POPC   C4B57478  32.529   9.110   7.248
 4480POPC   NC357479  28.311  39.343   5.597
 4480POPC   PO457480  28.246  38.659   5.497
 4480POPC   GL157481  28.276  38.924   5.878
 4480POPC   GL257482  28.581  38.999   5.900
 4480POPC   C1A57483  28.363  39.235   6.275
 4480POPC   D2A57484  28.410  39.475   6.681
 4480POPC   C3A57485  28.206  39.267   7.028
 4480POPC   C4A57486  28.235  39.182   7.503
 4480POPC   C1B57487  28.675  38.834   6.313
 4480POPC   C2B57488  28.501  38.953   6.706
 4480POPC   C3B57489  28.512  38.893   7.160
 4480POPC   C4B57490  28.640  38.862   7.602
 4481POPC   NC357491  43.711  23.206   5.582
 4481POPC   PO457492  43.142  22.809   5.382
 4481POPC   GL157493  43.037  22.693   5.768
 4481POPC   GL257494  43.387  22.791   5.870
 4481POPC   C1A57495  43.014  22.620   6.189
 4481POPC   D2A57496  43.082  22.779   6.558
 4481POPC   C3A57497  42.799  22.909   6.855
 4481POPC   C4A57498  42.894  22.859   7.286
 4481POPC   C1B57499  43.454  23.033   6.237
 4481POPC   C2B57500  43.401  23.134   6.680
 4481POPC   C3B57501  43.368  22.964   7.111
 4481POPC   C4B57502  43.345  22.976   7.589
 4482POPC   NC357503   6.386  14.833   5.454
 4482POPC   PO457504   6.479  15.541   5.326
 4482POPC   GL157505   6.661  15.363   5.710
 4482POPC   GL257506   6.547  15.062   5.861
 4482POPC   C1A57507   6.648  15.470   6.161
 4482POPC   D2A57508   6.551  15.389   6.600
 4482POPC   C3A57509   6.703  15.578   7.017
 4482POPC   C4A57510   6.572  15.468   7.464
 4482POPC   C1B57511   6.341  15.032   6.244
 4482POPC   C2B57512   6.199  15.026   6.661
 4482POPC   C3B57513   6.459  15.092   7.025
 4482POPC   C4B57514   6.220  14.907   7.324
 4483POPC   NC357515  25.093  19.758   5.441
 4483POPC   PO457516  25.606  20.160   5.284
 4483POPC   GL157517  25.590  19.817   5.581
 4483POPC   GL257518  25.422  20.026   5.766
 4483POPC   C1A57519  25.455  19.590   6.000
 4483POPC   D2A57520  25.396  19.489   6.449
 4483POPC   C3A57521  25.340  19.631   6.837
 4483POPC   C4A57522  25.361  19.722   7.233
 4483POPC   C1B57523  25.407  20.065   6.203
 4483POPC   C2B57524  25.542  20.042   6.642
 4483POPC   C3B57525  25.440  20.200   7.050
 4483POPC   C4B57526  25.172  20.157   7.421
 4484POPC   NC357527  39.589  12.054   5.457
 4484POPC   PO457528  38.986  11.965   5.482
 4484POPC   GL157529  39.254  12.026   5.851
 4484POPC   GL257530  39.388  12.387   5.812
 4484POPC   C1A57531  39.336  12.123   6.300
 4484POPC   D2A57532  39.063  12.271   6.649
 4484POPC   C3A57533  39.018  11.991   7.017
 4484POPC   C4A57534  39.365  11.799   7.259
 4484POPC   C1B57535  39.711  12.492   6.128
 4484POPC   C2B57536  39.768  12.386   6.559
 4484POPC   C3B57537  39.527  12.211   6.906
 4484POPC   C4B57538  39.303  12.317   7.280
 4485POPC   NC357539  27.400  23.633   5.416
 4485POPC   PO457540  26.728  23.571   5.396
 4485POPC   GL157541  27.007  23.616   5.764
 4485POPC   GL257542  27.215  23.939   5.776
 4485POPC   C1A57543  26.906  23.434   6.173
 4485POPC   D2A57544  27.030  23.410   6.618
 4485POPC   C3A57545  26.745  23.628   6.876
 4485POPC   C4A57546  26.608  23.682   7.287
 4485POPC   C1B57547  27.237  23.815   6.207
 4485POPC   C2B57548  27.040  23.942   6.578
 4485POPC   C3B57549  27.162  23.871   6.987
 4485POPC   C4B57550  27.120  23.835   7.395
 4486POPC   NC357551  12.345   5.456   5.583
 4486POPC   PO457552  11.976   4.863   5.477
 4486POPC   GL157553  11.983   5.031   5.869
 4486POPC   GL257554  12.305   5.042   5.913
 4486POPC   C1A57555  11.891   5.184   6.293
 4486POPC   D2A57556  11.657   5.297   6.674
 4486POPC   C3A57557  11.929   5.282   7.021
 4486POPC   C4A57558  12.118   5.113   7.428
 4486POPC   C1B57559  12.294   4.831   6.295
 4486POPC   C2B57560  12.378   4.842   6.743
 4486POPC   C3B57561  12.473   4.744   7.166
 4486POPC   C4B57562  12.491   4.811   7.589
 4487POPC   NC357563  11.847  42.648   5.369
 4487POPC   PO457564  12.288  42.175   5.284
 4487POPC   GL157565  12.129  42.101   5.724
 4487POPC   GL257566  11.796  41.919   5.751
 4487POPC   C1A57567  12.040  42.320   6.142
 4487POPC   D2A57568  11.970  42.649   6.484
 4487POPC   C3A57569  11.898  42.512   6.917
 4487POPC   C4A57570  12.195  42.539   7.251
 4487POPC   C1B57571  11.944  41.826   6.193
 4487POPC   C2B57572  11.842  42.087   6.585
 4487POPC   C3B57573  11.954  42.002   7.022
 4487POPC   C4B57574  11.901  41.830   7.446
 4488POPC   NC357575  12.335  34.460   5.461
 4488POPC   PO457576  11.674  34.766   5.372
 4488POPC   GL157577  11.924  34.648   5.725
 4488POPC   GL257578  12.236  34.858   5.761
 4488POPC   C1A57579  11.974  34.595   6.168
 4488POPC   D2A57580  12.069  34.405   6.564
 4488POPC   C3A57581  11.932  34.688   6.895
 4488POPC   C4A57582  12.063  34.510   7.253
 4488POPC   C1B57583  12.452  34.867   6.150
 4488POPC   C2B57584  12.296  34.870   6.549
 4488POPC   C3B57585  12.449  34.758   6.967
 4488POPC   C4B57586  12.391  34.894   7.374
 4489POPC   NC357587   5.684  21.280   5.457
 4489POPC   PO457588   6.305  21.088   5.539
 4489POPC   GL157589   6.088  21.432   5.763
 4489POPC   GL257590   5.802  21.277   5.950
 4489POPC   C1A57591   6.031  21.671   6.167
 4489POPC   D2A57592   6.158  21.514   6.585
 4489POPC   C3A57593   5.817  21.340   6.843
 4489POPC   C4A57594   5.506  21.472   7.139
 4489POPC   C1B57595   6.171  21.136   6.194
 4489POPC   C2B57596   6.141  20.956   6.596
 4489POPC   C3B57597   6.260  21.109   6.941
 4489POPC   C4B57598   6.094  21.210   7.283
 4490POPC   NC357599   7.360  18.115   5.247
 4490POPC   PO457600   7.793  18.535   5.527
 4490POPC   GL157601   7.553  18.157   5.755
 4490POPC   GL257602   7.219  17.998   5.733
 4490POPC   C1A57603   7.539  18.099   6.208
 4490POPC   D2A57604   7.527  18.469   6.493
 4490POPC   C3A57605   7.620  18.499   6.932
 4490POPC   C4A57606   7.732  18.223   7.310
 4490POPC   C1B57607   7.142  18.370   6.034
 4490POPC   C2B57608   7.015  18.380   6.473
 4490POPC   C3B57609   7.169  18.247   6.874
 4490POPC   C4B57610   7.191  18.492   7.242
 4491POPC   NC357611  24.935  38.340   5.387
 4491POPC   PO457612  25.543  38.637   5.438
 4491POPC   GL157613  25.541  38.395   5.876
 4491POPC   GL257614  25.227  38.221   5.870
 4491POPC   C1A57615  25.443  38.482   6.386
 4491POPC   D2A57616  25.176  38.657   6.767
 4491POPC   C3A57617  25.335  38.674   7.236
 4491POPC   C4A57618  25.775  38.565   7.405
 4491POPC   C1B57619  25.400  38.003   6.235
 4491POPC   C2B57620  25.201  38.010   6.615
 4491POPC   C3B57621  25.220  38.218   7.013
 4491POPC   C4B57622  25.430  38.185   7.421
 4492POPC   NC357623  29.425  15.332   5.636
 4492POPC   PO457624  28.736  15.423   5.603
 4492POPC   GL157625  28.868  15.461   5.967
 4492POPC   GL257626  29.089  15.170   6.054
 4492POPC   C1A57627  28.708  15.417   6.362
 4492POPC   D2A57628  29.001  15.329   6.643
 4492POPC   C3A57629  28.934  15.390   7.071
 4492POPC   C4A57630  29.301  15.472   7.283
 4492POPC   C1B57631  29.322  14.907   6.396
 4492POPC   C2B57632  29.648  14.938   6.713
 4492POPC   C3B57633  29.316  15.053   6.940
 4492POPC   C4B57634  29.176  14.964   7.315
 4493POPC   NC357635  43.553  10.415   5.299
 4493POPC   PO457636  44.066  10.901   5.467
 4493POPC   GL157637  43.944  10.598   5.845
 4493POPC   GL257638  43.585  10.504   5.859
 4493POPC   C1A57639  43.950  10.423   6.283
 4493POPC   D2A57640  44.048  10.714   6.628
 4493POPC   C3A57641  44.156  10.663   7.066
 4493POPC   C4A57642  43.873  10.580   7.432
 4493POPC   C1B57643  43.458  10.201   6.206
 4493POPC   C2B57644  43.629  10.130   6.633
 4493POPC   C3B57645  43.725  10.388   6.967
 4493POPC   C4B57646  43.598  10.148   7.298
 4494POPC   NC357647  14.316  13.997   5.477
 4494POPC   PO457648  14.708  14.460   5.340
 4494POPC   GL157649  14.548  14.381   5.791
 4494POPC   GL257650  14.196  14.336   5.827
 4494POPC   C1A57651  14.487  14.470   6.268
 4494POPC   D2A57652  14.296  14.557   6.709
 4494POPC   C3A57653  14.540  14.441   7.085
 4494POPC   C4A57654  14.486  14.293   7.522
 4494POPC   C1B57655  14.151  14.081   6.211
 4494POPC   C2B57656  14.197  14.025   6.690
 4494POPC   C3B57657  14.081  14.213   7.104
 4494POPC   C4B57658  13.931  14.247   7.544
 4495POPC   NC357659  40.204  40.059   5.495
 4495POPC   PO457660  39.591  40.121   5.618
 4495POPC   GL157661  39.930  39.916   5.913
 4495POPC   GL257662  40.285  39.726   5.878
 4495POPC   C1A57663  39.960  39.961   6.349
 4495POPC   D2A57664  39.760  40.167   6.697
 4495POPC   C3A57665  39.892  40.038   7.095
 4495POPC   C4A57666  39.759  39.673   7.198
 4495POPC   C1B57667  40.438  39.745   6.285
 4495POPC   C2B57668  40.353  39.904   6.685
 4495POPC   C3B57669  40.310  39.694   7.066
 4495POPC   C4B57670  40.339  39.864   7.439
 4496POPC   NC357671  15.365   6.246   5.456
 4496POPC   PO457672  14.901   6.782   5.243
 4496POPC   GL157673  14.776   6.626   5.712
 4496POPC   GL257674  14.948   6.315   5.881
 4496POPC   C1A57675  14.903   6.770   6.148
 4496POPC   D2A57676  15.118   6.796   6.526
 4496POPC   C3A57677  14.913   6.751   6.899
 4496POPC   C4A57678  14.994   6.719   7.318
 4496POPC   C1B57679  15.101   6.312   6.329
 4496POPC   C2B57680  15.259   6.361   6.768
 4496POPC   C3B57681  15.334   6.308   7.232
 4496POPC   C4B57682  15.511   6.253   7.672
 4497POPC   NC357683  38.353  14.980   5.351
 4497POPC   PO457684  38.907  15.394   5.389
 4497POPC   GL157685  38.533  15.410   5.736
 4497POPC   GL257686  38.249  15.134   5.835
 4497POPC   C1A57687  38.528  15.269   6.210
 4497POPC   D2A57688  38.769  15.204   6.545
 4497POPC   C3A57689  38.637  15.075   6.944
 4497POPC   C4A57690  38.546  15.385   7.244
 4497POPC   C1B57691  38.139  15.552   6.055
 4497POPC   C2B57692  37.969  15.624   6.441
 4497POPC   C3B57693  37.940  15.603   6.872
 4497POPC   C4B57694  38.103  15.631   7.259
 4498POPC   NC357695  12.376  31.597   5.359
 4498POPC   PO457696  11.842  31.156   5.199
 4498POPC   GL157697  12.025  31.311   5.616
 4498POPC   GL257698  12.061  31.669   5.745
 4498POPC   C1A57699  12.015  31.295   6.098
 4498POPC   D2A57700  11.800  31.492   6.474
 4498POPC   C3A57701  11.829  31.322   6.908
 4498POPC   C4A57702  12.105  31.277   7.287
 4498POPC   C1B57703  12.120  31.787   6.187
 4498POPC   C2B57704  12.046  31.934   6.635
 4498POPC   C3B57705  12.189  31.749   7.041
 4498POPC   C4B57706  12.275  31.730   7.507
 4499POPC   NC357707  37.389  44.481   5.534
 4499POPC   PO457708  36.786  44.721   5.342
 4499POPC   GL157709  36.835  44.800   5.757
 4499POPC   GL257710  36.524  44.624   5.795
 4499POPC   C1A57711  36.915  44.700   6.186
 4499POPC   D2A57712  37.126  44.617   6.580
 4499POPC   C3A57713  36.895  44.790   6.909
 4499POPC   C4A57714  36.949  44.710   7.302
 4499POPC   C1B57715  36.556  44.322   6.121
 4499POPC   C2B57716  36.643  44.418   6.539
 4499POPC   C3B57717  36.776  44.287   6.932
 4499POPC   C4B57718  36.629  44.178   7.324
 4500POPC   NC357719   7.031  22.044   5.667
 4500POPC   PO457720   6.809  22.487   5.196
 4500POPC   GL157721   6.677  22.468   5.676
 4500POPC   GL257722   6.961  22.532   5.856
 4500POPC   C1A57723   6.566  22.191   6.102
 4500POPC   D2A57724   6.657  22.239   6.566
 4500POPC   C3A57725   6.802  22.018   6.939
 4500POPC   C4A57726   6.438  21.989   7.201
 4500POPC   C1B57727   6.705  22.660   6.229
 4500POPC   C2B57728   6.802  22.726   6.644
 4500POPC   C3B57729   6.775  22.526   7.038
 4500POPC   C4B57730   6.819  22.271   7.393
 4501POPC   NC357731  43.685  12.581   5.511
 4501POPC   PO457732  43.852  11.816   5.352
 4501POPC   GL157733  43.902  11.954   5.815
 4501POPC   GL257734  43.771  12.295   5.932
 4501POPC   C1A57735  43.698  11.894   6.227
 4501POPC   D2A57736  43.815  11.963   6.648
 4501POPC   C3A57737  43.661  12.094   7.022
 4501POPC   C4A57738  43.885  11.938   7.374
 4501POPC   C1B57739  43.925  12.357   6.352
 4501POPC   C2B57740  44.159  12.335   6.750
 4501POPC   C3B57741  44.233  12.284   7.194
 4501POPC   C4B57742  44.057  12.484   7.576
 4502POPC   NC357743  30.321   6.339   5.434
 4502POPC   PO457744  30.973   6.521   5.545
 4502POPC   GL157745  31.083   6.522   5.952
 4502POPC   GL257746  31.199   6.206   5.957
 4502POPC   C1A57747  30.840   6.620   6.323
 4502POPC   D2A57748  30.842   6.957   6.617
 4502POPC   C3A57749  30.533   6.901   6.931
 4502POPC   C4A57750  30.527   6.711   7.314
 4502POPC   C1B57751  31.082   6.067   6.368
 4502POPC   C2B57752  30.943   6.287   6.733
 4502POPC   C3B57753  30.967   6.581   7.060
 4502POPC   C4B57754  30.862   6.365   7.430
 4503POPC   NC357755  35.481   3.044   5.355
 4503POPC   PO457756  35.201   2.524   5.536
 4503POPC   GL157757  35.326   2.836   5.801
 4503POPC   GL257758  35.585   2.698   5.873
 4503POPC   C1A57759  35.155   2.843   6.198
 4503POPC   D2A57760  35.273   2.989   6.563
 4503POPC   C3A57761  35.298   2.650   6.818
 4503POPC   C4A57762  35.264   2.817   7.198
 4503POPC   C1B57763  35.665   3.018   6.184
 4503POPC   C2B57764  35.781   2.964   6.631
 4503POPC   C3B57765  35.754   2.787   7.062
 4503POPC   C4B57766  35.660   3.009   7.444
 4504POPC   NC357767  35.284  11.635   5.413
 4504POPC   PO457768  35.584  11.121   5.294
 4504POPC   GL157769  35.426  11.302   5.766
 4504POPC   GL257770  35.041  11.477   5.820
 4504POPC   C1A57771  35.555  11.358   6.219
 4504POPC   D2A57772  35.756  11.346   6.657
 4504POPC   C3A57773  35.527  11.499   7.023
 4504POPC   C4A57774  35.384  11.247   7.358
 4504POPC   C1B57775  35.015  11.347   6.237
 4504POPC   C2B57776  35.215  11.334   6.618
 4504POPC   C3B57777  35.011  11.286   6.991
 4504POPC   C4B57778  35.010  11.567   7.301
 4505POPC   NC357779  10.109  23.786   5.202
 4505POPC   PO457780   9.538  23.797   5.617
 4505POPC   GL157781   9.654  23.674   6.048
 4505POPC   GL257782   9.886  23.413   6.019
 4505POPC   C1A57783   9.991  23.842   6.333
 4505POPC   D2A57784  10.228  23.717   6.703
 4505POPC   C3A57785  10.006  23.719   7.088
 4505POPC   C4A57786   9.661  23.963   7.201
 4505POPC   C1B57787   9.876  23.374   6.458
 4505POPC   C2B57788   9.637  23.629   6.692
 4505POPC   C3B57789   9.481  23.515   7.050
 4505POPC   C4B57790   9.678  23.431   7.377
 4506POPC   NC357791  31.442  16.997   5.564
 4506POPC   PO457792  31.449  17.611   5.278
 4506POPC   GL157793  31.593  17.485   5.691
 4506POPC   GL257794  31.324  17.362   5.915
 4506POPC   C1A57795  31.803  17.693   6.048
 4506POPC   D2A57796  31.641  17.678   6.463
 4506POPC   C3A57797  31.779  17.574   6.882
 4506POPC   C4A57798  31.547  17.489   7.281
 4506POPC   C1B57799  31.706  17.212   6.124
 4506POPC   C2B57800  31.823  17.173   6.536
 4506POPC   C3B57801  31.551  17.123   6.883
 4506POPC   C4B57802  31.826  17.051   7.187
 4507POPC   NC357803  27.148  29.592   5.369
 4507POPC   PO457804  26.672  30.021   5.339
 4507POPC   GL157805  26.667  29.797   5.734
 4507POPC   GL257806  27.012  29.725   5.857
 4507POPC   C1A57807  26.398  29.814   6.096
 4507POPC   D2A57808  26.356  29.627   6.472
 4507POPC   C3A57809  26.383  29.863   6.829
 4507POPC   C4A57810  26.710  29.767   7.110
 4507POPC   C1B57811  26.808  29.531   6.222
 4507POPC   C2B57812  26.894  29.575   6.659
 4507POPC   C3B57813  27.116  29.474   7.045
 4507POPC   C4B57814  27.168  29.705   7.418
 4508POPC   NC357815  37.880   4.715   5.359
 4508POPC   PO457816  37.588   4.105   5.224
 4508POPC   GL157817  37.698   4.284   5.703
 4508POPC   GL257818  37.868   4.584   5.846
 4508POPC   C1A57819  37.950   4.162   6.140
 4508POPC   D2A57820  38.138   4.141   6.587
 4508POPC   C3A57821  37.977   4.198   7.004
 4508POPC   C4A57822  38.114   4.240   7.438
 4508POPC   C1B57823  37.693   4.585   6.247
 4508POPC   C2B57824  37.649   4.328   6.624
 4508POPC   C3B57825  37.471   4.189   7.028
 4508POPC   C4B57826  37.340   4.382   7.401
 4509POPC   NC357827  20.795   8.131   5.436
 4509POPC   PO457828  20.290   8.557   5.459
 4509POPC   GL157829  20.445   8.355   5.888
 4509POPC   GL257830  20.638   8.030   5.909
 4509POPC   C1A57831  20.796   8.397   6.242
 4509POPC   D2A57832  20.904   8.491   6.705
 4509POPC   C3A57833  20.739   8.224   7.033
 4509POPC   C4A57834  20.690   7.826   7.232
 4509POPC   C1B57835  20.493   7.988   6.352
 4509POPC   C2B57836  20.323   8.171   6.755
 4509POPC   C3B57837  20.232   8.064   7.208
 4509POPC   C4B57838  20.282   8.119   7.667
 4510POPC   NC357839   1.385  27.388   5.243
 4510POPC   PO457840   1.240  28.001   5.448
 4510POPC   GL157841   1.323  27.740   5.796
 4510POPC   GL257842   1.052  27.539   5.664
 4510POPC   C1A57843   1.367  27.588   6.261
 4510POPC   D2A57844   1.236  27.278   6.590
 4510POPC   C3A57845   1.480  27.359   6.955
 4510POPC   C4A57846   1.486  27.778   7.083
 4510POPC   C1B57847   0.916  27.498   6.094
 4510POPC   C2B57848   0.760  27.463   6.514
 4510POPC   C3B57849   0.914  27.485   6.946
 4510POPC   C4B57850   1.096  27.295   7.281
 4511POPC   NC357851  13.196   0.556   5.470
 4511POPC   PO457852  12.530   0.524   5.322
 4511POPC   GL157853  12.731   0.683   5.697
 4511POPC   GL257854  12.925   0.389   5.869
 4511POPC   C1A57855  12.713   0.750   6.151
 4511POPC   D2A57856  12.736   0.535   6.575
 4511POPC   C3A57857  12.795   0.552   7.018
 4511POPC   C4A57858  12.704   0.232   7.354
 4511POPC   C1B57859  13.184   0.092   6.140
 4511POPC   C2B57860  13.299   0.124   6.592
 4511POPC   C3B57861  13.123   0.165   7.001
 4511POPC   C4B57862  13.219   0.139   7.455
 4512POPC   NC357863  12.417  22.988   5.522
 4512POPC   PO457864  11.774  22.721   5.601
 4512POPC   GL157865  11.870  23.071   5.872
 4512POPC   GL257866  12.212  23.226   5.958
 4512POPC   C1A57867  11.833  23.073   6.311
 4512POPC   D2A57868  11.828  22.887   6.731
 4512POPC   C3A57869  12.129  23.084   7.004
 4512POPC   C4A57870  12.127  23.379   7.338
 4512POPC   C1B57871  12.268  22.797   6.158
 4512POPC   C2B57872  12.335  22.614   6.575
 4512POPC   C3B57873  12.093  22.502   6.949
 4512POPC   C4B57874  12.175  22.665   7.326
 4513POPC   NC357875   1.519  18.008   5.393
 4513POPC   PO457876   0.846  18.150   5.511
 4513POPC   GL157877   1.166  18.282   5.809
 4513POPC   GL257878   1.249  18.652   5.851
 4513POPC   C1A57879   1.376  18.135   6.183
 4513POPC   D2A57880   1.479  17.915   6.558
 4513POPC   C3A57881   1.566  18.087   6.950
 4513POPC   C4A57882   1.380  18.182   7.324
 4513POPC   C1B57883   1.113  18.568   6.271
 4513POPC   C2B57884   1.372  18.481   6.630
 4513POPC   C3B57885   1.170  18.530   7.007
 4513POPC   C4B57886   0.976  18.519   7.398
 4514POPC   NC357887  30.534   1.351   5.324
 4514POPC   PO457888  30.806   0.716   5.460
 4514POPC   GL157889  30.682   1.023   5.785
 4514POPC   GL257890  30.616   1.356   5.817
 4514POPC   C1A57891  30.599   1.045   6.253
 4514POPC   D2A57892  30.690   0.876   6.665
 4514POPC   C3A57893  30.675   1.181   7.034
 4514POPC   C4A57894  31.027   1.414   7.265
 4514POPC   C1B57895  30.428   1.526   6.189
 4514POPC   C2B57896  30.580   1.450   6.599
 4514POPC   C3B57897  30.683   1.703   6.953
 4514POPC   C4B57898  30.540   1.690   7.362
 4515POPC   NC357899  33.631  10.281   5.504
 4515POPC   PO457900  34.089  10.732   5.618
 4515POPC   GL157901  33.900  10.475   5.932
 4515POPC   GL257902  33.555  10.543   5.947
 4515POPC   C1A57903  33.900  10.423   6.380
 4515POPC   D2A57904  34.046  10.770   6.629
 4515POPC   C3A57905  34.100  10.608   7.041
 4515POPC   C4A57906  33.938  10.185   7.225
 4515POPC   C1B57907  33.671  10.857   6.254
 4515POPC   C2B57908  33.528  10.728   6.639
 4515POPC   C3B57909  33.604  10.536   7.003
 4515POPC   C4B57910  33.700  10.705   7.403
 4516POPC   NC357911  16.523  34.891   5.447
 4516POPC   PO457912  17.014  34.306   5.390
 4516POPC   GL157913  16.828  34.539   5.711
 4516POPC   GL257914  16.509  34.359   5.695
 4516POPC   C1A57915  16.907  34.830   6.091
 4516POPC   D2A57916  16.686  34.808   6.503
 4516POPC   C3A57917  16.620  34.517   6.859
 4516POPC   C4A57918  16.761  34.592   7.279
 4516POPC   C1B57919  16.505  34.525   6.108
 4516POPC   C2B57920  16.270  34.468   6.462
 4516POPC   C3B57921  16.110  34.387   6.852
 4516POPC   C4B57922  16.311  34.337   7.235
 4517POPC   NC357923   9.367  35.507   5.446
 4517POPC   PO457924   9.897  35.266   5.221
 4517POPC   GL157925   9.901  35.379   5.692
 4517POPC   GL257926  10.185  35.605   5.775
 4517POPC   C1A57927   9.688  35.479   6.135
 4517POPC   D2A57928   9.464  35.387   6.549
 4517POPC   C3A57929   9.531  35.189   6.988
 4517POPC   C4A57930   9.373  35.504   7.307
 4517POPC   C1B57931  10.047  35.840   6.182
 4517POPC   C2B57932   9.858  35.736   6.596
 4517POPC   C3B57933   9.857  35.564   7.034
 4517POPC   C4B57934  10.098  35.633   7.414
 4518POPC   NC357935  11.210  34.874   5.437
 4518POPC   PO457936  11.064  34.198   5.464
 4518POPC   GL157937  11.086  34.477   5.821
 4518POPC   GL257938  11.409  34.590   5.817
 4518POPC   C1A57939  11.222  34.451   6.272
 4518POPC   D2A57940  11.549  34.508   6.589
 4518POPC   C3A57941  11.398  34.409   7.013
 4518POPC   C4A57942  11.156  34.443   7.388
 4518POPC   C1B57943  11.571  34.929   6.033
 4518POPC   C2B57944  11.569  35.006   6.464
 4518POPC   C3B57945  11.586  35.090   6.914
 4518POPC   C4B57946  11.529  34.831   7.300
 4519POPC   NC357947   1.546  34.644   5.439
 4519POPC   PO457948   2.169  34.537   5.238
 4519POPC   GL157949   2.062  34.385   5.671
 4519POPC   GL257950   2.331  34.151   5.726
 4519POPC   C1A57951   1.835  34.552   6.060
 4519POPC   D2A57952   1.616  34.692   6.463
 4519POPC   C3A57953   1.675  34.459   6.840
 4519POPC   C4A57954   1.799  34.682   7.201
 4519POPC   C1B57955   2.327  34.392   6.127
 4519POPC   C2B57956   2.115  34.551   6.521
 4519POPC   C3B57957   2.251  34.615   6.959
 4519POPC   C4B57958   2.278  34.668   7.438
 4520POPC   NC357959   6.165  13.107   5.567
 4520POPC   PO457960   5.847  12.617   5.344
 4520POPC   GL157961   5.774  12.794   5.781
 4520POPC   GL257962   6.039  12.885   6.012
 4520POPC   C1A57963   5.652  12.648   6.201
 4520POPC   D2A57964   5.857  12.870   6.561
 4520POPC   C3A57965   5.812  12.748   6.972
 4520POPC   C4A57966   5.534  12.735   7.313
 4520POPC   C1B57967   6.154  13.209   6.313
 4520POPC   C2B57968   5.867  13.423   6.597
 4520POPC   C3B57969   5.771  13.282   6.995
 4520POPC   C4B57970   5.972  13.086   7.332
 4521POPC   NC357971  22.590   0.382   5.060
 4521POPC   PO457972  23.047   0.614   5.389
 4521POPC   GL157973  23.084   0.407   5.779
 4521POPC   GL257974  23.321   0.102   5.727
 4521POPC   C1A57975  22.892   0.467   6.202
 4521POPC   D2A57976  22.686   0.248   6.552
 4521POPC   C3A57977  22.866   0.367   6.941
 4521POPC   C4A57978  22.939   0.557   7.322
 4521POPC   C1B57979  23.362   0.236   6.177
 4521POPC   C2B57980  23.277   0.458   6.578
 4521POPC   C3B57981  23.393   0.322   6.993
 4521POPC   C4B57982  23.193   0.113   7.338
 4522POPC   NC357983  35.314  24.700   5.324
 4522POPC   PO457984  35.562  24.100   5.235
 4522POPC   GL157985  35.495  24.429   5.693
 4522POPC   GL257986  35.136  24.691   5.807
 4522POPC   C1A57987  35.348  24.435   6.168
 4522POPC   D2A57988  35.297  24.742   6.520
 4522POPC   C3A57989  35.433  24.705   6.953
 4522POPC   C4A57990  35.378  24.362   7.184
 4522POPC   C1B57991  34.877  24.651   6.237
 4522POPC   C2B57992  34.821  24.790   6.696
 4522POPC   C3B57993  34.925  24.586   7.085
 4522POPC   C4B57994  34.894  24.627   7.534
 4523POPC   NC357995  28.370  28.693   5.047
 4523POPC   PO457996  28.270  29.038   5.561
 4523POPC   GL157997  28.275  28.732   5.900
 4523POPC   GL257998  28.443  29.023   6.074
 4523POPC   C1A57999  28.348  28.614   6.341
 4523POPC   D2A58000  28.487  28.960   6.583
 4523POPC   C3A58001  28.193  29.163   6.794
 4523POPC   C4A58002  28.443  29.127   7.141
 4523POPC   C1B58003  28.283  29.386   6.340
 4523POPC   C2B58004  28.396  29.637   6.736
 4523POPC   C3B58005  28.569  29.647   7.171
 4523POPC   C4B58006  28.595  29.732   7.621
 4524POPC   NC358007  31.072  20.700   5.315
 4524POPC   PO458008  31.610  21.102   5.375
 4524POPC   GL158009  31.324  20.843   5.743
 4524POPC   GL258010  31.413  20.492   5.818
 4524POPC   C1A58011  31.161  20.694   6.193
 4524POPC   D2A58012  31.276  20.766   6.603
 4524POPC   C3A58013  31.156  20.581   6.989
 4524POPC   C4A58014  31.322  20.370   7.316
 4524POPC   C1B58015  31.692  20.683   6.139
 4524POPC   C2B58016  31.748  20.924   6.543
 4524POPC   C3B58017  31.651  20.660   6.928
 4524POPC   C4B58018  31.813  20.325   7.157
 4525POPC   NC358019  19.931  35.875   5.403
 4525POPC   PO458020  19.704  36.423   5.124
 4525POPC   GL158021  19.714  36.323   5.653
 4525POPC   GL258022  19.656  35.993   5.832
 4525POPC   C1A58023  19.636  36.339   6.175
 4525POPC   D2A58024  19.430  36.019   6.512
 4525POPC   C3A58025  19.456  36.232   6.921
 4525POPC   C4A58026  19.709  36.203   7.279
 4525POPC   C1B58027  19.832  35.880   6.247
 4525POPC   C2B58028  19.884  36.152   6.646
 4525POPC   C3B58029  19.938  35.854   6.992
 4525POPC   C4B58030  20.182  35.964   7.372
 4526POPC   NC358031  25.027  44.577   5.290
 4526POPC   PO458032  25.743  44.451   5.289
 4526POPC   GL158033  25.384  44.401   5.616
 4526POPC   GL258034  25.304  44.755   5.692
 4526POPC   C1A58035  25.319  44.350   6.095
 4526POPC   D2A58036  25.497  44.548   6.501
 4526POPC   C3A58037  25.399  44.404   6.934
 4526POPC   C4A58038  25.398  44.543   7.355
 4526POPC   C1B58039  25.197  44.848   6.121
 4526POPC   C2B58040  25.043  44.776   6.540
 4526POPC   C3B58041  25.216  44.865   6.941
 4526POPC   C4B58042  25.135   0.066   7.300
 4527POPC   NC358043  10.860  32.247   5.571
 4527POPC   PO458044  11.369  32.548   5.375
 4527POPC   GL158045  11.408  32.306   5.789
 4527POPC   GL258046  11.184  32.062   5.901
 4527POPC   C1A58047  11.509  32.441   6.216
 4527POPC   D2A58048  11.596  32.274   6.628
 4527POPC   C3A58049  11.524  32.513   7.008
 4527POPC   C4A58050  11.473  32.274   7.388
 4527POPC   C1B58051  10.978  31.920   6.263
 4527POPC   C2B58052  10.985  32.106   6.666
 4527POPC   C3B58053  11.070  32.268   7.058
 4527POPC   C4B58054  11.084  32.593   7.333
 4528POPC   NC358055  42.663  14.209   5.469
 4528POPC   PO458056  42.022  14.384   5.450
 4528POPC   GL158057  42.301  14.530   5.810
 4528POPC   GL258058  42.625  14.347   5.941
 4528POPC   C1A58059  42.344  14.628   6.264
 4528POPC   D2A58060  42.298  14.764   6.682
 4528POPC   C3A58061  42.095  14.521   6.982
 4528POPC   C4A58062  42.199  14.122   7.186
 4528POPC   C1B58063  42.397  14.121   6.254
 4528POPC   C2B58064  42.413  14.240   6.682
 4528POPC   C3B58065  42.638  14.011   6.945
 4528POPC   C4B58066  42.614  13.828   7.280
 4529POPC   NC358067  11.593   6.116   5.564
 4529POPC   PO458068  12.245   5.905   5.625
 4529POPC   GL158069  12.101   5.848   5.980
 4529POPC   GL258070  11.960   5.545   5.944
 4529POPC   C1A58071  12.139   5.857   6.398
 4529POPC   D2A58072  12.308   6.075   6.686
 4529POPC   C3A58073  12.301   5.794   7.007
 4529POPC   C4A58074  11.982   5.711   7.301
 4529POPC   C1B58075  12.355   5.439   6.221
 4529POPC   C2B58076  12.354   5.348   6.651
 4529POPC   C3B58077  12.435   5.287   7.079
 4529POPC   C4B58078  12.445   5.565   7.443
 4530POPC   NC358079   7.802  15.363   5.379
 4530POPC   PO458080   8.440  15.407   5.275
 4530POPC   GL158081   8.397  15.249   5.731
 4530POPC   GL258082   8.053  15.194   5.839
 4530POPC   C1A58083   8.342  15.442   6.170
 4530POPC   D2A58084   8.530  15.402   6.579
 4530POPC   C3A58085   8.398  15.390   6.999
 4530POPC   C4A58086   8.041  15.305   7.210
 4530POPC   C1B58087   7.896  15.216   6.290
 4530POPC   C2B58088   7.999  15.090   6.730
 4530POPC   C3B58089   7.880  14.838   7.110
 4530POPC   C4B58090   7.993  14.926   7.553
 4531POPC   NC358091  21.214  41.077   5.448
 4531POPC   PO458092  20.866  41.694   5.397
 4531POPC   GL158093  20.847  41.711   5.832
 4531POPC   GL258094  20.908  42.034   5.862
 4531POPC   C1A58095  20.609  41.559   6.211
 4531POPC   D2A58096  20.422  41.531   6.625
 4531POPC   C3A58097  20.660  41.249   6.927
 4531POPC   C4A58098  20.499  41.209   7.350
 4531POPC   C1B58099  20.973  41.921   6.287
 4531POPC   C2B58100  20.849  41.832   6.736
 4531POPC   C3B58101  20.965  41.897   7.191
 4531POPC   C4B58102  20.954  41.919   7.661
 4532POPC   NC358103  41.058  23.076   5.592
 4532POPC   PO458104  40.531  22.671   5.539
 4532POPC   GL158105  40.865  22.689   5.841
 4532POPC   GL258106  40.680  23.012   5.918
 4532POPC   C1A58107  41.033  22.854   6.260
 4532POPC   D2A58108  41.218  23.145   6.585
 4532POPC   C3A58109  41.000  23.048   6.969
 4532POPC   C4A58110  40.929  22.616   7.127
 4532POPC   C1B58111  40.676  23.237   6.267
 4532POPC   C2B58112  40.497  23.077   6.622
 4532POPC   C3B58113  40.502  22.888   7.035
 4532POPC   C4B58114  40.728  23.029   7.401
 4533POPC   NC358115   3.797  41.501   5.530
 4533POPC   PO458116   3.067  41.629   5.345
 4533POPC   GL158117   3.286  41.584   5.813
 4533POPC   GL258118   3.612  41.415   5.994
 4533POPC   C1A58119   3.301  41.711   6.270
 4533POPC   D2A58120   3.083  41.601   6.666
 4533POPC   C3A58121   3.234  41.524   7.114
 4533POPC   C4A58122   3.320  41.334   7.542
 4533POPC   C1B58123   3.882  41.110   6.265
 4533POPC   C2B58124   3.962  41.253   6.710
 4533POPC   C3B58125   3.754  41.512   7.051
 4533POPC   C4B58126   3.588  41.955   7.062
 4534POPC   NC358127  20.383  15.912   5.144
 4534POPC   PO458128  20.703  16.423   5.447
 4534POPC   GL158129  20.748  16.142   5.795
 4534POPC   GL258130  20.454  15.964   5.956
 4534POPC   C1A58131  20.902  16.048   6.195
 4534POPC   D2A58132  20.745  15.905   6.605
 4534POPC   C3A58133  20.721  16.077   7.017
 4534POPC   C4A58134  20.788  16.006   7.449
 4534POPC   C1B58135  20.269  15.903   6.380
 4534POPC   C2B58136  20.241  15.953   6.843
 4534POPC   C3B58137  20.342  15.820   7.287
 4534POPC   C4B58138  20.513  15.611   7.661
 4535POPC   NC358139  27.150  34.786   5.285
 4535POPC   PO458140  27.660  34.311   5.431
 4535POPC   GL158141  27.688  34.595   5.775
 4535POPC   GL258142  27.342  34.644   5.745
 4535POPC   C1A58143  27.817  34.567   6.233
 4535POPC   D2A58144  27.593  34.354   6.593
 4535POPC   C3A58145  27.762  34.520   6.991
 4535POPC   C4A58146  27.748  34.952   7.174
 4535POPC   C1B58147  27.312  34.564   6.193
 4535POPC   C2B58148  27.445  34.838   6.538
 4535POPC   C3B58149  27.332  34.760   6.933
 4535POPC   C4B58150  27.256  34.350   7.084
 4536POPC   NC358151  11.707   4.445   5.513
 4536POPC   PO458152  11.219   3.912   5.401
 4536POPC   GL158153  11.073   4.007   5.811
 4536POPC   GL258154  11.229   4.328   5.855
 4536POPC   C1A58155  11.074   4.005   6.264
 4536POPC   D2A58156  11.142   4.345   6.534
 4536POPC   C3A58157  11.260   4.225   6.929
 4536POPC   C4A58158  11.074   4.131   7.300
 4536POPC   C1B58159  11.546   4.183   6.167
 4536POPC   C2B58160  11.652   4.321   6.575
 4536POPC   C3B58161  11.769   4.215   6.974
 4536POPC   C4B58162  11.564   4.498   7.233
 4537POPC   NC358163  36.328  33.408   5.428
 4537POPC   PO458164  35.607  33.240   5.371
 4537POPC   GL158165  35.902  33.241   5.740
 4537POPC   GL258166  36.215  33.019   5.765
 4537POPC   C1A58167  35.938  33.139   6.193
 4537POPC   D2A58168  35.767  33.272   6.590
 4537POPC   C3A58169  35.877  33.100   7.000
 4537POPC   C4A58170  35.681  33.255   7.359
 4537POPC   C1B58171  36.441  33.273   6.073
 4537POPC   C2B58172  36.483  33.299   6.511
 4537POPC   C3B58173  36.507  33.403   6.945
 4537POPC   C4B58174  36.404  33.091   7.270
 4538POPC   NC358175   4.395   3.928   5.435
 4538POPC   PO458176   4.587   4.602   5.618
 4538POPC   GL158177   4.359   4.312   5.866
 4538POPC   GL258178   4.554   4.013   5.939
 4538POPC   C1A58179   4.341   4.436   6.290
 4538POPC   D2A58180   4.485   4.661   6.624
 4538POPC   C3A58181   4.353   4.521   7.006
 4538POPC   C4A58182   4.054   4.408   7.282
 4538POPC   C1B58183   4.582   3.947   6.411
 4538POPC   C2B58184   4.629   4.135   6.805
 4538POPC   C3B58185   4.411   4.043   7.194
 4538POPC   C4B58186   4.577   3.929   7.607
 4539POPC   NC358187  34.853  43.964   5.672
 4539POPC   PO458188  35.496  43.787   5.438
 4539POPC   GL158189  35.560  43.904   5.822
 4539POPC   GL258190  35.255  43.862   5.961
 4539POPC   C1A58191  35.641  43.987   6.257
 4539POPC   D2A58192  35.336  43.959   6.602
 4539POPC   C3A58193  35.438  44.127   6.988
 4539POPC   C4A58194  35.431  44.410   7.332
 4539POPC   C1B58195  35.204  43.566   6.304
 4539POPC   C2B58196  34.986  43.543   6.708
 4539POPC   C3B58197  34.962  43.891   6.984
 4539POPC   C4B58198  35.128  43.976   7.364
 4540POPC   NC358199   6.720  14.156   5.351
 4540POPC   PO458200   6.887  14.787   5.512
 4540POPC   GL158201   6.672  14.504   5.764
 4540POPC   GL258202   6.808  14.164   5.837
 4540POPC   C1A58203   6.544  14.513   6.172
 4540POPC   D2A58204   6.558  14.678   6.565
 4540POPC   C3A58205   6.426  14.566   6.948
 4540POPC   C4A58206   6.672  14.692   7.300
 4540POPC   C1B58207   6.523  14.001   6.123
 4540POPC   C2B58208   6.403  14.181   6.535
 4540POPC   C3B58209   6.590  14.078   6.901
 4540POPC   C4B58210   6.636  14.183   7.300
 4541POPC   NC358211  19.931  38.744   5.359
 4541POPC   PO458212  19.608  38.197   5.190
 4541POPC   GL158213  19.631  38.248   5.647
 4541POPC   GL258214  19.979  38.368   5.730
 4541POPC   C1A58215  19.701  38.141   6.110
 4541POPC   D2A58216  19.879  38.095   6.544
 4541POPC   C3A58217  19.799  38.424   6.875
 4541POPC   C4A58218  19.666  38.720   7.236
 4541POPC   C1B58219  20.140  38.566   6.119
 4541POPC   C2B58220  20.333  38.490   6.518
 4541POPC   C3B58221  20.268  38.650   6.929
 4541POPC   C4B58222  20.137  38.484   7.294
 4542POPC   NC358223   1.429   9.338   5.240
 4542POPC   PO458224   0.861   8.976   5.464
 4542POPC   GL158225   1.144   9.180   5.706
 4542POPC   GL258226   1.372   8.906   5.784
 4542POPC   C1A58227   1.184   9.218   6.161
 4542POPC   D2A58228   1.335   8.976   6.538
 4542POPC   C3A58229   1.109   9.060   6.937
 4542POPC   C4A58230   1.202   9.118   7.369
 4542POPC   C1B58231   1.265   8.607   6.128
 4542POPC   C2B58232   1.357   8.439   6.543
 4542POPC   C3B58233   1.287   8.573   6.986
 4542POPC   C4B58234   1.388   8.657   7.430
 4543POPC   NC358235  21.252   6.303   5.498
 4543POPC   PO458236  21.555   6.941   5.303
 4543POPC   GL158237  21.361   6.754   5.751
 4543POPC   GL258238  21.585   6.472   5.859
 4543POPC   C1A58239  21.434   6.791   6.268
 4543POPC   D2A58240  21.520   7.023   6.679
 4543POPC   C3A58241  21.535   6.798   7.061
 4543POPC   C4A58242  21.161   6.735   7.261
 4543POPC   C1B58243  21.367   6.272   6.239
 4543POPC   C2B58244  21.299   6.135   6.694
 4543POPC   C3B58245  21.338   6.274   7.143
 4543POPC   C4B58246  21.560   6.484   7.499
 4544POPC   NC358247  39.381   4.513   5.491
 4544POPC   PO458248  39.035   3.862   5.515
 4544POPC   GL158249  39.109   4.166   5.863
 4544POPC   GL258250  39.481   4.213   5.918
 4544POPC   C1A58251  39.040   4.356   6.296
 4544POPC   D2A58252  39.101   4.613   6.696
 4544POPC   C3A58253  38.899   4.530   7.104
 4544POPC   C4A58254  38.969   4.600   7.561
 4544POPC   C1B58255  39.561   4.608   6.161
 4544POPC   C2B58256  39.626   4.730   6.602
 4544POPC   C3B58257  39.538   4.494   7.004
 4544POPC   C4B58258  39.672   4.123   7.259
 4545POPC   NC358259   1.502  41.011   4.944
 4545POPC   PO458260   1.254  40.792   5.484
 4545POPC   GL158261   1.183  40.733   5.910
 4545POPC   GL258262   1.202  40.365   5.924
 4545POPC   C1A58263   1.153  41.016   6.271
 4545POPC   D2A58264   0.875  41.115   6.640
 4545POPC   C3A58265   1.017  40.876   7.024
 4545POPC   C4A58266   1.454  40.682   7.180
 4545POPC   C1B58267   1.162  40.428   6.314
 4545POPC   C2B58268   1.265  40.626   6.648
 4545POPC   C3B58269   1.128  40.375   6.956
 4545POPC   C4B58270   0.993  40.417   7.323
 4546POPC   NC358271   4.063  32.438   5.346
 4546POPC   PO458272   4.529  33.031   5.436
 4546POPC   GL158273   4.171  33.075   5.737
 4546POPC   GL258274   4.067  32.759   5.826
 4546POPC   C1A58275   4.089  33.163   6.186
 4546POPC   D2A58276   4.304  32.952   6.543
 4546POPC   C3A58277   4.486  33.138   6.926
 4546POPC   C4A58278   4.279  33.283   7.305
 4546POPC   C1B58279   4.061  32.566   6.234
 4546POPC   C2B58280   4.003  32.548   6.675
 4546POPC   C3B58281   4.073  32.836   6.996
 4546POPC   C4B58282   4.322  32.786   7.345
 4547POPC   NC358283  26.913  36.839   5.028
 4547POPC   PO458284  26.711  36.706   5.663
 4547POPC   GL158285  26.973  36.802   6.011
 4547POPC   GL258286  26.714  36.942   6.127
 4547POPC   C1A58287  26.955  36.645   6.458
 4547POPC   D2A58288  26.610  36.438   6.712
 4547POPC   C3A58289  26.610  36.592   7.135
 4547POPC   C4A58290  26.961  36.771   7.368
 4547POPC   C1B58291  26.504  37.194   6.411
 4547POPC   C2B58292  26.461  37.077   6.805
 4547POPC   C3B58293  26.569  37.093   7.216
 4547POPC   C4B58294  26.392  36.927   7.576
 4548POPC   NC358295  37.707  17.834   5.510
 4548POPC   PO458296  37.817  17.152   5.486
 4548POPC   GL158297  37.747  17.349   5.859
 4548POPC   GL258298  37.919  17.671   5.937
 4548POPC   C1A58299  37.966  17.280   6.270
 4548POPC   D2A58300  38.007  17.280   6.735
 4548POPC   C3A58301  37.633  17.337   6.996
 4548POPC   C4A58302  37.793  17.316   7.402
 4548POPC   C1B58303  37.563  17.648   6.214
 4548POPC   C2B58304  37.685  17.658   6.597
 4548POPC   C3B58305  37.528  17.881   6.918
 4548POPC   C4B58306  37.537  17.751   7.298
 4549POPC   NC358307  22.365  32.266   5.059
 4549POPC   PO458308  21.938  32.442   5.562
 4549POPC   GL158309  21.989  32.410   5.958
 4549POPC   GL258310  21.961  32.734   5.989
 4549POPC   C1A58311  22.084  32.193   6.305
 4549POPC   D2A58312  22.010  31.842   6.550
 4549POPC   C3A58313  22.101  32.038   6.913
 4549POPC   C4A58314  22.194  32.036   7.318
 4549POPC   C1B58315  22.351  32.654   6.220
 4549POPC   C2B58316  22.322  32.491   6.651
 4549POPC   C3B58317  22.168  32.521   7.076
 4549POPC   C4B58318  21.790  32.368   7.262
 4550POPC   NC358319  10.973  14.044   5.733
 4550POPC   PO458320  11.248  14.674   5.468
 4550POPC   GL158321  11.106  14.541   5.820
 4550POPC   GL258322  11.347  14.349   5.887
 4550POPC   C1A58323  11.064  14.600   6.242
 4550POPC   D2A58324  11.170  14.243   6.541
 4550POPC   C3A58325  11.014  14.223   6.955
 4550POPC   C4A58326  11.109  14.334   7.392
 4550POPC   C1B58327  11.555  14.405   6.245
 4550POPC   C2B58328  11.651  14.379   6.672
 4550POPC   C3B58329  11.535  14.385   7.097
 4550POPC   C4B58330  11.600  14.144   7.482
 4551POPC   NC358331  29.204   3.041   5.344
 4551POPC   PO458332  28.740   2.591   5.214
 4551POPC   GL158333  28.856   2.782   5.637
 4551POPC   GL258334  29.195   2.726   5.740
 4551POPC   C1A58335  28.892   2.786   6.124
 4551POPC   D2A58336  29.024   2.517   6.478
 4551POPC   C3A58337  29.004   2.632   6.921
 4551POPC   C4A58338  28.737   2.976   7.117
 4551POPC   C1B58339  29.415   2.699   6.185
 4551POPC   C2B58340  29.470   2.695   6.662
 4551POPC   C3B58341  29.482   2.618   7.128
 4551POPC   C4B58342  29.608   2.612   7.589
 4552POPC   NC358343   1.109   8.555   5.481
 4552POPC   PO458344   1.087   7.868   5.423
 4552POPC   GL158345   1.123   8.124   5.808
 4552POPC   GL258346   1.478   8.209   5.840
 4552POPC   C1A58347   0.939   8.216   6.238
 4552POPC   D2A58348   0.795   8.269   6.672
 4552POPC   C3A58349   1.011   8.152   7.070
 4552POPC   C4A58350   0.834   8.441   7.342
 4552POPC   C1B58351   1.364   7.947   6.225
 4552POPC   C2B58352   1.210   7.949   6.632
 4552POPC   C3B58353   1.376   7.791   7.017
 4552POPC   C4B58354   1.307   7.845   7.460
 4553POPC   NC358355  38.587  21.387   5.379
 4553POPC   PO458356  37.961  21.446   5.503
 4553POPC   GL158357  38.285  21.455   5.841
 4553POPC   GL258358  38.660  21.570   5.853
 4553POPC   C1A58359  38.329  21.672   6.228
 4553POPC   D2A58360  38.561  21.657   6.601
 4553POPC   C3A58361  38.281  21.665   6.926
 4553POPC   C4A58362  38.155  21.469   7.273
 4553POPC   C1B58363  38.659  21.225   6.158
 4553POPC   C2B58364  38.671  21.134   6.600
 4553POPC   C3B58365  38.676  21.307   7.025
 4553POPC   C4B58366  38.596  21.310   7.502
 4554POPC   NC358367   3.137  42.777   5.083
 4554POPC   PO458368   2.587  42.809   5.558
 4554POPC   GL158369   2.786  43.057   5.861
 4554POPC   GL258370   3.089  43.260   5.769
 4554POPC   C1A58371   2.876  42.956   6.277
 4554POPC   D2A58372   2.632  42.818   6.630
 4554POPC   C3A58373   2.614  43.055   6.985
 4554POPC   C4A58374   2.812  43.021   7.345
 4554POPC   C1B58375   2.979  43.450   6.186
 4554POPC   C2B58376   2.826  43.346   6.606
 4554POPC   C3B58377   3.053  43.320   6.970
 4554POPC   C4B58378   3.152  43.371   7.368
 4555POPC   NC358379   3.626  27.263   5.099
 4555POPC   PO458380   3.419  27.877   5.346
 4555POPC   GL158381   3.620  27.740   5.704
 4555POPC   GL258382   3.294  27.635   5.829
 4555POPC   C1A58383   3.709  27.589   6.134
 4555POPC   D2A58384   3.471  27.674   6.489
 4555POPC   C3A58385   3.662  27.673   6.860
 4555POPC   C4A58386   3.668  27.512   7.248
 4555POPC   C1B58387   3.164  27.920   6.134
 4555POPC   C2B58388   3.300  28.142   6.513
 4555POPC   C3B58389   3.247  27.970   6.892
 4555POPC   C4B58390   3.197  27.677   7.241
 4556POPC   NC358391  11.572   5.156   5.438
 4556POPC   PO458392  11.284   4.644   5.451
 4556POPC   GL158393  11.481   4.851   5.865
 4556POPC   GL258394  11.517   5.244   5.935
 4556POPC   C1A58395  11.413   4.925   6.350
 4556POPC   D2A58396  11.357   4.740   6.785
 4556POPC   C3A58397  11.472   5.009   7.112
 4556POPC   C4A58398  11.214   5.173   7.478
 4556POPC   C1B58399  11.348   5.467   6.288
 4556POPC   C2B58400  11.246   5.617   6.716
 4556POPC   C3B58401  11.440   5.529   7.113
 4556POPC   C4B58402  11.664   5.362   7.448
 4557POPC   NC358403  43.267  26.058   5.580
 4557POPC   PO458404  42.769  25.665   5.344
 4557POPC   GL158405  42.811  25.877   5.767
 4557POPC   GL258406  42.821  26.261   5.805
 4557POPC   C1A58407  43.016  25.881   6.188
 4557POPC   D2A58408  42.834  25.967   6.601
 4557POPC   C3A58409  42.966  25.737   6.949
 4557POPC   C4A58410  43.141  25.857   7.329
 4557POPC   C1B58411  42.946  26.372   6.246
 4557POPC   C2B58412  43.265  26.218   6.562
 4557POPC   C3B58413  43.190  26.281   7.030
 4557POPC   C4B58414  43.150  26.345   7.515
 4558POPC   NC358415  36.401   5.619   5.709
 4558POPC   PO458416  36.517   6.274   5.565
 4558POPC   GL158417  36.785   5.941   5.848
 4558POPC   GL258418  36.989   5.608   5.771
 4558POPC   C1A58419  36.866   5.795   6.297
 4558POPC   D2A58420  37.021   6.068   6.641
 4558POPC   C3A58421  36.923   6.105   7.070
 4558POPC   C4A58422  36.770   5.735   7.287
 4558POPC   C1B58423  37.296   5.580   6.131
 4558POPC   C2B58424  37.390   5.712   6.547
 4558POPC   C3B58425  37.183   5.662   6.939
 4558POPC   C4B58426  37.283   5.840   7.313
 4559POPC   NC358427  43.885  27.431   5.419
 4559POPC   PO458428  43.939  28.024   5.579
 4559POPC   GL158429  43.941  27.641   5.887
 4559POPC   GL258430  43.656  27.393   5.922
 4559POPC   C1A58431  43.834  27.663   6.330
 4559POPC   D2A58432  43.709  28.047   6.575
 4559POPC   C3A58433  43.647  27.974   7.014
 4559POPC   C4A58434  43.950  28.030   7.297
 4559POPC   C1B58435  43.732  27.113   6.272
 4559POPC   C2B58436  43.836  27.268   6.670
 4559POPC   C3B58437  43.992  27.616   6.842
 4559POPC   C4B58438  43.858  27.508   7.207
 4560POPC   NC358439   3.957   8.045   5.614
 4560POPC   PO458440   3.396   7.859   5.374
 4560POPC   GL158441   3.465   8.026   5.784
 4560POPC   GL258442   3.650   8.377   5.854
 4560POPC   C1A58443   3.245   7.907   6.142
 4560POPC   D2A58444   3.198   8.108   6.520
 4560POPC   C3A58445   3.223   7.918   6.886
 4560POPC   C4A58446   3.399   8.035   7.210
 4560POPC   C1B58447   3.670   8.197   6.303
 4560POPC   C2B58448   3.691   8.133   6.771
 4560POPC   C3B58449   3.847   8.289   7.169
 4560POPC   C4B58450   3.964   8.567   7.552
 4561POPC   NC358451  30.377  12.500   5.597
 4561POPC   PO458452  30.688  12.796   5.050
 4561POPC   GL158453  30.715  12.867   5.552
 4561POPC   GL258454  30.450  13.089   5.688
 4561POPC   C1A58455  30.736  12.867   6.056
 4561POPC   D2A58456  30.854  12.971   6.518
 4561POPC   C3A58457  30.791  12.663   6.839
 4561POPC   C4A58458  30.670  12.551   7.263
 4561POPC   C1B58459  30.385  13.205   6.173
 4561POPC   C2B58460  30.403  13.203   6.660
 4561POPC   C3B58461  30.499  13.043   7.111
 4561POPC   C4B58462  30.232  12.772   7.396
 4562POPC   NC358463  40.977   6.887   5.623
 4562POPC   PO458464  41.431   6.541   5.290
 4562POPC   GL158465  41.503   6.543   5.761
 4562POPC   GL258466  41.758   6.829   5.737
 4562POPC   C1A58467  41.339   6.388   6.220
 4562POPC   D2A58468  41.173   6.438   6.697
 4562POPC   C3A58469  41.340   6.205   7.101
 4562POPC   C4A58470  41.286   6.316   7.558
 4562POPC   C1B58471  41.767   6.703   6.162
 4562POPC   C2B58472  41.607   6.703   6.558
 4562POPC   C3B58473  41.538   6.843   6.959
 4562POPC   C4B58474  41.631   6.594   7.288
 4563POPC   NC358475  43.347  29.262   5.292
 4563POPC   PO458476  42.670  28.939   5.204
 4563POPC   GL158477  42.873  29.128   5.621
 4563POPC   GL258478  43.211  29.244   5.820
 4563POPC   C1A58479  42.798  29.057   6.098
 4563POPC   D2A58480  42.778  29.237   6.537
 4563POPC   C3A58481  42.764  29.028   6.921
 4563POPC   C4A58482  42.898  29.269   7.259
 4563POPC   C1B58483  43.244  29.272   6.323
 4563POPC   C2B58484  43.250  29.250   6.804
 4563POPC   C3B58485  43.368  29.425   7.222
 4563POPC   C4B58486  43.488  29.465   7.664
 4564POPC   NC358487  38.989  33.546   5.355
 4564POPC   PO458488  39.649  33.735   5.387
 4564POPC   GL158489  39.391  33.780   5.761
 4564POPC   GL258490  39.092  33.603   5.833
 4564POPC   C1A58491  39.263  33.938   6.173
 4564POPC   D2A58492  39.525  33.982   6.520
 4564POPC   C3A58493  39.385  34.038   6.934
 4564POPC   C4A58494  39.502  34.118   7.352
 4564POPC   C1B58495  39.172  33.425   6.211
 4564POPC   C2B58496  39.181  33.596   6.606
 4564POPC   C3B58497  39.288  33.448   6.987
 4564POPC   C4B58498  39.053  33.420   7.344
 4565POPC   NC358499  36.719  32.488   5.456
 4565POPC   PO458500  37.421  32.369   5.395
 4565POPC   GL158501  37.086  32.186   5.688
 4565POPC   GL258502  37.063  32.525   5.839
 4565POPC   C1A58503  36.832  32.179   6.119
 4565POPC   D2A58504  36.792  32.382   6.535
 4565POPC   C3A58505  36.733  32.218   6.959
 4565POPC   C4A58506  36.875  31.914   7.276
 4565POPC   C1B58507  37.254  32.671   6.225
 4565POPC   C2B58508  37.143  32.723   6.645
 4565POPC   C3B58509  37.085  32.566   7.043
 4565POPC   C4B58510  37.226  32.319   7.356
 4566POPC   NC358511   4.023  18.524   5.524
 4566POPC   PO458512   3.939  17.866   5.271
 4566POPC   GL158513   4.088  18.036   5.747
 4566POPC   GL258514   4.313  18.339   5.901
 4566POPC   C1A58515   4.332  17.881   6.154
 4566POPC   D2A58516   4.468  17.814   6.602
 4566POPC   C3A58517   4.406  18.163   6.907
 4566POPC   C4A58518   4.657  18.263   7.254
 4566POPC   C1B58519   4.114  18.596   6.243
 4566POPC   C2B58520   4.176  18.690   6.695
 4566POPC   C3B58521   4.008  18.501   7.069
 4566POPC   C4B58522   4.171  18.244   7.405
 4567POPC   NC358523  30.269  28.200   5.394
 4567POPC   PO458524  29.614  28.189   5.389
 4567POPC   GL158525  29.736  28.151   5.852
 4567POPC   GL258526  30.117  28.137   5.881
 4567POPC   C1A58527  29.742  28.019   6.327
 4567POPC   D2A58528  29.574  28.069   6.768
 4567POPC   C3A58529  29.668  28.223   7.186
 4567POPC   C4A58530  29.560  28.631   7.372
 4567POPC   C1B58531  30.220  28.175   6.316
 4567POPC   C2B58532  30.061  28.255   6.736
 4567POPC   C3B58533  30.145  28.398   7.132
 4567POPC   C4B58534  30.323  28.103   7.401
 4568POPC   NC358535  29.633   2.094   5.564
 4568POPC   PO458536  30.166   1.739   5.362
 4568POPC   GL158537  30.074   1.934   5.763
 4568POPC   GL258538  30.051   2.324   5.728
 4568POPC   C1A58539  30.005   1.862   6.204
 4568POPC   D2A58540  30.278   1.853   6.586
 4568POPC   C3A58541  30.172   1.613   6.961
 4568POPC   C4A58542  29.764   1.577   7.121
 4568POPC   C1B58543  29.787   2.333   6.125
 4568POPC   C2B58544  29.791   2.197   6.530
 4568POPC   C3B58545  29.859   2.038   6.901
 4568POPC   C4B58546  29.812   2.250   7.271
 4569POPC   NC358547  34.354  24.435   5.416
 4569POPC   PO458548  35.038  24.332   5.469
 4569POPC   GL158549  34.745  24.245   5.808
 4569POPC   GL258550  34.562  24.543   5.855
 4569POPC   C1A58551  34.546  24.222   6.240
 4569POPC   D2A58552  34.807  24.279   6.601
 4569POPC   C3A58553  34.570  24.235   6.943
 4569POPC   C4A58554  34.579  24.270   7.373
 4569POPC   C1B58555  34.281  24.647   6.186
 4569POPC   C2B58556  34.373  24.596   6.592
 4569POPC   C3B58557  34.206  24.618   6.985
 4569POPC   C4B58558  34.316  24.717   7.400
 4570POPC   NC358559   4.311  19.215   5.169
 4570POPC   PO458560   4.482  18.667   5.523
 4570POPC   GL158561   4.415  18.884   5.863
 4570POPC   GL258562   4.161  19.045   5.751
 4570POPC   C1A58563   4.428  19.003   6.277
 4570POPC   D2A58564   4.653  19.144   6.628
 4570POPC   C3A58565   4.407  19.158   6.985
 4570POPC   C4A58566   4.318  18.835   7.239
 4570POPC   C1B58567   3.989  19.220   6.147
 4570POPC   C2B58568   4.078  19.186   6.588
 4570POPC   C3B58569   3.891  19.030   6.965
 4570POPC   C4B58570   3.893  19.106   7.386
 4571POPC   NC358571  35.153  38.600   5.483
 4571POPC   PO458572  35.549  38.100   5.407
 4571POPC   GL158573  35.472  38.333   5.773
 4571POPC   GL258574  35.154  38.198   5.823
 4571POPC   C1A58575  35.345  38.546   6.179
 4571POPC   D2A58576  35.191  38.669   6.592
 4571POPC   C3A58577  35.195  38.468   7.013
 4571POPC   C4A58578  35.560  38.438   7.265
 4571POPC   C1B58579  35.097  38.079   6.204
 4571POPC   C2B58580  34.943  38.207   6.597
 4571POPC   C3B58581  34.861  38.011   6.989
 4571POPC   C4B58582  35.072  38.057   7.378
 4572POPC   NC358583  19.112  10.046   4.948
 4572POPC   PO458584  18.817   9.684   5.419
 4572POPC   GL158585  19.000   9.971   5.705
 4572POPC   GL258586  19.364   9.897   5.666
 4572POPC   C1A58587  18.927  10.055   6.161
 4572POPC   D2A58588  18.955   9.793   6.546
 4572POPC   C3A58589  18.878   9.929   6.990
 4572POPC   C4A58590  18.969   9.601   7.314
 4572POPC   C1B58591  19.391   9.802   6.143
 4572POPC   C2B58592  19.459   9.902   6.627
 4572POPC   C3B58593  19.368   9.816   7.107
 4572POPC   C4B58594  19.396   9.725   7.617
 4573POPC   NC358595  25.871  22.393   5.421
 4573POPC   PO458596  26.233  21.937   5.320
 4573POPC   GL158597  26.246  22.123   5.741
 4573POPC   GL258598  26.351  22.473   5.801
 4573POPC   C1A58599  26.105  22.134   6.173
 4573POPC   D2A58600  26.138  21.936   6.585
 4573POPC   C3A58601  25.799  22.059   6.870
 4573POPC   C4A58602  25.822  22.282   7.256
 4573POPC   C1B58603  26.330  22.602   6.277
 4573POPC   C2B58604  26.272  22.480   6.742
 4573POPC   C3B58605  26.303  22.517   7.229
 4573POPC   C4B58606  26.116  22.420   7.657
 4574POPC   NC358607  15.684  30.433   5.362
 4574POPC   PO458608  16.234  29.982   5.488
 4574POPC   GL158609  16.054  30.030   5.885
 4574POPC   GL258610  15.718  30.036   5.791
 4574POPC   C1A58611  16.079  30.080   6.348
 4574POPC   D2A58612  16.028  29.734   6.644
 4574POPC   C3A58613  16.027  29.914   7.039
 4574POPC   C4A58614  16.278  29.923   7.367
 4574POPC   C1B58615  15.660  29.832   6.211
 4574POPC   C2B58616  15.592  30.005   6.650
 4574POPC   C3B58617  15.526  29.939   7.106
 4574POPC   C4B58618  15.782  29.803   7.496
 4575POPC   NC358619  41.141  10.949   5.352
 4575POPC   PO458620  40.655  11.314   4.963
 4575POPC   GL158621  40.692  11.391   5.520
 4575POPC   GL258622  41.013  11.443   5.710
 4575POPC   C1A58623  40.629  11.188   5.989
 4575POPC   D2A58624  40.862  10.935   6.337
 4575POPC   C3A58625  40.881  10.969   6.834
 4575POPC   C4A58626  40.930  11.024   7.293
 4575POPC   C1B58627  40.852  11.625   6.138
 4575POPC   C2B58628  40.711  11.564   6.590
 4575POPC   C3B58629  40.852  11.457   7.030
 4575POPC   C4B58630  40.681  11.410   7.500
 4576POPC   NC358631  22.931  15.685   5.500
 4576POPC   PO458632  23.182  16.302   5.411
 4576POPC   GL158633  22.945  16.143   5.782
 4576POPC   GL258634  22.686  15.879   5.893
 4576POPC   C1A58635  23.121  15.955   6.147
 4576POPC   D2A58636  22.979  15.900   6.523
 4576POPC   C3A58637  23.055  16.170   6.867
 4576POPC   C4A58638  23.080  16.023   7.273
 4576POPC   C1B58639  22.510  15.989   6.282
 4576POPC   C2B58640  22.567  16.129   6.691
 4576POPC   C3B58641  22.614  15.953   7.067
 4576POPC   C4B58642  22.557  15.552   7.191
 4577POPC   NC358643  18.941  14.520   5.265
 4577POPC   PO458644  19.392  14.135   5.535
 4577POPC   GL158645  19.167  14.411   5.772
 4577POPC   GL258646  18.852  14.315   5.775
 4577POPC   C1A58647  19.225  14.542   6.167
 4577POPC   D2A58648  19.336  14.424   6.584
 4577POPC   C3A58649  19.388  14.738   6.900
 4577POPC   C4A58650  19.256  14.656   7.300
 4577POPC   C1B58651  18.806  14.189   6.207
 4577POPC   C2B58652  18.610  14.375   6.583
 4577POPC   C3B58653  18.787  14.514   6.994
 4577POPC   C4B58654  18.956  14.212   7.285
 4578POPC   NC358655  26.084  35.164   5.266
 4578POPC   PO458656  26.092  35.784   5.527
 4578POPC   GL158657  26.236  35.366   5.737
 4578POPC   GL258658  25.979  35.095   5.779
 4578POPC   C1A58659  26.430  35.208   6.147
 4578POPC   D2A58660  26.573  35.431   6.547
 4578POPC   C3A58661  26.376  35.501   6.970
 4578POPC   C4A58662  26.156  35.298   7.317
 4578POPC   C1B58663  25.948  35.039   6.229
 4578POPC   C2B58664  26.071  35.202   6.652
 4578POPC   C3B58665  25.813  35.415   6.983
 4578POPC   C4B58666  25.497  35.175   7.234
 4579POPC   NC358667   7.246  11.538   5.047
 4579POPC   PO458668   7.826  11.242   5.293
 4579POPC   GL158669   7.561  11.185   5.770
 4579POPC   GL258670   7.418  11.484   5.978
 4579POPC   C1A58671   7.199  11.032   6.115
 4579POPC   D2A58672   7.304  10.767   6.509
 4579POPC   C3A58673   7.125  10.826   6.943
 4579POPC   C4A58674   7.188  11.126   7.297
 4579POPC   C1B58675   7.564  11.301   6.337
 4579POPC   C2B58676   7.421  11.205   6.750
 4579POPC   C3B58677   7.626  11.335   7.128
 4579POPC   C4B58678   7.637  11.780   7.272
 4580POPC   NC358679   0.034  30.877   5.361
 4580POPC   PO458680  44.631  30.402   5.533
 4580POPC   GL158681  44.823  30.661   5.812
 4580POPC   GL258682  44.610  30.953   5.789
 4580POPC   C1A58683  44.863  30.765   6.250
 4580POPC   D2A58684  44.611  30.576   6.609
 4580POPC   C3A58685  44.829  30.495   7.019
 4580POPC   C4A58686  44.774  30.559   7.454
 4580POPC   C1B58687  44.502  31.107   6.224
 4580POPC   C2B58688  44.735  31.069   6.666
 4580POPC   C3B58689  44.698  31.007   7.139
 4580POPC   C4B58690  44.410  31.060   7.522
 4581POPC   NC358691  35.297   3.816   5.373
 4581POPC   PO458692  35.750   3.404   5.341
 4581POPC   GL158693  35.441   3.365   5.738
 4581POPC   GL258694  35.428   3.696   5.844
 4581POPC   C1A58695  35.262   3.350   6.166
 4581POPC   D2A58696  35.426   3.578   6.531
 4581POPC   C3A58697  35.483   3.321   6.907
 4581POPC   C4A58698  35.293   3.327   7.300
 4581POPC   C1B58699  35.353   3.983   6.183
 4581POPC   C2B58700  35.158   4.114   6.549
 4581POPC   C3B58701  35.239   3.900   6.921
 4581POPC   C4B58702  35.407   3.810   7.309
 4582POPC   NC358703   9.926  21.145   5.624
 4582POPC   PO458704   9.958  20.561   5.226
 4582POPC   GL158705   9.915  20.484   5.695
 4582POPC   GL258706   9.745  20.754   5.874
 4582POPC   C1A58707   9.850  20.371   6.173
 4582POPC   D2A58708   9.713  20.557   6.580
 4582POPC   C3A58709   9.785  20.365   7.030
 4582POPC   C4A58710   9.763  19.968   7.290
 4582POPC   C1B58711   9.957  20.914   6.248
 4582POPC   C2B58712  10.089  20.891   6.687
 4582POPC   C3B58713   9.765  20.870   7.019
 4582POPC   C4B58714   9.775  20.778   7.424
 4583POPC   NC358715  24.174  31.621   5.167
 4583POPC   PO458716  24.801  31.577   5.444
 4583POPC   GL158717  24.440  31.498   5.719
 4583POPC   GL258718  24.453  31.758   5.984
 4583POPC   C1A58719  24.353  31.259   6.114
 4583POPC   D2A58720  24.132  31.264   6.520
 4583POPC   C3A58721  24.371  31.375   6.892
 4583POPC   C4A58722  24.233  31.640   7.224
 4583POPC   C1B58723  24.899  31.742   6.143
 4583POPC   C2B58724  25.011  31.766   6.580
 4583POPC   C3B58725  24.710  31.782   6.932
 4583POPC   C4B58726  24.692  31.772   7.389
 4584POPC   NC358727  43.568  33.094   5.581
 4584POPC   PO458728  42.982  32.936   5.305
 4584POPC   GL158729  43.053  32.990   5.748
 4584POPC   GL258730  43.309  32.762   5.837
 4584POPC   C1A58731  43.152  33.204   6.146
 4584POPC   D2A58732  42.987  33.336   6.565
 4584POPC   C3A58733  43.008  33.209   6.994
 4584POPC   C4A58734  43.103  32.921   7.335
 4584POPC   C1B58735  43.557  32.837   6.178
 4584POPC   C2B58736  43.350  32.933   6.520
 4584POPC   C3B58737  43.385  32.838   6.900
 4584POPC   C4B58738  43.419  32.503   7.137
 4585POPC   NC358739  41.104  24.633   5.592
 4585POPC   PO458740  40.438  24.357   5.609
 4585POPC   GL158741  40.724  24.258   5.921
 4585POPC   GL258742  41.013  24.118   5.763
 4585POPC   C1A58743  40.839  24.567   6.244
 4585POPC   D2A58744  40.555  24.771   6.562
 4585POPC   C3A58745  40.715  24.680   6.987
 4585POPC   C4A58746  40.608  24.449   7.353
 4585POPC   C1B58747  41.105  24.094   6.220
 4585POPC   C2B58748  41.100  24.313   6.656
 4585POPC   C3B58749  41.078  24.331   7.137
 4585POPC   C4B58750  41.035  24.305   7.607
 4586POPC   NC358751  36.265  24.960   5.491
 4586POPC   PO458752  35.829  25.491   5.330
 4586POPC   GL158753  36.083  25.397   5.716
 4586POPC   GL258754  35.871  25.574   5.932
 4586POPC   C1A58755  36.162  25.190   6.145
 4586POPC   D2A58756  36.160  24.992   6.562
 4586POPC   C3A58757  36.233  25.188   6.957
 4586POPC   C4A58758  36.258  25.068   7.417
 4586POPC   C1B58759  36.164  25.718   6.182
 4586POPC   C2B58760  36.331  25.611   6.576
 4586POPC   C3B58761  36.103  25.726   6.930
 4586POPC   C4B58762  36.009  25.509   7.299
 4587POPC   NC358763   4.275   0.622   5.276
 4587POPC   PO458764   3.918   0.172   5.588
 4587POPC   GL158765   4.208   0.464   5.768
 4587POPC   GL258766   4.087   0.833   5.710
 4587POPC   C1A58767   4.591   0.397   6.044
 4587POPC   D2A58768   4.708   0.351   6.498
 4587POPC   C3A58769   4.444   0.327   6.855
 4587POPC   C4A58770   4.485   0.188   7.270
 4587POPC   C1B58771   4.410   0.873   6.060
 4587POPC   C2B58772   4.317   0.679   6.476
 4587POPC   C3B58773   4.256   0.797   6.930
 4587POPC   C4B58774   4.160   0.578   7.340
 4588POPC   NC358775  20.719  33.751   5.324
 4588POPC   PO458776  20.232  34.012   5.500
 4588POPC   GL158777  20.539  33.810   5.807
 4588POPC   GL258778  20.786  33.517   5.769
 4588POPC   C1A58779  20.533  33.726   6.231
 4588POPC   D2A58780  20.324  33.728   6.594
 4588POPC   C3A58781  20.544  33.766   6.982
 4588POPC   C4A58782  20.348  33.968   7.353
 4588POPC   C1B58783  21.016  33.605   6.140
 4588POPC   C2B58784  20.958  33.822   6.530
 4588POPC   C3B58785  21.085  33.607   6.899
 4588POPC   C4B58786  20.955  33.729   7.302
 4589POPC   NC358787  18.133  17.856   5.350
 4589POPC   PO458788  18.383  17.223   5.357
 4589POPC   GL158789  18.338  17.347   5.771
 4589POPC   GL258790  18.076  17.585   5.791
 4589POPC   C1A58791  18.490  17.455   6.188
 4589POPC   D2A58792  18.470  17.214   6.577
 4589POPC   C3A58793  18.398  17.386   6.988
 4589POPC   C4A58794  18.462  17.230   7.387
 4589POPC   C1B58795  17.981  17.362   6.169
 4589POPC   C2B58796  18.044  17.490   6.589
 4589POPC   C3B58797  17.969  17.654   7.005
 4589POPC   C4B58798  18.107  17.577   7.432
 4590POPC   NC358799   0.804  40.675   5.576
 4590POPC   PO458800   0.615  41.303   5.454
 4590POPC   GL158801   0.520  41.043   5.833
 4590POPC   GL258802   0.334  40.743   5.799
 4590POPC   C1A58803   0.669  40.832   6.224
 4590POPC   D2A58804   0.449  40.714   6.618
 4590POPC   C3A58805   0.593  40.563   7.020
 4590POPC   C4A58806   0.603  40.771   7.417
 4590POPC   C1B58807   0.118  40.866   6.195
 4590POPC   C2B58808  44.975  40.912   6.639
 4590POPC   C3B58809   0.196  40.913   7.064
 4590POPC   C4B58810   0.137  40.956   7.540
 4591POPC   NC358811  34.778  13.037   5.466
 4591POPC   PO458812  34.244  12.604   5.624
 4591POPC   GL158813  34.370  12.979   5.861
 4591POPC   GL258814  34.731  13.106   5.963
 4591POPC   C1A58815  34.358  12.859   6.279
 4591POPC   D2A58816  34.595  12.743   6.645
 4591POPC   C3A58817  34.475  12.906   7.073
 4591POPC   C4A58818  34.413  12.716   7.472
 4591POPC   C1B58819  34.593  13.293   6.339
 4591POPC   C2B58820  34.401  13.278   6.721
 4591POPC   C3B58821  34.437  13.435   7.127
 4591POPC   C4B58822  34.627  13.291   7.472
 4592POPC   NC358823  34.769  16.286   5.174
 4592POPC   PO458824  34.907  15.633   5.225
 4592POPC   GL158825  34.586  15.646   5.799
 4592POPC   GL258826  34.541  16.010   5.954
 4592POPC   C1A58827  34.431  15.683   6.300
 4592POPC   D2A58828  34.592  15.914   6.680
 4592POPC   C3A58829  34.469  15.753   7.085
 4592POPC   C4A58830  34.326  15.720   7.545
 4592POPC   C1B58831  34.866  16.124   6.279
 4592POPC   C2B58832  35.068  16.109   6.646
 4592POPC   C3B58833  34.927  16.210   7.058
 4592POPC   C4B58834  34.942  16.358   7.467
 4593POPC   NC358835   8.775  40.699   5.327
 4593POPC   PO458836   9.136  41.252   5.440
 4593POPC   GL158837   9.092  40.892   5.753
 4593POPC   GL258838   9.249  40.540   5.782
 4593POPC   C1A58839   9.053  40.818   6.210
 4593POPC   D2A58840   9.210  40.687   6.608
 4593POPC   C3A58841   9.184  41.004   6.912
 4593POPC   C4A58842   8.977  40.912   7.282
 4593POPC   C1B58843   8.944  40.333   6.110
 4593POPC   C2B58844   8.761  40.274   6.507
 4593POPC   C3B58845   8.921  40.308   6.877
 4593POPC   C4B58846   8.881  40.404   7.256
 4594POPC   NC358847  18.565  36.628   5.338
 4594POPC   PO458848  19.220  36.680   5.484
 4594POPC   GL158849  18.895  36.915   5.693
 4594POPC   GL258850  18.789  36.558   5.788
 4594POPC   C1A58851  18.988  37.171   6.108
 4594POPC   D2A58852  19.261  37.038   6.472
 4594POPC   C3A58853  19.128  37.133   6.901
 4594POPC   C4A58854  19.288  36.995   7.313
 4594POPC   C1B58855  19.003  36.665   6.138
 4594POPC   C2B58856  18.824  36.788   6.517
 4594POPC   C3B58857  18.875  36.642   6.920
 4594POPC   C4B58858  18.847  36.747   7.332
 4595POPC   NC358859  23.740   6.561   5.386
 4595POPC   PO458860  24.035   7.113   5.156
 4595POPC   GL158861  23.902   6.962   5.676
 4595POPC   GL258862  23.691   6.634   5.868
 4595POPC   C1A58863  23.966   6.924   6.154
 4595POPC   D2A58864  23.781   6.618   6.461
 4595POPC   C3A58865  23.857   6.683   6.902
 4595POPC   C4A58866  23.527   6.822   7.182
 4595POPC   C1B58867  23.510   6.289   6.157
 4595POPC   C2B58868  23.352   6.269   6.621
 4595POPC   C3B58869  23.497   6.342   7.055
 4595POPC   C4B58870  23.420   6.173   7.530
 4596POPC   NC358871  35.098  44.580   5.190
 4596POPC   PO458872  35.706  44.661   5.311
 4596POPC   GL158873  35.378  44.673   5.636
 4596POPC   GL258874  35.230  44.331   5.702
 4596POPC   C1A58875  35.334  44.818   6.084
 4596POPC   D2A58876  35.451  44.868   6.525
 4596POPC   C3A58877  35.287  44.825   6.949
 4596POPC   C4A58878  35.467  44.953   7.328
 4596POPC   C1B58879  35.226  44.320   6.189
 4596POPC   C2B58880  35.110  44.445   6.636
 4596POPC   C3B58881  34.991  44.422   7.084
 4596POPC   C4B58882  34.945  44.411   7.548
 4597POPC   NC358883  24.775  11.135   5.277
 4597POPC   PO458884  25.170  11.670   5.367
 4597POPC   GL158885  25.278  11.364   5.722
 4597POPC   GL258886  25.160  11.017   5.715
 4597POPC   C1A58887  25.478  11.232   6.134
 4597POPC   D2A58888  25.507  11.471   6.532
 4597POPC   C3A58889  25.566  11.297   6.929
 4597POPC   C4A58890  25.453  11.411   7.361
 4597POPC   C1B58891  25.040  10.946   6.172
 4597POPC   C2B58892  25.124  11.128   6.572
 4597POPC   C3B58893  25.093  11.178   7.022
 4597POPC   C4B58894  25.066  10.823   7.317
 4598POPC   NC358895  26.356  28.387   5.491
 4598POPC   PO458896  26.929  28.330   5.170
 4598POPC   GL158897  26.853  28.471   5.715
 4598POPC   GL258898  26.564  28.324   5.946
 4598POPC   C1A58899  27.016  28.262   6.167
 4598POPC   D2A58900  27.161  28.555   6.514
 4598POPC   C3A58901  27.060  28.448   6.949
 4598POPC   C4A58902  26.677  28.223   7.055
 4598POPC   C1B58903  26.706  28.633   6.231
 4598POPC   C2B58904  26.647  28.581   6.663
 4598POPC   C3B58905  26.644  28.800   7.057
 4598POPC   C4B58906  26.824  28.778   7.472
 4599POPC   NC358907  15.074  42.050   5.258
 4599POPC   PO458908  15.188  41.335   5.407
 4599POPC   GL158909  15.313  41.506   5.783
 4599POPC   GL258910  15.040  41.763   5.727
 4599POPC   C1A58911  15.425  41.401   6.210
 4599POPC   D2A58912  15.174  41.342   6.596
 4599POPC   C3A58913  15.343  41.243   6.985
 4599POPC   C4A58914  15.473  41.501   7.305
 4599POPC   C1B58915  14.947  41.579   6.138
 4599POPC   C2B58916  14.849  41.716   6.531
 4599POPC   C3B58917  15.043  41.748   6.939
 4599POPC   C4B58918  14.807  41.830   7.317
 4600POPC   NC358919  43.493  18.516   5.672
 4600POPC   PO458920  43.014  18.133   5.311
 4600POPC   GL158921  43.022  18.275   5.748
 4600POPC   GL258922  42.803  18.576   5.826
 4600POPC   C1A58923  43.108  18.107   6.175
 4600POPC   D2A58924  43.386  18.173   6.532
 4600POPC   C3A58925  43.310  18.014   6.956
 4600POPC   C4A58926  42.962  17.967   7.232
 4600POPC   C1B58927  43.104  18.636   6.160
 4600POPC   C2B58928  43.105  18.662   6.575
 4600POPC   C3B58929  43.299  18.510   6.932
 4600POPC   C4B58930  43.301  18.346   7.355
 4601POPC   NC358931  22.119  37.852   5.502
 4601POPC   PO458932  22.198  37.139   5.452
 4601POPC   GL158933  22.179  37.470   5.826
 4601POPC   GL258934  22.441  37.630   5.982
 4601POPC   C1A58935  22.031  37.706   6.288
 4601POPC   D2A58936  21.769  37.800   6.705
 4601POPC   C3A58937  21.923  37.849   7.122
 4601POPC   C4A58938  22.253  37.652   7.326
 4601POPC   C1B58939  22.320  37.254   6.238
 4601POPC   C2B58940  22.499  37.238   6.602
 4601POPC   C3B58941  22.534  37.469   6.922
 4601POPC   C4B58942  22.627  37.251   7.250
 4602POPC   NC358943  20.246  43.148   5.613
 4602POPC   PO458944  19.605  42.906   5.346
 4602POPC   GL158945  19.786  43.031   5.754
 4602POPC   GL258946  19.714  43.379   5.775
 4602POPC   C1A58947  19.835  42.959   6.220
 4602POPC   D2A58948  19.906  43.163   6.634
 4602POPC   C3A58949  19.969  42.898   7.015
 4602POPC   C4A58950  19.618  42.686   7.173
 4602POPC   C1B58951  19.545  43.385   6.213
 4602POPC   C2B58952  19.387  43.273   6.644
 4602POPC   C3B58953  19.529  43.187   7.081
 4602POPC   C4B58954  19.380  43.144   7.522
 4603POPC   NC358955  12.908  22.429   5.464
 4603POPC   PO458956  12.866  21.756   5.120
 4603POPC   GL158957  12.960  21.897   5.601
 4603POPC   GL258958  12.634  22.017   5.730
 4603POPC   C1A58959  13.041  22.032   6.077
 4603POPC   D2A58960  12.855  22.272   6.454
 4603POPC   C3A58961  12.915  22.191   6.916
 4603POPC   C4A58962  12.810  22.325   7.347
 4603POPC   C1B58963  12.583  21.767   6.107
 4603POPC   C2B58964  12.538  21.857   6.555
 4603POPC   C3B58965  12.710  21.709   6.932
 4603POPC   C4B58966  12.880  21.826   7.331
 4604POPC   NC358967  43.451  35.726   5.505
 4604POPC   PO458968  43.448  35.082   5.364
 4604POPC   GL158969  43.145  35.276   5.685
 4604POPC   GL258970  43.014  35.034   5.927
 4604POPC   C1A58971  43.142  35.498   6.111
 4604POPC   D2A58972  43.243  35.350   6.548
 4604POPC   C3A58973  43.236  35.655   6.896
 4604POPC   C4A58974  43.139  35.526   7.317
 4604POPC   C1B58975  42.793  35.167   6.326
 4604POPC   C2B58976  42.652  35.139   6.785
 4604POPC   C3B58977  42.821  35.075   7.237
 4604POPC   C4B58978  42.704  35.024   7.703
 4605POPC   NC358979  22.297  12.352   5.395
 4605POPC   PO458980  21.959  11.810   5.380
 4605POPC   GL158981  22.183  11.927   5.748
 4605POPC   GL258982  22.054  12.237   5.834
 4605POPC   C1A58983  22.368  12.013   6.162
 4605POPC   D2A58984  22.173  11.934   6.554
 4605POPC   C3A58985  22.362  11.970   6.941
 4605POPC   C4A58986  22.041  12.076   7.222
 4605POPC   C1B58987  21.844  12.206   6.240
 4605POPC   C2B58988  21.807  12.358   6.673
 4605POPC   C3B58989  21.686  12.454   7.106
 4605POPC   C4B58990  21.798  12.401   7.545
 4606POPC   NC358991   1.006  24.578   5.400
 4606POPC   PO458992   1.627  24.532   5.289
 4606POPC   GL158993   1.366  24.585   5.737
 4606POPC   GL258994   1.178  24.263   5.785
 4606POPC   C1A58995   1.141  24.601   6.171
 4606POPC   D2A58996   0.907  24.545   6.567
 4606POPC   C3A58997   1.133  24.663   6.946
 4606POPC   C4A58998   1.311  24.464   7.310
 4606POPC   C1B58999   0.794  24.242   6.056
 4606POPC   C2B59000   0.577  24.139   6.467
 4606POPC   C3B59001   0.766  24.081   6.856
 4606POPC   C4B59002   0.852  24.327   7.210
 4607POPC   NC359003  31.237  12.347   5.420
 4607POPC   PO459004  31.597  11.722   5.403
 4607POPC   GL159005  31.566  11.875   5.812
 4607POPC   GL259006  31.574  12.244   5.814
 4607POPC   C1A59007  31.755  11.876   6.219
 4607POPC   D2A59008  31.608  12.103   6.563
 4607POPC   C3A59009  31.794  12.039   6.932
 4607POPC   C4A59010  31.520  11.983   7.234
 4607POPC   C1B59011  31.371  12.408   6.224
 4607POPC   C2B59012  31.304  12.648   6.609
 4607POPC   C3B59013  31.413  12.408   6.962
 4607POPC   C4B59014  31.544  12.481   7.402
 4608POPC   NC359015   4.889   5.671   5.041
 4608POPC   PO459016   5.450   6.093   5.169
 4608POPC   GL159017   5.138   6.010   5.550
 4608POPC   GL259018   5.190   5.707   5.813
 4608POPC   C1A59019   4.944   6.131   5.981
 4608POPC   D2A59020   5.160   6.168   6.394
 4608POPC   C3A59021   5.126   5.874   6.753
 4608POPC   C4A59022   5.233   6.043   7.173
 4608POPC   C1B59023   4.984   5.680   6.259
 4608POPC   C2B59024   4.674   5.534   6.588
 4608POPC   C3B59025   4.785   5.352   6.974
 4608POPC   C4B59026   5.134   5.517   7.160
 4609POPC   NC359027  31.084   8.537   5.073
 4609POPC   PO459028  30.581   8.243   5.453
 4609POPC   GL159029  30.692   8.038   5.821
 4609POPC   GL259030  30.376   7.899   5.840
 4609POPC   C1A59031  30.916   8.198   6.199
 4609POPC   D2A59032  30.856   8.473   6.570
 4609POPC   C3A59033  31.012   8.284   6.981
 4609POPC   C4A59034  30.820   8.118   7.400
 4609POPC   C1B59035  30.400   8.209   6.195
 4609POPC   C2B59036  30.467   8.108   6.622
 4609POPC   C3B59037  30.506   8.287   7.022
 4609POPC   C4B59038  30.319   8.201   7.423
 4610POPC   NC359039   3.003  16.207   5.167
 4610POPC   PO459040   2.513  16.342   5.644
 4610POPC   GL159041   2.705  15.895   5.791
 4610POPC   GL259042   2.543  15.566   5.729
 4610POPC   C1A59043   2.991  15.816   6.204
 4610POPC   D2A59044   3.168  15.898   6.643
 4610POPC   C3A59045   2.869  16.017   6.905
 4610POPC   C4A59046   2.680  15.905   7.280
 4610POPC   C1B59047   2.494  15.672   6.169
 4610POPC   C2B59048   2.543  15.964   6.473
 4610POPC   C3B59049   2.396  15.852   6.848
 4610POPC   C4B59050   2.246  16.103   7.155
 4611POPC   NC359051  14.123  19.036   5.367
 4611POPC   PO459052  14.660  19.406   5.348
 4611POPC   GL159053  14.526  19.170   5.715
 4611POPC   GL259054  14.789  18.973   5.854
 4611POPC   C1A59055  14.263  19.072   6.087
 4611POPC   D2A59056  14.059  19.100   6.516
 4611POPC   C3A59057  14.202  19.169   6.966
 4611POPC   C4A59058  14.241  19.137   7.432
 4611POPC   C1B59059  14.725  19.208   6.251
 4611POPC   C2B59060  14.666  19.009   6.673
 4611POPC   C3B59061  14.621  18.894   7.127
 4611POPC   C4B59062  14.750  19.093   7.509
 4612POPC   NC359063  33.799  29.522   5.463
 4612POPC   PO459064  33.794  28.915   5.222
 4612POPC   GL159065  33.830  29.040   5.691
 4612POPC   GL259066  33.557  29.057   5.902
 4612POPC   C1A59067  33.983  28.999   6.155
 4612POPC   D2A59068  33.785  29.122   6.547
 4612POPC   C3A59069  33.983  29.032   6.934
 4612POPC   C4A59070  34.003  29.159   7.347
 4612POPC   C1B59071  33.426  29.354   6.232
 4612POPC   C2B59072  33.561  29.584   6.631
 4612POPC   C3B59073  33.616  29.390   7.062
 4612POPC   C4B59074  33.629  29.455   7.527
 4613POPC   NC359075   9.239   7.670   5.563
 4613POPC   PO459076   9.018   7.024   5.510
 4613POPC   GL159077   8.961   7.321   5.850
 4613POPC   GL259078   8.650   7.532   5.882
 4613POPC   C1A59079   9.209   7.445   6.229
 4613POPC   D2A59080   9.090   7.556   6.644
 4613POPC   C3A59081   9.364   7.575   7.019
 4613POPC   C4A59082   9.468   7.197   7.244
 4613POPC   C1B59083   8.723   7.319   6.297
 4613POPC   C2B59084   8.632   7.207   6.724
 4613POPC   C3B59085   8.920   7.316   7.056
 4613POPC   C4B59086   9.001   7.486   7.457
 4614POPC   NC359087  15.497  23.012   5.736
 4614POPC   PO459088  14.955  23.146   5.452
 4614POPC   GL159089  15.033  22.895   5.887
 4614POPC   GL259090  15.252  22.591   5.857
 4614POPC   C1A59091  14.996  22.825   6.367
 4614POPC   D2A59092  14.841  22.587   6.761
 4614POPC   C3A59093  14.894  22.806   7.177
 4614POPC   C4A59094  15.015  22.628   7.600
 4614POPC   C1B59095  15.475  22.623   6.255
 4614POPC   C2B59096  15.439  22.813   6.679
 4614POPC   C3B59097  15.359  22.609   7.072
 4614POPC   C4B59098  15.396  22.305   7.385
 4615POPC   NC359099  13.079  43.394   5.458
 4615POPC   PO459100  12.439  43.153   5.424
 4615POPC   GL159101  12.711  43.265   5.804
 4615POPC   GL259102  12.930  42.984   5.869
 4615POPC   C1A59103  12.735  43.301   6.289
 4615POPC   D2A59104  13.046  43.180   6.678
 4615POPC   C3A59105  12.900  43.339   7.091
 4615POPC   C4A59106  12.459  43.416   7.125
 4615POPC   C1B59107  12.909  42.830   6.302
 4615POPC   C2B59108  12.608  42.912   6.633
 4615POPC   C3B59109  12.699  42.877   7.040
 4615POPC   C4B59110  13.156  42.887   7.169
 4616POPC   NC359111   5.172   0.341   5.329
 4616POPC   PO459112   4.687   0.795   5.365
 4616POPC   GL159113   4.937   0.748   5.773
 4616POPC   GL259114   5.074   0.447   5.808
 4616POPC   C1A59115   5.008   0.692   6.231
 4616POPC   D2A59116   4.874   0.865   6.574
 4616POPC   C3A59117   5.031   0.768   6.958
 4616POPC   C4A59118   4.688   0.648   7.198
 4616POPC   C1B59119   5.067   0.189   6.167
 4616POPC   C2B59120   5.165   0.163   6.604
 4616POPC   C3B59121   4.959   0.237   6.996
 4616POPC   C4B59122   5.266   0.412   7.231
 4617POPC   NC359123  40.587   5.220   5.342
 4617POPC   PO459124  40.934   4.728   5.323
 4617POPC   GL159125  40.809   4.947   5.729
 4617POPC   GL259126  40.799   5.338   5.803
 4617POPC   C1A59127  40.960   4.901   6.171
 4617POPC   D2A59128  41.077   4.769   6.597
 4617POPC   C3A59129  40.798   4.786   6.964
 4617POPC   C4A59130  40.778   4.903   7.397
 4617POPC   C1B59131  40.656   5.298   6.247
 4617POPC   C2B59132  40.623   5.175   6.676
 4617POPC   C3B59133  40.603   5.316   7.111
 4617POPC   C4B59134  40.508   5.277   7.595
 4618POPC   NC359135  39.864  16.832   5.543
 4618POPC   PO459136  40.429  16.662   5.256
 4618POPC   GL159137  40.195  16.490   5.736
 4618POPC   GL259138  39.939  16.696   6.007
 4618POPC   C1A59139  40.231  16.362   6.208
 4618POPC   D2A59140  40.051  16.699   6.514
 4618POPC   C3A59141  40.111  16.736   6.952
 4618POPC   C4A59142  40.345  16.403   7.162
 4618POPC   C1B59143  39.843  17.101   6.276
 4618POPC   C2B59144  39.918  17.249   6.721
 4618POPC   C3B59145  39.837  17.146   7.166
 4618POPC   C4B59146  39.663  17.052   7.613
 4619POPC   NC359147  15.391  12.764   5.224
 4619POPC   PO459148  14.727  12.890   5.478
 4619POPC   GL159149  14.939  12.902   5.863
 4619POPC   GL259150  15.274  12.896   5.734
 4619POPC   C1A59151  14.851  12.705   6.284
 4619POPC   D2A59152  15.013  12.802   6.656
 4619POPC   C3A59153  15.128  12.768   7.066
 4619POPC   C4A59154  15.286  13.169   7.250
 4619POPC   C1B59155  15.270  12.518   6.039
 4619POPC   C2B59156  15.291  12.404   6.473
 4619POPC   C3B59157  15.278  12.300   6.912
 4619POPC   C4B59158  15.396  12.416   7.356
 4620POPC   NC359159  19.464  26.320   5.588
 4620POPC   PO459160  19.355  25.904   5.083
 4620POPC   GL159161  19.561  25.822   5.594
 4620POPC   GL259162  19.409  25.955   5.948
 4620POPC   C1A59163  19.875  25.843   6.005
 4620POPC   D2A59164  19.694  25.848   6.467
 4620POPC   C3A59165  19.908  25.854   6.896
 4620POPC   C4A59166  19.640  25.723   7.272
 4620POPC   C1B59167  19.517  26.275   6.232
 4620POPC   C2B59168  19.397  26.303   6.644
 4620POPC   C3B59169  19.548  26.166   7.027
 4620POPC   C4B59170  19.820  26.182   7.399
 4621POPC   NC359171  10.336  20.313   5.404
 4621POPC   PO459172  10.476  20.944   5.592
 4621POPC   GL159173  10.389  20.629   5.859
 4621POPC   GL259174  10.692  20.425   5.810
 4621POPC   C1A59175  10.409  20.633   6.322
 4621POPC   D2A59176  10.698  20.768   6.654
 4621POPC   C3A59177  10.522  20.842   7.061
 4621POPC   C4A59178  10.224  20.602   7.291
 4621POPC   C1B59179  10.831  20.275   6.232
 4621POPC   C2B59180  10.823  20.261   6.709
 4621POPC   C3B59181  10.646  20.311   7.106
 4621POPC   C4B59182  10.730  20.269   7.537
 4622POPC   NC359183  11.648  37.191   5.300
 4622POPC   PO459184  11.089  36.902   5.366
 4622POPC   GL159185  11.340  36.948   5.754
 4622POPC   GL259186  11.118  36.732   5.890
 4622POPC   C1A59187  11.282  37.117   6.204
 4622POPC   D2A59188  11.168  36.909   6.604
 4622POPC   C3A59189  11.341  36.940   7.014
 4622POPC   C4A59190  11.161  37.150   7.389
 4622POPC   C1B59191  11.384  36.598   6.232
 4622POPC   C2B59192  11.547  36.565   6.624
 4622POPC   C3B59193  11.260  36.438   6.895
 4622POPC   C4B59194  11.352  36.480   7.286
 4623POPC   NC359195  12.463  11.855   5.590
 4623POPC   PO459196  13.150  11.909   5.599
 4623POPC   GL159197  12.868  12.049   5.858
 4623POPC   GL259198  12.893  12.367   5.755
 4623POPC   C1A59199  12.786  12.033   6.286
 4623POPC   D2A59200  12.720  11.676   6.545
 4623POPC   C3A59201  12.984  11.762   6.860
 4623POPC   C4A59202  12.890  11.905   7.235
 4623POPC   C1B59203  12.586  12.471   6.037
 4623POPC   C2B59204  12.580  12.497   6.464
 4623POPC   C3B59205  12.745  12.274   6.794
 4623POPC   C4B59206  12.764  12.389   7.212
 4624POPC   NC359207  33.381  27.879   5.563
 4624POPC   PO459208  32.877  27.430   5.534
 4624POPC   GL159209  33.038  27.617   5.864
 4624POPC   GL259210  32.900  27.967   5.802
 4624POPC   C1A59211  33.400  27.633   6.171
 4624POPC   D2A59212  33.596  27.553   6.556
 4624POPC   C3A59213  33.353  27.612   6.927
 4624POPC   C4A59214  33.095  27.389   7.233
 4624POPC   C1B59215  33.014  27.966   6.223
 4624POPC   C2B59216  33.015  27.695   6.538
 4624POPC   C3B59217  32.856  27.750   6.917
 4624POPC   C4B59218  32.955  27.876   7.282
 4625POPC   NC359219  41.934  43.243   5.016
 4625POPC   PO459220  41.446  43.198   5.451
 4625POPC   GL159221  41.487  43.259   5.898
 4625POPC   GL259222  41.331  42.959   6.011
 4625POPC   C1A59223  41.670  43.186   6.325
 4625POPC   D2A59224  41.450  42.959   6.681
 4625POPC   C3A59225  41.604  43.093   7.094
 4625POPC   C4A59226  42.015  43.310   7.156
 4625POPC   C1B59227  41.183  43.281   6.318
 4625POPC   C2B59228  41.174  43.387   6.742
 4625POPC   C3B59229  41.317  43.611   7.067
 4625POPC   C4B59230  41.464  43.453   7.465
 4626POPC   NC359231  31.027   8.305   5.560
 4626POPC   PO459232  30.897   8.921   5.294
 4626POPC   GL159233  30.722   8.923   5.694
 4626POPC   GL259234  30.819   9.225   5.820
 4626POPC   C1A59235  30.718   8.836   6.156
 4626POPC   D2A59236  30.526   9.046   6.528
 4626POPC   C3A59237  30.608   8.783   6.894
 4626POPC   C4A59238  30.770   8.649   7.309
 4626POPC   C1B59239  31.010   9.256   6.233
 4626POPC   C2B59240  31.031   9.013   6.603
 4626POPC   C3B59241  30.938   9.128   7.037
 4626POPC   C4B59242  31.026   9.163   7.455
 4627POPC   NC359243   9.997  16.117   5.122
 4627POPC   PO459244   9.575  15.587   5.351
 4627POPC   GL159245   9.637  15.809   5.753
 4627POPC   GL259246   9.867  16.080   5.623
 4627POPC   C1A59247   9.717  15.740   6.237
 4627POPC   D2A59248  10.031  15.911   6.576
 4627POPC   C3A59249   9.952  15.876   7.052
 4627POPC   C4A59250   9.537  15.954   7.253
 4627POPC   C1B59251   9.857  16.196   6.056
 4627POPC   C2B59252   9.567  16.258   6.407
 4627POPC   C3B59253   9.655  16.243   6.840
 4627POPC   C4B59254   9.841  16.399   7.240
 4628POPC   NC359255  28.557  13.217   5.624
 4628POPC   PO459256  28.357  12.642   5.231
 4628POPC   GL159257  28.273  12.788   5.710
 4628POPC   GL259258  28.125  13.141   5.856
 4628POPC   C1A59259  28.300  12.701   6.182
 4628POPC   D2A59260  28.507  12.677   6.592
 4628POPC   C3A59261  28.288  12.617   6.991
 4628POPC   C4A59262  28.359  12.784   7.402
 4628POPC   C1B59263  28.399  13.189   6.233
 4628POPC   C2B59264  28.260  13.175   6.618
 4628POPC   C3B59265  28.424  13.115   6.994
 4628POPC   C4B59266  28.443  13.386   7.352
 4629POPC   NC359267  36.120   5.189   5.369
 4629POPC   PO459268  35.409   5.097   5.334
 4629POPC   GL159269  35.729   5.215   5.730
 4629POPC   GL259270  36.111   5.189   5.865
 4629POPC   C1A59271  35.724   5.144   6.177
 4629POPC   D2A59272  35.737   4.885   6.553
 4629POPC   C3A59273  35.893   5.071   6.923
 4629POPC   C4A59274  36.278   5.178   7.178
 4629POPC   C1B59275  36.202   4.968   6.278
 4629POPC   C2B59276  36.303   4.806   6.724
 4629POPC   C3B59277  36.526   4.748   7.143
 4629POPC   C4B59278  36.444   4.800   7.591
 4630POPC   NC359279   8.097  28.585   5.419
 4630POPC   PO459280   8.643  28.291   5.496
 4630POPC   GL159281   8.444  28.520   5.803
 4630POPC   GL259282   8.201  28.243   5.863
 4630POPC   C1A59283   8.383  28.546   6.255
 4630POPC   D2A59284   8.305  28.330   6.664
 4630POPC   C3A59285   8.412  28.530   7.041
 4630POPC   C4A59286   8.447  28.786   7.387
 4630POPC   C1B59287   7.948  28.278   6.295
 4630POPC   C2B59288   7.790  28.410   6.724
 4630POPC   C3B59289   7.972  28.203   7.074
 4630POPC   C4B59290   8.390  28.010   7.081
 4631POPC   NC359291  31.836  32.471   5.323
 4631POPC   PO459292  31.253  32.570   5.493
 4631POPC   GL159293  31.503  32.403   5.854
 4631POPC   GL259294  31.210  32.392   6.039
 4631POPC   C1A59295  31.607  32.342   6.349
 4631POPC   D2A59296  31.525  32.459   6.816
 4631POPC   C3A59297  31.578  32.188   7.205
 4631POPC   C4A59298  31.635  31.949   7.613
 4631POPC   C1B59299  31.195  32.631   6.439
 4631POPC   C2B59300  31.030  32.577   6.888
 4631POPC   C3B59301  31.249  32.575   7.281
 4631POPC   C4B59302  31.595  32.586   7.562
 4632POPC   NC359303  44.455  11.138   5.631
 4632POPC   PO459304  44.841  11.740   5.476
 4632POPC   GL159305  44.800  11.448   5.882
 4632POPC   GL259306  44.921  11.065   5.843
 4632POPC   C1A59307  44.605  11.409   6.346
 4632POPC   D2A59308  44.420  11.108   6.676
 4632POPC   C3A59309  44.501  11.141   7.149
 4632POPC   C4A59310  44.654  11.471   7.477
 4632POPC   C1B59311  44.833  10.958   6.282
 4632POPC   C2B59312  44.993  11.222   6.633
 4632POPC   C3B59313  44.953  11.361   7.050
 4632POPC   C4B59314   0.053  11.151   7.440
 4633POPC   NC359315  28.377  20.243   5.369
 4633POPC   PO459316  28.425  19.617   5.441
 4633POPC   GL159317  28.330  19.866   5.835
 4633POPC   GL259318  28.392  20.235   5.868
 4633POPC   C1A59319  28.339  19.933   6.304
 4633POPC   D2A59320  28.584  19.666   6.595
 4633POPC   C3A59321  28.399  19.677   6.999
 4633POPC   C4A59322  27.981  19.827   7.111
 4633POPC   C1B59323  28.597  20.525   6.151
 4633POPC   C2B59324  28.441  20.566   6.551
 4633POPC   C3B59325  28.325  20.189   6.777
 4633POPC   C4B59326  28.356  20.156   7.199
 4634POPC   NC359327  24.781  23.175   5.373
 4634POPC   PO459328  25.354  23.420   5.412
 4634POPC   GL159329  25.278  23.065   5.736
 4634POPC   GL259330  24.930  23.023   5.846
 4634POPC   C1A59331  25.478  22.856   6.139
 4634POPC   D2A59332  25.587  23.035   6.578
 4634POPC   C3A59333  25.387  22.903   6.981
 4634POPC   C4A59334  25.285  22.713   7.398
 4634POPC   C1B59335  25.106  23.181   6.264
 4634POPC   C2B59336  25.068  23.289   6.727
 4634POPC   C3B59337  25.255  23.374   7.143
 4634POPC   C4B59338  25.413  23.517   7.569
 4635POPC   NC359339  27.784  24.589   5.533
 4635POPC   PO459340  27.796  23.883   5.489
 4635POPC   GL159341  27.811  24.180   5.846
 4635POPC   GL259342  27.502  24.349   5.900
 4635POPC   C1A59343  27.871  24.459   6.228
 4635POPC   D2A59344  27.813  24.383   6.684
 4635POPC   C3A59345  27.675  24.650   7.025
 4635POPC   C4A59346  27.597  24.534   7.465
 4635POPC   C1B59347  27.379  24.287   6.342
 4635POPC   C2B59348  27.270  24.391   6.770
 4635POPC   C3B59349  27.133  24.365   7.191
 4635POPC   C4B59350  27.164  24.300   7.656
 4636POPC   NC359351  10.768   3.697   5.523
 4636POPC   PO459352  10.123   3.745   5.796
 4636POPC   GL159353  10.402   3.435   5.901
 4636POPC   GL259354  10.148   3.182   5.953
 4636POPC   C1A59355  10.748   3.381   6.186
 4636POPC   D2A59356  10.904   3.595   6.543
 4636POPC   C3A59357  10.782   3.360   6.915
 4636POPC   C4A59358  10.620   3.416   7.322
 4636POPC   C1B59359  10.296   3.084   6.374
 4636POPC   C2B59360  10.305   3.158   6.831
 4636POPC   C3B59361  10.140   3.284   7.239
 4636POPC   C4B59362  10.237   3.361   7.675
 4637POPC   NC359363  23.810   5.666   5.094
 4637POPC   PO459364  23.997   5.176   5.593
 4637POPC   GL159365  23.855   4.991   5.940
 4637POPC   GL259366  24.069   4.683   5.956
 4637POPC   C1A59367  23.604   5.041   6.321
 4637POPC   D2A59368  23.471   4.864   6.730
 4637POPC   C3A59369  23.529   5.157   7.063
 4637POPC   C4A59370  23.558   5.203   7.517
 4637POPC   C1B59371  24.079   4.843   6.382
 4637POPC   C2B59372  23.954   5.043   6.732
 4637POPC   C3B59373  23.977   4.925   7.168
 4637POPC   C4B59374  24.117   5.054   7.567
 4638POPC   NC359375  24.740  18.222   5.390
 4638POPC   PO459376  24.092  18.124   5.152
 4638POPC   GL159377  24.218  18.266   5.651
 4638POPC   GL259378  24.269  18.582   5.820
 4638POPC   C1A59379  24.305  18.136   6.150
 4638POPC   D2A59380  24.457  17.914   6.577
 4638POPC   C3A59381  24.673  18.147   6.941
 4638POPC   C4A59382  24.639  18.128   7.410
 4638POPC   C1B59383  24.381  18.637   6.292
 4638POPC   C2B59384  24.302  18.424   6.714
 4638POPC   C3B59385  24.319  18.486   7.196
 4638POPC   C4B59386  24.097  18.675   7.578
 4639POPC   NC359387  20.746  43.957   5.417
 4639POPC   PO459388  20.083  43.566   5.426
 4639POPC   GL159389  20.426  43.702   5.751
 4639POPC   GL259390  20.551  44.064   5.862
 4639POPC   C1A59391  20.491  43.685   6.206
 4639POPC   D2A59392  20.335  43.602   6.628
 4639POPC   C3A59393  20.688  43.660   6.897
 4639POPC   C4A59394  20.719  43.885   7.277
 4639POPC   C1B59395  20.399  44.216   6.243
 4639POPC   C2B59396  20.536  44.131   6.675
 4639POPC   C3B59397  20.304  44.118   7.065
 4639POPC   C4B59398  20.330  44.371   7.446
 4640POPC   NC359399  17.108  24.977   5.548
 4640POPC   PO459400  17.666  25.352   5.382
 4640POPC   GL159401  17.494  25.590   5.728
 4640POPC   GL259402  17.348  25.309   5.883
 4640POPC   C1A59403  17.586  25.678   6.188
 4640POPC   D2A59404  17.881  25.574   6.578
 4640POPC   C3A59405  17.657  25.531   7.012
 4640POPC   C4A59406  17.564  25.406   7.481
 4640POPC   C1B59407  17.178  25.397   6.293
 4640POPC   C2B59408  17.234  25.209   6.715
 4640POPC   C3B59409  17.195  25.313   7.156
 4640POPC   C4B59410  17.128  25.146   7.600
 4641POPC   NC359411  28.346  40.252   5.457
 4641POPC   PO459412  28.017  39.673   5.436
 4641POPC   GL159413  28.286  39.822   5.807
 4641POPC   GL259414  28.490  40.149   5.923
 4641POPC   C1A59415  28.414  39.767   6.242
 4641POPC   D2A59416  28.613  40.095   6.490
 4641POPC   C3A59417  28.579  39.959   6.906
 4641POPC   C4A59418  28.298  39.746   7.176
 4641POPC   C1B59419  28.190  40.252   6.233
 4641POPC   C2B59420  28.130  40.160   6.679
 4641POPC   C3B59421  28.285  40.340   7.048
 4641POPC   C4B59422  28.525  40.204   7.364
 4642POPC   NC359423  42.020  28.654   5.587
 4642POPC   PO459424  42.511  28.224   5.368
 4642POPC   GL159425  42.383  28.353   5.804
 4642POPC   GL259426  42.074  28.180   5.822
 4642POPC   C1A59427  42.497  28.570   6.209
 4642POPC   D2A59428  42.422  28.381   6.620
 4642POPC   C3A59429  42.508  28.540   7.018
 4642POPC   C4A59430  42.755  28.317   7.267
 4642POPC   C1B59431  42.053  28.295   6.271
 4642POPC   C2B59432  41.918  28.302   6.725
 4642POPC   C3B59433  42.008  28.395   7.172
 4642POPC   C4B59434  42.028  28.342   7.656
 4643POPC   NC359435  44.555  33.167   5.728
 4643POPC   PO459436  44.822  32.551   5.542
 4643POPC   GL159437  44.770  32.750   5.921
 4643POPC   GL259438  44.424  32.696   5.945
 4643POPC   C1A59439  44.842  33.003   6.336
 4643POPC   D2A59440  44.848  32.862   6.790
 4643POPC   C3A59441  44.903  33.008   7.227
 4643POPC   C4A59442  44.596  33.139   7.524
 4643POPC   C1B59443  44.470  32.663   6.367
 4643POPC   C2B59444  44.337  32.894   6.716
 4643POPC   C3B59445  44.392  32.822   7.150
 4643POPC   C4B59446  44.321  32.688   7.597
 4644POPC   NC359447   4.021   5.649   5.255
 4644POPC   PO459448   4.656   5.888   5.389
 4644POPC   GL159449   4.396   5.805   5.797
 4644POPC   GL259450   4.018   5.852   5.810
 4644POPC   C1A59451   4.490   5.892   6.253
 4644POPC   D2A59452   4.459   6.006   6.710
 4644POPC   C3A59453   4.688   5.856   7.067
 4644POPC   C4A59454   4.440   5.558   7.296
 4644POPC   C1B59455   3.990   6.020   6.271
 4644POPC   C2B59456   3.957   6.120   6.744
 4644POPC   C3B59457   4.055   5.870   7.131
 4644POPC   C4B59458   4.032   5.719   7.592
 4645POPC   NC359459  10.662  12.550   5.271
 4645POPC   PO459460  10.691  13.161   4.968
 4645POPC   GL159461  10.699  13.147   5.487
 4645POPC   GL259462  10.718  12.817   5.709
 4645POPC   C1A59463  10.640  13.221   5.996
 4645POPC   D2A59464  10.413  13.065   6.370
 4645POPC   C3A59465  10.446  13.036   6.838
 4645POPC   C4A59466  10.493  12.888   7.263
 4645POPC   C1B59467  10.674  12.655   6.170
 4645POPC   C2B59468  10.798  12.655   6.630
 4645POPC   C3B59469  10.884  12.388   7.000
 4645POPC   C4B59470  10.789  12.480   7.429
 4646POPC   NC359471   3.745   8.892   5.503
 4646POPC   PO459472   3.343   9.407   5.420
 4646POPC   GL159473   3.443   9.254   5.825
 4646POPC   GL259474   3.806   9.232   5.865
 4646POPC   C1A59475   3.288   9.185   6.260
 4646POPC   D2A59476   3.239   9.001   6.686
 4646POPC   C3A59477   3.387   9.236   7.069
 4646POPC   C4A59478   3.613   9.184   7.455
 4646POPC   C1B59479   3.867   8.997   6.251
 4646POPC   C2B59480   3.709   8.678   6.549
 4646POPC   C3B59481   3.455   8.562   6.901
 4646POPC   C4B59482   3.576   8.717   7.267
 4647POPC   NC359483  26.475  20.760   5.576
 4647POPC   PO459484  26.605  20.174   5.308
 4647POPC   GL159485  26.754  20.388   5.755
 4647POPC   GL259486  26.424  20.399   5.939
 4647POPC   C1A59487  26.764  20.742   6.146
 4647POPC   D2A59488  27.045  20.877   6.494
 4647POPC   C3A59489  26.953  20.876   6.954
 4647POPC   C4A59490  26.709  20.928   7.353
 4647POPC   C1B59491  26.700  20.264   6.242
 4647POPC   C2B59492  26.849  20.414   6.573
 4647POPC   C3B59493  26.716  20.275   6.916
 4647POPC   C4B59494  26.635  20.417   7.324
 4648POPC   NC359495   9.115  29.834   5.126
 4648POPC   PO459496   8.582  29.495   5.410
 4648POPC   GL159497   8.825  29.773   5.736
 4648POPC   GL259498   9.090  30.026   5.785
 4648POPC   C1A59499   9.016  29.706   6.153
 4648POPC   D2A59500   9.049  29.957   6.494
 4648POPC   C3A59501   8.977  29.805   6.920
 4648POPC   C4A59502   9.083  29.956   7.342
 4648POPC   C1B59503   8.810  30.222   6.088
 4648POPC   C2B59504   8.849  30.416   6.503
 4648POPC   C3B59505   8.932  30.324   6.929
 4648POPC   C4B59506   8.631  30.100   7.160
 4649POPC   NC359507  17.417  30.107   5.540
 4649POPC   PO459508  17.186  29.433   5.509
 4649POPC   GL159509  17.131  29.655   5.865
 4649POPC   GL259510  17.476  29.753   5.880
 4649POPC   C1A59511  17.260  29.586   6.294
 4649POPC   D2A59512  17.514  29.718   6.601
 4649POPC   C3A59513  17.368  30.123   6.719
 4649POPC   C4A59514  17.303  30.085   7.136
 4649POPC   C1B59515  17.557  30.062   6.213
 4649POPC   C2B59516  17.862  30.106   6.564
 4649POPC   C3B59517  17.780  29.954   6.999
 4649POPC   C4B59518  17.762  30.148   7.401
 4650POPC   NC359519  44.046  43.033   5.500
 4650POPC   PO459520  43.464  43.211   5.333
 4650POPC   GL159521  43.679  43.317   5.733
 4650POPC   GL259522  43.747  42.969   5.898
 4650POPC   C1A59523  43.850  43.404   6.155
 4650POPC   D2A59524  43.773  43.209   6.553
 4650POPC   C3A59525  43.973  43.281   6.955
 4650POPC   C4A59526  43.804  43.598   7.191
 4650POPC   C1B59527  43.603  42.803   6.270
 4650POPC   C2B59528  43.866  42.707   6.594
 4650POPC   C3B59529  43.886  42.770   6.979
 4650POPC   C4B59530  44.034  42.918   7.357
 4651POPC   NC359531  39.635  18.301   5.382
 4651POPC   PO459532  39.017  18.174   5.477
 4651POPC   GL159533  39.039  18.110   5.895
 4651POPC   GL259534  39.273  18.388   5.945
 4651POPC   C1A59535  38.936  18.247   6.308
 4651POPC   D2A59536  39.214  18.484   6.571
 4651POPC   C3A59537  39.180  18.234   6.918
 4651POPC   C4A59538  38.841  18.185   7.148
 4651POPC   C1B59539  39.429  18.082   6.263
 4651POPC   C2B59540  39.650  18.151   6.652
 4651POPC   C3B59541  39.608  18.491   6.965
 4651POPC   C4B59542  39.422  18.376   7.372
 4652POPC   NC359543  29.384  13.694   5.491
 4652POPC   PO459544  28.770  13.543   5.363
 4652POPC   GL159545  28.994  13.448   5.789
 4652POPC   GL259546  29.199  13.717   5.984
 4652POPC   C1A59547  28.954  13.390   6.269
 4652POPC   D2A59548  29.046  13.703   6.621
 4652POPC   C3A59549  29.019  13.542   7.075
 4652POPC   C4A59550  29.303  13.633   7.425
 4652POPC   C1B59551  29.471  13.561   6.367
 4652POPC   C2B59552  29.532  13.253   6.713
 4652POPC   C3B59553  29.263  13.072   7.039
 4652POPC   C4B59554  29.256  13.115   7.523
 4653POPC   NC359555   5.195  30.074   5.355
 4653POPC   PO459556   5.375  29.422   5.373
 4653POPC   GL159557   5.128  29.661   5.670
 4653POPC   GL259558   5.323  29.907   5.835
 4653POPC   C1A59559   4.913  29.765   6.053
 4653POPC   D2A59560   4.865  29.739   6.485
 4653POPC   C3A59561   4.841  30.076   6.751
 4653POPC   C4A59562   4.780  30.056   7.176
 4653POPC   C1B59563   5.282  30.044   6.307
 4653POPC   C2B59564   5.304  29.878   6.740
 4653POPC   C3B59565   5.302  29.951   7.186
 4653POPC   C4B59566   5.513  29.702   7.503
 4654POPC   NC359567   8.543  39.816   5.602
 4654POPC   PO459568   7.913  40.190   5.523
 4654POPC   GL159569   8.133  40.025   5.841
 4654POPC   GL259570   7.986  39.760   5.958
 4654POPC   C1A59571   8.369  40.146   6.208
 4654POPC   D2A59572   8.256  40.442   6.561
 4654POPC   C3A59573   8.332  40.320   6.967
 4654POPC   C4A59574   8.410  40.318   7.411
 4654POPC   C1B59575   7.859  39.449   6.237
 4654POPC   C2B59576   7.766  39.492   6.681
 4654POPC   C3B59577   8.080  39.686   6.934
 4654POPC   C4B59578   8.058  39.975   7.260
 4655POPC   NC359579  34.385  32.723   5.456
 4655POPC   PO459580  34.674  32.056   5.495
 4655POPC   GL159581  34.589  32.188   5.873
 4655POPC   GL259582  34.308  32.371   5.823
 4655POPC   C1A59583  34.629  32.123   6.304
 4655POPC   D2A59584  34.691  31.805   6.609
 4655POPC   C3A59585  34.542  31.932   6.958
 4655POPC   C4A59586  34.757  32.295   7.096
 4655POPC   C1B59587  34.197  32.485   6.275
 4655POPC   C2B59588  34.396  32.388   6.679
 4655POPC   C3B59589  34.225  32.315   7.078
 4655POPC   C4B59590  34.142  32.561   7.406
 4656POPC   NC359591  42.721  36.230   5.422
 4656POPC   PO459592  42.209  35.931   5.402
 4656POPC   GL159593  42.324  36.159   5.785
 4656POPC   GL259594  42.675  36.106   5.923
 4656POPC   C1A59595  42.224  36.080   6.210
 4656POPC   D2A59596  42.480  36.024   6.554
 4656POPC   C3A59597  42.348  36.116   6.958
 4656POPC   C4A59598  42.357  35.905   7.332
 4656POPC   C1B59599  42.612  36.428   6.250
 4656POPC   C2B59600  42.611  36.488   6.700
 4656POPC   C3B59601  42.728  36.473   7.141
 4656POPC   C4B59602  42.521  36.405   7.490
 4657POPC   NC359603  42.720  28.620   5.537
 4657POPC   PO459604  43.113  28.197   5.223
 4657POPC   GL159605  43.185  28.394   5.654
 4657POPC   GL259606  43.229  28.746   5.660
 4657POPC   C1A59607  42.990  28.373   6.095
 4657POPC   D2A59608  42.877  28.169   6.501
 4657POPC   C3A59609  43.185  28.086   6.825
 4657POPC   C4A59610  43.179  28.059   7.287
 4657POPC   C1B59611  43.266  28.812   6.113
 4657POPC   C2B59612  43.000  28.733   6.490
 4657POPC   C3B59613  43.028  28.593   6.924
 4657POPC   C4B59614  43.235  28.876   7.209
 4658POPC   NC359615  29.280  27.014   5.471
 4658POPC   PO459616  28.990  26.340   5.534
 4658POPC   GL159617  29.036  26.569   5.934
 4658POPC   GL259618  28.945  26.921   5.840
 4658POPC   C1A59619  29.353  26.572   6.300
 4658POPC   D2A59620  29.532  26.719   6.735
 4658POPC   C3A59621  29.281  26.562   7.079
 4658POPC   C4A59622  28.928  26.548   7.387
 4658POPC   C1B59623  28.848  27.204   6.171
 4658POPC   C2B59624  28.863  27.095   6.618
 4658POPC   C3B59625  29.189  27.050   6.970
 4658POPC   C4B59626  29.195  26.955   7.458
 4659POPC   NC359627  23.111   9.017   5.411
 4659POPC   PO459628  22.538   8.791   5.568
 4659POPC   GL159629  22.800   9.020   5.858
 4659POPC   GL259630  23.169   9.065   5.903
 4659POPC   C1A59631  22.850   8.914   6.301
 4659POPC   D2A59632  22.799   9.194   6.643
 4659POPC   C3A59633  22.792   9.042   7.055
 4659POPC   C4A59634  22.690   9.090   7.495
 4659POPC   C1B59635  23.333   9.062   6.322
 4659POPC   C2B59636  23.211   8.900   6.712
 4659POPC   C3B59637  23.153   8.658   7.074
 4659POPC   C4B59638  23.156   8.921   7.435
 4660POPC   NC359639  19.167  34.582   5.407
 4660POPC   PO459640  18.702  34.237   5.807
 4660POPC   GL159641  18.981  34.572   5.926
 4660POPC   GL259642  19.326  34.567   5.886
 4660POPC   C1A59643  19.090  34.673   6.365
 4660POPC   D2A59644  19.173  34.503   6.749
 4660POPC   C3A59645  18.879  34.236   6.930
 4660POPC   C4A59646  18.580  34.194   7.232
 4660POPC   C1B59647  19.477  34.920   6.151
 4660POPC   C2B59648  19.617  35.003   6.595
 4660POPC   C3B59649  19.514  34.796   6.995
 4660POPC   C4B59650  19.142  34.643   7.231
 4661POPC   NC359651  15.535  19.981   5.651
 4661POPC   PO459652  16.040  19.591   5.328
 4661POPC   GL159653  15.880  19.601   5.769
 4661POPC   GL259654  16.031  19.901   5.939
 4661POPC   C1A59655  15.884  19.514   6.229
 4661POPC   D2A59656  16.016  19.748   6.585
 4661POPC   C3A59657  15.841  19.691   6.976
 4661POPC   C4A59658  16.089  19.450   7.248
 4661POPC   C1B59659  15.695  19.999   6.279
 4661POPC   C2B59660  15.501  20.077   6.688
 4661POPC   C3B59661  15.686  20.216   7.062
 4661POPC   C4B59662  15.982  20.057   7.352
 4662POPC   NC359663  29.465  37.061   5.329
 4662POPC   PO459664  30.159  36.947   5.319
 4662POPC   GL159665  29.850  36.824   5.636
 4662POPC   GL259666  30.121  36.735   5.810
 4662POPC   C1A59667  29.592  36.731   6.045
 4662POPC   D2A59668  29.423  36.648   6.507
 4662POPC   C3A59669  29.676  36.769   6.900
 4662POPC   C4A59670  29.921  36.985   7.212
 4662POPC   C1B59671  30.001  37.017   6.146
 4662POPC   C2B59672  30.036  37.011   6.596
 4662POPC   C3B59673  30.330  37.030   6.923
 4662POPC   C4B59674  30.447  36.968   7.333
 4663POPC   NC359675  24.899   1.385   5.383
 4663POPC   PO459676  25.406   0.962   5.347
 4663POPC   GL159677  25.125   1.067   5.732
 4663POPC   GL259678  25.216   1.424   5.811
 4663POPC   C1A59679  25.103   1.126   6.223
 4663POPC   D2A59680  25.350   1.418   6.520
 4663POPC   C3A59681  25.590   1.291   6.902
 4663POPC   C4A59682  25.580   0.932   7.237
 4663POPC   C1B59683  25.003   1.631   6.163
 4663POPC   C2B59684  24.834   1.494   6.566
 4663POPC   C3B59685  25.038   1.438   6.985
 4663POPC   C4B59686  25.340   1.377   7.345
 4664POPC   NC359687  31.420  34.980   5.363
 4664POPC   PO459688  31.737  35.545   5.099
 4664POPC   GL159689  31.646  35.398   5.574
 4664POPC   GL259690  31.854  35.122   5.757
 4664POPC   C1A59691  31.480  35.372   6.053
 4664POPC   D2A59692  31.366  35.188   6.508
 4664POPC   C3A59693  31.475  35.361   6.955
 4664POPC   C4A59694  31.747  35.475   7.311
 4664POPC   C1B59695  31.751  34.962   6.226
 4664POPC   C2B59696  31.825  35.080   6.700
 4664POPC   C3B59697  31.772  34.987   7.170
 4664POPC   C4B59698  31.762  34.757   7.606
 4665POPC   NC359699   2.576  10.548   5.384
 4665POPC   PO459700   3.182  10.742   5.467
 4665POPC   GL159701   2.920  10.701   5.827
 4665POPC   GL259702   2.619  10.502   5.882
 4665POPC   C1A59703   3.016  10.749   6.247
 4665POPC   D2A59704   2.924  10.589   6.639
 4665POPC   C3A59705   2.600  10.765   6.794
 4665POPC   C4A59706   2.571  10.822   7.151
 4665POPC   C1B59707   2.515  10.632   6.289
 4665POPC   C2B59708   2.448  10.327   6.616
 4665POPC   C3B59709   2.652  10.305   7.030
 4665POPC   C4B59710   2.802  10.047   7.367
 4666POPC   NC359711  19.391  20.140   5.103
 4666POPC   PO459712  19.012  19.782   5.416
 4666POPC   GL159713  18.888  19.745   5.850
 4666POPC   GL259714  18.923  20.099   5.931
 4666POPC   C1A59715  19.010  19.747   6.304
 4666POPC   D2A59716  18.828  19.894   6.671
 4666POPC   C3A59717  18.966  19.828   7.099
 4666POPC   C4A59718  18.708  19.796   7.467
 4666POPC   C1B59719  19.308  20.140   6.223
 4666POPC   C2B59720  19.301  20.126   6.708
 4666POPC   C3B59721  19.248  20.290   7.139
 4666POPC   C4B59722  19.190  20.046   7.529
 4667POPC   NC359723   0.700  17.692   5.490
 4667POPC   PO459724   1.368  17.451   5.360
 4667POPC   GL159725   1.127  17.536   5.721
 4667POPC   GL259726   1.112  17.228   5.897
 4667POPC   C1A59727   1.008  17.766   6.114
 4667POPC   D2A59728   1.052  17.637   6.545
 4667POPC   C3A59729   1.248  17.639   6.953
 4667POPC   C4A59730   1.271  17.251   7.219
 4667POPC   C1B59731   0.827  17.274   6.270
 4667POPC   C2B59732   0.739  17.111   6.729
 4667POPC   C3B59733   0.750  17.124   7.227
 4667POPC   C4B59734   0.964  17.329   7.632
 4668POPC   NC359735  42.275  34.677   5.620
 4668POPC   PO459736  42.700  34.136   5.573
 4668POPC   GL159737  42.554  34.343   5.906
 4668POPC   GL259738  42.222  34.209   5.821
 4668POPC   C1A59739  42.523  34.723   6.191
 4668POPC   D2A59740  42.304  34.768   6.563
 4668POPC   C3A59741  42.479  34.495   6.883
 4668POPC   C4A59742  42.596  34.589   7.292
 4668POPC   C1B59743  42.113  34.397   6.187
 4668POPC   C2B59744  41.898  34.370   6.528
 4668POPC   C3B59745  41.951  34.567   6.898
 4668POPC   C4B59746  42.115  34.390   7.254
 4669POPC   NC359747  14.274  42.038   5.589
 4669POPC   PO459748  14.800  42.428   5.410
 4669POPC   GL159749  14.805  42.605   5.812
 4669POPC   GL259750  14.481  42.445   5.853
 4669POPC   C1A59751  14.683  42.694   6.243
 4669POPC   D2A59752  14.495  42.567   6.652
 4669POPC   C3A59753  14.321  42.430   7.061
 4669POPC   C4A59754  14.352  42.531   7.509
 4669POPC   C1B59755  14.796  42.146   6.045
 4669POPC   C2B59756  14.885  42.210   6.490
 4669POPC   C3B59757  14.674  42.103   6.885
 4669POPC   C4B59758  14.756  42.321   7.296
 4670POPC   NC359759  43.824   4.906   5.388
 4670POPC   PO459760  44.246   5.338   5.611
 4670POPC   GL159761  44.054   4.965   5.835
 4670POPC   GL259762  43.678   5.062   5.852
 4670POPC   C1A59763  43.943   4.887   6.268
 4670POPC   D2A59764  43.690   5.069   6.616
 4670POPC   C3A59765  43.875   5.186   7.026
 4670POPC   C4A59766  43.985   5.456   7.354
 4670POPC   C1B59767  43.425   4.904   6.189
 4670POPC   C2B59768  43.558   4.585   6.472
 4670POPC   C3B59769  43.409   4.681   6.850
 4670POPC   C4B59770  43.587   4.806   7.204
 4671POPC   NC359771  43.995  37.450   5.275
 4671POPC   PO459772  43.568  37.786   5.658
 4671POPC   GL159773  43.793  37.512   5.882
 4671POPC   GL259774  44.123  37.575   5.757
 4671POPC   C1A59775  43.582  37.452   6.271
 4671POPC   D2A59776  43.388  37.825   6.488
 4671POPC   C3A59777  43.691  37.810   6.810
 4671POPC   C4A59778  43.659  37.475   7.125
 4671POPC   C1B59779  44.294  37.483   6.137
 4671POPC   C2B59780  44.090  37.489   6.520
 4671POPC   C3B59781  44.122  37.550   6.941
 4671POPC   C4B59782  44.015  37.841   7.233
 4672POPC   NC359783   5.409  22.203   5.367
 4672POPC   PO459784   4.713  22.107   5.370
 4672POPC   GL159785   4.989  22.337   5.711
 4672POPC   GL259786   5.246  22.118   5.819
 4672POPC   C1A59787   5.066  22.402   6.192
 4672POPC   D2A59788   4.961  22.201   6.594
 4672POPC   C3A59789   5.182  22.392   6.932
 4672POPC   C4A59790   5.021  22.161   7.237
 4672POPC   C1B59791   5.430  21.959   6.155
 4672POPC   C2B59792   5.469  22.114   6.547
 4672POPC   C3B59793   5.311  21.895   6.896
 4672POPC   C4B59794   5.473  21.946   7.290
 4673POPC   NC359795  10.244   8.086   5.521
 4673POPC   PO459796  10.791   8.426   5.703
 4673POPC   GL159797  10.580   8.374   6.016
 4673POPC   GL259798  10.247   8.473   5.876
 4673POPC   C1A59799  10.671   8.407   6.456
 4673POPC   D2A59800  10.529   8.154   6.787
 4673POPC   C3A59801  10.652   8.204   7.194
 4673POPC   C4A59802  10.929   8.123   7.593
 4673POPC   C1B59803  10.162   8.335   6.287
 4673POPC   C2B59804  10.148   8.481   6.686
 4673POPC   C3B59805  10.118   8.310   7.103
 4673POPC   C4B59806  10.233   7.863   7.138
 4674POPC   NC359807  28.703  35.253   5.617
 4674POPC   PO459808  29.190  35.700   5.375
 4674POPC   GL159809  29.131  35.559   5.806
 4674POPC   GL259810  29.129  35.224   5.921
 4674POPC   C1A59811  29.091  35.541   6.287
 4674POPC   D2A59812  29.355  35.400   6.588
 4674POPC   C3A59813  29.159  35.502   6.982
 4674POPC   C4A59814  29.045  35.513   7.409
 4674POPC   C1B59815  29.099  35.001   6.324
 4674POPC   C2B59816  28.944  35.113   6.723
 4674POPC   C3B59817  28.970  35.052   7.169
 4674POPC   C4B59818  29.295  34.928   7.440
 4675POPC   NC359819  28.372  17.077   5.157
 4675POPC   PO459820  28.383  16.695   5.718
 4675POPC   GL159821  28.277  16.652   6.084
 4675POPC   GL259822  28.020  16.430   5.994
 4675POPC   C1A59823  28.616  16.700   6.363
 4675POPC   D2A59824  28.576  17.044   6.632
 4675POPC   C3A59825  28.439  16.860   7.022
 4675POPC   C4A59826  28.529  16.671   7.407
 4675POPC   C1B59827  27.930  16.094   6.229
 4675POPC   C2B59828  27.810  16.151   6.618
 4675POPC   C3B59829  28.017  16.431   6.887
 4675POPC   C4B59830  28.016  16.660   7.248
 4676POPC   NC359831  33.985   8.641   5.387
 4676POPC   PO459832  33.438   9.034   5.245
 4676POPC   GL159833  33.663   9.154   5.654
 4676POPC   GL259834  33.867   8.922   5.790
 4676POPC   C1A59835  33.654   9.203   6.159
 4676POPC   D2A59836  33.652   8.924   6.566
 4676POPC   C3A59837  33.482   9.047   6.985
 4676POPC   C4A59838  33.411   9.235   7.401
 4676POPC   C1B59839  34.029   8.813   6.191
 4676POPC   C2B59840  34.139   8.822   6.641
 4676POPC   C3B59841  34.032   9.073   6.971
 4676POPC   C4B59842  33.878   9.074   7.348
 4677POPC   NC359843  13.659   2.475   5.457
 4677POPC   PO459844  13.223   2.997   5.635
 4677POPC   GL159845  13.458   2.767   5.912
 4677POPC   GL259846  13.420   2.409   5.920
 4677POPC   C1A59847  13.570   2.951   6.321
 4677POPC   D2A59848  13.492   3.116   6.734
 4677POPC   C3A59849  13.805   2.992   7.048
 4677POPC   C4A59850  13.778   3.029   7.513
 4677POPC   C1B59851  13.745   2.477   6.239
 4677POPC   C2B59852  13.875   2.644   6.638
 4677POPC   C3B59853  13.699   2.497   6.994
 4677POPC   C4B59854  13.383   2.331   7.229
 4678POPC   NC359855  44.689  21.669   5.492
 4678POPC   PO459856  44.980  21.045   5.422
 4678POPC   GL159857  44.809  21.236   5.801
 4678POPC   GL259858  44.551  21.487   5.932
 4678POPC   C1A59859  44.885  21.251   6.230
 4678POPC   D2A59860  44.790  21.508   6.556
 4678POPC   C3A59861  44.875  21.294   6.932
 4678POPC   C4A59862  44.814  21.066   7.350
 4678POPC   C1B59863  44.346  21.582   6.306
 4678POPC   C2B59864  44.326  21.308   6.644
 4678POPC   C3B59865  44.355  21.334   7.031
 4678POPC   C4B59866  44.223  21.712   7.100
 4679POPC   NC359867   8.931  39.672   5.191
 4679POPC   PO459868   8.907  40.279   5.463
 4679POPC   GL159869   9.013  39.931   5.803
 4679POPC   GL259870   9.354  39.834   5.904
 4679POPC   C1A59871   8.800  39.828   6.240
 4679POPC   D2A59872   8.482  39.841   6.622
 4679POPC   C3A59873   8.629  39.909   7.056
 4679POPC   C4A59874   8.730  39.941   7.514
 4679POPC   C1B59875   9.289  39.731   6.319
 4679POPC   C2B59876   9.054  39.804   6.740
 4679POPC   C3B59877   9.136  39.918   7.186
 4679POPC   C4B59878   9.244  39.725   7.598
 4680POPC   NC359879  40.127  21.635   5.272
 4680POPC   PO459880  40.032  22.273   5.324
 4680POPC   GL159881  40.146  22.077   5.694
 4680POPC   GL259882  39.825  22.001   5.818
 4680POPC   C1A59883  40.134  22.332   6.081
 4680POPC   D2A59884  40.260  22.301   6.517
 4680POPC   C3A59885  39.961  22.318   6.882
 4680POPC   C4A59886  40.137  22.375   7.225
 4680POPC   C1B59887  40.012  21.847   6.201
 4680POPC   C2B59888  40.009  21.883   6.643
 4680POPC   C3B59889  40.193  21.885   7.058
 4680POPC   C4B59890  39.897  21.977   7.407
 4681POPC   NC359891  42.676  31.393   5.205
 4681POPC   PO459892  42.214  31.750   5.623
 4681POPC   GL159893  42.382  31.323   5.699
 4681POPC   GL259894  42.704  31.221   5.826
 4681POPC   C1A59895  42.204  31.152   6.085
 4681POPC   D2A59896  41.893  31.337   6.387
 4681POPC   C3A59897  42.133  31.563   6.719
 4681POPC   C4A59898  42.208  31.501   7.160
 4681POPC   C1B59899  42.632  31.426   6.259
 4681POPC   C2B59900  42.542  31.826   6.498
 4681POPC   C3B59901  42.487  31.919   6.921
 4681POPC   C4B59902  42.734  31.794   7.220
 4682POPC   NC359903  18.970  38.261   5.608
 4682POPC   PO459904  19.410  38.666   5.395
 4682POPC   GL159905  19.269  38.588   5.856
 4682POPC   GL259906  18.897  38.619   5.931
 4682POPC   C1A59907  19.188  38.315   6.251
 4682POPC   D2A59908  19.342  38.040   6.622
 4682POPC   C3A59909  19.232  38.222   7.036
 4682POPC   C4A59910  19.095  38.655   7.122
 4682POPC   C1B59911  18.620  38.532   6.245
 4682POPC   C2B59912  18.610  38.421   6.690
 4682POPC   C3B59913  18.597  38.494   7.158
 4682POPC   C4B59914  18.834  38.474   7.547
 4683POPC   NC359915   9.501  17.093   5.506
 4683POPC   PO459916   9.625  16.506   5.129
 4683POPC   GL159917   9.708  16.599   5.640
 4683POPC   GL259918  10.069  16.563   5.775
 4683POPC   C1A59919   9.692  16.691   6.137
 4683POPC   D2A59920   9.509  16.866   6.546
 4683POPC   C3A59921   9.500  16.702   6.990
 4683POPC   C4A59922   9.650  16.833   7.426
 4683POPC   C1B59923  10.190  16.847   6.163
 4683POPC   C2B59924  10.016  16.957   6.540
 4683POPC   C3B59925  10.004  16.816   6.940
 4683POPC   C4B59926  10.132  16.976   7.317
 4684POPC   NC359927  27.267  44.811   5.465
 4684POPC   PO459928  27.956  44.657   5.480
 4684POPC   GL159929  27.630  44.645   5.799
 4684POPC   GL259930  27.471  44.934   5.950
 4684POPC   C1A59931  27.560  44.448   6.203
 4684POPC   D2A59932  27.457  44.803   6.501
 4684POPC   C3A59933  27.572  44.870   6.935
 4684POPC   C4A59934  27.502  44.552   7.241
 4684POPC   C1B59935  27.859  44.858   6.205
 4684POPC   C2B59936  27.940  44.556   6.571
 4684POPC   C3B59937  28.029  44.494   7.042
 4684POPC   C4B59938  27.943  44.692   7.472
 4685POPC   NC359939  15.107  31.985   5.123
 4685POPC   PO459940  15.146  31.360   5.378
 4685POPC   GL159941  15.255  31.414   5.816
 4685POPC   GL259942  15.043  31.690   5.943
 4685POPC   C1A59943  15.447  31.525   6.225
 4685POPC   D2A59944  15.215  31.687   6.591
 4685POPC   C3A59945  15.386  31.772   7.005
 4685POPC   C4A59946  15.521  31.505   7.328
 4685POPC   C1B59947  14.741  31.606   6.251
 4685POPC   C2B59948  14.566  31.579   6.683
 4685POPC   C3B59949  14.899  31.545   7.019
 4685POPC   C4B59950  15.027  31.446   7.479
 4686POPC   NC359951  27.857  10.275   5.495
 4686POPC   PO459952  27.762   9.614   5.352
 4686POPC   GL159953  27.675   9.600   5.809
 4686POPC   GL259954  27.630   9.942   5.856
 4686POPC   C1A59955  27.518   9.657   6.268
 4686POPC   D2A59956  27.464   9.886   6.654
 4686POPC   C3A59957  27.511   9.692   7.078
 4686POPC   C4A59958  27.198   9.399   7.264
 4686POPC   C1B59959  27.672  10.174   6.254
 4686POPC   C2B59960  27.446  10.418   6.577
 4686POPC   C3B59961  27.468  10.259   6.993
 4686POPC   C4B59962  27.870  10.241   7.231
 4687POPC   NC359963   1.443  43.901   5.574
 4687POPC   PO459964   2.065  43.597   5.477
 4687POPC   GL159965   1.920  43.863   5.792
 4687POPC   GL259966   2.037  44.195   5.857
 4687POPC   C1A59967   1.790  43.886   6.202
 4687POPC   D2A59968   1.920  44.099   6.558
 4687POPC   C3A59969   1.893  43.839   6.909
 4687POPC   C4A59970   1.872  44.093   7.228
 4687POPC   C1B59971   2.297  44.011   6.201
 4687POPC   C2B59972   2.201  43.655   6.523
 4687POPC   C3B59973   2.312  43.519   6.951
 4687POPC   C4B59974   2.289  43.789   7.309
 4688POPC   NC359975   9.205  44.577   5.435
 4688POPC   PO459976   8.477  44.826   5.345
 4688POPC   GL159977   8.656  44.761   5.870
 4688POPC   GL259978   8.968  44.542   5.879
 4688POPC   C1A59979   8.835  44.766   6.315
 4688POPC   D2A59980   9.033  44.999   6.648
 4688POPC   C3A59981   8.834  44.949   7.021
 4688POPC   C4A59982   8.832  44.820   7.452
 4688POPC   C1B59983   8.960  44.261   6.220
 4688POPC   C2B59984   8.746  44.287   6.623
 4688POPC   C3B59985   8.825  44.443   7.046
 4688POPC   C4B59986   9.132  44.408   7.402
 4689POPC   NC359987   5.431   7.443   5.581
 4689POPC   PO459988   6.097   7.728   5.563
 4689POPC   GL159989   5.911   7.349   5.820
 4689POPC   GL259990   5.588   7.277   6.010
 4689POPC   C1A59991   6.047   7.356   6.239
 4689POPC   D2A59992   5.780   7.588   6.510
 4689POPC   C3A59993   5.976   7.651   6.871
 4689POPC   C4A59994   6.170   7.475   7.201
 4689POPC   C1B59995   5.640   7.102   6.384
 4689POPC   C2B59996   5.865   7.135   6.778
 4689POPC   C3B59997   5.694   7.300   7.187
 4689POPC   C4B59998   5.499   7.167   7.579
 4690POPC   NC359999   6.697  16.955   5.476
 4690POPC   PO460000   7.047  16.361   5.308
 4690POPC   GL160001   6.879  16.448   5.745
 4690POPC   GL260002   6.885  16.774   5.923
 4690POPC   C1A60003   6.771  16.346   6.185
 4690POPC   D2A60004   6.562  16.410   6.562
 4690POPC   C3A60005   6.763  16.494   6.932
 4690POPC   C4A60006   6.688  16.481   7.356
 4690POPC   C1B60007   6.558  16.813   6.236
 4690POPC   C2B60008   6.615  16.912   6.663
 4690POPC   C3B60009   6.876  16.969   7.040
 4690POPC   C4B60010   6.676  17.004   7.398
 4691POPC   NC360011  34.855   0.666   5.550
 4691POPC   PO460012  34.376   1.093   5.347
 4691POPC   GL160013  34.526   1.153   5.758
 4691POPC   GL260014  34.540   0.870   5.901
 4691POPC   C1A60015  34.304   1.273   6.147
 4691POPC   D2A60016  34.202   1.165   6.599
 4691POPC   C3A60017  34.543   1.334   6.873
 4691POPC   C4A60018  34.628   1.500   7.288
 4691POPC   C1B60019  34.583   0.880   6.353
 4691POPC   C2B60020  34.339   0.664   6.648
 4691POPC   C3B60021  34.270   0.868   7.052
 4691POPC   C4B60022  34.646   1.001   7.262
 4692POPC   NC360023   5.445   9.206   5.507
 4692POPC   PO460024   4.972   8.597   5.487
 4692POPC   GL160025   5.208   8.864   5.800
 4692POPC   GL260026   5.040   9.193   5.870
 4692POPC   C1A60027   5.333   8.978   6.236
 4692POPC   D2A60028   5.410   9.040   6.669
 4692POPC   C3A60029   5.199   8.742   6.910
 4692POPC   C4A60030   5.107   8.779   7.307
 4692POPC   C1B60031   4.755   9.428   6.165
 4692POPC   C2B60032   4.717   9.404   6.623
 4692POPC   C3B60033   4.881   9.154   6.982
 4692POPC   C4B60034   4.858   9.217   7.426
 4693POPC   NC360035  22.181  32.952   5.559
 4693POPC   PO460036  21.888  33.601   5.513
 4693POPC   GL160037  22.212  33.419   5.816
 4693POPC   GL260038  22.000  33.234   5.961
 4693POPC   C1A60039  22.451  33.284   6.200
 4693POPC   D2A60040  22.446  33.465   6.593
 4693POPC   C3A60041  22.353  33.242   6.947
 4693POPC   C4A60042  22.324  33.452   7.341
 4693POPC   C1B60043  22.062  33.027   6.389
 4693POPC   C2B60044  21.763  32.862   6.683
 4693POPC   C3B60045  21.772  32.860   7.106
 4693POPC   C4B60046  22.131  32.981   7.322
 4694POPC   NC360047  11.660  16.092   5.289
 4694POPC   PO460048  11.218  15.651   5.122
 4694POPC   GL160049  11.466  15.733   5.598
 4694POPC   GL260050  11.237  15.998   5.821
 4694POPC   C1A60051  11.568  15.710   6.087
 4694POPC   D2A60052  11.362  15.879   6.490
 4694POPC   C3A60053  11.280  15.800   6.936
 4694POPC   C4A60054  11.501  15.871   7.307
 4694POPC   C1B60055  11.076  16.230   6.238
 4694POPC   C2B60056  11.032  16.221   6.714
 4694POPC   C3B60057  11.261  16.289   7.093
 4694POPC   C4B60058  11.284  16.260   7.551
 4695POPC   NC360059  26.967   4.076   5.613
 4695POPC   PO460060  27.128   3.470   5.466
 4695POPC   GL160061  26.833   3.607   5.805
 4695POPC   GL260062  26.973   3.816   6.091
 4695POPC   C1A60063  26.547   3.488   6.148
 4695POPC   D2A60064  26.658   3.292   6.544
 4695POPC   C3A60065  26.826   3.460   6.926
 4695POPC   C4A60066  26.612   3.548   7.298
 4695POPC   C1B60067  27.043   3.363   6.212
 4695POPC   C2B60068  27.163   3.191   6.622
 4695POPC   C3B60069  27.301   3.285   7.047
 4695POPC   C4B60070  27.023   3.262   7.413
 4696POPC   NC360071  41.383  27.156   5.344
 4696POPC   PO460072  41.979  26.695   5.347
 4696POPC   GL160073  41.705  26.940   5.668
 4696POPC   GL260074  41.499  26.694   5.842
 4696POPC   C1A60075  41.660  27.086   6.114
 4696POPC   D2A60076  41.651  26.865   6.536
 4696POPC   C3A60077  41.686  27.086   6.948
 4696POPC   C4A60078  41.635  26.969   7.408
 4696POPC   C1B60079  41.207  26.489   6.156
 4696POPC   C2B60080  41.306  26.459   6.616
 4696POPC   C3B60081  41.456  26.641   7.014
 4696POPC   C4B60082  41.355  26.521   7.441
 4697POPC   NC360083  34.040  31.063   5.640
 4697POPC   PO460084  33.757  31.766   5.518
 4697POPC   GL160085  33.896  31.611   5.933
 4697POPC   GL260086  33.907  31.281   6.087
 4697POPC   C1A60087  33.730  31.805   6.329
 4697POPC   D2A60088  33.519  31.948   6.700
 4697POPC   C3A60089  33.556  31.571   6.921
 4697POPC   C4A60090  33.902  31.432   7.156
 4697POPC   C1B60091  33.599  31.249   6.426
 4697POPC   C2B60092  33.355  31.067   6.760
 4697POPC   C3B60093  33.455  30.927   7.170
 4697POPC   C4B60094  33.658  31.207   7.514
 4698POPC   NC360095  39.122  24.742   5.205
 4698POPC   PO460096  39.471  24.169   5.442
 4698POPC   GL160097  39.431  24.524   5.708
 4698POPC   GL260098  39.102  24.653   5.822
 4698POPC   C1A60099  39.539  24.515   6.149
 4698POPC   D2A60100  39.679  24.395   6.584
 4698POPC   C3A60101  39.369  24.420   6.916
 4698POPC   C4A60102  39.227  24.630   7.319
 4698POPC   C1B60103  39.042  24.569   6.281
 4698POPC   C2B60104  38.899  24.434   6.724
 4698POPC   C3B60105  38.973  24.174   7.130
 4698POPC   C4B60106  38.972  24.272   7.593
 4699POPC   NC360107  22.462  38.702   4.922
 4699POPC   PO460108  22.085  38.618   5.473
 4699POPC   GL160109  22.148  38.544   5.910
 4699POPC   GL260110  22.489  38.496   5.958
 4699POPC   C1A60111  22.191  38.547   6.362
 4699POPC   D2A60112  22.484  38.515   6.685
 4699POPC   C3A60113  22.191  38.550   6.962
 4699POPC   C4A60114  22.032  38.339   7.314
 4699POPC   C1B60115  22.403  38.110   6.261
 4699POPC   C2B60116  22.236  38.036   6.690
 4699POPC   C3B60117  22.416  38.084   7.097
 4699POPC   C4B60118  22.416  38.063   7.577
 4700POPC   NC360119   6.449  22.759   5.280
 4700POPC   PO460120   6.939  23.158   5.507
 4700POPC   GL160121   6.821  23.039   5.896
 4700POPC   GL260122   6.471  22.920   5.855
 4700POPC   C1A60123   6.783  23.174   6.328
 4700POPC   D2A60124   6.441  23.100   6.571
 4700POPC   C3A60125   6.481  22.942   6.976
 4700POPC   C4A60126   6.610  22.882   7.392
 4700POPC   C1B60127   6.194  22.711   6.185
 4700POPC   C2B60128   6.300  22.609   6.606
 4700POPC   C3B60129   6.273  22.443   7.027
 4700POPC   C4B60130   6.339  22.429   7.499
 4701POPC   NC360131  27.377   5.363   5.575
 4701POPC   PO460132  27.907   4.870   5.490
 4701POPC   GL160133  27.803   5.169   5.827
 4701POPC   GL260134  27.460   5.036   5.962
 4701POPC   C1A60135  27.719   5.436   6.194
 4701POPC   D2A60136  27.556   5.377   6.600
 4701POPC   C3A60137  27.743   5.422   6.991
 4701POPC   C4A60138  27.494   5.204   7.271
 4701POPC   C1B60139  27.353   4.956   6.406
 4701POPC   C2B60140  27.715   4.892   6.671
 4701POPC   C3B60141  27.898   4.925   7.056
 4701POPC   C4B60142  27.652   4.698   7.318
 4702POPC   NC360143  29.499  26.120   5.580
 4702POPC   PO460144  30.174  25.898   5.510
 4702POPC   GL160145  29.901  25.909   5.879
 4702POPC   GL260146  30.092  26.208   6.006
 4702POPC   C1A60147  29.570  26.041   6.222
 4702POPC   D2A60148  29.551  26.203   6.655
 4702POPC   C3A60149  29.853  25.955   6.877
 4702POPC   C4A60150  30.060  26.020   7.232
 4702POPC   C1B60151  30.433  26.157   6.341
 4702POPC   C2B60152  30.386  26.086   6.796
 4702POPC   C3B60153  30.525  26.207   7.204
 4702POPC   C4B60154  30.288  26.339   7.549
 4703POPC   NC360155  27.625  15.538   5.460
 4703POPC   PO460156  27.284  14.981   5.161
 4703POPC   GL160157  27.383  15.070   5.614
 4703POPC   GL260158  27.117  15.274   5.776
 4703POPC   C1A60159  27.708  15.093   5.984
 4703POPC   D2A60160  27.630  15.167   6.437
 4703POPC   C3A60161  27.889  15.099   6.813
 4703POPC   C4A60162  27.996  15.353   7.158
 4703POPC   C1B60163  27.230  14.941   6.116
 4703POPC   C2B60164  27.320  14.771   6.553
 4703POPC   C3B60165  27.427  14.884   6.980
 4703POPC   C4B60166  27.500  15.315   7.095
 4704POPC   NC360167  11.840  22.274   5.519
 4704POPC   PO460168  12.447  22.506   5.563
 4704POPC   GL160169  12.237  22.347   5.869
 4704POPC   GL260170  12.106  21.993   5.873
 4704POPC   C1A60171  12.366  22.223   6.244
 4704POPC   D2A60172  12.118  22.138   6.587
 4704POPC   C3A60173  12.305  22.033   6.977
 4704POPC   C4A60174  12.321  22.176   7.379
 4704POPC   C1B60175  11.827  22.283   6.175
 4704POPC   C2B60176  11.665  22.388   6.599
 4704POPC   C3B60177  11.741  22.094   6.927
 4704POPC   C4B60178  11.830  22.072   7.312
 4705POPC   NC360179  21.486  23.059   5.401
 4705POPC   PO460180  21.200  22.457   5.486
 4705POPC   GL160181  21.280  22.822   5.824
 4705POPC   GL260182  21.353  23.197   5.894
 4705POPC   C1A60183  21.405  22.845   6.277
 4705POPC   D2A60184  21.435  22.681   6.707
 4705POPC   C3A60185  21.400  22.792   7.143
 4705POPC   C4A60186  21.184  22.602   7.509
 4705POPC   C1B60187  21.097  23.236   6.271
 4705POPC   C2B60188  21.143  23.150   6.730
 4705POPC   C3B60189  21.331  23.296   7.118
 4705POPC   C4B60190  21.747  23.173   7.290
 4706POPC   NC360191  24.259  42.490   5.512
 4706POPC   PO460192  23.878  41.922   5.496
 4706POPC   GL160193  23.709  42.199   5.827
 4706POPC   GL260194  23.808  42.588   5.764
 4706POPC   C1A60195  23.630  42.108   6.283
 4706POPC   D2A60196  23.725  41.996   6.722
 4706POPC   C3A60197  23.756  42.200   7.136
 4706POPC   C4A60198  23.902  42.024   7.542
 4706POPC   C1B60199  23.963  42.484   6.181
 4706POPC   C2B60200  23.755  42.577   6.574
 4706POPC   C3B60201  23.913  42.661   6.963
 4706POPC   C4B60202  24.340  42.687   7.008
 4707POPC   NC360203  35.371  22.009   5.536
 4707POPC   PO460204  35.558  22.664   5.523
 4707POPC   GL160205  35.655  22.355   5.834
 4707POPC   GL260206  35.298  22.334   5.916
 4707POPC   C1A60207  35.620  22.217   6.300
 4707POPC   D2A60208  35.368  22.398   6.646
 4707POPC   C3A60209  35.477  22.237   7.046
 4707POPC   C4A60210  35.303  22.207   7.449
 4707POPC   C1B60211  35.058  22.188   6.265
 4707POPC   C2B60212  34.881  22.233   6.680
 4707POPC   C3B60213  34.951  22.118   7.099
 4707POPC   C4B60214  34.915  21.840   7.459
 4708POPC   NC360215  28.827  18.537   5.464
 4708POPC   PO460216  28.197  18.152   5.493
 4708POPC   GL160217  28.302  18.293   5.877
 4708POPC   GL260218  28.633  18.191   5.814
 4708POPC   C1A60219  28.134  18.250   6.300
 4708POPC   D2A60220  28.013  17.973   6.680
 4708POPC   C3A60221  28.047  18.137   7.119
 4708POPC   C4A60222  28.135  17.957   7.568
 4708POPC   C1B60223  28.719  18.507   6.148
 4708POPC   C2B60224  28.502  18.642   6.532
 4708POPC   C3B60225  28.495  18.425   6.906
 4708POPC   C4B60226  28.537  18.243   7.305
 4709POPC   NC360227  38.425  23.288   5.458
 4709POPC   PO460228  38.190  22.607   5.485
 4709POPC   GL160229  38.437  22.850   5.814
 4709POPC   GL260230  38.272  23.152   5.934
 4709POPC   C1A60231  38.558  22.864   6.282
 4709POPC   D2A60232  38.675  22.533   6.618
 4709POPC   C3A60233  38.582  22.685   7.041
 4709POPC   C4A60234  38.163  22.799   7.230
 4709POPC   C1B60235  38.461  23.390   6.285
 4709POPC   C2B60236  38.464  23.332   6.722
 4709POPC   C3B60237  38.647  23.244   7.112
 4709POPC   C4B60238  38.564  23.002   7.480
 4710POPC   NC360239   0.730   4.301   5.307
 4710POPC   PO460240   1.415   4.160   5.360
 4710POPC   GL160241   1.237   4.320   5.751
 4710POPC   GL260242   0.897   4.498   5.744
 4710POPC   C1A60243   1.170   4.146   6.166
 4710POPC   D2A60244   0.943   4.088   6.538
 4710POPC   C3A60245   1.155   4.099   6.930
 4710POPC   C4A60246   1.025   3.960   7.352
 4710POPC   C1B60247   0.889   4.578   6.191
 4710POPC   C2B60248   0.746   4.575   6.618
 4710POPC   C3B60249   0.921   4.573   7.004
 4710POPC   C4B60250   1.111   4.451   7.368
 4711POPC   NC360251  28.788  37.906   5.430
 4711POPC   PO460252  29.343  37.496   5.439
 4711POPC   GL160253  29.167  37.733   5.804
 4711POPC   GL260254  29.374  37.976   5.988
 4711POPC   C1A60255  29.170  37.588   6.249
 4711POPC   D2A60256  29.300  37.358   6.613
 4711POPC   C3A60257  29.277  37.604   6.993
 4711POPC   C4A60258  28.968  37.580   7.342
 4711POPC   C1B60259  28.949  38.056   6.193
 4711POPC   C2B60260  28.822  38.115   6.631
 4711POPC   C3B60261  28.932  37.994   7.044
 4711POPC   C4B60262  29.291  37.999   7.345
 4712POPC   NC360263  13.235  12.324   5.379
 4712POPC   PO460264  13.618  12.952   5.356
 4712POPC   GL160265  13.593  12.845   5.786
 4712POPC   GL260266  13.831  13.099   5.818
 4712POPC   C1A60267  13.593  12.629   6.200
 4712POPC   D2A60268  13.845  12.711   6.551
 4712POPC   C3A60269  13.597  12.784   6.904
 4712POPC   C4A60270  13.707  12.822   7.331
 4712POPC   C1B60271  13.693  13.130   6.223
 4712POPC   C2B60272  13.680  13.253   6.643
 4712POPC   C3B60273  13.774  13.241   7.067
 4712POPC   C4B60274  14.034  13.249   7.421
 4713POPC   NC360275  15.653   4.479   5.573
 4713POPC   PO460276  16.258   4.091   5.622
 4713POPC   GL160277  15.978   4.306   5.926
 4713POPC   GL260278  15.659   4.080   5.914
 4713POPC   C1A60279  15.735   4.402   6.316
 4713POPC   D2A60280  15.610   4.396   6.734
 4713POPC   C3A60281  15.979   4.505   7.009
 4713POPC   C4A60282  16.369   4.688   7.228
 4713POPC   C1B60283  15.920   3.930   6.277
 4713POPC   C2B60284  15.957   4.016   6.728
 4713POPC   C3B60285  15.932   4.019   7.169
 4713POPC   C4B60286  15.789   4.103   7.602
 4714POPC   NC360287  29.646  33.946   5.207
 4714POPC   PO460288  30.109  33.471   5.247
 4714POPC   GL160289  29.924  33.825   5.610
 4714POPC   GL260290  29.580  33.943   5.741
 4714POPC   C1A60291  29.976  33.989   6.062
 4714POPC   D2A60292  29.787  34.031   6.501
 4714POPC   C3A60293  30.018  33.956   6.892
 4714POPC   C4A60294  29.973  33.710   7.288
 4714POPC   C1B60295  29.472  33.786   6.164
 4714POPC   C2B60296  29.337  33.821   6.644
 4714POPC   C3B60297  29.519  33.727   7.089
 4714POPC   C4B60298  29.586  33.398   7.441
 4715POPC   NC360299  33.202  23.488   5.240
 4715POPC   PO460300  33.631  23.300   5.718
 4715POPC   GL160301  33.209  23.484   5.785
 4715POPC   GL260302  33.226  23.807   5.932
 4715POPC   C1A60303  32.863  23.499   6.111
 4715POPC   D2A60304  32.729  23.667   6.510
 4715POPC   C3A60305  32.912  23.591   6.919
 4715POPC   C4A60306  32.838  23.310   7.232
 4715POPC   C1B60307  32.818  24.002   6.125
 4715POPC   C2B60308  32.775  24.181   6.529
 4715POPC   C3B60309  32.633  24.219   6.940
 4715POPC   C4B60310  32.902  24.035   7.249
 4716POPC   NC360311  39.503  11.378   5.139
 4716POPC   PO460312  38.942  11.194   5.461
 4716POPC   GL160313  39.105  11.519   5.723
 4716POPC   GL260314  39.432  11.562   5.624
 4716POPC   C1A60315  39.196  11.604   6.166
 4716POPC   D2A60316  39.165  11.301   6.516
 4716POPC   C3A60317  39.141  11.439   6.934
 4716POPC   C4A60318  39.215  11.213   7.314
 4716POPC   C1B60319  39.509  11.245   5.980
 4716POPC   C2B60320  39.634  11.120   6.422
 4716POPC   C3B60321  39.539  11.113   6.867
 4716POPC   C4B60322  39.679  11.391   7.204
 4717POPC   NC360323   2.158   7.002   5.621
 4717POPC   PO460324   2.084   6.453   5.173
 4717POPC   GL160325   1.844   6.443   5.656
 4717POPC   GL260326   1.618   6.702   5.771
 4717POPC   C1A60327   1.744   6.344   6.115
 4717POPC   D2A60328   1.683   6.435   6.578
 4717POPC   C3A60329   2.017   6.325   6.883
 4717POPC   C4A60330   2.125   6.601   7.222
 4717POPC   C1B60331   1.772   6.905   6.157
 4717POPC   C2B60332   1.973   7.202   6.456
 4717POPC   C3B60333   2.031   6.984   6.847
 4717POPC   C4B60334   1.791   6.985   7.213
 4718POPC   NC360335  30.499   9.122   5.212
 4718POPC   PO460336  29.913   8.915   5.473
 4718POPC   GL160337  29.951   9.138   5.871
 4718POPC   GL260338  30.310   9.154   6.002
 4718POPC   C1A60339  29.851   9.102   6.298
 4718POPC   D2A60340  30.032   9.007   6.699
 4718POPC   C3A60341  29.845   9.146   7.065
 4718POPC   C4A60342  29.995   9.092   7.503
 4718POPC   C1B60343  30.214   8.736   6.235
 4718POPC   C2B60344  30.194   8.533   6.662
 4718POPC   C3B60345  30.182   8.672   7.136
 4718POPC   C4B60346  30.210   8.657   7.609
 4719POPC   NC360347  21.936   9.728   5.555
 4719POPC   PO460348  22.528   9.541   5.436
 4719POPC   GL160349  22.411   9.848   5.757
 4719POPC   GL260350  22.310   9.528   5.922
 4719POPC   C1A60351  22.104   9.940   6.132
 4719POPC   D2A60352  21.996   9.661   6.471
 4719POPC   C3A60353  22.014   9.699   6.899
 4719POPC   C4A60354  22.335   9.891   7.092
 4719POPC   C1B60355  22.557   9.755   6.239
 4719POPC   C2B60356  22.489   9.672   6.639
 4719POPC   C3B60357  22.374   9.348   6.879
 4719POPC   C4B60358  22.340   9.422   7.276
 4720POPC   NC360359  41.215  20.641   5.603
 4720POPC   PO460360  40.679  20.960   5.386
 4720POPC   GL160361  40.589  20.704   5.776
 4720POPC   GL260362  40.835  20.403   5.851
 4720POPC   C1A60363  40.624  20.650   6.241
 4720POPC   D2A60364  40.837  20.837   6.600
 4720POPC   C3A60365  40.602  20.742   6.979
 4720POPC   C4A60366  40.594  20.608   7.407
 4720POPC   C1B60367  41.098  20.423   6.246
 4720POPC   C2B60368  41.239  20.509   6.708
 4720POPC   C3B60369  41.061  20.508   7.131
 4720POPC   C4B60370  41.026  20.472   7.621
 4721POPC   NC360371  26.153  43.087   5.436
 4721POPC   PO460372  25.486  43.211   5.518
 4721POPC   GL160373  25.818  43.290   5.837
 4721POPC   GL260374  26.190  43.332   5.893
 4721POPC   C1A60375  25.913  43.137   6.283
 4721POPC   D2A60376  25.785  43.076   6.739
 4721POPC   C3A60377  25.990  42.850   7.096
 4721POPC   C4A60378  25.769  42.624   7.465
 4721POPC   C1B60379  26.318  43.445   6.275
 4721POPC   C2B60380  26.184  43.393   6.651
 4721POPC   C3B60381  26.283  43.309   7.046
 4721POPC   C4B60382  26.197  43.182   7.435
 4722POPC   NC360383  30.323  18.511   5.375
 4722POPC   PO460384  30.677  17.905   5.355
 4722POPC   GL160385  30.625  18.186   5.705
 4722POPC   GL260386  30.893  18.425   5.648
 4722POPC   C1A60387  30.558  18.067   6.138
 4722POPC   D2A60388  30.527  18.218   6.581
 4722POPC   C3A60389  30.582  17.976   6.961
 4722POPC   C4A60390  30.618  18.345   7.156
 4722POPC   C1B60391  31.007  18.308   6.107
 4722POPC   C2B60392  30.989  18.474   6.569
 4722POPC   C3B60393  31.112  18.320   7.004
 4722POPC   C4B60394  30.972  17.987   7.327
 4723POPC   NC360395   0.593  26.359   5.265
 4723POPC   PO460396   0.438  25.720   5.162
 4723POPC   GL160397   0.351  26.036   5.597
 4723POPC   GL260398   0.615  26.103   5.809
 4723POPC   C1A60399   0.144  26.141   6.021
 4723POPC   D2A60400   0.116  25.981   6.489
 4723POPC   C3A60401   0.248  26.165   6.903
 4723POPC   C4A60402   0.135  26.390   7.294
 4723POPC   C1B60403   0.557  25.934   6.247
 4723POPC   C2B60404   0.685  26.118   6.617
 4723POPC   C3B60405   0.783  26.019   7.010
 4723POPC   C4B60406   0.608  26.102   7.372
 4724POPC   NC360407  32.005  11.412   5.493
 4724POPC   PO460408  32.693  11.251   5.421
 4724POPC   GL160409  32.430  11.289   5.820
 4724POPC   GL260410  32.162  11.026   5.826
 4724POPC   C1A60411  32.130  11.487   6.180
 4724POPC   D2A60412  32.009  11.611   6.658
 4724POPC   C3A60413  32.253  11.355   7.008
 4724POPC   C4A60414  32.554  11.452   7.376
 4724POPC   C1B60415  31.876  11.029   6.230
 4724POPC   C2B60416  31.873  11.098   6.717
 4724POPC   C3B60417  31.883  11.025   7.184
 4724POPC   C4B60418  31.932  10.888   7.640
 4725POPC   NC360419   0.669  41.771   5.471
 4725POPC   PO460420   0.112  41.530   5.093
 4725POPC   GL160421   0.165  41.534   5.568
 4725POPC   GL260422   0.128  41.837   5.733
 4725POPC   C1A60423   0.279  41.444   6.035
 4725POPC   D2A60424   0.392  41.225   6.431
 4725POPC   C3A60425   0.334  41.372   6.845
 4725POPC   C4A60426   0.540  41.260   7.228
 4725POPC   C1B60427   0.409  41.940   6.086
 4725POPC   C2B60428   0.383  41.755   6.493
 4725POPC   C3B60429   0.453  41.867   6.929
 4725POPC   C4B60430   0.263  41.840   7.305
 4726POPC   NC360431  10.037   1.021   5.435
 4726POPC   PO460432   9.546   1.486   5.434
 4726POPC   GL160433   9.720   1.380   5.790
 4726POPC   GL260434   9.479   1.081   5.817
 4726POPC   C1A60435   9.846   1.208   6.185
 4726POPC   D2A60436   9.830   1.092   6.611
 4726POPC   C3A60437   9.907   1.447   6.875
 4726POPC   C4A60438   9.782   1.486   7.288
 4726POPC   C1B60439   9.325   1.383   6.126
 4726POPC   C2B60440   9.446   1.489   6.534
 4726POPC   C3B60441   9.436   1.273   6.916
 4726POPC   C4B60442   9.289   1.503   7.206
 4727POPC   NC360443  34.400  37.184   5.384
 4727POPC   PO460444  34.568  36.548   5.499
 4727POPC   GL160445  34.446  36.796   5.877
 4727POPC   GL260446  34.221  37.096   5.874
 4727POPC   C1A60447  34.596  36.743   6.339
 4727POPC   D2A60448  34.533  36.875   6.797
 4727POPC   C3A60449  34.787  36.688   7.129
 4727POPC   C4A60450  34.900  36.636   7.613
 4727POPC   C1B60451  34.328  37.215   6.318
 4727POPC   C2B60452  34.260  37.334   6.758
 4727POPC   C3B60453  34.242  37.135   7.182
 4727POPC   C4B60454  34.142  37.054   7.647
 4728POPC   NC360455  31.070  13.220   5.570
 4728POPC   PO460456  31.568  12.717   5.504
 4728POPC   GL160457  31.528  12.749   5.880
 4728POPC   GL260458  31.160  12.670   5.843
 4728POPC   C1A60459  31.675  12.823   6.293
 4728POPC   D2A60460  31.713  13.028   6.677
 4728POPC   C3A60461  31.622  12.851   7.054
 4728POPC   C4A60462  31.517  12.983   7.497
 4728POPC   C1B60463  31.221  12.995   6.170
 4728POPC   C2B60464  31.290  13.265   6.499
 4728POPC   C3B60465  31.215  13.105   6.910
 4728POPC   C4B60466  31.131  12.776   7.217
 4729POPC   NC360467   5.251   6.501   5.297
 4729POPC   PO460468   4.941   7.104   5.265
 4729POPC   GL160469   5.179   6.983   5.696
 4729POPC   GL260470   5.175   6.630   5.799
 4729POPC   C1A60471   5.189   6.976   6.171
 4729POPC   D2A60472   5.053   6.695   6.508
 4729POPC   C3A60473   5.051   6.837   6.928
 4729POPC   C4A60474   5.164   6.815   7.349
 4729POPC   C1B60475   4.789   6.631   6.072
 4729POPC   C2B60476   4.683   6.358   6.427
 4729POPC   C3B60477   4.854   6.328   6.852
 4729POPC   C4B60478   4.699   6.475   7.255
 4730POPC   NC360479  30.464   5.716   5.577
 4730POPC   PO460480  30.826   5.972   5.074
 4730POPC   GL160481  30.855   6.034   5.597
 4730POPC   GL260482  30.933   5.776   5.844
 4730POPC   C1A60483  30.681   6.177   6.065
 4730POPC   D2A60484  30.436   6.119   6.505
 4730POPC   C3A60485  30.510   6.203   7.005
 4730POPC   C4A60486  30.556   5.987   7.462
 4730POPC   C1B60487  30.742   5.694   6.241
 4730POPC   C2B60488  30.786   5.800   6.688
 4730POPC   C3B60489  30.871   5.837   7.092
 4730POPC   C4B60490  30.832   5.556   7.414
 4731POPC   NC360491   9.647  38.331   5.379
 4731POPC   PO460492   9.757  39.013   5.396
 4731POPC   GL160493   9.700  38.794   5.773
 4731POPC   GL260494   9.958  38.532   5.759
 4731POPC   C1A60495   9.488  38.751   6.191
 4731POPC   D2A60496   9.404  38.891   6.633
 4731POPC   C3A60497   9.566  38.612   6.948
 4731POPC   C4A60498   9.638  38.497   7.368
 4731POPC   C1B60499  10.012  38.647   6.187
 4731POPC   C2B60500   9.943  38.798   6.620
 4731POPC   C3B60501  10.078  38.568   7.022
 4731POPC   C4B60502  10.084  38.248   7.372
 4732POPC   NC360503  31.782   7.597   5.355
 4732POPC   PO460504  31.159   7.429   5.499
 4732POPC   GL160505  31.398   7.672   5.793
 4732POPC   GL260506  31.708   7.458   5.860
 4732POPC   C1A60507  31.291   7.728   6.250
 4732POPC   D2A60508  31.112   7.415   6.558
 4732POPC   C3A60509  31.351   7.437   6.927
 4732POPC   C4A60510  31.285   7.458   7.349
 4732POPC   C1B60511  31.756   7.235   6.271
 4732POPC   C2B60512  32.003   7.165   6.669
 4732POPC   C3B60513  31.791   7.196   7.070
 4732POPC   C4B60514  31.760   7.612   7.208
 4733POPC   NC360515  23.305   8.049   5.252
 4733POPC   PO460516  22.758   8.296   5.254
 4733POPC   GL160517  23.014   8.290   5.601
 4733POPC   GL260518  23.124   8.593   5.700
 4733POPC   C1A60519  23.038   8.143   6.031
 4733POPC   D2A60520  22.836   7.983   6.420
 4733POPC   C3A60521  22.988   8.017   6.846
 4733POPC   C4A60522  22.698   8.030   7.188
 4733POPC   C1B60523  23.254   8.599   6.124
 4733POPC   C2B60524  23.121   8.427   6.534
 4733POPC   C3B60525  22.757   8.480   6.816
 4733POPC   C4B60526  22.687   8.571   7.263
 4734POPC   NC360527  29.249  39.686   5.644
 4734POPC   PO460528  28.796  40.090   5.488
 4734POPC   GL160529  28.987  40.049   5.883
 4734POPC   GL260530  28.805  39.724   5.910
 4734POPC   C1A60531  29.119  40.207   6.294
 4734POPC   D2A60532  29.061  40.086   6.726
 4734POPC   C3A60533  28.962  40.290   7.085
 4734POPC   C4A60534  29.343  40.186   7.257
 4734POPC   C1B60535  28.946  39.730   6.334
 4734POPC   C2B60536  28.914  39.611   6.760
 4734POPC   C3B60537  28.972  39.787   7.191
 4734POPC   C4B60538  29.069  39.639   7.625
 4735POPC   NC360539  19.052  34.083   5.562
 4735POPC   PO460540  19.232  33.399   5.524
 4735POPC   GL160541  18.997  33.512   5.858
 4735POPC   GL260542  19.185  33.825   5.957
 4735POPC   C1A60543  19.081  33.492   6.303
 4735POPC   D2A60544  18.947  33.843   6.556
 4735POPC   C3A60545  19.056  33.764   6.970
 4735POPC   C4A60546  18.864  33.761   7.365
 4735POPC   C1B60547  19.283  34.163   6.251
 4735POPC   C2B60548  19.403  34.048   6.678
 4735POPC   C3B60549  19.363  34.168   7.118
 4735POPC   C4B60550  19.323  33.901   7.479
 4736POPC   NC360551   3.575   4.146   5.287
 4736POPC   PO460552   4.230   4.415   5.262
 4736POPC   GL160553   3.880   4.302   5.672
 4736POPC   GL260554   3.497   4.218   5.822
 4736POPC   C1A60555   3.856   4.369   6.143
 4736POPC   D2A60556   3.659   4.257   6.552
 4736POPC   C3A60557   3.582   4.394   7.009
 4736POPC   C4A60558   3.636   4.241   7.474
 4736POPC   C1B60559   3.387   4.540   6.191
 4736POPC   C2B60560   3.481   4.805   6.533
 4736POPC   C3B60561   3.268   4.810   6.926
 4736POPC   C4B60562   3.222   4.591   7.325
 4737POPC   NC360563  30.060  23.322   5.507
 4737POPC   PO460564  29.841  22.677   5.465
 4737POPC   GL160565  29.835  22.901   5.852
 4737POPC   GL260566  30.180  23.006   5.939
 4737POPC   C1A60567  29.887  22.718   6.267
 4737POPC   D2A60568  30.094  22.879   6.618
 4737POPC   C3A60569  29.722  22.920   6.874
 4737POPC   C4A60570  29.607  22.658   7.229
 4737POPC   C1B60571  29.958  23.248   6.267
 4737POPC   C2B60572  30.008  23.431   6.662
 4737POPC   C3B60573  30.140  23.222   6.996
 4737POPC   C4B60574  29.910  23.040   7.330
 4738POPC   NC360575  14.637   6.188   5.492
 4738POPC   PO460576  14.272   5.583   5.589
 4738POPC   GL160577  14.290   5.945   5.791
 4738POPC   GL260578  14.635   5.892   5.905
 4738POPC   C1A60579  14.138   5.956   6.194
 4738POPC   D2A60580  14.167   5.606   6.468
 4738POPC   C3A60581  14.228   5.674   6.898
 4738POPC   C4A60582  14.603   5.613   7.158
 4738POPC   C1B60583  14.636   6.065   6.318
 4738POPC   C2B60584  14.349   6.118   6.665
 4738POPC   C3B60585  14.426   6.141   7.100
 4738POPC   C4B60586  14.547   6.456   7.402
 4739POPC   NC360587   9.267  21.384   5.471
 4739POPC   PO460588   8.672  21.105   5.489
 4739POPC   GL160589   8.895  21.341   5.846
 4739POPC   GL260590   9.184  21.639   5.889
 4739POPC   C1A60591   8.898  21.143   6.240
 4739POPC   D2A60592   9.054  21.053   6.647
 4739POPC   C3A60593   8.773  21.211   6.947
 4739POPC   C4A60594   8.831  21.461   7.303
 4739POPC   C1B60595   9.272  21.485   6.313
 4739POPC   C2B60596   9.437  21.556   6.721
 4739POPC   C3B60597   9.474  21.434   7.135
 4739POPC   C4B60598   9.263  21.586   7.487
 4740POPC   NC360599  33.126  12.564   5.053
 4740POPC   PO460600  33.386  13.089   5.456
 4740POPC   GL160601  33.177  12.734   5.695
 4740POPC   GL260602  32.963  12.959   5.859
 4740POPC   C1A60603  33.244  12.671   6.171
 4740POPC   D2A60604  33.123  12.950   6.541
 4740POPC   C3A60605  33.317  12.793   6.928
 4740POPC   C4A60606  33.342  12.651   7.366
 4740POPC   C1B60607  32.824  13.256   6.197
 4740POPC   C2B60608  32.597  13.361   6.602
 4740POPC   C3B60609  32.819  13.350   6.989
 4740POPC   C4B60610  32.994  13.023   7.243
 4741POPC   NC360611  14.004  20.029   5.370
 4741POPC   PO460612  13.367  19.886   5.353
 4741POPC   GL160613  13.566  20.022   5.716
 4741POPC   GL260614  13.342  20.325   5.718
 4741POPC   C1A60615  13.627  19.829   6.133
 4741POPC   D2A60616  13.907  19.737   6.484
 4741POPC   C3A60617  13.667  19.747   6.872
 4741POPC   C4A60618  13.833  19.660   7.269
 4741POPC   C1B60619  13.454  20.358   6.164
 4741POPC   C2B60620  13.464  20.137   6.562
 4741POPC   C3B60621  13.414  20.213   7.001
 4741POPC   C4B60622  13.331  19.918   7.329
 4742POPC   NC360623  32.631  37.150   5.034
 4742POPC   PO460624  32.341  36.608   5.287
 4742POPC   GL160625  32.214  36.740   5.692
 4742POPC   GL260626  32.356  36.477   5.816
 4742POPC   C1A60627  32.214  37.011   6.087
 4742POPC   D2A60628  32.288  37.347   6.437
 4742POPC   C3A60629  32.447  37.236   6.860
 4742POPC   C4A60630  32.323  37.025   7.237
 4742POPC   C1B60631  32.096  36.500   6.169
 4742POPC   C2B60632  31.813  36.498   6.518
 4742POPC   C3B60633  32.004  36.663   6.874
 4742POPC   C4B60634  31.913  36.740   7.264
 4743POPC   NC360635   5.735  32.412   5.152
 4743POPC   PO460636   5.684  33.080   5.404
 4743POPC   GL160637   5.944  33.084   5.755
 4743POPC   GL260638   6.205  33.333   5.720
 4743POPC   C1A60639   5.816  33.112   6.182
 4743POPC   D2A60640   5.981  32.863   6.505
 4743POPC   C3A60641   5.841  32.978   6.886
 4743POPC   C4A60642   5.786  32.854   7.287
 4743POPC   C1B60643   6.083  33.564   6.132
 4743POPC   C2B60644   5.878  33.504   6.551
 4743POPC   C3B60645   6.011  33.438   6.992
 4743POPC   C4B60646   5.932  33.313   7.433
 4744POPC   NC360647  36.066  22.487   5.493
 4744POPC   PO460648  35.801  21.820   5.466
 4744POPC   GL160649  36.115  21.961   5.774
 4744POPC   GL260650  36.470  21.960   5.639
 4744POPC   C1A60651  36.125  22.292   6.105
 4744POPC   D2A60652  36.189  22.516   6.486
 4744POPC   C3A60653  35.973  22.272   6.795
 4744POPC   C4A60654  35.956  22.077   7.193
 4744POPC   C1B60655  36.583  21.986   6.093
 4744POPC   C2B60656  36.297  21.960   6.454
 4744POPC   C3B60657  36.326  21.872   6.890
 4744POPC   C4B60658  36.466  21.936   7.311
 4745POPC   NC360659  16.094  38.857   5.394
 4745POPC   PO460660  15.869  38.208   5.233
 4745POPC   GL160661  16.048  38.394   5.634
 4745POPC   GL260662  15.795  38.620   5.767
 4745POPC   C1A60663  16.155  38.393   6.099
 4745POPC   D2A60664  16.101  38.524   6.557
 4745POPC   C3A60665  16.247  38.275   6.905
 4745POPC   C4A60666  16.085  38.237   7.280
 4745POPC   C1B60667  15.650  38.373   6.179
 4745POPC   C2B60668  15.590  38.311   6.650
 4745POPC   C3B60669  15.553  38.355   7.141
 4745POPC   C4B60670  15.433  38.313   7.623
 4746POPC   NC360671  24.633   2.298   5.392
 4746POPC   PO460672  24.378   1.646   5.344
 4746POPC   GL160673  24.496   1.891   5.702
 4746POPC   GL260674  24.349   2.218   5.798
 4746POPC   C1A60675  24.508   1.746   6.111
 4746POPC   D2A60676  24.377   1.789   6.535
 4746POPC   C3A60677  24.642   1.868   6.905
 4746POPC   C4A60678  24.750   1.733   7.334
 4746POPC   C1B60679  24.525   2.230   6.227
 4746POPC   C2B60680  24.408   2.291   6.636
 4746POPC   C3B60681  24.355   2.408   7.035
 4746POPC   C4B60682  24.421   2.434   7.464
 4747POPC   NC360683   1.562  19.007   5.391
 4747POPC   PO460684   2.219  18.875   5.372
 4747POPC   GL160685   2.045  19.094   5.761
 4747POPC   GL260686   1.701  19.199   5.850
 4747POPC   C1A60687   1.984  18.968   6.215
 4747POPC   D2A60688   1.778  18.813   6.604
 4747POPC   C3A60689   2.000  18.925   6.989
 4747POPC   C4A60690   1.835  18.956   7.405
 4747POPC   C1B60691   1.758  19.434   6.233
 4747POPC   C2B60692   1.982  19.308   6.619
 4747POPC   C3B60693   1.846  19.414   7.028
 4747POPC   C4B60694   1.472  19.445   7.226
 4748POPC   NC360695   1.275  19.647   5.473
 4748POPC   PO460696   1.539  20.372   5.496
 4748POPC   GL160697   1.381  20.200   5.884
 4748POPC   GL260698   1.249  19.861   5.921
 4748POPC   C1A60699   1.096  20.248   6.237
 4748POPC   D2A60700   0.796  20.110   6.547
 4748POPC   C3A60701   0.987  20.172   6.950
 4748POPC   C4A60702   1.220  19.879   7.196
 4748POPC   C1B60703   1.239  19.514   6.202
 4748POPC   C2B60704   0.964  19.446   6.542
 4748POPC   C3B60705   1.058  19.420   6.947
 4748POPC   C4B60706   0.973  19.372   7.369
 4749POPC   NC360707  25.728   8.429   5.380
 4749POPC   PO460708  26.185   7.964   5.283
 4749POPC   GL160709  26.283   8.048   5.721
 4749POPC   GL260710  26.444   7.743   5.834
 4749POPC   C1A60711  25.981   8.142   6.075
 4749POPC   D2A60712  25.777   8.162   6.499
 4749POPC   C3A60713  25.908   8.169   6.961
 4749POPC   C4A60714  26.026   8.550   7.235
 4749POPC   C1B60715  26.389   7.895   6.249
 4749POPC   C2B60716  26.233   7.834   6.692
 4749POPC   C3B60717  26.324   7.897   7.146
 4749POPC   C4B60718  26.412   7.917   7.586
 4750POPC   NC360719  24.948   3.691   5.505
 4750POPC   PO460720  25.526   3.160   5.654
 4750POPC   GL160721  25.406   3.477   5.920
 4750POPC   GL260722  25.062   3.451   5.932
 4750POPC   C1A60723  25.489   3.547   6.363
 4750POPC   D2A60724  25.318   3.369   6.766
 4750POPC   C3A60725  25.155   3.686   7.064
 4750POPC   C4A60726  25.411   3.893   7.397
 4750POPC   C1B60727  24.953   3.554   6.354
 4750POPC   C2B60728  24.822   3.284   6.700
 4750POPC   C3B60729  24.846   3.283   7.169
 4750POPC   C4B60730  24.782   3.200   7.599
 4751POPC   NC360731   1.318  35.416   5.344
 4751POPC   PO460732   1.117  34.820   5.438
 4751POPC   GL160733   1.146  35.177   5.754
 4751POPC   GL260734   1.004  35.515   5.736
 4751POPC   C1A60735   1.303  35.326   6.150
 4751POPC   D2A60736   1.304  35.239   6.589
 4751POPC   C3A60737   1.594  35.094   6.914
 4751POPC   C4A60738   1.505  35.201   7.349
 4751POPC   C1B60739   0.859  35.621   6.163
 4751POPC   C2B60740   0.957  35.629   6.596
 4751POPC   C3B60741   0.962  35.357   6.956
 4751POPC   C4B60742   0.841  35.333   7.350
 4752POPC   NC360743  20.411  44.648   5.676
 4752POPC   PO460744  19.738  44.620   5.404
 4752POPC   GL160745  19.880  44.620   5.828
 4752POPC   GL260746  19.989  44.927   5.798
 4752POPC   C1A60747  20.033  44.633   6.270
 4752POPC   D2A60748  19.864  44.572   6.684
 4752POPC   C3A60749  20.061  44.616   7.083
 4752POPC   C4A60750  19.888  44.669   7.517
 4752POPC   C1B60751  19.845   0.107   6.170
 4752POPC   C2B60752  19.675   0.197   6.593
 4752POPC   C3B60753  19.761   0.036   7.013
 4752POPC   C4B60754  20.056   0.114   7.344
 4753POPC   NC360755  29.920   3.037   5.397
 4753POPC   PO460756  29.529   2.510   5.390
 4753POPC   GL160757  29.718   2.724   5.754
 4753POPC   GL260758  29.575   3.055   5.783
 4753POPC   C1A60759  30.077   2.745   6.045
 4753POPC   D2A60760  29.931   2.701   6.454
 4753POPC   C3A60761  29.943   2.584   6.886
 4753POPC   C4A60762  29.996   2.721   7.281
 4753POPC   C1B60763  29.742   3.113   6.192
 4753POPC   C2B60764  29.931   3.191   6.581
 4753POPC   C3B60765  30.053   3.113   6.967
 4753POPC   C4B60766  30.245   3.159   7.360
 4754POPC   NC360767  31.225  40.753   5.311
 4754POPC   PO460768  31.906  40.485   5.420
 4754POPC   GL160769  31.616  40.675   5.710
 4754POPC   GL260770  31.339  40.442   5.789
 4754POPC   C1A60771  31.567  40.866   6.145
 4754POPC   D2A60772  31.693  40.997   6.604
 4754POPC   C3A60773  31.343  41.028   6.960
 4754POPC   C4A60774  31.352  40.948   7.425
 4754POPC   C1B60775  31.213  40.485   6.247
 4754POPC   C2B60776  31.396  40.591   6.665
 4754POPC   C3B60777  31.326  40.482   7.104
 4754POPC   C4B60778  30.943  40.287   7.267
 4755POPC   NC360779  20.074  27.099   5.617
 4755POPC   PO460780  19.851  26.563   5.647
 4755POPC   GL160781  19.670  26.885   5.894
 4755POPC   GL260782  19.599  27.247   5.802
 4755POPC   C1A60783  19.758  26.945   6.303
 4755POPC   D2A60784  20.055  26.826   6.591
 4755POPC   C3A60785  19.937  26.517   6.890
 4755POPC   C4A60786  19.682  26.618   7.187
 4755POPC   C1B60787  19.753  27.431   6.202
 4755POPC   C2B60788  19.768  27.344   6.681
 4755POPC   C3B60789  19.656  27.104   7.071
 4755POPC   C4B60790  19.813  27.006   7.495
 4756POPC   NC360791  29.658   4.524   5.388
 4756POPC   PO460792  30.126   4.089   5.325
 4756POPC   GL160793  29.930   4.203   5.730
 4756POPC   GL260794  30.222   4.365   5.856
 4756POPC   C1A60795  29.844   4.365   6.185
 4756POPC   D2A60796  29.727   4.200   6.592
 4756POPC   C3A60797  29.846   4.412   6.968
 4756POPC   C4A60798  29.609   4.481   7.364
 4756POPC   C1B60799  30.273   4.059   6.235
 4756POPC   C2B60800  30.271   4.083   6.695
 4756POPC   C3B60801  30.181   4.076   7.135
 4756POPC   C4B60802  30.263   3.923   7.529
 4757POPC   NC360803  43.572  20.801   5.347
 4757POPC   PO460804  44.206  20.688   5.400
 4757POPC   GL160805  44.039  20.771   5.835
 4757POPC   GL260806  43.721  20.570   5.821
 4757POPC   C1A60807  44.054  20.695   6.294
 4757POPC   D2A60808  44.125  20.844   6.710
 4757POPC   C3A60809  44.101  20.590   7.110
 4757POPC   C4A60810  43.835  20.742   7.510
 4757POPC   C1B60811  43.555  20.609   6.238
 4757POPC   C2B60812  43.715  20.500   6.663
 4757POPC   C3B60813  43.593  20.554   7.089
 4757POPC   C4B60814  43.360  20.201   7.224
 4758POPC   NC360815  32.350  16.738   5.423
 4758POPC   PO460816  31.649  16.634   5.352
 4758POPC   GL160817  31.918  16.601   5.769
 4758POPC   GL260818  32.243  16.495   5.858
 4758POPC   C1A60819  32.030  16.822   6.197
 4758POPC   D2A60820  32.147  16.739   6.634
 4758POPC   C3A60821  32.279  16.812   7.055
 4758POPC   C4A60822  32.123  16.720   7.481
 4758POPC   C1B60823  32.309  16.355   6.278
 4758POPC   C2B60824  32.639  16.388   6.587
 4758POPC   C3B60825  32.641  16.432   7.023
 4758POPC   C4B60826  32.258  16.313   7.183
 4759POPC   NC360827  22.349   8.372   5.444
 4759POPC   PO460828  21.897   7.857   5.511
 4759POPC   GL160829  21.998   8.063   5.876
 4759POPC   GL260830  21.795   8.345   5.858
 4759POPC   C1A60831  22.140   8.026   6.319
 4759POPC   D2A60832  21.973   8.142   6.721
 4759POPC   C3A60833  22.289   8.309   6.976
 4759POPC   C4A60834  22.271   8.264   7.398
 4759POPC   C1B60835  21.796   8.403   6.280
 4759POPC   C2B60836  21.910   8.661   6.602
 4759POPC   C3B60837  21.913   8.654   7.038
 4759POPC   C4B60838  21.715   8.399   7.347
 4760POPC   NC360839  42.965  17.036   5.222
 4760POPC   PO460840  43.029  16.413   5.268
 4760POPC   GL160841  43.173  16.727   5.595
 4760POPC   GL260842  43.215  16.456   5.831
 4760POPC   C1A60843  43.289  16.926   6.022
 4760POPC   D2A60844  43.152  16.883   6.467
 4760POPC   C3A60845  43.131  17.087   6.877
 4760POPC   C4A60846  42.821  17.098   7.223
 4760POPC   C1B60847  43.253  16.397   6.295
 4760POPC   C2B60848  42.981  16.426   6.700
 4760POPC   C3B60849  43.022  16.623   7.119
 4760POPC   C4B60850  43.170  16.489   7.542
 4761POPC   NC360851   9.758  33.816   5.192
 4761POPC   PO460852   9.342  33.374   5.527
 4761POPC   GL160853   9.693  33.567   5.658
 4761POPC   GL260854   9.619  33.917   5.681
 4761POPC   C1A60855   9.890  33.656   6.061
 4761POPC   D2A60856   9.936  33.475   6.460
 4761POPC   C3A60857  10.057  33.695   6.825
 4761POPC   C4A60858   9.865  33.568   7.191
 4761POPC   C1B60859   9.532  34.048   6.099
 4761POPC   C2B60860   9.680  33.948   6.497
 4761POPC   C3B60861   9.537  33.901   6.901
 4761POPC   C4B60862   9.567  34.149   7.245
 4762POPC   NC360863  32.662  44.713   5.338
 4762POPC   PO460864  32.042  44.470   5.476
 4762POPC   GL160865  32.339  44.612   5.759
 4762POPC   GL260866  32.586  44.391   5.747
 4762POPC   C1A60867  32.364  44.799   6.177
 4762POPC   D2A60868  32.050  44.774   6.518
 4762POPC   C3A60869  32.180  44.743   6.948
 4762POPC   C4A60870  32.044  44.939   7.313
 4762POPC   C1B60871  32.489  44.305   6.186
 4762POPC   C2B60872  32.529  44.511   6.595
 4762POPC   C3B60873  32.550  44.406   7.039
 4762POPC   C4B60874  32.473  44.685   7.428
 4763POPC   NC360875   9.485   5.908   5.327
 4763POPC   PO460876  10.064   6.182   5.503
 4763POPC   GL160877   9.902   5.961   5.842
 4763POPC   GL260878   9.597   5.878   5.824
 4763POPC   C1A60879   9.909   5.917   6.279
 4763POPC   D2A60880  10.208   5.915   6.591
 4763POPC   C3A60881  10.089   5.775   6.948
 4763POPC   C4A60882  10.048   5.990   7.313
 4763POPC   C1B60883   9.433   6.100   6.161
 4763POPC   C2B60884   9.268   6.171   6.583
 4763POPC   C3B60885   9.270   6.022   6.986
 4763POPC   C4B60886   9.607   5.792   7.159
 4764POPC   NC360887  14.092   7.532   5.384
 4764POPC   PO460888  14.774   7.455   5.351
 4764POPC   GL160889  14.576   7.491   5.749
 4764POPC   GL260890  14.791   7.767   5.852
 4764POPC   C1A60891  14.370   7.398   6.181
 4764POPC   D2A60892  14.308   7.162   6.608
 4764POPC   C3A60893  14.157   7.348   7.018
 4764POPC   C4A60894  14.405   7.405   7.410
 4764POPC   C1B60895  14.855   7.842   6.277
 4764POPC   C2B60896  14.769   7.742   6.717
 4764POPC   C3B60897  14.831   7.500   7.096
 4764POPC   C4B60898  15.087   7.657   7.424
 4765POPC   NC360899   5.271  34.949   5.480
 4765POPC   PO460900   4.966  35.559   5.480
 4765POPC   GL160901   5.147  35.338   5.828
 4765POPC   GL260902   5.505  35.335   5.761
 4765POPC   C1A60903   5.066  35.137   6.238
 4765POPC   D2A60904   4.787  35.078   6.643
 4765POPC   C3A60905   4.990  35.258   6.993
 4765POPC   C4A60906   5.372  35.114   7.138
 4765POPC   C1B60907   5.520  35.591   6.141
 4765POPC   C2B60908   5.434  35.716   6.580
 4765POPC   C3B60909   5.564  35.571   6.994
 4765POPC   C4B60910   5.479  35.530   7.412
 4766POPC   NC360911   8.939  28.655   5.462
 4766POPC   PO460912   9.301  28.017   5.404
 4766POPC   GL160913   9.094  28.236   5.767
 4766POPC   GL260914   9.285  28.561   5.835
 4766POPC   C1A60915   8.797  28.214   6.163
 4766POPC   D2A60916   8.726  28.021   6.613
 4766POPC   C3A60917   8.843  28.222   7.051
 4766POPC   C4A60918   8.670  28.317   7.455
 4766POPC   C1B60919   9.283  28.323   6.239
 4766POPC   C2B60920   9.168  28.285   6.669
 4766POPC   C3B60921   9.310  28.433   7.075
 4766POPC   C4B60922   9.584  28.540   7.410
 4767POPC   NC360923  23.043  38.073   5.032
 4767POPC   PO460924  22.924  38.564   5.522
 4767POPC   GL160925  22.988  38.399   5.951
 4767POPC   GL260926  22.783  38.074   5.941
 4767POPC   C1A60927  22.883  38.504   6.348
 4767POPC   D2A60928  23.134  38.708   6.660
 4767POPC   C3A60929  22.942  38.707   7.048
 4767POPC   C4A60930  23.003  38.713   7.468
 4767POPC   C1B60931  23.121  37.978   6.242
 4767POPC   C2B60932  23.282  38.165   6.619
 4767POPC   C3B60933  23.190  38.249   7.025
 4767POPC   C4B60934  22.893  38.231   7.328
 4768POPC   NC360935  37.785  11.450   5.411
 4768POPC   PO460936  37.192  11.333   5.402
 4768POPC   GL160937  37.348  11.559   5.825
 4768POPC   GL260938  37.731  11.580   5.905
 4768POPC   C1A60939  37.439  11.562   6.325
 4768POPC   D2A60940  37.752  11.533   6.718
 4768POPC   C3A60941  37.599  11.436   7.157
 4768POPC   C4A60942  37.511  11.662   7.552
 4768POPC   C1B60943  38.003  11.432   6.273
 4768POPC   C2B60944  38.154  11.169   6.656
 4768POPC   C3B60945  38.149  11.162   7.115
 4768POPC   C4B60946  38.263  10.905   7.477
 4769POPC   NC360947   6.067  30.280   5.400
 4769POPC   PO460948   5.807  30.971   5.108
 4769POPC   GL160949   5.950  30.827   5.531
 4769POPC   GL260950   5.686  30.695   5.692
 4769POPC   C1A60951   6.101  30.847   6.004
 4769POPC   D2A60952   6.201  30.914   6.474
 4769POPC   C3A60953   6.032  30.621   6.825
 4769POPC   C4A60954   6.027  30.705   7.262
 4769POPC   C1B60955   5.596  30.781   6.138
 4769POPC   C2B60956   5.687  30.466   6.458
 4769POPC   C3B60957   5.557  30.334   6.874
 4769POPC   C4B60958   5.527  30.559   7.265
 4770POPC   NC360959  15.723  11.918   5.414
 4770POPC   PO460960  16.172  11.554   5.343
 4770POPC   GL160961  16.199  11.879   5.683
 4770POPC   GL260962  15.958  12.163   5.787
 4770POPC   C1A60963  16.322  11.988   6.110
 4770POPC   D2A60964  16.141  11.960   6.516
 4770POPC   C3A60965  16.168  12.229   6.879
 4770POPC   C4A60966  16.184  12.112   7.299
 4770POPC   C1B60967  15.738  12.232   6.202
 4770POPC   C2B60968  15.690  12.141   6.669
 4770POPC   C3B60969  15.721  12.100   7.114
 4770POPC   C4B60970  15.738  12.001   7.559
 4771POPC   NC360971  43.991  26.327   5.285
 4771POPC   PO460972  43.585  25.776   5.388
 4771POPC   GL160973  43.848  25.991   5.688
 4771POPC   GL260974  43.702  26.325   5.736
 4771POPC   C1A60975  44.111  26.137   6.048
 4771POPC   D2A60976  44.236  26.354   6.448
 4771POPC   C3A60977  44.195  26.114   6.845
 4771POPC   C4A60978  44.127  26.178   7.282
 4771POPC   C1B60979  43.584  26.122   6.140
 4771POPC   C2B60980  43.797  26.054   6.507
 4771POPC   C3B60981  43.662  26.078   6.930
 4771POPC   C4B60982  43.615  26.281   7.329
 4772POPC   NC360983  37.142   2.070   5.418
 4772POPC   PO460984  37.783   2.198   5.420
 4772POPC   GL160985  37.793   2.027   5.825
 4772POPC   GL260986  38.077   2.229   5.864
 4772POPC   C1A60987  37.564   1.849   6.187
 4772POPC   D2A60988  37.344   2.018   6.536
 4772POPC   C3A60989  37.356   1.846   6.934
 4772POPC   C4A60990  37.579   2.017   7.272
 4772POPC   C1B60991  38.010   2.116   6.296
 4772POPC   C2B60992  37.831   1.888   6.649
 4772POPC   C3B60993  38.005   2.034   7.017
 4772POPC   C4B60994  37.937   2.365   7.305
 4773POPC   NC360995  37.254  34.825   5.581
 4773POPC   PO460996  36.961  34.116   5.490
 4773POPC   GL160997  37.061  34.423   5.819
 4773POPC   GL260998  36.942  34.764   5.968
 4773POPC   C1A60999  37.010  34.354   6.234
 4773POPC   D2A61000  36.754  34.570   6.503
 4773POPC   C3A61001  36.874  34.424   6.894
 4773POPC   C4A61002  36.873  34.296   7.317
 4773POPC   C1B61003  37.362  34.826   6.222
 4773POPC   C2B61004  37.511  34.966   6.640
 4773POPC   C3B61005  37.295  35.122   7.022
 4773POPC   C4B61006  36.981  34.819   7.214
 4774POPC   NC361007  16.818  43.477   5.447
 4774POPC   PO461008  16.955  42.797   5.492
 4774POPC   GL161009  16.986  42.885   5.918
 4774POPC   GL261010  16.865  43.214   5.882
 4774POPC   C1A61011  17.046  43.069   6.339
 4774POPC   D2A61012  17.178  43.324   6.682
 4774POPC   C3A61013  16.854  43.219   6.972
 4774POPC   C4A61014  16.881  42.973   7.296
 4774POPC   C1B61015  16.555  43.143   6.216
 4774POPC   C2B61016  16.519  43.031   6.623
 4774POPC   C3B61017  16.303  43.148   6.961
 4774POPC   C4B61018  16.444  43.261   7.327
 4775POPC   NC361019  32.372   9.228   5.437
 4775POPC   PO461020  32.361   9.952   5.208
 4775POPC   GL161021  32.353   9.723   5.590
 4775POPC   GL261022  32.054   9.605   5.697
 4775POPC   C1A61023  32.416   9.799   6.038
 4775POPC   D2A61024  32.341   9.757   6.475
 4775POPC   C3A61025  32.510   9.797   6.907
 4775POPC   C4A61026  32.476   9.619   7.312
 4775POPC   C1B61027  32.026   9.451   6.111
 4775POPC   C2B61028  31.849   9.600   6.480
 4775POPC   C3B61029  32.001   9.693   6.861
 4775POPC   C4B61030  31.979   9.596   7.279
 4776POPC   NC361031   2.670  29.393   5.077
 4776POPC   PO461032   2.621  29.193   5.656
 4776POPC   GL161033   2.897  29.266   5.964
 4776POPC   GL261034   2.987  29.636   5.873
 4776POPC   C1A61035   2.894  29.015   6.382
 4776POPC   D2A61036   2.838  28.925   6.824
 4776POPC   C3A61037   2.489  29.172   6.960
 4776POPC   C4A61038   2.333  29.568   7.130
 4776POPC   C1B61039   2.870  29.612   6.330
 4776POPC   C2B61040   2.864  29.540   6.805
 4776POPC   C3B61041   2.956  29.578   7.264
 4776POPC   C4B61042   3.168  29.402   7.677
 4777POPC   NC361043  24.814  25.380   5.303
 4777POPC   PO461044  24.200  25.377   5.396
 4777POPC   GL161045  24.497  25.266   5.754
 4777POPC   GL261046  24.744  24.992   5.766
 4777POPC   C1A61047  24.418  25.421   6.189
 4777POPC   D2A61048  24.602  25.552   6.590
 4777POPC   C3A61049  24.558  25.291   6.938
 4777POPC   C4A61050  24.556  25.466   7.288
 4777POPC   C1B61051  24.729  25.031   6.253
 4777POPC   C2B61052  24.943  25.167   6.635
 4777POPC   C3B61053  25.025  25.189   7.097
 4777POPC   C4B61054  24.721  25.005   7.367
 4778POPC   NC361055  10.910   2.859   5.396
 4778POPC   PO461056  11.524   2.547   5.176
 4778POPC   GL161057  11.323   2.559   5.614
 4778POPC   GL261058  11.281   2.894   5.767
 4778POPC   C1A61059  11.320   2.485   6.098
 4778POPC   D2A61060  11.398   2.749   6.498
 4778POPC   C3A61061  11.490   2.630   6.924
 4778POPC   C4A61062  11.247   2.618   7.298
 4778POPC   C1B61063  11.234   3.121   6.180
 4778POPC   C2B61064  11.289   3.265   6.619
 4778POPC   C3B61065  11.242   3.115   7.036
 4778POPC   C4B61066  10.910   3.002   7.272
 4779POPC   NC361067   3.854  30.880   5.388
 4779POPC   PO461068   3.211  30.889   5.419
 4779POPC   GL161069   3.334  30.553   5.672
 4779POPC   GL261070   3.687  30.561   5.760
 4779POPC   C1A61071   3.306  30.536   6.109
 4779POPC   D2A61072   3.380  30.848   6.416
 4779POPC   C3A61073   3.351  30.780   6.858
 4779POPC   C4A61074   3.342  30.608   7.253
 4779POPC   C1B61075   3.805  30.632   6.188
 4779POPC   C2B61076   3.820  30.711   6.621
 4779POPC   C3B61077   3.818  30.687   7.041
 4779POPC   C4B61078   3.640  31.043   7.260
 4780POPC   NC361079  19.161  39.957   5.546
 4780POPC   PO461080  18.535  40.263   5.618
 4780POPC   GL161081  18.828  40.178   5.931
 4780POPC   GL261082  18.905  39.842   5.961
 4780POPC   C1A61083  18.849  40.135   6.378
 4780POPC   D2A61084  18.874  39.899   6.736
 4780POPC   C3A61085  19.049  40.227   6.963
 4780POPC   C4A61086  19.124  40.255   7.371
 4780POPC   C1B61087  19.287  39.956   6.176
 4780POPC   C2B61088  19.358  39.800   6.567
 4780POPC   C3B61089  19.393  39.855   6.995
 4780POPC   C4B61090  19.377  39.637   7.362
 4781POPC   NC361091  14.042  34.937   5.600
 4781POPC   PO461092  14.544  34.504   5.443
 4781POPC   GL161093  14.474  34.737   5.807
 4781POPC   GL261094  14.740  34.961   5.785
 4781POPC   C1A61095  14.231  34.668   6.212
 4781POPC   D2A61096  14.328  34.389   6.587
 4781POPC   C3A61097  14.038  34.279   6.931
 4781POPC   C4A61098  14.122  34.409   7.361
 4781POPC   C1B61099  14.696  34.836   6.255
 4781POPC   C2B61100  14.480  34.902   6.654
 4781POPC   C3B61101  14.447  34.632   7.021
 4781POPC   C4B61102  14.766  34.424   7.235
 4782POPC   NC361103  44.454  18.790   5.656
 4782POPC   PO461104  44.650  18.204   5.446
 4782POPC   GL161105  44.769  18.182   5.852
 4782POPC   GL261106  44.990  18.490   5.790
 4782POPC   C1A61107  44.667  18.107   6.318
 4782POPC   D2A61108  44.383  18.138   6.668
 4782POPC   C3A61109  44.529  18.293   7.099
 4782POPC   C4A61110  44.637  18.579   7.439
 4782POPC   C1B61111  44.768  18.577   6.189
 4782POPC   C2B61112  44.694  18.558   6.620
 4782POPC   C3B61113  44.974  18.530   6.936
 4782POPC   C4B61114   0.073  18.296   7.266
 4783POPC   NC361115  18.762  28.959   5.562
 4783POPC   PO461116  19.335  29.319   5.464
 4783POPC   GL161117  19.026  29.324   5.804
 4783POPC   GL261118  18.662  29.461   5.703
 4783POPC   C1A61119  18.980  29.073   6.223
 4783POPC   D2A61120  19.302  28.844   6.472
 4783POPC   C3A61121  19.405  28.943   6.911
 4783POPC   C4A61122  19.082  28.897   7.221
 4783POPC   C1B61123  18.715  29.523   6.136
 4783POPC   C2B61124  19.001  29.500   6.493
 4783POPC   C3B61125  18.920  29.148   6.787
 4783POPC   C4B61126  18.680  29.218   7.180
 4784POPC   NC361127   9.117  36.108   5.136
 4784POPC   PO461128   9.712  36.218   5.298
 4784POPC   GL161129   9.823  36.243   5.718
 4784POPC   GL261130   9.766  35.891   5.741
 4784POPC   C1A61131   9.977  36.381   6.126
 4784POPC   D2A61132   9.836  36.239   6.512
 4784POPC   C3A61133   9.918  36.326   6.917
 4784POPC   C4A61134   9.863  36.036   7.204
 4784POPC   C1B61135   9.569  36.029   6.126
 4784POPC   C2B61136   9.392  35.972   6.524
 4784POPC   C3B61137   9.458  35.873   6.926
 4784POPC   C4B61138   9.354  36.124   7.279
 4785POPC   NC361139  10.130  43.074   5.399
 4785POPC   PO461140   9.419  43.133   5.567
 4785POPC   GL161141   9.770  42.958   5.754
 4785POPC   GL261142   9.936  43.274   5.809
 4785POPC   C1A61143   9.729  42.880   6.163
 4785POPC   D2A61144   9.566  43.227   6.400
 4785POPC   C3A61145   9.687  43.146   6.811
 4785POPC   C4A61146   9.679  43.280   7.212
 4785POPC   C1B61147  10.082  43.270   6.196
 4785POPC   C2B61148   9.981  43.485   6.551
 4785POPC   C3B61149  10.109  43.431   6.967
 4785POPC   C4B61150  10.373  43.644   7.250
 4786POPC   NC361151  25.512  25.560   5.596
 4786POPC   PO461152  25.157  25.086   5.393
 4786POPC   GL161153  25.191  25.240   5.806
 4786POPC   GL261154  24.978  25.510   5.772
 4786POPC   C1A61155  25.444  25.324   6.202
 4786POPC   D2A61156  25.437  25.208   6.628
 4786POPC   C3A61157  25.486  25.451   6.983
 4786POPC   C4A61158  25.522  25.068   7.210
 4786POPC   C1B61159  24.966  25.497   6.215
 4786POPC   C2B61160  25.157  25.651   6.603
 4786POPC   C3B61161  24.949  25.679   7.008
 4786POPC   C4B61162  25.013  25.582   7.469
 4787POPC   NC361163  32.717  38.567   5.603
 4787POPC   PO461164  32.070  38.264   5.507
 4787POPC   GL161165  32.377  38.249   5.875
 4787POPC   GL261166  32.710  38.089   5.862
 4787POPC   C1A61167  32.216  38.252   6.302
 4787POPC   D2A61168  32.157  38.642   6.518
 4787POPC   C3A61169  31.933  38.602   6.880
 4787POPC   C4A61170  31.973  38.749   7.252
 4787POPC   C1B61171  32.719  38.274   6.305
 4787POPC   C2B61172  32.528  38.347   6.763
 4787POPC   C3B61173  32.357  38.407   7.205
 4787POPC   C4B61174  32.352  38.665   7.591
 4788POPC   NC361175   8.192  29.304   5.607
 4788POPC   PO461176   8.034  29.837   5.190
 4788POPC   GL161177   8.081  29.991   5.647
 4788POPC   GL261178   8.319  29.777   5.794
 4788POPC   C1A61179   8.053  30.114   6.126
 4788POPC   D2A61180   8.088  29.893   6.540
 4788POPC   C3A61181   7.939  29.928   6.979
 4788POPC   C4A61182   8.034  29.629   7.311
 4788POPC   C1B61183   8.509  29.827   6.206
 4788POPC   C2B61184   8.566  29.990   6.631
 4788POPC   C3B61185   8.419  29.705   6.933
 4788POPC   C4B61186   8.575  29.608   7.317
 4789POPC   NC361187  39.243  17.753   5.545
 4789POPC   PO461188  39.532  17.137   5.421
 4789POPC   GL161189  39.169  17.267   5.728
 4789POPC   GL261190  38.854  17.498   5.788
 4789POPC   C1A61191  39.090  17.184   6.174
 4789POPC   D2A61192  38.936  17.319   6.595
 4789POPC   C3A61193  39.196  17.137   6.920
 4789POPC   C4A61194  39.322  17.279   7.312
 4789POPC   C1B61195  38.943  17.697   6.195
 4789POPC   C2B61196  39.065  17.832   6.596
 4789POPC   C3B61197  39.091  17.675   7.007
 4789POPC   C4B61198  39.337  17.892   7.288
 4790POPC   NC361199   8.491   4.706   5.522
 4790POPC   PO461200   8.138   4.151   5.327
 4790POPC   GL161201   8.111   4.287   5.784
 4790POPC   GL261202   8.403   4.413   5.942
 4790POPC   C1A61203   8.070   4.177   6.250
 4790POPC   D2A61204   8.246   4.420   6.589
 4790POPC   C3A61205   8.190   4.184   6.967
 4790POPC   C4A61206   8.047   4.178   7.425
 4790POPC   C1B61207   8.652   4.694   6.203
 4790POPC   C2B61208   8.830   4.761   6.610
 4790POPC   C3B61209   8.531   4.704   6.923
 4790POPC   C4B61210   8.427   4.492   7.282
 4791POPC   NC361211  21.667   0.434   5.088
 4791POPC   PO461212  22.293   0.676   5.318
 4791POPC   GL161213  22.253   0.421   5.663
 4791POPC   GL261214  21.900   0.349   5.639
 4791POPC   C1A61215  22.380   0.438   6.109
 4791POPC   D2A61216  22.180   0.413   6.524
 4791POPC   C3A61217  22.362   0.508   6.896
 4791POPC   C4A61218  22.436   0.343   7.266
 4791POPC   C1B61219  21.898   0.256   6.124
 4791POPC   C2B61220  21.821   0.056   6.568
 4791POPC   C3B61221  21.818   0.354   6.921
 4791POPC   C4B61222  21.910   0.288   7.337
 4792POPC   NC361223   9.670  31.157   5.452
 4792POPC   PO461224   9.512  31.853   5.229
 4792POPC   GL161225   9.565  31.715   5.694
 4792POPC   GL261226   9.861  31.535   5.826
 4792POPC   C1A61227   9.577  31.762   6.187
 4792POPC   D2A61228   9.790  31.534   6.508
 4792POPC   C3A61229   9.634  31.590   6.908
 4792POPC   C4A61230   9.727  31.792   7.256
 4792POPC   C1B61231   9.627  31.234   6.113
 4792POPC   C2B61232   9.524  31.014   6.510
 4792POPC   C3B61233   9.651  31.062   6.913
 4792POPC   C4B61234   9.723  31.272   7.295
 4793POPC   NC361235  28.583  15.818   5.403
 4793POPC   PO461236  28.249  16.419   5.256
 4793POPC   GL161237  28.339  16.177   5.698
 4793POPC   GL261238  28.358  15.821   5.847
 4793POPC   C1A61239  28.448  16.189   6.173
 4793POPC   D2A61240  28.320  16.096   6.594
 4793POPC   C3A61241  28.555  16.272   6.922
 4793POPC   C4A61242  28.344  16.202   7.274
 4793POPC   C1B61243  28.283  15.695   6.278
 4793POPC   C2B61244  28.329  15.551   6.731
 4793POPC   C3B61245  28.405  15.700   7.171
 4793POPC   C4B61246  28.136  15.642   7.569
 4794POPC   NC361247  21.975  40.308   5.620
 4794POPC   PO461248  21.392  40.014   5.337
 4794POPC   GL161249  21.601  39.934   5.739
 4794POPC   GL261250  21.532  40.245   5.854
 4794POPC   C1A61251  21.419  39.840   6.172
 4794POPC   D2A61252  21.243  39.658   6.565
 4794POPC   C3A61253  21.427  39.745   6.972
 4794POPC   C4A61254  21.268  39.632   7.392
 4794POPC   C1B61255  21.667  40.293   6.274
 4794POPC   C2B61256  21.397  40.189   6.625
 4794POPC   C3B61257  21.287  40.239   7.051
 4794POPC   C4B61258  21.609  40.317   7.374
 4795POPC   NC361259  12.281  14.612   5.525
 4795POPC   PO461260  12.796  14.401   5.310
 4795POPC   GL161261  12.711  14.291   5.800
 4795POPC   GL261262  12.435  14.431   5.974
 4795POPC   C1A61263  12.786  14.354   6.317
 4795POPC   D2A61264  12.520  14.415   6.737
 4795POPC   C3A61265  12.728  14.605   7.132
 4795POPC   C4A61266  12.895  14.664   7.572
 4795POPC   C1B61267  12.472  14.773   6.329
 4795POPC   C2B61268  12.476  14.949   6.785
 4795POPC   C3B61269  12.293  14.868   7.189
 4795POPC   C4B61270  12.393  14.828   7.593
 4796POPC   NC361271  32.807  11.623   5.161
 4796POPC   PO461272  33.205  11.066   5.348
 4796POPC   GL161273  33.049  11.130   5.785
 4796POPC   GL261274  33.312  10.997   5.917
 4796POPC   C1A61275  32.941  11.321   6.233
 4796POPC   D2A61276  33.025  11.606   6.603
 4796POPC   C3A61277  32.935  11.438   7.017
 4796POPC   C4A61278  33.076  11.518   7.416
 4796POPC   C1B61279  33.158  10.880   6.311
 4796POPC   C2B61280  33.188  11.092   6.726
 4796POPC   C3B61281  33.294  10.952   7.157
 4796POPC   C4B61282  33.428  11.171   7.560
 4797POPC   NC361283  11.694  40.894   5.381
 4797POPC   PO461284  12.386  40.781   5.464
 4797POPC   GL161285  12.135  40.907   5.846
 4797POPC   GL261286  11.739  40.926   5.882
 4797POPC   C1A61287  12.349  40.852   6.240
 4797POPC   D2A61288  12.550  40.626   6.554
 4797POPC   C3A61289  12.387  40.755   6.941
 4797POPC   C4A61290  12.199  41.104   7.121
 4797POPC   C1B61291  11.846  40.792   6.281
 4797POPC   C2B61292  11.949  40.919   6.711
 4797POPC   C3B61293  11.713  40.910   7.133
 4797POPC   C4B61294  11.622  40.533   7.446
 4798POPC   NC361295  16.740  29.583   5.480
 4798POPC   PO461296  16.950  30.202   5.537
 4798POPC   GL161297  16.752  30.016   5.899
 4798POPC   GL261298  16.490  29.724   5.898
 4798POPC   C1A61299  17.008  30.036   6.288
 4798POPC   D2A61300  16.971  29.828   6.689
 4798POPC   C3A61301  16.850  30.190   6.959
 4798POPC   C4A61302  16.786  30.205   7.399
 4798POPC   C1B61303  16.539  29.837   6.353
 4798POPC   C2B61304  16.487  29.875   6.806
 4798POPC   C3B61305  16.723  29.751   7.188
 4798POPC   C4B61306  16.658  29.750   7.651
 4799POPC   NC361307  32.494   7.599   5.326
 4799POPC   PO461308  32.028   7.196   5.337
 4799POPC   GL161309  32.229   7.376   5.711
 4799POPC   GL261310  32.605   7.331   5.759
 4799POPC   C1A61311  32.214   7.532   6.144
 4799POPC   D2A61312  32.172   7.825   6.506
 4799POPC   C3A61313  32.194   7.652   6.936
 4799POPC   C4A61314  32.291   7.251   7.126
 4799POPC   C1B61315  32.731   7.498   6.168
 4799POPC   C2B61316  32.542   7.417   6.571
 4799POPC   C3B61317  32.685   7.535   6.957
 4799POPC   C4B61318  32.654   7.562   7.364
 4800POPC   NC361319  16.351  11.150   5.531
 4800POPC   PO461320  16.927  11.555   5.546
 4800POPC   GL161321  16.705  11.559   5.945
 4800POPC   GL261322  16.520  11.213   6.013
 4800POPC   C1A61323  16.845  11.432   6.359
 4800POPC   D2A61324  16.728  11.057   6.560
 4800POPC   C3A61325  16.591  11.178   6.950
 4800POPC   C4A61326  16.843  11.350   7.214
 4800POPC   C1B61327  16.318  11.509   6.296
 4800POPC   C2B61328  16.477  11.627   6.701
 4800POPC   C3B61329  16.484  11.712   7.141
 4800POPC   C4B61330  16.352  11.383   7.420
 4801POPC   NC361331  26.661  22.045   5.440
 4801POPC   PO461332  26.953  22.605   5.521
 4801POPC   GL161333  26.910  22.281   5.821
 4801POPC   GL261334  26.995  21.903   5.795
 4801POPC   C1A61335  26.620  22.198   6.131
 4801POPC   D2A61336  26.638  22.102   6.549
 4801POPC   C3A61337  26.530  22.099   6.969
 4801POPC   C4A61338  26.824  22.376   7.165
 4801POPC   C1B61339  26.821  21.738   6.192
 4801POPC   C2B61340  27.003  21.744   6.564
 4801POPC   C3B61341  27.016  21.941   6.931
 4801POPC   C4B61342  26.886  21.879   7.303
 4802POPC   NC361343   4.140   4.718   5.602
 4802POPC   PO461344   3.513   4.577   5.466
 4802POPC   GL161345   3.432   4.907   5.799
 4802POPC   GL261346   3.729   4.790   5.902
 4802POPC   C1A61347   3.584   5.213   6.152
 4802POPC   D2A61348   3.789   5.231   6.563
 4802POPC   C3A61349   3.562   5.252   6.931
 4802POPC   C4A61350   3.418   5.118   7.302
 4802POPC   C1B61351   3.966   4.851   6.271
 4802POPC   C2B61352   3.971   4.700   6.690
 4802POPC   C3B61353   3.833   4.846   7.088
 4802POPC   C4B61354   3.690   4.742   7.520
 4803POPC   NC361355  12.940  19.721   5.329
 4803POPC   PO461356  12.502  20.249   5.308
 4803POPC   GL161357  12.702  20.097   5.692
 4803POPC   GL261358  12.522  19.787   5.696
 4803POPC   C1A61359  12.922  20.093   6.127
 4803POPC   D2A61360  12.845  20.079   6.605
 4803POPC   C3A61361  13.090  19.790   6.885
 4803POPC   C4A61362  13.301  19.445   7.120
 4803POPC   C1B61363  12.431  19.911   6.135
 4803POPC   C2B61364  12.421  19.743   6.567
 4803POPC   C3B61365  12.558  19.774   6.990
 4803POPC   C4B61366  12.479  19.793   7.445
 4804POPC   NC361367  22.561   2.499   5.463
 4804POPC   PO461368  22.965   3.032   5.454
 4804POPC   GL161369  22.907   2.770   5.807
 4804POPC   GL261370  23.057   2.441   5.804
 4804POPC   C1A61371  23.142   2.863   6.183
 4804POPC   D2A61372  23.046   2.785   6.608
 4804POPC   C3A61373  23.081   3.073   6.924
 4804POPC   C4A61374  22.765   3.091   7.230
 4804POPC   C1B61375  22.916   2.391   6.245
 4804POPC   C2B61376  22.602   2.506   6.565
 4804POPC   C3B61377  22.671   2.655   6.954
 4804POPC   C4B61378  22.847   2.440   7.257
 4805POPC   NC361379  38.882   1.623   5.758
 4805POPC   PO461380  38.562   2.082   5.372
 4805POPC   GL161381  38.485   1.935   5.819
 4805POPC   GL261382  38.234   1.683   5.892
 4805POPC   C1A61383  38.523   2.020   6.281
 4805POPC   D2A61384  38.375   2.279   6.664
 4805POPC   C3A61385  38.506   2.063   7.074
 4805POPC   C4A61386  38.676   1.742   7.366
 4805POPC   C1B61387  38.149   1.623   6.294
 4805POPC   C2B61388  38.316   1.750   6.684
 4805POPC   C3B61389  38.272   1.578   7.086
 4805POPC   C4B61390  37.906   1.597   7.334
 4806POPC   NC361391   6.019  34.298   5.409
 4806POPC   PO461392   5.379  34.539   5.630
 4806POPC   GL161393   5.753  34.458   5.862
 4806POPC   GL261394   6.104  34.555   5.838
 4806POPC   C1A61395   5.770  34.447   6.286
 4806POPC   D2A61396   5.819  34.765   6.590
 4806POPC   C3A61397   5.623  34.719   6.972
 4806POPC   C4A61398   5.864  34.694   7.324
 4806POPC   C1B61399   6.204  34.692   6.245
 4806POPC   C2B61400   6.235  34.425   6.598
 4806POPC   C3B61401   5.961  34.346   6.933
 4806POPC   C4B61402   5.950  34.186   7.351
 4807POPC   NC361403  31.227  21.688   5.326
 4807POPC   PO461404  31.838  21.832   5.580
 4807POPC   GL161405  31.502  21.644   5.804
 4807POPC   GL261406  31.372  21.357   5.731
 4807POPC   C1A61407  31.468  21.489   6.226
 4807POPC   D2A61408  31.417  21.354   6.658
 4807POPC   C3A61409  31.427  21.548   7.090
 4807POPC   C4A61410  31.587  21.430   7.489
 4807POPC   C1B61411  31.089  21.188   6.062
 4807POPC   C2B61412  30.972  21.171   6.494
 4807POPC   C3B61413  31.080  21.107   6.948
 4807POPC   C4B61414  30.837  20.900   7.222
 4808POPC   NC361415  24.207  10.944   5.547
 4808POPC   PO461416  24.476  11.517   5.261
 4808POPC   GL161417  24.710  11.473   5.689
 4808POPC   GL261418  24.402  11.561   5.823
 4808POPC   C1A61419  24.695  11.331   6.166
 4808POPC   D2A61420  24.617  11.223   6.608
 4808POPC   C3A61421  24.605  11.073   7.036
 4808POPC   C4A61422  24.255  11.268   7.209
 4808POPC   C1B61423  24.382  11.744   6.243
 4808POPC   C2B61424  24.552  11.740   6.643
 4808POPC   C3B61425  24.721  11.568   6.999
 4808POPC   C4B61426  24.459  11.730   7.247
 4809POPC   NC361427  22.732  13.073   5.325
 4809POPC   PO461428  23.340  12.790   5.333
 4809POPC   GL161429  23.058  12.828   5.713
 4809POPC   GL261430  22.738  12.618   5.649
 4809POPC   C1A61431  23.166  12.917   6.187
 4809POPC   D2A61432  23.037  12.716   6.586
 4809POPC   C3A61433  23.110  12.942   6.970
 4809POPC   C4A61434  22.955  13.230   7.281
 4809POPC   C1B61435  22.662  12.812   6.070
 4809POPC   C2B61436  22.527  12.872   6.497
 4809POPC   C3B61437  22.634  12.819   6.901
 4809POPC   C4B61438  22.526  12.954   7.316
 4810POPC   NC361439  44.465  29.920   5.431
 4810POPC   PO461440   0.091  30.031   5.275
 4810POPC   GL161441  44.872  30.012   5.742
 4810POPC   GL261442  44.579  29.806   5.893
 4810POPC   C1A61443  44.850  30.243   6.167
 4810POPC   D2A61444  44.841  30.095   6.608
 4810POPC   C3A61445  44.476  30.137   6.876
 4810POPC   C4A61446  44.637  30.060   7.270
 4810POPC   C1B61447  44.486  29.877   6.305
 4810POPC   C2B61448  44.556  29.668   6.679
 4810POPC   C3B61449  44.322  29.656   7.044
 4810POPC   C4B61450  44.379  29.664   7.475
 4811POPC   NC361451  43.848  39.720   5.442
 4811POPC   PO461452  44.190  40.268   5.511
 4811POPC   GL161453  43.937  40.105   5.867
 4811POPC   GL261454  43.831  39.769   5.944
 4811POPC   C1A61455  43.806  40.170   6.304
 4811POPC   D2A61456  43.764  39.992   6.739
 4811POPC   C3A61457  44.024  40.031   7.113
 4811POPC   C4A61458  43.772  40.174   7.472
 4811POPC   C1B61459  43.853  39.636   6.375
 4811POPC   C2B61460  43.909  39.496   6.795
 4811POPC   C3B61461  43.689  39.651   7.164
 4811POPC   C4B61462  43.880  39.713   7.601
 4812POPC   NC361463  18.408  35.673   5.085
 4812POPC   PO461464  17.902  35.388   5.359
 4812POPC   GL161465  18.083  35.313   5.815
 4812POPC   GL261466  18.456  35.319   5.814
 4812POPC   C1A61467  18.047  35.501   6.274
 4812POPC   D2A61468  18.153  35.351   6.680
 4812POPC   C3A61469  18.198  35.473   7.102
 4812POPC   C4A61470  18.282  35.090   7.295
 4812POPC   C1B61471  18.439  35.200   6.221
 4812POPC   C2B61472  18.673  35.335   6.539
 4812POPC   C3B61473  18.595  35.191   6.902
 4812POPC   C4B61474  18.750  35.264   7.257
 4813POPC   NC361475   2.944   7.775   5.422
 4813POPC   PO461476   2.606   7.211   5.563
 4813POPC   GL161477   2.938   7.386   5.775
 4813POPC   GL261478   2.687   7.654   5.856
 4813POPC   C1A61479   3.149   7.405   6.164
 4813POPC   D2A61480   3.054   7.593   6.538
 4813POPC   C3A61481   3.157   7.418   6.938
 4813POPC   C4A61482   3.085   7.622   7.305
 4813POPC   C1B61483   2.641   7.393   6.228
 4813POPC   C2B61484   2.511   7.434   6.647
 4813POPC   C3B61485   2.653   7.501   7.051
 4813POPC   C4B61486   2.791   7.201   7.331
 4814POPC   NC361487  14.326  32.468   5.572
 4814POPC   PO461488  14.936  32.054   5.552
 4814POPC   GL161489  14.632  32.076   5.892
 4814POPC   GL261490  14.278  32.134   5.942
 4814POPC   C1A61491  14.602  32.405   6.232
 4814POPC   D2A61492  14.848  32.482   6.574
 4814POPC   C3A61493  14.681  32.562   6.923
 4814POPC   C4A61494  14.404  32.426   7.228
 4814POPC   C1B61495  14.376  31.952   6.329
 4814POPC   C2B61496  14.362  32.223   6.655
 4814POPC   C3B61497  14.079  32.196   6.917
 4814POPC   C4B61498  14.128  32.013   7.318
 4815POPC   NC361499   9.500  11.387   5.468
 4815POPC   PO461500  10.227  11.449   5.401
 4815POPC   GL161501  10.003  11.286   5.783
 4815POPC   GL261502   9.700  11.508   5.919
 4815POPC   C1A61503  10.018  11.291   6.239
 4815POPC   D2A61504   9.853  11.524   6.548
 4815POPC   C3A61505   9.934  11.335   6.926
 4815POPC   C4A61506  10.089  11.074   7.214
 4815POPC   C1B61507   9.386  11.551   6.273
 4815POPC   C2B61508   9.269  11.504   6.722
 4815POPC   C3B61509   9.478  11.405   7.121
 4815POPC   C4B61510   9.431  11.447   7.587
 4816POPC   NC361511  15.059  19.222   5.454
 4816POPC   PO461512  15.624  18.914   5.462
 4816POPC   GL161513  15.304  18.924   5.823
 4816POPC   GL261514  15.228  19.282   5.920
 4816POPC   C1A61515  15.140  18.925   6.290
 4816POPC   D2A61516  15.280  19.056   6.734
 4816POPC   C3A61517  15.152  18.939   7.170
 4816POPC   C4A61518  15.338  18.869   7.588
 4816POPC   C1B61519  15.341  19.571   6.222
 4816POPC   C2B61520  15.492  19.565   6.622
 4816POPC   C3B61521  15.315  19.554   7.037
 4816POPC   C4B61522  15.263  19.348   7.443
 4817POPC   NC361523  37.663  41.160   4.980
 4817POPC   PO461524  37.993  40.685   5.392
 4817POPC   GL161525  37.757  40.643   5.791
 4817POPC   GL261526  37.646  40.968   5.826
 4817POPC   C1A61527  37.580  40.703   6.250
 4817POPC   D2A61528  37.501  40.955   6.588
 4817POPC   C3A61529  37.610  40.845   6.993
 4817POPC   C4A61530  37.265  41.087   7.141
 4817POPC   C1B61531  37.997  40.962   6.157
 4817POPC   C2B61532  38.021  40.872   6.571
 4817POPC   C3B61533  38.115  41.085   6.935
 4817POPC   C4B61534  37.991  40.944   7.330
 4818POPC   NC361535  35.903   9.787   5.360
 4818POPC   PO461536  36.506   9.990   5.421
 4818POPC   GL161537  36.178  10.070   5.719
 4818POPC   GL261538  36.363   9.786   5.878
 4818POPC   C1A61539  35.890   9.873   6.035
 4818POPC   D2A61540  35.981   9.630   6.386
 4818POPC   C3A61541  35.847   9.789   6.764
 4818POPC   C4A61542  36.103   9.724   7.087
 4818POPC   C1B61543  36.374   9.964   6.298
 4818POPC   C2B61544  36.522   9.969   6.754
 4818POPC   C3B61545  36.528   9.960   7.244
 4818POPC   C4B61546  36.523   9.870   7.717
 4819POPC   NC361547  17.930  37.187   5.489
 4819POPC   PO461548  17.463  36.650   5.441
 4819POPC   GL161549  17.644  36.840   5.748
 4819POPC   GL261550  17.930  36.682   5.640
 4819POPC   C1A61551  17.586  36.934   6.183
 4819POPC   D2A61552  17.383  36.748   6.569
 4819POPC   C3A61553  17.559  37.025   6.878
 4819POPC   C4A61554  17.645  37.235   7.262
 4819POPC   C1B61555  17.915  36.543   6.081
 4819POPC   C2B61556  17.892  36.668   6.505
 4819POPC   C3B61557  17.740  36.530   6.896
 4819POPC   C4B61558  17.825  36.748   7.248
 4820POPC   NC361559  27.218  21.185   5.519
 4820POPC   PO461560  26.818  21.642   5.287
 4820POPC   GL161561  26.741  21.343   5.671
 4820POPC   GL261562  27.012  21.394   5.907
 4820POPC   C1A61563  26.597  21.233   6.127
 4820POPC   D2A61564  26.739  21.293   6.553
 4820POPC   C3A61565  26.503  21.233   6.938
 4820POPC   C4A61566  26.479  21.561   7.254
 4820POPC   C1B61567  27.237  21.317   6.282
 4820POPC   C2B61568  27.224  21.316   6.710
 4820POPC   C3B61569  26.955  21.441   7.027
 4820POPC   C4B61570  26.931  21.374   7.461
 4821POPC   NC361571  11.277  10.944   5.309
 4821POPC   PO461572  11.362  11.625   5.331
 4821POPC   GL161573  11.435  11.476   5.747
 4821POPC   GL261574  11.113  11.291   5.723
 4821POPC   C1A61575  11.496  11.334   6.189
 4821POPC   D2A61576  11.302  11.265   6.622
 4821POPC   C3A61577  11.510  11.403   7.018
 4821POPC   C4A61578  11.612  11.726   7.342
 4821POPC   C1B61579  11.037  11.052   6.139
 4821POPC   C2B61580  11.119  10.792   6.532
 4821POPC   C3B61581  11.030  10.853   6.994
 4821POPC   C4B61582  11.171  11.169   7.324
 4822POPC   NC361583   9.140  14.132   5.150
 4822POPC   PO461584   9.038  13.443   5.327
 4822POPC   GL161585   9.052  13.620   5.761
 4822POPC   GL261586   8.874  13.900   5.722
 4822POPC   C1A61587   9.137  13.526   6.215
 4822POPC   D2A61588   8.995  13.285   6.594
 4822POPC   C3A61589   8.993  13.494   6.994
 4822POPC   C4A61590   8.906  13.576   7.441
 4822POPC   C1B61591   8.840  13.974   6.187
 4822POPC   C2B61592   8.762  13.803   6.623
 4822POPC   C3B61593   8.683  13.892   7.065
 4822POPC   C4B61594   8.921  14.085   7.384
 4823POPC   NC361595   3.757  28.197   5.432
 4823POPC   PO461596   3.552  28.851   5.528
 4823POPC   GL161597   3.569  28.518   5.823
 4823POPC   GL261598   3.366  28.197   5.765
 4823POPC   C1A61599   3.499  28.545   6.274
 4823POPC   D2A61600   3.202  28.640   6.610
 4823POPC   C3A61601   3.327  28.484   7.019
 4823POPC   C4A61602   3.733  28.511   7.247
 4823POPC   C1B61603   3.655  28.089   6.090
 4823POPC   C2B61604   3.825  28.066   6.481
 4823POPC   C3B61605   3.727  28.188   6.861
 4823POPC   C4B61606   3.602  28.024   7.256
 4824POPC   NC361607   4.940  19.904   5.403
 4824POPC   PO461608   5.430  19.771   5.851
 4824POPC   GL161609   5.059  19.950   5.926
 4824POPC   GL261610   4.899  19.642   5.838
 4824POPC   C1A61611   5.141  20.084   6.350
 4824POPC   D2A61612   4.994  20.024   6.733
 4824POPC   C3A61613   5.190  19.817   7.049
 4824POPC   C4A61614   4.883  19.887   7.338
 4824POPC   C1B61615   4.885  19.425   6.222
 4824POPC   C2B61616   4.976  19.540   6.631
 4824POPC   C3B61617   4.787  19.496   7.020
 4824POPC   C4B61618   4.533  19.496   7.381
 4825POPC   NC361619  17.268  14.418   5.276
 4825POPC   PO461620  17.859  14.613   5.446
 4825POPC   GL161621  17.585  14.463   5.743
 4825POPC   GL261622  17.624  14.771   5.919
 4825POPC   C1A61623  17.689  14.239   6.129
 4825POPC   D2A61624  17.503  14.151   6.539
 4825POPC   C3A61625  17.421  14.313   6.954
 4825POPC   C4A61626  17.198  14.305   7.347
 4825POPC   C1B61627  17.649  14.683   6.371
 4825POPC   C2B61628  17.625  14.928   6.759
 4825POPC   C3B61629  17.382  14.799   7.119
 4825POPC   C4B61630  17.497  14.690   7.517
 4826POPC   NC361631  13.445   8.346   5.627
 4826POPC   PO461632  13.909   7.956   5.391
 4826POPC   GL161633  13.827   8.067   5.786
 4826POPC   GL261634  13.504   7.969   5.952
 4826POPC   C1A61635  13.969   8.323   6.071
 4826POPC   D2A61636  14.069   8.234   6.468
 4826POPC   C3A61637  13.815   8.312   6.803
 4826POPC   C4A61638  13.820   8.381   7.234
 4826POPC   C1B61639  13.536   8.261   6.331
 4826POPC   C2B61640  13.313   8.375   6.717
 4826POPC   C3B61641  13.414   8.088   7.052
 4826POPC   C4B61642  13.308   7.697   7.107
 4827POPC   NC361643  22.939  36.287   5.375
 4827POPC   PO461644  22.860  35.598   5.270
 4827POPC   GL161645  22.743  35.899   5.658
 4827POPC   GL261646  23.043  36.047   5.830
 4827POPC   C1A61647  22.694  35.915   6.140
 4827POPC   D2A61648  22.970  35.980   6.479
 4827POPC   C3A61649  22.842  36.082   6.902
 4827POPC   C4A61650  22.891  35.856   7.289
 4827POPC   C1B61651  22.904  36.402   6.075
 4827POPC   C2B61652  22.946  36.500   6.521
 4827POPC   C3B61653  23.136  36.526   6.928
 4827POPC   C4B61654  23.182  36.269   7.276
 4828POPC   NC361655   7.486  11.636   5.511
 4828POPC   PO461656   7.334  12.280   5.378
 4828POPC   GL161657   7.333  12.064   5.787
 4828POPC   GL261658   7.641  11.944   5.917
 4828POPC   C1A61659   7.143  11.947   6.193
 4828POPC   D2A61660   7.028  12.136   6.610
 4828POPC   C3A61661   7.359  12.134   6.914
 4828POPC   C4A61662   7.650  12.296   7.201
 4828POPC   C1B61663   7.601  11.817   6.359
 4828POPC   C2B61664   7.527  11.689   6.765
 4828POPC   C3B61665   7.192  11.607   7.038
 4828POPC   C4B61666   6.946  11.948   7.158
 4829POPC   NC361667  24.039   1.967   5.320
 4829POPC   PO461668  23.465   2.258   5.533
 4829POPC   GL161669  23.666   1.927   5.812
 4829POPC   GL261670  23.984   1.850   5.796
 4829POPC   C1A61671  23.580   1.725   6.203
 4829POPC   D2A61672  23.335   1.907   6.554
 4829POPC   C3A61673  23.570   2.022   6.922
 4829POPC   C4A61674  23.733   1.690   7.186
 4829POPC   C1B61675  24.045   2.035   6.156
 4829POPC   C2B61676  23.888   2.034   6.516
 4829POPC   C3B61677  24.078   1.956   6.898
 4829POPC   C4B61678  24.114   2.042   7.285
 4830POPC   NC361679  32.040  15.789   5.473
 4830POPC   PO461680  32.496  16.155   5.556
 4830POPC   GL161681  32.296  15.976   5.892
 4830POPC   GL261682  31.937  16.067   5.896
 4830POPC   C1A61683  32.440  15.842   6.271
 4830POPC   D2A61684  32.284  15.650   6.607
 4830POPC   C3A61685  32.356  15.857   6.982
 4830POPC   C4A61686  32.649  15.996   7.300
 4830POPC   C1B61687  31.941  15.693   6.170
 4830POPC   C2B61688  31.787  15.585   6.579
 4830POPC   C3B61689  31.947  15.534   7.029
 4830POPC   C4B61690  32.156  15.676   7.427
 4831POPC   NC361691  41.687  43.576   5.543
 4831POPC   PO461692  41.271  44.078   5.519
 4831POPC   GL161693  41.624  44.027   5.777
 4831POPC   GL261694  41.385  43.770   5.944
 4831POPC   C1A61695  41.839  43.825   6.125
 4831POPC   D2A61696  41.550  43.676   6.440
 4831POPC   C3A61697  41.719  43.497   6.787
 4831POPC   C4A61698  41.791  43.775   7.157
 4831POPC   C1B61699  41.358  44.137   6.220
 4831POPC   C2B61700  41.325  44.270   6.654
 4831POPC   C3B61701  41.420  44.153   7.092
 4831POPC   C4B61702  41.262  43.937   7.458
 4832POPC   NC361703  35.399  15.768   5.247
 4832POPC   PO461704  34.818  15.997   5.550
 4832POPC   GL161705  35.170  16.057   5.802
 4832POPC   GL261706  35.088  15.775   5.973
 4832POPC   C1A61707  35.387  16.131   6.205
 4832POPC   D2A61708  35.598  16.018   6.585
 4832POPC   C3A61709  35.423  16.016   6.993
 4832POPC   C4A61710  35.408  16.396   7.191
 4832POPC   C1B61711  34.941  15.640   6.362
 4832POPC   C2B61712  35.094  15.603   6.748
 4832POPC   C3B61713  34.993  15.711   7.124
 4832POPC   C4B61714  34.802  15.870   7.450
 4833POPC   NC361715   8.695   4.697   5.058
 4833POPC   PO461716   8.214   5.008   5.117
 4833POPC   GL161717   8.295   5.157   5.649
 4833POPC   GL261718   8.209   4.884   5.891
 4833POPC   C1A61719   8.305   5.292   6.131
 4833POPC   D2A61720   8.316   4.957   6.485
 4833POPC   C3A61721   8.262   5.131   6.897
 4833POPC   C4A61722   8.260   5.458   7.198
 4833POPC   C1B61723   7.981   4.672   6.178
 4833POPC   C2B61724   7.831   4.727   6.575
 4833POPC   C3B61725   8.008   4.684   6.992
 4833POPC   C4B61726   7.961   5.015   7.286
 4834POPC   NC361727  40.473  32.777   5.525
 4834POPC   PO461728  39.854  32.903   5.419
 4834POPC   GL161729  40.022  33.089   5.794
 4834POPC   GL261730  40.280  32.904   5.957
 4834POPC   C1A61731  40.059  33.295   6.188
 4834POPC   D2A61732  40.083  33.111   6.555
 4834POPC   C3A61733  40.234  33.314   6.917
 4834POPC   C4A61734  39.981  33.274   7.273
 4834POPC   C1B61735  39.954  32.738   6.178
 4834POPC   C2B61736  40.047  32.591   6.562
 4834POPC   C3B61737  40.225  32.780   6.909
 4834POPC   C4B61738  39.995  32.777   7.282
 4835POPC   NC361739  10.261  30.769   5.418
 4835POPC   PO461740  10.683  30.223   5.255
 4835POPC   GL161741  10.646  30.458   5.702
 4835POPC   GL261742  10.332  30.573   5.898
 4835POPC   C1A61743  10.756  30.481   6.187
 4835POPC   D2A61744  10.798  30.323   6.642
 4835POPC   C3A61745  10.712  30.487   7.042
 4835POPC   C4A61746  10.276  30.667   7.186
 4835POPC   C1B61747  10.460  30.880   6.250
 4835POPC   C2B61748  10.445  30.776   6.698
 4835POPC   C3B61749  10.665  30.975   7.060
 4835POPC   C4B61750  10.659  30.815   7.481
 4836POPC   NC361751  41.480  34.937   5.475
 4836POPC   PO461752  41.936  34.408   5.450
 4836POPC   GL161753  41.767  34.616   5.786
 4836POPC   GL261754  41.568  34.369   5.882
 4836POPC   C1A61755  41.707  34.743   6.221
 4836POPC   D2A61756  41.477  34.648   6.614
 4836POPC   C3A61757  41.572  34.897   7.007
 4836POPC   C4A61758  41.781  34.816   7.400
 4836POPC   C1B61759  41.465  34.264   6.255
 4836POPC   C2B61760  41.461  34.089   6.608
 4836POPC   C3B61761  41.346  34.105   6.993
 4836POPC   C4B61762  41.568  34.401   7.190
 4837POPC   NC361763  29.375  25.128   5.512
 4837POPC   PO461764  28.975  24.669   5.334
 4837POPC   GL161765  28.969  25.038   5.782
 4837POPC   GL261766  29.313  25.162   5.998
 4837POPC   C1A61767  28.922  25.106   6.277
 4837POPC   D2A61768  29.202  25.241   6.662
 4837POPC   C3A61769  29.020  25.173   7.092
 4837POPC   C4A61770  28.929  25.089   7.532
 4837POPC   C1B61771  29.334  25.550   6.271
 4837POPC   C2B61772  29.426  25.705   6.697
 4837POPC   C3B61773  29.314  25.602   7.133
 4837POPC   C4B61774  29.378  25.649   7.606
 4838POPC   NC361775  11.115   8.565   5.405
 4838POPC   PO461776  11.182   7.952   5.264
 4838POPC   GL161777  11.310   8.149   5.701
 4838POPC   GL261778  11.527   8.468   5.724
 4838POPC   C1A61779  11.179   8.180   6.164
 4838POPC   D2A61780  10.991   7.965   6.531
 4838POPC   C3A61781  11.087   8.167   6.915
 4838POPC   C4A61782  11.340   8.062   7.272
 4838POPC   C1B61783  11.629   8.426   6.161
 4838POPC   C2B61784  11.497   8.283   6.590
 4838POPC   C3B61785  11.519   8.477   7.015
 4838POPC   C4B61786  11.693   8.388   7.425
 4839POPC   NC361787   2.693  41.935   5.317
 4839POPC   PO461788   2.532  41.254   5.532
 4839POPC   GL161789   2.717  41.593   5.773
 4839POPC   GL261790   2.510  41.909   5.784
 4839POPC   C1A61791   2.827  41.491   6.209
 4839POPC   D2A61792   2.744  41.229   6.581
 4839POPC   C3A61793   2.690  41.466   6.985
 4839POPC   C4A61794   2.813  41.384   7.393
 4839POPC   C1B61795   2.392  41.923   6.210
 4839POPC   C2B61796   2.589  41.815   6.610
 4839POPC   C3B61797   2.556  41.997   7.039
 4839POPC   C4B61798   2.512  41.781   7.450
 4840POPC   NC361799  28.538  43.722   5.162
 4840POPC   PO461800  28.176  44.042   5.650
 4840POPC   GL161801  28.360  43.833   5.963
 4840POPC   GL261802  28.035  43.740   6.042
 4840POPC   C1A61803  28.490  43.807   6.384
 4840POPC   D2A61804  28.617  43.855   6.784
 4840POPC   C3A61805  28.707  43.799   7.210
 4840POPC   C4A61806  28.701  44.097   7.579
 4840POPC   C1B61807  27.951  44.045   6.315
 4840POPC   C2B61808  28.060  43.820   6.653
 4840POPC   C3B61809  28.131  43.959   6.999
 4840POPC   C4B61810  28.258  43.951   7.342
 4841POPC   NC361811   0.286  11.638   5.387
 4841POPC   PO461812   0.462  11.013   5.295
 4841POPC   GL161813   0.556  11.242   5.733
 4841POPC   GL261814   0.306  11.397   5.852
 4841POPC   C1A61815   0.651  11.340   6.224
 4841POPC   D2A61816   0.545  11.120   6.628
 4841POPC   C3A61817   0.669  11.160   7.080
 4841POPC   C4A61818   0.530  11.330   7.488
 4841POPC   C1B61819   0.170  11.574   6.257
 4841POPC   C2B61820   0.431  11.624   6.629
 4841POPC   C3B61821   0.401  11.617   7.063
 4841POPC   C4B61822   0.114  11.753   7.361
 4842POPC   NC361823   6.868   4.113   5.438
 4842POPC   PO461824   6.287   4.535   5.416
 4842POPC   GL161825   6.441   4.345   5.774
 4842POPC   GL261826   6.297   4.061   5.927
 4842POPC   C1A61827   6.527   4.523   6.174
 4842POPC   D2A61828   6.459   4.584   6.604
 4842POPC   C3A61829   6.820   4.590   6.886
 4842POPC   C4A61830   6.804   4.694   7.347
 4842POPC   C1B61831   6.714   4.045   6.120
 4842POPC   C2B61832   6.794   4.170   6.544
 4842POPC   C3B61833   6.565   4.140   6.917
 4842POPC   C4B61834   6.818   4.178   7.246
 4843POPC   NC361835   0.202  24.235   5.332
 4843POPC   PO461836   0.569  24.753   5.381
 4843POPC   GL161837   0.644  24.690   5.816
 4843POPC   GL261838   0.938  24.903   5.803
 4843POPC   C1A61839   0.372  24.512   6.187
 4843POPC   D2A61840   0.132  24.636   6.601
 4843POPC   C3A61841   0.123  24.363   6.941
 4843POPC   C4A61842   0.377  24.183   7.206
 4843POPC   C1B61843   0.772  24.973   6.230
 4843POPC   C2B61844   0.575  24.933   6.637
 4843POPC   C3B61845   0.595  24.730   7.052
 4843POPC   C4B61846   0.904  24.814   7.414
 4844POPC   NC361847   3.061  40.181   5.414
 4844POPC   PO461848   2.464  40.276   5.729
 4844POPC   GL161849   2.866  40.167   5.922
 4844POPC   GL261850   3.137  39.921   5.845
 4844POPC   C1A61851   2.900  40.224   6.361
 4844POPC   D2A61852   2.536  40.171   6.638
 4844POPC   C3A61853   2.444  40.331   7.051
 4844POPC   C4A61854   2.556  40.185   7.453
 4844POPC   C1B61855   2.945  39.730   6.210
 4844POPC   C2B61856   2.953  39.830   6.663
 4844POPC   C3B61857   2.802  39.947   7.041
 4844POPC   C4B61858   2.841  39.761   7.419
 4845POPC   NC361859   1.382  42.905   5.499
 4845POPC   PO461860   0.863  43.078   5.197
 4845POPC   GL161861   0.945  43.110   5.675
 4845POPC   GL261862   0.966  42.805   5.862
 4845POPC   C1A61863   1.067  43.283   6.132
 4845POPC   D2A61864   1.413  43.330   6.477
 4845POPC   C3A61865   1.305  43.474   6.907
 4845POPC   C4A61866   1.177  43.356   7.322
 4845POPC   C1B61867   1.302  42.834   6.207
 4845POPC   C2B61868   1.246  42.881   6.660
 4845POPC   C3B61869   1.408  42.955   7.109
 4845POPC   C4B61870   1.336  42.957   7.586
 4846POPC   NC361871  15.503  37.087   5.465
 4846POPC   PO461872  15.294  37.777   5.323
 4846POPC   GL161873  15.103  37.917   5.727
 4846POPC   GL261874  15.320  37.648   5.852
 4846POPC   C1A61875  15.040  37.878   6.208
 4846POPC   D2A61876  14.807  37.726   6.613
 4846POPC   C3A61877  14.996  37.846   6.988
 4846POPC   C4A61878  15.365  37.867   7.255
 4846POPC   C1B61879  15.471  37.555   6.274
 4846POPC   C2B61880  15.319  37.550   6.709
 4846POPC   C3B61881  15.258  37.337   7.101
 4846POPC   C4B61882  15.168  37.156   7.517
 4847POPC   NC361883  31.136  37.590   5.194
 4847POPC   PO461884  31.688  37.341   5.479
 4847POPC   GL161885  31.321  37.473   5.740
 4847POPC   GL261886  31.542  37.713   5.930
 4847POPC   C1A61887  31.179  37.500   6.200
 4847POPC   D2A61888  31.553  37.530   6.490
 4847POPC   C3A61889  31.488  37.482   6.912
 4847POPC   C4A61890  31.688  37.553   7.284
 4847POPC   C1B61891  31.363  37.981   6.296
 4847POPC   C2B61892  31.216  37.866   6.713
 4847POPC   C3B61893  31.349  37.917   7.146
 4847POPC   C4B61894  31.487  37.902   7.593
 4848POPC   NC361895  44.611  38.118   5.542
 4848POPC   PO461896  44.723  38.808   5.523
 4848POPC   GL161897  44.601  38.626   5.915
 4848POPC   GL261898  44.444  38.316   5.994
 4848POPC   C1A61899  44.703  38.674   6.346
 4848POPC   D2A61900  44.973  38.827   6.693
 4848POPC   C3A61901  44.791  38.695   7.068
 4848POPC   C4A61902  44.662  38.542   7.443
 4848POPC   C1B61903  44.835  38.207   6.231
 4848POPC   C2B61904  44.776  38.273   6.688
 4848POPC   C3B61905  44.899  38.042   7.086
 4848POPC   C4B61906  44.876  38.070   7.533
 4849POPC   NC361907  18.865  18.720   5.196
 4849POPC   PO461908  18.779  18.128   5.509
 4849POPC   GL161909  18.972  18.077   5.899
 4849POPC   GL261910  19.212  18.306   5.751
 4849POPC   C1A61911  18.822  18.081   6.335
 4849POPC   D2A61912  18.714  18.165   6.782
 4849POPC   C3A61913  18.966  18.173   7.151
 4849POPC   C4A61914  18.823  18.168   7.613
 4849POPC   C1B61915  19.264  18.409   6.183
 4849POPC   C2B61916  19.091  18.440   6.586
 4849POPC   C3B61917  18.948  18.626   6.939
 4849POPC   C4B61918  19.373  18.508   7.116
 4850POPC   NC361919  21.417  40.516   5.344
 4850POPC   PO461920  21.565  41.069   5.746
 4850POPC   GL161921  21.489  40.748   5.959
 4850POPC   GL261922  21.207  40.635   5.799
 4850POPC   C1A61923  21.499  40.765   6.391
 4850POPC   D2A61924  21.826  40.671   6.639
 4850POPC   C3A61925  21.611  40.675   7.007
 4850POPC   C4A61926  21.518  41.062   7.150
 4850POPC   C1B61927  21.159  40.408   6.195
 4850POPC   C2B61928  21.025  40.537   6.601
 4850POPC   C3B61929  21.142  40.894   6.825
 4850POPC   C4B61930  21.013  40.992   7.227
 4851POPC   NC361931  37.913  15.790   5.489
 4851POPC   PO461932  37.254  15.935   5.373
 4851POPC   GL161933  37.520  15.989   5.762
 4851POPC   GL261934  37.884  16.152   5.839
 4851POPC   C1A61935  37.557  15.838   6.191
 4851POPC   D2A61936  37.646  15.988   6.616
 4851POPC   C3A61937  37.470  15.835   6.992
 4851POPC   C4A61938  37.535  15.478   7.269
 4851POPC   C1B61939  38.010  16.103   6.256
 4851POPC   C2B61940  38.160  16.069   6.680
 4851POPC   C3B61941  37.920  16.086   7.063
 4851POPC   C4B61942  37.950  16.053   7.519
 4852POPC   NC361943  39.295  10.908   5.322
 4852POPC   PO461944  39.246  10.231   5.356
 4852POPC   GL161945  39.475  10.502   5.665
 4852POPC   GL261946  39.554  10.279   5.934
 4852POPC   C1A61947  39.400  10.748   6.085
 4852POPC   D2A61948  39.336  10.733   6.565
 4852POPC   C3A61949  39.068  10.883   6.934
 4852POPC   C4A61950  39.117  10.707   7.382
 4852POPC   C1B61951  39.403  10.249   6.382
 4852POPC   C2B61952  39.352  10.083   6.822
 4852POPC   C3B61953  39.298  10.203   7.260
 4852POPC   C4B61954  39.092  10.246   7.664
 4853POPC   NC361955   3.038  16.950   5.272
 4853POPC   PO461956   3.268  17.503   5.384
 4853POPC   GL161957   3.451  17.450   5.767
 4853POPC   GL261958   3.744  17.648   5.710
 4853POPC   C1A61959   3.250  17.484   6.157
 4853POPC   D2A61960   3.164  17.263   6.528
 4853POPC   C3A61961   3.216  17.480   6.898
 4853POPC   C4A61962   3.210  17.499   7.339
 4853POPC   C1B61963   3.859  17.501   6.124
 4853POPC   C2B61964   3.656  17.490   6.544
 4853POPC   C3B61965   3.703  17.546   6.989
 4853POPC   C4B61966   3.929  17.347   7.303
 4854POPC   NC361967  29.435  24.516   5.380
 4854POPC   PO461968  28.839  24.572   5.817
 4854POPC   GL161969  29.269  24.615   5.882
 4854POPC   GL261970  29.370  24.265   5.810
 4854POPC   C1A61971  29.340  24.738   6.325
 4854POPC   D2A61972  29.026  24.762   6.650
 4854POPC   C3A61973  29.149  24.670   7.049
 4854POPC   C4A61974  28.843  24.609   7.356
 4854POPC   C1B61975  29.276  24.188   6.250
 4854POPC   C2B61976  29.189  24.262   6.689
 4854POPC   C3B61977  29.070  24.160   7.137
 4854POPC   C4B61978  29.144  24.250   7.569
 4855POPC   NC361979  39.859  26.843   5.535
 4855POPC   PO461980  40.450  26.500   5.553
 4855POPC   GL161981  40.181  26.657   5.926
 4855POPC   GL261982  40.220  27.000   5.876
 4855POPC   C1A61983  39.839  26.888   6.233
 4855POPC   D2A61984  39.672  27.168   6.605
 4855POPC   C3A61985  39.779  27.046   7.032
 4855POPC   C4A61986  39.972  26.624   7.159
 4855POPC   C1B61987  40.298  27.144   6.281
 4855POPC   C2B61988  40.248  27.152   6.743
 4855POPC   C3B61989  40.279  27.023   7.190
 4855POPC   C4B61990  40.390  26.679   7.496
 4856POPC   NC361991  44.201  30.567   5.623
 4856POPC   PO461992  43.621  30.914   5.564
 4856POPC   GL161993  43.799  30.756   5.883
 4856POPC   GL261994  44.074  31.003   5.896
 4856POPC   C1A61995  43.833  30.417   6.184
 4856POPC   D2A61996  44.127  30.327   6.532
 4856POPC   C3A61997  43.962  30.520   6.915
 4856POPC   C4A61998  43.688  30.394   7.258
 4856POPC   C1B61999  43.999  30.888   6.329
 4856POPC   C2B62000  44.227  31.005   6.669
 4856POPC   C3B62001  44.183  30.963   7.079
 4856POPC   C4B62002  44.287  30.581   7.310
 4857POPC   NC362003  31.612  14.588   5.212
 4857POPC   PO462004  31.170  14.152   5.318
 4857POPC   GL162005  31.341  14.268   5.741
 4857POPC   GL262006  31.312  14.637   5.691
 4857POPC   C1A62007  31.644  14.231   6.153
 4857POPC   D2A62008  31.888  14.184   6.577
 4857POPC   C3A62009  31.758  14.303   7.003
 4857POPC   C4A62010  31.428  14.298   7.299
 4857POPC   C1B62011  31.409  14.694   6.153
 4857POPC   C2B62012  31.504  14.561   6.599
 4857POPC   C3B62013  31.414  14.725   7.005
 4857POPC   C4B62014  31.473  14.992   7.327
 4858POPC   NC362015  27.423  22.679   5.474
 4858POPC   PO462016  28.121  22.562   5.474
 4858POPC   GL162017  27.843  22.806   5.840
 4858POPC   GL262018  27.508  22.774   5.944
 4858POPC   C1A62019  27.791  22.903   6.339
 4858POPC   D2A62020  27.733  22.571   6.684
 4858POPC   C3A62021  27.613  22.748   7.073
 4858POPC   C4A62022  27.651  23.126   7.255
 4858POPC   C1B62023  27.344  22.653   6.321
 4858POPC   C2B62024  27.270  22.862   6.725
 4858POPC   C3B62025  27.116  22.793   7.127
 4858POPC   C4B62026  27.201  22.515   7.489
 4859POPC   NC362027   5.821  16.477   5.589
 4859POPC   PO462028   6.222  16.913   5.425
 4859POPC   GL162029   5.872  16.982   5.727
 4859POPC   GL262030   6.136  16.925   5.954
 4859POPC   C1A62031   5.628  16.883   6.107
 4859POPC   D2A62032   5.696  16.570   6.444
 4859POPC   C3A62033   5.648  16.722   6.855
 4859POPC   C4A62034   5.855  16.670   7.271
 4859POPC   C1B62035   6.060  16.957   6.397
 4859POPC   C2B62036   6.152  16.695   6.737
 4859POPC   C3B62037   6.337  16.744   7.112
 4859POPC   C4B62038   6.281  16.716   7.582
 4860POPC   NC362039  22.403  34.599   5.210
 4860POPC   PO462040  21.979  35.137   5.371
 4860POPC   GL162041  22.015  34.866   5.781
 4860POPC   GL262042  22.255  34.593   5.822
 4860POPC   C1A62043  22.034  34.795   6.254
 4860POPC   D2A62044  22.155  34.951   6.673
 4860POPC   C3A62045  22.205  34.775   7.067
 4860POPC   C4A62046  21.909  34.606   7.371
 4860POPC   C1B62047  22.288  34.314   6.192
 4860POPC   C2B62048  22.278  34.440   6.639
 4860POPC   C3B62049  22.183  34.259   7.068
 4860POPC   C4B62050  22.192  34.221   7.551
 4861POPC   NC362051  13.865  25.699   5.444
 4861POPC   PO462052  14.153  26.328   5.493
 4861POPC   GL162053  13.881  26.054   5.814
 4861POPC   GL262054  13.519  25.891   5.816
 4861POPC   C1A62055  13.777  26.039   6.242
 4861POPC   D2A62056  13.525  26.251   6.547
 4861POPC   C3A62057  13.745  26.223   6.926
 4861POPC   C4A62058  13.882  25.951   7.219
 4861POPC   C1B62059  13.336  25.775   6.247
 4861POPC   C2B62060  13.347  25.805   6.713
 4861POPC   C3B62061  13.293  26.024   7.121
 4861POPC   C4B62062  13.505  26.200   7.500
 4862POPC   NC362063  39.188  38.565   5.508
 4862POPC   PO462064  39.556  38.012   5.585
 4862POPC   GL162065  39.315  38.262   5.886
 4862POPC   GL262066  39.393  38.628   5.965
 4862POPC   C1A62067  38.977  38.344   6.143
 4862POPC   D2A62068  38.752  38.414   6.501
 4862POPC   C3A62069  38.938  38.410   6.909
 4862POPC   C4A62070  38.967  38.617   7.271
 4862POPC   C1B62071  39.507  38.415   6.362
 4862POPC   C2B62072  39.541  38.366   6.812
 4862POPC   C3B62073  39.464  38.468   7.234
 4862POPC   C4B62074  39.481  38.747   7.582
 4863POPC   NC362075   3.130  12.354   5.508
 4863POPC   PO462076   3.446  11.641   5.389
 4863POPC   GL162077   3.366  11.867   5.812
 4863POPC   GL262078   3.508  12.222   5.831
 4863POPC   C1A62079   3.439  11.947   6.264
 4863POPC   D2A62080   3.651  11.814   6.668
 4863POPC   C3A62081   3.452  11.845   7.093
 4863POPC   C4A62082   3.164  11.912   7.449
 4863POPC   C1B62083   3.288  12.488   6.149
 4863POPC   C2B62084   3.358  12.536   6.585
 4863POPC   C3B62085   3.573  12.336   6.918
 4863POPC   C4B62086   3.492  12.327   7.332
 4864POPC   NC362087  15.998  12.516   5.377
 4864POPC   PO462088  15.670  13.128   5.312
 4864POPC   GL162089  15.814  12.920   5.668
 4864POPC   GL262090  15.687  12.599   5.768
 4864POPC   C1A62091  16.146  12.913   5.983
 4864POPC   D2A62092  16.286  13.009   6.415
 4864POPC   C3A62093  16.184  12.744   6.784
 4864POPC   C4A62094  16.309  12.639   7.200
 4864POPC   C1B62095  15.670  12.804   6.161
 4864POPC   C2B62096  15.740  12.631   6.553
 4864POPC   C3B62097  15.716  12.598   6.982
 4864POPC   C4B62098  15.847  12.971   7.151
 4865POPC   NC362099  21.445   8.819   5.118
 4865POPC   PO462100  21.768   9.328   5.399
 4865POPC   GL162101  21.567   8.960   5.594
 4865POPC   GL262102  21.264   8.922   5.647
 4865POPC   C1A62103  21.604   8.828   6.039
 4865POPC   D2A62104  21.445   9.057   6.417
 4865POPC   C3A62105  21.523   8.934   6.811
 4865POPC   C4A62106  21.441   8.791   7.205
 4865POPC   C1B62107  21.105   8.787   6.072
 4865POPC   C2B62108  20.918   8.930   6.435
 4865POPC   C3B62109  21.025   8.991   6.859
 4865POPC   C4B62110  20.937   8.690   7.199
 4866POPC   NC362111  44.892  37.316   5.436
 4866POPC   PO462112  44.709  36.670   5.281
 4866POPC   GL162113  44.689  36.803   5.704
 4866POPC   GL262114   0.055  36.872   5.690
 4866POPC   C1A62115  44.511  37.012   6.116
 4866POPC   D2A62116  44.577  37.272   6.538
 4866POPC   C3A62117  44.401  37.138   6.954
 4866POPC   C4A62118  44.338  36.749   7.223
 4866POPC   C1B62119  44.966  36.778   6.140
 4866POPC   C2B62120  44.688  36.713   6.519
 4866POPC   C3B62121  44.795  36.841   6.939
 4866POPC   C4B62122  44.820  36.642   7.331
 4867POPC   NC362123  15.625  37.990   5.561
 4867POPC   PO462124  15.964  37.328   5.426
 4867POPC   GL162125  15.853  37.571   5.772
 4867POPC   GL262126  15.702  37.306   5.888
 4867POPC   C1A62127  15.897  37.848   6.147
 4867POPC   D2A62128  16.048  37.997   6.533
 4867POPC   C3A62129  15.816  37.948   6.940
 4867POPC   C4A62130  15.851  37.823   7.391
 4867POPC   C1B62131  15.951  37.346   6.261
 4867POPC   C2B62132  15.827  37.514   6.649
 4867POPC   C3B62133  15.749  37.461   7.077
 4867POPC   C4B62134  15.598  37.395   7.502
 4868POPC   NC362135  34.906   9.864   5.341
 4868POPC   PO462136  34.243   9.857   5.159
 4868POPC   GL162137  34.480   9.803   5.649
 4868POPC   GL262138  34.648   9.476   5.818
 4868POPC   C1A62139  34.528   9.847   6.155
 4868POPC   D2A62140  34.299   9.802   6.558
 4868POPC   C3A62141  34.365   9.546   6.934
 4868POPC   C4A62142  34.552   9.763   7.282
 4868POPC   C1B62143  34.820   9.445   6.272
 4868POPC   C2B62144  34.820   9.660   6.682
 4868POPC   C3B62145  34.987   9.549   7.092
 4868POPC   C4B62146  34.888   9.400   7.496
 4869POPC   NC362147   6.331  31.096   5.317
 4869POPC   PO462148   6.490  30.458   5.497
 4869POPC   GL162149   6.831  30.598   5.798
 4869POPC   GL262150   6.927  30.969   5.722
 4869POPC   C1A62151   6.715  30.528   6.229
 4869POPC   D2A62152   6.384  30.443   6.495
 4869POPC   C3A62153   6.535  30.562   6.914
 4869POPC   C4A62154   6.660  30.306   7.250
 4869POPC   C1B62155   6.622  31.010   6.066
 4869POPC   C2B62156   6.713  31.036   6.501
 4869POPC   C3B62157   6.793  31.028   6.941
 4869POPC   C4B62158   6.826  30.788   7.327
 4870POPC   NC362159  10.859   5.857   5.403
 4870POPC   PO462160  11.516   5.616   5.496
 4870POPC   GL162161  11.335   5.795   5.890
 4870POPC   GL262162  11.601   5.960   6.041
 4870POPC   C1A62163  11.158   5.976   6.310
 4870POPC   D2A62164  11.295   6.135   6.748
 4870POPC   C3A62165  11.101   5.928   7.118
 4870POPC   C4A62166  11.158   5.687   7.510
 4870POPC   C1B62167  11.639   5.852   6.447
 4870POPC   C2B62168  11.778   5.806   6.841
 4870POPC   C3B62169  11.602   6.039   7.189
 4870POPC   C4B62170  11.787   6.310   7.549
 4871POPC   NC362171  43.495   6.337   5.512
 4871POPC   PO462172  43.067   5.944   5.285
 4871POPC   GL162173  42.921   5.944   5.722
 4871POPC   GL262174  43.192   6.093   5.878
 4871POPC   C1A62175  42.884   5.723   6.151
 4871POPC   D2A62176  42.725   5.555   6.570
 4871POPC   C3A62177  43.025   5.653   6.917
 4871POPC   C4A62178  43.134   5.833   7.318
 4871POPC   C1B62179  43.341   6.336   6.250
 4871POPC   C2B62180  43.423   6.233   6.684
 4871POPC   C3B62181  43.550   6.106   7.105
 4871POPC   C4B62182  43.350   6.286   7.474
 4872POPC   NC362183  16.787  14.958   5.281
 4872POPC   PO462184  16.829  14.305   5.322
 4872POPC   GL162185  17.065  14.358   5.734
 4872POPC   GL262186  17.130  14.730   5.678
 4872POPC   C1A62187  17.139  14.203   6.183
 4872POPC   D2A62188  16.879  14.269   6.585
 4872POPC   C3A62189  16.842  14.069   7.013
 4872POPC   C4A62190  16.514  13.970   7.374
 4872POPC   C1B62191  17.169  14.720   6.148
 4872POPC   C2B62192  17.203  14.661   6.621
 4872POPC   C3B62193  16.941  14.587   6.999
 4872POPC   C4B62194  16.646  14.456   7.315
 4873POPC   NC362195  40.323   0.664   5.309
 4873POPC   PO462196  40.003   0.057   5.473
 4873POPC   GL162197  39.980   0.364   5.792
 4873POPC   GL262198  39.688   0.603   5.809
 4873POPC   C1A62199  39.909   0.274   6.222
 4873POPC   D2A62200  40.034   0.103   6.587
 4873POPC   C3A62201  39.926   0.224   6.968
 4873POPC   C4A62202  40.191   0.347   7.256
 4873POPC   C1B62203  40.047   0.764   6.099
 4873POPC   C2B62204  40.205   0.933   6.502
 4873POPC   C3B62205  40.142   0.678   6.850
 4873POPC   C4B62206  39.858   0.731   7.193
 4874POPC   NC362207  12.603  44.312   5.296
 4874POPC   PO462208  12.650  43.662   5.418
 4874POPC   GL162209  12.948  43.801   5.777
 4874POPC   GL262210  13.085  44.137   5.661
 4874POPC   C1A62211  13.005  43.736   6.259
 4874POPC   D2A62212  12.823  43.639   6.672
 4874POPC   C3A62213  12.944  43.845   7.039
 4874POPC   C4A62214  12.605  43.885   7.325
 4874POPC   C1B62215  13.144  44.207   6.149
 4874POPC   C2B62216  13.197  44.116   6.640
 4874POPC   C3B62217  13.168  44.322   7.073
 4874POPC   C4B62218  13.087  44.100   7.494
 4875POPC   NC362219  25.635  27.845   5.212
 4875POPC   PO462220  25.065  27.700   5.472
 4875POPC   GL162221  25.249  27.778   5.873
 4875POPC   GL262222  25.564  27.710   5.712
 4875POPC   C1A62223  25.271  27.659   6.341
 4875POPC   D2A62224  25.132  27.777   6.763
 4875POPC   C3A62225  25.110  27.480   7.113
 4875POPC   C4A62226  25.328  27.718   7.362
 4875POPC   C1B62227  25.630  27.408   6.056
 4875POPC   C2B62228  25.711  27.367   6.494
 4875POPC   C3B62229  25.557  27.442   6.874
 4875POPC   C4B62230  25.701  27.383   7.253
 4876POPC   NC362231  40.294  13.810   5.592
 4876POPC   PO462232  39.946  13.258   5.511
 4876POPC   GL162233  39.975  13.454   5.900
 4876POPC   GL262234  39.900  13.814   5.922
 4876POPC   C1A62235  39.708  13.494   6.242
 4876POPC   D2A62236  39.741  13.737   6.545
 4876POPC   C3A62237  39.865  13.584   6.902
 4876POPC   C4A62238  39.776  13.437   7.276
 4876POPC   C1B62239  40.117  13.939   6.282
 4876POPC   C2B62240  40.281  13.803   6.691
 4876POPC   C3B62241  40.243  14.062   7.072
 4876POPC   C4B62242  39.938  14.003   7.419
 4877POPC   NC362243  41.530   8.303   5.194
 4877POPC   PO462244  41.913   8.597   5.692
 4877POPC   GL162245  41.679   8.245   5.787
 4877POPC   GL262246  41.371   8.339   5.687
 4877POPC   C1A62247  41.687   8.162   6.226
 4877POPC   D2A62248  41.827   8.230   6.628
 4877POPC   C3A62249  41.475   8.283   6.865
 4877POPC   C4A62250  41.502   8.275   7.249
 4877POPC   C1B62251  41.305   8.546   6.073
 4877POPC   C2B62252  41.114   8.521   6.489
 4877POPC   C3B62253  41.193   8.704   6.892
 4877POPC   C4B62254  41.100   8.574   7.293
 4878POPC   NC362255  19.382  12.127   5.131
 4878POPC   PO462256  18.914  11.796   5.532
 4878POPC   GL162257  19.065  12.152   5.775
 4878POPC   GL262258  18.783  12.311   5.940
 4878POPC   C1A62259  19.209  12.211   6.199
 4878POPC   D2A62260  19.163  11.935   6.527
 4878POPC   C3A62261  19.337  12.083   6.863
 4878POPC   C4A62262  19.194  12.418   7.129
 4878POPC   C1B62263  18.742  11.939   6.186
 4878POPC   C2B62264  18.657  11.956   6.615
 4878POPC   C3B62265  18.835  12.082   6.985
 4878POPC   C4B62266  19.067  11.922   7.334
 4879POPC   NC362267  37.423  38.225   5.514
 4879POPC   PO462268  37.652  38.829   5.423
 4879POPC   GL162269  37.738  38.581   5.805
 4879POPC   GL262270  37.529  38.371   5.980
 4879POPC   C1A62271  37.729  38.777   6.204
 4879POPC   D2A62272  37.444  38.640   6.515
 4879POPC   C3A62273  37.490  38.592   6.919
 4879POPC   C4A62274  37.481  38.284   7.197
 4879POPC   C1B62275  37.887  38.308   6.275
 4879POPC   C2B62276  37.943  38.563   6.650
 4879POPC   C3B62277  37.974  38.390   7.054
 4879POPC   C4B62278  37.903  37.983   7.196
 4880POPC   NC362279  43.688   0.806   5.496
 4880POPC   PO462280  44.062   1.314   5.308
 4880POPC   GL162281  44.007   1.405   5.759
 4880POPC   GL262282  43.710   1.588   5.887
 4880POPC   C1A62283  43.954   1.213   6.169
 4880POPC   D2A62284  44.156   1.109   6.554
 4880POPC   C3A62285  43.946   0.874   6.877
 4880POPC   C4A62286  43.996   1.108   7.246
 4880POPC   C1B62287  43.490   1.468   6.254
 4880POPC   C2B62288  43.648   1.247   6.617
 4880POPC   C3B62289  43.556   1.249   7.048
 4880POPC   C4B62290  43.476   1.610   7.336
 4881POPC   NC362291  34.737   6.971   5.375
 4881POPC   PO462292  34.265   6.597   5.311
 4881POPC   GL162293  34.472   6.486   5.722
 4881POPC   GL262294  34.673   6.776   5.858
 4881POPC   C1A62295  34.448   6.440   6.196
 4881POPC   D2A62296  34.541   6.785   6.512
 4881POPC   C3A62297  34.415   6.585   6.869
 4881POPC   C4A62298  34.367   6.717   7.255
 4881POPC   C1B62299  34.929   6.628   6.221
 4881POPC   C2B62300  34.923   6.487   6.693
 4881POPC   C3B62301  34.852   6.721   7.114
 4881POPC   C4B62302  34.909   6.771   7.594
 4882POPC   NC362303  39.550  21.126   5.445
 4882POPC   PO462304  38.868  20.986   5.426
 4882POPC   GL162305  39.163  21.073   5.816
 4882POPC   GL262306  39.324  21.421   5.810
 4882POPC   C1A62307  39.189  21.196   6.281
 4882POPC   D2A62308  39.054  21.500   6.620
 4882POPC   C3A62309  39.221  21.442   7.038
 4882POPC   C4A62310  39.307  21.064   7.242
 4882POPC   C1B62311  39.556  21.599   6.159
 4882POPC   C2B62312  39.575  21.589   6.612
 4882POPC   C3B62313  39.713  21.661   7.043
 4882POPC   C4B62314  39.586  21.499   7.463
 4883POPC   NC362315  25.769  10.416   5.204
 4883POPC   PO462316  26.381  10.288   5.413
 4883POPC   GL162317  26.044  10.459   5.681
 4883POPC   GL262318  26.096  10.834   5.688
 4883POPC   C1A62319  25.937  10.459   6.133
 4883POPC   D2A62320  26.084  10.581   6.564
 4883POPC   C3A62321  25.889  10.362   6.919
 4883POPC   C4A62322  25.750  10.285   7.356
 4883POPC   C1B62323  25.925  10.978   6.091
 4883POPC   C2B62324  25.791  11.023   6.532
 4883POPC   C3B62325  25.976  10.948   6.938
 4883POPC   C4B62326  26.134  10.676   7.250
 4884POPC   NC362327  20.766   4.887   5.248
 4884POPC   PO462328  20.199   5.237   5.144
 4884POPC   GL162329  20.377   5.104   5.621
 4884POPC   GL262330  20.753   4.957   5.739
 4884POPC   C1A62331  20.469   5.122   6.104
 4884POPC   D2A62332  20.711   5.101   6.496
 4884POPC   C3A62333  20.581   5.296   6.870
 4884POPC   C4A62334  20.305   5.344   7.222
 4884POPC   C1B62335  20.938   4.809   6.153
 4884POPC   C2B62336  20.951   4.602   6.554
 4884POPC   C3B62337  20.817   4.823   6.930
 4884POPC   C4B62338  20.707   5.029   7.290
 4885POPC   NC362339  39.544  23.635   5.432
 4885POPC   PO462340  40.134  23.909   5.302
 4885POPC   GL162341  40.009  23.759   5.709
 4885POPC   GL262342  39.825  24.032   5.803
 4885POPC   C1A62343  39.991  23.548   6.129
 4885POPC   D2A62344  40.301  23.554   6.474
 4885POPC   C3A62345  40.220  23.829   6.831
 4885POPC   C4A62346  40.282  23.717   7.264
 4885POPC   C1B62347  39.820  24.031   6.254
 4885POPC   C2B62348  39.735  23.745   6.618
 4885POPC   C3B62349  39.791  23.583   7.055
 4885POPC   C4B62350  39.803  23.829   7.421
 4886POPC   NC362351  24.084  28.615   5.591
 4886POPC   PO462352  24.444  28.091   5.495
 4886POPC   GL162353  24.510  28.356   5.858
 4886POPC   GL262354  24.751  28.619   5.763
 4886POPC   C1A62355  24.391  28.420   6.309
 4886POPC   D2A62356  24.246  28.407   6.752
 4886POPC   C3A62357  24.505  28.150   7.071
 4886POPC   C4A62358  24.942  28.029   7.187
 4886POPC   C1B62359  24.839  28.622   6.212
 4886POPC   C2B62360  24.641  28.748   6.631
 4886POPC   C3B62361  24.593  28.644   7.056
 4886POPC   C4B62362  24.555  28.527   7.498
 4887POPC   NC362363  27.940  21.863   5.780
 4887POPC   PO462364  27.503  22.171   5.310
 4887POPC   GL162365  27.698  22.318   5.712
 4887POPC   GL262366  27.455  22.126   5.902
 4887POPC   C1A62367  27.796  22.389   6.183
 4887POPC   D2A62368  27.886  22.029   6.477
 4887POPC   C3A62369  27.886  22.052   6.950
 4887POPC   C4A62370  27.810  22.322   7.300
 4887POPC   C1B62371  27.139  22.167   6.260
 4887POPC   C2B62372  27.077  22.373   6.661
 4887POPC   C3B62373  27.347  22.335   6.992
 4887POPC   C4B62374  27.373  22.061   7.300
 4888POPC   NC362375  28.611  13.178   5.118
 4888POPC   PO462376  28.238  13.566   5.527
 4888POPC   GL162377  28.228  13.716   5.878
 4888POPC   GL262378  28.595  13.763   5.874
 4888POPC   C1A62379  28.032  13.540   6.239
 4888POPC   D2A62380  28.133  13.728   6.623
 4888POPC   C3A62381  28.105  13.531   6.974
 4888POPC   C4A62382  28.019  13.653   7.355
 4888POPC   C1B62383  28.534  13.673   6.311
 4888POPC   C2B62384  28.586  13.544   6.747
 4888POPC   C3B62385  28.518  13.807   7.095
 4888POPC   C4B62386  28.756  13.854   7.445
 4889POPC   NC362387  10.682  22.304   5.536
 4889POPC   PO462388  11.400  22.216   5.400
 4889POPC   GL162389  11.280  22.230   5.845
 4889POPC   GL262390  10.967  22.051   5.909
 4889POPC   C1A62391  11.262  22.199   6.317
 4889POPC   D2A62392  11.271  22.019   6.731
 4889POPC   C3A62393  11.299  22.341   7.062
 4889POPC   C4A62394  11.602  22.543   7.341
 4889POPC   C1B62395  10.820  21.876   6.311
 4889POPC   C2B62396  10.783  21.778   6.758
 4889POPC   C3B62397  10.910  22.013   7.114
 4889POPC   C4B62398  11.004  22.018   7.558
 4890POPC   NC362399  27.171  28.138   5.536
 4890POPC   PO462400  27.534  27.543   5.295
 4890POPC   GL162401  27.441  27.689   5.689
 4890POPC   GL262402  27.089  27.699   5.803
 4890POPC   C1A62403  27.551  27.603   6.120
 4890POPC   D2A62404  27.571  27.364   6.505
 4890POPC   C3A62405  27.470  27.569   6.902
 4890POPC   C4A62406  27.533  27.542   7.343
 4890POPC   C1B62407  27.098  27.762   6.268
 4890POPC   C2B62408  27.129  27.956   6.687
 4890POPC   C3B62409  27.029  27.783   7.113
 4890POPC   C4B62410  27.196  27.840   7.556
 4891POPC   NC362411  40.073  38.100   5.518
 4891POPC   PO462412  40.320  38.721   5.657
 4891POPC   GL162413  40.148  38.425   5.924
 4891POPC   GL262414  39.819  38.358   5.894
 4891POPC   C1A62415  40.040  38.306   6.339
 4891POPC   D2A62416  39.990  38.560   6.656
 4891POPC   C3A62417  40.003  38.373   7.059
 4891POPC   C4A62418  40.348  38.334   7.329
 4891POPC   C1B62419  39.839  38.773   6.166
 4891POPC   C2B62420  39.729  39.000   6.572
 4891POPC   C3B62421  39.746  38.831   7.005
 4891POPC   C4B62422  39.958  38.760   7.413
 4892POPC   NC362423   1.727   4.507   5.303
 4892POPC   PO462424   2.160   3.999   5.378
 4892POPC   GL162425   2.064   4.325   5.672
 4892POPC   GL262426   1.752   4.214   5.751
 4892POPC   C1A62427   2.054   4.493   6.097
 4892POPC   D2A62428   2.104   4.247   6.475
 4892POPC   C3A62429   1.961   4.443   6.811
 4892POPC   C4A62430   2.160   4.339   7.188
 4892POPC   C1B62431   1.759   4.043   6.151
 4892POPC   C2B62432   1.590   4.138   6.553
 4892POPC   C3B62433   1.710   4.035   6.954
 4892POPC   C4B62434   1.510   4.168   7.292
 4893POPC   NC362435  41.637  16.577   5.380
 4893POPC   PO462436  41.127  17.039   5.385
 4893POPC   GL162437  41.427  16.905   5.734
 4893POPC   GL262438  41.412  16.542   5.821
 4893POPC   C1A62439  41.662  16.891   6.141
 4893POPC   D2A62440  41.679  17.022   6.581
 4893POPC   C3A62441  41.410  16.862   6.909
 4893POPC   C4A62442  41.534  16.846   7.324
 4893POPC   C1B62443  41.393  16.471   6.247
 4893POPC   C2B62444  41.517  16.225   6.565
 4893POPC   C3B62445  41.628  16.377   6.956
 4893POPC   C4B62446  41.356  16.392   7.298
 4894POPC   NC362447  18.841  27.251   5.099
 4894POPC   PO462448  19.329  27.590   5.459
 4894POPC   GL162449  19.051  27.742   5.836
 4894POPC   GL262450  19.187  27.461   6.030
 4894POPC   C1A62451  18.770  27.678   6.200
 4894POPC   D2A62452  19.038  27.639   6.537
 4894POPC   C3A62453  19.003  27.730   6.962
 4894POPC   C4A62454  18.722  27.733   7.291
 4894POPC   C1B62455  19.317  27.233   6.384
 4894POPC   C2B62456  19.278  27.292   6.816
 4894POPC   C3B62457  19.038  27.272   7.199
 4894POPC   C4B62458  18.971  27.098   7.647
 4895POPC   NC362459  17.816  36.660   5.115
 4895POPC   PO462460  18.373  37.061   5.386
 4895POPC   GL162461  18.374  36.856   5.788
 4895POPC   GL262462  18.105  37.011   5.984
 4895POPC   C1A62463  18.421  36.670   6.200
 4895POPC   D2A62464  18.336  36.914   6.575
 4895POPC   C3A62465  18.253  36.663   6.908
 4895POPC   C4A62466  18.338  36.759   7.312
 4895POPC   C1B62467  18.474  37.219   6.176
 4895POPC   C2B62468  18.724  37.283   6.588
 4895POPC   C3B62469  18.611  37.103   7.012
 4895POPC   C4B62470  18.547  37.181   7.485
 4896POPC   NC362471  30.518  10.853   5.544
 4896POPC   PO462472  30.741  10.257   5.356
 4896POPC   GL162473  30.841  10.482   5.764
 4896POPC   GL262474  31.004  10.807   5.768
 4896POPC   C1A62475  30.768  10.430   6.216
 4896POPC   D2A62476  30.700  10.304   6.654
 4896POPC   C3A62477  30.884  10.485   7.055
 4896POPC   C4A62478  30.650  10.356   7.417
 4896POPC   C1B62479  30.834  10.942   6.169
 4896POPC   C2B62480  30.791  10.804   6.589
 4896POPC   C3B62481  30.503  10.772   6.913
 4896POPC   C4B62482  30.546  10.905   7.317
 4897POPC   NC362483   6.533  36.820   5.475
 4897POPC   PO462484   6.898  37.412   5.480
 4897POPC   GL162485   6.705  37.161   5.828
 4897POPC   GL262486   6.796  36.784   5.926
 4897POPC   C1A62487   6.542  37.117   6.231
 4897POPC   D2A62488   6.773  37.024   6.581
 4897POPC   C3A62489   6.519  37.086   6.921
 4897POPC   C4A62490   6.435  37.070   7.311
 4897POPC   C1B62491   6.442  36.604   6.202
 4897POPC   C2B62492   6.345  36.714   6.638
 4897POPC   C3B62493   6.461  36.589   7.093
 4897POPC   C4B62494   6.190  36.643   7.480
 4898POPC   NC362495  37.053  42.336   5.488
 4898POPC   PO462496  37.199  43.038   5.593
 4898POPC   GL162497  37.066  42.654   5.908
 4898POPC   GL262498  37.204  42.280   5.959
 4898POPC   C1A62499  36.733  42.381   6.122
 4898POPC   D2A62500  36.602  42.215   6.540
 4898POPC   C3A62501  36.832  42.322   6.887
 4898POPC   C4A62502  36.727  42.295   7.303
 4898POPC   C1B62503  37.123  42.121   6.367
 4898POPC   C2B62504  37.278  42.081   6.804
 4898POPC   C3B62505  37.128  42.019   7.248
 4898POPC   C4B62506  37.163  41.976   7.709
 4899POPC   NC362507  11.100  36.434   5.271
 4899POPC   PO462508  11.501  35.997   5.478
 4899POPC   GL162509  11.281  36.270   5.757
 4899POPC   GL262510  11.594  36.475   5.794
 4899POPC   C1A62511  11.057  36.190   6.173
 4899POPC   D2A62512  10.959  35.826   6.490
 4899POPC   C3A62513  11.089  35.929   6.933
 4899POPC   C4A62514  10.907  36.234   7.234
 4899POPC   C1B62515  11.600  36.128   6.129
 4899POPC   C2B62516  11.444  36.059   6.535
 4899POPC   C3B62517  11.641  36.091   6.921
 4899POPC   C4B62518  11.635  35.999   7.318
 4900POPC   NC362519   3.222  30.081   5.381
 4900POPC   PO462520   3.781  29.817   5.406
 4900POPC   GL162521   3.486  29.791   5.734
 4900POPC   GL262522   3.458  30.095   5.867
 4900POPC   C1A62523   3.400  29.676   6.164
 4900POPC   D2A62524   3.276  29.846   6.566
 4900POPC   C3A62525   3.431  29.728   6.939
 4900POPC   C4A62526   3.394  29.814   7.373
 4900POPC   C1B62527   3.587  30.160   6.296
 4900POPC   C2B62528   3.523  30.277   6.750
 4900POPC   C3B62529   3.656  30.207   7.186
 4900POPC   C4B62530   3.873  30.049   7.574
 4901POPC   NC362531   5.522  44.107   5.590
 4901POPC   PO462532   6.164  44.143   5.486
 4901POPC   GL162533   5.921  43.928   5.839
 4901POPC   GL262534   5.679  43.630   5.767
 4901POPC   C1A62535   5.776  44.088   6.228
 4901POPC   D2A62536   5.521  44.229   6.590
 4901POPC   C3A62537   5.576  44.079   7.006
 4901POPC   C4A62538   5.940  44.107   7.245
 4901POPC   C1B62539   5.707  43.590   6.207
 4901POPC   C2B62540   5.770  43.774   6.633
 4901POPC   C3B62541   5.958  43.636   7.031
 4901POPC   C4B62542   6.397  43.442   7.137
 4902POPC   NC362543  39.554   6.409   5.481
 4902POPC   PO462544  39.177   5.823   5.464
 4902POPC   GL162545  39.289   5.761   5.864
 4902POPC   GL262546  39.481   6.063   5.898
 4902POPC   C1A62547  39.197   5.679   6.274
 4902POPC   D2A62548  38.958   5.959   6.517
 4902POPC   C3A62549  39.231   5.980   6.867
 4902POPC   C4A62550  39.103   5.997   7.320
 4902POPC   C1B62551  39.439   6.131   6.364
 4902POPC   C2B62552  39.462   6.426   6.712
 4902POPC   C3B62553  39.357   6.408   7.120
 4902POPC   C4B62554  39.464   6.335   7.537
 4903POPC   NC362555   8.304  19.080   5.259
 4903POPC   PO462556   7.933  19.380   5.673
 4903POPC   GL162557   8.224  19.028   5.776
 4903POPC   GL262558   8.592  19.077   5.703
 4903POPC   C1A62559   8.291  18.882   6.198
 4903POPC   D2A62560   8.164  19.074   6.603
 4903POPC   C3A62561   8.025  18.851   6.978
 4903POPC   C4A62562   8.354  18.911   7.161
 4903POPC   C1B62563   8.697  19.188   6.153
 4903POPC   C2B62564   8.700  19.084   6.601
 4903POPC   C3B62565   8.543  19.333   6.955
 4903POPC   C4B62566   8.575  19.312   7.406
 4904POPC   NC362567   4.249  44.958   5.370
 4904POPC   PO462568   4.505  44.328   5.463
 4904POPC   GL162569   4.492  44.605   5.805
 4904POPC   GL262570   4.160  44.741   5.821
 4904POPC   C1A62571   4.422  44.490   6.251
 4904POPC   D2A62572   4.223  44.371   6.647
 4904POPC   C3A62573   4.421  44.596   7.007
 4904POPC   C4A62574   4.304  44.745   7.434
 4904POPC   C1B62575   4.296  44.991   6.184
 4904POPC   C2B62576   4.278  44.894   6.626
 4904POPC   C3B62577   4.069   0.014   7.040
 4904POPC   C4B62578   3.824  44.970   7.444
 4905POPC   NC362579  20.211  44.785   5.249
 4905POPC   PO462580  20.791  44.415   5.566
 4905POPC   GL162581  20.872  44.556   5.936
 4905POPC   GL262582  20.778  44.903   5.979
 4905POPC   C1A62583  20.827  44.507   6.353
 4905POPC   D2A62584  20.623  44.753   6.634
 4905POPC   C3A62585  20.610  44.542   7.021
 4905POPC   C4A62586  20.844  44.427   7.374
 4905POPC   C1B62587  20.396  44.996   6.232
 4905POPC   C2B62588  20.161  44.998   6.617
 4905POPC   C3B62589  20.385   0.007   6.995
 4905POPC   C4B62590  20.544  44.886   7.409
 4906POPC   NC362591  11.714  44.719   5.502
 4906POPC   PO462592  12.238  44.584   5.147
 4906POPC   GL162593  12.229  44.570   5.641
 4906POPC   GL262594  11.949  44.406   5.806
 4906POPC   C1A62595  12.342  44.451   6.129
 4906POPC   D2A62596  12.541  44.607   6.502
 4906POPC   C3A62597  12.334  44.635   6.879
 4906POPC   C4A62598  12.386  44.858   7.228
 4906POPC   C1B62599  12.009  44.810   6.058
 4906POPC   C2B62600  12.057  44.845   6.492
 4906POPC   C3B62601  11.936  44.961   6.912
 4906POPC   C4B62602  11.893  44.845   7.350
 4907POPC   NC362603  20.822  38.295   5.426
 4907POPC   PO462604  20.405  38.761   5.406
 4907POPC   GL162605  20.513  38.513   5.783
 4907POPC   GL262606  20.465  38.160   5.784
 4907POPC   C1A62607  20.747  38.383   6.159
 4907POPC   D2A62608  20.848  38.584   6.552
 4907POPC   C3A62609  20.697  38.381   6.888
 4907POPC   C4A62610  20.615  38.270   7.295
 4907POPC   C1B62611  20.290  38.080   6.179
 4907POPC   C2B62612  20.376  37.981   6.593
 4907POPC   C3B62613  20.239  38.123   6.952
 4907POPC   C4B62614  20.207  37.946   7.340
 4908POPC   NC362615  39.659  27.791   5.409
 4908POPC   PO462616  40.232  27.363   5.518
 4908POPC   GL162617  39.896  27.453   5.813
 4908POPC   GL262618  39.875  27.830   5.861
 4908POPC   C1A62619  39.902  27.469   6.267
 4908POPC   D2A62620  40.014  27.666   6.665
 4908POPC   C3A62621  40.087  27.501   7.075
 4908POPC   C4A62622  40.227  27.688   7.457
 4908POPC   C1B62623  39.533  27.825   6.142
 4908POPC   C2B62624  39.488  27.651   6.561
 4908POPC   C3B62625  39.607  27.672   7.005
 4908POPC   C4B62626  39.680  27.844   7.413
 4909POPC   NC362627   5.826  12.157   5.270
 4909POPC   PO462628   6.404  11.941   5.516
 4909POPC   GL162629   6.104  11.951   5.840
 4909POPC   GL262630   5.910  12.275   5.768
 4909POPC   C1A62631   6.165  11.979   6.300
 4909POPC   D2A62632   6.064  11.876   6.732
 4909POPC   C3A62633   6.082  12.281   6.969
 4909POPC   C4A62634   5.865  12.380   7.367
 4909POPC   C1B62635   5.706  12.119   6.129
 4909POPC   C2B62636   5.780  12.285   6.544
 4909POPC   C3B62637   5.554  12.321   6.906
 4909POPC   C4B62638   5.368  12.250   7.278
 4910POPC   NC362639  32.758  15.188   5.122
 4910POPC   PO462640  33.252  15.589   5.464
 4910POPC   GL162641  33.103  15.315   5.791
 4910POPC   GL262642  32.775  15.217   5.655
 4910POPC   C1A62643  33.044  15.111   6.207
 4910POPC   D2A62644  33.176  15.134   6.626
 4910POPC   C3A62645  32.873  15.071   6.936
 4910POPC   C4A62646  32.995  15.194   7.338
 4910POPC   C1B62647  32.656  15.415   6.074
 4910POPC   C2B62648  32.729  15.398   6.563
 4910POPC   C3B62649  32.774  15.561   7.052
 4910POPC   C4B62650  32.746  15.571   7.567
 4911POPC   NC362651  42.962   3.050   5.178
 4911POPC   PO462652  43.345   2.518   5.401
 4911POPC   GL162653  43.307   2.909   5.647
 4911POPC   GL262654  42.927   2.998   5.708
 4911POPC   C1A62655  43.448   2.968   6.090
 4911POPC   D2A62656  43.313   2.789   6.496
 4911POPC   C3A62657  43.419   2.928   6.918
 4911POPC   C4A62658  43.376   2.773   7.344
 4911POPC   C1B62659  43.036   2.661   6.025
 4911POPC   C2B62660  42.854   2.551   6.435
 4911POPC   C3B62661  42.811   2.581   6.892
 4911POPC   C4B62662  42.939   2.507   7.320
 4912POPC   NC362663  42.381  29.478   5.151
 4912POPC   PO462664  42.206  29.069   5.631
 4912POPC   GL162665  42.180  28.995   5.984
 4912POPC   GL262666  41.908  29.272   5.969
 4912POPC   C1A62667  42.303  29.191   6.352
 4912POPC   D2A62668  42.387  29.610   6.539
 4912POPC   C3A62669  42.559  29.537   6.954
 4912POPC   C4A62670  42.385  29.216   7.231
 4912POPC   C1B62671  41.799  28.963   6.284
 4912POPC   C2B62672  42.082  28.756   6.519
 4912POPC   C3B62673  42.118  28.855   6.927
 4912POPC   C4B62674  41.764  28.841   7.178
 4913POPC   NC362675  35.709  36.236   5.342
 4913POPC   PO462676  35.216  35.823   5.612
 4913POPC   GL162677  35.476  36.083   5.878
 4913POPC   GL262678  35.702  36.397   5.845
 4913POPC   C1A62679  35.423  36.051   6.337
 4913POPC   D2A62680  35.634  35.964   6.712
 4913POPC   C3A62681  35.305  35.838   6.970
 4913POPC   C4A62682  35.377  36.066   7.304
 4913POPC   C1B62683  35.386  36.514   6.157
 4913POPC   C2B62684  35.203  36.571   6.534
 4913POPC   C3B62685  35.303  36.377   6.900
 4913POPC   C4B62686  35.275  36.563   7.295
 4914POPC   NC362687  44.470   6.391   5.297
 4914POPC   PO462688   0.170   6.492   5.302
 4914POPC   GL162689  44.811   6.491   5.662
 4914POPC   GL262690  44.510   6.258   5.782
 4914POPC   C1A62691  44.712   6.630   6.085
 4914POPC   D2A62692  44.669   6.761   6.523
 4914POPC   C3A62693  44.814   6.582   6.912
 4914POPC   C4A62694  44.712   6.685   7.363
 4914POPC   C1B62695  44.493   6.192   6.249
 4914POPC   C2B62696  44.325   6.395   6.636
 4914POPC   C3B62697  44.310   6.590   7.053
 4914POPC   C4B62698  44.288   6.412   7.470
 4915POPC   NC362699  16.173  22.476   5.492
 4915POPC   PO462700  15.883  21.826   5.443
 4915POPC   GL162701  16.089  22.043   5.795
 4915POPC   GL262702  15.847  22.256   5.873
 4915POPC   C1A62703  16.362  22.102   6.181
 4915POPC   D2A62704  16.213  22.106   6.621
 4915POPC   C3A62705  16.419  22.145   7.014
 4915POPC   C4A62706  16.253  22.220   7.411
 4915POPC   C1B62707  15.953  22.390   6.256
 4915POPC   C2B62708  15.790  22.430   6.654
 4915POPC   C3B62709  15.644  22.138   6.932
 4915POPC   C4B62710  15.814  21.985   7.289
 4916POPC   NC362711   6.723  18.778   5.415
 4916POPC   PO462712   6.286  19.318   5.453
 4916POPC   GL162713   6.562  19.334   5.822
 4916POPC   GL262714   6.553  18.974   5.851
 4916POPC   C1A62715   6.749  19.243   6.267
 4916POPC   D2A62716   6.617  19.259   6.724
 4916POPC   C3A62717   6.892  19.283   7.120
 4916POPC   C4A62718   6.810  19.251   7.618
 4916POPC   C1B62719   6.783  18.739   6.146
 4916POPC   C2B62720   6.641  18.733   6.561
 4916POPC   C3B62721   6.724  18.818   6.993
 4916POPC   C4B62722   6.786  18.746   7.403
 4917POPC   NC362723  12.786  13.201   5.293
 4917POPC   PO462724  12.706  12.541   5.317
 4917POPC   GL162725  12.732  12.856   5.682
 4917POPC   GL262726  13.083  12.960   5.696
 4917POPC   C1A62727  12.637  12.993   6.128
 4917POPC   D2A62728  12.791  12.962   6.563
 4917POPC   C3A62729  12.563  12.791   6.930
 4917POPC   C4A62730  12.728  12.860   7.360
 4917POPC   C1B62731  13.068  12.693   6.101
 4917POPC   C2B62732  13.144  12.426   6.478
 4917POPC   C3B62733  13.223  12.413   6.939
 4917POPC   C4B62734  13.193  12.745   7.227
 4918POPC   NC362735  38.254  29.574   5.587
 4918POPC   PO462736  38.500  30.217   5.657
 4918POPC   GL162737  38.418  29.899   5.968
 4918POPC   GL262738  38.645  29.625   5.935
 4918POPC   C1A62739  38.463  29.919   6.410
 4918POPC   D2A62740  38.623  30.109   6.791
 4918POPC   C3A62741  38.372  29.915   7.077
 4918POPC   C4A62742  38.069  29.975   7.384
 4918POPC   C1B62743  38.651  29.440   6.339
 4918POPC   C2B62744  38.671  29.587   6.774
 4918POPC   C3B62745  38.582  29.482   7.206
 4918POPC   C4B62746  38.565  29.671   7.656
 4919POPC   NC362747  18.446  23.683   5.380
 4919POPC   PO462748  17.883  23.467   5.647
 4919POPC   GL162749  18.216  23.651   5.861
 4919POPC   GL262750  18.292  23.990   5.803
 4919POPC   C1A62751  18.148  23.704   6.294
 4919POPC   D2A62752  17.938  23.907   6.660
 4919POPC   C3A62753  18.096  23.711   7.054
 4919POPC   C4A62754  17.888  23.576   7.450
 4919POPC   C1B62755  18.536  24.026   6.219
 4919POPC   C2B62756  18.506  23.832   6.664
 4919POPC   C3B62757  18.636  23.865   7.127
 4919POPC   C4B62758  18.801  23.979   7.565
 4920POPC   NC362759   3.976  13.799   5.354
 4920POPC   PO462760   4.031  13.172   5.416
 4920POPC   GL162761   4.242  13.410   5.783
 4920POPC   GL262762   4.203  13.789   5.814
 4920POPC   C1A62763   4.587  13.543   6.115
 4920POPC   D2A62764   4.559  13.774   6.516
 4920POPC   C3A62765   4.499  13.442   6.838
 4920POPC   C4A62766   4.492  13.416   7.297
 4920POPC   C1B62767   4.107  13.673   6.237
 4920POPC   C2B62768   4.053  13.676   6.664
 4920POPC   C3B62769   4.072  13.579   7.071
 4920POPC   C4B62770   4.126  13.780   7.459
 4921POPC   NC362771  12.085   8.545   5.646
 4921POPC   PO462772  12.395   9.029   5.140
 4921POPC   GL162773  12.156   9.087   5.617
 4921POPC   GL262774  11.827   8.967   5.774
 4921POPC   C1A62775  12.253   9.022   6.102
 4921POPC   D2A62776  12.384   8.847   6.528
 4921POPC   C3A62777  12.470   9.083   6.903
 4921POPC   C4A62778  12.260   9.087   7.304
 4921POPC   C1B62779  11.762   9.203   6.122
 4921POPC   C2B62780  11.965   9.215   6.508
 4921POPC   C3B62781  11.944   9.060   6.902
 4921POPC   C4B62782  11.813   9.333   7.236
 4922POPC   NC362783  42.513  11.705   5.324
 4922POPC   PO462784  42.421  11.051   5.302
 4922POPC   GL162785  42.320  11.219   5.735
 4922POPC   GL262786  42.203  11.600   5.729
 4922POPC   C1A62787  42.248  11.140   6.205
 4922POPC   D2A62788  42.445  11.170   6.648
 4922POPC   C3A62789  42.147  11.152   7.006
 4922POPC   C4A62790  42.106  11.404   7.395
 4922POPC   C1B62791  42.389  11.633   6.145
 4922POPC   C2B62792  42.620  11.619   6.525
 4922POPC   C3B62793  42.404  11.605   6.940
 4922POPC   C4B62794  42.561  11.607   7.338
 4923POPC   NC362795   2.196  25.804   5.326
 4923POPC   PO462796   1.811  26.284   5.441
 4923POPC   GL162797   1.991  26.129   5.829
 4923POPC   GL262798   2.165  25.826   5.857
 4923POPC   C1A62799   1.969  26.083   6.285
 4923POPC   D2A62800   1.972  25.843   6.663
 4923POPC   C3A62801   1.808  26.019   7.017
 4923POPC   C4A62802   2.030  26.279   7.304
 4923POPC   C1B62803   2.352  25.732   6.278
 4923POPC   C2B62804   2.421  25.620   6.713
 4923POPC   C3B62805   2.353  25.944   7.037
 4923POPC   C4B62806   2.385  25.964   7.484
 4924POPC   NC362807  10.758  21.312   5.512
 4924POPC   PO462808  10.058  21.458   5.273
 4924POPC   GL162809  10.301  21.457   5.740
 4924POPC   GL262810  10.631  21.577   5.925
 4924POPC   C1A62811  10.288  21.361   6.230
 4924POPC   D2A62812  10.286  21.621   6.639
 4924POPC   C3A62813  10.405  21.519   7.070
 4924POPC   C4A62814  10.519  21.215   7.420
 4924POPC   C1B62815  10.875  21.368   6.216
 4924POPC   C2B62816  10.694  21.284   6.600
 4924POPC   C3B62817  10.853  21.272   6.984
 4924POPC   C4B62818  10.864  21.566   7.315
 4925POPC   NC362819  10.509  25.269   5.249
 4925POPC   PO462820  10.135  25.050   5.779
 4925POPC   GL162821  10.507  25.294   5.866
 4925POPC   GL262822  10.844  25.228   5.747
 4925POPC   C1A62823  10.541  25.380   6.288
 4925POPC   D2A62824  10.402  25.403   6.734
 4925POPC   C3A62825  10.058  25.241   6.962
 4925POPC   C4A62826  10.198  25.288   7.350
 4925POPC   C1B62827  10.744  24.929   6.128
 4925POPC   C2B62828  10.629  24.962   6.581
 4925POPC   C3B62829  10.495  24.974   7.016
 4925POPC   C4B62830  10.637  25.038   7.443
 4926POPC   NC362831   0.072  38.530   5.651
 4926POPC   PO462832   0.622  38.938   5.566
 4926POPC   GL162833   0.442  38.780   5.892
 4926POPC   GL262834   0.557  38.429   5.937
 4926POPC   C1A62835   0.213  38.653   6.266
 4926POPC   D2A62836   0.259  38.307   6.513
 4926POPC   C3A62837   0.208  38.409   6.907
 4926POPC   C4A62838   0.234  38.368   7.317
 4926POPC   C1B62839   0.714  38.725   6.295
 4926POPC   C2B62840   0.559  38.703   6.680
 4926POPC   C3B62841   0.680  38.525   7.073
 4926POPC   C4B62842   0.680  38.722   7.466
 4927POPC   NC362843   8.272  29.298   5.085
 4927POPC   PO462844   7.772  28.952   5.438
 4927POPC   GL162845   8.052  28.877   5.823
 4927POPC   GL262846   7.901  28.638   5.952
 4927POPC   C1A62847   8.232  29.032   6.211
 4927POPC   D2A62848   8.229  29.424   6.437
 4927POPC   C3A62849   8.004  29.425   6.825
 4927POPC   C4A62850   8.281  29.202   7.117
 4927POPC   C1B62851   7.798  28.794   6.364
 4927POPC   C2B62852   7.940  28.911   6.787
 4927POPC   C3B62853   7.956  28.729   7.196
 4927POPC   C4B62854   7.813  28.841   7.619
 4928POPC   NC362855  34.912  34.325   5.546
 4928POPC   PO462856  34.449  34.886   5.399
 4928POPC   GL162857  34.518  34.640   5.847
 4928POPC   GL262858  34.321  34.371   5.934
 4928POPC   C1A62859  34.798  34.590   6.269
 4928POPC   D2A62860  34.907  34.745   6.701
 4928POPC   C3A62861  34.979  34.431   7.057
 4928POPC   C4A62862  34.944  34.173   7.463
 4928POPC   C1B62863  34.307  34.519   6.330
 4928POPC   C2B62864  34.528  34.407   6.703
 4928POPC   C3B62865  34.471  34.505   7.121
 4928POPC   C4B62866  34.109  34.601   7.340
 4929POPC   NC362867  25.599  16.956   5.420
 4929POPC   PO462868  24.986  16.682   5.458
 4929POPC   GL162869  25.173  16.907   5.814
 4929POPC   GL262870  25.492  16.744   5.873
 4929POPC   C1A62871  25.229  16.916   6.282
 4929POPC   D2A62872  25.230  16.604   6.589
 4929POPC   C3A62873  25.120  16.784   6.956
 4929POPC   C4A62874  25.437  16.969   7.215
 4929POPC   C1B62875  25.605  16.528   6.240
 4929POPC   C2B62876  25.683  16.355   6.644
 4929POPC   C3B62877  25.516  16.488   7.017
 4929POPC   C4B62878  25.227  16.450   7.408
 4930POPC   NC362879  41.938  17.529   5.421
 4930POPC   PO462880  42.645  17.313   5.432
 4930POPC   GL162881  42.294  17.382   5.769
 4930POPC   GL262882  42.134  17.725   5.849
 4930POPC   C1A62883  42.247  17.395   6.219
 4930POPC   D2A62884  42.356  17.654   6.578
 4930POPC   C3A62885  42.537  17.540   6.993
 4930POPC   C4A62886  42.470  17.932   7.216
 4930POPC   C1B62887  41.840  17.707   6.180
 4930POPC   C2B62888  41.856  17.510   6.580
 4930POPC   C3B62889  42.034  17.642   6.997
 4930POPC   C4B62890  42.166  17.628   7.447
 4931POPC   NC362891   8.847  18.650   5.476
 4931POPC   PO462892   9.036  19.269   5.475
 4931POPC   GL162893   9.103  19.118   5.866
 4931POPC   GL262894   9.275  18.833   5.821
 4931POPC   C1A62895   9.188  19.086   6.313
 4931POPC   D2A62896   9.404  19.331   6.613
 4931POPC   C3A62897   9.178  19.201   6.963
 4931POPC   C4A62898   8.842  18.951   7.110
 4931POPC   C1B62899   9.310  18.600   6.217
 4931POPC   C2B62900   9.031  18.646   6.567
 4931POPC   C3B62901   9.144  18.586   6.982
 4931POPC   C4B62902   9.359  18.843   7.276
 4932POPC   NC362903  21.041  25.396   5.420
 4932POPC   PO462904  21.634  25.436   5.388
 4932POPC   GL162905  21.407  25.416   5.790
 4932POPC   GL262906  21.198  25.129   5.833
 4932POPC   C1A62907  21.282  25.415   6.261
 4932POPC   D2A62908  21.333  25.594   6.692
 4932POPC   C3A62909  21.316  25.392   7.113
 4932POPC   C4A62910  21.231  25.652   7.492
 4932POPC   C1B62911  21.072  24.946   6.255
 4932POPC   C2B62912  21.254  24.974   6.681
 4932POPC   C3B62913  21.119  24.895   7.102
 4932POPC   C4B62914  21.255  25.018   7.533
 4933POPC   NC362915  20.207  29.565   5.302
 4933POPC   PO462916  19.727  29.965   5.252
 4933POPC   GL162917  19.942  29.872   5.646
 4933POPC   GL262918  19.820  30.158   5.793
 4933POPC   C1A62919  20.011  29.793   6.108
 4933POPC   D2A62920  20.108  29.507   6.459
 4933POPC   C3A62921  20.218  29.678   6.872
 4933POPC   C4A62922  20.096  29.553   7.314
 4933POPC   C1B62923  19.674  30.291   6.182
 4933POPC   C2B62924  19.906  30.279   6.512
 4933POPC   C3B62925  19.818  30.240   6.901
 4933POPC   C4B62926  20.070  30.065   7.190
 4934POPC   NC362927   7.945  36.585   5.223
 4934POPC   PO462928   8.367  37.144   5.131
 4934POPC   GL162929   8.327  36.962   5.559
 4934POPC   GL262930   8.012  37.026   5.682
 4934POPC   C1A62931   8.296  36.658   5.926
 4934POPC   D2A62932   8.195  36.595   6.384
 4934POPC   C3A62933   8.526  36.646   6.721
 4934POPC   C4A62934   8.378  36.728   7.146
 4934POPC   C1B62935   7.979  37.037   6.155
 4934POPC   C2B62936   7.823  37.121   6.625
 4934POPC   C3B62937   7.931  37.070   7.105
 4934POPC   C4B62938   8.251  37.113   7.452
 4935POPC   NC362939  18.841  40.886   5.360
 4935POPC   PO462940  19.213  40.367   5.346
 4935POPC   GL162941  19.062  40.602   5.737
 4935POPC   GL262942  19.275  40.904   5.862
 4935POPC   C1A62943  18.887  40.655   6.176
 4935POPC   D2A62944  19.049  40.570   6.597
 4935POPC   C3A62945  19.131  40.816   6.959
 4935POPC   C4A62946  19.471  40.869   7.265
 4935POPC   C1B62947  19.024  41.184   6.179
 4935POPC   C2B62948  18.857  41.213   6.626
 4935POPC   C3B62949  18.963  41.293   7.086
 4935POPC   C4B62950  18.852  41.211   7.574
 4936POPC   NC362951   9.291   9.937   5.126
 4936POPC   PO462952   8.869   9.434   5.290
 4936POPC   GL162953   8.992   9.653   5.667
 4936POPC   GL262954   9.258   9.893   5.701
 4936POPC   C1A62955   8.926   9.693   6.091
 4936POPC   D2A62956   8.918   9.925   6.469
 4936POPC   C3A62957   8.961   9.657   6.811
 4936POPC   C4A62958   8.924   9.718   7.231
 4936POPC   C1B62959   9.326  10.045   6.149
 4936POPC   C2B62960   9.336  10.173   6.612
 4936POPC   C3B62961   9.354   9.989   7.041
 4936POPC   C4B62962   9.240   9.947   7.554
 4937POPC   NC362963   8.441  18.134   5.236
 4937POPC   PO462964   9.057  18.245   5.459
 4937POPC   GL162965   9.003  18.368   5.890
 4937POPC   GL262966   8.777  18.655   5.988
 4937POPC   C1A62967   8.966  18.187   6.296
 4937POPC   D2A62968   8.837  18.197   6.715
 4937POPC   C3A62969   9.145  18.085   6.989
 4937POPC   C4A62970   8.988  18.063   7.375
 4937POPC   C1B62971   8.548  18.470   6.352
 4937POPC   C2B62972   8.530  18.617   6.780
 4937POPC   C3B62973   8.673  18.464   7.185
 4937POPC   C4B62974   8.586  18.293   7.624
 4938POPC   NC362975  14.715  12.469   5.705
 4938POPC   PO462976  14.572  11.908   5.371
 4938POPC   GL162977  14.505  11.989   5.803
 4938POPC   GL262978  14.155  11.927   5.827
 4938POPC   C1A62979  14.461  12.012   6.259
 4938POPC   D2A62980  14.463  11.695   6.572
 4938POPC   C3A62981  14.458  11.917   6.932
 4938POPC   C4A62982  14.312  12.199   7.269
 4938POPC   C1B62983  14.106  11.665   6.184
 4938POPC   C2B62984  13.948  11.807   6.586
 4938POPC   C3B62985  13.953  11.949   7.011
 4938POPC   C4B62986  14.193  11.687   7.308
 4939POPC   NC362987   7.282   7.659   5.391
 4939POPC   PO462988   7.190   6.970   5.414
 4939POPC   GL162989   7.373   7.112   5.825
 4939POPC   GL262990   7.327   7.459   5.878
 4939POPC   C1A62991   7.348   7.156   6.285
 4939POPC   D2A62992   7.206   7.346   6.658
 4939POPC   C3A62993   7.325   7.167   7.073
 4939POPC   C4A62994   7.677   7.162   7.366
 4939POPC   C1B62995   7.344   7.695   6.281
 4939POPC   C2B62996   7.195   7.868   6.669
 4939POPC   C3B62997   7.296   7.705   7.075
 4939POPC   C4B62998   7.266   7.803   7.501
 4940POPC   NC362999  19.354   4.144   5.553
 4940POPC   PO463000  18.738   4.535   5.522
 4940POPC   GL163001  18.766   4.414   5.944
 4940POPC   GL263002  18.901   4.074   5.869
 4940POPC   C1A63003  19.058   4.364   6.303
 4940POPC   D2A63004  19.236   4.261   6.724
 4940POPC   C3A63005  18.994   4.411   7.087
 4940POPC   C4A63006  18.965   4.759   7.349
 4940POPC   C1B63007  19.140   3.868   6.205
 4940POPC   C2B63008  18.915   3.877   6.595
 4940POPC   C3B63009  19.034   3.893   7.043
 4940POPC   C4B63010  18.992   4.080   7.474
 4941POPC   NC363011  12.065  18.519   5.511
 4941POPC   PO463012  11.741  17.968   5.487
 4941POPC   GL163013  12.044  18.110   5.851
 4941POPC   GL263014  11.999  18.453   6.003
 4941POPC   C1A63015  12.383  18.191   6.212
 4941POPC   D2A63016  12.597  18.211   6.632
 4941POPC   C3A63017  12.306  18.350   6.957
 4941POPC   C4A63018  12.216  18.117   7.327
 4941POPC   C1B63019  11.929  18.696   6.349
 4941POPC   C2B63020  11.802  18.579   6.738
 4941POPC   C3B63021  11.801  18.384   7.118
 4941POPC   C4B63022  12.039  18.596   7.394
 4942POPC   NC363023  30.433  21.556   5.477
 4942POPC   PO463024  30.688  20.959   5.244
 4942POPC   GL163025  30.723  21.175   5.630
 4942POPC   GL263026  30.885  21.457   5.693
 4942POPC   C1A63027  30.578  21.297   6.085
 4942POPC   D2A63028  30.602  21.522   6.483
 4942POPC   C3A63029  30.581  21.237   6.842
 4942POPC   C4A63030  30.575  21.344   7.267
 4942POPC   C1B63031  30.949  21.718   6.060
 4942POPC   C2B63032  31.087  21.734   6.470
 4942POPC   C3B63033  30.970  21.605   6.851
 4942POPC   C4B63034  30.917  21.720   7.247
 4943POPC   NC363035   0.389   6.053   5.158
 4943POPC   PO463036   0.134   5.521   5.540
 4943POPC   GL163037   0.177   5.613   5.980
 4943POPC   GL263038   0.478   5.805   6.010
 4943POPC   C1A63039   0.118   5.761   6.397
 4943POPC   D2A63040   0.409   6.042   6.596
 4943POPC   C3A63041   0.218   6.239   6.937
 4943POPC   C4A63042   0.386   5.987   7.254
 4943POPC   C1B63043   0.792   5.931   6.243
 4943POPC   C2B63044   0.963   6.046   6.609
 4943POPC   C3B63045   0.816   5.984   6.984
 4943POPC   C4B63046   0.872   6.088   7.412
 4944POPC   NC363047  40.513  23.913   5.544
 4944POPC   PO463048  41.018  23.543   5.592
 4944POPC   GL163049  40.791  23.699   5.951
 4944POPC   GL263050  40.459  23.580   5.947
 4944POPC   C1A63051  40.762  23.746   6.385
 4944POPC   D2A63052  40.822  23.461   6.707
 4944POPC   C3A63053  40.690  23.456   7.119
 4944POPC   C4A63054  40.928  23.483   7.517
 4944POPC   C1B63055  40.346  23.977   6.176
 4944POPC   C2B63056  40.580  24.209   6.504
 4944POPC   C3B63057  40.623  24.144   6.947
 4944POPC   C4B63058  40.772  23.940   7.338
 4945POPC   NC363059  20.410   6.793   5.274
 4945POPC   PO463060  20.800   6.405   5.465
 4945POPC   GL163061  20.842   6.667   5.824
 4945POPC   GL263062  20.559   6.901   5.775
 4945POPC   C1A63063  20.956   6.632   6.288
 4945POPC   D2A63064  21.138   6.632   6.737
 4945POPC   C3A63065  20.850   6.392   7.024
 4945POPC   C4A63066  20.468   6.409   7.342
 4945POPC   C1B63067  20.812   7.112   6.124
 4945POPC   C2B63068  20.868   7.056   6.597
 4945POPC   C3B63069  20.710   6.877   7.030
 4945POPC   C4B63070  20.732   6.837   7.509
 4946POPC   NC363071  36.536  24.686   5.068
 4946POPC   PO463072  35.941  24.636   5.456
 4946POPC   GL163073  36.122  24.486   5.837
 4946POPC   GL263074  35.859  24.254   6.008
 4946POPC   C1A63075  36.309  24.632   6.216
 4946POPC   D2A63076  36.303  24.470   6.638
 4946POPC   C3A63077  36.208  24.671   7.044
 4946POPC   C4A63078  36.338  24.533   7.456
 4946POPC   C1B63079  35.793  24.671   6.186
 4946POPC   C2B63080  35.798  24.638   6.606
 4946POPC   C3B63081  35.840  24.331   6.906
 4946POPC   C4B63082  35.898  24.275   7.307
 4947POPC   NC363083  16.405  32.972   5.523
 4947POPC   PO463084  15.659  32.937   5.564
 4947POPC   GL163085  15.987  33.060   5.875
 4947POPC   GL263086  16.148  33.354   5.993
 4947POPC   C1A63087  15.851  33.080   6.315
 4947POPC   D2A63088  15.616  33.169   6.694
 4947POPC   C3A63089  15.726  32.867   7.003
 4947POPC   C4A63090  15.959  32.910   7.437
 4947POPC   C1B63091  16.355  33.174   6.329
 4947POPC   C2B63092  16.252  33.032   6.740
 4947POPC   C3B63093  16.044  33.252   7.061
 4947POPC   C4B63094  16.191  33.381   7.435
 4948POPC   NC363095  16.533   2.109   5.448
 4948POPC   PO463096  16.960   1.670   5.402
 4948POPC   GL163097  16.739   1.684   5.795
 4948POPC   GL263098  16.675   2.005   5.919
 4948POPC   C1A63099  16.828   1.645   6.235
 4948POPC   D2A63100  16.679   1.865   6.553
 4948POPC   C3A63101  16.764   1.674   6.915
 4948POPC   C4A63102  16.691   1.859   7.303
 4948POPC   C1B63103  16.466   2.237   6.247
 4948POPC   C2B63104  16.412   2.293   6.693
 4948POPC   C3B63105  16.521   2.324   7.130
 4948POPC   C4B63106  16.303   2.213   7.511
 4949POPC   NC363107  43.995   7.854   5.458
 4949POPC   PO463108  43.530   8.285   5.502
 4949POPC   GL163109  43.839   8.182   5.838
 4949POPC   GL263110  44.220   8.233   5.803
 4949POPC   C1A63111  43.950   8.391   6.212
 4949POPC   D2A63112  43.743   8.477   6.571
 4949POPC   C3A63113  43.793   8.165   6.885
 4949POPC   C4A63114  43.670   8.293   7.273
 4949POPC   C1B63115  44.184   7.908   6.148
 4949POPC   C2B63116  43.995   7.758   6.538
 4949POPC   C3B63117  44.136   7.768   6.945
 4949POPC   C4B63118  44.052   7.962   7.322
 4950POPC   NC363119  37.133  35.500   5.300
 4950POPC   PO463120  36.790  34.924   5.493
 4950POPC   GL163121  36.895  35.283   5.775
 4950POPC   GL263122  37.195  35.212   5.904
 4950POPC   C1A63123  36.998  35.625   6.135
 4950POPC   D2A63124  37.192  35.566   6.574
 4950POPC   C3A63125  36.902  35.454   6.924
 4950POPC   C4A63126  36.719  35.651   7.259
 4950POPC   C1B63127  36.984  35.147   6.317
 4950POPC   C2B63128  36.915  34.975   6.721
 4950POPC   C3B63129  36.535  34.818   6.951
 4950POPC   C4B63130  36.493  35.125   7.251
 4951POPC   NC363131  32.670  17.529   5.441
 4951POPC   PO463132  33.140  17.192   5.714
 4951POPC   GL163133  33.024  17.535   5.920
 4951POPC   GL263134  32.672  17.427   5.937
 4951POPC   C1A63135  33.182  17.560   6.362
 4951POPC   D2A63136  32.974  17.353   6.715
 4951POPC   C3A63137  33.136  17.415   7.139
 4951POPC   C4A63138  33.251  17.107   7.418
 4951POPC   C1B63139  32.683  17.626   6.319
 4951POPC   C2B63140  32.757  17.812   6.726
 4951POPC   C3B63141  32.725  17.721   7.153
 4951POPC   C4B63142  32.835  17.901   7.561
 4952POPC   NC363143   3.023  11.473   5.477
 4952POPC   PO463144   2.525  11.046   5.297
 4952POPC   GL163145   2.643  11.206   5.718
 4952POPC   GL263146   2.604  11.586   5.768
 4952POPC   C1A63147   2.751  11.187   6.144
 4952POPC   D2A63148   2.893  11.129   6.557
 4952POPC   C3A63149   2.660  11.262   6.904
 4952POPC   C4A63150   2.713  11.269   7.337
 4952POPC   C1B63151   2.813  11.696   6.150
 4952POPC   C2B63152   2.793  11.641   6.579
 4952POPC   C3B63153   2.924  11.674   7.033
 4952POPC   C4B63154   3.209  11.410   7.261
 4953POPC   NC363155   3.974  37.980   5.319
 4953POPC   PO463156   4.481  38.470   5.483
 4953POPC   GL163157   4.223  38.462   5.832
 4953POPC   GL263158   3.963  38.187   5.799
 4953POPC   C1A63159   4.362  38.587   6.244
 4953POPC   D2A63160   4.461  38.339   6.589
 4953POPC   C3A63161   4.561  38.597   6.908
 4953POPC   C4A63162   4.320  38.718   7.256
 4953POPC   C1B63163   4.145  38.117   6.224
 4953POPC   C2B63164   3.944  38.181   6.634
 4953POPC   C3B63165   3.984  38.232   7.081
 4953POPC   C4B63166   4.335  38.046   7.301
 4954POPC   NC363167  29.156  27.538   5.122
 4954POPC   PO463168  29.650  27.296   5.579
 4954POPC   GL163169  29.290  27.381   5.855
 4954POPC   GL263170  29.067  27.652   5.791
 4954POPC   C1A63171  29.216  27.566   6.277
 4954POPC   D2A63172  29.094  27.538   6.724
 4954POPC   C3A63173  29.273  27.776   7.048
 4954POPC   C4A63174  29.143  27.446   7.279
 4954POPC   C1B63175  28.829  27.851   6.120
 4954POPC   C2B63176  28.671  27.781   6.568
 4954POPC   C3B63177  28.759  27.851   7.023
 4954POPC   C4B63178  28.810  27.781   7.468
 4955POPC   NC363179  17.383   4.499   5.453
 4955POPC   PO463180  17.366   3.823   5.677
 4955POPC   GL163181  17.498   4.083   5.980
 4955POPC   GL263182  17.533   4.430   5.923
 4955POPC   C1A63183  17.391   4.085   6.391
 4955POPC   D2A63184  17.679   4.160   6.708
 4955POPC   C3A63185  17.442   4.084   7.040
 4955POPC   C4A63186  17.767   4.095   7.312
 4955POPC   C1B63187  17.704   4.476   6.302
 4955POPC   C2B63188  17.555   4.640   6.683
 4955POPC   C3B63189  17.685   4.556   7.090
 4955POPC   C4B63190  17.635   4.767   7.490
 4956POPC   NC363191   1.793  12.123   5.405
 4956POPC   PO463192   2.143  12.391   5.934
 4956POPC   GL163193   1.923  11.988   5.984
 4956POPC   GL263194   2.180  11.772   5.981
 4956POPC   C1A63195   1.917  11.814   6.409
 4956POPC   D2A63196   2.066  12.061   6.696
 4956POPC   C3A63197   2.074  11.947   7.067
 4956POPC   C4A63198   2.007  12.255   7.329
 4956POPC   C1B63199   2.335  11.537   6.278
 4956POPC   C2B63200   2.294  11.577   6.725
 4956POPC   C3B63201   2.284  11.506   7.180
 4956POPC   C4B63202   2.042  11.700   7.513
 4957POPC   NC363203  20.427  24.961   5.409
 4957POPC   PO463204  20.650  25.603   5.459
 4957POPC   GL163205  20.454  25.306   5.776
 4957POPC   GL263206  20.697  25.018   5.855
 4957POPC   C1A63207  20.303  25.091   6.164
 4957POPC   D2A63208  20.552  24.928   6.515
 4957POPC   C3A63209  20.394  25.068   6.923
 4957POPC   C4A63210  20.423  25.110   7.375
 4957POPC   C1B63211  20.769  25.337   6.186
 4957POPC   C2B63212  20.882  25.317   6.645
 4957POPC   C3B63213  20.809  25.341   7.104
 4957POPC   C4B63214  20.840  25.327   7.553
 4958POPC   NC363215   9.491  40.122   5.512
 4958POPC   PO463216  10.165  39.901   5.447
 4958POPC   GL163217   9.868  39.839   5.750
 4958POPC   GL263218   9.823  40.171   5.898
 4958POPC   C1A63219   9.788  39.747   6.175
 4958POPC   D2A63220   9.766  40.006   6.522
 4958POPC   C3A63221   9.700  39.779   6.887
 4958POPC   C4A63222   9.638  39.880   7.319
 4958POPC   C1B63223   9.480  40.272   6.155
 4958POPC   C2B63224   9.273  40.201   6.499
 4958POPC   C3B63225   9.425  40.205   6.884
 4958POPC   C4B63226   9.433  40.347   7.270
 4959POPC   NC363227  30.780  23.902   5.433
 4959POPC   PO463228  30.388  23.458   5.786
 4959POPC   GL163229  30.697  23.701   5.891
 4959POPC   GL263230  30.478  23.995   5.822
 4959POPC   C1A63231  30.931  23.709   6.276
 4959POPC   D2A63232  30.979  23.641   6.699
 4959POPC   C3A63233  30.848  23.824   7.084
 4959POPC   C4A63234  30.851  23.752   7.547
 4959POPC   C1B63235  30.572  24.044   6.236
 4959POPC   C2B63236  30.677  24.044   6.645
 4959POPC   C3B63237  30.503  24.185   7.012
 4959POPC   C4B63238  30.417  23.963   7.371
 4960POPC   NC363239  38.364  42.973   5.390
 4960POPC   PO463240  38.787  43.493   5.508
 4960POPC   GL163241  38.532  43.269   5.805
 4960POPC   GL263242  38.600  42.899   5.817
 4960POPC   C1A63243  38.336  43.246   6.217
 4960POPC   D2A63244  38.190  43.342   6.652
 4960POPC   C3A63245  38.482  43.284   6.957
 4960POPC   C4A63246  38.324  43.190   7.346
 4960POPC   C1B63247  38.767  42.935   6.201
 4960POPC   C2B63248  38.837  43.114   6.547
 4960POPC   C3B63249  38.815  42.866   6.890
 4960POPC   C4B63250  38.755  42.923   7.285
 4961POPC   NC363251  33.376  17.519   5.490
 4961POPC   PO463252  34.017  17.814   5.477
 4961POPC   GL163253  33.857  17.468   5.713
 4961POPC   GL263254  34.095  17.226   5.872
 4961POPC   C1A63255  33.628  17.450   6.105
 4961POPC   D2A63256  33.766  17.419   6.529
 4961POPC   C3A63257  33.631  17.314   6.956
 4961POPC   C4A63258  33.629  17.505   7.379
 4961POPC   C1B63259  34.119  17.596   6.177
 4961POPC   C2B63260  34.194  17.689   6.645
 4961POPC   C3B63261  34.053  17.752   7.102
 4961POPC   C4B63262  34.062  17.745   7.576
 4962POPC   NC363263  43.558  26.863   5.651
 4962POPC   PO463264  44.226  26.727   5.381
 4962POPC   GL163265  44.042  26.709   5.770
 4962POPC   GL263266  44.027  27.069   5.794
 4962POPC   C1A63267  43.835  26.579   6.192
 4962POPC   D2A63268  43.657  26.526   6.628
 4962POPC   C3A63269  43.894  26.575   6.998
 4962POPC   C4A63270  43.836  26.991   7.156
 4962POPC   C1B63271  44.218  26.933   6.188
 4962POPC   C2B63272  44.068  26.837   6.595
 4962POPC   C3B63273  44.293  27.030   6.936
 4962POPC   C4B63274  44.294  27.254   7.326
 4963POPC   NC363275  35.505  34.681   5.239
 4963POPC   PO463276  34.959  34.763   5.665
 4963POPC   GL163277  35.375  34.672   5.772
 4963POPC   GL263278  35.697  34.510   5.710
 4963POPC   C1A63279  35.608  34.865   6.128
 4963POPC   D2A63280  35.454  35.043   6.518
 4963POPC   C3A63281  35.352  34.871   6.922
 4963POPC   C4A63282  35.338  34.683   7.331
 4963POPC   C1B63283  35.554  34.365   6.146
 4963POPC   C2B63284  35.616  34.523   6.553
 4963POPC   C3B63285  35.500  34.384   6.950
 4963POPC   C4B63286  35.434  34.176   7.329
 4964POPC   NC363287  13.837  22.643   5.367
 4964POPC   PO463288  13.729  23.186   5.113
 4964POPC   GL163289  13.709  23.075   5.612
 4964POPC   GL263290  13.399  22.928   5.747
 4964POPC   C1A63291  13.779  23.141   6.086
 4964POPC   D2A63292  14.048  23.147   6.511
 4964POPC   C3A63293  13.868  23.108   6.961
 4964POPC   C4A63294  13.673  22.915   7.385
 4964POPC   C1B63295  13.292  23.054   6.181
 4964POPC   C2B63296  13.530  23.065   6.561
 4964POPC   C3B63297  13.377  22.967   6.966
 4964POPC   C4B63298  13.104  23.139   7.306
 4965POPC   NC363299   7.336  16.205   5.648
 4965POPC   PO463300   7.470  15.651   5.253
 4965POPC   GL163301   7.586  15.749   5.765
 4965POPC   GL263302   7.677  16.097   5.996
 4965POPC   C1A63303   7.638  15.673   6.254
 4965POPC   D2A63304   7.737  15.988   6.615
 4965POPC   C3A63305   7.539  16.023   7.023
 4965POPC   C4A63306   7.277  15.704   7.189
 4965POPC   C1B63307   7.347  16.107   6.298
 4965POPC   C2B63308   7.081  16.258   6.590
 4965POPC   C3B63309   6.990  16.034   6.925
 4965POPC   C4B63310   7.086  16.174   7.269
 4966POPC   NC363311   0.939  12.416   5.463
 4966POPC   PO463312   1.191  13.072   5.344
 4966POPC   GL163313   1.253  12.975   5.770
 4966POPC   GL263314   1.299  12.609   5.816
 4966POPC   C1A63315   1.323  13.234   6.133
 4966POPC   D2A63316   1.431  13.062   6.524
 4966POPC   C3A63317   1.409  13.218   6.932
 4966POPC   C4A63318   1.378  12.810   7.147
 4966POPC   C1B63319   0.941  12.693   6.113
 4966POPC   C2B63320   0.806  12.779   6.547
 4966POPC   C3B63321   0.913  12.914   6.970
 4966POPC   C4B63322   0.959  12.625   7.343
 4967POPC   NC363323  33.520   4.159   5.517
 4967POPC   PO463324  34.013   4.338   5.104
 4967POPC   GL163325  33.938   4.422   5.616
 4967POPC   GL263326  33.644   4.575   5.854
 4967POPC   C1A63327  33.920   4.233   6.078
 4967POPC   D2A63328  33.929   4.238   6.531
 4967POPC   C3A63329  33.698   4.424   6.863
 4967POPC   C4A63330  33.856   4.231   7.234
 4967POPC   C1B63331  33.420   4.266   6.177
 4967POPC   C2B63332  33.448   4.009   6.571
 4967POPC   C3B63333  33.353   4.073   7.022
 4967POPC   C4B63334  33.330   4.439   7.279
 4968POPC   NC363335  32.003  27.711   5.315
 4968POPC   PO463336  32.547  27.423   5.134
 4968POPC   GL163337  32.351  27.424   5.594
 4968POPC   GL263338  32.520  27.377   5.859
 4968POPC   C1A63339  32.189  27.718   5.995
 4968POPC   D2A63340  31.964  27.679   6.408
 4968POPC   C3A63341  32.041  27.915   6.810
 4968POPC   C4A63342  32.112  27.795   7.256
 4968POPC   C1B63343  32.709  27.444   6.229
 4968POPC   C2B63344  32.487  27.654   6.530
 4968POPC   C3B63345  32.377  27.541   6.915
 4968POPC   C4B63346  32.577  27.453   7.276
 4969POPC   NC363347  26.404  11.883   5.341
 4969POPC   PO463348  26.470  11.170   5.463
 4969POPC   GL163349  26.683  11.302   5.858
 4969POPC   GL263350  26.984  11.132   5.907
 4969POPC   C1A63351  26.620  11.610   6.178
 4969POPC   D2A63352  26.464  11.568   6.610
 4969POPC   C3A63353  26.806  11.651   6.929
 4969POPC   C4A63354  26.856  11.504   7.332
 4969POPC   C1B63355  27.041  11.328   6.239
 4969POPC   C2B63356  26.869  11.274   6.612
 4969POPC   C3B63357  26.915  11.032   6.961
 4969POPC   C4B63358  27.146  11.069   7.301
 4970POPC   NC363359  20.700  35.802   5.117
 4970POPC   PO463360  20.715  36.385   5.370
 4970POPC   GL163361  20.587  36.224   5.755
 4970POPC   GL263362  20.279  36.022   5.721
 4970POPC   C1A63363  20.774  36.173   6.180
 4970POPC   D2A63364  20.749  36.222   6.632
 4970POPC   C3A63365  21.110  36.329   6.912
 4970POPC   C4A63366  21.233  36.172   7.345
 4970POPC   C1B63367  20.277  36.096   6.157
 4970POPC   C2B63368  20.300  35.920   6.549
 4970POPC   C3B63369  20.370  36.124   6.941
 4970POPC   C4B63370  20.718  36.171   7.192
 4971POPC   NC363371  36.315  13.276   5.626
 4971POPC   PO463372  35.942  13.692   5.139
 4971POPC   GL163373  36.043  13.815   5.706
 4971POPC   GL263374  36.366  13.791   5.821
 4971POPC   C1A63375  36.036  13.568   6.149
 4971POPC   D2A63376  36.073  13.465   6.567
 4971POPC   C3A63377  36.030  13.802   6.789
 4971POPC   C4A63378  35.939  13.717   7.193
 4971POPC   C1B63379  36.536  13.657   6.250
 4971POPC   C2B63380  36.583  13.382   6.611
 4971POPC   C3B63381  36.370  13.434   6.999
 4971POPC   C4B63382  36.449  13.820   7.176
 4972POPC   NC363383  13.888   4.208   5.607
 4972POPC   PO463384  13.502   4.731   5.313
 4972POPC   GL163385  13.473   4.517   5.739
 4972POPC   GL263386  13.388   4.157   5.805
 4972POPC   C1A63387  13.501   4.588   6.184
 4972POPC   D2A63388  13.733   4.443   6.523
 4972POPC   C3A63389  13.631   4.392   6.941
 4972POPC   C4A63390  13.640   4.712   7.240
 4972POPC   C1B63391  13.628   4.052   6.223
 4972POPC   C2B63392  13.766   3.927   6.665
 4972POPC   C3B63393  13.908   3.993   7.102
 4972POPC   C4B63394  14.009   4.327   7.327
 4973POPC   NC363395  18.366   2.457   5.396
 4973POPC   PO463396  17.985   3.041   5.608
 4973POPC   GL163397  18.200   2.914   5.941
 4973POPC   GL263398  18.424   2.719   5.821
 4973POPC   C1A63399  18.193   2.889   6.311
 4973POPC   D2A63400  18.364   2.995   6.621
 4973POPC   C3A63401  18.108   2.869   6.888
 4973POPC   C4A63402  18.176   2.804   7.288
 4973POPC   C1B63403  18.593   2.567   6.178
 4973POPC   C2B63404  18.440   2.485   6.588
 4973POPC   C3B63405  18.595   2.621   6.987
 4973POPC   C4B63406  18.600   2.581   7.439
 4974POPC   NC363407  29.607  18.515   5.469
 4974POPC   PO463408  29.016  18.044   5.449
 4974POPC   GL163409  29.140  18.162   5.816
 4974POPC   GL263410  29.213  18.518   5.809
 4974POPC   C1A63411  28.926  18.027   6.191
 4974POPC   D2A63412  29.094  18.076   6.572
 4974POPC   C3A63413  28.942  18.149   6.964
 4974POPC   C4A63414  29.275  18.263   7.223
 4974POPC   C1B63415  29.253  18.438   6.234
 4974POPC   C2B63416  29.059  18.628   6.564
 4974POPC   C3B63417  29.132  18.812   6.928
 4974POPC   C4B63418  28.899  18.609   7.212
 4975POPC   NC363419  30.707  23.300   5.486
 4975POPC   PO463420  30.664  22.632   5.410
 4975POPC   GL163421  30.630  22.738   5.884
 4975POPC   GL263422  30.728  23.095   5.964
 4975POPC   C1A63423  30.648  22.553   6.352
 4975POPC   D2A63424  30.480  22.515   6.802
 4975POPC   C3A63425  30.482  22.872   7.090
 4975POPC   C4A63426  30.881  22.990   7.278
 4975POPC   C1B63427  30.552  23.087   6.397
 4975POPC   C2B63428  30.700  23.241   6.818
 4975POPC   C3B63429  30.596  23.401   7.229
 4975POPC   C4B63430  30.340  23.195   7.488
 4976POPC   NC363431  27.625  20.592   5.311
 4976POPC   PO463432  26.959  20.789   5.497
 4976POPC   GL163433  27.370  20.743   5.738
 4976POPC   GL263434  27.199  20.918   5.975
 4976POPC   C1A63435  27.651  20.767   6.146
 4976POPC   D2A63436  27.551  20.944   6.557
 4976POPC   C3A63437  27.577  20.753   6.956
 4976POPC   C4A63438  27.677  20.832   7.390
 4976POPC   C1B63439  27.207  20.486   6.158
 4976POPC   C2B63440  27.397  20.440   6.544
 4976POPC   C3B63441  27.211  20.408   6.938
 4976POPC   C4B63442  27.238  20.527   7.342
 4977POPC   NC363443  43.894   6.862   5.382
 4977POPC   PO463444  44.553   6.895   5.419
 4977POPC   GL163445  44.238   6.680   5.727
 4977POPC   GL263446  43.829   6.664   5.829
 4977POPC   C1A63447  44.196   6.642   6.181
 4977POPC   D2A63448  44.014   6.820   6.561
 4977POPC   C3A63449  43.847   6.518   6.855
 4977POPC   C4A63450  43.818   6.523   7.294
 4977POPC   C1B63451  43.594   6.819   6.182
 4977POPC   C2B63452  43.461   6.739   6.599
 4977POPC   C3B63453  43.376   6.613   7.041
 4977POPC   C4B63454  43.379   6.792   7.463
 4978POPC   NC363455  37.352  33.971   5.198
 4978POPC   PO463456  36.670  33.744   5.244
 4978POPC   GL163457  36.634  33.736   5.707
 4978POPC   GL263458  36.977  33.607   5.765
 4978POPC   C1A63459  36.585  33.772   6.187
 4978POPC   D2A63460  36.803  34.012   6.554
 4978POPC   C3A63461  36.725  33.920   6.994
 4978POPC   C4A63462  36.807  33.799   7.446
 4978POPC   C1B63463  37.076  33.655   6.226
 4978POPC   C2B63464  36.927  33.503   6.623
 4978POPC   C3B63465  37.014  33.505   7.045
 4978POPC   C4B63466  37.305  33.757   7.246
 4979POPC   NC363467  36.046  40.285   5.481
 4979POPC   PO463468  36.643  39.962   5.340
 4979POPC   GL163469  36.327  39.960   5.734
 4979POPC   GL263470  36.469  40.218   5.832
 4979POPC   C1A63471  36.096  39.801   6.116
 4979POPC   D2A63472  36.023  39.929   6.553
 4979POPC   C3A63473  35.947  39.787   6.980
 4979POPC   C4A63474  35.863  39.986   7.354
 4979POPC   C1B63475  36.218  40.310   6.179
 4979POPC   C2B63476  36.299  40.368   6.606
 4979POPC   C3B63477  36.223  40.203   6.989
 4979POPC   C4B63478  36.316  40.269   7.398
 4980POPC   NC363479  28.416  42.916   5.439
 4980POPC   PO463480  28.295  42.319   5.352
 4980POPC   GL163481  28.477  42.462   5.759
 4980POPC   GL263482  28.228  42.276   5.953
 4980POPC   C1A63483  28.522  42.568   6.232
 4980POPC   D2A63484  28.162  42.378   6.477
 4980POPC   C3A63485  28.242  42.314   6.887
 4980POPC   C4A63486  28.531  42.448   7.134
 4980POPC   C1B63487  28.507  42.056   6.214
 4980POPC   C2B63488  28.639  42.198   6.601
 4980POPC   C3B63489  28.673  41.970   6.951
 4980POPC   C4B63490  28.711  41.983   7.332
 4981POPC   NC363491  19.182  21.666   5.457
 4981POPC   PO463492  18.647  21.338   5.259
 4981POPC   GL163493  18.888  21.380   5.733
 4981POPC   GL263494  18.956  21.681   5.905
 4981POPC   C1A63495  19.009  21.136   6.133
 4981POPC   D2A63496  18.897  21.189   6.590
 4981POPC   C3A63497  18.936  21.284   7.014
 4981POPC   C4A63498  19.214  21.318   7.335
 4981POPC   C1B63499  19.162  21.595   6.285
 4981POPC   C2B63500  19.327  21.837   6.623
 4981POPC   C3B63501  19.165  21.740   7.016
 4981POPC   C4B63502  18.902  21.722   7.370
 4982POPC   NC363503  31.730  35.904   5.423
 4982POPC   PO463504  31.054  35.791   5.510
 4982POPC   GL163505  31.370  35.965   5.782
 4982POPC   GL263506  31.361  36.330   5.830
 4982POPC   C1A63507  31.612  35.869   6.139
 4982POPC   D2A63508  31.667  35.621   6.528
 4982POPC   C3A63509  31.694  35.853   6.934
 4982POPC   C4A63510  31.409  35.865   7.283
 4982POPC   C1B63511  31.219  36.214   6.215
 4982POPC   C2B63512  31.363  36.071   6.576
 4982POPC   C3B63513  31.287  36.230   6.959
 4982POPC   C4B63514  31.644  36.331   7.190
 4983POPC   NC363515   7.843  35.588   5.480
 4983POPC   PO463516   7.342  34.926   5.416
 4983POPC   GL163517   7.361  35.054   5.836
 4983POPC   GL263518   7.579  35.310   5.816
 4983POPC   C1A63519   7.234  35.341   6.179
 4983POPC   D2A63520   7.369  35.435   6.548
 4983POPC   C3A63521   7.164  35.500   6.918
 4983POPC   C4A63522   7.286  35.275   7.259
 4983POPC   C1B63523   7.699  35.607   6.158
 4983POPC   C2B63524   7.859  35.556   6.576
 4983POPC   C3B63525   7.664  35.494   6.976
 4983POPC   C4B63526   7.694  35.558   7.418
 4984POPC   NC363527  10.905  44.379   5.690
 4984POPC   PO463528  11.285  44.811   5.348
 4984POPC   GL163529  11.302  44.683   5.823
 4984POPC   GL263530  11.431  44.345   5.885
 4984POPC   C1A63531  11.188  44.562   6.289
 4984POPC   D2A63532  11.168  44.372   6.724
 4984POPC   C3A63533  11.027  44.611   7.094
 4984POPC   C4A63534  10.844   0.047   7.107
 4984POPC   C1B63535  11.684  44.464   6.242
 4984POPC   C2B63536  11.596  44.660   6.645
 4984POPC   C3B63537  11.565  44.553   7.083
 4984POPC   C4B63538  11.418  44.698   7.505
 4985POPC   NC363539  10.267  13.463   5.371
 4985POPC   PO463540  10.937  13.625   5.539
 4985POPC   GL163541  10.538  13.669   5.767
 4985POPC   GL263542  10.498  13.953   5.951
 4985POPC   C1A63543  10.328  13.566   6.198
 4985POPC   D2A63544  10.467  13.516   6.619
 4985POPC   C3A63545  10.249  13.725   6.950
 4985POPC   C4A63546  10.438  13.423   7.215
 4985POPC   C1B63547  10.811  13.700   6.241
 4985POPC   C2B63548  10.980  13.762   6.635
 4985POPC   C3B63549  10.770  13.760   7.009
 4985POPC   C4B63550  10.652  14.043   7.338
 4986POPC   NC363551  29.741   1.393   5.404
 4986POPC   PO463552  30.264   0.970   5.271
 4986POPC   GL163553  30.155   1.187   5.659
 4986POPC   GL263554  30.199   0.948   5.916
 4986POPC   C1A63555  29.947   1.373   6.043
 4986POPC   D2A63556  29.951   1.459   6.506
 4986POPC   C3A63557  29.719   1.199   6.789
 4986POPC   C4A63558  29.607   1.064   7.206
 4986POPC   C1B63559  30.087   0.967   6.361
 4986POPC   C2B63560  30.234   1.102   6.752
 4986POPC   C3B63561  30.107   1.125   7.164
 4986POPC   C4B63562  30.013   0.959   7.588
 4987POPC   NC363563   9.833  32.142   5.399
 4987POPC   PO463564   9.197  32.070   5.671
 4987POPC   GL163565   9.546  32.230   5.905
 4987POPC   GL263566   9.876  32.069   5.899
 4987POPC   C1A63567   9.534  32.260   6.364
 4987POPC   D2A63568   9.343  32.008   6.704
 4987POPC   C3A63569   9.436  32.193   7.125
 4987POPC   C4A63570   9.665  32.530   7.357
 4987POPC   C1B63571   9.995  32.052   6.309
 4987POPC   C2B63572   9.864  32.021   6.722
 4987POPC   C3B63573   9.997  32.213   7.078
 4987POPC   C4B63574  10.133  32.080   7.462
 4988POPC   NC363575   5.589  38.027   5.483
 4988POPC   PO463576   6.091  37.749   5.127
 4988POPC   GL163577   6.036  37.803   5.623
 4988POPC   GL263578   5.776  37.562   5.709
 4988POPC   C1A63579   5.881  37.824   6.110
 4988POPC   D2A63580   5.820  37.569   6.486
 4988POPC   C3A63581   5.739  37.771   6.879
 4988POPC   C4A63582   5.892  37.962   7.286
 4988POPC   C1B63583   5.533  37.393   6.084
 4988POPC   C2B63584   5.523  37.123   6.476
 4988POPC   C3B63585   5.550  37.191   6.945
 4988POPC   C4B63586   5.658  37.490   7.274
 4989POPC   NC363587  30.186   8.492   5.509
 4989POPC   PO463588  29.657   7.949   5.502
 4989POPC   GL163589  29.896   8.060   5.852
 4989POPC   GL263590  29.903   8.426   5.936
 4989POPC   C1A63591  29.930   8.057   6.290
 4989POPC   D2A63592  29.765   8.111   6.651
 4989POPC   C3A63593  30.008   8.167   6.979
 4989POPC   C4A63594  29.908   7.871   7.271
 4989POPC   C1B63595  29.730   8.556   6.350
 4989POPC   C2B63596  29.683   8.608   6.786
 4989POPC   C3B63597  29.689   8.679   7.190
 4989POPC   C4B63598  29.834   8.345   7.424
 4990POPC   NC363599  21.126   4.613   5.591
 4990POPC   PO463600  21.774   4.555   5.462
 4990POPC   GL163601  21.519   4.298   5.782
 4990POPC   GL263602  21.201   4.382   6.027
 4990POPC   C1A63603  21.534   4.039   6.169
 4990POPC   D2A63604  21.311   4.192   6.541
 4990POPC   C3A63605  21.532   4.130   6.936
 4990POPC   C4A63606  21.327   4.116   7.341
 4990POPC   C1B63607  21.433   4.666   6.307
 4990POPC   C2B63608  21.528   4.641   6.717
 4990POPC   C3B63609  21.229   4.538   7.014
 4990POPC   C4B63610  21.209   4.694   7.416
 4991POPC   NC363611  11.187  25.412   5.384
 4991POPC   PO463612  11.661  24.975   5.347
 4991POPC   GL163613  11.628  25.064   5.806
 4991POPC   GL263614  11.394  25.333   5.853
 4991POPC   C1A63615  11.636  25.185   6.266
 4991POPC   D2A63616  11.416  25.402   6.590
 4991POPC   C3A63617  11.328  25.267   7.032
 4991POPC   C4A63618  11.543  25.209   7.425
 4991POPC   C1B63619  11.062  25.340   6.197
 4991POPC   C2B63620  10.911  25.482   6.609
 4991POPC   C3B63621  10.831  25.342   7.019
 4991POPC   C4B63622  10.973  25.446   7.429
 4992POPC   NC363623  34.886   9.051   5.531
 4992POPC   PO463624  34.228   9.035   5.382
 4992POPC   GL163625  34.395   9.018   5.837
 4992POPC   GL263626  34.692   8.813   5.937
 4992POPC   C1A63627  34.443   9.086   6.307
 4992POPC   D2A63628  34.668   9.168   6.688
 4992POPC   C3A63629  34.520   9.004   7.044
 4992POPC   C4A63630  34.364   9.244   7.378
 4992POPC   C1B63631  34.915   8.900   6.318
 4992POPC   C2B63632  35.027   8.806   6.736
 4992POPC   C3B63633  35.014   9.030   7.114
 4992POPC   C4B63634  35.253   9.061   7.473
 4993POPC   NC363635   5.242  39.647   5.185
 4993POPC   PO463636   5.102  39.166   5.647
 4993POPC   GL163637   5.155  39.152   6.012
 4993POPC   GL263638   4.883  39.371   6.066
 4993POPC   C1A63639   5.327  39.400   6.273
 4993POPC   D2A63640   5.206  39.604   6.554
 4993POPC   C3A63641   5.195  39.343   6.896
 4993POPC   C4A63642   5.477  39.297   7.211
 4993POPC   C1B63643   4.721  39.465   6.458
 4993POPC   C2B63644   4.692  39.090   6.688
 4993POPC   C3B63645   4.825  39.004   7.083
 4993POPC   C4B63646   4.926  39.322   7.364
 4994POPC   NC363647  15.892   8.583   5.464
 4994POPC   PO463648  16.388   8.052   5.334
 4994POPC   GL163649  16.180   8.259   5.754
 4994POPC   GL263650  15.790   8.208   5.801
 4994POPC   C1A63651  16.051   8.484   6.185
 4994POPC   D2A63652  15.892   8.357   6.639
 4994POPC   C3A63653  16.195   8.294   6.969
 4994POPC   C4A63654  16.331   7.965   7.213
 4994POPC   C1B63655  15.854   8.024   6.226
 4994POPC   C2B63656  15.648   7.899   6.617
 4994POPC   C3B63657  15.823   7.960   7.015
 4994POPC   C4B63658  15.806   8.393   7.247
 4995POPC   NC363659  17.400  32.225   5.310
 4995POPC   PO463660  17.425  31.584   5.600
 4995POPC   GL163661  17.413  31.975   5.784
 4995POPC   GL263662  17.605  32.320   5.762
 4995POPC   C1A63663  17.443  32.105   6.192
 4995POPC   D2A63664  17.671  32.215   6.525
 4995POPC   C3A63665  17.413  32.366   6.806
 4995POPC   C4A63666  17.464  32.383   7.209
 4995POPC   C1B63667  17.843  32.556   6.099
 4995POPC   C2B63668  17.950  32.646   6.566
 4995POPC   C3B63669  17.746  32.735   6.965
 4995POPC   C4B63670  17.905  32.636   7.380
 4996POPC   NC363671  41.996  38.494   5.234
 4996POPC   PO463672  42.617  38.669   5.333
 4996POPC   GL163673  42.603  38.440   5.766
 4996POPC   GL263674  42.225  38.424   5.837
 4996POPC   C1A63675  42.562  38.365   6.247
 4996POPC   D2A63676  42.550  38.616   6.632
 4996POPC   C3A63677  42.614  38.492   7.058
 4996POPC   C4A63678  42.566  38.312   7.488
 4996POPC   C1B63679  42.077  38.573   6.258
 4996POPC   C2B63680  42.047  38.572   6.706
 4996POPC   C3B63681  42.116  38.433   7.099
 4996POPC   C4B63682  41.955  38.614   7.419
 4997POPC   NC363683   3.986  42.319   5.350
 4997POPC   PO463684   3.766  41.876   5.786
 4997POPC   GL163685   4.143  42.107   5.977
 4997POPC   GL263686   4.277  42.419   5.810
 4997POPC   C1A63687   4.563  42.179   6.201
 4997POPC   D2A63688   4.812  42.432   6.542
 4997POPC   C3A63689   4.602  42.376   6.961
 4997POPC   C4A63690   4.593  41.989   7.188
 4997POPC   C1B63691   4.561  42.688   6.100
 4997POPC   C2B63692   4.543  42.892   6.513
 4997POPC   C3B63693   4.287  42.777   6.850
 4997POPC   C4B63694   4.214  42.646   7.284
 4998POPC   NC363695  36.667  43.181   5.379
 4998POPC   PO463696  37.163  43.521   5.153
 4998POPC   GL163697  36.943  43.497   5.666
 4998POPC   GL263698  36.608  43.391   5.845
 4998POPC   C1A63699  37.053  43.413   6.146
 4998POPC   D2A63700  36.803  43.324   6.545
 4998POPC   C3A63701  36.997  43.334   6.969
 4998POPC   C4A63702  36.813  43.350   7.372
 4998POPC   C1B63703  36.726  43.005   6.111
 4998POPC   C2B63704  36.923  42.749   6.443
 4998POPC   C3B63705  36.926  42.829   6.873
 4998POPC   C4B63706  36.771  42.815   7.268
 4999POPC   NC363707   8.322  15.866   5.337
 4999POPC   PO463708   7.775  16.144   5.485
 4999POPC   GL163709   8.127  16.037   5.787
 4999POPC   GL263710   8.400  16.237   5.693
 4999POPC   C1A63711   8.118  15.919   6.253
 4999POPC   D2A63712   8.066  15.606   6.606
 4999POPC   C3A63713   8.047  15.811   7.002
 4999POPC   C4A63714   7.966  16.121   7.354
 4999POPC   C1B63715   8.552  16.141   6.098
 4999POPC   C2B63716   8.582  16.152   6.521
 4999POPC   C3B63717   8.533  15.900   6.867
 4999POPC   C4B63718   8.457  16.105   7.223
 5000POPC   NC363719  23.367  30.109   5.436
 5000POPC   PO463720  22.660  30.099   5.437
 5000POPC   GL163721  22.957  30.212   5.769
 5000POPC   GL263722  23.165  29.894   5.843
 5000POPC   C1A63723  22.974  30.195   6.229
 5000POPC   D2A63724  23.072  30.010   6.632
 5000POPC   C3A63725  22.818  29.796   6.924
 5000POPC   C4A63726  22.832  29.788   7.365
 5000POPC   C1B63727  23.356  29.724   6.231
 5000POPC   C2B63728  23.438  29.646   6.671
 5000POPC   C3B63729  23.307  29.725   7.128
 5000POPC   C4B63730  23.368  29.805   7.568
 5001POPC   NC363731  42.045   4.747   5.663
 5001POPC   PO463732  42.448   5.261   5.359
 5001POPC   GL163733  42.385   5.137   5.785
 5001POPC   GL263734  42.067   5.144   5.971
 5001POPC   C1A63735  42.517   5.236   6.205
 5001POPC   D2A63736  42.538   4.995   6.570
 5001POPC   C3A63737  42.360   5.116   6.961
 5001POPC   C4A63738  42.602   5.151   7.314
 5001POPC   C1B63739  42.038   4.986   6.394
 5001POPC   C2B63740  42.141   4.696   6.742
 5001POPC   C3B63741  42.117   4.712   7.175
 5001POPC   C4B63742  42.219   4.915   7.598
 5002POPC   NC363743  41.014  41.846   5.414
 5002POPC   PO463744  40.652  41.204   5.549
 5002POPC   GL163745  40.678  41.476   5.923
 5002POPC   GL263746  40.975  41.652   5.883
 5002POPC   C1A63747  40.803  41.439   6.371
 5002POPC   D2A63748  40.661  41.657   6.753
 5002POPC   C3A63749  40.727  41.448   7.132
 5002POPC   C4A63750  40.659  41.437   7.582
 5002POPC   C1B63751  41.015  41.888   6.262
 5002POPC   C2B63752  41.067  41.974   6.685
 5002POPC   C3B63753  40.915  41.946   7.096
 5002POPC   C4B63754  40.967  41.845   7.506
 5003POPC   NC363755  28.598  17.810   5.442
 5003POPC   PO463756  28.135  17.395   5.411
 5003POPC   GL163757  28.224  17.461   5.817
 5003POPC   GL263758  28.560  17.524   5.853
 5003POPC   C1A63759  28.310  17.270   6.222
 5003POPC   D2A63760  28.185  17.433   6.604
 5003POPC   C3A63761  28.418  17.398   6.968
 5003POPC   C4A63762  28.123  17.632   7.177
 5003POPC   C1B63763  28.440  17.836   6.156
 5003POPC   C2B63764  28.546  18.080   6.530
 5003POPC   C3B63765  28.485  17.907   6.925
 5003POPC   C4B63766  28.759  17.710   7.216
 5004POPC   NC363767  25.470  23.895   5.451
 5004POPC   PO463768  24.901  24.207   5.562
 5004POPC   GL163769  25.106  23.920   5.830
 5004POPC   GL263770  25.071  23.547   5.820
 5004POPC   C1A63771  25.436  23.842   6.145
 5004POPC   D2A63772  25.478  23.595   6.522
 5004POPC   C3A63773  25.230  23.783   6.829
 5004POPC   C4A63774  25.226  23.894   7.260
 5004POPC   C1B63775  24.947  23.655   6.239
 5004POPC   C2B63776  24.663  23.599   6.554
 5004POPC   C3B63777  24.734  23.708   6.946
 5004POPC   C4B63778  24.827  23.532   7.340
 5005POPC   NC363779  38.718  23.828   5.198
 5005POPC   PO463780  38.241  24.133   5.513
 5005POPC   GL163781  38.589  23.890   5.726
 5005POPC   GL263782  38.345  23.656   5.836
 5005POPC   C1A63783  38.804  23.807   6.149
 5005POPC   D2A63784  38.713  23.983   6.582
 5005POPC   C3A63785  38.666  23.779   7.006
 5005POPC   C4A63786  38.581  23.971   7.418
 5005POPC   C1B63787  38.311  23.877   6.247
 5005POPC   C2B63788  38.245  23.797   6.713
 5005POPC   C3B63789  38.169  23.760   7.180
 5005POPC   C4B63790  38.109  23.528   7.589
 5006POPC   NC363791   4.265  33.456   5.412
 5006POPC   PO463792   4.586  34.072   5.443
 5006POPC   GL163793   4.343  33.824   5.749
 5006POPC   GL263794   4.124  34.035   5.884
 5006POPC   C1A63795   4.473  33.701   6.181
 5006POPC   D2A63796   4.402  33.936   6.569
 5006POPC   C3A63797   4.480  33.728   6.946
 5006POPC   C4A63798   4.551  33.937   7.342
 5006POPC   C1B63799   3.974  33.712   6.190
 5006POPC   C2B63800   3.917  33.754   6.629
 5006POPC   C3B63801   4.045  33.969   7.018
 5006POPC   C4B63802   4.093  33.737   7.421
 5007POPC   NC363803  17.413  15.601   5.462
 5007POPC   PO463804  17.376  16.145   5.620
 5007POPC   GL163805  17.523  15.882   5.905
 5007POPC   GL263806  17.221  15.669   5.929
 5007POPC   C1A63807  17.660  16.073   6.288
 5007POPC   D2A63808  17.642  16.013   6.719
 5007POPC   C3A63809  17.740  16.250   7.104
 5007POPC   C4A63810  17.787  16.073   7.522
 5007POPC   C1B63811  17.294  15.700   6.378
 5007POPC   C2B63812  17.235  15.725   6.838
 5007POPC   C3B63813  17.287  15.743   7.293
 5007POPC   C4B63814  17.157  15.671   7.729
 5008POPC   NC363815   4.597  43.103   5.456
 5008POPC   PO463816   5.182  42.815   5.431
 5008POPC   GL163817   5.171  43.037   5.794
 5008POPC   GL263818   4.963  43.349   5.749
 5008POPC   C1A63819   4.995  42.983   6.181
 5008POPC   D2A63820   4.900  43.251   6.490
 5008POPC   C3A63821   4.994  43.011   6.816
 5008POPC   C4A63822   5.080  43.210   7.164
 5008POPC   C1B63823   5.210  43.449   6.121
 5008POPC   C2B63824   5.382  43.416   6.557
 5008POPC   C3B63825   5.457  43.550   6.979
 5008POPC   C4B63826   5.522  43.333   7.375
 5009POPC   NC363827   7.755  13.842   5.368
 5009POPC   PO463828   7.104  13.915   5.456
 5009POPC   GL163829   7.411  13.725   5.757
 5009POPC   GL263830   7.708  13.888   5.918
 5009POPC   C1A63831   7.411  13.458   6.109
 5009POPC   D2A63832   7.127  13.340   6.448
 5009POPC   C3A63833   7.328  13.531   6.817
 5009POPC   C4A63834   7.218  13.497   7.249
 5009POPC   C1B63835   7.867  14.028   6.342
 5009POPC   C2B63836   7.793  14.034   6.805
 5009POPC   C3B63837   7.674  13.756   7.138
 5009POPC   C4B63838   7.543  13.767   7.579
 5010POPC   NC363839  15.326  23.388   5.290
 5010POPC   PO463840  15.385  24.061   5.268
 5010POPC   GL163841  15.309  23.789   5.663
 5010POPC   GL263842  15.221  23.439   5.784
 5010POPC   C1A63843  15.043  23.838   6.045
 5010POPC   D2A63844  14.911  23.772   6.473
 5010POPC   C3A63845  15.045  24.007   6.849
 5010POPC   C4A63846  15.229  23.850   7.216
 5010POPC   C1B63847  15.126  23.346   6.214
 5010POPC   C2B63848  15.244  23.320   6.641
 5010POPC   C3B63849  15.460  23.406   7.021
 5010POPC   C4B63850  15.319  23.105   7.296
 5011POPC   NC363851  10.076   3.403   5.489
 5011POPC   PO463852   9.468   3.876   5.399
 5011POPC   GL163853   9.601   3.773   5.820
 5011POPC   GL263854   9.673   3.422   5.844
 5011POPC   C1A63855   9.605   3.708   6.289
 5011POPC   D2A63856   9.899   3.849   6.643
 5011POPC   C3A63857   9.794   3.924   7.096
 5011POPC   C4A63858   9.466   3.745   7.363
 5011POPC   C1B63859   9.720   3.212   6.234
 5011POPC   C2B63860   9.858   3.327   6.649
 5011POPC   C3B63861   9.692   3.404   7.066
 5011POPC   C4B63862   9.728   3.333   7.539
 5012POPC   NC363863  36.847  21.066   5.733
 5012POPC   PO463864  36.761  21.587   5.310
 5012POPC   GL163865  36.788  21.586   5.781
 5012POPC   GL263866  37.114  21.538   5.742
 5012POPC   C1A63867  36.762  21.444   6.247
 5012POPC   D2A63868  36.743  21.245   6.683
 5012POPC   C3A63869  36.602  21.472   7.074
 5012POPC   C4A63870  36.574  21.484   7.555
 5012POPC   C1B63871  37.262  21.364   6.150
 5012POPC   C2B63872  37.199  21.476   6.591
 5012POPC   C3B63873  37.116  21.388   7.015
 5012POPC   C4B63874  37.284  21.067   7.254
 5013POPC   NC363875  32.754  21.752   5.587
 5013POPC   PO463876  32.536  22.304   5.335
 5013POPC   GL163877  32.856  22.292   5.747
 5013POPC   GL263878  33.037  22.008   5.933
 5013POPC   C1A63879  33.036  22.462   6.173
 5013POPC   D2A63880  32.998  22.220   6.569
 5013POPC   C3A63881  33.045  22.384   7.005
 5013POPC   C4A63882  32.911  22.094   7.341
 5013POPC   C1B63883  33.309  21.885   6.286
 5013POPC   C2B63884  33.554  21.713   6.631
 5013POPC   C3B63885  33.386  21.685   7.031
 5013POPC   C4B63886  33.408  22.073   7.227
 5014POPC   NC363887  10.700   1.882   5.379
 5014POPC   PO463888  10.121   2.166   5.443
 5014POPC   GL163889  10.366   1.845   5.749
 5014POPC   GL263890  10.693   1.575   5.765
 5014POPC   C1A63891  10.520   1.898   6.167
 5014POPC   D2A63892  10.396   2.163   6.533
 5014POPC   C3A63893  10.612   2.238   6.937
 5014POPC   C4A63894  10.447   2.066   7.326
 5014POPC   C1B63895  10.925   1.540   6.132
 5014POPC   C2B63896  10.767   1.657   6.539
 5014POPC   C3B63897  10.645   1.735   6.953
 5014POPC   C4B63898  11.005   1.741   7.224
 5015POPC   NC363899  31.718  15.279   5.320
 5015POPC   PO463900  32.344  15.192   5.336
 5015POPC   GL163901  32.260  15.169   5.774
 5015POPC   GL263902  31.937  15.353   5.780
 5015POPC   C1A63903  32.198  15.224   6.237
 5015POPC   D2A63904  32.063  15.167   6.651
 5015POPC   C3A63905  32.373  15.269   6.925
 5015POPC   C4A63906  32.447  15.247   7.327
 5015POPC   C1B63907  31.851  14.924   5.981
 5015POPC   C2B63908  31.941  14.663   6.358
 5015POPC   C3B63909  32.022  14.677   6.801
 5015POPC   C4B63910  31.977  14.992   7.143
 5016POPC   NC363911  20.506   8.986   5.417
 5016POPC   PO463912  21.130   8.485   5.378
 5016POPC   GL163913  20.794   8.687   5.696
 5016POPC   GL263914  20.814   9.078   5.800
 5016POPC   C1A63915  20.529   8.812   6.103
 5016POPC   D2A63916  20.424   8.655   6.515
 5016POPC   C3A63917  20.540   8.860   6.890
 5016POPC   C4A63918  20.391   8.989   7.279
 5016POPC   C1B63919  20.684   9.321   6.161
 5016POPC   C2B63920  20.603   9.321   6.582
 5016POPC   C3B63921  20.603   9.382   7.003
 5016POPC   C4B63922  20.860   9.186   7.310
 5017POPC   NC363923  37.145  18.778   5.549
 5017POPC   PO463924  37.584  19.341   5.528
 5017POPC   GL163925  37.903  19.206   5.902
 5017POPC   GL263926  37.992  18.828   5.873
 5017POPC   C1A63927  37.962  19.061   6.333
 5017POPC   D2A63928  37.768  18.794   6.654
 5017POPC   C3A63929  37.680  18.945   7.085
 5017POPC   C4A63930  37.511  19.162   7.459
 5017POPC   C1B63931  38.089  18.573   6.286
 5017POPC   C2B63932  38.187  18.515   6.763
 5017POPC   C3B63933  38.037  18.599   7.221
 5017POPC   C4B63934  37.919  18.888   7.603
 5018POPC   NC363935  29.541  19.217   5.297
 5018POPC   PO463936  29.994  18.805   5.529
 5018POPC   GL163937  29.995  19.074   5.903
 5018POPC   GL263938  30.318  19.151   6.061
 5018POPC   C1A63939  29.892  19.195   6.336
 5018POPC   D2A63940  30.070  19.053   6.723
 5018POPC   C3A63941  29.799  19.037   7.069
 5018POPC   C4A63942  29.836  19.380   7.355
 5018POPC   C1B63943  30.129  18.765   6.290
 5018POPC   C2B63944  30.057  18.543   6.694
 5018POPC   C3B63945  30.219  18.700   7.079
 5018POPC   C4B63946  30.140  18.957   7.458
 5019POPC   NC363947  26.471  25.583   5.314
 5019POPC   PO463948  27.006  25.134   5.404
 5019POPC   GL163949  26.809  25.147   5.785
 5019POPC   GL263950  26.458  25.262   5.723
 5019POPC   C1A63951  26.963  25.118   6.206
 5019POPC   D2A63952  26.852  25.112   6.624
 5019POPC   C3A63953  27.096  25.357   6.876
 5019POPC   C4A63954  26.930  25.225   7.264
 5019POPC   C1B63955  26.329  25.152   6.164
 5019POPC   C2B63956  26.351  25.230   6.633
 5019POPC   C3B63957  26.457  25.103   7.063
 5019POPC   C4B63958  26.478  25.365   7.441
 5020POPC   NC363959  39.977  33.394   5.391
 5020POPC   PO463960  40.189  34.096   5.540
 5020POPC   GL163961  39.922  33.950   5.862
 5020POPC   GL263962  39.876  33.604   5.836
 5020POPC   C1A63963  40.020  33.902   6.296
 5020POPC   D2A63964  39.988  34.080   6.693
 5020POPC   C3A63965  40.214  33.836   6.967
 5020POPC   C4A63966  40.197  33.712   7.378
 5020POPC   C1B63967  39.644  33.582   6.215
 5020POPC   C2B63968  39.800  33.563   6.662
 5020POPC   C3B63969  39.738  33.695   7.094
 5020POPC   C4B63970  39.550  33.496   7.447
 5021POPC   NC363971   2.918   9.353   5.220
 5021POPC   PO463972   3.280   8.840   5.532
 5021POPC   GL163973   2.899   9.044   5.788
 5021POPC   GL263974   2.594   9.309   5.712
 5021POPC   C1A63975   2.642   8.810   6.125
 5021POPC   D2A63976   2.431   8.738   6.542
 5021POPC   C3A63977   2.748   8.827   6.815
 5021POPC   C4A63978   3.080   8.848   7.147
 5021POPC   C1B63979   2.562   9.331   6.152
 5021POPC   C2B63980   2.825   9.278   6.517
 5021POPC   C3B63981   2.884   9.301   6.964
 5021POPC   C4B63982   2.627   9.044   7.252
 5022POPC   NC363983  21.906  12.900   5.147
 5022POPC   PO463984  21.351  13.030   5.516
 5022POPC   GL163985  21.382  12.816   5.918
 5022POPC   GL263986  21.725  12.714   6.093
 5022POPC   C1A63987  21.238  12.873   6.331
 5022POPC   D2A63988  21.396  12.665   6.688
 5022POPC   C3A63989  21.213  12.693   7.097
 5022POPC   C4A63990  21.290  12.416   7.473
 5022POPC   C1B63991  21.666  13.157   6.276
 5022POPC   C2B63992  21.609  13.285   6.702
 5022POPC   C3B63993  21.646  12.991   7.043
 5022POPC   C4B63994  21.546  12.837   7.455
 5023POPC   NC363995  40.323   4.041   5.522
 5023POPC   PO463996  39.816   4.402   5.518
 5023POPC   GL163997  40.007   4.374   5.924
 5023POPC   GL263998  40.272   4.159   6.013
 5023POPC   C1A63999  40.051   4.488   6.346
 5023POPC   D2A64000  40.150   4.252   6.709
 5023POPC   C3A64001  40.050   4.458   7.071
 5023POPC   C4A64002  40.062   4.372   7.490
 5023POPC   C1B64003  40.025   3.932   6.305
 5023POPC   C2B64004  39.978   3.742   6.727
 5023POPC   C3B64005  40.146   3.934   7.126
 5023POPC   C4B64006  40.413   3.986   7.479
 5024POPC   NC364007  32.960   5.292   5.482
 5024POPC   PO464008  32.652   4.680   5.602
 5024POPC   GL164009  32.905   4.953   5.881
 5024POPC   GL264010  33.290   4.964   5.878
 5024POPC   C1A64011  32.966   5.040   6.316
 5024POPC   D2A64012  32.808   4.788   6.657
 5024POPC   C3A64013  33.008   4.870   7.030
 5024POPC   C4A64014  32.876   5.210   7.249
 5024POPC   C1B64015  33.426   4.780   6.307
 5024POPC   C2B64016  33.466   4.900   6.781
 5024POPC   C3B64017  33.393   5.213   7.161
 5024POPC   C4B64018  33.598   5.207   7.613
 5025POPC   NC364019  24.176   7.841   5.465
 5025POPC   PO464020  24.418   8.523   5.260
 5025POPC   GL164021  24.463   8.247   5.621
 5025POPC   GL264022  24.242   8.429   5.810
 5025POPC   C1A64023  24.476   8.078   6.070
 5025POPC   D2A64024  24.404   7.957   6.510
 5025POPC   C3A64025  24.491   8.126   6.917
 5025POPC   C4A64026  24.701   8.031   7.264
 5025POPC   C1B64027  24.228   8.553   6.250
 5025POPC   C2B64028  24.366   8.509   6.629
 5025POPC   C3B64029  24.272   8.601   7.061
 5025POPC   C4B64030  24.338   8.725   7.481
 5026POPC   NC364031   7.509  16.440   5.242
 5026POPC   PO464032   7.178  16.957   5.528
 5026POPC   GL164033   7.385  16.696   5.820
 5026POPC   GL264034   7.700  16.581   5.762
 5026POPC   C1A64035   7.368  16.634   6.263
 5026POPC   D2A64036   7.146  16.825   6.620
 5026POPC   C3A64037   7.247  16.608   7.024
 5026POPC   C4A64038   7.164  16.618   7.500
 5026POPC   C1B64039   7.826  16.878   6.114
 5026POPC   C2B64040   7.759  17.033   6.576
 5026POPC   C3B64041   7.793  16.895   7.048
 5026POPC   C4B64042   7.650  16.532   7.326
 5027POPC   NC364043  26.276  27.843   5.517
 5027POPC   PO464044  25.807  27.417   5.316
 5027POPC   GL164045  26.035  27.439   5.737
 5027POPC   GL264046  26.015  27.735   5.927
 5027POPC   C1A64047  26.261  27.422   6.188
 5027POPC   D2A64048  26.154  27.655   6.570
 5027POPC   C3A64049  26.116  27.394   6.934
 5027POPC   C4A64050  26.153  27.191   7.353
 5027POPC   C1B64051  25.723  27.870   6.227
 5027POPC   C2B64052  25.642  27.906   6.654
 5027POPC   C3B64053  25.872  27.828   7.021
 5027POPC   C4B64054  26.208  28.027   7.244
 5028POPC   NC364055  43.238  13.949   5.593
 5028POPC   PO464056  43.377  13.437   5.203
 5028POPC   GL164057  43.335  13.483   5.723
 5028POPC   GL264058  43.498  13.699   5.933
 5028POPC   C1A64059  43.137  13.434   6.173
 5028POPC   D2A64060  42.926  13.292   6.580
 5028POPC   C3A64061  42.956  13.583   6.943
 5028POPC   C4A64062  42.979  13.528   7.391
 5028POPC   C1B64063  43.418  13.865   6.288
 5028POPC   C2B64064  43.196  13.974   6.646
 5028POPC   C3B64065  43.299  13.961   7.055
 5028POPC   C4B64066  43.003  14.148   7.280
 5029POPC   NC364067  13.961  31.547   5.379
 5029POPC   PO464068  13.365  31.799   5.157
 5029POPC   GL164069  13.498  31.747   5.636
 5029POPC   GL264070  13.678  31.423   5.772
 5029POPC   C1A64071  13.441  31.704   6.110
 5029POPC   D2A64072  13.470  31.521   6.540
 5029POPC   C3A64073  13.610  31.626   6.970
 5029POPC   C4A64074  13.471  31.685   7.386
 5029POPC   C1B64075  13.771  31.272   6.202
 5029POPC   C2B64076  13.935  31.301   6.641
 5029POPC   C3B64077  13.824  31.155   7.060
 5029POPC   C4B64078  13.551  31.197   7.419
 5030POPC   NC364079   1.418  26.871   5.024
 5030POPC   PO464080   0.914  26.647   5.457
 5030POPC   GL164081   1.122  26.712   5.851
 5030POPC   GL264082   1.039  26.399   5.987
 5030POPC   C1A64083   1.376  26.957   6.194
 5030POPC   D2A64084   1.535  26.850   6.629
 5030POPC   C3A64085   1.268  26.896   7.007
 5030POPC   C4A64086   1.490  27.001   7.404
 5030POPC   C1B64087   0.977  26.666   6.394
 5030POPC   C2B64088   0.819  26.983   6.733
 5030POPC   C3B64089   0.704  26.999   7.178
 5030POPC   C4B64090   1.001  26.850   7.518
 5031POPC   NC364091  32.373  39.425   5.333
 5031POPC   PO464092  31.802  39.680   5.469
 5031POPC   GL164093  32.038  39.401   5.776
 5031POPC   GL264094  32.420  39.491   5.826
 5031POPC   C1A64095  32.176  39.157   6.151
 5031POPC   D2A64096  32.299  39.164   6.572
 5031POPC   C3A64097  32.387  38.892   6.923
 5031POPC   C4A64098  32.345  39.084   7.327
 5031POPC   C1B64099  32.376  39.658   6.223
 5031POPC   C2B64100  32.464  39.659   6.607
 5031POPC   C3B64101  32.458  39.438   6.973
 5031POPC   C4B64102  32.518  39.568   7.368
 5032POPC   NC364103  35.666   2.338   5.489
 5032POPC   PO464104  35.241   1.753   5.497
 5032POPC   GL164105  35.305   2.051   5.828
 5032POPC   GL264106  34.990   1.920   5.967
 5032POPC   C1A64107  35.251   2.282   6.234
 5032POPC   D2A64108  34.960   2.218   6.613
 5032POPC   C3A64109  35.197   2.007   6.941
 5032POPC   C4A64110  35.477   2.290   7.151
 5032POPC   C1B64111  35.259   1.671   6.227
 5032POPC   C2B64112  35.257   1.395   6.604
 5032POPC   C3B64113  35.072   1.505   7.018
 5032POPC   C4B64114  35.070   1.736   7.417
 5033POPC   NC364115  25.503  17.660   5.045
 5033POPC   PO464116  25.349  18.300   5.372
 5033POPC   GL164117  25.415  18.301   5.800
 5033POPC   GL264118  25.760  18.324   5.805
 5033POPC   C1A64119  25.237  18.187   6.208
 5033POPC   D2A64120  25.119  18.281   6.629
 5033POPC   C3A64121  25.345  18.186   7.006
 5033POPC   C4A64122  25.135  18.322   7.363
 5033POPC   C1B64123  25.652  18.521   6.211
 5033POPC   C2B64124  25.660  18.447   6.659
 5033POPC   C3B64125  25.720  18.532   7.111
 5033POPC   C4B64126  25.634  18.289   7.472
 5034POPC   NC364127  39.141  16.805   5.438
 5034POPC   PO464128  39.696  16.401   5.500
 5034POPC   GL164129  39.440  16.547   5.843
 5034POPC   GL264130  39.480  16.905   5.899
 5034POPC   C1A64131  39.034  16.646   6.074
 5034POPC   D2A64132  38.927  16.798   6.499
 5034POPC   C3A64133  39.150  16.607   6.865
 5034POPC   C4A64134  39.030  16.706   7.312
 5034POPC   C1B64135  39.445  16.790   6.349
 5034POPC   C2B64136  39.600  16.866   6.768
 5034POPC   C3B64137  39.526  16.751   7.205
 5034POPC   C4B64138  39.632  16.552   7.603
 5035POPC   NC364139   9.324  34.310   5.497
 5035POPC   PO464140   9.314  35.018   5.422
 5035POPC   GL164141   9.078  34.824   5.792
 5035POPC   GL264142   8.942  34.509   5.758
 5035POPC   C1A64143   8.909  34.728   6.236
 5035POPC   D2A64144   8.947  34.479   6.624
 5035POPC   C3A64145   8.903  34.672   7.021
 5035POPC   C4A64146   8.644  34.751   7.390
 5035POPC   C1B64147   9.050  34.227   6.121
 5035POPC   C2B64148   9.159  34.031   6.550
 5035POPC   C3B64149   9.069  34.158   7.021
 5035POPC   C4B64150   8.938  34.332   7.451
 5036POPC   NC364151   9.224   0.303   5.449
 5036POPC   PO464152   9.894   0.572   5.501
 5036POPC   GL164153   9.568   0.554   5.851
 5036POPC   GL264154   9.561   0.213   5.857
 5036POPC   C1A64155   9.570   0.645   6.326
 5036POPC   D2A64156   9.518   0.714   6.792
 5036POPC   C3A64157   9.858   0.650   7.035
 5036POPC   C4A64158  10.015   0.323   7.269
 5036POPC   C1B64159   9.727   0.076   6.248
 5036POPC   C2B64160   9.732   0.254   6.674
 5036POPC   C3B64161   9.569   0.164   7.081
 5036POPC   C4B64162   9.593   0.205   7.531
 5037POPC   NC364163   2.326  31.952   5.634
 5037POPC   PO464164   2.035  31.458   5.292
 5037POPC   GL164165   2.048  31.411   5.776
 5037POPC   GL264166   2.135  31.674   6.009
 5037POPC   C1A64167   1.981  31.146   6.176
 5037POPC   D2A64168   2.206  31.085   6.580
 5037POPC   C3A64169   2.249  31.436   6.865
 5037POPC   C4A64170   2.135  31.433   7.282
 5037POPC   C1B64171   1.730  31.598   6.217
 5037POPC   C2B64172   1.571  31.505   6.660
 5037POPC   C3B64173   1.660  31.455   7.099
 5037POPC   C4B64174   1.738  31.811   7.385
 5038POPC   NC364175  17.068  36.431   5.241
 5038POPC   PO464176  16.480  36.164   5.339
 5038POPC   GL164177  16.790  36.174   5.700
 5038POPC   GL264178  16.834  36.530   5.714
 5038POPC   C1A64179  16.743  36.109   6.167
 5038POPC   D2A64180  16.379  36.035   6.454
 5038POPC   C3A64181  16.405  36.158   6.880
 5038POPC   C4A64182  16.715  36.154   7.203
 5038POPC   C1B64183  16.657  36.643   6.113
 5038POPC   C2B64184  16.799  36.656   6.532
 5038POPC   C3B64185  16.611  36.662   6.919
 5038POPC   C4B64186  16.792  36.659   7.312
 5039POPC   NC364187  35.548  26.719   5.275
 5039POPC   PO464188  35.205  27.267   5.417
 5039POPC   GL164189  35.203  26.936   5.746
 5039POPC   GL264190  35.325  26.561   5.701
 5039POPC   C1A64191  35.468  27.006   6.110
 5039POPC   D2A64192  35.766  26.978   6.457
 5039POPC   C3A64193  35.592  27.052   6.854
 5039POPC   C4A64194  35.568  26.975   7.341
 5039POPC   C1B64195  35.192  26.556   6.126
 5039POPC   C2B64196  35.296  26.744   6.523
 5039POPC   C3B64197  35.390  26.591   6.913
 5039POPC   C4B64198  35.209  26.619   7.285
 5040POPC   NC364199   8.820  10.769   5.419
 5040POPC   PO464200   8.935  10.121   5.352
 5040POPC   GL164201   8.995  10.398   5.792
 5040POPC   GL264202   8.950  10.784   5.898
 5040POPC   C1A64203   9.185  10.528   6.238
 5040POPC   D2A64204   9.046  10.659   6.636
 5040POPC   C3A64205   9.268  10.511   6.999
 5040POPC   C4A64206   8.962  10.230   7.201
 5040POPC   C1B64207   8.632  10.964   6.163
 5040POPC   C2B64208   8.461  10.840   6.568
 5040POPC   C3B64209   8.661  10.897   6.923
 5040POPC   C4B64210   8.869  10.717   7.228
 5041POPC   NC364211   3.001  41.173   5.530
 5041POPC   PO464212   3.242  40.586   5.308
 5041POPC   GL164213   2.900  40.607   5.655
 5041POPC   GL264214   2.612  40.792   5.742
 5041POPC   C1A64215   2.955  40.666   6.120
 5041POPC   D2A64216   2.773  40.684   6.549
 5041POPC   C3A64217   2.945  40.430   6.884
 5041POPC   C4A64218   2.824  40.611   7.272
 5041POPC   C1B64219   2.533  40.962   6.165
 5041POPC   C2B64220   2.318  40.916   6.579
 5041POPC   C3B64221   2.525  40.966   6.998
 5041POPC   C4B64222   2.512  40.977   7.453
 5042POPC   NC364223  22.989   6.162   5.377
 5042POPC   PO464224  22.556   5.623   5.376
 5042POPC   GL164225  22.832   5.818   5.715
 5042POPC   GL264226  22.825   6.192   5.844
 5042POPC   C1A64227  23.182   5.883   6.041
 5042POPC   D2A64228  23.303   5.769   6.469
 5042POPC   C3A64229  23.055   5.749   6.863
 5042POPC   C4A64230  23.086   6.077   7.156
 5042POPC   C1B64231  22.688   5.968   6.168
 5042POPC   C2B64232  22.857   6.058   6.524
 5042POPC   C3B64233  22.674   6.126   6.885
 5042POPC   C4B64234  22.592   5.850   7.206
 5043POPC   NC364235  18.229  34.906   5.329
 5043POPC   PO464236  18.705  34.307   5.291
 5043POPC   GL164237  18.480  34.638   5.646
 5043POPC   GL264238  18.549  34.826   5.893
 5043POPC   C1A64239  18.123  34.643   6.048
 5043POPC   D2A64240  18.035  34.915   6.416
 5043POPC   C3A64241  18.197  34.809   6.847
 5043POPC   C4A64242  18.111  34.605   7.253
 5043POPC   C1B64243  18.556  34.705   6.350
 5043POPC   C2B64244  18.706  34.708   6.796
 5043POPC   C3B64245  18.637  34.727   7.265
 5043POPC   C4B64246  18.536  34.922   7.698
 5044POPC   NC364247  21.576  35.034   5.564
 5044POPC   PO464248  21.307  34.415   5.537
 5044POPC   GL164249  21.115  34.504   5.911
 5044POPC   GL264250  21.178  34.842   5.895
 5044POPC   C1A64251  21.147  34.528   6.346
 5044POPC   D2A64252  20.967  34.410   6.751
 5044POPC   C3A64253  21.261  34.559   7.061
 5044POPC   C4A64254  21.399  34.633   7.464
 5044POPC   C1B64255  21.503  34.903   6.197
 5044POPC   C2B64256  21.552  35.036   6.610
 5044POPC   C3B64257  21.688  34.872   6.966
 5044POPC   C4B64258  21.693  35.075   7.315
 5045POPC   NC364259  16.334   9.213   5.449
 5045POPC   PO464260  15.718   8.997   5.329
 5045POPC   GL164261  15.924   9.032   5.722
 5045POPC   GL264262  16.032   9.370   5.862
 5045POPC   C1A64263  15.831   8.961   6.148
 5045POPC   D2A64264  15.882   8.855   6.579
 5045POPC   C3A64265  15.755   9.138   6.930
 5045POPC   C4A64266  15.791   9.167   7.384
 5045POPC   C1B64267  16.221   9.290   6.300
 5045POPC   C2B64268  16.315   9.099   6.706
 5045POPC   C3B64269  16.156   8.825   7.039
 5045POPC   C4B64270  16.287   9.067   7.349
 5046POPC   NC364271  16.695  35.750   5.420
 5046POPC   PO464272  16.975  35.073   5.482
 5046POPC   GL164273  16.729  35.304   5.793
 5046POPC   GL264274  16.856  35.659   5.904
 5046POPC   C1A64275  16.484  35.131   6.128
 5046POPC   D2A64276  16.378  35.205   6.579
 5046POPC   C3A64277  16.792  35.234   6.803
 5046POPC   C4A64278  16.763  35.128   7.226
 5046POPC   C1B64279  16.591  35.601   6.305
 5046POPC   C2B64280  16.542  35.670   6.785
 5046POPC   C3B64281  16.685  35.647   7.216
 5046POPC   C4B64282  16.642  35.813   7.657
 5047POPC   NC364283  26.282   6.290   5.312
 5047POPC   PO464284  25.951   5.632   5.408
 5047POPC   GL164285  26.002   5.911   5.769
 5047POPC   GL264286  25.707   6.108   5.883
 5047POPC   C1A64287  26.181   5.833   6.195
 5047POPC   D2A64288  26.336   5.752   6.618
 5047POPC   C3A64289  26.322   5.890   7.054
 5047POPC   C4A64290  26.060   5.735   7.351
 5047POPC   C1B64291  25.666   5.741   6.156
 5047POPC   C2B64292  25.787   5.776   6.575
 5047POPC   C3B64293  25.910   6.085   6.844
 5047POPC   C4B64294  25.771   6.166   7.254
 5048POPC   NC364295  24.770  29.133   5.665
 5048POPC   PO464296  25.211  29.151   5.176
 5048POPC   GL164297  25.336  29.141   5.669
 5048POPC   GL264298  25.155  28.930   5.929
 5048POPC   C1A64299  25.522  29.250   6.078
 5048POPC   D2A64300  25.407  29.215   6.519
 5048POPC   C3A64301  25.368  29.471   6.875
 5048POPC   C4A64302  25.212  29.386   7.250
 5048POPC   C1B64303  25.331  28.748   6.277
 5048POPC   C2B64304  25.136  28.782   6.613
 5048POPC   C3B64305  25.166  28.995   6.933
 5048POPC   C4B64306  25.410  28.840   7.242
 5049POPC   NC364307   3.893   2.423   5.450
 5049POPC   PO464308   3.583   3.037   5.424
 5049POPC   GL164309   3.572   2.714   5.737
 5049POPC   GL264310   3.296   2.851   5.950
 5049POPC   C1A64311   3.761   2.615   6.093
 5049POPC   D2A64312   3.567   2.712   6.478
 5049POPC   C3A64313   3.705   2.626   6.866
 5049POPC   C4A64314   3.719   2.980   7.150
 5049POPC   C1B64315   3.309   2.412   6.147
 5049POPC   C2B64316   3.240   2.225   6.546
 5049POPC   C3B64317   3.196   2.328   6.993
 5049POPC   C4B64318   3.438   2.571   7.293
 5050POPC   NC364319  30.404  11.837   5.584
 5050POPC   PO464320  30.795  11.237   5.547
 5050POPC   GL164321  30.599  11.362   5.896
 5050POPC   GL264322  30.288  11.517   5.944
 5050POPC   C1A64323  30.701  11.422   6.309
 5050POPC   D2A64324  31.014  11.260   6.574
 5050POPC   C3A64325  30.812  11.229   6.982
 5050POPC   C4A64326  30.795  11.596   7.191
 5050POPC   C1B64327  30.187  11.761   6.267
 5050POPC   C2B64328  30.351  11.720   6.665
 5050POPC   C3B64329  30.315  11.748   7.081
 5050POPC   C4B64330  30.301  11.709   7.521
 5051POPC   NC364331  20.098   4.250   5.634
 5051POPC   PO464332  20.733   4.451   5.420
 5051POPC   GL164333  20.682   4.451   5.851
 5051POPC   GL264334  20.379   4.621   5.886
 5051POPC   C1A64335  20.644   4.177   6.206
 5051POPC   D2A64336  20.806   4.111   6.625
 5051POPC   C3A64337  20.605   4.351   6.935
 5051POPC   C4A64338  20.742   4.514   7.322
 5051POPC   C1B64339  20.487   4.649   6.325
 5051POPC   C2B64340  20.359   4.766   6.726
 5051POPC   C3B64341  20.295   4.731   7.180
 5051POPC   C4B64342  20.262   4.338   7.401
 5052POPC   NC364343  27.333  26.067   5.165
 5052POPC   PO464344  26.650  26.098   5.387
 5052POPC   GL164345  26.738  26.010   5.765
 5052POPC   GL264346  26.815  25.671   5.701
 5052POPC   C1A64347  26.897  26.005   6.182
 5052POPC   D2A64348  26.884  26.198   6.584
 5052POPC   C3A64349  27.067  25.968   6.918
 5052POPC   C4A64350  27.055  26.247   7.264
 5052POPC   C1B64351  26.645  25.558   6.099
 5052POPC   C2B64352  26.744  25.629   6.529
 5052POPC   C3B64353  26.642  25.562   6.941
 5052POPC   C4B64354  26.782  25.768   7.305
 5053POPC   NC364355  14.182   3.778   5.273
 5053POPC   PO464356  14.569   3.287   5.330
 5053POPC   GL164357  14.718   3.384   5.758
 5053POPC   GL264358  14.875   3.109   5.909
 5053POPC   C1A64359  14.550   3.668   6.109
 5053POPC   D2A64360  14.552   3.926   6.494
 5053POPC   C3A64361  14.273   3.785   6.805
 5053POPC   C4A64362  14.300   3.713   7.246
 5053POPC   C1B64363  14.632   3.173   6.239
 5053POPC   C2B64364  14.577   3.414   6.578
 5053POPC   C3B64365  14.506   3.334   6.979
 5053POPC   C4B64366  14.181   3.239   7.278
 5054POPC   NC364367  30.361   0.621   5.542
 5054POPC   PO464368  29.871   0.206   5.302
 5054POPC   GL164369  30.020   0.290   5.727
 5054POPC   GL264370  30.392   0.194   5.822
 5054POPC   C1A64371  29.905   0.558   6.074
 5054POPC   D2A64372  29.833   0.458   6.501
 5054POPC   C3A64373  29.882   0.718   6.860
 5054POPC   C4A64374  29.938   0.583   7.256
 5054POPC   C1B64375  30.154   0.136   6.211
 5054POPC   C2B64376  30.123   0.061   6.632
 5054POPC   C3B64377  30.258   0.227   6.980
 5054POPC   C4B64378  30.394   0.271   7.378
 5055POPC   NC364379  12.619  13.969   5.361
 5055POPC   PO464380  13.068  13.464   5.526
 5055POPC   GL164381  12.759  13.442   5.858
 5055POPC   GL264382  12.565  13.784   5.834
 5055POPC   C1A64383  12.796  13.459   6.331
 5055POPC   D2A64384  13.106  13.576   6.658
 5055POPC   C3A64385  12.892  13.579   7.053
 5055POPC   C4A64386  12.581  13.279   7.146
 5055POPC   C1B64387  12.466  13.970   6.235
 5055POPC   C2B64388  12.568  13.835   6.648
 5055POPC   C3B64389  12.556  13.977   7.054
 5055POPC   C4B64390  12.807  14.146   7.396
 5056POPC   NC364391  13.341  23.321   5.336
 5056POPC   PO464392  12.831  22.876   5.341
 5056POPC   GL164393  12.826  22.805   5.808
 5056POPC   GL264394  12.746  22.472   5.969
 5056POPC   C1A64395  12.777  22.926   6.245
 5056POPC   D2A64396  12.998  23.035   6.627
 5056POPC   C3A64397  12.895  22.751   6.963
 5056POPC   C4A64398  12.690  22.823   7.359
 5056POPC   C1B64399  13.150  22.561   6.137
 5056POPC   C2B64400  13.284  22.604   6.549
 5056POPC   C3B64401  13.365  22.468   6.937
 5056POPC   C4B64402  13.240  22.636   7.323
 5057POPC   NC364403  43.240  42.795   5.376
 5057POPC   PO464404  42.846  43.314   5.659
 5057POPC   GL164405  42.956  42.941   5.812
 5057POPC   GL264406  43.264  43.036   5.804
 5057POPC   C1A64407  43.077  42.813   6.230
 5057POPC   D2A64408  43.134  42.649   6.652
 5057POPC   C3A64409  43.071  42.910   7.048
 5057POPC   C4A64410  43.000  43.358   7.181
 5057POPC   C1B64411  43.355  43.254   6.159
 5057POPC   C2B64412  43.248  43.170   6.577
 5057POPC   C3B64413  43.436  43.343   6.918
 5057POPC   C4B64414  43.552  43.084   7.211
 5058POPC   NC364415  26.832  12.511   5.281
 5058POPC   PO464416  26.871  11.788   5.345
 5058POPC   GL164417  26.742  12.026   5.722
 5058POPC   GL264418  26.828  12.372   5.765
 5058POPC   C1A64419  26.651  12.127   6.169
 5058POPC   D2A64420  26.909  11.963   6.502
 5058POPC   C3A64421  26.839  12.156   6.879
 5058POPC   C4A64422  26.712  12.038   7.277
 5058POPC   C1B64423  27.092  12.391   6.136
 5058POPC   C2B64424  27.039  12.523   6.572
 5058POPC   C3B64425  27.258  12.445   6.927
 5058POPC   C4B64426  27.162  12.241   7.292
 5059POPC   NC364427  31.686  44.886   5.207
 5059POPC   PO464428  31.846   0.428   5.609
 5059POPC   GL164429  31.509   0.386   5.870
 5059POPC   GL264430  31.305   0.711   5.943
 5059POPC   C1A64431  31.556   0.381   6.315
 5059POPC   D2A64432  31.940   0.292   6.580
 5059POPC   C3A64433  31.829   0.308   7.021
 5059POPC   C4A64434  31.688   0.712   7.190
 5059POPC   C1B64435  31.074   0.805   6.292
 5059POPC   C2B64436  31.147   0.538   6.634
 5059POPC   C3B64437  31.243   0.463   7.079
 5059POPC   C4B64438  31.456   0.226   7.393
 5060POPC   NC364439  20.213  12.075   5.169
 5060POPC   PO464440  20.863  12.164   5.406
 5060POPC   GL164441  20.668  11.933   5.760
 5060POPC   GL264442  20.339  12.066   5.791
 5060POPC   C1A64443  20.529  11.864   6.217
 5060POPC   D2A64444  20.549  12.140   6.573
 5060POPC   C3A64445  20.617  12.055   7.001
 5060POPC   C4A64446  20.606  11.935   7.440
 5060POPC   C1B64447  20.658  12.345   6.069
 5060POPC   C2B64448  20.852  12.543   6.447
 5060POPC   C3B64449  20.739  12.572   6.879
 5060POPC   C4B64450  20.826  12.418   7.287
 5061POPC   NC364451  40.378  21.259   5.572
 5061POPC   PO464452  39.677  21.616   5.441
 5061POPC   GL164453  40.017  21.546   5.767
 5061POPC   GL264454  39.839  21.324   5.830
 5061POPC   C1A64455  40.179  21.362   6.193
 5061POPC   D2A64456  40.057  21.398   6.609
 5061POPC   C3A64457  40.177  21.348   7.000
 5061POPC   C4A64458  40.101  21.495   7.395
 5061POPC   C1B64459  39.697  21.091   6.099
 5061POPC   C2B64460  39.776  21.011   6.498
 5061POPC   C3B64461  39.694  21.170   6.918
 5061POPC   C4B64462  39.823  21.068   7.322
 5062POPC   NC364463  33.991  30.399   5.190
 5062POPC   PO464464  33.583  30.939   5.212
 5062POPC   GL164465  33.787  30.582   5.615
 5062POPC   GL264466  33.560  30.469   5.899
 5062POPC   C1A64467  34.028  30.576   6.085
 5062POPC   D2A64468  34.081  30.926   6.453
 5062POPC   C3A64469  33.862  31.024   6.849
 5062POPC   C4A64470  33.937  30.820   7.266
 5062POPC   C1B64471  33.622  30.691   6.352
 5062POPC   C2B64472  33.805  30.539   6.758
 5062POPC   C3B64473  33.652  30.396   7.154
 5062POPC   C4B64474  33.552  30.554   7.546
 5063POPC   NC364475  42.312  29.507   5.750
 5063POPC   PO464476  42.381  29.965   5.221
 5063POPC   GL164477  42.377  30.022   5.669
 5063POPC   GL264478  42.019  30.002   5.691
 5063POPC   C1A64479  42.295  30.126   6.119
 5063POPC   D2A64480  42.312  30.328   6.534
 5063POPC   C3A64481  42.442  30.035   6.879
 5063POPC   C4A64482  42.325  30.005   7.336
 5063POPC   C1B64483  41.853  29.809   6.102
 5063POPC   C2B64484  41.962  29.953   6.520
 5063POPC   C3B64485  41.940  30.006   6.967
 5063POPC   C4B64486  42.028  29.598   7.150
 5064POPC   NC364487  42.904   8.853   5.321
 5064POPC   PO464488  43.442   9.218   5.548
 5064POPC   GL164489  43.286   9.073   5.898
 5064POPC   GL264490  42.919   9.035   5.830
 5064POPC   C1A64491  43.148   9.219   6.275
 5064POPC   D2A64492  43.011   9.030   6.618
 5064POPC   C3A64493  43.227   9.075   6.997
 5064POPC   C4A64494  43.337   8.722   7.235
 5064POPC   C1B64495  42.968   8.719   6.152
 5064POPC   C2B64496  42.796   8.586   6.549
 5064POPC   C3B64497  42.809   8.729   6.978
 5064POPC   C4B64498  42.860   8.946   7.368
 5065POPC   NC364499  18.648  16.845   5.458
 5065POPC   PO464500  19.223  16.582   5.289
 5065POPC   GL164501  19.017  16.576   5.742
 5065POPC   GL264502  18.703  16.726   5.935
 5065POPC   C1A64503  19.077  16.513   6.195
 5065POPC   D2A64504  18.936  16.634   6.600
 5065POPC   C3A64505  19.193  16.807   6.922
 5065POPC   C4A64506  19.196  16.516   7.204
 5065POPC   C1B64507  18.838  17.023   6.255
 5065POPC   C2B64508  18.969  17.167   6.640
 5065POPC   C3B64509  18.872  17.200   7.042
 5065POPC   C4B64510  18.853  16.914   7.318
 5066POPC   NC364511   7.659   6.952   5.432
 5066POPC   PO464512   7.383   6.294   5.442
 5066POPC   GL164513   7.432   6.595   5.728
 5066POPC   GL264514   7.806   6.584   5.751
 5066POPC   C1A64515   7.235   6.689   6.106
 5066POPC   D2A64516   7.260   6.467   6.488
 5066POPC   C3A64517   7.240   6.648   6.896
 5066POPC   C4A64518   7.115   6.373   7.233
 5066POPC   C1B64519   7.755   6.532   6.185
 5066POPC   C2B64520   7.660   6.814   6.514
 5066POPC   C3B64521   7.721   6.830   6.930
 5066POPC   C4B64522   7.610   6.571   7.244
 5067POPC   NC364523  32.882  11.607   5.670
 5067POPC   PO464524  33.018  12.045   5.134
 5067POPC   GL164525  33.026  12.144   5.595
 5067POPC   GL264526  33.362  12.142   5.759
 5067POPC   C1A64527  32.920  12.282   6.029
 5067POPC   D2A64528  32.817  12.056   6.421
 5067POPC   C3A64529  32.826  12.134   6.871
 5067POPC   C4A64530  32.744  11.895   7.253
 5067POPC   C1B64531  33.381  12.055   6.218
 5067POPC   C2B64532  33.310  12.063   6.663
 5067POPC   C3B64533  33.219  11.874   7.054
 5067POPC   C4B64534  33.180  12.010   7.505
 5068POPC   NC364535  31.101  37.950   5.658
 5068POPC   PO464536  30.701  37.457   5.364
 5068POPC   GL164537  30.684  37.600   5.801
 5068POPC   GL264538  30.443  37.891   5.811
 5068POPC   C1A64539  30.648  37.435   6.251
 5068POPC   D2A64540  30.371  37.449   6.646
 5068POPC   C3A64541  30.647  37.438   7.033
 5068POPC   C4A64542  30.991  37.567   7.301
 5068POPC   C1B64543  30.683  37.931   6.218
 5068POPC   C2B64544  30.622  37.893   6.674
 5068POPC   C3B64545  30.833  37.982   7.055
 5068POPC   C4B64546  31.002  38.059   7.489
 5069POPC   NC364547  34.227  29.006   5.369
 5069POPC   PO464548  34.616  29.483   5.196
 5069POPC   GL164549  34.615  29.133   5.642
 5069POPC   GL264550  34.815  28.990   5.776
 5069POPC   C1A64551  34.499  29.120   6.145
 5069POPC   D2A64552  34.279  29.297   6.533
 5069POPC   C3A64553  34.450  29.249   6.976
 5069POPC   C4A64554  34.425  28.863   7.226
 5069POPC   C1B64555  34.953  29.352   6.074
 5069POPC   C2B64556  35.074  29.368   6.518
 5069POPC   C3B64557  34.997  29.069   6.870
 5069POPC   C4B64558  34.860  29.137   7.284
 5070POPC   NC364559  36.973  21.994   5.442
 5070POPC   PO464560  36.537  22.481   5.611
 5070POPC   GL164561  36.956  22.361   5.812
 5070POPC   GL264562  37.161  22.040   5.904
 5070POPC   C1A64563  36.926  22.370   6.235
 5070POPC   D2A64564  36.651  22.296   6.579
 5070POPC   C3A64565  36.727  22.432   6.982
 5070POPC   C4A64566  36.880  22.243   7.372
 5070POPC   C1B64567  37.061  21.855   6.267
 5070POPC   C2B64568  36.778  21.798   6.599
 5070POPC   C3B64569  36.842  21.924   6.972
 5070POPC   C4B64570  36.950  21.737   7.355
 5071POPC   NC364571  39.758   1.999   5.457
 5071POPC   PO464572  40.026   2.641   5.292
 5071POPC   GL164573  39.950   2.373   5.712
 5071POPC   GL264574  40.261   2.196   5.758
 5071POPC   C1A64575  39.853   2.117   6.144
 5071POPC   D2A64576  39.887   2.295   6.613
 5071POPC   C3A64577  40.009   2.105   7.062
 5071POPC   C4A64578  39.904   1.987   7.530
 5071POPC   C1B64579  40.336   2.174   6.218
 5071POPC   C2B64580  40.286   1.933   6.598
 5071POPC   C3B64581  40.529   1.919   6.967
 5071POPC   C4B64582  40.382   1.924   7.381
 5072POPC   NC364583  34.435  15.568   5.324
 5072POPC   PO464584  34.770  14.999   5.575
 5072POPC   GL164585  34.680  15.145   5.937
 5072POPC   GL264586  34.357  15.158   5.908
 5072POPC   C1A64587  34.653  15.228   6.343
 5072POPC   D2A64588  34.616  15.385   6.727
 5072POPC   C3A64589  34.904  15.194   6.997
 5072POPC   C4A64590  34.668  15.336   7.321
 5072POPC   C1B64591  34.382  14.814   6.267
 5072POPC   C2B64592  34.635  14.837   6.679
 5072POPC   C3B64593  34.519  14.860   7.109
 5072POPC   C4B64594  34.137  14.864   7.365
 5073POPC   NC364595   5.878  29.532   5.387
 5073POPC   PO464596   5.656  30.132   5.254
 5073POPC   GL164597   5.805  29.932   5.695
 5073POPC   GL264598   6.065  29.699   5.832
 5073POPC   C1A64599   5.680  29.746   6.143
 5073POPC   D2A64600   5.771  29.961   6.542
 5073POPC   C3A64601   5.770  29.822   6.973
 5073POPC   C4A64602   5.796  30.122   7.296
 5073POPC   C1B64603   6.141  29.996   6.170
 5073POPC   C2B64604   6.291  29.944   6.617
 5073POPC   C3B64605   6.263  29.945   7.074
 5073POPC   C4B64606   6.069  29.693   7.402
 5074POPC   NC364607   5.538  23.943   5.586
 5074POPC   PO464608   5.006  23.448   5.458
 5074POPC   GL164609   5.186  23.648   5.818
 5074POPC   GL264610   5.044  23.952   5.804
 5074POPC   C1A64611   5.316  23.781   6.231
 5074POPC   D2A64612   5.066  23.689   6.585
 5074POPC   C3A64613   5.303  23.709   6.946
 5074POPC   C4A64614   5.054  23.791   7.222
 5074POPC   C1B64615   4.841  23.957   6.198
 5074POPC   C2B64616   4.708  24.106   6.611
 5074POPC   C3B64617   4.797  24.184   7.051
 5074POPC   C4B64618   4.573  23.998   7.428
 5075POPC   NC364619  42.927  19.181   5.267
 5075POPC   PO464620  43.456  18.978   5.610
 5075POPC   GL164621  43.216  19.082   5.928
 5075POPC   GL264622  42.915  19.083   5.812
 5075POPC   C1A64623  43.064  19.326   6.260
 5075POPC   D2A64624  43.003  19.175   6.656
 5075POPC   C3A64625  43.225  19.250   7.045
 5075POPC   C4A64626  43.361  18.866   7.286
 5075POPC   C1B64627  42.701  18.937   6.226
 5075POPC   C2B64628  42.621  18.810   6.676
 5075POPC   C3B64629  42.918  18.826   7.030
 5075POPC   C4B64630  42.916  18.639   7.460
 5076POPC   NC364631  20.472  32.794   5.476
 5076POPC   PO464632  21.141  32.941   5.434
 5076POPC   GL164633  20.798  33.002   5.802
 5076POPC   GL264634  20.559  32.755   5.977
 5076POPC   C1A64635  20.626  33.216   6.192
 5076POPC   D2A64636  20.702  33.374   6.625
 5076POPC   C3A64637  20.710  33.273   7.086
 5076POPC   C4A64638  20.532  33.493   7.476
 5076POPC   C1B64639  20.682  32.750   6.417
 5076POPC   C2B64640  20.471  32.875   6.805
 5076POPC   C3B64641  20.164  32.894   7.138
 5076POPC   C4B64642  20.167  33.125   7.543
 5077POPC   NC364643  24.059   9.253   5.627
 5077POPC   PO464644  23.535   8.866   5.520
 5077POPC   GL164645  23.664   8.941   5.943
 5077POPC   GL264646  23.986   8.868   5.954
 5077POPC   C1A64647  23.718   8.664   6.334
 5077POPC   D2A64648  23.592   8.538   6.747
 5077POPC   C3A64649  23.603   8.864   7.079
 5077POPC   C4A64650  23.614   8.721   7.520
 5077POPC   C1B64651  24.062   9.083   6.344
 5077POPC   C2B64652  24.130   9.051   6.809
 5077POPC   C3B64653  24.019   9.073   7.258
 5077POPC   C4B64654  23.976   9.042   7.675
 5078POPC   NC364655  10.861  13.944   5.209
 5078POPC   PO464656  11.453  13.725   5.285
 5078POPC   GL164657  11.421  13.695   5.732
 5078POPC   GL264658  11.551  13.378   5.783
 5078POPC   C1A64659  11.454  13.906   6.170
 5078POPC   D2A64660  11.645  13.847   6.571
 5078POPC   C3A64661  11.419  13.907   6.914
 5078POPC   C4A64662  11.194  13.852   7.275
 5078POPC   C1B64663  11.288  13.441   6.160
 5078POPC   C2B64664  11.351  13.414   6.576
 5078POPC   C3B64665  11.209  13.428   6.984
 5078POPC   C4B64666  11.346  13.189   7.312
 5079POPC   NC364667  28.537  24.818   5.529
 5079POPC   PO464668  28.563  25.489   5.530
 5079POPC   GL164669  28.511  25.274   5.922
 5079POPC   GL264670  28.271  25.008   5.951
 5079POPC   C1A64671  28.444  25.250   6.369
 5079POPC   D2A64672  28.706  25.345   6.705
 5079POPC   C3A64673  28.520  25.328   7.076
 5079POPC   C4A64674  28.477  24.984   7.289
 5079POPC   C1B64675  28.017  25.379   6.127
 5079POPC   C2B64676  27.933  25.406   6.564
 5079POPC   C3B64677  28.014  25.167   6.943
 5079POPC   C4B64678  28.049  25.357   7.321
 5080POPC   NC364679   5.040  34.212   5.562
 5080POPC   PO464680   5.339  33.544   5.720
 5080POPC   GL164681   5.120  33.882   5.969
 5080POPC   GL264682   4.777  34.000   5.923
 5080POPC   C1A64683   4.933  33.877   6.404
 5080POPC   D2A64684   5.128  33.981   6.825
 5080POPC   C3A64685   5.224  33.644   7.121
 5080POPC   C4A64686   5.507  33.270   7.141
 5080POPC   C1B64687   4.556  34.247   6.202
 5080POPC   C2B64688   4.802  34.337   6.565
 5080POPC   C3B64689   4.709  34.219   6.960
 5080POPC   C4B64690   5.003  34.191   7.304
 5081POPC   NC364691  23.012  23.459   5.394
 5081POPC   PO464692  22.878  24.059   5.282
 5081POPC   GL164693  23.036  23.890   5.703
 5081POPC   GL264694  22.929  23.574   5.878
 5081POPC   C1A64695  23.216  23.965   6.114
 5081POPC   D2A64696  22.965  24.017   6.498
 5081POPC   C3A64697  23.091  24.000   6.906
 5081POPC   C4A64698  22.962  23.922   7.300
 5081POPC   C1B64699  23.184  23.461   6.230
 5081POPC   C2B64700  23.089  23.527   6.651
 5081POPC   C3B64701  23.259  23.536   7.040
 5081POPC   C4B64702  23.144  23.380   7.428
 5082POPC   NC364703  22.340  39.457   5.242
 5082POPC   PO464704  22.383  40.076   5.457
 5082POPC   GL164705  22.193  39.863   5.786
 5082POPC   GL264706  22.313  40.145   5.969
 5082POPC   C1A64707  21.938  39.862   6.163
 5082POPC   D2A64708  21.755  39.835   6.562
 5082POPC   C3A64709  22.062  39.847   6.855
 5082POPC   C4A64710  22.033  39.895   7.269
 5082POPC   C1B64711  22.458  39.907   6.272
 5082POPC   C2B64712  22.554  39.826   6.667
 5082POPC   C3B64713  22.509  40.001   7.053
 5082POPC   C4B64714  22.480  39.966   7.485
 5083POPC   NC364715  21.893  41.302   5.526
 5083POPC   PO464716  22.499  41.655   5.417
 5083POPC   GL164717  22.282  41.568   5.809
 5083POPC   GL264718  21.926  41.678   5.899
 5083POPC   C1A64719  22.364  41.403   6.204
 5083POPC   D2A64720  22.163  41.436   6.562
 5083POPC   C3A64721  22.411  41.430   6.898
 5083POPC   C4A64722  22.259  41.755   7.170
 5083POPC   C1B64723  21.725  41.453   6.258
 5083POPC   C2B64724  21.699  41.222   6.650
 5083POPC   C3B64725  21.911  41.365   7.017
 5083POPC   C4B64726  21.807  41.380   7.436
 5084POPC   NC364727  29.434   6.814   5.415
 5084POPC   PO464728  29.912   6.362   5.187
 5084POPC   GL164729  29.856   6.451   5.693
 5084POPC   GL264730  29.760   6.782   5.818
 5084POPC   C1A64731  29.976   6.435   6.181
 5084POPC   D2A64732  30.272   6.622   6.519
 5084POPC   C3A64733  30.136   6.569   6.946
 5084POPC   C4A64734  29.798   6.423   7.183
 5084POPC   C1B64735  29.606   6.792   6.247
 5084POPC   C2B64736  29.685   6.631   6.650
 5084POPC   C3B64737  29.663   6.887   7.003
 5084POPC   C4B64738  29.615   7.179   7.322
 5085POPC   NC364739  41.297  32.497   5.341
 5085POPC   PO464740  40.614  32.326   5.467
 5085POPC   GL164741  40.825  32.230   5.820
 5085POPC   GL264742  41.160  32.174   5.748
 5085POPC   C1A64743  40.809  32.146   6.240
 5085POPC   D2A64744  40.599  31.890   6.489
 5085POPC   C3A64745  40.666  32.044   6.868
 5085POPC   C4A64746  40.650  32.116   7.291
 5085POPC   C1B64747  41.207  32.451   6.148
 5085POPC   C2B64748  41.056  32.525   6.595
 5085POPC   C3B64749  41.198  32.533   7.048
 5085POPC   C4B64750  41.110  32.277   7.422
 5086POPC   NC364751  36.820  40.460   5.373
 5086POPC   PO464752  36.975  41.160   5.234
 5086POPC   GL164753  37.011  40.887   5.628
 5086POPC   GL264754  37.285  40.642   5.582
 5086POPC   C1A64755  36.921  40.730   6.074
 5086POPC   D2A64756  36.780  40.559   6.518
 5086POPC   C3A64757  36.783  40.773   6.928
 5086POPC   C4A64758  36.824  40.936   7.329
 5086POPC   C1B64759  37.314  40.384   5.972
 5086POPC   C2B64760  37.267  40.320   6.449
 5086POPC   C3B64761  37.174  40.433   6.880
 5086POPC   C4B64762  37.253  40.600   7.297
 5087POPC   NC364763  41.092  16.016   5.441
 5087POPC   PO464764  40.495  15.687   5.469
 5087POPC   GL164765  40.642  15.947   5.790
 5087POPC   GL264766  40.958  15.804   5.870
 5087POPC   C1A64767  40.649  15.972   6.243
 5087POPC   D2A64768  40.504  16.149   6.614
 5087POPC   C3A64769  40.656  16.011   7.010
 5087POPC   C4A64770  40.556  15.994   7.442
 5087POPC   C1B64771  41.165  16.021   6.179
 5087POPC   C2B64772  41.048  15.986   6.598
 5087POPC   C3B64773  41.222  16.017   6.985
 5087POPC   C4B64774  41.058  15.993   7.380
 5088POPC   NC364775  37.777  29.169   5.289
 5088POPC   PO464776  37.144  28.911   5.193
 5088POPC   GL164777  37.454  29.099   5.656
 5088POPC   GL264778  37.763  29.287   5.816
 5088POPC   C1A64779  37.495  29.038   6.162
 5088POPC   D2A64780  37.770  29.213   6.519
 5088POPC   C3A64781  37.815  29.037   6.932
 5088POPC   C4A64782  37.684  29.122   7.367
 5088POPC   C1B64783  37.982  29.530   6.180
 5088POPC   C2B64784  38.044  29.667   6.628
 5088POPC   C3B64785  38.044  29.524   7.058
 5088POPC   C4B64786  38.138  29.448   7.475
 5089POPC   NC364787  18.882  41.949   5.466
 5089POPC   PO464788  19.237  41.341   5.429
 5089POPC   GL164789  19.117  41.590   5.806
 5089POPC   GL264790  18.754  41.519   5.827
 5089POPC   C1A64791  19.265  41.752   6.242
 5089POPC   D2A64792  19.059  41.696   6.663
 5089POPC   C3A64793  19.303  41.741   7.052
 5089POPC   C4A64794  19.260  41.493   7.441
 5089POPC   C1B64795  18.762  41.787   6.163
 5089POPC   C2B64796  18.550  41.853   6.533
 5089POPC   C3B64797  18.578  41.641   6.905
 5089POPC   C4B64798  18.831  41.757   7.267
 5090POPC   NC364799  30.864  41.673   5.410
 5090POPC   PO464800  30.786  40.972   5.356
 5090POPC   GL164801  30.752  41.297   5.764
 5090POPC   GL264802  30.709  41.678   5.875
 5090POPC   C1A64803  30.893  41.376   6.227
 5090POPC   D2A64804  30.741  41.243   6.630
 5090POPC   C3A64805  30.827  41.298   7.080
 5090POPC   C4A64806  30.584  41.486   7.445
 5090POPC   C1B64807  30.776  41.923   6.239
 5090POPC   C2B64808  30.891  41.761   6.651
 5090POPC   C3B64809  30.840  41.820   7.097
 5090POPC   C4B64810  30.640  41.994   7.469
 5091POPC   NC364811  40.258  15.314   5.279
 5091POPC   PO464812  40.769  14.805   5.375
 5091POPC   GL164813  40.944  14.926   5.795
 5091POPC   GL264814  41.018  15.294   5.872
 5091POPC   C1A64815  40.783  15.029   6.232
 5091POPC   D2A64816  40.930  15.129   6.658
 5091POPC   C3A64817  40.563  15.175   6.935
 5091POPC   C4A64818  40.612  15.079   7.353
 5091POPC   C1B64819  40.975  15.529   6.313
 5091POPC   C2B64820  40.725  15.607   6.710
 5091POPC   C3B64821  40.840  15.556   7.193
 5091POPC   C4B64822  40.700  15.561   7.673
 5092POPC   NC364823  27.963  36.933   5.669
 5092POPC   PO464824  27.303  36.821   5.315
 5092POPC   GL164825  27.452  36.873   5.755
 5092POPC   GL264826  27.393  37.227   5.863
 5092POPC   C1A64827  27.440  36.693   6.187
 5092POPC   D2A64828  27.377  36.942   6.574
 5092POPC   C3A64829  27.278  36.696   6.939
 5092POPC   C4A64830  27.462  36.602   7.338
 5092POPC   C1B64831  27.704  37.123   6.209
 5092POPC   C2B64832  27.773  37.287   6.624
 5092POPC   C3B64833  27.687  37.061   7.011
 5092POPC   C4B64834  27.843  36.916   7.423
 5093POPC   NC364835  14.880  10.096   5.705
 5093POPC   PO464836  15.202   9.873   5.172
 5093POPC   GL164837  15.133   9.645   5.661
 5093POPC   GL264838  14.827   9.595   5.780
 5093POPC   C1A64839  15.167   9.701   6.154
 5093POPC   D2A64840  14.959   9.960   6.502
 5093POPC   C3A64841  15.021   9.903   6.974
 5093POPC   C4A64842  15.328   9.912   7.339
 5093POPC   C1B64843  14.840   9.306   6.118
 5093POPC   C2B64844  14.821   9.389   6.554
 5093POPC   C3B64845  15.035   9.396   6.977
 5093POPC   C4B64846  14.981   9.561   7.411
 5094POPC   NC364847  11.044  30.486   5.350
 5094POPC   PO464848  10.943  31.172   5.291
 5094POPC   GL164849  10.935  30.902   5.715
 5094POPC   GL264850  11.137  30.575   5.851
 5094POPC   C1A64851  11.003  30.956   6.189
 5094POPC   D2A64852  10.942  30.814   6.625
 5094POPC   C3A64853  11.149  30.795   7.044
 5094POPC   C4A64854  11.096  31.070   7.411
 5094POPC   C1B64855  11.236  30.454   6.327
 5094POPC   C2B64856  11.282  30.216   6.738
 5094POPC   C3B64857  11.131  30.207   7.182
 5094POPC   C4B64858  11.010  30.462   7.535
 5095POPC   NC364859   3.291  44.715   5.021
 5095POPC   PO464860   3.833  44.646   5.381
 5095POPC   GL164861   3.643  44.741   5.804
 5095POPC   GL264862   3.741  44.452   5.926
 5095POPC   C1A64863   3.466  44.862   6.231
 5095POPC   D2A64864   3.474   0.199   6.572
 5095POPC   C3A64865   3.549   0.030   6.998
 5095POPC   C4A64866   3.457  44.659   7.262
 5095POPC   C1B64867   3.923  44.632   6.286
 5095POPC   C2B64868   3.804  44.697   6.704
 5095POPC   C3B64869   3.929  44.536   7.105
 5095POPC   C4B64870   3.873  44.472   7.556
 5096POPC   NC364871   1.434   2.197   5.250
 5096POPC   PO464872   0.843   2.036   5.591
 5096POPC   GL164873   1.059   1.921   5.919
 5096POPC   GL264874   1.362   1.899   5.685
 5096POPC   C1A64875   1.009   2.083   6.353
 5096POPC   D2A64876   1.123   2.350   6.652
 5096POPC   C3A64877   1.284   2.227   7.020
 5096POPC   C4A64878   1.066   2.034   7.340
 5096POPC   C1B64879   1.534   1.720   6.042
 5096POPC   C2B64880   1.266   1.656   6.368
 5096POPC   C3B64881   1.212   1.756   6.785
 5096POPC   C4B64882   1.474   1.788   7.153
 5097POPC   NC364883  28.938   1.404   5.554
 5097POPC   PO464884  29.495   0.999   5.398
 5097POPC   GL164885  29.210   0.998   5.730
 5097POPC   GL264886  29.380   1.322   5.853
 5097POPC   C1A64887  29.086   1.026   6.167
 5097POPC   D2A64888  29.279   1.210   6.535
 5097POPC   C3A64889  29.155   0.982   6.920
 5097POPC   C4A64890  28.748   0.876   7.136
 5097POPC   C1B64891  29.521   1.640   6.189
 5097POPC   C2B64892  29.518   1.716   6.645
 5097POPC   C3B64893  29.284   1.499   6.970
 5097POPC   C4B64894  29.336   1.489   7.395
 5098POPC   NC364895   9.739  28.202   5.384
 5098POPC   PO464896  10.182  28.710   5.376
 5098POPC   GL164897   9.807  28.624   5.719
 5098POPC   GL264898   9.700  28.259   5.867
 5098POPC   C1A64899   9.677  28.648   6.179
 5098POPC   D2A64900   9.530  28.622   6.597
 5098POPC   C3A64901   9.808  28.514   6.934
 5098POPC   C4A64902  10.019  28.833   7.182
 5098POPC   C1B64903   9.638  27.979   6.202
 5098POPC   C2B64904   9.675  28.137   6.604
 5098POPC   C3B64905   9.649  28.017   7.016
 5098POPC   C4B64906   9.341  27.921   7.281
 5099POPC   NC364907  10.216  42.078   5.389
 5099POPC   PO464908  10.572  42.575   5.120
 5099POPC   GL164909  10.622  42.609   5.604
 5099POPC   GL264910  10.515  42.281   5.754
 5099POPC   C1A64911  10.705  42.616   6.085
 5099POPC   D2A64912  10.610  42.743   6.544
 5099POPC   C3A64913  10.650  42.489   6.913
 5099POPC   C4A64914  10.372  42.446   7.292
 5099POPC   C1B64915  10.428  42.180   6.186
 5099POPC   C2B64916  10.578  42.061   6.597
 5099POPC   C3B64917  10.481  42.025   7.027
 5099POPC   C4B64918  10.628  42.033   7.470
 5100POPC   NC364919  39.538  31.068   5.630
 5100POPC   PO464920  39.239  30.581   5.240
 5100POPC   GL164921  39.238  30.655   5.672
 5100POPC   GL264922  39.549  30.549   5.803
 5100POPC   C1A64923  39.124  30.648   6.119
 5100POPC   D2A64924  39.091  30.819   6.548
 5100POPC   C3A64925  39.001  30.597   6.929
 5100POPC   C4A64926  39.162  30.754   7.307
 5100POPC   C1B64927  39.585  30.432   6.226
 5100POPC   C2B64928  39.390  30.357   6.634
 5100POPC   C3B64929  39.480  30.419   7.071
 5100POPC   C4B64930  39.516  30.496   7.563
 5101POPC   NC364931   2.004  22.387   5.684
 5101POPC   PO464932   1.518  21.973   5.392
 5101POPC   GL164933   1.671  22.034   5.809
 5101POPC   GL264934   1.859  21.762   5.922
 5101POPC   C1A64935   1.745  22.142   6.268
 5101POPC   D2A64936   1.702  21.913   6.670
 5101POPC   C3A64937   1.809  22.144   7.058
 5101POPC   C4A64938   2.245  22.337   7.116
 5101POPC   C1B64939   2.152  21.846   6.207
 5101POPC   C2B64940   2.215  22.084   6.565
 5101POPC   C3B64941   2.202  21.841   6.917
 5101POPC   C4B64942   2.155  21.863   7.330
 5102POPC   NC364943  41.034  21.219   5.207
 5102POPC   PO464944  40.583  21.677   5.446
 5102POPC   GL164945  40.660  21.548   5.867
 5102POPC   GL264946  41.002  21.495   5.885
 5102POPC   C1A64947  40.666  21.195   6.174
 5102POPC   D2A64948  40.588  21.406   6.539
 5102POPC   C3A64949  40.674  21.243   6.910
 5102POPC   C4A64950  40.599  21.556   7.195
 5102POPC   C1B64951  41.110  21.427   6.327
 5102POPC   C2B64952  41.050  21.588   6.745
 5102POPC   C3B64953  41.129  21.348   7.127
 5102POPC   C4B64954  40.980  20.956   7.325
 5103POPC   NC364955  15.260  10.432   5.098
 5103POPC   PO464956  15.346  10.113   5.646
 5103POPC   GL164957  15.193  10.414   5.953
 5103POPC   GL264958  14.940  10.669   5.861
 5103POPC   C1A64959  15.119  10.486   6.392
 5103POPC   D2A64960  14.950  10.378   6.809
 5103POPC   C3A64961  15.301  10.364   7.089
 5103POPC   C4A64962  15.530  10.707   7.285
 5103POPC   C1B64963  14.947  10.995   6.209
 5103POPC   C2B64964  15.016  10.981   6.662
 5103POPC   C3B64965  15.044  10.795   7.073
 5103POPC   C4B64966  14.969  10.677   7.506
 5104POPC   NC364967  16.213  23.150   5.502
 5104POPC   PO464968  15.736  22.649   5.564
 5104POPC   GL164969  15.950  22.809   5.918
 5104POPC   GL264970  15.913  23.184   5.962
 5104POPC   C1A64971  15.905  22.877   6.378
 5104POPC   D2A64972  15.807  23.187   6.691
 5104POPC   C3A64973  15.787  22.956   7.093
 5104POPC   C4A64974  15.871  22.514   7.182
 5104POPC   C1B64975  16.163  23.306   6.289
 5104POPC   C2B64976  16.381  23.006   6.511
 5104POPC   C3B64977  16.267  23.097   6.927
 5104POPC   C4B64978  16.014  23.453   7.081
 5105POPC   NC364979  36.617  41.857   5.348
 5105POPC   PO464980  36.068  41.516   5.458
 5105POPC   GL164981  35.925  41.645   5.864
 5105POPC   GL264982  35.708  41.351   5.805
 5105POPC   C1A64983  36.048  41.705   6.321
 5105POPC   D2A64984  36.309  41.705   6.710
 5105POPC   C3A64985  36.173  41.723   7.156
 5105POPC   C4A64986  36.263  41.588   7.586
 5105POPC   C1B64987  35.966  41.210   6.146
 5105POPC   C2B64988  35.863  41.289   6.568
 5105POPC   C3B64989  36.102  41.262   6.933
 5105POPC   C4B64990  35.927  41.286   7.328
 5106POPC   NC364991  12.868  25.725   5.369
 5106POPC   PO464992  12.996  26.319   5.681
 5106POPC   GL164993  12.657  26.248   5.945
 5106POPC   GL264994  12.655  25.896   5.819
 5106POPC   C1A64995  12.577  26.237   6.408
 5106POPC   D2A64996  12.900  26.102   6.738
 5106POPC   C3A64997  12.758  26.069   7.168
 5106POPC   C4A64998  12.993  26.104   7.561
 5106POPC   C1B64999  12.830  25.830   6.213
 5106POPC   C2B65000  12.901  25.599   6.564
 5106POPC   C3B65001  12.959  25.617   6.988
 5106POPC   C4B65002  12.814  25.600   7.381
 5107POPC   NC365003  26.934  38.156   5.518
 5107POPC   PO465004  26.543  38.651   5.436
 5107POPC   GL165005  26.662  38.469   5.857
 5107POPC   GL265006  26.719  38.110   5.982
 5107POPC   C1A65007  26.711  38.519   6.305
 5107POPC   D2A65008  26.823  38.392   6.704
 5107POPC   C3A65009  26.644  38.516   7.090
 5107POPC   C4A65010  26.792  38.370   7.490
 5107POPC   C1B65011  27.143  38.285   6.191
 5107POPC   C2B65012  27.316  38.427   6.633
 5107POPC   C3B65013  27.172  38.364   7.086
 5107POPC   C4B65014  27.296  38.424   7.536
 5108POPC   NC365015  42.469  42.410   5.126
 5108POPC   PO465016  41.994  42.195   5.520
 5108POPC   GL165017  42.160  42.240   5.919
 5108POPC   GL265018  42.535  42.205   5.872
 5108POPC   C1A65019  42.092  42.177   6.384
 5108POPC   D2A65020  42.267  42.056   6.785
 5108POPC   C3A65021  42.272  42.306   7.151
 5108POPC   C4A65022  42.084  42.504   7.522
 5108POPC   C1B65023  42.449  42.496   6.238
 5108POPC   C2B65024  42.298  42.607   6.661
 5108POPC   C3B65025  42.585  42.683   6.996
 5108POPC   C4B65026  42.644  42.543   7.416
 5109POPC   NC365027  17.244  37.036   5.209
 5109POPC   PO465028  16.590  37.123   5.324
 5109POPC   GL165029  16.766  37.063   5.733
 5109POPC   GL265030  17.125  36.962   5.707
 5109POPC   C1A65031  16.627  37.170   6.156
 5109POPC   D2A65032  16.462  37.035   6.530
 5109POPC   C3A65033  16.608  37.222   6.888
 5109POPC   C4A65034  16.705  37.181   7.307
 5109POPC   C1B65035  17.079  36.939   6.159
 5109POPC   C2B65036  17.026  37.120   6.570
 5109POPC   C3B65037  17.046  36.949   6.970
 5109POPC   C4B65038  17.317  36.810   7.279
 5110POPC   NC365039  11.694  20.977   5.411
 5110POPC   PO465040  11.895  21.669   5.494
 5110POPC   GL165041  11.916  21.315   5.821
 5110POPC   GL265042  12.189  21.466   5.960
 5110POPC   C1A65043  11.916  21.217   6.319
 5110POPC   D2A65044  12.007  21.137   6.777
 5110POPC   C3A65045  11.779  21.202   7.171
 5110POPC   C4A65046  11.681  21.506   7.523
 5110POPC   C1B65047  12.105  21.706   6.309
 5110POPC   C2B65048  12.008  21.655   6.735
 5110POPC   C3B65049  12.047  21.633   7.164
 5110POPC   C4B65050  12.413  21.682   7.386
 5111POPC   NC365051   0.514  26.934   5.433
 5111POPC   PO465052   0.105  26.386   5.303
 5111POPC   GL165053   0.239  26.564   5.717
 5111POPC   GL265054   0.576  26.609   5.826
 5111POPC   C1A65055   0.199  26.833   6.117
 5111POPC   D2A65056   0.048  26.750   6.552
 5111POPC   C3A65057   0.213  26.856   6.984
 5111POPC   C4A65058   0.179  26.895   7.443
 5111POPC   C1B65059   0.527  26.442   6.226
 5111POPC   C2B65060   0.510  26.584   6.645
 5111POPC   C3B65061   0.624  26.511   7.054
 5111POPC   C4B65062   0.575  26.599   7.489
 5112POPC   NC365063  13.077  39.884   5.011
 5112POPC   PO465064  12.985  40.230   5.610
 5112POPC   GL165065  12.973  39.965   5.922
 5112POPC   GL265066  12.630  39.846   5.866
 5112POPC   C1A65067  13.135  40.009   6.331
 5112POPC   D2A65068  12.958  40.115   6.728
 5112POPC   C3A65069  13.050  39.855   7.143
 5112POPC   C4A65070  13.007  39.810   7.608
 5112POPC   C1B65071  12.568  40.056   6.272
 5112POPC   C2B65072  12.401  40.149   6.683
 5112POPC   C3B65073  12.589  40.084   7.070
 5112POPC   C4B65074  12.787  40.236   7.446
 5113POPC   NC365075  29.543   6.140   5.419
 5113POPC   PO465076  30.125   6.012   5.690
 5113POPC   GL165077  29.866   5.812   5.914
 5113POPC   GL265078  30.062   5.490   5.858
 5113POPC   C1A65079  29.760   5.953   6.320
 5113POPC   D2A65080  29.940   6.180   6.659
 5113POPC   C3A65081  29.910   5.951   7.021
 5113POPC   C4A65082  29.598   5.940   7.330
 5113POPC   C1B65083  30.212   5.651   6.268
 5113POPC   C2B65084  30.353   5.530   6.666
 5113POPC   C3B65085  30.374   5.708   7.074
 5113POPC   C4B65086  30.100   5.754   7.457
 5114POPC   NC365087   0.536  21.987   5.067
 5114POPC   PO465088   0.484  22.503   5.501
 5114POPC   GL165089   0.425  22.111   5.762
 5114POPC   GL265090   0.054  22.039   5.763
 5114POPC   C1A65091   0.574  21.928   6.184
 5114POPC   D2A65092   0.693  21.731   6.548
 5114POPC   C3A65093   0.674  22.042   6.834
 5114POPC   C4A65094   0.632  21.971   7.246
 5114POPC   C1B65095   0.134  22.183   6.188
 5114POPC   C2B65096   0.219  21.956   6.577
 5114POPC   C3B65097   0.152  22.075   7.015
 5114POPC   C4B65098   0.280  22.312   7.382
 5115POPC   NC365099  10.331  24.708   5.519
 5115POPC   PO465100  10.920  25.008   5.284
 5115POPC   GL165101  10.830  24.673   5.657
 5115POPC   GL265102  10.642  24.307   5.672
 5115POPC   C1A65103  10.925  24.439   6.072
 5115POPC   D2A65104  10.946  24.524   6.525
 5115POPC   C3A65105  10.581  24.500   6.796
 5115POPC   C4A65106  10.476  24.492   7.199
 5115POPC   C1B65107  10.364  24.292   6.094
 5115POPC   C2B65108  10.236  24.228   6.551
 5115POPC   C3B65109  10.082  24.235   6.974
 5115POPC   C4B65110  10.152  24.173   7.403
 5116POPC   NC365111  25.322  32.506   5.545
 5116POPC   PO465112  25.675  32.022   5.247
 5116POPC   GL165113  25.464  31.964   5.711
 5116POPC   GL265114  25.100  32.090   5.794
 5116POPC   C1A65115  25.405  31.972   6.223
 5116POPC   D2A65116  25.483  31.860   6.733
 5116POPC   C3A65117  25.446  32.190   7.103
 5116POPC   C4A65118  25.612  32.150   7.557
 5116POPC   C1B65119  25.091  32.393   6.165
 5116POPC   C2B65120  25.175  32.581   6.577
 5116POPC   C3B65121  25.019  32.559   7.005
 5116POPC   C4B65122  24.899  32.230   7.258
 5117POPC   NC365123   9.758  22.724   5.392
 5117POPC   PO465124   9.993  23.365   5.450
 5117POPC   GL165125  10.000  23.006   5.754
 5117POPC   GL265126   9.621  22.997   5.836
 5117POPC   C1A65127   9.918  22.918   6.215
 5117POPC   D2A65128   9.944  22.878   6.652
 5117POPC   C3A65129   9.912  23.212   6.944
 5117POPC   C4A65130   9.951  22.897   7.216
 5117POPC   C1B65131   9.453  23.210   6.238
 5117POPC   C2B65132   9.451  23.118   6.698
 5117POPC   C3B65133   9.442  23.007   7.151
 5117POPC   C4B65134   9.263  22.788   7.505
 5118POPC   NC365135  11.280  20.024   5.341
 5118POPC   PO465136  11.402  19.367   5.238
 5118POPC   GL165137  11.249  19.576   5.639
 5118POPC   GL265138  11.551  19.694   5.721
 5118POPC   C1A65139  11.166  19.857   6.043
 5118POPC   D2A65140  10.961  19.829   6.469
 5118POPC   C3A65141  11.125  19.880   6.906
 5118POPC   C4A65142  10.932  19.856   7.310
 5118POPC   C1B65143  11.655  19.559   6.154
 5118POPC   C2B65144  11.851  19.733   6.531
 5118POPC   C3B65145  11.644  19.788   6.934
 5118POPC   C4B65146  11.593  20.001   7.336
 5119POPC   NC365147   6.875   1.103   5.399
 5119POPC   PO465148   6.277   0.759   5.396
 5119POPC   GL165149   6.374   1.048   5.761
 5119POPC   GL265150   6.651   1.318   5.811
 5119POPC   C1A65151   6.310   1.221   6.180
 5119POPC   D2A65152   6.623   1.318   6.499
 5119POPC   C3A65153   6.498   1.129   6.883
 5119POPC   C4A65154   6.287   1.256   7.264
 5119POPC   C1B65155   6.975   1.159   6.110
 5119POPC   C2B65156   7.131   1.188   6.540
 5119POPC   C3B65157   7.000   1.448   6.878
 5119POPC   C4B65158   6.793   1.302   7.241
 5120POPC   NC365159  11.002   4.321   5.303
 5120POPC   PO465160  10.444   4.107   5.381
 5120POPC   GL165161  10.637   4.302   5.742
 5120POPC   GL265162  10.372   4.261   6.006
 5120POPC   C1A65163  10.810   4.433   6.152
 5120POPC   D2A65164  10.631   4.247   6.540
 5120POPC   C3A65165  10.770   4.356   6.938
 5120POPC   C4A65166  10.587   4.264   7.324
 5120POPC   C1B65167  10.585   3.886   6.191
 5120POPC   C2B65168  10.381   3.599   6.505
 5120POPC   C3B65169  10.273   3.671   6.941
 5120POPC   C4B65170  10.334   3.821   7.360
 5121POPC   NC365171  14.545  23.331   5.523
 5121POPC   PO465172  14.308  23.941   5.421
 5121POPC   GL165173  14.239  23.690   5.779
 5121POPC   GL265174  14.184  23.330   5.876
 5121POPC   C1A65175  14.496  23.638   6.161
 5121POPC   D2A65176  14.333  23.651   6.564
 5121POPC   C3A65177  14.599  23.729   6.876
 5121POPC   C4A65178  14.636  23.922   7.224
 5121POPC   C1B65179  13.966  23.589   6.209
 5121POPC   C2B65180  13.812  23.577   6.622
 5121POPC   C3B65181  14.083  23.569   7.008
 5121POPC   C4B65182  14.149  23.796   7.399
 5122POPC   NC365183  15.966  13.515   5.368
 5122POPC   PO465184  15.816  14.090   5.541
 5122POPC   GL165185  15.818  13.731   5.855
 5122POPC   GL265186  15.522  13.823   6.045
 5122POPC   C1A65187  16.039  13.440   6.212
 5122POPC   D2A65188  16.258  13.466   6.668
 5122POPC   C3A65189  16.138  13.395   7.158
 5122POPC   C4A65190  15.767  13.348   7.518
 5122POPC   C1B65191  15.830  13.877   6.392
 5122POPC   C2B65192  15.934  13.878   6.835
 5122POPC   C3B65193  15.809  13.781   7.253
 5122POPC   C4B65194  15.393  13.701   7.403
 5123POPC   NC365195  19.705  41.387   5.386
 5123POPC   PO465196  20.005  41.992   5.271
 5123POPC   GL165197  19.977  41.763   5.707
 5123POPC   GL265198  19.628  41.665   5.838
 5123POPC   C1A65199  20.015  41.597   6.158
 5123POPC   D2A65200  19.740  41.651   6.523
 5123POPC   C3A65201  19.954  41.677   6.913
 5123POPC   C4A65202  20.075  41.535   7.321
 5123POPC   C1B65203  19.529  41.321   6.183
 5123POPC   C2B65204  19.397  41.285   6.670
 5123POPC   C3B65205  19.621  41.326   7.106
 5123POPC   C4B65206  19.719  41.305   7.579
 5124POPC   NC365207  18.819   0.834   5.415
 5124POPC   PO465208  19.302   1.322   5.437
 5124POPC   GL165209  19.161   1.026   5.776
 5124POPC   GL265210  18.788   1.067   5.857
 5124POPC   C1A65211  19.131   1.013   6.251
 5124POPC   D2A65212  19.328   1.360   6.477
 5124POPC   C3A65213  19.195   1.485   6.877
 5124POPC   C4A65214  19.144   1.310   7.263
 5124POPC   C1B65215  18.625   1.126   6.247
 5124POPC   C2B65216  18.813   1.256   6.598
 5124POPC   C3B65217  18.705   1.201   6.987
 5124POPC   C4B65218  18.695   1.003   7.347
 5125POPC   NC365219  27.526  36.359   5.157
 5125POPC   PO465220  27.540  35.762   5.397
 5125POPC   GL165221  27.618  35.929   5.794
 5125POPC   GL265222  27.544  36.286   5.796
 5125POPC   C1A65223  27.361  35.784   6.172
 5125POPC   D2A65224  27.518  35.840   6.578
 5125POPC   C3A65225  27.338  35.823   6.961
 5125POPC   C4A65226  27.538  36.130   7.160
 5125POPC   C1B65227  27.651  36.208   6.217
 5125POPC   C2B65228  27.556  36.388   6.613
 5125POPC   C3B65229  27.793  36.528   6.955
 5125POPC   C4B65230  27.986  36.447   7.344
 5126POPC   NC365231  35.507  10.663   5.331
 5126POPC   PO465232  35.180  10.201   5.207
 5126POPC   GL165233  35.302  10.442   5.723
 5126POPC   GL265234  35.303  10.798   5.773
 5126POPC   C1A65235  35.391  10.411   6.209
 5126POPC   D2A65236  35.256  10.437   6.687
 5126POPC   C3A65237  35.354  10.299   7.145
 5126POPC   C4A65238  35.245  10.395   7.637
 5126POPC   C1B65239  35.268  10.917   6.180
 5126POPC   C2B65240  35.515  10.899   6.533
 5126POPC   C3B65241  35.468  10.984   6.932
 5126POPC   C4B65242  35.527  10.755   7.293
 5127POPC   NC365243  22.628  37.301   5.513
 5127POPC   PO465244  22.824  36.744   5.259
 5127POPC   GL165245  22.827  36.814   5.712
 5127POPC   GL265246  22.487  36.865   5.791
 5127POPC   C1A65247  23.095  36.894   6.109
 5127POPC   D2A65248  22.971  37.015   6.523
 5127POPC   C3A65249  22.850  36.948   6.917
 5127POPC   C4A65250  23.113  36.922   7.265
 5127POPC   C1B65251  22.602  36.823   6.204
 5127POPC   C2B65252  22.498  36.737   6.603
 5127POPC   C3B65253  22.553  36.512   6.927
 5127POPC   C4B65254  22.745  36.581   7.311
 5128POPC   NC365255  31.093  33.011   5.476
 5128POPC   PO465256  31.814  33.018   5.353
 5128POPC   GL165257  31.635  32.891   5.757
 5128POPC   GL265258  31.292  32.884   5.924
 5128POPC   C1A65259  31.758  32.815   6.187
 5128POPC   D2A65260  31.803  33.034   6.583
 5128POPC   C3A65261  31.757  32.871   6.995
 5128POPC   C4A65262  31.602  33.084   7.348
 5128POPC   C1B65263  31.355  33.109   6.309
 5128POPC   C2B65264  31.322  33.008   6.756
 5128POPC   C3B65265  31.133  33.035   7.146
 5128POPC   C4B65266  30.813  32.840   7.453
 5129POPC   NC365267   2.720  34.071   5.362
 5129POPC   PO465268   3.083  33.525   5.478
 5129POPC   GL165269   2.774  33.744   5.748
 5129POPC   GL265270   2.598  33.469   5.850
 5129POPC   C1A65271   2.546  33.899   6.148
 5129POPC   D2A65272   2.477  33.658   6.560
 5129POPC   C3A65273   2.480  33.897   6.952
 5129POPC   C4A65274   2.722  33.934   7.354
 5129POPC   C1B65275   2.899  33.509   6.222
 5129POPC   C2B65276   3.005  33.460   6.664
 5129POPC   C3B65277   2.758  33.495   7.022
 5129POPC   C4B65278   2.732  33.250   7.334
 5130POPC   NC365279  15.595  43.153   5.619
 5130POPC   PO465280  14.929  43.143   5.498
 5130POPC   GL165281  15.171  42.981   5.879
 5130POPC   GL265282  15.463  42.742   5.851
 5130POPC   C1A65283  15.114  43.166   6.266
 5130POPC   D2A65284  15.136  43.400   6.632
 5130POPC   C3A65285  15.064  43.118   6.975
 5130POPC   C4A65286  14.888  43.235   7.389
 5130POPC   C1B65287  15.496  42.821   6.292
 5130POPC   C2B65288  15.546  42.803   6.716
 5130POPC   C3B65289  15.548  42.839   7.138
 5130POPC   C4B65290  15.379  43.147   7.369
 5131POPC   NC365291  11.445   2.090   5.390
 5131POPC   PO465292  10.833   2.331   5.435
 5131POPC   GL165293  10.878   2.078   5.830
 5131POPC   GL265294  11.183   1.918   5.824
 5131POPC   C1A65295  11.027   2.057   6.285
 5131POPC   D2A65296  11.374   2.197   6.584
 5131POPC   C3A65297  11.174   2.203   7.004
 5131POPC   C4A65298  10.932   2.220   7.399
 5131POPC   C1B65299  11.508   1.972   6.103
 5131POPC   C2B65300  11.642   1.736   6.437
 5131POPC   C3B65301  11.706   1.861   6.843
 5131POPC   C4B65302  11.506   1.881   7.210
 5132POPC   NC365303   0.704  16.084   5.509
 5132POPC   PO465304   0.260  15.712   5.167
 5132POPC   GL165305   0.192  15.747   5.675
 5132POPC   GL265306   0.374  15.947   5.985
 5132POPC   C1A65307   0.125  15.541   6.121
 5132POPC   D2A65308   0.279  15.789   6.502
 5132POPC   C3A65309   0.259  15.681   6.940
 5132POPC   C4A65310   0.648  15.661   7.187
 5132POPC   C1B65311   0.188  16.255   6.309
 5132POPC   C2B65312   0.184  16.237   6.770
 5132POPC   C3B65313   0.415  16.126   7.129
 5132POPC   C4B65314   0.380  16.209   7.556
 5133POPC   NC365315  43.573  13.930   5.157
 5133POPC   PO465316  43.131  14.392   5.519
 5133POPC   GL165317  43.178  14.290   5.947
 5133POPC   GL265318  43.531  14.268   5.967
 5133POPC   C1A65319  42.932  13.997   6.193
 5133POPC   D2A65320  42.839  14.335   6.422
 5133POPC   C3A65321  42.920  14.402   6.825
 5133POPC   C4A65322  42.586  14.508   7.121
 5133POPC   C1B65323  43.440  14.374   6.412
 5133POPC   C2B65324  43.463  14.410   6.881
 5133POPC   C3B65325  43.472  14.353   7.344
 5133POPC   C4B65326  43.530  14.652   7.714
 5134POPC   NC365327   0.089   3.899   5.475
 5134POPC   PO465328   0.333   4.576   5.281
 5134POPC   GL165329   0.381   4.337   5.676
 5134POPC   GL265330   0.414   4.664   5.854
 5134POPC   C1A65331   0.358   4.206   6.126
 5134POPC   D2A65332   0.322   4.294   6.589
 5134POPC   C3A65333   0.605   4.122   6.936
 5134POPC   C4A65334   0.543   4.127   7.388
 5134POPC   C1B65335   0.446   4.854   6.261
 5134POPC   C2B65336   0.274   4.842   6.656
 5134POPC   C3B65337   0.401   4.605   7.023
 5134POPC   C4B65338   0.625   4.621   7.424
 5135POPC   NC365339  41.588  40.851   5.067
 5135POPC   PO465340  42.001  41.202   5.508
 5135POPC   GL165341  41.963  40.937   5.877
 5135POPC   GL265342  41.741  40.590   5.811
 5135POPC   C1A65343  41.737  40.859   6.248
 5135POPC   D2A65344  41.473  41.129   6.471
 5135POPC   C3A65345  41.496  41.019   6.873
 5135POPC   C4A65346  41.317  40.937   7.254
 5135POPC   C1B65347  41.547  40.388   6.154
 5135POPC   C2B65348  41.450  40.525   6.581
 5135POPC   C3B65349  41.475  40.474   7.031
 5135POPC   C4B65350  41.674  40.240   7.360
 5136POPC   NC365351  38.848  34.731   5.393
 5136POPC   PO465352  39.450  34.581   5.480
 5136POPC   GL165353  39.300  34.790   5.861
 5136POPC   GL265354  38.944  34.875   5.872
 5136POPC   C1A65355  39.366  34.730   6.321
 5136POPC   D2A65356  39.541  34.480   6.689
 5136POPC   C3A65357  39.332  34.574   7.084
 5136POPC   C4A65358  39.069  34.392   7.378
 5136POPC   C1B65359  38.854  34.775   6.292
 5136POPC   C2B65360  38.980  34.713   6.723
 5136POPC   C3B65361  38.849  34.810   7.164
 5136POPC   C4B65362  38.813  35.056   7.568
 5137POPC   NC365363  16.984  10.501   5.029
 5137POPC   PO465364  16.546  10.812   5.304
 5137POPC   GL165365  16.545  10.700   5.769
 5137POPC   GL265366  16.361  10.368   5.889
 5137POPC   C1A65367  16.859  10.815   6.112
 5137POPC   D2A65368  17.222  10.812   6.422
 5137POPC   C3A65369  17.116  10.704   6.855
 5137POPC   C4A65370  16.763  10.759   7.185
 5137POPC   C1B65371  16.417  10.600   6.283
 5137POPC   C2B65372  16.657  10.554   6.660
 5137POPC   C3B65373  16.616  10.296   7.005
 5137POPC   C4B65374  16.567  10.256   7.445
 5138POPC   NC365375   9.938  15.280   5.402
 5138POPC   PO465376   9.695  14.605   5.360
 5138POPC   GL165377   9.657  14.892   5.785
 5138POPC   GL265378   9.625  15.289   5.821
 5138POPC   C1A65379   9.683  15.001   6.252
 5138POPC   D2A65380   9.844  15.272   6.593
 5138POPC   C3A65381   9.849  15.052   7.012
 5138POPC   C4A65382   9.781  14.935   7.455
 5138POPC   C1B65383   9.332  15.364   6.180
 5138POPC   C2B65384   9.370  15.540   6.584
 5138POPC   C3B65385   9.585  15.532   6.940
 5138POPC   C4B65386   9.704  15.419   7.321
 5139POPC   NC365387  27.398  11.869   5.229
 5139POPC   PO465388  27.366  12.508   5.089
 5139POPC   GL165389  27.457  12.246   5.579
 5139POPC   GL265390  27.554  11.856   5.711
 5139POPC   C1A65391  27.599  12.201   6.058
 5139POPC   D2A65392  27.404  12.176   6.479
 5139POPC   C3A65393  27.338  11.935   6.844
 5139POPC   C4A65394  27.622  12.074   7.161
 5139POPC   C1B65395  27.767  11.702   6.104
 5139POPC   C2B65396  27.821  11.822   6.560
 5139POPC   C3B65397  27.782  11.628   6.948
 5139POPC   C4B65398  27.889  11.677   7.372
 5140POPC   NC365399   5.224  37.097   5.530
 5140POPC   PO465400   4.607  36.900   5.598
 5140POPC   GL165401   4.968  36.824   5.901
 5140POPC   GL265402   5.353  36.841   5.945
 5140POPC   C1A65403   5.013  36.953   6.318
 5140POPC   D2A65404   4.770  37.000   6.674
 5140POPC   C3A65405   5.023  37.075   7.023
 5140POPC   C4A65406   5.140  37.367   7.326
 5140POPC   C1B65407   5.431  36.635   6.303
 5140POPC   C2B65408   5.186  36.628   6.687
 5140POPC   C3B65409   5.238  36.612   7.109
 5140POPC   C4B65410   5.390  36.901   7.416
 5141POPC   NC365411  36.110  21.498   5.346
 5141POPC   PO465412  36.542  20.882   5.434
 5141POPC   GL165413  36.356  21.255   5.726
 5141POPC   GL265414  35.962  21.336   5.796
 5141POPC   C1A65415  36.299  21.555   6.089
 5141POPC   D2A65416  36.313  21.466   6.557
 5141POPC   C3A65417  36.138  21.291   6.941
 5141POPC   C4A65418  36.124  21.563   7.287
 5141POPC   C1B65419  35.908  21.269   6.266
 5141POPC   C2B65420  35.699  21.209   6.697
 5141POPC   C3B65421  35.635  21.107   7.164
 5141POPC   C4B65422  35.761  20.773   7.489
 5142POPC   NC365423  19.891  23.425   5.372
 5142POPC   PO465424  19.617  22.798   5.425
 5142POPC   GL165425  19.839  22.815   5.811
 5142POPC   GL265426  19.944  23.185   5.834
 5142POPC   C1A65427  19.758  22.890   6.249
 5142POPC   D2A65428  19.799  23.046   6.653
 5142POPC   C3A65429  19.677  22.812   7.005
 5142POPC   C4A65430  19.951  22.680   7.278
 5142POPC   C1B65431  19.989  23.340   6.255
 5142POPC   C2B65432  20.264  23.305   6.599
 5142POPC   C3B65433  20.175  23.115   6.995
 5142POPC   C4B65434  19.994  23.168   7.350
 5143POPC   NC365435  39.946   3.123   5.397
 5143POPC   PO465436  40.529   2.866   5.458
 5143POPC   GL165437  40.184   2.817   5.771
 5143POPC   GL265438  39.784   2.850   5.776
 5143POPC   C1A65439  40.036   2.615   6.161
 5143POPC   D2A65440  40.219   2.717   6.544
 5143POPC   C3A65441  40.085   2.612   6.990
 5143POPC   C4A65442  40.042   2.994   7.260
 5143POPC   C1B65443  39.576   2.965   6.136
 5143POPC   C2B65444  39.718   2.809   6.536
 5143POPC   C3B65445  39.616   2.777   6.946
 5143POPC   C4B65446  39.535   2.927   7.338
 5144POPC   NC365447   2.284   7.549   5.502
 5144POPC   PO465448   1.720   7.095   5.462
 5144POPC   GL165449   1.831   7.316   5.876
 5144POPC   GL265450   2.182   7.389   5.965
 5144POPC   C1A65451   1.767   7.625   6.227
 5144POPC   D2A65452   1.528   7.548   6.584
 5144POPC   C3A65453   1.776   7.428   6.923
 5144POPC   C4A65454   2.173   7.365   7.169
 5144POPC   C1B65455   2.255   7.742   6.212
 5144POPC   C2B65456   2.092   7.732   6.623
 5144POPC   C3B65457   2.273   7.852   6.975
 5144POPC   C4B65458   2.330   7.824   7.367
 5145POPC   NC365459  35.889  17.506   5.366
 5145POPC   PO465460  36.512  17.786   5.403
 5145POPC   GL165461  36.363  17.513   5.768
 5145POPC   GL265462  36.045  17.312   5.823
 5145POPC   C1A65463  36.465  17.319   6.179
 5145POPC   D2A65464  36.369  17.095   6.572
 5145POPC   C3A65465  36.355  17.376   6.948
 5145POPC   C4A65466  36.161  17.777   6.895
 5145POPC   C1B65467  35.935  17.241   6.289
 5145POPC   C2B65468  35.893  17.231   6.753
 5145POPC   C3B65469  35.856  17.448   7.167
 5145POPC   C4B65470  35.758  17.688   7.520
 5146POPC   NC365471  25.968  44.888   5.356
 5146POPC   PO465472  26.328  44.507   5.713
 5146POPC   GL165473  26.140  44.336   5.973
 5146POPC   GL265474  25.823  44.304   5.849
 5146POPC   C1A65475  26.200  44.419   6.412
 5146POPC   D2A65476  25.966  44.734   6.605
 5146POPC   C3A65477  26.023  44.681   7.003
 5146POPC   C4A65478  25.830  44.829   7.352
 5146POPC   C1B65479  25.769  44.159   6.285
 5146POPC   C2B65480  25.846  44.211   6.759
 5146POPC   C3B65481  25.818  44.270   7.227
 5146POPC   C4B65482  26.175  44.452   7.439
 5147POPC   NC365483   0.844  25.517   5.410
 5147POPC   PO465484   1.350  25.029   5.493
 5147POPC   GL165485   1.255  25.332   5.771
 5147POPC   GL265486   0.940  25.395   5.959
 5147POPC   C1A65487   1.299  25.089   6.160
 5147POPC   D2A65488   1.197  25.003   6.562
 5147POPC   C3A65489   1.561  24.998   6.834
 5147POPC   C4A65490   1.427  24.979   7.245
 5147POPC   C1B65491   1.324  25.587   6.196
 5147POPC   C2B65492   1.473  25.460   6.588
 5147POPC   C3B65493   1.252  25.388   6.979
 5147POPC   C4B65494   1.523  25.540   7.288
 5148POPC   NC365495   9.137  37.636   5.382
 5148POPC   PO465496   8.539  37.905   5.316
 5148POPC   GL165497   8.863  37.842   5.758
 5148POPC   GL265498   9.083  37.460   5.837
 5148POPC   C1A65499   8.969  37.745   6.225
 5148POPC   D2A65500   9.014  37.399   6.537
 5148POPC   C3A65501   8.791  37.568   6.918
 5148POPC   C4A65502   8.939  37.823   7.273
 5148POPC   C1B65503   9.422  37.508   6.129
 5148POPC   C2B65504   9.470  37.672   6.522
 5148POPC   C3B65505   9.310  37.602   6.921
 5148POPC   C4B65506   9.389  37.535   7.315
 5149POPC   NC365507  34.304  28.051   5.658
 5149POPC   PO465508  34.663  28.616   5.462
 5149POPC   GL165509  34.628  28.464   5.864
 5149POPC   GL265510  34.887  28.193   5.864
 5149POPC   C1A65511  34.379  28.621   6.245
 5149POPC   D2A65512  34.382  28.777   6.688
 5149POPC   C3A65513  34.484  28.424   7.003
 5149POPC   C4A65514  34.559  28.423   7.492
 5149POPC   C1B65515  34.724  28.220   6.309
 5149POPC   C2B65516  34.876  28.111   6.740
 5149POPC   C3B65517  34.862  28.135   7.190
 5149POPC   C4B65518  35.123  28.213   7.535
 5150POPC   NC365519   1.304  31.768   5.537
 5150POPC   PO465520   1.464  31.177   5.383
 5150POPC   GL165521   1.405  31.371   5.829
 5150POPC   GL265522   1.035  31.508   5.854
 5150POPC   C1A65523   1.274  31.370   6.272
 5150POPC   D2A65524   1.168  31.097   6.615
 5150POPC   C3A65525   1.155  31.282   7.040
 5150POPC   C4A65526   1.391  31.088   7.384
 5150POPC   C1B65527   0.900  31.767   6.205
 5150POPC   C2B65528   1.035  31.778   6.621
 5150POPC   C3B65529   0.852  31.708   7.027
 5150POPC   C4B65530   0.804  31.680   7.491
 5151POPC   NC365531  12.116   0.690   5.467
 5151POPC   PO465532  11.948   0.098   5.462
 5151POPC   GL165533  12.176   0.286   5.811
 5151POPC   GL265534  11.929   0.521   5.900
 5151POPC   C1A65535  12.358   0.360   6.255
 5151POPC   D2A65536  12.445   0.121   6.677
 5151POPC   C3A65537  12.302   0.344   7.037
 5151POPC   C4A65538  12.107   0.705   7.206
 5151POPC   C1B65539  11.863   0.253   6.245
 5151POPC   C2B65540  11.978   0.413   6.638
 5151POPC   C3B65541  11.699   0.624   6.930
 5151POPC   C4B65542  11.755   0.330   7.206
 5152POPC   NC365543  11.561  32.991   5.386
 5152POPC   PO465544  10.877  32.962   5.323
 5152POPC   GL165545  11.045  32.737   5.728
 5152POPC   GL265546  11.403  32.811   5.831
 5152POPC   C1A65547  11.054  32.723   6.199
 5152POPC   D2A65548  11.167  32.591   6.618
 5152POPC   C3A65549  11.174  32.910   6.939
 5152POPC   C4A65550  11.011  33.110   7.321
 5152POPC   C1B65551  11.506  33.004   6.210
 5152POPC   C2B65552  11.609  32.874   6.610
 5152POPC   C3B65553  11.666  33.102   6.969
 5152POPC   C4B65554  11.528  32.937   7.348
 5153POPC   NC365555  37.489  43.810   5.019
 5153POPC   PO465556  38.031  44.094   5.249
 5153POPC   GL165557  37.844  43.870   5.636
 5153POPC   GL265558  37.606  44.069   5.880
 5153POPC   C1A65559  37.985  43.757   6.073
 5153POPC   D2A65560  38.084  43.829   6.522
 5153POPC   C3A65561  37.820  43.884   6.901
 5153POPC   C4A65562  37.975  43.578   7.148
 5153POPC   C1B65563  37.477  43.722   6.201
 5153POPC   C2B65564  37.532  43.543   6.643
 5153POPC   C3B65565  37.470  43.501   7.093
 5153POPC   C4B65566  37.593  43.703   7.478
 5154POPC   NC365567  32.853  43.021   5.447
 5154POPC   PO465568  32.798  43.698   5.585
 5154POPC   GL165569  33.015  43.354   5.853
 5154POPC   GL265570  33.117  42.948   5.871
 5154POPC   C1A65571  32.805  43.164   6.182
 5154POPC   D2A65572  33.006  42.897   6.462
 5154POPC   C3A65573  32.965  43.147   6.802
 5154POPC   C4A65574  32.611  43.201   7.088
 5154POPC   C1B65575  33.361  43.145   6.207
 5154POPC   C2B65576  33.531  42.960   6.591
 5154POPC   C3B65577  33.422  43.076   7.019
 5154POPC   C4B65578  33.079  42.999   7.283
 5155POPC   NC365579   2.252  12.095   5.610
 5155POPC   PO465580   2.940  11.930   5.546
 5155POPC   GL165581   2.926  12.150   5.928
 5155POPC   GL265582   2.588  12.130   5.986
 5155POPC   C1A65583   2.964  12.145   6.364
 5155POPC   D2A65584   3.163  11.992   6.696
 5155POPC   C3A65585   3.028  12.187   7.032
 5155POPC   C4A65586   2.982  12.458   7.333
 5155POPC   C1B65587   2.470  12.011   6.397
 5155POPC   C2B65588   2.570  12.011   6.842
 5155POPC   C3B65589   2.524  12.156   7.249
 5155POPC   C4B65590   2.330  12.082   7.667
 5156POPC   NC365591  39.454  32.670   5.487
 5156POPC   PO465592  38.884  33.100   5.273
 5156POPC   GL165593  39.130  33.113   5.694
 5156POPC   GL265594  39.480  33.272   5.618
 5156POPC   C1A65595  39.057  32.926   6.159
 5156POPC   D2A65596  38.804  32.800   6.551
 5156POPC   C3A65597  38.960  32.988   6.973
 5156POPC   C4A65598  38.984  32.915   7.435
 5156POPC   C1B65599  39.558  33.096   6.030
 5156POPC   C2B65600  39.549  33.139   6.472
 5156POPC   C3B65601  39.685  33.084   6.893
 5156POPC   C4B65602  39.443  33.012   7.245
 5157POPC   NC365603  21.159  16.392   5.554
 5157POPC   PO465604  21.475  15.788   5.428
 5157POPC   GL165605  21.302  15.927   5.790
 5157POPC   GL265606  21.027  15.698   5.784
 5157POPC   C1A65607  21.411  16.197   6.143
 5157POPC   D2A65608  21.475  16.361   6.551
 5157POPC   C3A65609  21.701  16.054   6.763
 5157POPC   C4A65610  21.669  15.859   7.159
 5157POPC   C1B65611  21.200  15.625   6.201
 5157POPC   C2B65612  21.261  15.900   6.543
 5157POPC   C3B65613  21.222  16.075   6.938
 5157POPC   C4B65614  21.138  15.736   7.170
 5158POPC   NC365615  20.425  36.744   5.444
 5158POPC   PO465616  20.960  37.213   5.411
 5158POPC   GL165617  20.797  37.007   5.772
 5158POPC   GL265618  20.882  36.670   5.755
 5158POPC   C1A65619  20.707  37.148   6.197
 5158POPC   D2A65620  20.365  37.161   6.518
 5158POPC   C3A65621  20.507  37.119   6.940
 5158POPC   C4A65622  20.330  36.907   7.287
 5158POPC   C1B65623  20.596  36.645   6.107
 5158POPC   C2B65624  20.670  36.739   6.542
 5158POPC   C3B65625  20.651  36.626   6.978
 5158POPC   C4B65626  20.970  36.671   7.280
 5159POPC   NC365627  33.175   9.801   5.276
 5159POPC   PO465628  32.778   9.407   5.531
 5159POPC   GL165629  32.902   9.686   5.789
 5159POPC   GL265630  33.239   9.637   5.834
 5159POPC   C1A65631  32.902   9.855   6.184
 5159POPC   D2A65632  32.867   9.654   6.568
 5159POPC   C3A65633  33.005   9.964   6.854
 5159POPC   C4A65634  33.016   9.949   7.263
 5159POPC   C1B65635  33.115   9.375   6.190
 5159POPC   C2B65636  33.244   9.250   6.572
 5159POPC   C3B65637  33.233   9.496   6.952
 5159POPC   C4B65638  32.960   9.455   7.301
 5160POPC   NC365639  16.545  44.348   5.431
 5160POPC   PO465640  16.823  44.957   5.263
 5160POPC   GL165641  16.779  44.772   5.677
 5160POPC   GL265642  16.975  44.440   5.736
 5160POPC   C1A65643  16.635  44.945   6.094
 5160POPC   D2A65644  16.554  44.723   6.483
 5160POPC   C3A65645  16.649  44.829   6.927
 5160POPC   C4A65646  16.499  44.497   7.180
 5160POPC   C1B65647  16.933  44.468   6.231
 5160POPC   C2B65648  16.941  44.456   6.729
 5160POPC   C3B65649  16.999  44.399   7.211
 5160POPC   C4B65650  17.193  44.346   7.630
 5161POPC   NC365651   7.061  15.574   5.464
 5161POPC   PO465652   7.577  15.109   5.683
 5161POPC   GL165653   7.273  15.355   5.888
 5161POPC   GL265654   7.063  15.103   5.876
 5161POPC   C1A65655   7.137  15.481   6.308
 5161POPC   D2A65656   7.308  15.703   6.670
 5161POPC   C3A65657   7.631  15.452   6.924
 5161POPC   C4A65658   7.558  15.183   7.343
 5161POPC   C1B65659   6.871  14.942   6.239
 5161POPC   C2B65660   6.904  15.020   6.681
 5161POPC   C3B65661   7.051  14.966   7.082
 5161POPC   C4B65662   7.041  15.298   7.355
 5162POPC   NC365663   8.502   0.993   5.389
 5162POPC   PO465664   7.841   1.199   5.421
 5162POPC   GL165665   8.151   1.214   5.732
 5162POPC   GL265666   8.212   1.593   5.756
 5162POPC   C1A65667   8.218   1.004   6.133
 5162POPC   D2A65668   8.313   1.160   6.528
 5162POPC   C3A65669   8.076   1.068   6.896
 5162POPC   C4A65670   8.243   1.293   7.220
 5162POPC   C1B65671   8.006   1.509   6.186
 5162POPC   C2B65672   8.030   1.551   6.659
 5162POPC   C3B65673   7.991   1.713   7.065
 5162POPC   C4B65674   7.936   1.641   7.524
 5163POPC   NC365675   9.282  14.604   5.573
 5163POPC   PO465676   8.725  14.390   5.250
 5163POPC   GL165677   8.706  14.471   5.717
 5163POPC   GL265678   8.989  14.356   5.881
 5163POPC   C1A65679   8.725  14.587   6.212
 5163POPC   D2A65680   8.910  14.341   6.566
 5163POPC   C3A65681   8.736  14.399   6.959
 5163POPC   C4A65682   8.872  14.651   7.290
 5163POPC   C1B65683   9.281  14.342   6.206
 5163POPC   C2B65684   9.453  14.386   6.632
 5163POPC   C3B65685   9.256  14.542   6.972
 5163POPC   C4B65686   9.367  14.297   7.326
 5164POPC   NC365687  20.300   1.293   5.341
 5164POPC   PO465688  20.740   0.868   5.451
 5164POPC   GL165689  20.446   1.025   5.747
 5164POPC   GL265690  20.494   0.772   5.933
 5164POPC   C1A65691  20.428   1.363   6.101
 5164POPC   D2A65692  20.624   1.579   6.483
 5164POPC   C3A65693  20.552   1.409   6.915
 5164POPC   C4A65694  20.692   1.509   7.341
 5164POPC   C1B65695  20.772   0.995   6.154
 5164POPC   C2B65696  20.791   1.101   6.559
 5164POPC   C3B65697  20.795   0.901   6.947
 5164POPC   C4B65698  20.611   0.908   7.332
 5165POPC   NC365699  26.429  36.081   5.462
 5165POPC   PO465700  25.785  36.397   5.500
 5165POPC   GL165701  26.004  36.213   5.807
 5165POPC   GL265702  26.291  36.409   5.901
 5165POPC   C1A65703  26.046  35.961   6.191
 5165POPC   D2A65704  25.991  35.729   6.590
 5165POPC   C3A65705  26.139  35.949   6.956
 5165POPC   C4A65706  26.009  35.965   7.390
 5165POPC   C1B65707  25.944  36.465   6.237
 5165POPC   C2B65708  25.860  36.277   6.640
 5165POPC   C3B65709  25.879  36.369   7.099
 5165POPC   C4B65710  26.197  36.448   7.450
 5166POPC   NC365711   7.783   4.437   5.374
 5166POPC   PO465712   7.130   4.497   5.335
 5166POPC   GL165713   7.262   4.404   5.776
 5166POPC   GL265714   7.623   4.469   5.859
 5166POPC   C1A65715   7.090   4.432   6.211
 5166POPC   D2A65716   7.277   4.561   6.619
 5166POPC   C3A65717   7.210   4.254   6.937
 5166POPC   C4A65718   7.279   4.283   7.381
 5166POPC   C1B65719   7.587   4.339   6.271
 5166POPC   C2B65720   7.740   4.236   6.668
 5166POPC   C3B65721   7.691   4.288   7.088
 5166POPC   C4B65722   7.694   4.590   7.417
 5167POPC   NC365723  10.165  36.087   5.340
 5167POPC   PO465724  10.668  36.503   5.358
 5167POPC   GL165725  10.676  36.259   5.786
 5167POPC   GL265726  10.331  36.106   5.834
 5167POPC   C1A65727  10.540  36.274   6.265
 5167POPC   D2A65728  10.302  36.464   6.613
 5167POPC   C3A65729  10.425  36.370   7.064
 5167POPC   C4A65730  10.532  36.532   7.486
 5167POPC   C1B65731  10.548  35.790   6.113
 5167POPC   C2B65732  10.411  35.695   6.531
 5167POPC   C3B65733  10.265  35.858   6.910
 5167POPC   C4B65734  10.563  35.855   7.196
 5168POPC   NC365735  16.349   1.126   5.437
 5168POPC   PO465736  16.964   0.900   5.562
 5168POPC   GL165737  16.716   1.170   5.803
 5168POPC   GL265738  17.004   1.256   5.974
 5168POPC   C1A65739  16.481   1.282   6.173
 5168POPC   D2A65740  16.692   1.259   6.580
 5168POPC   C3A65741  16.473   1.265   6.974
 5168POPC   C4A65742  16.756   1.322   7.309
 5168POPC   C1B65743  17.136   0.872   6.179
 5168POPC   C2B65744  17.147   0.749   6.594
 5168POPC   C3B65745  17.060   0.989   6.950
 5168POPC   C4B65746  17.085   0.929   7.380
 5169POPC   NC365747  17.203  33.191   5.141
 5169POPC   PO465748  17.708  32.825   5.287
 5169POPC   GL165749  17.661  32.971   5.731
 5169POPC   GL265750  17.379  33.227   5.776
 5169POPC   C1A65751  17.719  33.076   6.167
 5169POPC   D2A65752  17.557  33.042   6.576
 5169POPC   C3A65753  17.763  33.244   6.925
 5169POPC   C4A65754  17.716  33.112   7.320
 5169POPC   C1B65755  17.226  33.291   6.205
 5169POPC   C2B65756  17.106  33.328   6.639
 5169POPC   C3B65757  17.270  33.166   7.000
 5169POPC   C4B65758  17.202  32.808   7.235
 5170POPC   NC365759  39.113  20.486   5.233
 5170POPC   PO465760  39.771  20.622   5.392
 5170POPC   GL165761  39.491  20.629   5.785
 5170POPC   GL265762  39.129  20.546   5.759
 5170POPC   C1A65763  39.409  20.723   6.267
 5170POPC   D2A65764  39.335  20.892   6.700
 5170POPC   C3A65765  39.430  20.615   7.066
 5170POPC   C4A65766  39.048  20.377   7.172
 5170POPC   C1B65767  38.915  20.732   6.145
 5170POPC   C2B65768  38.903  20.642   6.566
 5170POPC   C3B65769  38.902  20.840   6.959
 5170POPC   C4B65770  38.846  20.880   7.366
 5171POPC   NC365771  37.051  16.289   5.586
 5171POPC   PO465772  36.903  16.940   5.400
 5171POPC   GL165773  36.875  16.774   5.777
 5171POPC   GL265774  37.166  16.672   5.931
 5171POPC   C1A65775  36.866  16.973   6.181
 5171POPC   D2A65776  37.189  16.747   6.475
 5171POPC   C3A65777  37.075  16.667   6.924
 5171POPC   C4A65778  36.991  16.819   7.363
 5171POPC   C1B65779  36.967  16.362   6.219
 5171POPC   C2B65780  37.135  16.078   6.504
 5171POPC   C3B65781  37.031  16.117   6.926
 5171POPC   C4B65782  37.071  16.305   7.310
 5172POPC   NC365783  30.213  36.377   5.427
 5172POPC   PO465784  29.671  36.014   5.491
 5172POPC   GL165785  29.778  36.310   5.801
 5172POPC   GL265786  30.117  36.233   5.918
 5172POPC   C1A65787  29.708  36.283   6.247
 5172POPC   D2A65788  29.863  36.382   6.649
 5172POPC   C3A65789  29.625  36.245   6.999
 5172POPC   C4A65790  29.934  35.965   7.218
 5172POPC   C1B65791  30.171  36.536   6.264
 5172POPC   C2B65792  30.385  36.604   6.646
 5172POPC   C3B65793  30.315  36.535   7.070
 5172POPC   C4B65794  29.962  36.486   7.290
 5173POPC   NC365795   9.312  39.085   5.522
 5173POPC   PO465796   8.684  39.369   5.430
 5173POPC   GL165797   8.786  39.136   5.784
 5173POPC   GL265798   9.044  39.391   5.884
 5173POPC   C1A65799   8.640  39.098   6.220
 5173POPC   D2A65800   8.760  39.402   6.548
 5173POPC   C3A65801   8.950  39.302   6.934
 5173POPC   C4A65802   8.872  39.506   7.310
 5173POPC   C1B65803   9.167  39.212   6.295
 5173POPC   C2B65804   9.384  39.406   6.678
 5173POPC   C3B65805   9.391  39.444   7.130
 5173POPC   C4B65806   9.348  39.005   7.200
 5174POPC   NC365807  41.999  20.992   5.337
 5174POPC   PO465808  42.147  20.390   5.125
 5174POPC   GL165809  42.179  20.562   5.616
 5174POPC   GL265810  42.115  20.877   5.817
 5174POPC   C1A65811  42.329  20.508   6.094
 5174POPC   D2A65812  42.274  20.316   6.519
 5174POPC   C3A65813  42.469  20.480   6.884
 5174POPC   C4A65814  42.380  20.432   7.318
 5174POPC   C1B65815  41.964  20.837   6.256
 5174POPC   C2B65816  42.147  20.814   6.644
 5174POPC   C3B65817  42.075  20.796   7.092
 5174POPC   C4B65818  42.490  20.927   7.158
 5175POPC   NC365819  10.469  26.259   5.305
 5175POPC   PO465820  10.794  25.667   5.349
 5175POPC   GL165821  10.624  25.780   5.736
 5175POPC   GL265822  10.573  26.145   5.797
 5175POPC   C1A65823  10.758  25.819   6.176
 5175POPC   D2A65824  10.453  25.853   6.526
 5175POPC   C3A65825  10.659  25.849   6.899
 5175POPC   C4A65826  10.551  25.689   7.273
 5175POPC   C1B65827  10.473  26.250   6.206
 5175POPC   C2B65828  10.580  26.338   6.631
 5175POPC   C3B65829  10.378  26.276   7.026
 5175POPC   C4B65830  10.405  26.373   7.476
 5176POPC   NC365831  43.379  19.938   5.426
 5176POPC   PO465832  42.766  19.619   5.272
 5176POPC   GL165833  43.024  19.589   5.695
 5176POPC   GL265834  43.414  19.518   5.728
 5176POPC   C1A65835  43.097  19.886   6.064
 5176POPC   D2A65836  43.370  20.087   6.398
 5176POPC   C3A65837  43.121  20.083   6.787
 5176POPC   C4A65838  42.955  19.821   7.140
 5176POPC   C1B65839  43.494  19.594   6.177
 5176POPC   C2B65840  43.307  19.614   6.620
 5176POPC   C3B65841  43.439  19.722   7.042
 5176POPC   C4B65842  43.621  19.502   7.376
 5177POPC   NC365843  17.227  40.974   5.553
 5177POPC   PO465844  17.775  41.260   5.267
 5177POPC   GL165845  17.747  41.053   5.711
 5177POPC   GL265846  17.463  41.056   5.987
 5177POPC   C1A65847  17.854  40.763   6.062
 5177POPC   D2A65848  17.559  40.719   6.406
 5177POPC   C3A65849  17.673  40.658   6.817
 5177POPC   C4A65850  17.658  40.765   7.232
 5177POPC   C1B65851  17.207  41.094   6.361
 5177POPC   C2B65852  17.319  41.055   6.816
 5177POPC   C3B65853  17.352  41.179   7.258
 5177POPC   C4B65854  17.206  41.411   7.657
 5178POPC   NC365855  31.435  26.031   5.445
 5178POPC   PO465856  31.081  25.475   5.510
 5178POPC   GL165857  31.274  25.771   5.888
 5178POPC   GL265858  31.630  25.868   5.866
 5178POPC   C1A65859  31.417  26.155   6.234
 5178POPC   D2A65860  31.417  26.296   6.697
 5178POPC   C3A65861  31.350  25.977   7.024
 5178POPC   C4A65862  31.473  25.861   7.482
 5178POPC   C1B65863  31.904  25.993   6.200
 5178POPC   C2B65864  31.955  26.196   6.578
 5178POPC   C3B65865  31.834  26.099   6.978
 5178POPC   C4B65866  31.665  26.306   7.317
 5179POPC   NC365867  30.961  24.965   5.547
 5179POPC   PO465868  30.381  25.267   5.394
 5179POPC   GL165869  30.636  25.293   5.757
 5179POPC   GL265870  30.559  24.914   5.834
 5179POPC   C1A65871  30.809  25.571   6.104
 5179POPC   D2A65872  30.690  25.568   6.533
 5179POPC   C3A65873  31.025  25.436   6.816
 5179POPC   C4A65874  30.896  25.456   7.241
 5179POPC   C1B65875  30.599  25.096   6.219
 5179POPC   C2B65876  30.755  25.043   6.592
 5179POPC   C3B65877  30.581  25.196   6.930
 5179POPC   C4B65878  30.602  25.045   7.319
 5180POPC   NC365879  38.460  32.727   5.578
 5180POPC   PO465880  38.743  32.205   5.262
 5180POPC   GL165881  38.659  32.278   5.729
 5180POPC   GL265882  38.313  32.265   5.923
 5180POPC   C1A65883  38.709  32.467   6.154
 5180POPC   D2A65884  38.481  32.342   6.516
 5180POPC   C3A65885  38.751  32.361   6.841
 5180POPC   C4A65886  38.702  32.588   7.185
 5180POPC   C1B65887  38.203  31.957   6.282
 5180POPC   C2B65888  38.040  32.103   6.689
 5180POPC   C3B65889  38.240  32.324   7.018
 5180POPC   C4B65890  38.465  31.968   7.112
 5181POPC   NC365891   9.454  18.019   5.415
 5181POPC   PO465892  10.098  18.091   5.416
 5181POPC   GL165893   9.861  18.258   5.786
 5181POPC   GL265894   9.520  18.393   5.755
 5181POPC   C1A65895   9.800  18.405   6.223
 5181POPC   D2A65896  10.000  18.639   6.559
 5181POPC   C3A65897  10.175  18.395   6.894
 5181POPC   C4A65898  10.205  18.541   7.301
 5181POPC   C1B65899   9.417  18.085   6.069
 5181POPC   C2B65900   9.421  18.020   6.514
 5181POPC   C3B65901   9.579  18.316   6.817
 5181POPC   C4B65902   9.502  18.351   7.255
 5182POPC   NC365903  14.982  20.809   5.554
 5182POPC   PO465904  15.333  20.291   5.359
 5182POPC   GL165905  15.131  20.378   5.806
 5182POPC   GL265906  15.231  20.740   5.988
 5182POPC   C1A65907  14.856  20.462   6.188
 5182POPC   D2A65908  15.111  20.567   6.547
 5182POPC   C3A65909  14.996  20.543   6.978
 5182POPC   C4A65910  14.819  20.769   7.317
 5182POPC   C1B65911  15.624  20.765   6.225
 5182POPC   C2B65912  15.609  20.597   6.650
 5182POPC   C3B65913  15.468  20.697   7.103
 5182POPC   C4B65914  15.541  20.995   7.454
 5183POPC   NC365915  11.391  43.249   5.272
 5183POPC   PO465916  10.849  43.336   5.197
 5183POPC   GL165917  11.021  43.131   5.643
 5183POPC   GL265918  11.413  43.029   5.734
 5183POPC   C1A65919  11.063  42.999   6.095
 5183POPC   D2A65920  11.237  43.076   6.500
 5183POPC   C3A65921  11.015  42.931   6.860
 5183POPC   C4A65922  11.056  43.171   7.237
 5183POPC   C1B65923  11.635  43.007   6.173
 5183POPC   C2B65924  11.746  43.115   6.618
 5183POPC   C3B65925  11.668  42.960   7.028
 5183POPC   C4B65926  11.343  42.741   7.216
 5184POPC   NC365927   6.417  15.996   5.418
 5184POPC   PO465928   6.994  15.917   5.766
 5184POPC   GL165929   6.567  15.919   5.888
 5184POPC   GL265930   6.290  15.674   5.821
 5184POPC   C1A65931   6.395  15.990   6.252
 5184POPC   D2A65932   6.638  15.900   6.580
 5184POPC   C3A65933   6.485  16.079   6.948
 5184POPC   C4A65934   6.621  15.982   7.372
 5184POPC   C1B65935   6.145  15.551   6.266
 5184POPC   C2B65936   6.164  15.714   6.709
 5184POPC   C3B65937   6.218  15.736   7.175
 5184POPC   C4B65938   6.222  15.814   7.653
 5185POPC   NC365939  32.235  12.310   5.374
 5185POPC   PO465940  32.456  11.713   5.487
 5185POPC   GL165941  32.460  12.079   5.772
 5185POPC   GL265942  32.077  12.116   5.837
 5185POPC   C1A65943  32.406  12.283   6.178
 5185POPC   D2A65944  32.162  12.126   6.533
 5185POPC   C3A65945  32.312  12.106   6.935
 5185POPC   C4A65946  32.153  11.805   7.224
 5185POPC   C1B65947  31.883  12.371   6.194
 5185POPC   C2B65948  31.876  12.532   6.671
 5185POPC   C3B65949  31.990  12.487   7.130
 5185POPC   C4B65950  31.932  12.190   7.483
 5186POPC   NC365951   8.224  20.909   5.479
 5186POPC   PO465952   8.517  20.299   5.417
 5186POPC   GL165953   8.508  20.547   5.820
 5186POPC   GL265954   8.487  20.914   5.935
 5186POPC   C1A65955   8.235  20.514   6.202
 5186POPC   D2A65956   7.860  20.725   6.411
 5186POPC   C3A65957   7.732  20.587   6.833
 5186POPC   C4A65958   7.968  20.599   7.212
 5186POPC   C1B65959   8.466  20.915   6.417
 5186POPC   C2B65960   8.261  20.642   6.731
 5186POPC   C3B65961   8.420  20.393   7.056
 5186POPC   C4B65962   8.432  20.576   7.452
 5187POPC   NC365963  19.123  42.717   5.479
 5187POPC   PO465964  18.912  42.228   5.102
 5187POPC   GL165965  18.782  42.405   5.651
 5187POPC   GL265966  19.076  42.574   5.950
 5187POPC   C1A65967  18.730  42.284   6.124
 5187POPC   D2A65968  19.008  42.170   6.463
 5187POPC   C3A65969  18.841  42.120   6.879
 5187POPC   C4A65970  19.011  42.288   7.255
 5187POPC   C1B65971  19.527  42.538   6.162
 5187POPC   C2B65972  19.596  42.669   6.609
 5187POPC   C3B65973  19.343  42.385   6.879
 5187POPC   C4B65974  19.504  42.192   7.253
 5188POPC   NC365975  38.555  41.611   4.956
 5188POPC   PO465976  38.147  41.624   5.514
 5188POPC   GL165977  38.336  41.524   5.905
 5188POPC   GL265978  38.576  41.804   5.934
 5188POPC   C1A65979  38.260  41.392   6.341
 5188POPC   D2A65980  38.209  41.614   6.767
 5188POPC   C3A65981  38.429  41.457   7.118
 5188POPC   C4A65982  38.411  41.198   7.467
 5188POPC   C1B65983  38.628  41.739   6.380
 5188POPC   C2B65984  38.708  41.775   6.816
 5188POPC   C3B65985  38.622  41.922   7.219
 5188POPC   C4B65986  38.761  42.043   7.649
 5189POPC   NC365987   3.299  23.896   5.433
 5189POPC   PO465988   3.434  23.186   5.295
 5189POPC   GL165989   3.545  23.462   5.688
 5189POPC   GL265990   3.857  23.486   5.883
 5189POPC   C1A65991   3.420  23.528   6.145
 5189POPC   D2A65992   3.676  23.347   6.473
 5189POPC   C3A65993   3.623  23.394   6.922
 5189POPC   C4A65994   3.416  23.386   7.323
 5189POPC   C1B65995   3.863  23.769   6.261
 5189POPC   C2B65996   3.515  23.833   6.576
 5189POPC   C3B65997   3.357  23.850   6.960
 5189POPC   C4B65998   3.670  23.831   7.256
 5190POPC   NC365999  41.801  24.907   5.448
 5190POPC   PO466000  41.429  24.296   5.520
 5190POPC   GL166001  41.617  24.359   5.878
 5190POPC   GL266002  41.658  24.725   5.910
 5190POPC   C1A66003  41.491  24.418   6.284
 5190POPC   D2A66004  41.529  24.631   6.658
 5190POPC   C3A66005  41.555  24.408   6.972
 5190POPC   C4A66006  41.717  24.208   7.312
 5190POPC   C1B66007  41.814  24.870   6.317
 5190POPC   C2B66008  41.967  24.912   6.736
 5190POPC   C3B66009  41.747  24.874   7.094
 5190POPC   C4B66010  41.846  25.029   7.456
 5191POPC   NC366011  12.619  26.444   5.470
 5191POPC   PO466012  12.546  27.089   5.271
 5191POPC   GL166013  12.652  26.913   5.719
 5191POPC   GL266014  12.412  27.030   5.919
 5191POPC   C1A66015  12.714  26.713   6.190
 5191POPC   D2A66016  12.854  26.607   6.645
 5191POPC   C3A66017  12.875  26.558   7.101
 5191POPC   C4A66018  13.185  26.590   7.443
 5191POPC   C1B66019  12.491  27.144   6.366
 5191POPC   C2B66020  12.512  26.955   6.800
 5191POPC   C3B66021  12.525  26.881   7.255
 5191POPC   C4B66022  12.619  27.036   7.675
 5192POPC   NC366023  15.344  30.973   5.536
 5192POPC   PO466024  15.981  30.813   5.433
 5192POPC   GL166025  15.734  30.754   5.800
 5192POPC   GL266026  15.468  30.504   5.816
 5192POPC   C1A66027  15.816  30.788   6.225
 5192POPC   D2A66028  16.092  30.596   6.529
 5192POPC   C3A66029  16.172  30.818   6.915
 5192POPC   C4A66030  15.920  30.766   7.241
 5192POPC   C1B66031  15.564  30.340   6.199
 5192POPC   C2B66032  15.594  30.516   6.597
 5192POPC   C3B66033  15.829  30.376   6.938
 5192POPC   C4B66034  15.752  30.307   7.373
 5193POPC   NC366035   4.305  34.454   5.457
 5193POPC   PO466036   4.271  35.191   5.453
 5193POPC   GL166037   4.317  34.900   5.884
 5193POPC   GL266038   4.155  34.549   5.929
 5193POPC   C1A66039   4.222  34.776   6.366
 5193POPC   D2A66040   4.336  34.455   6.668
 5193POPC   C3A66041   4.558  34.706   6.942
 5193POPC   C4A66042   4.218  34.952   6.943
 5193POPC   C1B66043   4.000  34.300   6.302
 5193POPC   C2B66044   3.825  34.413   6.717
 5193POPC   C3B66045   4.067  34.465   7.124
 5193POPC   C4B66046   4.168  34.239   7.518
 5194POPC   NC366047   3.332  34.682   5.421
 5194POPC   PO466048   3.856  34.282   5.500
 5194POPC   GL166049   3.620  34.508   5.861
 5194POPC   GL266050   3.264  34.670   5.931
 5194POPC   C1A66051   3.683  34.723   6.267
 5194POPC   D2A66052   3.442  34.837   6.667
 5194POPC   C3A66053   3.648  34.759   7.067
 5194POPC   C4A66054   3.485  34.358   7.206
 5194POPC   C1B66055   3.302  34.395   6.319
 5194POPC   C2B66056   3.153  34.401   6.752
 5194POPC   C3B66057   3.145  34.740   7.078
 5194POPC   C4B66058   3.281  34.788   7.502
 5195POPC   NC366059   0.894  38.701   5.298
 5195POPC   PO466060   1.104  38.076   5.408
 5195POPC   GL166061   1.271  38.289   5.837
 5195POPC   GL266062   1.054  38.570   5.893
 5195POPC   C1A66063   1.405  38.394   6.287
 5195POPC   D2A66064   1.195  38.465   6.705
 5195POPC   C3A66065   1.431  38.406   7.100
 5195POPC   C4A66066   1.774  38.501   7.398
 5195POPC   C1B66067   0.924  38.274   6.265
 5195POPC   C2B66068   0.748  38.215   6.664
 5195POPC   C3B66069   0.951  38.087   7.043
 5195POPC   C4B66070   1.013  38.318   7.420
 5196POPC   NC366071   1.747  20.841   5.497
 5196POPC   PO466072   2.292  20.476   5.424
 5196POPC   GL166073   2.140  20.702   5.809
 5196POPC   GL266074   1.902  20.428   5.871
 5196POPC   C1A66075   2.081  20.721   6.281
 5196POPC   D2A66076   2.286  20.488   6.643
 5196POPC   C3A66077   2.314  20.679   7.073
 5196POPC   C4A66078   2.227  20.627   7.533
 5196POPC   C1B66079   1.988  20.213   6.264
 5196POPC   C2B66080   1.800  20.277   6.685
 5196POPC   C3B66081   1.822  20.467   7.093
 5196POPC   C4B66082   1.714  20.712   7.455
 5197POPC   NC366083   2.714   1.316   5.569
 5197POPC   PO466084   3.094   0.732   5.456
 5197POPC   GL166085   3.115   1.023   5.779
 5197POPC   GL266086   2.788   0.895   5.871
 5197POPC   C1A66087   3.014   1.279   6.153
 5197POPC   D2A66088   3.017   1.184   6.587
 5197POPC   C3A66089   2.875   1.463   6.835
 5197POPC   C4A66090   2.870   1.448   7.246
 5197POPC   C1B66091   2.555   1.056   6.214
 5197POPC   C2B66092   2.488   1.225   6.606
 5197POPC   C3B66093   2.604   1.061   7.016
 5197POPC   C4B66094   2.309   0.901   7.288
 5198POPC   NC366095  16.038  28.894   5.299
 5198POPC   PO466096  16.085  28.258   5.324
 5198POPC   GL166097  16.069  28.191   5.762
 5198POPC   GL266098  16.198  27.856   5.758
 5198POPC   C1A66099  16.064  28.400   6.207
 5198POPC   D2A66100  16.084  28.634   6.629
 5198POPC   C3A66101  15.895  28.452   7.042
 5198POPC   C4A66102  15.812  28.395   7.514
 5198POPC   C1B66103  15.933  27.855   6.132
 5198POPC   C2B66104  15.994  28.004   6.553
 5198POPC   C3B66105  16.208  27.959   6.923
 5198POPC   C4B66106  16.195  28.099   7.323
 5199POPC   NC366107  13.005   9.230   5.465
 5199POPC   PO466108  12.492   8.716   5.529
 5199POPC   GL166109  12.704   8.751   5.915
 5199POPC   GL266110  13.005   8.923   5.876
 5199POPC   C1A66111  12.885   8.778   6.346
 5199POPC   D2A66112  13.147   8.901   6.683
 5199POPC   C3A66113  12.924   8.824   7.066
 5199POPC   C4A66114  12.537   8.646   7.164
 5199POPC   C1B66115  12.893   9.287   6.161
 5199POPC   C2B66116  13.047   9.458   6.585
 5199POPC   C3B66117  13.172   9.306   7.014
 5199POPC   C4B66118  13.434   8.934   7.107
 5200POPC   NC366119   0.315  32.041   5.530
 5200POPC   PO466120   0.695  32.613   5.347
 5200POPC   GL166121   0.608  32.386   5.751
 5200POPC   GL266122   0.224  32.433   5.853
 5200POPC   C1A66123   0.553  32.155   6.146
 5200POPC   D2A66124   0.334  32.215   6.514
 5200POPC   C3A66125   0.619  32.169   6.876
 5200POPC   C4A66126   0.760  32.479   7.150
 5200POPC   C1B66127  44.939  32.438   6.265
 5200POPC   C2B66128  44.917  32.362   6.741
 5200POPC   C3B66129   0.185  32.256   7.138
 5200POPC   C4B66130   0.135  32.214   7.601
 5201POPC   NC366131  32.561   8.387   5.519
 5201POPC   PO466132  32.118   7.909   5.300
 5201POPC   GL166133  32.169   8.081   5.702
 5201POPC   GL266134  32.463   7.861   5.774
 5201POPC   C1A66135  32.138   8.293   6.118
 5201POPC   D2A66136  32.306   8.338   6.535
 5201POPC   C3A66137  32.106   8.172   6.888
 5201POPC   C4A66138  32.200   8.376   7.223
 5201POPC   C1B66139  32.550   7.991   6.188
 5201POPC   C2B66140  32.669   7.940   6.620
 5201POPC   C3B66141  32.564   8.026   7.048
 5201POPC   C4B66142  32.475   8.012   7.479
 5202POPC   NC366143  25.946  31.719   5.046
 5202POPC   PO466144  26.317  31.267   5.382
 5202POPC   GL166145  26.192  31.431   5.781
 5202POPC   GL266146  26.401  31.707   5.815
 5202POPC   C1A66147  25.951  31.317   6.142
 5202POPC   D2A66148  25.813  31.142   6.542
 5202POPC   C3A66149  25.836  31.475   6.870
 5202POPC   C4A66150  25.755  31.788   7.199
 5202POPC   C1B66151  26.331  31.710   6.227
 5202POPC   C2B66152  26.235  31.415   6.551
 5202POPC   C3B66153  26.322  31.332   6.961
 5202POPC   C4B66154  26.209  31.572   7.295
 5203POPC   NC366155  36.474   2.436   5.451
 5203POPC   PO466156  35.868   2.789   5.447
 5203POPC   GL166157  36.054   2.877   5.831
 5203POPC   GL266158  36.232   2.593   5.875
 5203POPC   C1A66159  36.145   2.867   6.283
 5203POPC   D2A66160  36.415   3.029   6.560
 5203POPC   C3A66161  36.203   2.976   6.933
 5203POPC   C4A66162  36.149   3.070   7.379
 5203POPC   C1B66163  35.888   2.449   6.176
 5203POPC   C2B66164  35.773   2.441   6.619
 5203POPC   C3B66165  36.017   2.341   6.978
 5203POPC   C4B66166  36.216   2.583   7.290
 5204POPC   NC366167  39.731  34.209   5.453
 5204POPC   PO466168  40.221  34.807   5.484
 5204POPC   GL166169  40.057  34.526   5.809
 5204POPC   GL266170  39.788  34.669   5.992
 5204POPC   C1A66171  40.143  34.417   6.263
 5204POPC   D2A66172  40.441  34.417   6.605
 5204POPC   C3A66173  40.234  34.381   7.006
 5204POPC   C4A66174  39.832  34.500   7.145
 5204POPC   C1B66175  40.154  34.936   6.161
 5204POPC   C2B66176  40.306  34.916   6.611
 5204POPC   C3B66177  40.189  34.879   7.052
 5204POPC   C4B66178  40.285  35.037   7.467
 5205POPC   NC366179  34.855  35.123   5.384
 5205POPC   PO466180  34.425  35.629   5.133
 5205POPC   GL166181  34.558  35.533   5.633
 5205POPC   GL266182  34.477  35.197   5.784
 5205POPC   C1A66183  34.522  35.538   6.135
 5205POPC   D2A66184  34.637  35.348   6.531
 5205POPC   C3A66185  34.335  35.401   6.863
 5205POPC   C4A66186  34.396  35.389   7.308
 5205POPC   C1B66187  34.458  34.994   6.200
 5205POPC   C2B66188  34.387  34.914   6.657
 5205POPC   C3B66189  34.600  34.993   7.059
 5205POPC   C4B66190  34.497  34.881   7.490
 5206POPC   NC366191   6.183   3.386   5.471
 5206POPC   PO466192   5.644   3.769   5.410
 5206POPC   GL166193   5.933   3.702   5.796
 5206POPC   GL266194   6.239   3.552   5.944
 5206POPC   C1A66195   5.843   3.624   6.248
 5206POPC   D2A66196   5.671   3.371   6.577
 5206POPC   C3A66197   5.764   3.570   6.977
 5206POPC   C4A66198   5.663   3.498   7.400
 5206POPC   C1B66199   6.344   3.341   6.342
 5206POPC   C2B66200   6.295   3.355   6.813
 5206POPC   C3B66201   6.484   3.510   7.224
 5206POPC   C4B66202   6.262   3.586   7.641
 5207POPC   NC366203  19.630  32.793   5.587
 5207POPC   PO466204  20.180  33.208   5.504
 5207POPC   GL166205  20.077  32.953   5.851
 5207POPC   GL266206  20.071  32.579   5.780
 5207POPC   C1A66207  19.761  33.029   6.188
 5207POPC   D2A66208  19.524  33.264   6.484
 5207POPC   C3A66209  19.720  33.195   6.878
 5207POPC   C4A66210  19.720  33.118   7.279
 5207POPC   C1B66211  20.071  32.611   6.227
 5207POPC   C2B66212  19.903  32.785   6.624
 5207POPC   C3B66213  19.722  32.650   7.011
 5207POPC   C4B66214  20.031  32.367   7.161
 5208POPC   NC366215  13.786  25.038   5.500
 5208POPC   PO466216  13.385  25.591   5.403
 5208POPC   GL166217  13.548  25.376   5.822
 5208POPC   GL266218  13.448  25.000   5.880
 5208POPC   C1A66219  13.762  25.495   6.241
 5208POPC   D2A66220  13.843  25.712   6.626
 5208POPC   C3A66221  13.696  25.521   6.981
 5208POPC   C4A66222  14.033  25.392   7.217
 5208POPC   C1B66223  13.704  24.984   6.252
 5208POPC   C2B66224  13.868  25.117   6.652
 5208POPC   C3B66225  13.712  25.005   7.043
 5208POPC   C4B66226  13.352  24.817   7.269
 5209POPC   NC366227   8.348  39.011   5.464
 5209POPC   PO466228   8.177  39.595   5.465
 5209POPC   GL166229   8.294  39.381   5.810
 5209POPC   GL266230   7.969  39.201   5.784
 5209POPC   C1A66231   8.370  39.528   6.215
 5209POPC   D2A66232   8.242  39.320   6.582
 5209POPC   C3A66233   8.443  39.325   6.974
 5209POPC   C4A66234   8.371  39.573   7.343
 5209POPC   C1B66235   8.098  39.009   6.164
 5209POPC   C2B66236   7.849  38.980   6.526
 5209POPC   C3B66237   7.860  38.923   6.941
 5209POPC   C4B66238   7.980  39.230   7.217
 5210POPC   NC366239  39.440  28.536   5.417
 5210POPC   PO466240  39.200  27.887   5.473
 5210POPC   GL166241  39.261  28.178   5.782
 5210POPC   GL266242  39.082  28.504   5.802
 5210POPC   C1A66243  39.327  28.288   6.203
 5210POPC   D2A66244  39.419  28.156   6.618
 5210POPC   C3A66245  39.265  28.418   6.952
 5210POPC   C4A66246  39.488  28.585   7.302
 5210POPC   C1B66247  38.834  28.271   6.123
 5210POPC   C2B66248  38.927  28.269   6.568
 5210POPC   C3B66249  38.806  28.249   7.010
 5210POPC   C4B66250  39.026  28.394   7.430
 5211POPC   NC366251  43.069   8.159   5.436
 5211POPC   PO466252  43.251   8.666   5.095
 5211POPC   GL166253  43.197   8.617   5.673
 5211POPC   GL266254  43.174   8.285   5.903
 5211POPC   C1A66255  43.462   8.615   6.117
 5211POPC   D2A66256  43.248   8.322   6.457
 5211POPC   C3A66257  43.257   8.313   6.939
 5211POPC   C4A66258  42.972   8.411   7.340
 5211POPC   C1B66259  42.809   8.223   6.158
 5211POPC   C2B66260  42.648   8.106   6.537
 5211POPC   C3B66261  42.761   8.209   6.922
 5211POPC   C4B66262  42.979   7.922   7.239
 5212POPC   NC366263  12.688  33.066   5.380
 5212POPC   PO466264  13.248  32.572   5.346
 5212POPC   GL166265  13.197  32.728   5.880
 5212POPC   GL266266  12.830  32.819   6.078
 5212POPC   C1A66267  13.221  33.080   6.192
 5212POPC   D2A66268  12.923  33.013   6.539
 5212POPC   C3A66269  13.085  32.933   6.934
 5212POPC   C4A66270  13.156  33.281   7.202
 5212POPC   C1B66271  12.480  32.778   6.363
 5212POPC   C2B66272  12.463  32.764   6.812
 5212POPC   C3B66273  12.500  32.684   7.235
 5212POPC   C4B66274  12.890  32.811   7.398
 5213POPC   NC366275  43.591  16.447   5.463
 5213POPC   PO466276  44.149  16.718   5.761
 5213POPC   GL166277  43.777  16.770   5.942
 5213POPC   GL266278  43.712  16.434   5.974
 5213POPC   C1A66279  43.642  16.721   6.374
 5213POPC   D2A66280  43.476  16.601   6.778
 5213POPC   C3A66281  43.770  16.774   7.073
 5213POPC   C4A66282  43.850  17.025   7.431
 5213POPC   C1B66283  44.097  16.443   6.304
 5213POPC   C2B66284  44.238  16.578   6.713
 5213POPC   C3B66285  44.064  16.348   7.031
 5213POPC   C4B66286  43.668  16.248   7.118
 5214POPC   NC366287   0.309  21.071   5.073
 5214POPC   PO466288   0.469  20.549   5.450
 5214POPC   GL166289   0.067  20.575   5.651
 5214POPC   GL266290   0.034  20.220   5.722
 5214POPC   C1A66291  44.960  20.755   6.089
 5214POPC   D2A66292   0.213  20.927   6.462
 5214POPC   C3A66293   0.106  20.837   6.890
 5214POPC   C4A66294   0.310  20.716   7.262
 5214POPC   C1B66295   0.254  20.329   6.091
 5214POPC   C2B66296   0.186  20.400   6.528
 5214POPC   C3B66297   0.464  20.413   6.866
 5214POPC   C4B66298   0.598  20.282   7.255
 5215POPC   NC366299  30.213  19.310   5.500
 5215POPC   PO466300  30.667  18.866   5.321
 5215POPC   GL166301  30.695  18.887   5.797
 5215POPC   GL266302  30.400  18.685   5.846
 5215POPC   C1A66303  30.800  19.044   6.264
 5215POPC   D2A66304  30.532  19.268   6.606
 5215POPC   C3A66305  30.461  19.191   7.078
 5215POPC   C4A66306  30.892  19.205   7.292
 5215POPC   C1B66307  30.588  18.576   6.214
 5215POPC   C2B66308  30.532  18.742   6.619
 5215POPC   C3B66309  30.765  18.801   6.960
 5215POPC   C4B66310  30.620  18.800   7.386
 5216POPC   NC366311  16.511  28.017   5.350
 5216POPC   PO466312  17.048  28.443   5.517
 5216POPC   GL166313  16.926  28.159   5.844
 5216POPC   GL266314  16.586  28.191   5.834
 5216POPC   C1A66315  16.911  28.141   6.305
 5216POPC   D2A66316  16.961  28.489   6.632
 5216POPC   C3A66317  16.916  28.399   7.059
 5216POPC   C4A66318  16.675  28.049   7.155
 5216POPC   C1B66319  16.414  28.032   6.214
 5216POPC   C2B66320  16.496  28.238   6.614
 5216POPC   C3B66321  16.405  28.453   6.986
 5216POPC   C4B66322  16.252  28.610   7.374
 5217POPC   NC366323  22.737   6.713   5.599
 5217POPC   PO466324  23.361   6.868   5.448
 5217POPC   GL166325  23.165   6.624   5.834
 5217POPC   GL266326  22.857   6.832   6.057
 5217POPC   C1A66327  23.042   6.428   6.240
 5217POPC   D2A66328  22.796   6.558   6.600
 5217POPC   C3A66329  23.051   6.608   6.942
 5217POPC   C4A66330  23.128   6.564   7.364
 5217POPC   C1B66331  22.533   6.453   6.175
 5217POPC   C2B66332  22.312   6.382   6.591
 5217POPC   C3B66333  22.436   6.546   7.003
 5217POPC   C4B66334  22.676   6.340   7.362
 5218POPC   NC366335  15.560   9.738   5.441
 5218POPC   PO466336  16.226   9.689   5.432
 5218POPC   GL166337  16.055   9.885   5.847
 5218POPC   GL266338  15.696   9.834   5.929
 5218POPC   C1A66339  16.042   9.780   6.332
 5218POPC   D2A66340  16.330   9.639   6.701
 5218POPC   C3A66341  16.099   9.494   7.078
 5218POPC   C4A66342  15.787   9.692   7.342
 5218POPC   C1B66343  15.503  10.108   6.249
 5218POPC   C2B66344  15.544  10.247   6.629
 5218POPC   C3B66345  15.693  10.040   6.969
 5218POPC   C4B66346  15.754  10.215   7.337
 5219POPC   NC366347   1.759   3.761   5.440
 5219POPC   PO466348   2.290   3.365   5.363
 5219POPC   GL166349   2.030   3.436   5.736
 5219POPC   GL266350   2.104   3.791   5.851
 5219POPC   C1A66351   1.797   3.456   6.144
 5219POPC   D2A66352   1.909   3.693   6.553
 5219POPC   C3A66353   1.850   3.495   6.998
 5219POPC   C4A66354   1.764   3.409   7.498
 5219POPC   C1B66355   2.294   3.519   6.180
 5219POPC   C2B66356   2.585   3.351   6.493
 5219POPC   C3B66357   2.461   3.419   6.920
 5219POPC   C4B66358   2.241   3.426   7.306
 5220POPC   NC366359  44.454   7.373   5.483
 5220POPC   PO466360   0.195   7.401   5.461
 5220POPC   GL166361  44.863   7.430   5.789
 5220POPC   GL266362  44.746   7.088   5.849
 5220POPC   C1A66363  44.702   7.632   6.183
 5220POPC   D2A66364  44.942   7.674   6.577
 5220POPC   C3A66365  44.708   7.564   6.954
 5220POPC   C4A66366  44.517   7.765   7.307
 5220POPC   C1B66367  44.495   7.139   6.211
 5220POPC   C2B66368  44.400   7.195   6.646
 5220POPC   C3B66369  44.591   7.036   7.012
 5220POPC   C4B66370  44.673   7.247   7.379
 5221POPC   NC366371  17.257  44.777   5.397
 5221POPC   PO466372  17.879  44.975   5.142
 5221POPC   GL166373  17.722  44.963   5.608
 5221POPC   GL266374  17.630  44.606   5.711
 5221POPC   C1A66375  17.625  44.975   6.085
 5221POPC   D2A66376  17.652   0.021   6.550
 5221POPC   C3A66377  17.436  44.725   6.883
 5221POPC   C4A66378  17.244  44.823   7.311
 5221POPC   C1B66379  17.795  44.443   6.118
 5221POPC   C2B66380  17.857  44.532   6.558
 5221POPC   C3B66381  17.805  44.328   6.954
 5221POPC   C4B66382  17.576  44.422   7.303
 5222POPC   NC366383  32.046  21.103   5.196
 5222POPC   PO466384  32.323  21.626   5.508
 5222POPC   GL166385  32.167  21.669   5.938
 5222POPC   GL266386  32.417  21.486   6.020
 5222POPC   C1A66387  31.979  21.545   6.336
 5222POPC   D2A66388  31.875  21.561   6.772
 5222POPC   C3A66389  31.790  21.200   6.981
 5222POPC   C4A66390  32.073  20.907   6.992
 5222POPC   C1B66391  32.467  21.749   6.369
 5222POPC   C2B66392  32.582  21.677   6.772
 5222POPC   C3B66393  32.334  21.408   7.023
 5222POPC   C4B66394  32.006  21.580   7.251
 5223POPC   NC366395  17.803  43.623   5.430
 5223POPC   PO466396  17.314  44.179   5.356
 5223POPC   GL166397  17.399  43.860   5.681
 5223POPC   GL266398  17.102  43.706   5.792
 5223POPC   C1A66399  17.630  43.872   6.088
 5223POPC   D2A66400  17.626  44.019   6.525
 5223POPC   C3A66401  17.531  43.689   6.858
 5223POPC   C4A66402  17.689  43.621   7.274
 5223POPC   C1B66403  17.106  43.994   6.105
 5223POPC   C2B66404  17.094  43.994   6.550
 5223POPC   C3B66405  17.310  44.148   6.909
 5223POPC   C4B66406  17.358  43.984   7.296
 5224POPC   NC366407   0.898  11.092   5.387
 5224POPC   PO466408   1.552  11.277   5.266
 5224POPC   GL166409   1.339  11.203   5.688
 5224POPC   GL266410   1.047  11.382   5.777
 5224POPC   C1A66411   1.343  11.242   6.162
 5224POPC   D2A66412   1.087  11.253   6.533
 5224POPC   C3A66413   1.326  11.256   6.930
 5224POPC   C4A66414   1.289  11.497   7.288
 5224POPC   C1B66415   1.011  11.658   6.091
 5224POPC   C2B66416   0.936  11.744   6.519
 5224POPC   C3B66417   0.910  11.571   6.914
 5224POPC   C4B66418   0.833  11.700   7.328
 5225POPC   NC366419  15.748  18.518   5.284
 5225POPC   PO466420  16.060  17.969   5.584
 5225POPC   GL166421  15.847  18.250   5.869
 5225POPC   GL266422  15.549  18.457   5.749
 5225POPC   C1A66423  15.934  18.310   6.280
 5225POPC   D2A66424  16.078  18.232   6.680
 5225POPC   C3A66425  16.052  18.471   7.057
 5225POPC   C4A66426  16.089  18.266   7.447
 5225POPC   C1B66427  15.542  18.621   6.168
 5225POPC   C2B66428  15.684  18.654   6.611
 5225POPC   C3B66429  15.563  18.662   7.053
 5225POPC   C4B66430  15.636  18.475   7.471
 5226POPC   NC366431  26.555  20.573   5.087
 5226POPC   PO466432  26.075  20.472   5.580
 5226POPC   GL166433  25.951  20.642   5.936
 5226POPC   GL266434  25.668  20.458   5.932
 5226POPC   C1A66435  26.066  20.769   6.367
 5226POPC   D2A66436  26.469  20.850   6.548
 5226POPC   C3A66437  26.460  20.717   6.935
 5226POPC   C4A66438  26.226  20.702   7.295
 5226POPC   C1B66439  25.829  20.318   6.317
 5226POPC   C2B66440  25.652  20.548   6.648
 5226POPC   C3B66441  25.824  20.593   7.009
 5226POPC   C4B66442  25.869  20.299   7.324
 5227POPC   NC366443   8.062  42.184   5.508
 5227POPC   PO466444   8.407  42.592   5.126
 5227POPC   GL166445   8.419  42.594   5.622
 5227POPC   GL266446   8.283  42.866   5.823
 5227POPC   C1A66447   8.301  42.422   6.097
 5227POPC   D2A66448   8.092  42.647   6.488
 5227POPC   C3A66449   8.010  42.472   6.925
 5227POPC   C4A66450   7.996  42.576   7.386
 5227POPC   C1B66451   8.539  42.864   6.213
 5227POPC   C2B66452   8.605  42.601   6.625
 5227POPC   C3B66453   8.479  42.603   7.084
 5227POPC   C4B66454   8.473  42.454   7.505
 5228POPC   NC366455  41.890  40.119   5.387
 5228POPC   PO466456  42.447  39.743   5.414
 5228POPC   GL166457  42.344  39.821   5.870
 5228POPC   GL266458  42.067  40.064   5.871
 5228POPC   C1A66459  42.236  39.841   6.336
 5228POPC   D2A66460  42.343  40.126   6.687
 5228POPC   C3A66461  42.440  39.860   7.076
 5228POPC   C4A66462  42.463  39.899   7.548
 5228POPC   C1B66463  42.037  40.311   6.238
 5228POPC   C2B66464  41.966  40.535   6.628
 5228POPC   C3B66465  42.010  40.314   7.004
 5228POPC   C4B66466  42.364  40.319   7.256
 5229POPC   NC366467  19.696  40.369   5.390
 5229POPC   PO466468  19.992  40.994   5.318
 5229POPC   GL166469  19.829  40.812   5.701
 5229POPC   GL266470  20.056  40.551   5.757
 5229POPC   C1A66471  19.716  40.823   6.158
 5229POPC   D2A66472  19.541  40.785   6.602
 5229POPC   C3A66473  19.844  40.773   6.940
 5229POPC   C4A66474  20.028  41.006   7.285
 5229POPC   C1B66475  20.104  40.489   6.215
 5229POPC   C2B66476  20.009  40.361   6.653
 5229POPC   C3B66477  20.178  40.384   7.056
 5229POPC   C4B66478  19.928  40.499   7.404
 5230POPC   NC366479   0.367   8.791   5.457
 5230POPC   PO466480   0.242   9.464   5.498
 5230POPC   GL166481   0.384   9.167   5.830
 5230POPC   GL266482   0.212   8.856   5.957
 5230POPC   C1A66483   0.609   9.177   6.231
 5230POPC   D2A66484   0.450   8.902   6.569
 5230POPC   C3A66485   0.712   8.752   6.916
 5230POPC   C4A66486   0.732   8.925   7.335
 5230POPC   C1B66487   0.090   9.201   6.255
 5230POPC   C2B66488   0.095   9.273   6.693
 5230POPC   C3B66489   0.284   9.046   7.052
 5230POPC   C4B66490   0.345   9.214   7.473
 5231POPC   NC366491  24.748  29.197   5.102
 5231POPC   PO466492  24.323  29.024   5.635
 5231POPC   GL166493  24.494  29.019   6.051
 5231POPC   GL266494  24.499  29.396   5.988
 5231POPC   C1A66495  24.844  29.130   6.331
 5231POPC   D2A66496  24.890  29.368   6.697
 5231POPC   C3A66497  24.655  29.151   6.986
 5231POPC   C4A66498  24.408  29.011   7.337
 5231POPC   C1B66499  24.215  29.408   6.276
 5231POPC   C2B66500  24.335  29.370   6.669
 5231POPC   C3B66501  24.147  29.383   7.077
 5231POPC   C4B66502  24.121  29.352   7.557
 5232POPC   NC366503  26.116  36.720   5.553
 5232POPC   PO466504  26.624  37.093   5.270
 5232POPC   GL166505  26.417  37.112   5.745
 5232POPC   GL266506  26.070  37.213   5.803
 5232POPC   C1A66507  26.217  36.882   6.162
 5232POPC   D2A66508  26.013  36.841   6.615
 5232POPC   C3A66509  26.133  36.810   7.077
 5232POPC   C4A66510  25.886  36.849   7.463
 5232POPC   C1B66511  26.086  37.404   6.208
 5232POPC   C2B66512  26.060  37.381   6.664
 5232POPC   C3B66513  25.991  37.303   7.116
 5232POPC   C4B66514  25.982  37.356   7.553
 5233POPC   NC366515   6.433   5.673   5.548
 5233POPC   PO466516   6.731   6.167   5.283
 5233POPC   GL166517   6.812   5.913   5.773
 5233POPC   GL266518   6.548   5.848   6.001
 5233POPC   C1A66519   6.969   5.748   6.226
 5233POPC   D2A66520   6.879   5.595   6.656
 5233POPC   C3A66521   6.984   5.904   6.972
 5233POPC   C4A66522   6.748   5.976   7.328
 5233POPC   C1B66523   6.356   6.029   6.340
 5233POPC   C2B66524   6.115   5.864   6.654
 5233POPC   C3B66525   6.293   5.779   7.057
 5233POPC   C4B66526   6.253   6.075   7.378
 5234POPC   NC366527  18.927  20.969   5.417
 5234POPC   PO466528  19.137  20.499   5.022
 5234POPC   GL166529  19.055  20.469   5.528
 5234POPC   GL266530  18.702  20.522   5.674
 5234POPC   C1A66531  19.073  20.574   6.025
 5234POPC   D2A66532  18.908  20.354   6.439
 5234POPC   C3A66533  18.881  20.574   6.846
 5234POPC   C4A66534  19.190  20.842   7.099
 5234POPC   C1B66535  18.568  20.576   6.138
 5234POPC   C2B66536  18.482  20.914   6.458
 5234POPC   C3B66537  18.495  21.032   6.915
 5234POPC   C4B66538  18.693  20.838   7.246
 5235POPC   NC366539  40.203  43.719   5.394
 5235POPC   PO466540  39.603  43.745   5.534
 5235POPC   GL166541  39.905  43.865   5.844
 5235POPC   GL266542  40.218  44.059   5.781
 5235POPC   C1A66543  39.887  43.712   6.260
 5235POPC   D2A66544  39.682  43.722   6.649
 5235POPC   C3A66545  39.953  43.717   7.046
 5235POPC   C4A66546  39.847  43.487   7.440
 5235POPC   C1B66547  40.057  44.216   6.184
 5235POPC   C2B66548  40.041  44.081   6.593
 5235POPC   C3B66549  40.068  44.325   6.934
 5235POPC   C4B66550  40.119  44.177   7.307
 5236POPC   NC366551   2.430   2.924   5.415
 5236POPC   PO466552   1.806   2.490   5.394
 5236POPC   GL166553   1.995   2.693   5.753
 5236POPC   GL266554   1.699   2.849   5.900
 5236POPC   C1A66555   2.153   3.025   6.065
 5236POPC   D2A66556   2.075   3.184   6.492
 5236POPC   C3A66557   2.014   2.895   6.810
 5236POPC   C4A66558   1.940   3.026   7.213
 5236POPC   C1B66559   1.795   2.701   6.305
 5236POPC   C2B66560   1.590   2.580   6.674
 5236POPC   C3B66561   1.587   2.678   7.095
 5236POPC   C4B66562   1.847   2.631   7.513
 5237POPC   NC366563  19.034  26.270   5.077
 5237POPC   PO466564  19.063  25.950   5.596
 5237POPC   GL166565  18.907  26.091   5.920
 5237POPC   GL266566  19.068  26.401   5.892
 5237POPC   C1A66567  19.045  26.077   6.319
 5237POPC   D2A66568  18.850  26.052   6.670
 5237POPC   C3A66569  19.172  25.867   6.858
 5237POPC   C4A66570  19.166  25.890   7.272
 5237POPC   C1B66571  18.834  26.521   6.231
 5237POPC   C2B66572  18.946  26.583   6.652
 5237POPC   C3B66573  19.067  26.345   7.035
 5237POPC   C4B66574  19.301  26.370   7.414
 5238POPC   NC366575  41.721  38.579   5.660
 5238POPC   PO466576  41.078  38.271   5.472
 5238POPC   GL166577  41.384  38.235   5.785
 5238POPC   GL266578  41.355  38.539   5.995
 5238POPC   C1A66579  41.690  38.156   6.161
 5238POPC   D2A66580  41.812  38.148   6.592
 5238POPC   C3A66581  41.594  38.412   6.884
 5238POPC   C4A66582  41.496  38.482   7.303
 5238POPC   C1B66583  41.561  38.608   6.376
 5238POPC   C2B66584  41.678  38.917   6.645
 5238POPC   C3B66585  41.718  38.897   7.063
 5238POPC   C4B66586  41.544  38.969   7.461
 5239POPC   NC366587  27.951  22.112   5.271
 5239POPC   PO466588  28.382  21.736   5.600
 5239POPC   GL166589  28.509  22.040   5.893
 5239POPC   GL266590  28.248  22.310   5.940
 5239POPC   C1A66591  28.393  21.986   6.326
 5239POPC   D2A66592  28.314  22.236   6.685
 5239POPC   C3A66593  28.390  22.038   7.095
 5239POPC   C4A66594  28.269  22.047   7.529
 5239POPC   C1B66595  28.602  22.453   6.253
 5239POPC   C2B66596  28.723  22.626   6.657
 5239POPC   C3B66597  28.436  22.586   7.030
 5239POPC   C4B66598  28.462  22.537   7.487
 5240POPC   NC366599   0.829  34.484   5.559
 5240POPC   PO466600   1.469  34.174   5.433
 5240POPC   GL166601   1.251  34.474   5.840
 5240POPC   GL266602   0.966  34.747   5.948
 5240POPC   C1A66603   0.987  34.327   6.227
 5240POPC   D2A66604   1.163  34.374   6.633
 5240POPC   C3A66605   1.048  34.242   7.021
 5240POPC   C4A66606   1.370  34.387   7.272
 5240POPC   C1B66607   1.139  34.806   6.349
 5240POPC   C2B66608   1.028  34.856   6.791
 5240POPC   C3B66609   1.096  34.892   7.232
 5240POPC   C4B66610   1.006  34.994   7.689
 5241POPC   NC366611  33.681  22.077   5.398
 5241POPC   PO466612  33.261  21.669   5.603
 5241POPC   GL166613  33.598  21.932   5.885
 5241POPC   GL266614  33.750  22.283   5.871
 5241POPC   C1A66615  33.864  21.985   6.278
 5241POPC   D2A66616  33.798  22.199   6.689
 5241POPC   C3A66617  33.885  21.945   7.054
 5241POPC   C4A66618  34.059  21.862   7.460
 5241POPC   C1B66619  33.519  22.359   6.274
 5241POPC   C2B66620  33.361  22.583   6.646
 5241POPC   C3B66621  33.577  22.551   7.054
 5241POPC   C4B66622  33.813  22.334   7.385
 5242POPC   NC366623   8.799  42.795   5.283
 5242POPC   PO466624   9.040  43.389   5.126
 5242POPC   GL166625   8.961  43.249   5.659
 5242POPC   GL266626   8.855  42.898   5.785
 5242POPC   C1A66627   8.890  43.259   6.141
 5242POPC   D2A66628   8.925  43.020   6.533
 5242POPC   C3A66629   9.190  43.254   6.807
 5242POPC   C4A66630   9.122  43.247   7.246
 5242POPC   C1B66631   9.192  42.832   6.127
 5242POPC   C2B66632   9.385  42.780   6.544
 5242POPC   C3B66633   9.238  42.762   6.933
 5242POPC   C4B66634   9.428  42.848   7.296
 5243POPC   NC366635  40.159  18.389   5.550
 5243POPC   PO466636  39.712  17.852   5.491
 5243POPC   GL166637  39.771  18.128   5.873
 5243POPC   GL266638  39.766  18.499   5.872
 5243POPC   C1A66639  40.051  18.190   6.250
 5243POPC   D2A66640  40.400  18.223   6.564
 5243POPC   C3A66641  40.256  18.087   6.964
 5243POPC   C4A66642  39.832  18.070   7.132
 5243POPC   C1B66643  39.681  18.544   6.319
 5243POPC   C2B66644  40.006  18.558   6.636
 5243POPC   C3B66645  40.114  18.553   7.058
 5243POPC   C4B66646  39.896  18.530   7.437
 5244POPC   NC366647  32.257  33.373   5.230
 5244POPC   PO466648  32.806  32.988   5.225
 5244POPC   GL166649  32.426  32.868   5.597
 5244POPC   GL266650  32.149  33.070   5.770
 5244POPC   C1A66651  32.439  32.768   6.075
 5244POPC   D2A66652  32.321  32.931   6.498
 5244POPC   C3A66653  32.335  32.835   6.958
 5244POPC   C4A66654  32.452  33.135   7.278
 5244POPC   C1B66655  32.087  33.272   6.193
 5244POPC   C2B66656  32.124  33.410   6.649
 5244POPC   C3B66657  32.019  33.299   7.097
 5244POPC   C4B66658  32.053  33.294   7.574
 5245POPC   NC366659  37.881  14.100   5.347
 5245POPC   PO466660  37.328  14.491   5.482
 5245POPC   GL166661  37.685  14.400   5.737
 5245POPC   GL266662  37.891  14.721   5.768
 5245POPC   C1A66663  37.600  14.163   6.136
 5245POPC   D2A66664  37.363  14.304   6.511
 5245POPC   C3A66665  37.542  14.178   6.878
 5245POPC   C4A66666  37.417  14.252   7.281
 5245POPC   C1B66667  37.670  14.674   6.185
 5245POPC   C2B66668  37.734  14.728   6.641
 5245POPC   C3B66669  37.773  14.583   7.068
 5245POPC   C4B66670  37.990  14.246   7.238
 5246POPC   NC366671   1.793  24.864   5.549
 5246POPC   PO466672   2.290  24.359   5.498
 5246POPC   GL166673   2.097  24.426   5.893
 5246POPC   GL266674   1.789  24.327   5.767
 5246POPC   C1A66675   2.013  24.231   6.322
 5246POPC   D2A66676   2.201  24.258   6.752
 5246POPC   C3A66677   2.147  24.416   7.193
 5246POPC   C4A66678   2.209  24.721   7.578
 5246POPC   C1B66679   1.658  24.570   6.148
 5246POPC   C2B66680   1.490  24.563   6.563
 5246POPC   C3B66681   1.677  24.498   6.961
 5246POPC   C4B66682   1.681  24.120   7.229
 5247POPC   NC366683  27.517  14.609   5.398
 5247POPC   PO466684  27.993  14.170   5.415
 5247POPC   GL166685  27.659  14.212   5.744
 5247POPC   GL266686  27.334  14.042   5.659
 5247POPC   C1A66687  27.627  14.556   6.097
 5247POPC   D2A66688  27.856  14.698   6.488
 5247POPC   C3A66689  27.816  14.563   6.939
 5247POPC   C4A66690  27.840  14.842   7.303
 5247POPC   C1B66691  27.280  14.177   6.105
 5247POPC   C2B66692  27.479  14.297   6.510
 5247POPC   C3B66693  27.343  14.350   6.923
 5247POPC   C4B66694  27.441  14.433   7.319
 5248POPC   NC366695  19.967  35.181   5.399
 5248POPC   PO466696  19.493  35.740   5.440
 5248POPC   GL166697  19.686  35.469   5.749
 5248POPC   GL266698  19.978  35.595   5.819
 5248POPC   C1A66699  19.709  35.371   6.215
 5248POPC   D2A66700  19.591  35.549   6.621
 5248POPC   C3A66701  19.699  35.320   6.998
 5248POPC   C4A66702  19.886  34.999   7.276
 5248POPC   C1B66703  20.201  35.526   6.190
 5248POPC   C2B66704  20.094  35.434   6.614
 5248POPC   C3B66705  20.242  35.245   6.988
 5248POPC   C4B66706  20.083  35.470   7.328
 5249POPC   NC366707  23.639   7.248   5.338
 5249POPC   PO466708  24.212   7.434   5.678
 5249POPC   GL166709  23.809   7.450   5.805
 5249POPC   GL266710  23.734   7.765   5.892
 5249POPC   C1A66711  23.636   7.350   6.217
 5249POPC   D2A66712  23.612   7.091   6.605
 5249POPC   C3A66713  23.323   7.226   6.940
 5249POPC   C4A66714  23.514   7.284   7.344
 5249POPC   C1B66715  24.024   7.688   6.274
 5249POPC   C2B66716  24.018   7.709   6.747
 5249POPC   C3B66717  23.752   7.706   7.127
 5249POPC   C4B66718  23.321   7.720   7.122
 5250POPC   NC366719   4.415  31.176   5.542
 5250POPC   PO466720   4.515  31.911   5.613
 5250POPC   GL166721   4.319  31.597   5.825
 5250POPC   GL266722   4.620  31.463   5.892
 5250POPC   C1A66723   4.185  31.414   6.188
 5250POPC   D2A66724   3.992  31.554   6.581
 5250POPC   C3A66725   4.330  31.620   6.865
 5250POPC   C4A66726   4.394  31.441   7.236
 5250POPC   C1B66727   4.662  31.181   6.189
 5250POPC   C2B66728   4.479  31.217   6.572
 5250POPC   C3B66729   4.653  31.050   6.921
 5250POPC   C4B66730   4.682  31.056   7.313
 5251POPC   NC366731  20.090  39.826   5.651
 5251POPC   PO466732  19.879  39.245   5.299
 5251POPC   GL166733  19.845  39.361   5.766
 5251POPC   GL266734  19.475  39.489   5.772
 5251POPC   C1A66735  20.087  39.335   6.242
 5251POPC   D2A66736  20.176  39.409   6.734
 5251POPC   C3A66737  20.075  39.097   7.105
 5251POPC   C4A66738  20.050  38.900   7.562
 5251POPC   C1B66739  19.658  39.599   6.180
 5251POPC   C2B66740  19.633  39.363   6.569
 5251POPC   C3B66741  19.670  39.403   7.010
 5251POPC   C4B66742  19.736  39.275   7.465
 5252POPC   NC366743  36.479   6.748   5.551
 5252POPC   PO466744  35.841   6.668   5.351
 5252POPC   GL166745  35.809   6.562   5.783
 5252POPC   GL266746  36.143   6.516   5.866
 5252POPC   C1A66747  35.799   6.682   6.244
 5252POPC   D2A66748  35.744   6.926   6.660
 5252POPC   C3A66749  35.793   6.737   7.103
 5252POPC   C4A66750  35.815   6.552   7.534
 5252POPC   C1B66751  36.260   6.448   6.278
 5252POPC   C2B66752  36.131   6.605   6.666
 5252POPC   C3B66753  36.248   6.899   6.989
 5252POPC   C4B66754  36.280   6.615   7.330
 5253POPC   NC366755   4.486  36.468   5.467
 5253POPC   PO466756   3.870  36.777   5.341
 5253POPC   GL166757   3.878  36.691   5.833
 5253POPC   GL266758   4.246  36.679   5.880
 5253POPC   C1A66759   4.017  36.732   6.313
 5253POPC   D2A66760   4.280  37.113   6.455
 5253POPC   C3A66761   4.312  37.077   6.902
 5253POPC   C4A66762   4.146  36.774   7.185
 5253POPC   C1B66763   4.534  36.677   6.245
 5253POPC   C2B66764   4.634  36.504   6.660
 5253POPC   C3B66765   4.672  36.676   7.068
 5253POPC   C4B66766   4.648  36.967   7.367
 5254POPC   NC366767   5.158  15.929   5.079
 5254POPC   PO466768   4.806  15.626   5.594
 5254POPC   GL166769   4.977  15.699   5.993
 5254POPC   GL266770   5.049  16.048   5.865
 5254POPC   C1A66771   5.141  15.947   6.344
 5254POPC   D2A66772   4.988  15.990   6.760
 5254POPC   C3A66773   5.284  16.069   7.064
 5254POPC   C4A66774   5.201  15.794   7.388
 5254POPC   C1B66775   4.789  16.325   6.173
 5254POPC   C2B66776   4.649  16.356   6.613
 5254POPC   C3B66777   4.593  16.253   7.079
 5254POPC   C4B66778   4.757  16.203   7.515
 5255POPC   NC366779  20.158  17.765   5.490
 5255POPC   PO466780  19.521  17.515   5.491
 5255POPC   GL166781  19.829  17.505   5.806
 5255POPC   GL266782  19.750  17.204   5.903
 5255POPC   C1A66783  19.764  17.611   6.234
 5255POPC   D2A66784  19.940  17.753   6.598
 5255POPC   C3A66785  19.777  17.580   6.916
 5255POPC   C4A66786  19.808  17.528   7.293
 5255POPC   C1B66787  19.956  17.105   6.249
 5255POPC   C2B66788  19.845  17.173   6.623
 5255POPC   C3B66789  20.003  17.137   7.032
 5255POPC   C4B66790  19.662  17.056   7.287
 5256POPC   NC366791   4.477  28.793   5.371
 5256POPC   PO466792   4.211  28.205   5.421
 5256POPC   GL166793   4.151  28.452   5.801
 5256POPC   GL266794   4.467  28.620   5.889
 5256POPC   C1A66795   4.188  28.362   6.257
 5256POPC   D2A66796   4.283  28.215   6.724
 5256POPC   C3A66797   4.137  28.233   7.175
 5256POPC   C4A66798   4.243  28.538   7.492
 5256POPC   C1B66799   4.433  28.842   6.301
 5256POPC   C2B66800   4.580  28.812   6.752
 5256POPC   C3B66801   4.613  28.474   7.086
 5256POPC   C4B66802   4.762  28.347   7.508
 5257POPC   NC366803   7.734  30.668   5.446
 5257POPC   PO466804   7.571  31.292   5.384
 5257POPC   GL166805   7.446  31.045   5.775
 5257POPC   GL266806   7.375  30.693   5.835
 5257POPC   C1A66807   7.623  31.015   6.198
 5257POPC   D2A66808   7.621  30.767   6.563
 5257POPC   C3A66809   7.655  30.970   6.918
 5257POPC   C4A66810   7.701  30.746   7.271
 5257POPC   C1B66811   7.195  30.684   6.251
 5257POPC   C2B66812   6.998  30.625   6.661
 5257POPC   C3B66813   7.229  30.718   7.037
 5257POPC   C4B66814   7.239  30.497   7.447
 5258POPC   NC366815  24.302   4.451   5.438
 5258POPC   PO466816  24.100   3.895   5.555
 5258POPC   GL166817  24.223   4.191   5.895
 5258POPC   GL266818  24.567   4.347   5.871
 5258POPC   C1A66819  24.241   4.345   6.320
 5258POPC   D2A66820  24.503   4.313   6.707
 5258POPC   C3A66821  24.375   4.172   7.127
 5258POPC   C4A66822  24.516   4.105   7.581
 5258POPC   C1B66823  24.796   4.375   6.268
 5258POPC   C2B66824  24.866   4.666   6.603
 5258POPC   C3B66825  24.802   4.602   7.055
 5258POPC   C4B66826  24.863   4.586   7.516
 5259POPC   NC366827   1.858   1.302   5.285
 5259POPC   PO466828   2.418   0.938   5.534
 5259POPC   GL166829   2.165   1.289   5.764
 5259POPC   GL266830   1.768   1.310   5.803
 5259POPC   C1A66831   2.078   1.286   6.223
 5259POPC   D2A66832   1.938   1.026   6.551
 5259POPC   C3A66833   2.084   1.200   6.937
 5259POPC   C4A66834   2.413   1.532   7.043
 5259POPC   C1B66835   1.554   1.226   6.208
 5259POPC   C2B66836   1.645   1.437   6.596
 5259POPC   C3B66837   1.451   1.330   6.943
 5259POPC   C4B66838   1.689   1.329   7.243
 5260POPC   NC366839   1.783  21.616   5.451
 5260POPC   PO466840   2.178  21.141   5.521
 5260POPC   GL166841   2.044  21.247   5.927
 5260POPC   GL266842   1.708  21.273   5.896
 5260POPC   C1A66843   1.892  21.435   6.345
 5260POPC   D2A66844   1.644  21.407   6.726
 5260POPC   C3A66845   1.918  21.437   7.093
 5260POPC   C4A66846   2.059  21.061   7.306
 5260POPC   C1B66847   1.651  20.998   6.251
 5260POPC   C2B66848   1.738  20.832   6.682
 5260POPC   C3B66849   1.580  21.022   7.075
 5260POPC   C4B66850   1.621  21.251   7.477
 5261POPC   NC366851  10.740  43.718   5.443
 5261POPC   PO466852  11.268  44.215   5.427
 5261POPC   GL166853  11.144  43.915   5.750
 5261POPC   GL266854  11.251  43.583   5.684
 5261POPC   C1A66855  11.100  43.912   6.191
 5261POPC   D2A66856  10.978  43.906   6.594
 5261POPC   C3A66857  11.269  43.916   6.931
 5261POPC   C4A66858  11.307  44.168   7.304
 5261POPC   C1B66859  11.350  43.438   6.097
 5261POPC   C2B66860  11.400  43.563   6.525
 5261POPC   C3B66861  11.432  43.424   6.963
 5261POPC   C4B66862  11.370  43.638   7.362
 5262POPC   NC366863  36.112   4.192   5.456
 5262POPC   PO466864  35.760   4.745   5.566
 5262POPC   GL166865  35.972   4.559   5.907
 5262POPC   GL266866  36.308   4.405   5.898
 5262POPC   C1A66867  36.006   4.494   6.355
 5262POPC   D2A66868  36.174   4.302   6.703
 5262POPC   C3A66869  36.108   4.460   7.104
 5262POPC   C4A66870  35.930   4.805   7.352
 5262POPC   C1B66871  36.233   4.061   6.224
 5262POPC   C2B66872  36.205   3.816   6.587
 5262POPC   C3B66873  36.373   3.934   6.993
 5262POPC   C4B66874  36.123   3.919   7.366
 5263POPC   NC366875  34.337  17.488   5.470
 5263POPC   PO466876  35.023  17.570   5.408
 5263POPC   GL166877  34.740  17.562   5.803
 5263POPC   GL266878  34.600  17.253   5.914
 5263POPC   C1A66879  34.633  17.608   6.288
 5263POPC   D2A66880  34.614  17.386   6.700
 5263POPC   C3A66881  34.579  17.487   7.143
 5263POPC   C4A66882  34.915  17.617   7.433
 5263POPC   C1B66883  34.340  17.171   6.337
 5263POPC   C2B66884  34.145  17.184   6.781
 5263POPC   C3B66885  34.134  17.272   7.230
 5263POPC   C4B66886  34.405  17.378   7.621
 5264POPC   NC366887  12.757  36.267   5.465
 5264POPC   PO466888  13.125  35.717   5.486
 5264POPC   GL166889  13.124  36.038   5.809
 5264POPC   GL266890  12.788  36.128   5.968
 5264POPC   C1A66891  13.185  36.033   6.251
 5264POPC   D2A66892  12.850  36.037   6.519
 5264POPC   C3A66893  12.970  36.102   6.936
 5264POPC   C4A66894  12.799  35.992   7.332
 5264POPC   C1B66895  12.569  36.418   6.277
 5264POPC   C2B66896  12.685  36.496   6.710
 5264POPC   C3B66897  12.517  36.349   7.102
 5264POPC   C4B66898  12.494  36.327   7.554
 5265POPC   NC366899  22.366  36.716   5.311
 5265POPC   PO466900  21.692  36.595   5.332
 5265POPC   GL166901  22.003  36.671   5.728
 5265POPC   GL266902  22.000  36.999   5.905
 5265POPC   C1A66903  22.114  36.646   6.220
 5265POPC   D2A66904  22.054  36.955   6.587
 5265POPC   C3A66905  22.239  36.943   7.037
 5265POPC   C4A66906  21.924  36.783   7.376
 5265POPC   C1B66907  21.769  37.296   6.142
 5265POPC   C2B66908  21.702  37.327   6.560
 5265POPC   C3B66909  22.020  37.386   6.884
 5265POPC   C4B66910  21.927  37.281   7.301
 5266POPC   NC366911  41.265   5.842   4.950
 5266POPC   PO466912  41.661   6.035   5.527
 5266POPC   GL166913  41.483   5.964   5.911
 5266POPC   GL266914  41.253   5.685   5.797
 5266POPC   C1A66915  41.655   5.938   6.343
 5266POPC   D2A66916  41.664   6.205   6.711
 5266POPC   C3A66917  41.857   6.080   7.116
 5266POPC   C4A66918  41.820   5.775   7.463
 5266POPC   C1B66919  41.623   5.482   6.020
 5266POPC   C2B66920  41.685   5.432   6.467
 5266POPC   C3B66921  41.625   5.633   6.874
 5266POPC   C4B66922  41.483   5.452   7.260
 5267POPC   NC366923  27.178   5.853   5.303
 5267POPC   PO466924  27.764   5.582   5.450
 5267POPC   GL166925  27.681   5.824   5.809
 5267POPC   GL266926  27.328   5.832   5.796
 5267POPC   C1A66927  27.637   6.080   6.203
 5267POPC   D2A66928  27.604   6.306   6.627
 5267POPC   C3A66929  27.625   6.051   7.007
 5267POPC   C4A66930  27.849   5.955   7.412
 5267POPC   C1B66931  27.144   5.931   6.172
 5267POPC   C2B66932  27.338   5.836   6.561
 5267POPC   C3B66933  27.269   5.633   6.937
 5267POPC   C4B66934  27.405   5.698   7.325
 5268POPC   NC366935  30.230  16.080   5.478
 5268POPC   PO466936  29.681  15.710   5.447
 5268POPC   GL166937  29.763  15.749   5.875
 5268POPC   GL266938  29.905  16.058   5.870
 5268POPC   C1A66939  29.764  15.838   6.339
 5268POPC   D2A66940  30.002  15.629   6.682
 5268POPC   C3A66941  29.964  15.830   7.080
 5268POPC   C4A66942  29.824  16.249   7.101
 5268POPC   C1B66943  30.166  16.160   6.210
 5268POPC   C2B66944  30.075  16.146   6.636
 5268POPC   C3B66945  30.330  16.193   6.991
 5268POPC   C4B66946  30.242  16.163   7.388
 5269POPC   NC366947  24.704  36.032   5.474
 5269POPC   PO466948  24.271  36.511   5.654
 5269POPC   GL166949  24.522  36.263   5.943
 5269POPC   GL266950  24.895  36.164   5.935
 5269POPC   C1A66951  24.418  36.090   6.339
 5269POPC   D2A66952  24.265  36.149   6.763
 5269POPC   C3A66953  24.533  36.433   6.981
 5269POPC   C4A66954  24.702  36.382   7.384
 5269POPC   C1B66955  25.024  36.277   6.333
 5269POPC   C2B66956  24.812  36.111   6.696
 5269POPC   C3B66957  24.693  35.929   7.105
 5269POPC   C4B66958  24.980  35.924   7.454
 5270POPC   NC366959  42.236  30.438   5.391
 5270POPC   PO466960  42.673  30.921   5.323
 5270POPC   GL166961  42.446  30.778   5.730
 5270POPC   GL266962  42.603  30.488   5.866
 5270POPC   C1A66963  42.174  30.648   6.129
 5270POPC   D2A66964  42.044  30.838   6.569
 5270POPC   C3A66965  42.088  30.573   6.924
 5270POPC   C4A66966  42.445  30.463   7.137
 5270POPC   C1B66967  42.635  30.857   6.201
 5270POPC   C2B66968  42.751  30.989   6.604
 5270POPC   C3B66969  42.457  30.958   6.944
 5270POPC   C4B66970  42.392  30.887   7.388
 5271POPC   NC366971  34.802   5.987   5.541
 5271POPC   PO466972  34.162   5.917   5.542
 5271POPC   GL166973  34.450   5.710   5.875
 5271POPC   GL266974  34.837   5.698   5.972
 5271POPC   C1A66975  34.417   5.870   6.320
 5271POPC   D2A66976  34.315   6.082   6.726
 5271POPC   C3A66977  34.599   5.929   7.071
 5271POPC   C4A66978  34.619   5.898   7.524
 5271POPC   C1B66979  35.072   5.532   6.345
 5271POPC   C2B66980  35.109   5.566   6.791
 5271POPC   C3B66981  35.048   5.375   7.189
 5271POPC   C4B66982  34.987   5.554   7.625
 5272POPC   NC366983   0.654   7.665   5.488
 5272POPC   PO466984   0.406   8.326   5.451
 5272POPC   GL166985   0.336   8.159   5.853
 5272POPC   GL266986   0.632   7.941   5.913
 5272POPC   C1A66987   0.426   8.325   6.267
 5272POPC   D2A66988   0.180   8.454   6.620
 5272POPC   C3A66989   0.342   8.439   7.046
 5272POPC   C4A66990   0.350   8.608   7.487
 5272POPC   C1B66991   0.370   7.792   6.251
 5272POPC   C2B66992   0.355   7.975   6.650
 5272POPC   C3B66993   0.541   7.970   7.020
 5272POPC   C4B66994   0.444   7.641   7.214
 5273POPC   NC366995   7.046  39.680   5.423
 5273POPC   PO466996   6.589  39.118   5.428
 5273POPC   GL166997   6.679  39.187   5.873
 5273POPC   GL266998   6.887  39.511   5.895
 5273POPC   C1A66999   6.434  39.113   6.270
 5273POPC   D2A67000   6.520  39.262   6.694
 5273POPC   C3A67001   6.460  39.037   7.073
 5273POPC   C4A67002   6.550  39.078   7.508
 5273POPC   C1B67003   6.638  39.574   6.269
 5273POPC   C2B67004   6.655  39.763   6.683
 5273POPC   C3B67005   6.674  39.548   7.105
 5273POPC   C4B67006   6.354  39.543   7.449
 5274POPC   NC367007   7.895  44.161   5.381
 5274POPC   PO467008   8.561  44.023   5.366
 5274POPC   GL167009   8.350  43.840   5.738
 5274POPC   GL267010   7.985  43.843   5.762
 5274POPC   C1A67011   8.248  43.836   6.194
 5274POPC   D2A67012   8.390  43.872   6.628
 5274POPC   C3A67013   8.391  43.536   6.899
 5274POPC   C4A67014   8.522  43.509   7.301
 5274POPC   C1B67015   7.770  44.012   6.133
 5274POPC   C2B67016   7.700  43.879   6.576
 5274POPC   C3B67017   7.936  43.792   6.964
 5274POPC   C4B67018   8.013  43.419   7.223
 5275POPC   NC367019  11.068  19.042   5.193
 5275POPC   PO467020  10.439  19.102   5.277
 5275POPC   GL167021  10.381  18.991   5.705
 5275POPC   GL267022  10.724  18.989   5.773
 5275POPC   C1A67023  10.284  18.890   6.154
 5275POPC   D2A67024  10.333  19.117   6.535
 5275POPC   C3A67025  10.318  18.887   6.912
 5275POPC   C4A67026  10.167  19.092   7.261
 5275POPC   C1B67027  10.671  19.234   6.155
 5275POPC   C2B67028  10.815  19.344   6.568
 5275POPC   C3B67029  10.630  19.287   6.955
 5275POPC   C4B67030  10.880  19.342   7.299
 5276POPC   NC367031  24.678  43.896   5.273
 5276POPC   PO467032  24.128  43.612   5.301
 5276POPC   GL167033  24.345  43.622   5.704
 5276POPC   GL267034  24.399  43.977   5.694
 5276POPC   C1A67035  24.255  43.784   6.127
 5276POPC   D2A67036  24.303  43.985   6.498
 5276POPC   C3A67037  24.545  43.709   6.715
 5276POPC   C4A67038  24.552  43.660   7.124
 5276POPC   C1B67039  24.627  44.140   6.087
 5276POPC   C2B67040  24.857  44.062   6.471
 5276POPC   C3B67041  24.911  44.134   6.930
 5276POPC   C4B67042  24.714  44.071   7.363
 5277POPC   NC367043  27.184  28.798   5.306
 5277POPC   PO467044  26.844  29.321   5.576
 5277POPC   GL167045  26.827  28.989   5.838
 5277POPC   GL267046  26.474  28.836   5.812
 5277POPC   C1A67047  26.997  29.045   6.252
 5277POPC   D2A67048  26.839  29.054   6.669
 5277POPC   C3A67049  27.116  28.973   7.069
 5277POPC   C4A67050  27.116  29.189   7.495
 5277POPC   C1B67051  26.479  29.083   6.213
 5277POPC   C2B67052  26.280  29.138   6.581
 5277POPC   C3B67053  26.487  29.350   6.886
 5277POPC   C4B67054  26.676  29.271   7.262
 5278POPC   NC367055  36.460  30.333   5.637
 5278POPC   PO467056  36.854  29.859   5.320
 5278POPC   GL167057  36.860  29.868   5.764
 5278POPC   GL267058  37.152  30.046   5.923
 5278POPC   C1A67059  36.720  29.921   6.186
 5278POPC   D2A67060  36.425  30.063   6.492
 5278POPC   C3A67061  36.509  30.220   6.883
 5278POPC   C4A67062  36.853  30.119   7.101
 5278POPC   C1B67063  37.204  29.978   6.342
 5278POPC   C2B67064  36.946  29.846   6.665
 5278POPC   C3B67065  37.080  29.675   7.047
 5278POPC   C4B67066  37.292  29.960   7.372
 5279POPC   NC367067  29.991  41.190   5.462
 5279POPC   PO467068  30.367  41.716   5.494
 5279POPC   GL167069  30.120  41.572   5.855
 5279POPC   GL267070  30.233  41.854   6.006
 5279POPC   C1A67071  29.895  41.630   6.295
 5279POPC   D2A67072  29.921  41.449   6.707
 5279POPC   C3A67073  29.849  41.523   7.158
 5279POPC   C4A67074  29.955  41.367   7.594
 5279POPC   C1B67075  30.411  41.555   6.270
 5279POPC   C2B67076  30.410  41.608   6.675
 5279POPC   C3B67077  30.327  41.700   7.058
 5279POPC   C4B67078  30.161  41.816   7.429
 5280POPC   NC367079  17.305  12.771   5.369
 5280POPC   PO467080  17.840  13.026   5.271
 5280POPC   GL167081  17.692  12.858   5.704
 5280POPC   GL267082  17.400  13.019   5.807
 5280POPC   C1A67083  17.605  12.739   6.186
 5280POPC   D2A67084  17.391  12.771   6.633
 5280POPC   C3A67085  17.707  12.798   7.018
 5280POPC   C4A67086  17.687  12.645   7.475
 5280POPC   C1B67087  17.143  13.181   6.131
 5280POPC   C2B67088  17.239  13.275   6.529
 5280POPC   C3B67089  17.075  13.138   6.899
 5280POPC   C4B67090  17.112  13.236   7.303
 5281POPC   NC367091  27.686   9.159   5.406
 5281POPC   PO467092  27.962   8.654   5.551
 5281POPC   GL167093  27.619   8.805   5.805
 5281POPC   GL267094  27.604   9.124   5.944
 5281POPC   C1A67095  27.489   8.723   6.233
 5281POPC   D2A67096  27.553   8.982   6.613
 5281POPC   C3A67097  27.333   8.805   6.966
 5281POPC   C4A67098  27.613   8.548   7.152
 5281POPC   C1B67099  27.885   9.324   6.272
 5281POPC   C2B67100  27.851   9.406   6.744
 5281POPC   C3B67101  27.652   9.190   7.120
 5281POPC   C4B67102  27.639   9.302   7.574
 5282POPC   NC367103   1.316   0.675   5.435
 5282POPC   PO467104   1.348   0.036   5.193
 5282POPC   GL167105   1.092   0.295   5.690
 5282POPC   GL267106   1.328   0.571   5.917
 5282POPC   C1A67107   0.969   0.426   6.200
 5282POPC   D2A67108   1.040   0.662   6.605
 5282POPC   C3A67109   1.170   0.550   7.031
 5282POPC   C4A67110   1.001   0.295   7.371
 5282POPC   C1B67111   1.500   0.698   6.314
 5282POPC   C2B67112   1.483   0.878   6.720
 5282POPC   C3B67113   1.610   0.811   7.133
 5282POPC   C4B67114   1.410   0.632   7.522
 5283POPC   NC367115  31.459  16.346   5.653
 5283POPC   PO467116  31.580  15.690   5.478
 5283POPC   GL167117  31.468  15.829   5.844
 5283POPC   GL267118  31.120  15.974   5.847
 5283POPC   C1A67119  31.499  15.945   6.263
 5283POPC   D2A67120  31.410  16.184   6.613
 5283POPC   C3A67121  31.562  15.920   6.900
 5283POPC   C4A67122  31.842  16.022   7.190
 5283POPC   C1B67123  31.125  15.619   6.148
 5283POPC   C2B67124  31.292  15.514   6.541
 5283POPC   C3B67125  31.107  15.648   6.912
 5283POPC   C4B67126  31.229  15.954   7.282
 5284POPC   NC367127   5.548   4.976   5.269
 5284POPC   PO467128   6.096   5.398   5.348
 5284POPC   GL167129   5.913   5.066   5.668
 5284POPC   GL267130   6.119   4.784   5.848
 5284POPC   C1A67131   5.714   5.035   6.098
 5284POPC   D2A67132   5.612   4.973   6.549
 5284POPC   C3A67133   5.934   4.921   6.873
 5284POPC   C4A67134   5.880   4.966   7.306
 5284POPC   C1B67135   6.169   4.921   6.289
 5284POPC   C2B67136   5.986   5.304   6.467
 5284POPC   C3B67137   5.994   5.416   6.874
 5284POPC   C4B67138   6.285   5.276   7.192
 5285POPC   NC367139  36.427  36.985   5.436
 5285POPC   PO467140  36.116  36.425   5.455
 5285POPC   GL167141  36.124  36.742   5.790
 5285POPC   GL267142  36.038  37.123   5.722
 5285POPC   C1A67143  36.335  36.914   6.170
 5285POPC   D2A67144  36.424  37.153   6.569
 5285POPC   C3A67145  36.234  36.986   6.954
 5285POPC   C4A67146  36.262  37.092   7.372
 5285POPC   C1B67147  36.010  37.300   6.106
 5285POPC   C2B67148  35.924  37.201   6.545
 5285POPC   C3B67149  35.789  37.267   6.965
 5285POPC   C4B67150  35.591  37.118   7.316
 5286POPC   NC367151  20.792  30.353   5.524
 5286POPC   PO467152  20.294  30.773   5.415
 5286POPC   GL167153  20.510  30.717   5.819
 5286POPC   GL267154  20.868  30.858   5.795
 5286POPC   C1A67155  20.535  30.481   6.225
 5286POPC   D2A67156  20.389  30.347   6.665
 5286POPC   C3A67157  20.454  30.506   7.085
 5286POPC   C4A67158  20.345  30.866   7.283
 5286POPC   C1B67159  20.946  30.835   6.241
 5286POPC   C2B67160  20.917  30.495   6.557
 5286POPC   C3B67161  20.954  30.426   6.976
 5286POPC   C4B67162  20.878  30.781   7.241
 5287POPC   NC367163   5.779  33.539   5.531
 5287POPC   PO467164   5.568  34.114   5.258
 5287POPC   GL167165   5.579  34.010   5.700
 5287POPC   GL267166   5.945  33.965   5.774
 5287POPC   C1A67167   5.644  33.938   6.166
 5287POPC   D2A67168   5.840  34.023   6.552
 5287POPC   C3A67169   5.678  33.840   6.902
 5287POPC   C4A67170   5.692  33.743   7.319
 5287POPC   C1B67171   6.163  34.106   6.149
 5287POPC   C2B67172   6.296  33.853   6.528
 5287POPC   C3B67173   6.224  33.912   6.966
 5287POPC   C4B67174   6.246  33.698   7.364
 5288POPC   NC367175  11.677  19.177   5.588
 5288POPC   PO467176  12.129  18.844   5.199
 5288POPC   GL167177  12.145  18.940   5.783
 5288POPC   GL267178  11.904  19.088   6.021
 5288POPC   C1A67179  12.358  18.975   6.243
 5288POPC   D2A67180  12.290  18.814   6.707
 5288POPC   C3A67181  12.232  19.001   7.145
 5288POPC   C4A67182  12.397  18.890   7.596
 5288POPC   C1B67183  11.556  19.067   6.320
 5288POPC   C2B67184  11.454  18.961   6.747
 5288POPC   C3B67185  11.713  18.911   7.111
 5288POPC   C4B67186  11.754  19.298   7.273
 5289POPC   NC367187  44.360  19.747   5.382
 5289POPC   PO467188   0.071  19.678   5.173
 5289POPC   GL167189  44.824  19.728   5.665
 5289POPC   GL267190  44.449  19.765   5.867
 5289POPC   C1A67191  44.844  19.961   6.101
 5289POPC   D2A67192  44.950  19.865   6.510
 5289POPC   C3A67193  44.651  19.931   6.822
 5289POPC   C4A67194  44.783  19.971   7.244
 5289POPC   C1B67195  44.519  19.588   6.270
 5289POPC   C2B67196  44.349  19.535   6.665
 5289POPC   C3B67197  44.601  19.467   7.064
 5289POPC   C4B67198  44.555  19.599   7.509
 5290POPC   NC367199  16.950  22.449   5.454
 5290POPC   PO467200  16.420  22.076   5.387
 5290POPC   GL167201  16.571  22.273   5.750
 5290POPC   GL267202  16.773  21.981   5.772
 5290POPC   C1A67203  16.833  22.359   6.128
 5290POPC   D2A67204  16.937  22.169   6.530
 5290POPC   C3A67205  16.838  22.376   6.894
 5290POPC   C4A67206  16.935  22.605   7.224
 5290POPC   C1B67207  16.775  21.817   6.174
 5290POPC   C2B67208  16.609  21.752   6.606
 5290POPC   C3B67209  16.873  21.869   6.964
 5290POPC   C4B67210  17.154  21.694   7.268
 5291POPC   NC367211  36.705  30.890   5.258
 5291POPC   PO467212  36.915  30.333   5.560
 5291POPC   GL167213  36.791  30.707   5.753
 5291POPC   GL267214  37.022  30.950   5.678
 5291POPC   C1A67215  36.715  30.670   6.186
 5291POPC   D2A67216  36.870  30.367   6.487
 5291POPC   C3A67217  36.877  30.592   6.856
 5291POPC   C4A67218  36.662  30.587   7.247
 5291POPC   C1B67219  37.144  30.980   6.099
 5291POPC   C2B67220  37.246  30.798   6.487
 5291POPC   C3B67221  37.353  30.849   6.894
 5291POPC   C4B67222  37.077  30.893   7.251
 5292POPC   NC367223  42.841  16.114   5.589
 5292POPC   PO467224  43.429  16.028   5.594
 5292POPC   GL167225  43.148  15.962   5.977
 5292POPC   GL267226  42.816  15.785   5.977
 5292POPC   C1A67227  43.070  15.943   6.433
 5292POPC   D2A67228  43.349  16.069   6.763
 5292POPC   C3A67229  43.177  16.133   7.139
 5292POPC   C4A67230  42.749  16.184   7.156
 5292POPC   C1B67231  42.779  15.535   6.331
 5292POPC   C2B67232  42.785  15.620   6.779
 5292POPC   C3B67233  42.928  15.699   7.197
 5292POPC   C4B67234  43.266  15.623   7.512
 5293POPC   NC367235  44.002   9.632   5.124
 5293POPC   PO467236  43.822  10.137   5.585
 5293POPC   GL167237  44.026   9.873   5.863
 5293POPC   GL267238  43.851   9.535   5.906
 5293POPC   C1A67239  43.904   9.906   6.283
 5293POPC   D2A67240  43.907   9.663   6.666
 5293POPC   C3A67241  43.975   9.925   7.019
 5293POPC   C4A67242  44.201  10.128   7.347
 5293POPC   C1B67243  43.577   9.501   6.272
 5293POPC   C2B67244  43.430   9.458   6.706
 5293POPC   C3B67245  43.652   9.501   7.144
 5293POPC   C4B67246  43.749   9.398   7.604
 5294POPC   NC367247  35.081  43.491   5.353
 5294POPC   PO467248  35.377  42.866   5.387
 5294POPC   GL167249  35.214  43.089   5.722
 5294POPC   GL267250  35.386  43.403   5.778
 5294POPC   C1A67251  35.232  43.084   6.166
 5294POPC   D2A67252  35.126  43.010   6.592
 5294POPC   C3A67253  35.329  43.216   6.926
 5294POPC   C4A67254  35.121  43.413   7.271
 5294POPC   C1B67255  35.683  43.453   6.135
 5294POPC   C2B67256  35.713  43.596   6.572
 5294POPC   C3B67257  35.758  43.683   7.007
 5294POPC   C4B67258  35.654  43.385   7.281
 5295POPC   NC367259   7.519   0.905   5.225
 5295POPC   PO467260   7.652   0.315   5.594
 5295POPC   GL167261   7.414   0.472   5.882
 5295POPC   GL267262   7.131   0.261   5.849
 5295POPC   C1A67263   7.516   0.393   6.320
 5295POPC   D2A67264   7.780   0.372   6.697
 5295POPC   C3A67265   7.620   0.543   7.088
 5295POPC   C4A67266   7.652   0.415   7.535
 5295POPC   C1B67267   7.022   0.568   6.184
 5295POPC   C2B67268   7.178   0.676   6.593
 5295POPC   C3B67269   7.062   0.502   6.944
 5295POPC   C4B67270   7.188   0.476   7.351
 5296POPC   NC367271   2.128  30.078   5.092
 5296POPC   PO467272   1.891  29.669   5.542
 5296POPC   GL167273   1.860  29.722   5.953
 5296POPC   GL267274   1.768  30.061   5.895
 5296POPC   C1A67275   1.836  29.543   6.375
 5296POPC   D2A67276   2.053  29.736   6.721
 5296POPC   C3A67277   1.888  29.824   7.125
 5296POPC   C4A67278   2.139  29.984   7.465
 5296POPC   C1B67279   1.889  30.089   6.329
 5296POPC   C2B67280   1.780  30.180   6.744
 5296POPC   C3B67281   1.868  30.350   7.117
 5296POPC   C4B67282   1.697  30.276   7.530
 5297POPC   NC367283  40.382   5.772   5.388
 5297POPC   PO467284  39.845   6.048   5.504
 5297POPC   GL167285  40.027   5.727   5.770
 5297POPC   GL267286  39.774   5.661   5.986
 5297POPC   C1A67287  40.199   5.496   6.148
 5297POPC   D2A67288  40.305   5.568   6.553
 5297POPC   C3A67289  40.020   5.590   6.870
 5297POPC   C4A67290  40.090   5.828   7.247
 5297POPC   C1B67291  39.853   5.813   6.415
 5297POPC   C2B67292  39.746   6.010   6.810
 5297POPC   C3B67293  39.581   5.852   7.222
 5297POPC   C4B67294  39.703   5.630   7.594
 5298POPC   NC367295  32.442  43.964   5.478
 5298POPC   PO467296  31.806  43.631   5.472
 5298POPC   GL167297  32.033  43.805   5.846
 5298POPC   GL267298  32.103  44.145   5.867
 5298POPC   C1A67299  32.434  43.773   6.131
 5298POPC   D2A67300  32.572  43.505   6.493
 5298POPC   C3A67301  32.357  43.631   6.874
 5298POPC   C4A67302  31.971  43.793   7.052
 5298POPC   C1B67303  32.045  44.042   6.320
 5298POPC   C2B67304  32.151  44.187   6.740
 5298POPC   C3B67305  32.068  44.277   7.166
 5298POPC   C4B67306  32.158  43.982   7.521
 5299POPC   NC367307   0.062   0.332   5.587
 5299POPC   PO467308   0.629   0.541   5.381
 5299POPC   GL167309   0.422   0.669   5.757
 5299POPC   GL267310   0.559   0.352   5.873
 5299POPC   C1A67311   0.299   0.628   6.210
 5299POPC   D2A67312   0.575   0.404   6.513
 5299POPC   C3A67313   0.618   0.566   6.938
 5299POPC   C4A67314   0.198   0.474   7.112
 5299POPC   C1B67315   0.784  44.993   6.021
 5299POPC   C2B67316   0.796  44.922   6.467
 5299POPC   C3B67317   0.674   0.045   6.877
 5299POPC   C4B67318   0.647  44.940   7.307
 5300POPC   NC367319  10.622  38.129   5.282
 5300POPC   PO467320  10.575  37.430   5.443
 5300POPC   GL167321  10.611  37.686   5.788
 5300POPC   GL267322  10.341  37.893   5.715
 5300POPC   C1A67323  10.440  37.665   6.203
 5300POPC   D2A67324  10.391  37.480   6.601
 5300POPC   C3A67325  10.652  37.640   6.915
 5300POPC   C4A67326  10.724  37.422   7.329
 5300POPC   C1B67327  10.251  38.122   6.120
 5300POPC   C2B67328  10.399  38.044   6.558
 5300POPC   C3B67329  10.430  38.153   6.982
 5300POPC   C4B67330  10.365  37.823   7.288
 5301POPC   NC367331  20.491  37.274   5.449
 5301POPC   PO467332  20.710  37.858   5.456
 5301POPC   GL167333  20.629  37.645   5.817
 5301POPC   GL267334  20.923  37.494   5.864
 5301POPC   C1A67335  20.484  37.604   6.246
 5301POPC   D2A67336  20.688  37.544   6.655
 5301POPC   C3A67337  20.364  37.611   6.955
 5301POPC   C4A67338  20.243  37.436   7.339
 5301POPC   C1B67339  20.975  37.716   6.240
 5301POPC   C2B67340  20.868  38.020   6.533
 5301POPC   C3B67341  20.900  37.923   6.965
 5301POPC   C4B67342  20.693  37.750   7.313
 5302POPC   NC367343  31.313   6.216   5.408
 5302POPC   PO467344  31.695   5.586   5.384
 5302POPC   GL167345  31.446   5.794   5.692
 5302POPC   GL267346  31.662   6.049   5.869
 5302POPC   C1A67347  31.360   5.721   6.111
 5302POPC   D2A67348  31.406   5.577   6.521
 5302POPC   C3A67349  31.343   5.916   6.818
 5302POPC   C4A67350  31.256   6.119   7.215
 5302POPC   C1B67351  31.605   6.081   6.366
 5302POPC   C2B67352  31.854   6.214   6.727
 5302POPC   C3B67353  31.793   5.937   7.092
 5302POPC   C4B67354  31.642   5.490   7.041
 5303POPC   NC367355  38.146   1.023   5.445
 5303POPC   PO467356  37.582   1.368   5.467
 5303POPC   GL167357  37.598   1.116   5.810
 5303POPC   GL267358  37.953   1.209   5.896
 5303POPC   C1A67359  37.315   1.230   6.156
 5303POPC   D2A67360  37.223   1.497   6.531
 5303POPC   C3A67361  37.426   1.304   6.893
 5303POPC   C4A67362  37.874   1.217   6.977
 5303POPC   C1B67363  37.903   0.821   6.137
 5303POPC   C2B67364  38.028   0.708   6.565
 5303POPC   C3B67365  37.957   0.709   7.019
 5303POPC   C4B67366  37.932   0.746   7.460
 5304POPC   NC367367   0.902  30.691   5.511
 5304POPC   PO467368   1.558  30.591   5.440
 5304POPC   GL167369   1.423  30.860   5.788
 5304POPC   GL267370   1.070  30.979   5.910
 5304POPC   C1A67371   1.493  30.861   6.228
 5304POPC   D2A67372   1.487  30.438   6.406
 5304POPC   C3A67373   1.334  30.422   6.818
 5304POPC   C4A67374   1.419  30.593   7.223
 5304POPC   C1B67375   0.870  30.776   6.302
 5304POPC   C2B67376   0.867  30.654   6.758
 5304POPC   C3B67377   0.936  30.414   7.149
 5304POPC   C4B67378   1.154  30.257   7.512
 5305POPC   NC367379  30.647  42.532   5.423
 5305POPC   PO467380  31.014  42.059   5.186
 5305POPC   GL167381  30.865  42.141   5.652
 5305POPC   GL267382  30.533  42.163   5.754
 5305POPC   C1A67383  30.926  42.414   6.020
 5305POPC   D2A67384  30.884  42.525   6.448
 5305POPC   C3A67385  31.031  42.270   6.769
 5305POPC   C4A67386  30.884  42.328   7.174
 5305POPC   C1B67387  30.442  42.308   6.199
 5305POPC   C2B67388  30.522  42.158   6.642
 5305POPC   C3B67389  30.379  42.215   7.074
 5305POPC   C4B67390  30.450  42.488   7.453
 5306POPC   NC367391  37.236   1.076   5.360
 5306POPC   PO467392  36.857   1.683   5.345
 5306POPC   GL167393  36.908   1.353   5.714
 5306POPC   GL267394  36.656   1.061   5.759
 5306POPC   C1A67395  36.814   1.369   6.180
 5306POPC   D2A67396  36.677   1.535   6.591
 5306POPC   C3A67397  36.928   1.446   6.955
 5306POPC   C4A67398  37.058   1.196   7.271
 5306POPC   C1B67399  36.895   0.877   6.108
 5306POPC   C2B67400  37.003   1.029   6.530
 5306POPC   C3B67401  36.855   0.920   6.915
 5306POPC   C4B67402  36.684   0.802   7.328
 5307POPC   NC367403  12.177  37.627   5.369
 5307POPC   PO467404  12.485  38.147   5.618
 5307POPC   GL167405  12.116  37.908   5.794
 5307POPC   GL267406  12.196  37.529   5.859
 5307POPC   C1A67407  12.070  37.899   6.233
 5307POPC   D2A67408  12.393  38.038   6.539
 5307POPC   C3A67409  12.197  37.977   6.948
 5307POPC   C4A67410  11.971  37.687   7.230
 5307POPC   C1B67411  12.079  37.336   6.262
 5307POPC   C2B67412  12.218  37.286   6.718
 5307POPC   C3B67413  12.129  37.220   7.171
 5307POPC   C4B67414  11.666  37.260   7.245
 5308POPC   NC367415  34.542   5.291   5.431
 5308POPC   PO467416  34.814   4.633   5.260
 5308POPC   GL167417  34.617   4.819   5.657
 5308POPC   GL267418  34.726   5.131   5.888
 5308POPC   C1A67419  34.513   4.706   6.098
 5308POPC   D2A67420  34.516   4.931   6.503
 5308POPC   C3A67421  34.527   4.850   6.940
 5308POPC   C4A67422  34.905   4.833   7.148
 5308POPC   C1B67423  34.585   5.373   6.276
 5308POPC   C2B67424  34.630   5.374   6.766
 5308POPC   C3B67425  34.550   5.324   7.230
 5308POPC   C4B67426  34.463   5.393   7.677
 5309POPC   NC367427  22.406  31.304   5.339
 5309POPC   PO467428  23.144  31.427   5.473
 5309POPC   GL167429  23.089  31.437   5.895
 5309POPC   GL267430  22.706  31.520   5.853
 5309POPC   C1A67431  23.195  31.424   6.339
 5309POPC   D2A67432  22.851  31.501   6.623
 5309POPC   C3A67433  22.969  31.622   7.009
 5309POPC   C4A67434  23.300  31.467   7.165
 5309POPC   C1B67435  22.708  31.215   6.188
 5309POPC   C2B67436  22.644  31.009   6.592
 5309POPC   C3B67437  22.766  31.122   6.996
 5309POPC   C4B67438  22.666  31.326   7.329
 5310POPC   NC367439   3.086  13.238   5.353
 5310POPC   PO467440   3.521  13.745   5.289
 5310POPC   GL167441   3.675  13.561   5.686
 5310POPC   GL267442   3.350  13.474   5.748
 5310POPC   C1A67443   3.659  13.464   6.147
 5310POPC   D2A67444   3.554  13.697   6.515
 5310POPC   C3A67445   3.606  13.463   6.878
 5310POPC   C4A67446   3.634  13.551   7.298
 5310POPC   C1B67447   3.147  13.491   6.144
 5310POPC   C2B67448   3.170  13.374   6.543
 5310POPC   C3B67449   3.096  13.558   6.908
 5310POPC   C4B67450   3.161  13.361   7.283
 5311POPC   NC367451  14.640  38.017   5.386
 5311POPC   PO467452  14.368  37.408   5.397
 5311POPC   GL167453  14.561  37.659   5.747
 5311POPC   GL267454  14.390  37.983   5.830
 5311POPC   C1A67455  14.528  37.653   6.192
 5311POPC   D2A67456  14.232  37.478   6.461
 5311POPC   C3A67457  14.398  37.353   6.830
 5311POPC   C4A67458  14.483  37.541   7.229
 5311POPC   C1B67459  14.640  38.172   6.150
 5311POPC   C2B67460  14.480  38.111   6.548
 5311POPC   C3B67461  14.454  37.958   6.949
 5311POPC   C4B67462  14.652  38.028   7.324
 5312POPC   NC367463  22.453  11.602   5.434
 5312POPC   PO467464  22.317  10.965   5.624
 5312POPC   GL167465  22.214  11.344   5.860
 5312POPC   GL267466  21.879  11.485   5.771
 5312POPC   C1A67467  22.383  11.500   6.262
 5312POPC   D2A67468  22.416  11.482   6.701
 5312POPC   C3A67469  22.217  11.164   6.901
 5312POPC   C4A67470  22.349  11.303   7.277
 5312POPC   C1B67471  21.923  11.687   6.169
 5312POPC   C2B67472  21.894  11.493   6.588
 5312POPC   C3B67473  21.978  11.601   7.022
 5312POPC   C4B67474  21.960  11.598   7.475
 5313POPC   NC367475  28.632  33.958   5.448
 5313POPC   PO467476  29.230  33.931   5.370
 5313POPC   GL167477  29.068  33.793   5.759
 5313POPC   GL267478  28.954  34.100   5.854
 5313POPC   C1A67479  28.966  33.664   6.217
 5313POPC   D2A67480  28.798  33.703   6.634
 5313POPC   C3A67481  29.024  33.618   7.015
 5313POPC   C4A67482  29.112  33.572   7.445
 5313POPC   C1B67483  29.124  34.147   6.245
 5313POPC   C2B67484  28.924  34.211   6.598
 5313POPC   C3B67485  28.892  34.096   6.997
 5313POPC   C4B67486  29.252  34.132   7.163
 5314POPC   NC367487  21.544  30.126   5.337
 5314POPC   PO467488  21.346  29.508   5.383
 5314POPC   GL167489  21.322  29.847   5.773
 5314POPC   GL267490  21.517  30.180   5.856
 5314POPC   C1A67491  21.125  30.030   6.200
 5314POPC   D2A67492  21.258  30.120   6.658
 5314POPC   C3A67493  21.079  29.914   7.026
 5314POPC   C4A67494  21.213  29.587   7.268
 5314POPC   C1B67495  21.632  30.046   6.286
 5314POPC   C2B67496  21.738  29.915   6.714
 5314POPC   C3B67497  21.576  29.951   7.139
 5314POPC   C4B67498  21.298  30.166   7.427
 5315POPC   NC367499  19.532  24.720   5.502
 5315POPC   PO467500  18.895  24.360   5.612
 5315POPC   GL167501  18.874  24.622   5.990
 5315POPC   GL267502  19.255  24.670   5.945
 5315POPC   C1A67503  18.762  24.425   6.420
 5315POPC   D2A67504  18.952  24.083   6.716
 5315POPC   C3A67505  18.971  24.309   7.120
 5315POPC   C4A67506  18.728  24.715   7.208
 5315POPC   C1B67507  19.209  24.300   6.213
 5315POPC   C2B67508  19.225  24.497   6.613
 5315POPC   C3B67509  19.128  24.789   6.909
 5315POPC   C4B67510  19.243  24.707   7.331
 5316POPC   NC367511   0.943  10.094   5.411
 5316POPC   PO467512   1.176  10.738   5.473
 5316POPC   GL167513   0.942  10.698   5.869
 5316POPC   GL267514   0.771  10.355   5.860
 5316POPC   C1A67515   1.098  10.775   6.322
 5316POPC   D2A67516   0.945  10.830   6.771
 5316POPC   C3A67517   1.198  10.760   7.112
 5316POPC   C4A67518   1.466  10.419   7.194
 5316POPC   C1B67519   1.019  10.211   6.217
 5316POPC   C2B67520   1.117  10.346   6.642
 5316POPC   C3B67521   0.990  10.277   7.049
 5316POPC   C4B67522   0.838  10.488   7.397
 5317POPC   NC367523  37.676  20.816   5.470
 5317POPC   PO467524  37.298  20.229   5.473
 5317POPC   GL167525  37.593  20.473   5.833
 5317POPC   GL267526  37.866  20.787   5.918
 5317POPC   C1A67527  37.447  20.738   6.178
 5317POPC   D2A67528  37.507  20.532   6.569
 5317POPC   C3A67529  37.592  20.746   6.944
 5317POPC   C4A67530  37.499  20.633   7.352
 5317POPC   C1B67531  37.951  20.572   6.268
 5317POPC   C2B67532  37.998  20.425   6.664
 5317POPC   C3B67533  38.053  20.571   7.055
 5317POPC   C4B67534  37.978  20.719   7.441
 5318POPC   NC367535  40.754  16.959   5.105
 5318POPC   PO467536  40.849  16.397   5.509
 5318POPC   GL167537  40.676  16.460   5.916
 5318POPC   GL267538  40.956  16.668   6.005
 5318POPC   C1A67539  40.529  16.760   6.275
 5318POPC   D2A67540  40.567  16.646   6.714
 5318POPC   C3A67541  40.773  16.922   6.978
 5318POPC   C4A67542  40.546  16.886   7.339
 5318POPC   C1B67543  40.900  16.421   6.377
 5318POPC   C2B67544  41.066  16.462   6.780
 5318POPC   C3B67545  40.872  16.449   7.159
 5318POPC   C4B67546  41.018  16.748   7.437
 5319POPC   NC367547  15.606   0.340   5.148
 5319POPC   PO467548  16.165   0.667   5.435
 5319POPC   GL167549  16.062   0.512   5.832
 5319POPC   GL267550  16.215   0.184   5.826
 5319POPC   C1A67551  15.799   0.498   6.209
 5319POPC   D2A67552  15.510   0.228   6.466
 5319POPC   C3A67553  15.696   0.200   6.869
 5319POPC   C4A67554  15.834   0.448   7.186
 5319POPC   C1B67555  16.368   0.397   6.202
 5319POPC   C2B67556  16.192   0.500   6.600
 5319POPC   C3B67557  16.329   0.371   7.018
 5319POPC   C4B67558  16.276   0.557   7.410
 5320POPC   NC367559  13.765   0.910   5.338
 5320POPC   PO467560  13.573   0.282   5.490
 5320POPC   GL167561  13.715   0.598   5.743
 5320POPC   GL267562  13.432   0.530   5.959
 5320POPC   C1A67563  13.862   0.750   6.140
 5320POPC   D2A67564  13.672   0.513   6.485
 5320POPC   C3A67565  13.820   0.436   6.903
 5320POPC   C4A67566  13.743   0.259   7.310
 5320POPC   C1B67567  13.179   0.575   6.329
 5320POPC   C2B67568  13.256   0.694   6.773
 5320POPC   C3B67569  13.283   0.587   7.217
 5320POPC   C4B67570  13.001   0.576   7.564
 5321POPC   NC367571   9.177  25.225   5.415
 5321POPC   PO467572   8.561  25.550   5.377
 5321POPC   GL167573   8.848  25.465   5.741
 5321POPC   GL267574   8.893  25.071   5.811
 5321POPC   C1A67575   8.687  25.405   6.146
 5321POPC   D2A67576   8.709  25.065   6.419
 5321POPC   C3A67577   8.666  25.179   6.824
 5321POPC   C4A67578   8.808  25.415   7.185
 5321POPC   C1B67579   9.145  25.193   6.155
 5321POPC   C2B67580   9.201  25.026   6.559
 5321POPC   C3B67581   9.157  25.156   6.927
 5321POPC   C4B67582   9.245  25.204   7.332
 5322POPC   NC367583  25.340   2.422   5.368
 5322POPC   PO467584  25.200   1.771   5.430
 5322POPC   GL167585  25.254   2.077   5.777
 5322POPC   GL267586  24.911   2.227   5.862
 5322POPC   C1A67587  25.362   2.012   6.236
 5322POPC   D2A67588  25.179   1.890   6.665
 5322POPC   C3A67589  25.405   1.783   7.060
 5322POPC   C4A67590  25.262   1.870   7.490
 5322POPC   C1B67591  25.000   2.452   6.268
 5322POPC   C2B67592  25.020   2.380   6.734
 5322POPC   C3B67593  25.242   2.263   7.153
 5322POPC   C4B67594  25.315   2.431   7.606
 5323POPC   NC367595   9.725  24.692   5.379
 5323POPC   PO467596  10.178  24.189   5.459
 5323POPC   GL167597   9.832  24.243   5.807
 5323POPC   GL267598   9.655  24.539   5.872
 5323POPC   C1A67599   9.596  24.157   6.202
 5323POPC   D2A67600   9.694  24.139   6.631
 5323POPC   C3A67601   9.713  24.518   6.795
 5323POPC   C4A67602   9.665  24.471   7.194
 5323POPC   C1B67603   9.923  24.550   6.289
 5323POPC   C2B67604  10.140  24.756   6.680
 5323POPC   C3B67605  10.063  24.766   7.145
 5323POPC   C4B67606   9.950  24.654   7.563
 5324POPC   NC367607   6.380   4.986   5.439
 5324POPC   PO467608   6.858   5.445   5.501
 5324POPC   GL167609   6.625   5.313   5.877
 5324POPC   GL267610   6.268   5.364   5.934
 5324POPC   C1A67611   6.678   5.029   6.240
 5324POPC   D2A67612   6.979   5.042   6.583
 5324POPC   C3A67613   6.877   5.102   7.016
 5324POPC   C4A67614   6.763   5.489   7.185
 5324POPC   C1B67615   6.450   5.476   6.357
 5324POPC   C2B67616   6.448   5.153   6.709
 5324POPC   C3B67617   6.406   4.825   7.049
 5324POPC   C4B67618   6.315   4.797   7.488
 5325POPC   NC367619  27.412  33.109   5.376
 5325POPC   PO467620  28.091  32.999   5.337
 5325POPC   GL167621  27.787  33.098   5.748
 5325POPC   GL267622  27.634  32.822   5.840
 5325POPC   C1A67623  27.654  33.328   6.193
 5325POPC   D2A67624  27.524  33.234   6.617
 5325POPC   C3A67625  27.825  33.186   6.933
 5325POPC   C4A67626  27.730  33.173   7.299
 5325POPC   C1B67627  27.438  32.843   6.251
 5325POPC   C2B67628  27.395  32.731   6.706
 5325POPC   C3B67629  27.602  32.738   7.097
 5325POPC   C4B67630  27.495  32.785   7.564
 5326POPC   NC367631   7.265  38.024   5.684
 5326POPC   PO467632   7.710  37.670   5.296
 5326POPC   GL167633   7.681  37.411   5.771
 5326POPC   GL267634   7.306  37.557   5.881
 5326POPC   C1A67635   7.598  37.371   6.228
 5326POPC   D2A67636   7.620  37.657   6.583
 5326POPC   C3A67637   7.678  37.526   6.982
 5326POPC   C4A67638   7.774  37.704   7.383
 5326POPC   C1B67639   7.229  37.789   6.301
 5326POPC   C2B67640   7.126  37.687   6.755
 5326POPC   C3B67641   7.199  37.669   7.197
 5326POPC   C4B67642   7.338  37.537   7.604
 5327POPC   NC367643   2.221  44.022   5.387
 5327POPC   PO467644   2.893  44.167   5.258
 5327POPC   GL167645   2.882  44.180   5.712
 5327POPC   GL267646   2.538  44.254   5.743
 5327POPC   C1A67647   2.952  43.975   6.157
 5327POPC   D2A67648   2.679  43.835   6.516
 5327POPC   C3A67649   2.771  43.751   6.959
 5327POPC   C4A67650   3.025  43.883   7.286
 5327POPC   C1B67651   2.671  44.396   6.142
 5327POPC   C2B67652   2.569  44.338   6.562
 5327POPC   C3B67653   2.362  44.085   6.862
 5327POPC   C4B67654   2.586  44.174   7.211
 5328POPC   NC367655  32.062   6.699   5.374
 5328POPC   PO467656  32.584   6.298   5.179
 5328POPC   GL167657  32.511   6.517   5.643
 5328POPC   GL267658  32.355   6.855   5.761
 5328POPC   C1A67659  32.462   6.531   6.129
 5328POPC   D2A67660  32.246   6.597   6.535
 5328POPC   C3A67661  32.455   6.755   6.910
 5328POPC   C4A67662  32.589   6.528   7.253
 5328POPC   C1B67663  32.010   6.816   6.109
 5328POPC   C2B67664  31.765   6.739   6.521
 5328POPC   C3B67665  31.933   6.716   6.938
 5328POPC   C4B67666  32.159   6.802   7.325
 5329POPC   NC367667  37.430  31.857   5.331
 5329POPC   PO467668  36.978  31.299   5.311
 5329POPC   GL167669  37.063  31.589   5.631
 5329POPC   GL267670  36.813  31.399   5.846
 5329POPC   C1A67671  37.146  31.727   6.054
 5329POPC   D2A67672  37.187  31.508   6.461
 5329POPC   C3A67673  36.979  31.612   6.859
 5329POPC   C4A67674  37.047  31.407   7.268
 5329POPC   C1B67675  36.605  31.726   6.096
 5329POPC   C2B67676  36.653  31.884   6.520
 5329POPC   C3B67677  36.489  31.789   6.908
 5329POPC   C4B67678  36.529  31.534   7.242
 5330POPC   NC367679   2.554   3.748   5.361
 5330POPC   PO467680   2.907   3.142   5.397
 5330POPC   GL167681   2.928   3.264   5.792
 5330POPC   GL267682   2.597   3.418   5.787
 5330POPC   C1A67683   3.053   3.347   6.221
 5330POPC   D2A67684   3.065   3.715   6.506
 5330POPC   C3A67685   2.947   3.631   6.921
 5330POPC   C4A67686   2.871   3.283   7.222
 5330POPC   C1B67687   2.730   3.739   6.105
 5330POPC   C2B67688   2.543   3.858   6.522
 5330POPC   C3B67689   2.531   3.948   6.970
 5330POPC   C4B67690   2.388   3.920   7.396
 5331POPC   NC367691  12.309   1.699   5.708
 5331POPC   PO467692  12.187   1.131   5.343
 5331POPC   GL167693  12.095   1.191   5.777
 5331POPC   GL267694  11.931   1.464   5.979
 5331POPC   C1A67695  12.015   0.955   6.147
 5331POPC   D2A67696  11.829   0.885   6.525
 5331POPC   C3A67697  12.029   1.084   6.882
 5331POPC   C4A67698  12.223   1.188   7.296
 5331POPC   C1B67699  12.067   1.402   6.438
 5331POPC   C2B67700  12.135   1.586   6.878
 5331POPC   C3B67701  11.840   1.486   7.201
 5331POPC   C4B67702  11.662   1.054   7.248
 5332POPC   NC367703  11.920  10.254   5.360
 5332POPC   PO467704  12.572  10.442   5.437
 5332POPC   GL167705  12.212  10.445   5.806
 5332POPC   GL267706  11.827  10.524   5.812
 5332POPC   C1A67707  12.101  10.590   6.259
 5332POPC   D2A67708  12.149  10.516   6.722
 5332POPC   C3A67709  12.355  10.851   6.973
 5332POPC   C4A67710  12.184  10.909   7.388
 5332POPC   C1B67711  11.552  10.258   6.109
 5332POPC   C2B67712  11.540  10.079   6.550
 5332POPC   C3B67713  11.735  10.258   6.927
 5332POPC   C4B67714  11.905  10.543   7.205
 5333POPC   NC367715  38.116  30.436   5.514
 5333POPC   PO467716  38.533  30.897   5.226
 5333POPC   GL167717  38.407  30.870   5.705
 5333POPC   GL267718  38.046  30.829   5.834
 5333POPC   C1A67719  38.392  30.902   6.191
 5333POPC   D2A67720  38.171  30.988   6.585
 5333POPC   C3A67721  38.401  30.880   6.994
 5333POPC   C4A67722  38.657  30.674   7.338
 5333POPC   C1B67723  38.035  30.494   6.169
 5333POPC   C2B67724  38.255  30.436   6.554
 5333POPC   C3B67725  38.146  30.359   6.970
 5333POPC   C4B67726  38.157  30.570   7.360
 5334POPC   NC367727  38.832  15.854   5.432
 5334POPC   PO467728  38.232  16.128   5.456
 5334POPC   GL167729  38.424  15.942   5.813
 5334POPC   GL267730  38.721  16.135   5.856
 5334POPC   C1A67731  38.479  15.900   6.269
 5334POPC   D2A67732  38.462  15.616   6.610
 5334POPC   C3A67733  38.508  15.828   6.988
 5334POPC   C4A67734  38.383  16.174   7.237
 5334POPC   C1B67735  38.930  16.159   6.253
 5334POPC   C2B67736  38.800  16.117   6.673
 5334POPC   C3B67737  38.884  16.206   7.083
 5334POPC   C4B67738  38.801  16.283   7.511
 5335POPC   NC367739   6.305  23.743   5.380
 5335POPC   PO467740   5.740  23.530   5.552
 5335POPC   GL167741   5.984  23.669   5.871
 5335POPC   GL267742   6.363  23.542   5.833
 5335POPC   C1A67743   5.793  23.586   6.294
 5335POPC   D2A67744   5.667  23.434   6.733
 5335POPC   C3A67745   5.807  23.697   7.112
 5335POPC   C4A67746   6.058  23.915   7.451
 5335POPC   C1B67747   6.332  23.704   6.230
 5335POPC   C2B67748   6.192  23.540   6.606
 5335POPC   C3B67749   6.131  23.319   6.981
 5335POPC   C4B67750   5.744  23.200   7.221
 5336POPC   NC367751   2.490  36.848   5.287
 5336POPC   PO467752   2.773  37.428   5.329
 5336POPC   GL167753   2.705  37.180   5.727
 5336POPC   GL267754   2.601  36.804   5.774
 5336POPC   C1A67755   2.808  37.043   6.167
 5336POPC   D2A67756   2.967  36.801   6.508
 5336POPC   C3A67757   2.850  36.872   6.918
 5336POPC   C4A67758   2.993  37.181   7.178
 5336POPC   C1B67759   2.452  36.617   6.170
 5336POPC   C2B67760   2.551  36.356   6.549
 5336POPC   C3B67761   2.696  36.328   6.964
 5336POPC   C4B67762   2.685  36.598   7.312
 5337POPC   NC367763  44.191  22.152   5.506
 5337POPC   PO467764  43.534  21.981   5.550
 5337POPC   GL167765  43.862  21.988   5.856
 5337POPC   GL267766  43.969  22.350   5.945
 5337POPC   C1A67767  43.951  21.908   6.275
 5337POPC   D2A67768  43.838  22.207   6.599
 5337POPC   C3A67769  43.923  22.117   7.032
 5337POPC   C4A67770  44.024  22.278   7.440
 5337POPC   C1B67771  43.660  22.555   6.250
 5337POPC   C2B67772  43.537  22.608   6.706
 5337POPC   C3B67773  43.709  22.579   7.125
 5337POPC   C4B67774  43.715  22.633   7.579
 5338POPC   NC367775  26.727  44.610   5.518
 5338POPC   PO467776  27.298  44.337   5.541
 5338POPC   GL167777  27.120  44.546   5.888
 5338POPC   GL267778  26.947  44.861   5.916
 5338POPC   C1A67779  27.064  44.545   6.311
 5338POPC   D2A67780  26.817  44.455   6.645
 5338POPC   C3A67781  27.004  44.550   7.034
 5338POPC   C4A67782  26.745  44.271   7.244
 5338POPC   C1B67783  26.619  44.794   6.276
 5338POPC   C2B67784  26.468  44.837   6.734
 5338POPC   C3B67785  26.539  44.734   7.177
 5338POPC   C4B67786  26.855  44.930   7.490
 5339POPC   NC367787  11.393  31.290   5.231
 5339POPC   PO467788  11.111  31.908   5.374
 5339POPC   GL167789  11.224  31.605   5.672
 5339POPC   GL267790  11.560  31.759   5.720
 5339POPC   C1A67791  11.278  31.496   6.138
 5339POPC   D2A67792  11.314  31.225   6.536
 5339POPC   C3A67793  11.095  31.338   6.929
 5339POPC   C4A67794  10.997  31.771   7.104
 5339POPC   C1B67795  11.605  31.912   6.165
 5339POPC   C2B67796  11.397  31.802   6.570
 5339POPC   C3B67797  11.483  31.908   7.001
 5339POPC   C4B67798  11.758  31.676   7.272
 5340POPC   NC367799   8.776  22.582   5.517
 5340POPC   PO467800   9.037  21.872   5.427
 5340POPC   GL167801   9.100  22.157   5.774
 5340POPC   GL267802   8.739  22.195   5.867
 5340POPC   C1A67803   9.071  22.209   6.238
 5340POPC   D2A67804   8.755  22.076   6.557
 5340POPC   C3A67805   8.822  22.298   6.935
 5340POPC   C4A67806   9.177  22.401   7.193
 5340POPC   C1B67807   8.753  21.777   6.117
 5340POPC   C2B67808   8.797  21.560   6.530
 5340POPC   C3B67809   8.994  21.729   6.901
 5340POPC   C4B67810   8.967  21.948   7.284
 5341POPC   NC367811  41.141  40.254   5.542
 5341POPC   PO467812  41.558  39.782   5.418
 5341POPC   GL167813  41.548  39.991   5.803
 5341POPC   GL267814  41.230  39.977   5.961
 5341POPC   C1A67815  41.711  39.896   6.209
 5341POPC   D2A67816  41.735  40.074   6.600
 5341POPC   C3A67817  41.960  39.814   6.840
 5341POPC   C4A67818  41.983  39.847   7.258
 5341POPC   C1B67819  41.249  40.045   6.387
 5341POPC   C2B67820  41.350  39.722   6.651
 5341POPC   C3B67821  41.476  39.839   7.041
 5341POPC   C4B67822  41.194  40.102   7.262
 5342POPC   NC367823   0.870  39.340   5.520
 5342POPC   PO467824   1.328  38.820   5.388
 5342POPC   GL167825   1.259  39.076   5.790
 5342POPC   GL267826   0.926  39.077   5.961
 5342POPC   C1A67827   1.338  39.359   6.182
 5342POPC   D2A67828   1.443  39.219   6.616
 5342POPC   C3A67829   1.244  39.330   7.012
 5342POPC   C4A67830   0.837  39.525   7.080
 5342POPC   C1B67831   1.197  38.879   6.288
 5342POPC   C2B67832   1.032  38.938   6.698
 5342POPC   C3B67833   1.108  38.818   7.113
 5342POPC   C4B67834   1.255  38.782   7.510
 5343POPC   NC367835  22.669   0.801   5.565
 5343POPC   PO467836  22.975   1.387   5.486
 5343POPC   GL167837  22.825   1.199   5.850
 5343POPC   GL267838  23.098   0.930   5.841
 5343POPC   C1A67839  22.794   0.993   6.259
 5343POPC   D2A67840  22.913   0.870   6.698
 5343POPC   C3A67841  22.771   1.190   7.009
 5343POPC   C4A67842  22.723   1.390   7.417
 5343POPC   C1B67843  23.277   1.296   6.066
 5343POPC   C2B67844  23.322   1.378   6.509
 5343POPC   C3B67845  23.271   1.222   6.909
 5343POPC   C4B67846  23.185   1.501   7.217
 5344POPC   NC367847   1.001  14.473   5.410
 5344POPC   PO467848   1.596  13.980   5.449
 5344POPC   GL167849   1.257  14.196   5.753
 5344POPC   GL267850   0.868  14.098   5.724
 5344POPC   C1A67851   1.258  14.210   6.207
 5344POPC   D2A67852   1.510  14.161   6.597
 5344POPC   C3A67853   1.453  14.518   6.892
 5344POPC   C4A67854   1.190  14.634   7.243
 5344POPC   C1B67855   0.970  13.800   6.121
 5344POPC   C2B67856   1.110  13.825   6.575
 5344POPC   C3B67857   1.140  14.126   6.956
 5344POPC   C4B67858   1.501  14.120   7.257
 5345POPC   NC367859  44.354  11.956   5.566
 5345POPC   PO467860  44.813  12.464   5.325
 5345POPC   GL167861  44.752  12.198   5.777
 5345POPC   GL267862  44.402  12.232   5.987
 5345POPC   C1A67863  44.713  11.868   6.153
 5345POPC   D2A67864  44.796  11.822   6.609
 5345POPC   C3A67865  44.670  12.208   6.867
 5345POPC   C4A67866  44.764  12.176   7.318
 5345POPC   C1B67867  44.225  11.946   6.312
 5345POPC   C2B67868  44.297  11.813   6.738
 5345POPC   C3B67869  44.537  11.773   7.091
 5345POPC   C4B67870  44.377  11.890   7.495
 5346POPC   NC367871   4.707  23.808   5.450
 5346POPC   PO467872   4.039  23.705   5.462
 5346POPC   GL167873   4.335  23.709   5.809
 5346POPC   GL267874   4.666  23.501   5.847
 5346POPC   C1A67875   4.346  23.916   6.185
 5346POPC   D2A67876   4.178  24.048   6.579
 5346POPC   C3A67877   3.989  23.754   6.800
 5346POPC   C4A67878   4.158  23.845   7.187
 5346POPC   C1B67879   4.746  23.426   6.257
 5346POPC   C2B67880   4.508  23.632   6.578
 5346POPC   C3B67881   4.591  23.716   6.966
 5346POPC   C4B67882   4.770  23.373   7.106
 5347POPC   NC367883  33.360  44.405   5.525
 5347POPC   PO467884  33.749  43.819   5.503
 5347POPC   GL167885  33.870  43.913   5.898
 5347POPC   GL267886  33.764  44.248   5.881
 5347POPC   C1A67887  33.923  43.972   6.334
 5347POPC   D2A67888  34.012  43.700   6.676
 5347POPC   C3A67889  34.004  43.931   7.048
 5347POPC   C4A67890  34.169  43.962   7.460
 5347POPC   C1B67891  33.485  44.213   6.270
 5347POPC   C2B67892  33.519  43.974   6.654
 5347POPC   C3B67893  33.458  43.990   7.079
 5347POPC   C4B67894  33.707  44.236   7.348
 5348POPC   NC367895  35.560  25.439   4.969
 5348POPC   PO467896  35.093  25.103   5.204
 5348POPC   GL167897  35.347  25.154   5.590
 5348POPC   GL267898  35.049  25.250   5.735
 5348POPC   C1A67899  35.646  25.122   5.964
 5348POPC   D2A67900  35.625  25.128   6.447
 5348POPC   C3A67901  35.683  25.307   6.893
 5348POPC   C4A67902  35.558  25.132   7.314
 5348POPC   C1B67903  35.162  25.093   6.131
 5348POPC   C2B67904  35.066  25.205   6.524
 5348POPC   C3B67905  35.157  25.141   6.941
 5348POPC   C4B67906  35.085  25.420   7.262
 5349POPC   NC367907  24.819  33.216   5.636
 5349POPC   PO467908  25.360  32.967   5.331
 5349POPC   GL167909  25.307  32.997   5.758
 5349POPC   GL267910  25.042  32.803   5.858
 5349POPC   C1A67911  25.432  32.933   6.191
 5349POPC   D2A67912  25.260  33.102   6.567
 5349POPC   C3A67913  25.397  32.894   6.950
 5349POPC   C4A67914  25.340  33.169   7.256
 5349POPC   C1B67915  24.906  32.895   6.243
 5349POPC   C2B67916  24.751  32.861   6.634
 5349POPC   C3B67917  24.909  33.074   6.972
 5349POPC   C4B67918  24.890  32.921   7.344
 5350POPC   NC367919   2.538  20.871   5.411
 5350POPC   PO467920   3.128  20.586   5.455
 5350POPC   GL167921   2.845  20.717   5.798
 5350POPC   GL267922   3.024  20.976   5.961
 5350POPC   C1A67923   2.580  20.808   6.187
 5350POPC   D2A67924   2.550  20.942   6.636
 5350POPC   C3A67925   2.816  20.797   7.011
 5350POPC   C4A67926   2.747  20.753   7.474
 5350POPC   C1B67927   3.044  20.601   6.283
 5350POPC   C2B67928   3.139  20.465   6.726
 5350POPC   C3B67929   3.279  20.311   7.131
 5350POPC   C4B67930   3.161  20.305   7.573
 5351POPC   NC367931  27.748   4.471   5.317
 5351POPC   PO467932  27.058   4.519   5.478
 5351POPC   GL167933  27.438   4.285   5.714
 5351POPC   GL267934  27.670   4.553   5.829
 5351POPC   C1A67935  27.630   4.120   6.147
 5351POPC   D2A67936  27.658   3.970   6.610
 5351POPC   C3A67937  27.672   4.223   7.005
 5351POPC   C4A67938  27.822   4.226   7.454
 5351POPC   C1B67939  27.311   4.525   6.139
 5351POPC   C2B67940  27.393   4.441   6.578
 5351POPC   C3B67941  27.285   4.568   6.986
 5351POPC   C4B67942  27.314   4.331   7.386
 5352POPC   NC367943  16.098  27.149   5.233
 5352POPC   PO467944  15.635  26.643   5.445
 5352POPC   GL167945  15.808  26.695   5.855
 5352POPC   GL267946  15.971  26.400   6.003
 5352POPC   C1A67947  15.735  26.986   6.219
 5352POPC   D2A67948  15.549  27.046   6.663
 5352POPC   C3A67949  15.832  27.203   6.997
 5352POPC   C4A67950  15.944  27.282   7.448
 5352POPC   C1B67951  16.186  26.743   6.215
 5352POPC   C2B67952  16.137  26.997   6.585
 5352POPC   C3B67953  16.272  26.939   7.014
 5352POPC   C4B67954  15.967  26.779   7.336
 5353POPC   NC367955  30.958   2.130   5.565
 5353POPC   PO467956  31.649   2.231   5.448
 5353POPC   GL167957  31.591   1.949   5.792
 5353POPC   GL267958  31.859   1.711   5.842
 5353POPC   C1A67959  31.332   1.732   6.135
 5353POPC   D2A67960  31.014   1.711   6.483
 5353POPC   C3A67961  31.189   1.732   6.882
 5353POPC   C4A67962  31.383   1.878   7.243
 5353POPC   C1B67963  31.812   1.850   6.272
 5353POPC   C2B67964  31.646   1.817   6.662
 5353POPC   C3B67965  31.797   1.673   7.051
 5353POPC   C4B67966  31.798   1.736   7.533
 5354POPC   NC367967  33.960  12.936   5.471
 5354POPC   PO467968  33.878  12.358   5.230
 5354POPC   GL167969  33.743  12.474   5.670
 5354POPC   GL267970  33.650  12.801   5.834
 5354POPC   C1A67971  33.759  12.396   6.145
 5354POPC   D2A67972  33.590  12.541   6.566
 5354POPC   C3A67973  33.803  12.640   6.987
 5354POPC   C4A67974  33.929  12.512   7.421
 5354POPC   C1B67975  33.804  12.895   6.231
 5354POPC   C2B67976  33.997  12.971   6.618
 5354POPC   C3B67977  33.917  13.176   6.989
 5354POPC   C4B67978  33.587  13.086   7.290
 5355POPC   NC367979  42.201  13.320   5.462
 5355POPC   PO467980  42.794  13.753   5.524
 5355POPC   GL167981  42.517  13.771   5.853
 5355POPC   GL267982  42.205  13.559   5.920
 5355POPC   C1A67983  42.628  13.542   6.193
 5355POPC   D2A67984  42.606  13.705   6.557
 5355POPC   C3A67985  42.475  13.425   6.866
 5355POPC   C4A67986  42.196  13.611   7.127
 5355POPC   C1B67987  41.991  13.818   6.251
 5355POPC   C2B67988  42.035  13.895   6.717
 5355POPC   C3B67989  41.755  13.829   7.089
 5355POPC   C4B67990  41.858  13.567   7.498
 5356POPC   NC367991  18.631  39.908   5.350
 5356POPC   PO467992  18.024  39.983   5.216
 5356POPC   GL167993  18.146  39.879   5.690
 5356POPC   GL267994  18.465  39.673   5.767
 5356POPC   C1A67995  17.960  39.993   6.128
 5356POPC   D2A67996  17.878  40.304   6.483
 5356POPC   C3A67997  17.946  40.199   6.944
 5356POPC   C4A67998  18.180  39.913   7.230
 5356POPC   C1B67999  18.446  39.831   6.193
 5356POPC   C2B68000  18.249  39.941   6.583
 5356POPC   C3B68001  18.460  40.177   6.879
 5356POPC   C4B68002  18.686  40.039   7.247
 5357POPC   NC368003   4.958  44.518   5.449
 5357POPC   PO468004   4.694   0.150   5.317
 5357POPC   GL168005   4.891  44.968   5.697
 5357POPC   GL268006   5.266  44.982   5.729
 5357POPC   C1A68007   4.928  44.712   6.085
 5357POPC   D2A68008   4.763  44.823   6.479
 5357POPC   C3A68009   4.949  44.738   6.871
 5357POPC   C4A68010   4.806  44.799   7.291
 5357POPC   C1B68011   5.500  44.922   6.131
 5357POPC   C2B68012   5.396  44.717   6.529
 5357POPC   C3B68013   5.436  44.592   6.959
 5357POPC   C4B68014   5.324  44.907   7.253
 5358POPC   NC368015  24.917  32.911   5.161
 5358POPC   PO468016  24.396  33.231   5.429
 5358POPC   GL168017  24.325  33.136   5.841
 5358POPC   GL268018  24.216  32.806   5.827
 5358POPC   C1A68019  24.506  33.222   6.242
 5358POPC   D2A68020  24.771  33.360   6.555
 5358POPC   C3A68021  24.515  33.376   6.908
 5358POPC   C4A68022  24.480  33.273   7.333
 5358POPC   C1B68023  24.424  32.692   6.232
 5358POPC   C2B68024  24.356  32.522   6.652
 5358POPC   C3B68025  24.504  32.708   7.068
 5358POPC   C4B68026  24.380  32.807   7.520
 5359POPC   NC368027  20.955   2.672   5.682
 5359POPC   PO468028  21.383   2.974   5.326
 5359POPC   GL168029  21.439   2.859   5.767
 5359POPC   GL268030  21.203   3.050   5.943
 5359POPC   C1A68031  21.518   2.688   6.211
 5359POPC   D2A68032  21.647   2.865   6.636
 5359POPC   C3A68033  21.517   2.686   7.018
 5359POPC   C4A68034  21.123   2.763   7.223
 5359POPC   C1B68035  21.199   3.042   6.413
 5359POPC   C2B68036  20.961   3.031   6.794
 5359POPC   C3B68037  21.008   3.298   7.159
 5359POPC   C4B68038  21.054   3.196   7.579
 5360POPC   NC368039  29.211   9.939   5.393
 5360POPC   PO468040  29.015   9.351   5.417
 5360POPC   GL168041  29.144   9.559   5.795
 5360POPC   GL268042  29.469   9.391   5.890
 5360POPC   C1A68043  28.838   9.673   6.165
 5360POPC   D2A68044  28.830   9.922   6.557
 5360POPC   C3A68045  28.880   9.813   6.990
 5360POPC   C4A68046  29.181   9.975   7.296
 5360POPC   C1B68047  29.242   9.389   6.284
 5360POPC   C2B68048  29.119   9.431   6.713
 5360POPC   C3B68049  29.280   9.478   7.149
 5360POPC   C4B68050  29.311   9.546   7.616
 5361POPC   NC368051  13.031  41.192   5.630
 5361POPC   PO468052  12.656  41.667   5.420
 5361POPC   GL168053  12.901  41.699   5.759
 5361POPC   GL268054  12.685  41.444   5.898
 5361POPC   C1A68055  12.988  41.712   6.180
 5361POPC   D2A68056  12.728  41.644   6.517
 5361POPC   C3A68057  12.938  41.826   6.869
 5361POPC   C4A68058  12.848  41.887   7.281
 5361POPC   C1B68059  12.395  41.362   6.218
 5361POPC   C2B68060  12.454  41.185   6.627
 5361POPC   C3B68061  12.609  41.419   6.967
 5361POPC   C4B68062  12.318  41.574   7.241
 5362POPC   NC368063  37.953  27.563   5.165
 5362POPC   PO468064  37.533  27.273   5.636
 5362POPC   GL168065  37.618  27.513   5.903
 5362POPC   GL268066  37.828  27.766   5.713
 5362POPC   C1A68067  37.809  27.458   6.301
 5362POPC   D2A68068  38.042  27.438   6.682
 5362POPC   C3A68069  37.755  27.338   7.025
 5362POPC   C4A68070  37.536  27.345   7.447
 5362POPC   C1B68071  37.733  27.936   6.120
 5362POPC   C2B68072  37.739  27.990   6.537
 5362POPC   C3B68073  37.856  27.846   6.923
 5362POPC   C4B68074  37.635  27.803   7.268
 5363POPC   NC368075  10.229   9.027   5.466
 5363POPC   PO468076  10.867   8.935   5.283
 5363POPC   GL168077  10.688   8.905   5.774
 5363POPC   GL268078  10.837   9.130   6.036
 5363POPC   C1A68079  10.446   8.826   6.196
 5363POPC   D2A68080  10.166   9.002   6.503
 5363POPC   C3A68081  10.335   9.274   6.853
 5363POPC   C4A68082  10.511   9.238   7.273
 5363POPC   C1B68083  10.684   9.192   6.473
 5363POPC   C2B68084  10.563   8.829   6.758
 5363POPC   C3B68085  10.535   8.700   7.166
 5363POPC   C4B68086  10.873   8.599   7.433
 5364POPC   NC368087  41.109   0.147   5.162
 5364POPC   PO468088  41.591   0.666   5.335
 5364POPC   GL168089  41.726   0.417   5.727
 5364POPC   GL268090  41.484   0.301   5.957
 5364POPC   C1A68091  41.932   0.323   6.175
 5364POPC   D2A68092  41.894   0.114   6.590
 5364POPC   C3A68093  41.510   0.166   6.860
 5364POPC   C4A68094  41.460   0.468   7.208
 5364POPC   C1B68095  41.420   0.249   6.360
 5364POPC   C2B68096  41.341   0.612   6.614
 5364POPC   C3B68097  41.220   0.964   6.862
 5364POPC   C4B68098  41.080   0.813   7.246
 5365POPC   NC368099   5.275  15.654   5.591
 5365POPC   PO468100   5.918  15.972   5.485
 5365POPC   GL168101   6.084  16.130   5.857
 5365POPC   GL268102   6.343  16.412   5.813
 5365POPC   C1A68103   5.861  15.999   6.223
 5365POPC   D2A68104   5.610  16.056   6.613
 5365POPC   C3A68105   5.726  15.785   6.976
 5365POPC   C4A68106   5.787  15.895   7.384
 5365POPC   C1B68107   6.166  16.464   6.234
 5365POPC   C2B68108   6.096  16.215   6.606
 5365POPC   C3B68109   5.953  16.245   6.992
 5365POPC   C4B68110   6.197  16.264   7.331
 5366POPC   NC368111  18.390  29.883   5.479
 5366POPC   PO468112  17.758  29.927   5.284
 5366POPC   GL168113  17.967  29.800   5.757
 5366POPC   GL268114  18.315  29.845   5.963
 5366POPC   C1A68115  17.920  29.690   6.234
 5366POPC   D2A68116  18.041  29.631   6.682
 5366POPC   C3A68117  18.269  29.964   6.887
 5366POPC   C4A68118  18.219  29.948   7.298
 5366POPC   C1B68119  18.424  29.822   6.408
 5366POPC   C2B68120  18.583  29.575   6.779
 5366POPC   C3B68121  18.686  29.778   7.163
 5366POPC   C4B68122  18.654  30.261   7.242
 5367POPC   NC368123  19.426  43.402   5.326
 5367POPC   PO468124  18.908  43.139   5.510
 5367POPC   GL168125  19.168  43.352   5.803
 5367POPC   GL268126  19.303  43.046   5.841
 5367POPC   C1A68127  19.037  43.421   6.243
 5367POPC   D2A68128  18.872  43.155   6.546
 5367POPC   C3A68129  18.755  43.194   6.975
 5367POPC   C4A68130  19.049  43.364   7.210
 5367POPC   C1B68131  19.258  42.954   6.246
 5367POPC   C2B68132  19.086  42.682   6.523
 5367POPC   C3B68133  19.169  42.869   6.888
 5367POPC   C4B68134  19.073  42.821   7.271
 5368POPC   NC368135  29.847  40.198   5.135
 5368POPC   PO468136  30.039  40.764   5.315
 5368POPC   GL168137  29.967  40.788   5.774
 5368POPC   GL268138  29.635  40.991   5.781
 5368POPC   C1A68139  30.047  40.676   6.216
 5368POPC   D2A68140  29.926  40.489   6.614
 5368POPC   C3A68141  30.057  40.650   7.016
 5368POPC   C4A68142  29.967  40.888   7.396
 5368POPC   C1B68143  29.850  41.148   6.141
 5368POPC   C2B68144  29.773  40.982   6.544
 5368POPC   C3B68145  29.739  41.056   6.966
 5368POPC   C4B68146  29.508  41.146   7.330
 5369POPC   NC368147  16.853  26.448   5.508
 5369POPC   PO468148  16.365  26.833   5.401
 5369POPC   GL168149  16.591  26.867   5.800
 5369POPC   GL268150  16.865  27.109   5.892
 5369POPC   C1A68151  16.702  26.669   6.190
 5369POPC   D2A68152  16.532  26.665   6.617
 5369POPC   C3A68153  16.741  26.561   7.004
 5369POPC   C4A68154  16.524  26.536   7.414
 5369POPC   C1B68155  17.100  26.992   6.235
 5369POPC   C2B68156  17.023  26.830   6.627
 5369POPC   C3B68157  17.126  26.982   7.021
 5369POPC   C4B68158  16.954  26.823   7.411
 5370POPC   NC368159   9.143  32.164   5.219
 5370POPC   PO468160   8.664  32.608   5.652
 5370POPC   GL168161   8.767  32.239   5.899
 5370POPC   GL268162   9.057  32.146   6.138
 5370POPC   C1A68163   8.588  32.334   6.277
 5370POPC   D2A68164   8.565  32.561   6.635
 5370POPC   C3A68165   8.589  32.334   7.026
 5370POPC   C4A68166   8.790  32.290   7.410
 5370POPC   C1B68167   9.057  32.495   6.393
 5370POPC   C2B68168   9.049  32.507   6.842
 5370POPC   C3B68169   9.156  32.619   7.255
 5370POPC   C4B68170   9.247  32.354   7.606
 5371POPC   NC368171  10.126   5.743   5.325
 5371POPC   PO468172  10.620   6.188   5.175
 5371POPC   GL168173  10.506   6.060   5.698
 5371POPC   GL268174  10.339   5.730   5.782
 5371POPC   C1A68175  10.552   5.980   6.202
 5371POPC   D2A68176  10.757   5.960   6.680
 5371POPC   C3A68177  10.590   5.967   7.145
 5371POPC   C4A68178  10.784   6.053   7.585
 5371POPC   C1B68179  10.259   5.544   6.151
 5371POPC   C2B68180  10.528   5.537   6.500
 5371POPC   C3B68181  10.573   5.496   6.923
 5371POPC   C4B68182  10.345   5.553   7.321
 5372POPC   NC368183  11.681  14.491   5.379
 5372POPC   PO468184  12.229  14.157   5.568
 5372POPC   GL168185  11.937  14.366   5.829
 5372POPC   GL268186  11.750  14.086   5.774
 5372POPC   C1A68187  12.035  14.506   6.254
 5372POPC   D2A68188  12.064  14.701   6.631
 5372POPC   C3A68189  12.031  14.494   7.002
 5372POPC   C4A68190  12.321  14.345   7.286
 5372POPC   C1B68191  11.960  13.999   6.193
 5372POPC   C2B68192  12.100  14.139   6.615
 5372POPC   C3B68193  11.925  14.004   7.015
 5372POPC   C4B68194  12.114  13.895   7.415
 5373POPC   NC368195  31.336   5.292   5.426
 5373POPC   PO468196  31.757   4.735   5.517
 5373POPC   GL168197  31.453   4.915   5.791
 5373POPC   GL268198  31.503   5.276   5.902
 5373POPC   C1A68199  31.409   4.875   6.218
 5373POPC   D2A68200  31.332   5.061   6.587
 5373POPC   C3A68201  31.410   4.844   6.950
 5373POPC   C4A68202  31.598   5.039   7.265
 5373POPC   C1B68203  31.104   5.296   6.157
 5373POPC   C2B68204  30.904   5.330   6.555
 5373POPC   C3B68205  31.111   5.429   6.914
 5373POPC   C4B68206  31.126   5.188   7.226
 5374POPC   NC368207   3.057  35.519   5.494
 5374POPC   PO468208   2.684  35.128   5.141
 5374POPC   GL168209   2.754  35.133   5.640
 5374POPC   GL268210   3.043  35.179   5.886
 5374POPC   C1A68211   2.597  35.280   6.087
 5374POPC   D2A68212   2.586  35.210   6.518
 5374POPC   C3A68213   2.541  35.581   6.766
 5374POPC   C4A68214   2.439  35.523   7.183
 5374POPC   C1B68215   3.055  35.539   6.167
 5374POPC   C2B68216   3.012  35.484   6.593
 5374POPC   C3B68217   2.893  35.255   6.975
 5374POPC   C4B68218   2.944  35.180   7.419
 5375POPC   NC368219  28.099   1.473   5.461
 5375POPC   PO468220  28.627   1.084   5.686
 5375POPC   GL168221  28.312   1.299   5.882
 5375POPC   GL268222  28.025   1.076   5.812
 5375POPC   C1A68223  28.303   1.431   6.318
 5375POPC   D2A68224  28.076   1.609   6.678
 5375POPC   C3A68225  28.240   1.411   7.044
 5375POPC   C4A68226  28.172   1.437   7.471
 5375POPC   C1B68227  28.250   0.931   6.216
 5375POPC   C2B68228  28.426   0.810   6.656
 5375POPC   C3B68229  28.243   0.881   7.087
 5375POPC   C4B68230  27.907   0.643   7.300
 5376POPC   NC368231  41.881   2.534   5.519
 5376POPC   PO468232  42.446   2.134   5.417
 5376POPC   GL168233  42.395   2.212   5.848
 5376POPC   GL268234  42.211   1.900   5.887
 5376POPC   C1A68235  42.543   2.032   6.279
 5376POPC   D2A68236  42.417   1.805   6.682
 5376POPC   C3A68237  42.350   2.126   7.027
 5376POPC   C4A68238  42.267   2.575   7.084
 5376POPC   C1B68239  41.973   1.750   6.241
 5376POPC   C2B68240  41.875   1.854   6.679
 5376POPC   C3B68241  42.047   1.685   7.048
 5376POPC   C4B68242  42.481   1.654   7.180
 5377POPC   NC368243   1.397  33.661   5.544
 5377POPC   PO468244   0.783  33.878   5.483
 5377POPC   GL168245   1.076  33.991   5.827
 5377POPC   GL268246   1.455  34.017   5.902
 5377POPC   C1A68247   1.159  33.837   6.257
 5377POPC   D2A68248   0.991  33.882   6.632
 5377POPC   C3A68249   0.968  33.492   6.825
 5377POPC   C4A68250   1.002  33.718   7.170
 5377POPC   C1B68251   1.501  34.227   6.268
 5377POPC   C2B68252   1.544  33.998   6.626
 5377POPC   C3B68253   1.464  33.916   7.046
 5377POPC   C4B68254   1.656  34.010   7.427
 5378POPC   NC368255   6.132  31.784   5.372
 5378POPC   PO468256   6.688  31.413   5.277
 5378POPC   GL168257   6.608  31.416   5.744
 5378POPC   GL268258   6.368  31.678   5.825
 5378POPC   C1A68259   6.725  31.502   6.216
 5378POPC   D2A68260   7.046  31.533   6.598
 5378POPC   C3A68261   6.925  31.629   7.052
 5378POPC   C4A68262   6.884  31.300   7.393
 5378POPC   C1B68263   6.201  31.579   6.219
 5378POPC   C2B68264   6.351  31.401   6.596
 5378POPC   C3B68265   6.445  31.402   7.029
 5378POPC   C4B68266   6.395  31.063   7.302
 5379POPC   NC368267  40.426   8.379   5.397
 5379POPC   PO468268  41.069   8.265   5.269
 5379POPC   GL168269  40.861   8.255   5.645
 5379POPC   GL268270  40.939   7.923   5.761
 5379POPC   C1A68271  40.818   8.333   6.086
 5379POPC   D2A68272  40.780   8.117   6.496
 5379POPC   C3A68273  40.822   8.349   6.900
 5379POPC   C4A68274  40.594   8.394   7.304
 5379POPC   C1B68275  41.217   8.034   6.073
 5379POPC   C2B68276  41.273   7.993   6.512
 5379POPC   C3B68277  41.038   7.872   6.896
 5379POPC   C4B68278  41.020   8.062   7.298
 5380POPC   NC368279  16.871  11.989   5.373
 5380POPC   PO468280  16.454  12.512   5.391
 5380POPC   GL168281  16.602  12.234   5.744
 5380POPC   GL268282  16.946  12.025   5.858
 5380POPC   C1A68283  16.705  12.331   6.156
 5380POPC   D2A68284  16.799  11.976   6.419
 5380POPC   C3A68285  16.666  12.106   6.814
 5380POPC   C4A68286  16.664  12.229   7.217
 5380POPC   C1B68287  17.208  11.729   6.108
 5380POPC   C2B68288  17.242  11.726   6.544
 5380POPC   C3B68289  16.965  11.701   6.863
 5380POPC   C4B68290  16.984  11.837   7.281
 5381POPC   NC368291  16.890  24.829   4.975
 5381POPC   PO468292  16.794  25.298   5.440
 5381POPC   GL168293  16.837  25.311   5.876
 5381POPC   GL268294  16.646  25.620   5.821
 5381POPC   C1A68295  16.920  24.974   6.214
 5381POPC   D2A68296  16.818  24.792   6.621
 5381POPC   C3A68297  16.669  25.092   6.896
 5381POPC   C4A68298  16.744  25.145   7.285
 5381POPC   C1B68299  16.628  25.627   6.258
 5381POPC   C2B68300  16.810  25.510   6.643
 5381POPC   C3B68301  16.769  25.626   7.080
 5381POPC   C4B68302  16.904  25.615   7.500
 5382POPC   NC368303   4.655  30.578   4.831
 5382POPC   PO468304   4.293  30.761   5.340
 5382POPC   GL168305   4.204  30.660   5.774
 5382POPC   GL268306   4.061  30.963   5.878
 5382POPC   C1A68307   4.228  30.345   6.151
 5382POPC   D2A68308   4.021  30.259   6.555
 5382POPC   C3A68309   4.300  30.266   6.909
 5382POPC   C4A68310   4.143  30.367   7.289
 5382POPC   C1B68311   4.272  30.849   6.257
 5382POPC   C2B68312   4.317  30.736   6.674
 5382POPC   C3B68313   4.149  31.046   6.931
 5382POPC   C4B68314   4.130  31.016   7.350
 5383POPC   NC368315   9.393  30.277   5.482
 5383POPC   PO468316   9.818  30.723   5.302
 5383POPC   GL168317   9.846  30.527   5.683
 5383POPC   GL268318   9.859  30.834   5.857
 5383POPC   C1A68319   9.784  30.395   6.110
 5383POPC   D2A68320   9.847  30.316   6.547
 5383POPC   C3A68321   9.792  30.538   6.922
 5383POPC   C4A68322   9.757  30.756   7.300
 5383POPC   C1B68323   9.960  30.833   6.314
 5383POPC   C2B68324  10.089  31.136   6.646
 5383POPC   C3B68325  10.176  31.173   7.092
 5383POPC   C4B68326  10.119  31.017   7.536
 5384POPC   NC368327  31.169  28.439   5.409
 5384POPC   PO468328  30.519  28.612   5.418
 5384POPC   GL168329  30.614  28.345   5.783
 5384POPC   GL268330  30.918  28.172   5.769
 5384POPC   C1A68331  30.716  28.332   6.235
 5384POPC   D2A68332  30.520  28.480   6.629
 5384POPC   C3A68333  30.639  28.346   7.038
 5384POPC   C4A68334  30.712  28.426   7.488
 5384POPC   C1B68335  31.078  27.948   6.115
 5384POPC   C2B68336  31.118  28.122   6.491
 5384POPC   C3B68337  31.069  28.121   6.907
 5384POPC   C4B68338  31.192  28.242   7.313
 5385POPC   NC368339  17.370  38.010   5.396
 5385POPC   PO468340  17.560  37.362   5.300
 5385POPC   GL168341  17.636  37.611   5.707
 5385POPC   GL268342  17.861  37.907   5.655
 5385POPC   C1A68343  17.480  37.576   6.156
 5385POPC   D2A68344  17.316  37.618   6.587
 5385POPC   C3A68345  17.240  37.436   6.994
 5385POPC   C4A68346  17.190  37.389   7.448
 5385POPC   C1B68347  17.833  37.973   6.096
 5385POPC   C2B68348  17.829  37.785   6.511
 5385POPC   C3B68349  17.761  37.582   6.901
 5385POPC   C4B68350  17.639  37.803   7.285
 5386POPC   NC368351  44.262  36.539   5.462
 5386POPC   PO468352  43.750  37.039   5.314
 5386POPC   GL168353  44.000  37.062   5.654
 5386POPC   GL268354  43.868  36.756   5.769
 5386POPC   C1A68355  43.992  37.092   6.107
 5386POPC   D2A68356  44.133  36.956   6.491
 5386POPC   C3A68357  43.842  37.100   6.764
 5386POPC   C4A68358  43.941  37.061   7.151
 5386POPC   C1B68359  43.843  36.538   6.146
 5386POPC   C2B68360  43.994  36.454   6.550
 5386POPC   C3B68361  43.926  36.590   6.954
 5386POPC   C4B68362  43.765  36.637   7.367
 5387POPC   NC368363   6.651  29.546   5.465
 5387POPC   PO468364   6.813  28.907   5.505
 5387POPC   GL168365   6.678  29.166   5.845
 5387POPC   GL268366   6.348  29.278   5.806
 5387POPC   C1A68367   6.805  29.204   6.298
 5387POPC   D2A68368   7.074  29.260   6.682
 5387POPC   C3A68369   6.979  29.039   7.079
 5387POPC   C4A68370   6.832  29.128   7.516
 5387POPC   C1B68371   6.410  29.533   6.228
 5387POPC   C2B68372   6.551  29.483   6.706
 5387POPC   C3B68373   6.516  29.448   7.190
 5387POPC   C4B68374   6.358  29.342   7.625
 5388POPC   NC368375   9.515   8.631   5.547
 5388POPC   PO468376   9.790   9.245   5.375
 5388POPC   GL168377   9.807   8.996   5.775
 5388POPC   GL268378   9.478   9.064   5.902
 5388POPC   C1A68379   9.853   8.728   6.176
 5388POPC   D2A68380   9.731   8.774   6.651
 5388POPC   C3A68381  10.076   8.856   7.000
 5388POPC   C4A68382  10.051   9.058   7.402
 5388POPC   C1B68383   9.750   9.210   6.275
 5388POPC   C2B68384   9.826   9.320   6.722
 5388POPC   C3B68385   9.665   9.119   7.064
 5388POPC   C4B68386   9.266   8.993   7.211
 5389POPC   NC368387  19.841  12.766   5.361
 5389POPC   PO468388  19.616  13.180   5.732
 5389POPC   GL168389  19.824  12.879   5.873
 5389POPC   GL268390  19.531  12.666   5.807
 5389POPC   C1A68391  20.054  12.966   6.251
 5389POPC   D2A68392  19.927  12.819   6.633
 5389POPC   C3A68393  19.787  13.112   6.900
 5389POPC   C4A68394  19.920  13.030   7.288
 5389POPC   C1B68395  19.639  12.547   6.249
 5389POPC   C2B68396  19.523  12.530   6.704
 5389POPC   C3B68397  19.781  12.526   7.090
 5389POPC   C4B68398  19.862  12.442   7.547
 5390POPC   NC368399  22.439  42.161   5.465
 5390POPC   PO468400  21.720  42.086   5.646
 5390POPC   GL168401  22.075  42.322   5.848
 5390POPC   GL268402  22.286  42.068   5.936
 5390POPC   C1A68403  22.208  42.557   6.228
 5390POPC   D2A68404  22.420  42.605   6.647
 5390POPC   C3A68405  22.136  42.580   6.980
 5390POPC   C4A68406  22.066  42.222   7.299
 5390POPC   C1B68407  22.165  41.888   6.307
 5390POPC   C2B68408  22.338  41.929   6.700
 5390POPC   C3B68409  22.482  42.201   7.023
 5390POPC   C4B68410  22.568  42.600   7.226
 5391POPC   NC368411   0.978   5.941   5.588
 5391POPC   PO468412   1.540   6.135   5.248
 5391POPC   GL168413   1.464   6.004   5.731
 5391POPC   GL268414   1.313   5.636   5.827
 5391POPC   C1A68415   1.307   6.000   6.179
 5391POPC   D2A68416   1.399   5.775   6.545
 5391POPC   C3A68417   1.426   6.073   6.859
 5391POPC   C4A68418   1.278   5.881   7.205
 5391POPC   C1B68419   1.064   5.493   6.182
 5391POPC   C2B68420   0.885   5.539   6.590
 5391POPC   C3B68421   1.034   5.468   6.980
 5391POPC   C4B68422   0.840   5.597   7.320
 5392POPC   NC368423  34.346  33.635   5.460
 5392POPC   PO468424  35.010  33.766   5.595
 5392POPC   GL168425  34.655  33.967   5.822
 5392POPC   GL268426  34.380  33.750   5.958
 5392POPC   C1A68427  34.620  34.108   6.259
 5392POPC   D2A68428  34.505  33.903   6.630
 5392POPC   C3A68429  34.660  34.007   7.048
 5392POPC   C4A68430  34.390  33.684   7.239
 5392POPC   C1B68431  34.759  33.616   6.190
 5392POPC   C2B68432  34.962  33.691   6.563
 5392POPC   C3B68433  34.849  33.547   6.982
 5392POPC   C4B68434  34.761  33.255   7.310
 5393POPC   NC368435  12.451  37.050   5.487
 5393POPC   PO468436  12.934  36.643   5.163
 5393POPC   GL168437  12.884  36.821   5.605
 5393POPC   GL268438  12.722  36.627   5.838
 5393POPC   C1A68439  12.865  37.057   6.056
 5393POPC   D2A68440  12.928  37.289   6.486
 5393POPC   C3A68441  12.859  37.046   6.890
 5393POPC   C4A68442  12.631  37.126   7.296
 5393POPC   C1B68443  13.071  36.538   6.151
 5393POPC   C2B68444  13.213  36.475   6.592
 5393POPC   C3B68445  13.184  36.662   7.007
 5393POPC   C4B68446  12.883  36.625   7.318
 5394POPC   NC368447   0.387  39.950   5.375
 5394POPC   PO468448   0.923  40.232   5.528
 5394POPC   GL168449   0.535  40.269   5.791
 5394POPC   GL268450   0.161  40.197   5.803
 5394POPC   C1A68451   0.378  40.389   6.221
 5394POPC   D2A68452   0.308  40.068   6.548
 5394POPC   C3A68453   0.247  40.157   6.979
 5394POPC   C4A68454   0.342  39.966   7.386
 5394POPC   C1B68455  44.927  40.122   6.209
 5394POPC   C2B68456  44.904  40.381   6.609
 5394POPC   C3B68457  44.893  40.494   7.040
 5394POPC   C4B68458   0.180  40.458   7.417
 5395POPC   NC368459  20.593  18.437   5.512
 5395POPC   PO468460  20.646  17.792   5.529
 5395POPC   GL168461  20.466  17.957   5.885
 5395POPC   GL268462  20.629  18.258   6.004
 5395POPC   C1A68463  20.277  18.007   6.295
 5395POPC   D2A68464  20.143  18.213   6.687
 5395POPC   C3A68465  20.406  18.112   7.037
 5395POPC   C4A68466  20.752  18.275   7.276
 5395POPC   C1B68467  20.930  18.338   6.344
 5395POPC   C2B68468  20.892  18.458   6.808
 5395POPC   C3B68469  21.034  18.686   7.194
 5395POPC   C4B68470  21.056  18.947   7.610
 5396POPC   NC368471  41.106  33.356   5.537
 5396POPC   PO468472  40.439  33.305   5.567
 5396POPC   GL168473  40.680  33.246   5.903
 5396POPC   GL268474  40.870  32.951   5.851
 5396POPC   C1A68475  40.546  33.145   6.312
 5396POPC   D2A68476  40.666  32.921   6.625
 5396POPC   C3A68477  40.705  33.063   7.003
 5396POPC   C4A68478  40.975  32.893   7.330
 5396POPC   C1B68479  40.691  32.647   6.174
 5396POPC   C2B68480  40.549  32.444   6.583
 5396POPC   C3B68481  40.681  32.545   7.007
 5396POPC   C4B68482  40.491  32.767   7.343
 5397POPC   NC368483  43.746  40.440   5.502
 5397POPC   PO468484  43.658  41.107   5.399
 5397POPC   GL168485  43.541  41.003   5.818
 5397POPC   GL268486  43.476  40.663   5.858
 5397POPC   C1A68487  43.774  40.849   6.219
 5397POPC   D2A68488  43.936  40.806   6.627
 5397POPC   C3A68489  43.789  40.970   6.976
 5397POPC   C4A68490  44.050  40.939   7.290
 5397POPC   C1B68491  43.368  40.541   6.278
 5397POPC   C2B68492  43.545  40.450   6.662
 5397POPC   C3B68493  43.767  40.476   7.048
 5397POPC   C4B68494  43.620  40.676   7.418
 5398POPC   NC368495   2.138  27.376   5.301
 5398POPC   PO468496   1.919  28.044   5.335
 5398POPC   GL168497   1.822  27.669   5.620
 5398POPC   GL268498   2.146  27.549   5.779
 5398POPC   C1A68499   1.731  27.384   6.001
 5398POPC   D2A68500   1.732  27.310   6.476
 5398POPC   C3A68501   1.964  27.464   6.841
 5398POPC   C4A68502   1.934  27.598   7.253
 5398POPC   C1B68503   2.128  27.620   6.238
 5398POPC   C2B68504   2.340  27.745   6.611
 5398POPC   C3B68505   2.477  27.419   6.864
 5398POPC   C4B68506   2.365  27.335   7.265
 5399POPC   NC368507  38.706   5.851   5.404
 5399POPC   PO468508  38.314   6.314   5.581
 5399POPC   GL168509  38.409   5.942   5.836
 5399POPC   GL268510  38.774   5.891   5.925
 5399POPC   C1A68511  38.284   5.895   6.257
 5399POPC   D2A68512  38.449   5.783   6.606
 5399POPC   C3A68513  38.296   5.887   7.039
 5399POPC   C4A68514  38.602   6.120   7.329
 5399POPC   C1B68515  38.690   5.552   6.228
 5399POPC   C2B68516  38.851   5.471   6.636
 5399POPC   C3B68517  38.784   5.764   6.970
 5399POPC   C4B68518  38.693   5.550   7.277
 5400POPC   NC368519  22.485  35.446   5.517
 5400POPC   PO468520  21.918  35.714   5.584
 5400POPC   GL168521  22.107  35.454   5.881
 5400POPC   GL268522  21.800  35.300   5.947
 5400POPC   C1A68523  22.355  35.544   6.259
 5400POPC   D2A68524  22.423  35.403   6.699
 5400POPC   C3A68525  22.462  35.650   7.071
 5400POPC   C4A68526  22.111  35.790   7.273
 5400POPC   C1B68527  21.916  35.311   6.378
 5400POPC   C2B68528  21.923  35.360   6.836
 5400POPC   C3B68529  22.152  35.266   7.220
 5400POPC   C4B68530  22.095  35.015   7.611
 5401POPC   NC368531   5.556  23.097   5.526
 5401POPC   PO468532   6.020  22.602   5.340
 5401POPC   GL168533   5.931  22.813   5.754
 5401POPC   GL268534   6.029  23.152   5.741
 5401POPC   C1A68535   5.684  22.939   6.140
 5401POPC   D2A68536   5.370  22.787   6.460
 5401POPC   C3A68537   5.460  22.834   6.905
 5401POPC   C4A68538   5.636  22.684   7.294
 5401POPC   C1B68539   6.128  23.220   6.173
 5401POPC   C2B68540   5.942  23.048   6.555
 5401POPC   C3B68541   5.966  22.837   6.917
 5401POPC   C4B68542   6.111  22.859   7.320
 5402POPC   NC368543  24.759  11.902   5.393
 5402POPC   PO468544  24.133  12.185   5.406
 5402POPC   GL168545  24.265  12.064   5.773
 5402POPC   GL268546  24.593  12.042   5.871
 5402POPC   C1A68547  24.152  12.189   6.164
 5402POPC   D2A68548  24.335  12.179   6.548
 5402POPC   C3A68549  24.187  12.050   6.934
 5402POPC   C4A68550  24.223  12.316   7.297
 5402POPC   C1B68551  24.838  12.022   6.243
 5402POPC   C2B68552  24.903  12.144   6.640
 5402POPC   C3B68553  24.813  12.087   7.043
 5402POPC   C4B68554  24.681  12.116   7.453
 5403POPC   NC368555  41.186  30.731   5.459
 5403POPC   PO468556  41.773  30.502   5.439
 5403POPC   GL168557  41.608  30.674   5.811
 5403POPC   GL268558  41.284  30.861   5.919
 5403POPC   C1A68559  41.687  30.842   6.214
 5403POPC   D2A68560  41.423  30.864   6.551
 5403POPC   C3A68561  41.615  30.783   6.923
 5403POPC   C4A68562  41.603  30.810   7.361
 5403POPC   C1B68563  41.308  30.463   6.159
 5403POPC   C2B68564  41.173  30.389   6.566
 5403POPC   C3B68565  41.126  30.608   6.913
 5403POPC   C4B68566  41.187  31.057   6.993
 5404POPC   NC368567   6.732  12.290   5.459
 5404POPC   PO468568   6.951  11.726   5.330
 5404POPC   GL168569   6.837  11.897   5.786
 5404POPC   GL268570   6.567  11.720   5.932
 5404POPC   C1A68571   6.668  12.148   6.201
 5404POPC   D2A68572   6.519  12.111   6.660
 5404POPC   C3A68573   6.697  12.372   6.985
 5404POPC   C4A68574   6.812  12.334   7.434
 5404POPC   C1B68575   6.347  11.500   6.223
 5404POPC   C2B68576   6.472  11.451   6.627
 5404POPC   C3B68577   6.536  11.698   6.988
 5404POPC   C4B68578   6.425  12.027   7.244
 5405POPC   NC368579   6.737  34.993   5.438
 5405POPC   PO468580   6.490  34.410   5.506
 5405POPC   GL168581   6.699  34.603   5.820
 5405POPC   GL268582   6.491  34.899   5.870
 5405POPC   C1A68583   6.666  34.519   6.242
 5405POPC   D2A68584   6.675  34.757   6.606
 5405POPC   C3A68585   6.766  34.552   6.995
 5405POPC   C4A68586   6.423  34.347   7.181
 5405POPC   C1B68587   6.500  35.119   6.241
 5405POPC   C2B68588   6.260  35.067   6.608
 5405POPC   C3B68589   6.247  34.803   6.971
 5405POPC   C4B68590   6.340  34.890   7.410
 5406POPC   NC368591   7.800  40.633   5.536
 5406POPC   PO468592   8.139  41.196   5.428
 5406POPC   GL168593   8.100  40.954   5.823
 5406POPC   GL268594   8.166  40.563   5.906
 5406POPC   C1A68595   7.901  40.888   6.201
 5406POPC   D2A68596   7.795  40.658   6.549
 5406POPC   C3A68597   7.999  40.807   6.908
 5406POPC   C4A68598   7.994  40.624   7.277
 5406POPC   C1B68599   8.529  40.687   6.219
 5406POPC   C2B68600   8.659  40.745   6.697
 5406POPC   C3B68601   8.488  40.793   7.150
 5406POPC   C4B68602   8.340  40.772   7.609
 5407POPC   NC368603  23.069  21.933   5.411
 5407POPC   PO468604  22.547  22.247   5.448
 5407POPC   GL168605  22.769  22.191   5.878
 5407POPC   GL268606  23.129  22.187   5.886
 5407POPC   C1A68607  22.913  22.112   6.355
 5407POPC   D2A68608  23.263  22.087   6.694
 5407POPC   C3A68609  23.214  21.747   7.022
 5407POPC   C4A68610  23.027  21.799   7.471
 5407POPC   C1B68611  23.316  22.416   6.242
 5407POPC   C2B68612  23.279  22.608   6.634
 5407POPC   C3B68613  23.206  22.485   7.046
 5407POPC   C4B68614  22.886  22.160   7.103
 5408POPC   NC368615  13.874  21.993   5.699
 5408POPC   PO468616  13.430  22.471   5.530
 5408POPC   GL168617  13.550  22.355   5.878
 5408POPC   GL268618  13.873  22.483   5.871
 5408POPC   C1A68619  13.502  22.198   6.286
 5408POPC   D2A68620  13.287  21.986   6.598
 5408POPC   C3A68621  13.515  21.990   6.984
 5408POPC   C4A68622  13.287  22.115   7.318
 5408POPC   C1B68623  13.685  22.678   6.236
 5408POPC   C2B68624  13.850  22.672   6.640
 5408POPC   C3B68625  13.895  22.611   7.047
 5408POPC   C4B68626  13.712  22.370   7.311
 5409POPC   NC368627   0.121   9.912   5.603
 5409POPC   PO468628  44.626   9.632   5.271
 5409POPC   GL168629  44.590   9.692   5.732
 5409POPC   GL268630  44.343   9.443   5.810
 5409POPC   C1A68631  44.762   9.675   6.173
 5409POPC   D2A68632  44.941   9.850   6.566
 5409POPC   C3A68633  44.823   9.662   6.966
 5409POPC   C4A68634  44.612   9.803   7.362
 5409POPC   C1B68635  44.258   9.565   6.241
 5409POPC   C2B68636  44.425   9.713   6.633
 5409POPC   C3B68637  44.318   9.531   7.036
 5409POPC   C4B68638  44.181   9.120   7.160
 5410POPC   NC368639  23.460  33.847   5.153
 5410POPC   PO468640  22.832  33.787   5.240
 5410POPC   GL168641  23.083  33.725   5.623
 5410POPC   GL268642  22.753  33.708   5.784
 5410POPC   C1A68643  23.170  33.720   6.089
 5410POPC   D2A68644  22.904  33.658   6.454
 5410POPC   C3A68645  23.077  33.706   6.879
 5410POPC   C4A68646  22.897  33.633   7.273
 5410POPC   C1B68647  22.785  34.070   6.082
 5410POPC   C2B68648  22.653  34.103   6.506
 5410POPC   C3B68649  22.643  33.983   6.907
 5410POPC   C4B68650  22.491  33.921   7.289
 5411POPC   NC368651   1.791  35.893   5.511
 5411POPC   PO468652   2.223  36.482   5.428
 5411POPC   GL168653   2.160  36.278   5.799
 5411POPC   GL268654   1.820  36.322   5.798
 5411POPC   C1A68655   2.256  36.131   6.197
 5411POPC   D2A68656   2.139  35.853   6.544
 5411POPC   C3A68657   2.276  35.985   6.957
 5411POPC   C4A68658   2.062  35.907   7.343
 5411POPC   C1B68659   1.750  36.121   6.180
 5411POPC   C2B68660   1.553  36.098   6.563
 5411POPC   C3B68661   1.757  36.037   6.947
 5411POPC   C4B68662   1.577  36.076   7.340
 5412POPC   NC368663   0.270  18.421   5.327
 5412POPC   PO468664   0.227  17.707   5.354
 5412POPC   GL168665   0.292  18.038   5.689
 5412POPC   GL268666   0.502  18.373   5.792
 5412POPC   C1A68667   0.203  18.144   6.121
 5412POPC   D2A68668   0.165  18.364   6.482
 5412POPC   C3A68669   0.388  18.220   6.833
 5412POPC   C4A68670   0.330  17.876   7.070
 5412POPC   C1B68671   0.724  18.213   6.206
 5412POPC   C2B68672   0.960  18.164   6.632
 5412POPC   C3B68673   0.876  18.078   7.099
 5412POPC   C4B68674   0.688  18.113   7.537
 5413POPC   NC368675   8.247  10.676   5.020
 5413POPC   PO468676   7.964  10.353   5.422
 5413POPC   GL168677   8.099  10.580   5.802
 5413POPC   GL268678   8.452  10.670   5.779
 5413POPC   C1A68679   8.150  10.598   6.256
 5413POPC   D2A68680   8.060  10.491   6.698
 5413POPC   C3A68681   8.111  10.747   7.084
 5413POPC   C4A68682   8.022  10.334   7.320
 5413POPC   C1B68683   8.639  10.442   6.155
 5413POPC   C2B68684   8.545  10.313   6.564
 5413POPC   C3B68685   8.490  10.447   6.997
 5413POPC   C4B68686   8.440  10.596   7.455
 5414POPC   NC368687  21.662  31.634   5.340
 5414POPC   PO468688  21.075  31.254   5.465
 5414POPC   GL168689  21.258  31.497   5.769
 5414POPC   GL268690  21.239  31.204   5.981
 5414POPC   C1A68691  21.194  31.674   6.197
 5414POPC   D2A68692  21.393  31.613   6.601
 5414POPC   C3A68693  21.134  31.681   6.962
 5414POPC   C4A68694  21.385  31.535   7.295
 5414POPC   C1B68695  21.642  31.422   6.109
 5414POPC   C2B68696  21.825  31.357   6.502
 5414POPC   C3B68697  21.630  31.188   6.879
 5414POPC   C4B68698  21.776  31.205   7.322
 5415POPC   NC368699  30.026  20.059   5.531
 5415POPC   PO468700  29.907  19.510   5.210
 5415POPC   GL168701  29.823  19.579   5.715
 5415POPC   GL268702  29.631  19.902   5.810
 5415POPC   C1A68703  29.889  19.687   6.201
 5415POPC   D2A68704  30.101  19.575   6.622
 5415POPC   C3A68705  30.095  19.769   7.052
 5415POPC   C4A68706  30.263  19.648   7.456
 5415POPC   C1B68707  29.659  20.153   6.212
 5415POPC   C2B68708  29.569  20.021   6.655
 5415POPC   C3B68709  29.720  20.134   7.071
 5415POPC   C4B68710  29.709  19.861   7.447
 5416POPC   NC368711  29.480  20.897   5.522
 5416POPC   PO468712  29.001  20.440   5.316
 5416POPC   GL168713  28.947  20.516   5.766
 5416POPC   GL268714  28.886  20.898   5.755
 5416POPC   C1A68715  29.178  20.385   6.175
 5416POPC   D2A68716  29.421  20.504   6.573
 5416POPC   C3A68717  29.162  20.353   6.938
 5416POPC   C4A68718  28.699  20.482   7.018
 5416POPC   C1B68719  29.005  20.862   6.198
 5416POPC   C2B68720  28.936  20.696   6.608
 5416POPC   C3B68721  29.073  20.842   7.021
 5416POPC   C4B68722  29.403  20.837   7.283
 5417POPC   NC368723  20.972  24.407   5.323
 5417POPC   PO468724  20.305  24.489   5.385
 5417POPC   GL168725  20.607  24.524   5.711
 5417POPC   GL268726  20.809  24.209   5.754
 5417POPC   C1A68727  20.692  24.572   6.153
 5417POPC   D2A68728  20.564  24.418   6.569
 5417POPC   C3A68729  20.662  24.622   6.971
 5417POPC   C4A68730  20.554  24.381   7.342
 5417POPC   C1B68731  21.034  24.005   6.066
 5417POPC   C2B68732  20.947  24.036   6.509
 5417POPC   C3B68733  20.823  24.123   6.937
 5417POPC   C4B68734  21.068  24.375   7.230
 5418POPC   NC368735   9.409   2.528   5.675
 5418POPC   PO468736   9.733   3.068   5.477
 5418POPC   GL168737   9.820   2.804   5.834
 5418POPC   GL268738   9.893   2.439   5.812
 5418POPC   C1A68739   9.869   2.738   6.274
 5418POPC   D2A68740   9.656   2.850   6.657
 5418POPC   C3A68741   9.826   2.884   7.067
 5418POPC   C4A68742   9.528   2.897   7.415
 5418POPC   C1B68743   9.926   2.228   6.203
 5418POPC   C2B68744   9.676   2.340   6.549
 5418POPC   C3B68745   9.793   2.315   6.944
 5418POPC   C4B68746   9.759   2.461   7.368
 5419POPC   NC368747   8.311  27.039   5.322
 5419POPC   PO468748   8.634  26.540   5.497
 5419POPC   GL168749   8.512  26.844   5.840
 5419POPC   GL268750   8.336  27.175   5.822
 5419POPC   C1A68751   8.266  26.782   6.248
 5419POPC   D2A68752   8.236  26.777   6.743
 5419POPC   C3A68753   8.118  26.587   7.170
 5419POPC   C4A68754   8.260  26.344   7.527
 5419POPC   C1B68755   8.438  27.277   6.266
 5419POPC   C2B68756   8.397  27.266   6.738
 5419POPC   C3B68757   8.292  27.095   7.148
 5419POPC   C4B68758   8.002  27.049   7.527
 5420POPC   NC368759  16.213  25.678   5.533
 5420POPC   PO468760  15.859  25.040   5.489
 5420POPC   GL168761  16.013  25.191   5.843
 5420POPC   GL268762  16.344  25.219   5.746
 5420POPC   C1A68763  16.038  25.477   6.174
 5420POPC   D2A68764  15.819  25.589   6.559
 5420POPC   C3A68765  15.868  25.212   6.792
 5420POPC   C4A68766  15.885  25.153   7.212
 5420POPC   C1B68767  16.427  25.107   6.155
 5420POPC   C2B68768  16.334  25.271   6.535
 5420POPC   C3B68769  16.293  25.548   6.843
 5420POPC   C4B68770  16.328  25.391   7.232
 5421POPC   NC368771  18.649  10.361   5.457
 5421POPC   PO468772  19.219  10.408   5.209
 5421POPC   GL168773  19.116  10.476   5.706
 5421POPC   GL268774  18.811  10.686   5.848
 5421POPC   C1A68775  19.173  10.501   6.193
 5421POPC   D2A68776  19.087  10.287   6.619
 5421POPC   C3A68777  19.071  10.526   7.020
 5421POPC   C4A68778  19.320  10.558   7.450
 5421POPC   C1B68779  18.866  10.925   6.279
 5421POPC   C2B68780  18.641  11.033   6.678
 5421POPC   C3B68781  18.514  10.778   7.041
 5421POPC   C4B68782  18.652  10.369   7.261
 5422POPC   NC368783  39.474   3.640   5.467
 5422POPC   PO468784  40.179   3.575   5.420
 5422POPC   GL168785  40.177   3.674   5.848
 5422POPC   GL268786  39.869   3.872   5.812
 5422POPC   C1A68787  40.253   3.474   6.245
 5422POPC   D2A68788  40.166   3.226   6.626
 5422POPC   C3A68789  40.269   3.429   7.014
 5422POPC   C4A68790  40.217   3.510   7.451
 5422POPC   C1B68791  39.752   3.496   6.089
 5422POPC   C2B68792  39.638   3.323   6.508
 5422POPC   C3B68793  39.742   3.281   6.943
 5422POPC   C4B68794  39.750   3.614   7.217
 5423POPC   NC368795  24.437  33.673   5.274
 5423POPC   PO468796  24.162  34.236   5.514
 5423POPC   GL168797  24.292  33.850   5.746
 5423POPC   GL268798  24.075  33.560   5.660
 5423POPC   C1A68799  24.556  33.732   6.103
 5423POPC   D2A68800  24.458  33.770   6.547
 5423POPC   C3A68801  24.780  33.814   6.850
 5423POPC   C4A68802  24.650  33.761   7.255
 5423POPC   C1B68803  24.094  33.525   6.120
 5423POPC   C2B68804  24.035  33.487   6.594
 5423POPC   C3B68805  24.142  33.704   6.996
 5423POPC   C4B68806  24.177  33.730   7.437
 5424POPC   NC368807   6.113   1.949   5.430
 5424POPC   PO468808   5.654   1.489   5.499
 5424POPC   GL168809   5.995   1.661   5.828
 5424POPC   GL268810   6.050   2.065   5.911
 5424POPC   C1A68811   6.117   1.717   6.272
 5424POPC   D2A68812   6.024   2.034   6.607
 5424POPC   C3A68813   6.025   1.903   7.077
 5424POPC   C4A68814   5.985   2.092   7.481
 5424POPC   C1B68815   5.662   1.986   6.134
 5424POPC   C2B68816   5.477   2.171   6.495
 5424POPC   C3B68817   5.609   2.116   6.894
 5424POPC   C4B68818   5.507   2.156   7.288
 5425POPC   NC368819  33.508  31.341   5.454
 5425POPC   PO468820  32.858  31.408   5.265
 5425POPC   GL168821  33.042  31.289   5.686
 5425POPC   GL268822  33.015  31.643   5.801
 5425POPC   C1A68823  33.140  31.278   6.165
 5425POPC   D2A68824  33.177  31.549   6.529
 5425POPC   C3A68825  32.983  31.391   6.894
 5425POPC   C4A68826  33.219  31.366   7.247
 5425POPC   C1B68827  32.823  31.775   6.205
 5425POPC   C2B68828  32.799  31.887   6.636
 5425POPC   C3B68829  32.692  31.780   7.042
 5425POPC   C4B68830  32.882  31.697   7.438
 5426POPC   NC368831  17.320   9.368   5.391
 5426POPC   PO468832  17.249   8.571   5.363
 5426POPC   GL168833  17.226   8.943   5.656
 5426POPC   GL268834  17.564   9.062   5.773
 5426POPC   C1A68835  17.190   9.013   6.130
 5426POPC   D2A68836  17.330   8.903   6.558
 5426POPC   C3A68837  17.255   8.987   6.993
 5426POPC   C4A68838  17.437   8.872   7.421
 5426POPC   C1B68839  17.712   8.923   6.223
 5426POPC   C2B68840  17.823   8.794   6.689
 5426POPC   C3B68841  17.665   8.593   7.086
 5426POPC   C4B68842  17.852   8.477   7.494
 5427POPC   NC368843  14.150  21.712   5.177
 5427POPC   PO468844  14.395  21.142   5.339
 5427POPC   GL168845  14.325  21.417   5.673
 5427POPC   GL268846  14.635  21.399   5.798
 5427POPC   C1A68847  14.263  21.514   6.129
 5427POPC   D2A68848  14.537  21.497   6.516
 5427POPC   C3A68849  14.370  21.324   6.917
 5427POPC   C4A68850  14.213  21.454   7.328
 5427POPC   C1B68851  14.821  21.200   6.137
 5427POPC   C2B68852  14.743  20.992   6.526
 5427POPC   C3B68853  14.843  21.111   6.932
 5427POPC   C4B68854  14.700  21.268   7.319
 5428POPC   NC368855  40.526  10.168   5.457
 5428POPC   PO468856  40.661  10.909   5.382
 5428POPC   GL168857  40.779  10.732   5.785
 5428POPC   GL268858  40.493  10.566   5.789
 5428POPC   C1A68859  40.834  10.438   6.178
 5428POPC   D2A68860  41.065  10.503   6.589
 5428POPC   C3A68861  40.837  10.444   6.969
 5428POPC   C4A68862  40.895  10.540   7.348
 5428POPC   C1B68863  40.386  10.731   6.195
 5428POPC   C2B68864  40.525  10.693   6.649
 5428POPC   C3B68865  40.451  10.752   7.129
 5428POPC   C4B68866  40.415  10.394   7.462
 5429POPC   NC368867  34.151  36.364   5.536
 5429POPC   PO468868  33.453  36.265   5.610
 5429POPC   GL168869  33.797  36.050   5.882
 5429POPC   GL268870  34.080  36.278   6.021
 5429POPC   C1A68871  33.903  35.937   6.321
 5429POPC   D2A68872  33.835  36.238   6.677
 5429POPC   C3A68873  33.888  36.059   7.074
 5429POPC   C4A68874  34.187  35.870   7.363
 5429POPC   C1B68875  33.669  36.439   6.229
 5429POPC   C2B68876  33.527  36.686   6.599
 5429POPC   C3B68877  33.585  36.553   7.011
 5429POPC   C4B68878  33.497  36.414   7.416
 5430POPC   NC368879  35.511   8.985   5.529
 5430POPC   PO468880  35.086   9.479   5.542
 5430POPC   GL168881  35.120   9.216   5.929
 5430POPC   GL268882  35.233   8.893   5.938
 5430POPC   C1A68883  35.317   9.240   6.307
 5430POPC   D2A68884  35.192   9.306   6.702
 5430POPC   C3A68885  35.481   9.252   7.048
 5430POPC   C4A68886  35.716   8.918   7.276
 5430POPC   C1B68887  35.395   8.723   6.337
 5430POPC   C2B68888  35.525   8.801   6.782
 5430POPC   C3B68889  35.315   8.627   7.145
 5430POPC   C4B68890  35.023   8.496   7.451
 5431POPC   NC368891  27.149  17.081   5.528
 5431POPC   PO468892  26.752  17.664   5.512
 5431POPC   GL168893  26.767  17.331   5.811
 5431POPC   GL268894  27.111  17.351   5.952
 5431POPC   C1A68895  26.712  17.297   6.256
 5431POPC   D2A68896  26.867  17.558   6.584
 5431POPC   C3A68897  26.666  17.529   6.960
 5431POPC   C4A68898  26.776  17.294   7.282
 5431POPC   C1B68899  27.243  17.268   6.387
 5431POPC   C2B68900  27.196  17.204   6.864
 5431POPC   C3B68901  27.172  16.974   7.277
 5431POPC   C4B68902  26.967  17.040   7.690
 5432POPC   NC368903  42.391  19.911   5.277
 5432POPC   PO468904  42.023  19.628   5.760
 5432POPC   GL168905  42.339  19.875   5.817
 5432POPC   GL268906  42.120  20.123   5.851
 5432POPC   C1A68907  42.578  19.979   6.172
 5432POPC   D2A68908  42.804  19.764   6.501
 5432POPC   C3A68909  42.582  19.959   6.823
 5432POPC   C4A68910  42.467  19.929   7.239
 5432POPC   C1B68911  42.001  19.974   6.273
 5432POPC   C2B68912  42.135  19.664   6.537
 5432POPC   C3B68913  42.077  19.844   6.909
 5432POPC   C4B68914  41.979  20.107   7.240
 5433POPC   NC368915  10.323  41.370   5.277
 5433POPC   PO468916  10.512  40.780   5.368
 5433POPC   GL168917  10.619  40.740   5.777
 5433POPC   GL268918  10.551  41.064   5.838
 5433POPC   C1A68919  10.661  40.664   6.227
 5433POPC   D2A68920  10.969  40.770   6.558
 5433POPC   C3A68921  10.790  40.709   6.989
 5433POPC   C4A68922  10.407  40.492   7.207
 5433POPC   C1B68923  10.448  41.175   6.258
 5433POPC   C2B68924  10.530  41.072   6.708
 5433POPC   C3B68925  10.451  41.077   7.173
 5433POPC   C4B68926  10.577  41.184   7.635
 5434POPC   NC368927   2.340  19.334   5.396
 5434POPC   PO468928   3.011  19.093   5.178
 5434POPC   GL168929   2.838  19.143   5.616
 5434POPC   GL268930   2.711  18.806   5.708
 5434POPC   C1A68931   2.977  19.183   6.063
 5434POPC   D2A68932   3.028  19.084   6.517
 5434POPC   C3A68933   3.062  19.310   6.912
 5434POPC   C4A68934   3.009  19.148   7.304
 5434POPC   C1B68935   2.487  19.062   6.043
 5434POPC   C2B68936   2.481  19.162   6.503
 5434POPC   C3B68937   2.558  19.105   6.953
 5434POPC   C4B68938   2.422  18.858   7.295
 5435POPC   NC368939  26.141   7.519   5.343
 5435POPC   PO468940  25.735   7.143   5.659
 5435POPC   GL168941  26.083   7.351   5.831
 5435POPC   GL268942  25.923   7.682   5.785
 5435POPC   C1A68943  26.342   7.332   6.190
 5435POPC   D2A68944  26.460   7.098   6.574
 5435POPC   C3A68945  26.213   7.112   6.942
 5435POPC   C4A68946  26.265   7.419   7.291
 5435POPC   C1B68947  25.940   7.648   6.231
 5435POPC   C2B68948  25.978   7.387   6.571
 5435POPC   C3B68949  25.849   7.469   6.971
 5435POPC   C4B68950  25.818   7.768   7.293
 5436POPC   NC368951  21.599   3.385   5.405
 5436POPC   PO468952  20.981   3.483   5.391
 5436POPC   GL168953  21.218   3.532   5.754
 5436POPC   GL268954  21.194   3.889   5.811
 5436POPC   C1A68955  21.426   3.519   6.156
 5436POPC   D2A68956  21.441   3.690   6.579
 5436POPC   C3A68957  21.390   3.319   6.827
 5436POPC   C4A68958  21.469   3.135   7.249
 5436POPC   C1B68959  21.028   3.836   6.237
 5436POPC   C2B68960  20.928   3.610   6.635
 5436POPC   C3B68961  21.108   3.774   7.006
 5436POPC   C4B68962  21.496   3.653   7.200
 5437POPC   NC368963  22.890  34.213   5.434
 5437POPC   PO468964  22.783  34.863   5.197
 5437POPC   GL168965  22.742  34.657   5.624
 5437POPC   GL268966  23.095  34.605   5.765
 5437POPC   C1A68967  22.704  34.598   6.102
 5437POPC   D2A68968  22.874  34.544   6.523
 5437POPC   C3A68969  22.671  34.510   6.947
 5437POPC   C4A68970  22.911  34.614   7.282
 5437POPC   C1B68971  23.211  34.345   6.138
 5437POPC   C2B68972  23.167  34.096   6.511
 5437POPC   C3B68973  23.108  34.240   6.921
 5437POPC   C4B68974  23.387  34.446   7.205
 5438POPC   NC368975   8.839  26.119   5.443
 5438POPC   PO468976   9.398  25.693   5.568
 5438POPC   GL168977   9.125  25.932   5.852
 5438POPC   GL268978   9.174  25.705   6.096
 5438POPC   C1A68979   9.181  26.229   6.229
 5438POPC   D2A68980   8.979  26.403   6.630
 5438POPC   C3A68981   9.036  26.184   7.033
 5438POPC   C4A68982   8.722  25.905   7.261
 5438POPC   C1B68983   8.805  25.877   6.310
 5438POPC   C2B68984   8.757  25.837   6.741
 5438POPC   C3B68985   9.113  25.691   6.902
 5438POPC   C4B68986   9.259  25.703   7.289
 5439POPC   NC368987  14.406   4.701   4.957
 5439POPC   PO468988  14.332   4.193   5.448
 5439POPC   GL168989  14.286   4.057   5.886
 5439POPC   GL268990  14.288   4.402   5.902
 5439POPC   C1A68991  14.127   4.159   6.322
 5439POPC   D2A68992  14.165   4.293   6.747
 5439POPC   C3A68993  14.538   4.232   6.947
 5439POPC   C4A68994  14.513   4.142   7.339
 5439POPC   C1B68995  14.602   4.364   6.216
 5439POPC   C2B68996  14.578   4.574   6.578
 5439POPC   C3B68997  14.600   4.754   6.934
 5439POPC   C4B68998  14.535   4.630   7.303
 5440POPC   NC368999   8.070  24.506   5.015
 5440POPC   PO469000   8.464  24.201   5.524
 5440POPC   GL169001   8.164  24.392   5.836
 5440POPC   GL269002   8.493  24.523   5.983
 5440POPC   C1A69003   8.069  24.623   6.251
 5440POPC   D2A69004   8.408  24.688   6.579
 5440POPC   C3A69005   8.353  24.604   7.014
 5440POPC   C4A69006   7.944  24.506   7.203
 5440POPC   C1B69007   8.362  24.215   6.308
 5440POPC   C2B69008   8.106  24.267   6.705
 5440POPC   C3B69009   8.249  24.093   7.118
 5440POPC   C4B69010   8.230  24.145   7.574
 5441POPC   NC369011   1.587  12.825   5.397
 5441POPC   PO469012   2.116  12.442   5.306
 5441POPC   GL169013   1.993  12.792   5.693
 5441POPC   GL269014   2.187  13.078   5.807
 5441POPC   C1A69015   1.798  12.994   6.115
 5441POPC   D2A69016   1.945  13.086   6.568
 5441POPC   C3A69017   1.858  12.951   7.029
 5441POPC   C4A69018   1.775  12.684   7.426
 5441POPC   C1B69019   2.324  13.094   6.196
 5441POPC   C2B69020   2.471  12.976   6.577
 5441POPC   C3B69021   2.361  13.164   6.943
 5441POPC   C4B69022   2.292  12.956   7.304
 5442POPC   NC369023  23.101  44.700   5.343
 5442POPC   PO469024  22.512  44.727   5.504
 5442POPC   GL169025  22.810  44.657   5.792
 5442POPC   GL269026  22.639  44.382   5.883
 5442POPC   C1A69027  23.126  44.772   6.089
 5442POPC   D2A69028  23.281  44.763   6.507
 5442POPC   C3A69029  23.067  44.893   6.882
 5442POPC   C4A69030  23.036  44.624   7.257
 5442POPC   C1B69031  22.877  44.343   6.235
 5442POPC   C2B69032  22.789  44.548   6.617
 5442POPC   C3B69033  22.590  44.672   6.998
 5442POPC   C4B69034  22.542  44.455   7.395
 5443POPC   NC369035  17.487  18.589   5.263
 5443POPC   PO469036  17.597  19.234   5.462
 5443POPC   GL169037  17.475  18.996   5.793
 5443POPC   GL269038  17.571  18.645   5.754
 5443POPC   C1A69039  17.485  19.238   6.187
 5443POPC   D2A69040  17.607  19.506   6.554
 5443POPC   C3A69041  17.571  19.217   6.904
 5443POPC   C4A69042  17.418  19.239   7.299
 5443POPC   C1B69043  17.454  18.612   6.173
 5443POPC   C2B69044  17.499  18.840   6.542
 5443POPC   C3B69045  17.278  18.789   6.918
 5443POPC   C4B69046  17.444  18.710   7.291
 5444POPC   NC369047  13.718  38.229   5.482
 5444POPC   PO469048  13.337  38.741   5.518
 5444POPC   GL169049  13.472  38.512   5.830
 5444POPC   GL269050  13.312  38.194   5.804
 5444POPC   C1A69051  13.698  38.544   6.184
 5444POPC   D2A69052  13.732  38.753   6.565
 5444POPC   C3A69053  13.680  38.470   6.887
 5444POPC   C4A69054  13.623  38.619   7.236
 5444POPC   C1B69055  13.435  38.105   6.196
 5444POPC   C2B69056  13.515  38.010   6.606
 5444POPC   C3B69057  13.216  38.091   6.890
 5444POPC   C4B69058  13.284  38.259   7.263
 5445POPC   NC369059   3.459  41.898   5.436
 5445POPC   PO469060   3.473  42.612   5.352
 5445POPC   GL169061   3.414  42.362   5.682
 5445POPC   GL269062   3.737  42.396   5.797
 5445POPC   C1A69063   3.335  42.224   6.100
 5445POPC   D2A69064   3.538  42.142   6.510
 5445POPC   C3A69065   3.384  42.410   6.848
 5445POPC   C4A69066   3.318  42.357   7.285
 5445POPC   C1B69067   3.810  42.729   6.081
 5445POPC   C2B69068   3.672  42.861   6.526
 5445POPC   C3B69069   3.770  42.779   6.970
 5445POPC   C4B69070   3.697  42.686   7.395
 5446POPC   NC369071  39.830  44.645   5.339
 5446POPC   PO469072  40.373  44.371   5.401
 5446POPC   GL169073  40.122  44.561   5.758
 5446POPC   GL269074  39.775  44.363   5.759
 5446POPC   C1A69075  40.225  44.800   6.146
 5446POPC   D2A69076  40.498  44.936   6.493
 5446POPC   C3A69077  40.294  44.831   6.925
 5446POPC   C4A69078  40.047  44.857   7.318
 5446POPC   C1B69079  39.727  44.593   6.122
 5446POPC   C2B69080  39.897  44.628   6.528
 5446POPC   C3B69081  39.738  44.714   6.929
 5446POPC   C4B69082  39.704  44.486   7.293
 5447POPC   NC369083   7.341  14.715   5.626
 5447POPC   PO469084   7.856  14.596   5.278
 5447POPC   GL169085   7.733  14.404   5.714
 5447POPC   GL269086   7.366  14.245   5.802
 5447POPC   C1A69087   7.730  14.479   6.160
 5447POPC   D2A69088   7.457  14.330   6.523
 5447POPC   C3A69089   7.542  14.457   6.958
 5447POPC   C4A69090   7.587  14.217   7.330
 5447POPC   C1B69091   7.095  14.415   6.148
 5447POPC   C2B69092   6.907  14.287   6.515
 5447POPC   C3B69093   6.933  14.474   6.906
 5447POPC   C4B69094   7.134  14.454   7.290
 5448POPC   NC369095  43.594   0.135   5.243
 5448POPC   PO469096  44.091   0.568   5.417
 5448POPC   GL169097  44.016   0.746   5.866
 5448POPC   GL269098  44.083   0.425   6.014
 5448POPC   C1A69099  43.869   0.736   6.334
 5448POPC   D2A69100  43.846   0.370   6.579
 5448POPC   C3A69101  43.609   0.337   6.956
 5448POPC   C4A69102  43.773   0.562   7.299
 5448POPC   C1B69103  44.262   0.123   6.298
 5448POPC   C2B69104  44.289   0.129   6.728
 5448POPC   C3B69105  44.216   0.413   7.084
 5448POPC   C4B69106  44.136   0.308   7.535
 5449POPC   NC369107  30.093  43.626   5.313
 5449POPC   PO469108  29.833  44.266   5.338
 5449POPC   GL169109  30.020  43.988   5.743
 5449POPC   GL269110  30.099  43.600   5.804
 5449POPC   C1A69111  29.980  43.897   6.225
 5449POPC   D2A69112  30.220  44.085   6.612
 5449POPC   C3A69113  30.079  44.173   7.074
 5449POPC   C4A69114  29.655  44.144   7.311
 5449POPC   C1B69115  30.227  43.426   6.162
 5449POPC   C2B69116  30.196  43.581   6.573
 5449POPC   C3B69117  30.074  43.654   7.004
 5449POPC   C4B69118  30.079  43.770   7.442
 5450POPC   NC369119  41.642  39.333   5.418
 5450POPC   PO469120  41.311  38.777   5.539
 5450POPC   GL169121  41.485  39.069   5.833
 5450POPC   GL269122  41.303  39.446   5.777
 5450POPC   C1A69123  41.804  39.085   6.167
 5450POPC   D2A69124  41.897  39.432   6.465
 5450POPC   C3A69125  41.677  39.384   6.860
 5450POPC   C4A69126  41.833  39.361   7.266
 5450POPC   C1B69127  41.436  39.463   6.188
 5450POPC   C2B69128  41.273  39.217   6.503
 5450POPC   C3B69129  41.140  39.290   6.908
 5450POPC   C4B69130  41.321  39.406   7.298
 5451POPC   NC369131   6.883  30.229   5.436
 5451POPC   PO469132   6.289  29.827   5.403
 5451POPC   GL169133   6.537  29.960   5.772
 5451POPC   GL269134   6.904  29.868   5.801
 5451POPC   C1A69135   6.645  30.004   6.226
 5451POPC   D2A69136   6.770  30.147   6.632
 5451POPC   C3A69137   6.757  29.862   7.003
 5451POPC   C4A69138   6.623  29.840   7.478
 5451POPC   C1B69139   7.103  30.201   6.097
 5451POPC   C2B69140   7.281  30.218   6.543
 5451POPC   C3B69141   7.103  30.236   6.990
 5451POPC   C4B69142   7.093  30.017   7.368
 5452POPC   NC369143  37.083  37.382   5.387
 5452POPC   PO469144  36.846  36.760   5.446
 5452POPC   GL169145  37.012  36.901   5.816
 5452POPC   GL269146  37.256  37.160   5.822
 5452POPC   C1A69147  36.834  37.114   6.171
 5452POPC   D2A69148  36.924  37.100   6.606
 5452POPC   C3A69149  36.698  36.766   6.857
 5452POPC   C4A69150  36.657  36.776   7.324
 5452POPC   C1B69151  37.341  36.982   6.261
 5452POPC   C2B69152  37.406  36.998   6.736
 5452POPC   C3B69153  37.094  36.964   7.096
 5452POPC   C4B69154  36.707  37.230   7.092
 5453POPC   NC369155   3.902  23.215   5.423
 5453POPC   PO469156   4.442  22.823   5.216
 5453POPC   GL169157   4.473  22.863   5.748
 5453POPC   GL269158   4.271  23.173   5.812
 5453POPC   C1A69159   4.418  22.915   6.256
 5453POPC   D2A69160   4.626  23.120   6.666
 5453POPC   C3A69161   4.450  22.967   7.085
 5453POPC   C4A69162   4.148  22.639   7.215
 5453POPC   C1B69163   4.214  23.383   6.222
 5453POPC   C2B69164   4.142  23.259   6.647
 5453POPC   C3B69165   4.138  23.349   7.076
 5453POPC   C4B69166   3.939  23.458   7.442
 5454POPC   NC369167  33.220  29.627   5.210
 5454POPC   PO469168  33.732  29.951   5.222
 5454POPC   GL169169  33.712  30.001   5.680
 5454POPC   GL269170  33.552  29.699   5.857
 5454POPC   C1A69171  33.804  30.084   6.124
 5454POPC   D2A69172  33.562  30.168   6.476
 5454POPC   C3A69173  33.771  30.022   6.828
 5454POPC   C4A69174  33.745  29.884   7.245
 5454POPC   C1B69175  33.878  29.567   6.163
 5454POPC   C2B69176  34.058  29.766   6.495
 5454POPC   C3B69177  34.067  29.603   6.916
 5454POPC   C4B69178  34.214  29.615   7.337
 5455POPC   NC369179  24.463  21.257   5.352
 5455POPC   PO469180  24.789  21.812   5.463
 5455POPC   GL169181  24.777  21.405   5.736
 5455POPC   GL269182  24.424  21.308   5.847
 5455POPC   C1A69183  24.768  21.384   6.203
 5455POPC   D2A69184  24.635  21.183   6.559
 5455POPC   C3A69185  24.451  21.384   6.889
 5455POPC   C4A69186  24.732  21.491   7.214
 5455POPC   C1B69187  24.248  21.222   6.240
 5455POPC   C2B69188  24.179  20.935   6.610
 5455POPC   C3B69189  24.067  21.061   7.053
 5455POPC   C4B69190  24.372  21.169   7.377
 5456POPC   NC369191   4.751  12.187   5.375
 5456POPC   PO469192   5.414  11.969   5.323
 5456POPC   GL169193   5.269  12.050   5.738
 5456POPC   GL269194   5.045  11.743   5.773
 5456POPC   C1A69195   5.204  12.191   6.187
 5456POPC   D2A69196   5.025  11.895   6.479
 5456POPC   C3A69197   4.747  12.042   6.805
 5456POPC   C4A69198   4.878  12.189   7.183
 5456POPC   C1B69199   5.353  11.699   6.116
 5456POPC   C2B69200   5.531  11.830   6.537
 5456POPC   C3B69201   5.276  11.881   6.927
 5456POPC   C4B69202   5.197  11.755   7.339
 5457POPC   NC369203  41.602  30.078   5.330
 5457POPC   PO469204  41.992  29.538   5.431
 5457POPC   GL169205  41.581  29.717   5.678
 5457POPC   GL269206  41.541  30.135   5.817
 5457POPC   C1A69207  41.294  29.772   6.027
 5457POPC   D2A69208  41.438  29.979   6.400
 5457POPC   C3A69209  41.548  29.735   6.762
 5457POPC   C4A69210  41.479  29.822   7.187
 5457POPC   C1B69211  41.791  30.311   6.168
 5457POPC   C2B69212  41.706  30.389   6.615
 5457POPC   C3B69213  41.523  30.310   7.057
 5457POPC   C4B69214  41.238  30.485   7.404
 5458POPC   NC369215  38.118  38.663   5.487
 5458POPC   PO469216  38.798  38.296   5.490
 5458POPC   GL169217  38.536  38.477   5.809
 5458POPC   GL269218  38.230  38.304   5.865
 5458POPC   C1A69219  38.366  38.679   6.191
 5458POPC   D2A69220  38.318  38.896   6.569
 5458POPC   C3A69221  38.495  38.669   6.857
 5458POPC   C4A69222  38.490  38.500   7.205
 5458POPC   C1B69223  38.394  38.156   6.239
 5458POPC   C2B69224  38.305  38.208   6.659
 5458POPC   C3B69225  38.377  38.059   7.034
 5458POPC   C4B69226  38.279  38.140   7.499
 5459POPC   NC369227  20.859  40.095   5.347
 5459POPC   PO469228  20.153  40.205   5.353
 5459POPC   GL169229  20.460  40.238   5.702
 5459POPC   GL269230  20.823  40.284   5.812
 5459POPC   C1A69231  20.437  40.117   6.137
 5459POPC   D2A69232  20.316  39.801   6.396
 5459POPC   C3A69233  20.372  39.925   6.801
 5459POPC   C4A69234  20.382  39.878   7.216
 5459POPC   C1B69235  20.915  39.962   6.144
 5459POPC   C2B69236  20.884  40.024   6.588
 5459POPC   C3B69237  20.924  39.831   7.002
 5459POPC   C4B69238  20.856  39.951   7.404
 5460POPC   NC369239   3.711  40.611   5.399
 5460POPC   PO469240   3.477  41.188   5.556
 5460POPC   GL169241   3.635  40.923   5.846
 5460POPC   GL269242   3.349  40.755   5.809
 5460POPC   C1A69243   3.542  40.702   6.265
 5460POPC   D2A69244   3.276  40.743   6.623
 5460POPC   C3A69245   3.453  40.568   7.022
 5460POPC   C4A69246   3.887  40.508   7.172
 5460POPC   C1B69247   3.230  41.102   6.153
 5460POPC   C2B69248   3.456  41.262   6.502
 5460POPC   C3B69249   3.485  41.107   6.903
 5460POPC   C4B69250   3.134  40.996   7.159
 5461POPC   NC369251   6.216  41.059   5.650
 5461POPC   PO469252   5.723  41.356   5.280
 5461POPC   GL169253   5.799  41.465   5.700
 5461POPC   GL269254   6.055  41.699   5.715
 5461POPC   C1A69255   5.730  41.480   6.152
 5461POPC   D2A69256   5.767  41.702   6.548
 5461POPC   C3A69257   5.945  41.478   6.890
 5461POPC   C4A69258   5.784  41.427   7.336
 5461POPC   C1B69259   6.097  41.844   6.137
 5461POPC   C2B69260   6.308  41.776   6.523
 5461POPC   C3B69261   6.150  41.936   6.880
 5461POPC   C4B69262   6.081  41.820   7.263
 5462POPC   NC369263  38.184  13.383   5.684
 5462POPC   PO469264  37.576  13.729   5.362
 5462POPC   GL169265  37.803  13.735   5.738
 5462POPC   GL269266  37.689  13.378   5.786
 5462POPC   C1A69267  37.961  13.786   6.169
 5462POPC   D2A69268  38.014  14.018   6.551
 5462POPC   C3A69269  37.883  13.779   6.900
 5462POPC   C4A69270  37.670  13.827   7.287
 5462POPC   C1B69271  37.471  13.635   6.108
 5462POPC   C2B69272  37.486  13.784   6.540
 5462POPC   C3B69273  37.312  13.732   6.965
 5462POPC   C4B69274  37.253  13.481   7.362
 5463POPC   NC369275  30.881  39.865   5.371
 5463POPC   PO469276  30.280  40.114   5.263
 5463POPC   GL169277  30.540  40.117   5.671
 5463POPC   GL269278  30.565  39.757   5.780
 5463POPC   C1A69279  30.848  40.090   6.059
 5463POPC   D2A69280  31.078  40.017   6.472
 5463POPC   C3A69281  30.963  40.310   6.757
 5463POPC   C4A69282  30.571  40.485   6.943
 5463POPC   C1B69283  30.452  39.759   6.217
 5463POPC   C2B69284  30.558  39.982   6.596
 5463POPC   C3B69285  30.773  39.888   6.974
 5463POPC   C4B69286  30.967  39.781   7.349
 5464POPC   NC369287  23.228   3.263   5.172
 5464POPC   PO469288  22.892   3.787   5.370
 5464POPC   GL169289  23.104   3.522   5.714
 5464POPC   GL269290  22.893   3.280   5.900
 5464POPC   C1A69291  23.311   3.577   6.154
 5464POPC   D2A69292  23.287   3.391   6.565
 5464POPC   C3A69293  23.321   3.610   6.936
 5464POPC   C4A69294  23.214   3.393   7.317
 5464POPC   C1B69295  22.841   3.393   6.319
 5464POPC   C2B69296  22.897   3.710   6.628
 5464POPC   C3B69297  22.820   3.540   6.996
 5464POPC   C4B69298  22.732   3.597   7.405
 5465POPC   NC369299  37.462  32.788   5.607
 5465POPC   PO469300  38.038  32.462   5.458
 5465POPC   GL169301  37.787  32.370   5.809
 5465POPC   GL269302  37.603  32.076   5.776
 5465POPC   C1A69303  37.822  32.292   6.258
 5465POPC   D2A69304  37.548  32.307   6.629
 5465POPC   C3A69305  37.687  32.229   7.069
 5465POPC   C4A69306  37.897  32.493   7.363
 5465POPC   C1B69307  37.348  32.186   6.127
 5465POPC   C2B69308  37.157  32.016   6.497
 5465POPC   C3B69309  37.217  32.056   6.920
 5465POPC   C4B69310  37.395  31.803   7.238
 5466POPC   NC369311  28.289  27.159   5.037
 5466POPC   PO469312  28.861  27.330   5.422
 5466POPC   GL169313  28.574  27.496   5.768
 5466POPC   GL269314  28.178  27.559   5.768
 5466POPC   C1A69315  28.448  27.524   6.190
 5466POPC   D2A69316  28.289  27.394   6.569
 5466POPC   C3A69317  28.570  27.395   6.901
 5466POPC   C4A69318  28.497  27.413   7.304
 5466POPC   C1B69319  28.015  27.795   6.188
 5466POPC   C2B69320  27.908  27.749   6.654
 5466POPC   C3B69321  28.071  27.528   7.045
 5466POPC   C4B69322  28.218  27.789   7.442
 5467POPC   NC369323  26.744   2.399   5.628
 5467POPC   PO469324  26.830   1.813   5.388
 5467POPC   GL169325  27.034   1.973   5.770
 5467POPC   GL269326  26.760   2.017   5.956
 5467POPC   C1A69327  27.155   2.010   6.241
 5467POPC   D2A69328  26.872   1.996   6.575
 5467POPC   C3A69329  27.070   1.913   6.947
 5467POPC   C4A69330  26.946   2.107   7.342
 5467POPC   C1B69331  26.643   1.687   6.225
 5467POPC   C2B69332  26.423   1.733   6.627
 5467POPC   C3B69333  26.543   2.011   6.987
 5467POPC   C4B69334  26.840   2.378   6.931
 5468POPC   NC369335  20.322   0.609   5.412
 5468POPC   PO469336  20.661   0.000   5.451
 5468POPC   GL169337  20.649   0.335   5.727
 5468POPC   GL269338  20.319   0.309   5.849
 5468POPC   C1A69339  20.760   0.411   6.177
 5468POPC   D2A69340  20.585   0.330   6.607
 5468POPC   C3A69341  20.862   0.231   6.952
 5468POPC   C4A69342  20.890   0.271   7.399
 5468POPC   C1B69343  20.183   0.473   6.290
 5468POPC   C2B69344  20.109   0.480   6.776
 5468POPC   C3B69345  20.403   0.482   7.148
 5468POPC   C4B69346  20.433   0.386   7.621
 5469POPC   NC369347  37.631  42.928   5.466
 5469POPC   PO469348  37.530  42.279   5.480
 5469POPC   GL169349  37.698  42.324   5.902
 5469POPC   GL269350  37.575  42.657   5.897
 5469POPC   C1A69351  37.583  42.343   6.359
 5469POPC   D2A69352  37.387  42.610   6.677
 5469POPC   C3A69353  37.271  42.503   7.121
 5469POPC   C4A69354  37.492  42.297   7.474
 5469POPC   C1B69355  37.838  42.767   6.221
 5469POPC   C2B69356  38.006  42.531   6.596
 5469POPC   C3B69357  37.879  42.461   7.018
 5469POPC   C4B69358  37.706  42.722   7.308
 5470POPC   NC369359   0.397  31.393   5.346
 5470POPC   PO469360   0.776  31.889   5.523
 5470POPC   GL169361   0.532  31.633   5.803
 5470POPC   GL269362   0.588  31.265   5.812
 5470POPC   C1A69363   0.400  31.617   6.220
 5470POPC   D2A69364   0.481  31.759   6.593
 5470POPC   C3A69365   0.136  31.838   6.856
 5470POPC   C4A69366   0.386  31.782   7.224
 5470POPC   C1B69367   0.781  31.271   6.227
 5470POPC   C2B69368   0.728  31.345   6.651
 5470POPC   C3B69369   0.585  31.251   7.047
 5470POPC   C4B69370   0.807  30.912   7.212
 5471POPC   NC369371  19.312  36.223   5.362
 5471POPC   PO469372  18.739  35.856   5.362
 5471POPC   GL169373  19.028  35.933   5.705
 5471POPC   GL269374  18.842  35.665   5.860
 5471POPC   C1A69375  19.178  36.135   6.081
 5471POPC   D2A69376  19.075  36.347   6.515
 5471POPC   C3A69377  18.977  36.083   6.845
 5471POPC   C4A69378  19.046  36.243   7.265
 5471POPC   C1B69379  18.537  35.720   6.186
 5471POPC   C2B69380  18.414  35.813   6.591
 5471POPC   C3B69381  18.626  35.712   6.944
 5471POPC   C4B69382  18.920  35.744   7.269
 5472POPC   NC369383  24.407  43.219   5.381
 5472POPC   PO469384  24.681  42.628   5.625
 5472POPC   GL169385  24.526  43.000   5.821
 5472POPC   GL269386  24.271  42.795   5.930
 5472POPC   C1A69387  24.345  43.239   6.182
 5472POPC   D2A69388  24.209  43.013   6.586
 5472POPC   C3A69389  24.409  43.215   6.939
 5472POPC   C4A69390  24.613  43.177   7.338
 5472POPC   C1B69391  24.553  42.770   6.301
 5472POPC   C2B69392  24.720  42.860   6.727
 5472POPC   C3B69393  24.814  42.722   7.184
 5472POPC   C4B69394  24.984  42.633   7.596
 5473POPC   NC369395  22.792  16.579   5.446
 5473POPC   PO469396  23.317  16.968   5.729
 5473POPC   GL169397  23.055  16.647   5.878
 5473POPC   GL269398  22.770  16.887   5.851
 5473POPC   C1A69399  22.990  16.430   6.268
 5473POPC   D2A69400  23.142  16.639   6.634
 5473POPC   C3A69401  22.881  16.702   6.977
 5473POPC   C4A69402  22.733  16.400   7.295
 5473POPC   C1B69403  22.907  16.961   6.276
 5473POPC   C2B69404  22.717  17.100   6.642
 5473POPC   C3B69405  22.510  17.060   7.022
 5473POPC   C4B69406  22.686  16.882   7.429
 5474POPC   NC369407  41.746  35.832   5.333
 5474POPC   PO469408  41.367  36.407   5.481
 5474POPC   GL169409  41.492  36.079   5.804
 5474POPC   GL269410  41.837  35.904   5.828
 5474POPC   C1A69411  41.551  36.096   6.263
 5474POPC   D2A69412  41.425  35.911   6.652
 5474POPC   C3A69413  41.242  36.066   7.024
 5474POPC   C4A69414  41.293  35.911   7.449
 5474POPC   C1B69415  41.883  35.695   6.235
 5474POPC   C2B69416  41.940  35.923   6.635
 5474POPC   C3B69417  41.801  36.001   7.044
 5474POPC   C4B69418  41.818  35.896   7.477
 5475POPC   NC369419  32.123  30.911   5.427
 5475POPC   PO469420  32.741  30.694   5.355
 5475POPC   GL169421  32.483  30.748   5.733
 5475POPC   GL269422  32.474  30.467   5.916
 5475POPC   C1A69423  32.306  30.970   6.107
 5475POPC   D2A69424  32.436  30.840   6.518
 5475POPC   C3A69425  32.215  30.759   6.896
 5475POPC   C4A69426  32.472  30.719   7.226
 5475POPC   C1B69427  32.183  30.505   6.192
 5475POPC   C2B69428  31.919  30.731   6.465
 5475POPC   C3B69429  31.703  30.669   6.862
 5475POPC   C4B69430  31.740  30.540   7.289
 5476POPC   NC369431  31.105  44.929   5.502
 5476POPC   PO469432  30.510   0.001   5.308
 5476POPC   GL169433  30.525  44.715   5.664
 5476POPC   GL269434  30.826  44.496   5.641
 5476POPC   C1A69435  30.505  44.764   6.123
 5476POPC   D2A69436  30.783  44.712   6.483
 5476POPC   C3A69437  30.624  44.861   6.881
 5476POPC   C4A69438  30.341  44.774   7.211
 5476POPC   C1B69439  30.727  44.308   6.053
 5476POPC   C2B69440  30.723  44.212   6.505
 5476POPC   C3B69441  30.570  44.358   6.908
 5476POPC   C4B69442  30.769  44.508   7.262
 5477POPC   NC369443  19.475  17.030   5.520
 5477POPC   PO469444  20.082  16.687   5.490
 5477POPC   GL169445  19.975  16.738   5.890
 5477POPC   GL269446  20.061  16.445   6.043
 5477POPC   C1A69447  19.586  16.752   6.141
 5477POPC   D2A69448  19.470  16.570   6.533
 5477POPC   C3A69449  19.701  16.733   6.863
 5477POPC   C4A69450  19.689  16.563   7.274
 5477POPC   C1B69451  20.024  16.633   6.422
 5477POPC   C2B69452  20.252  16.842   6.710
 5477POPC   C3B69453  20.148  16.618   7.075
 5477POPC   C4B69454  20.051  16.224   7.302
 5478POPC   NC369455  12.157  25.586   5.363
 5478POPC   PO469456  12.422  25.017   5.646
 5478POPC   GL169457  12.124  25.228   5.859
 5478POPC   GL269458  12.274  25.539   5.863
 5478POPC   C1A69459  12.136  25.296   6.306
 5478POPC   D2A69460  12.391  25.328   6.663
 5478POPC   C3A69461  12.195  25.062   6.987
 5478POPC   C4A69462  11.727  24.969   6.994
 5478POPC   C1B69463  11.855  25.638   6.056
 5478POPC   C2B69464  11.763  25.780   6.492
 5478POPC   C3B69465  11.665  25.685   6.919
 5478POPC   C4B69466  11.925  25.448   7.184
 5479POPC   NC369467  35.580  27.504   5.603
 5479POPC   PO469468  35.362  28.115   5.329
 5479POPC   GL169469  35.361  27.955   5.748
 5479POPC   GL269470  35.084  27.710   5.768
 5479POPC   C1A69471  35.380  27.827   6.191
 5479POPC   D2A69472  35.323  27.844   6.634
 5479POPC   C3A69473  35.612  27.707   6.946
 5479POPC   C4A69474  35.399  27.401   7.150
 5479POPC   C1B69475  35.103  27.374   6.081
 5479POPC   C2B69476  35.269  27.298   6.506
 5479POPC   C3B69477  35.087  27.084   6.868
 5479POPC   C4B69478  34.936  27.120   7.280
 5480POPC   NC369479   7.727   2.411   5.492
 5480POPC   PO469480   7.310   2.950   5.338
 5480POPC   GL169481   7.188   2.666   5.695
 5480POPC   GL269482   7.516   2.765   5.808
 5480POPC   C1A69483   7.155   2.760   6.178
 5480POPC   D2A69484   7.297   2.948   6.616
 5480POPC   C3A69485   7.153   2.807   7.030
 5480POPC   C4A69486   7.281   2.670   7.468
 5480POPC   C1B69487   7.509   2.415   6.119
 5480POPC   C2B69488   7.410   2.441   6.549
 5480POPC   C3B69489   7.631   2.658   6.874
 5480POPC   C4B69490   7.723   2.535   7.253
 5481POPC   NC369491  40.567  22.226   5.400
 5481POPC   PO469492  41.216  22.080   5.298
 5481POPC   GL169493  40.927  22.007   5.751
 5481POPC   GL269494  40.635  22.228   5.904
 5481POPC   C1A69495  40.828  21.872   6.229
 5481POPC   D2A69496  40.626  21.923   6.660
 5481POPC   C3A69497  40.900  21.995   7.034
 5481POPC   C4A69498  40.878  21.854   7.462
 5481POPC   C1B69499  40.570  22.587   6.222
 5481POPC   C2B69500  40.698  22.616   6.631
 5481POPC   C3B69501  40.542  22.358   6.939
 5481POPC   C4B69502  40.608  22.272   7.369
 5482POPC   NC369503  38.045  21.871   5.664
 5482POPC   PO469504  37.435  22.058   5.470
 5482POPC   GL169505  37.681  22.163   5.859
 5482POPC   GL269506  37.506  22.438   5.897
 5482POPC   C1A69507  37.921  22.100   6.281
 5482POPC   D2A69508  37.832  22.224   6.712
 5482POPC   C3A69509  37.836  21.918   7.072
 5482POPC   C4A69510  37.806  21.938   7.537
 5482POPC   C1B69511  37.416  22.247   6.305
 5482POPC   C2B69512  37.159  22.206   6.656
 5482POPC   C3B69513  37.233  22.383   7.021
 5482POPC   C4B69514  37.458  22.239   7.336
 5483POPC   NC369515  26.830  24.718   5.282
 5483POPC   PO469516  27.459  24.449   5.229
 5483POPC   GL169517  27.119  24.430   5.581
 5483POPC   GL269518  26.816  24.217   5.653
 5483POPC   C1A69519  26.925  24.647   5.958
 5483POPC   D2A69520  26.964  24.621   6.428
 5483POPC   C3A69521  26.769  24.651   6.863
 5483POPC   C4A69522  26.663  24.693   7.313
 5483POPC   C1B69523  26.851  24.169   6.123
 5483POPC   C2B69524  26.627  24.257   6.538
 5483POPC   C3B69525  26.689  24.135   6.973
 5483POPC   C4B69526  26.715  24.180   7.411
 5484POPC   NC369527  29.762   3.790   5.190
 5484POPC   PO469528  30.233   3.373   5.419
 5484POPC   GL169529  30.050   3.304   5.822
 5484POPC   GL269530  29.780   3.528   5.783
 5484POPC   C1A69531  30.074   3.533   6.223
 5484POPC   D2A69532  29.910   3.713   6.572
 5484POPC   C3A69533  30.168   3.614   6.901
 5484POPC   C4A69534  30.000   3.595   7.251
 5484POPC   C1B69535  29.552   3.593   6.171
 5484POPC   C2B69536  29.464   3.409   6.579
 5484POPC   C3B69537  29.607   3.426   6.991
 5484POPC   C4B69538  29.670   3.096   7.297
 5485POPC   NC369539  25.398  12.080   5.382
 5485POPC   PO469540  24.804  12.349   5.520
 5485POPC   GL169541  25.099  12.178   5.795
 5485POPC   GL269542  25.079  11.847   5.822
 5485POPC   C1A69543  25.400  12.161   6.140
 5485POPC   D2A69544  25.394  11.971   6.542
 5485POPC   C3A69545  25.465  12.205   6.902
 5485POPC   C4A69546  25.331  12.199   7.305
 5485POPC   C1B69547  25.130  11.602   6.176
 5485POPC   C2B69548  25.029  11.625   6.594
 5485POPC   C3B69549  25.220  11.726   6.984
 5485POPC   C4B69550  25.040  11.765   7.390
 5486POPC   NC369551   4.505  35.567   5.302
 5486POPC   PO469552   4.249  36.195   5.187
 5486POPC   GL169553   4.082  36.235   5.693
 5486POPC   GL269554   4.388  36.163   5.867
 5486POPC   C1A69555   3.998  36.182   6.178
 5486POPC   D2A69556   4.161  36.260   6.623
 5486POPC   C3A69557   3.976  36.169   7.050
 5486POPC   C4A69558   3.960  36.279   7.529
 5486POPC   C1B69559   4.534  36.136   6.283
 5486POPC   C2B69560   4.534  35.859   6.646
 5486POPC   C3B69561   4.522  35.892   7.085
 5486POPC   C4B69562   4.417  36.278   7.266
 5487POPC   NC369563   2.371  39.828   5.667
 5487POPC   PO469564   1.881  40.210   5.502
 5487POPC   GL169565   2.007  40.128   5.903
 5487POPC   GL269566   2.042  40.445   6.073
 5487POPC   C1A69567   2.111  40.003   6.349
 5487POPC   D2A69568   2.053  40.039   6.814
 5487POPC   C3A69569   2.316  39.785   7.166
 5487POPC   C4A69570   2.142  39.619   7.584
 5487POPC   C1B69571   1.644  40.214   6.228
 5487POPC   C2B69572   1.469  40.144   6.632
 5487POPC   C3B69573   1.594  40.189   7.042
 5487POPC   C4B69574   1.865  39.968   7.278
 5488POPC   NC369575  10.227  10.028   5.466
 5488POPC   PO469576  10.463   9.370   5.687
 5488POPC   GL169577  10.598   9.798   5.811
 5488POPC   GL269578  10.268   9.881   5.949
 5488POPC   C1A69579  10.672   9.948   6.253
 5488POPC   D2A69580  10.510   9.698   6.607
 5488POPC   C3A69581  10.637   9.690   7.042
 5488POPC   C4A69582  10.464   9.718   7.475
 5488POPC   C1B69583  10.160  10.244   6.174
 5488POPC   C2B69584  10.166  10.383   6.574
 5488POPC   C3B69585  10.283  10.106   6.870
 5488POPC   C4B69586  10.205  10.108   7.265
 5489POPC   NC369587  27.762  44.237   5.528
 5489POPC   PO469588  27.999  43.686   5.184
 5489POPC   GL169589  27.695  43.737   5.577
 5489POPC   GL269590  27.689  43.457   5.774
 5489POPC   C1A69591  27.534  43.856   6.043
 5489POPC   D2A69592  27.578  43.736   6.502
 5489POPC   C3A69593  27.632  44.035   6.870
 5489POPC   C4A69594  27.768  44.125   7.323
 5489POPC   C1B69595  27.814  43.331   6.226
 5489POPC   C2B69596  27.665  43.258   6.657
 5489POPC   C3B69597  27.812  43.496   6.999
 5489POPC   C4B69598  27.551  43.668   7.274
 5490POPC   NC369599   7.220  23.537   5.473
 5490POPC   PO469600   6.665  23.915   5.157
 5490POPC   GL169601   6.795  23.822   5.619
 5490POPC   GL269602   6.872  24.101   5.849
 5490POPC   C1A69603   6.828  23.630   6.057
 5490POPC   D2A69604   6.752  23.676   6.526
 5490POPC   C3A69605   6.766  23.378   6.848
 5490POPC   C4A69606   6.597  23.372   7.251
 5490POPC   C1B69607   6.676  24.109   6.269
 5490POPC   C2B69608   6.309  24.070   6.581
 5490POPC   C3B69609   6.308  23.838   6.986
 5490POPC   C4B69610   6.554  23.898   7.318
 5491POPC   NC369611  33.714   3.504   5.267
 5491POPC   PO469612  34.135   3.939   5.499
 5491POPC   GL169613  33.747   3.753   5.729
 5491POPC   GL269614  33.600   3.385   5.769
 5491POPC   C1A69615  33.655   3.779   6.153
 5491POPC   D2A69616  33.892   3.722   6.513
 5491POPC   C3A69617  33.712   3.714   6.903
 5491POPC   C4A69618  33.814   3.720   7.312
 5491POPC   C1B69619  33.689   3.255   6.222
 5491POPC   C2B69620  33.818   3.230   6.685
 5491POPC   C3B69621  33.542   3.245   7.067
 5491POPC   C4B69622  33.428   3.101   7.486
 5492POPC   NC369623   8.641  36.185   5.558
 5492POPC   PO469624   8.966  35.629   5.227
 5492POPC   GL169625   8.940  35.809   5.697
 5492POPC   GL269626   9.241  35.969   5.744
 5492POPC   C1A69627   8.879  36.117   6.145
 5492POPC   D2A69628   8.985  36.319   6.567
 5492POPC   C3A69629   8.771  36.232   6.972
 5492POPC   C4A69630   8.877  36.290   7.403
 5492POPC   C1B69631   9.159  35.704   6.161
 5492POPC   C2B69632   8.929  35.735   6.604
 5492POPC   C3B69633   8.987  35.777   7.095
 5492POPC   C4B69634   9.026  35.818   7.559
 5493POPC   NC369635  10.241  40.391   5.461
 5493POPC   PO469636  10.892  40.120   5.475
 5493POPC   GL169637  10.651  40.228   5.836
 5493POPC   GL269638  10.331  40.074   5.889
 5493POPC   C1A69639  10.660  40.115   6.280
 5493POPC   D2A69640  10.696  40.324   6.653
 5493POPC   C3A69641  10.543  40.069   6.954
 5493POPC   C4A69642  10.669  40.002   7.357
 5493POPC   C1B69643  10.172  40.302   6.243
 5493POPC   C2B69644  10.184  40.346   6.665
 5493POPC   C3B69645   9.941  40.241   6.981
 5493POPC   C4B69646  10.128  40.023   7.287
 5494POPC   NC369647  31.879   8.376   5.259
 5494POPC   PO469648  31.214   8.091   5.198
 5494POPC   GL169649  31.521   8.167   5.594
 5494POPC   GL269650  31.697   8.485   5.732
 5494POPC   C1A69651  31.465   8.206   6.086
 5494POPC   D2A69652  31.307   8.247   6.523
 5494POPC   C3A69653  31.417   7.945   6.827
 5494POPC   C4A69654  31.397   7.959   7.276
 5494POPC   C1B69655  31.755   8.638   6.154
 5494POPC   C2B69656  31.796   8.365   6.533
 5494POPC   C3B69657  31.642   8.387   6.986
 5494POPC   C4B69658  31.747   8.489   7.421
 5495POPC   NC369659   2.893  18.606   4.991
 5495POPC   PO469660   2.598  18.238   5.493
 5495POPC   GL169661   2.894  18.247   5.849
 5495POPC   GL269662   3.151  18.511   5.862
 5495POPC   C1A69663   3.056  18.166   6.266
 5495POPC   D2A69664   3.126  18.358   6.679
 5495POPC   C3A69665   2.791  18.206   6.943
 5495POPC   C4A69666   2.540  18.355   7.301
 5495POPC   C1B69667   2.885  18.680   6.205
 5495POPC   C2B69668   2.711  18.695   6.644
 5495POPC   C3B69669   2.897  18.712   7.055
 5495POPC   C4B69670   3.095  18.409   7.307
 5496POPC   NC369671  33.169  24.556   5.391
 5496POPC   PO469672  33.040  23.880   5.432
 5496POPC   GL169673  33.053  24.236   5.747
 5496POPC   GL269674  32.816  24.493   5.912
 5496POPC   C1A69675  33.248  24.277   6.139
 5496POPC   D2A69676  33.465  24.246   6.501
 5496POPC   C3A69677  33.182  24.271   6.850
 5496POPC   C4A69678  33.374  24.268   7.255
 5496POPC   C1B69679  32.951  24.622   6.355
 5496POPC   C2B69680  33.330  24.740   6.635
 5496POPC   C3B69681  33.246  24.722   7.075
 5496POPC   C4B69682  32.862  24.548   7.254
 5497POPC   NC369683   7.678   9.969   5.440
 5497POPC   PO469684   7.290   9.345   5.333
 5497POPC   GL169685   7.465   9.569   5.690
 5497POPC   GL269686   7.222   9.852   5.756
 5497POPC   C1A69687   7.661   9.708   6.077
 5497POPC   D2A69688   7.581   9.575   6.513
 5497POPC   C3A69689   7.578   9.753   6.930
 5497POPC   C4A69690   7.669   9.943   7.317
 5497POPC   C1B69691   7.192   9.778   6.224
 5497POPC   C2B69692   7.109   9.751   6.693
 5497POPC   C3B69693   7.091   9.960   7.120
 5497POPC   C4B69694   6.829  10.172   7.460
 5498POPC   NC369695  40.361  12.985   5.460
 5498POPC   PO469696  39.856  12.457   5.461
 5498POPC   GL169697  40.047  12.702   5.792
 5498POPC   GL269698  40.252  12.423   5.872
 5498POPC   C1A69699  40.100  12.973   6.186
 5498POPC   D2A69700  40.098  13.271   6.562
 5498POPC   C3A69701  40.047  13.117   7.007
 5498POPC   C4A69702  40.143  13.109   7.480
 5498POPC   C1B69703  40.284  12.503   6.325
 5498POPC   C2B69704  40.151  12.713   6.717
 5498POPC   C3B69705  40.252  12.699   7.182
 5498POPC   C4B69706  40.001  12.608   7.590
 5499POPC   NC369707  16.755  40.133   5.435
 5499POPC   PO469708  16.488  39.560   5.388
 5499POPC   GL169709  16.622  39.775   5.772
 5499POPC   GL269710  16.521  40.104   5.930
 5499POPC   C1A69711  16.803  39.701   6.183
 5499POPC   D2A69712  17.014  39.852   6.572
 5499POPC   C3A69713  16.687  39.833   6.876
 5499POPC   C4A69714  16.452  40.092   7.185
 5499POPC   C1B69715  16.763  40.206   6.298
 5499POPC   C2B69716  16.808  40.310   6.751
 5499POPC   C3B69717  17.000  40.119   7.144
 5499POPC   C4B69718  17.224  40.208   7.555
 5500POPC   NC369719  17.599  27.073   5.736
 5500POPC   PO469720  17.016  26.901   5.475
 5500POPC   GL169721  17.223  26.641   5.831
 5500POPC   GL269722  17.600  26.647   6.016
 5500POPC   C1A69723  17.161  26.445   6.231
 5500POPC   D2A69724  17.429  26.522   6.593
 5500POPC   C3A69725  17.292  26.514   6.995
 5500POPC   C4A69726  17.456  26.713   7.347
 5500POPC   C1B69727  17.964  26.951   6.216
 5500POPC   C2B69728  17.956  27.288   6.517
 5500POPC   C3B69729  17.667  27.143   6.843
 5500POPC   C4B69730  17.867  27.005   7.205
 5501POPC   NC369731  34.149  42.097   5.409
 5501POPC   PO469732  34.716  42.475   5.345
 5501POPC   GL169733  34.584  42.176   5.668
 5501POPC   GL269734  34.359  42.386   5.806
 5501POPC   C1A69735  34.439  41.958   6.092
 5501POPC   D2A69736  34.484  42.162   6.523
 5501POPC   C3A69737  34.717  42.028   6.891
 5501POPC   C4A69738  34.505  42.185   7.255
 5501POPC   C1B69739  34.719  42.389   6.114
 5501POPC   C2B69740  34.864  42.571   6.486
 5501POPC   C3B69741  34.792  42.554   6.932
 5501POPC   C4B69742  34.986  42.329   7.277
 5502POPC   NC369743  14.554   7.011   5.462
 5502POPC   PO469744  14.161   6.414   5.504
 5502POPC   GL169745  14.266   6.687   5.807
 5502POPC   GL269746  14.424   6.397   5.999
 5502POPC   C1A69747  14.412   6.865   6.188
 5502POPC   D2A69748  14.593   6.577   6.508
 5502POPC   C3A69749  14.408   6.649   6.905
 5502POPC   C4A69750  14.528   6.953   7.210
 5502POPC   C1B69751  14.106   6.450   6.340
 5502POPC   C2B69752  13.925   6.505   6.775
 5502POPC   C3B69753  14.059   6.492   7.254
 5502POPC   C4B69754  14.085   6.363   7.698
 5503POPC   NC369755  20.871   3.050   5.284
 5503POPC   PO469756  20.514   2.599   5.651
 5503POPC   GL169757  20.402   2.916   5.888
 5503POPC   GL269758  20.729   2.886   6.081
 5503POPC   C1A69759  20.302   2.849   6.310
 5503POPC   D2A69760  20.584   2.739   6.578
 5503POPC   C3A69761  20.410   2.833   6.931
 5503POPC   C4A69762  20.656   2.947   7.251
 5503POPC   C1B69763  21.003   2.572   6.300
 5503POPC   C2B69764  21.113   2.524   6.699
 5503POPC   C3B69765  20.776   2.467   6.978
 5503POPC   C4B69766  20.694   2.451   7.395
 5504POPC   NC369767  39.607   5.585   5.493
 5504POPC   PO469768  39.244   4.951   5.462
 5504POPC   GL169769  39.148   5.269   5.761
 5504POPC   GL269770  39.478   5.256   5.923
 5504POPC   C1A69771  39.046   5.192   6.198
 5504POPC   D2A69772  39.223   5.120   6.606
 5504POPC   C3A69773  38.962   5.052   6.956
 5504POPC   C4A69774  39.270   4.879   7.209
 5504POPC   C1B69775  39.619   5.349   6.363
 5504POPC   C2B69776  39.496   5.552   6.742
 5504POPC   C3B69777  39.192   5.501   7.062
 5504POPC   C4B69778  39.189   5.513   7.501
 5505POPC   NC369779  42.519  44.849   5.413
 5505POPC   PO469780  42.047  44.411   5.435
 5505POPC   GL169781  42.190  44.634   5.789
 5505POPC   GL269782  42.512  44.508   5.813
 5505POPC   C1A69783  42.107  44.787   6.212
 5505POPC   D2A69784  42.285  44.649   6.586
 5505POPC   C3A69785  42.072  44.739   6.938
 5505POPC   C4A69786  42.231  44.775   7.325
 5505POPC   C1B69787  42.577  44.920   6.075
 5505POPC   C2B69788  42.685  44.968   6.531
 5505POPC   C3B69789  42.599  44.895   6.982
 5505POPC   C4B69790  42.563   0.214   7.325
 5506POPC   NC369791  28.705  38.638   5.574
 5506POPC   PO469792  29.132  38.200   5.556
 5506POPC   GL169793  29.191  38.461   5.932
 5506POPC   GL269794  29.058  38.796   5.939
 5506POPC   C1A69795  29.079  38.526   6.379
 5506POPC   D2A69796  28.910  38.636   6.777
 5506POPC   C3A69797  29.185  38.419   7.030
 5506POPC   C4A69798  29.589  38.443   7.171
 5506POPC   C1B69799  29.441  38.861   6.213
 5506POPC   C2B69800  29.488  38.709   6.648
 5506POPC   C3B69801  29.357  38.905   7.006
 5506POPC   C4B69802  29.010  38.821   7.269
 5507POPC   NC369803  36.925  14.695   5.399
 5507POPC   PO469804  36.629  14.043   5.433
 5507POPC   GL169805  36.916  14.270   5.711
 5507POPC   GL269806  36.670  14.511   5.826
 5507POPC   C1A69807  37.085  14.483   6.117
 5507POPC   D2A69808  36.875  14.550   6.529
 5507POPC   C3A69809  37.083  14.503   6.961
 5507POPC   C4A69810  36.895  14.682   7.375
 5507POPC   C1B69811  36.639  14.156   6.137
 5507POPC   C2B69812  36.539  14.143   6.590
 5507POPC   C3B69813  36.561  14.453   6.939
 5507POPC   C4B69814  36.596  14.274   7.347
 5508POPC   NC369815  12.895  37.946   5.512
 5508POPC   PO469816  12.852  38.561   5.235
 5508POPC   GL169817  12.898  38.456   5.710
 5508POPC   GL269818  12.739  38.681   5.921
 5508POPC   C1A69819  12.884  38.199   6.149
 5508POPC   D2A69820  12.833  38.346   6.593
 5508POPC   C3A69821  12.684  38.128   6.956
 5508POPC   C4A69822  12.884  37.949   7.281
 5508POPC   C1B69823  13.123  38.633   6.167
 5508POPC   C2B69824  13.307  38.494   6.522
 5508POPC   C3B69825  13.186  38.622   6.903
 5508POPC   C4B69826  12.867  38.545   7.162
 5509POPC   NC369827  25.906  15.286   5.397
 5509POPC   PO469828  26.353  14.838   5.498
 5509POPC   GL169829  26.048  15.058   5.822
 5509POPC   GL269830  25.749  15.339   5.852
 5509POPC   C1A69831  25.939  14.870   6.203
 5509POPC   D2A69832  25.848  15.034   6.633
 5509POPC   C3A69833  26.099  15.051   7.012
 5509POPC   C4A69834  25.994  14.782   7.364
 5509POPC   C1B69835  25.656  15.273   6.234
 5509POPC   C2B69836  25.545  15.475   6.599
 5509POPC   C3B69837  25.691  15.387   6.993
 5509POPC   C4B69838  25.754  15.642   7.309
 5510POPC   NC369839  15.305  36.317   5.211
 5510POPC   PO469840  14.900  35.912   5.650
 5510POPC   GL169841  15.032  35.895   6.027
 5510POPC   GL269842  15.396  35.911   6.030
 5510POPC   C1A69843  15.066  36.107   6.394
 5510POPC   D2A69844  15.311  36.185   6.733
 5510POPC   C3A69845  15.032  36.300   7.017
 5510POPC   C4A69846  14.951  35.927   7.216
 5510POPC   C1B69847  15.538  36.263   6.277
 5510POPC   C2B69848  15.573  36.596   6.591
 5510POPC   C3B69849  15.568  36.514   7.022
 5510POPC   C4B69850  15.401  36.278   7.372
 5511POPC   NC369851   0.253  16.910   5.425
 5511POPC   PO469852   0.294  16.299   5.651
 5511POPC   GL169853   0.397  16.718   5.854
 5511POPC   GL269854   0.749  16.835   5.813
 5511POPC   C1A69855   0.458  16.935   6.233
 5511POPC   D2A69856   0.434  16.694   6.566
 5511POPC   C3A69857   0.351  16.835   6.956
 5511POPC   C4A69858   0.100  16.560   7.177
 5511POPC   C1B69859   0.706  16.457   6.144
 5511POPC   C2B69860   0.674  16.247   6.555
 5511POPC   C3B69861   0.718  16.473   6.939
 5511POPC   C4B69862   0.616  16.604   7.344
 5512POPC   NC369863  37.843  39.255   5.368
 5512POPC   PO469864  37.209  39.360   5.186
 5512POPC   GL169865  37.477  39.184   5.719
 5512POPC   GL269866  37.899  39.066   5.819
 5512POPC   C1A69867  37.633  39.303   6.165
 5512POPC   D2A69868  37.845  39.101   6.562
 5512POPC   C3A69869  37.603  39.092   6.918
 5512POPC   C4A69870  37.460  39.495   7.061
 5512POPC   C1B69871  38.179  39.235   6.168
 5512POPC   C2B69872  38.305  39.407   6.585
 5512POPC   C3B69873  38.022  39.404   6.954
 5512POPC   C4B69874  37.843  39.241   7.350
 5513POPC   NC369875  26.810  14.895   5.574
 5513POPC   PO469876  26.393  15.441   5.414
 5513POPC   GL169877  26.558  15.298   5.814
 5513POPC   GL269878  26.516  14.949   5.982
 5513POPC   C1A69879  26.809  15.330   6.201
 5513POPC   D2A69880  27.132  15.268   6.497
 5513POPC   C3A69881  27.003  15.133   6.868
 5513POPC   C4A69882  27.052  15.192   7.278
 5513POPC   C1B69883  26.308  15.230   6.269
 5513POPC   C2B69884  26.505  15.241   6.671
 5513POPC   C3B69885  26.581  15.278   7.100
 5513POPC   C4B69886  26.442  15.035   7.446
 5514POPC   NC369887  21.492  11.873   5.375
 5514POPC   PO469888  21.788  12.544   5.428
 5514POPC   GL169889  21.549  12.327   5.774
 5514POPC   GL269890  21.637  11.960   5.835
 5514POPC   C1A69891  21.338  12.366   6.197
 5514POPC   D2A69892  21.098  12.103   6.488
 5514POPC   C3A69893  21.152  12.213   6.912
 5514POPC   C4A69894  21.092  11.978   7.280
 5514POPC   C1B69895  21.443  11.861   6.195
 5514POPC   C2B69896  21.586  11.902   6.601
 5514POPC   C3B69897  21.516  11.832   7.023
 5514POPC   C4B69898  21.586  11.951   7.435
 5515POPC   NC369899  12.558  23.927   5.444
 5515POPC   PO469900  13.281  23.747   5.536
 5515POPC   GL169901  13.122  23.973   5.908
 5515POPC   GL269902  12.729  23.952   5.932
 5515POPC   C1A69903  13.045  23.897   6.373
 5515POPC   D2A69904  13.153  23.911   6.842
 5515POPC   C3A69905  12.999  23.622   7.119
 5515POPC   C4A69906  12.985  23.816   7.507
 5515POPC   C1B69907  12.658  23.569   6.204
 5515POPC   C2B69908  12.717  23.471   6.659
 5515POPC   C3B69909  12.633  23.253   7.055
 5515POPC   C4B69910  12.646  23.408   7.479
 5516POPC   NC369911  17.263  34.711   5.496
 5516POPC   PO469912  17.874  34.390   5.417
 5516POPC   GL169913  17.634  34.465   5.792
 5516POPC   GL269914  17.340  34.278   5.794
 5516POPC   C1A69915  17.628  34.577   6.239
 5516POPC   D2A69916  17.898  34.427   6.598
 5516POPC   C3A69917  17.685  34.381   7.025
 5516POPC   C4A69918  17.583  34.675   7.372
 5516POPC   C1B69919  17.077  34.353   6.144
 5516POPC   C2B69920  17.010  34.342   6.591
 5516POPC   C3B69921  17.111  34.214   7.037
 5516POPC   C4B69922  17.187  34.355   7.468
 5517POPC   NC369923  34.588  39.649   5.495
 5517POPC   PO469924  34.288  39.027   5.593
 5517POPC   GL169925  34.404  39.372   5.884
 5517POPC   GL269926  34.782  39.413   5.889
 5517POPC   C1A69927  34.413  39.451   6.319
 5517POPC   D2A69928  34.162  39.245   6.651
 5517POPC   C3A69929  34.456  39.043   6.910
 5517POPC   C4A69930  34.714  39.378   7.067
 5517POPC   C1B69931  34.732  39.064   6.159
 5517POPC   C2B69932  34.830  39.164   6.584
 5517POPC   C3B69933  35.011  38.984   6.944
 5517POPC   C4B69934  34.931  38.837   7.322
 5518POPC   NC369935  18.843  33.119   5.522
 5518POPC   PO469936  19.242  32.660   5.798
 5518POPC   GL169937  19.032  32.990   5.982
 5518POPC   GL269938  18.713  32.840   5.978
 5518POPC   C1A69939  19.053  32.979   6.415
 5518POPC   D2A69940  19.376  32.806   6.663
 5518POPC   C3A69941  19.272  32.959   7.065
 5518POPC   C4A69942  19.245  33.382   7.237
 5518POPC   C1B69943  18.628  33.212   6.241
 5518POPC   C2B69944  18.745  33.365   6.668
 5518POPC   C3B69945  18.735  33.327   7.116
 5518POPC   C4B69946  18.845  33.026   7.429
 5519POPC   NC369947   4.829  14.843   5.323
 5519POPC   PO469948   5.106  15.475   5.181
 5519POPC   GL169949   5.124  15.176   5.618
 5519POPC   GL269950   5.020  14.840   5.800
 5519POPC   C1A69951   5.152  15.217   6.117
 5519POPC   D2A69952   5.270  15.145   6.569
 5519POPC   C3A69953   4.954  15.398   6.862
 5519POPC   C4A69954   4.986  15.326   7.315
 5519POPC   C1B69955   4.754  14.854   6.182
 5519POPC   C2B69956   4.783  14.999   6.584
 5519POPC   C3B69957   4.989  14.908   6.975
 5519POPC   C4B69958   4.693  14.855   7.302
 5520POPC   NC369959  36.270  15.764   5.516
 5520POPC   PO469960  35.782  16.110   5.309
 5520POPC   GL169961  35.955  16.092   5.769
 5520POPC   GL269962  36.256  16.294   5.823
 5520POPC   C1A69963  36.137  15.829   6.151
 5520POPC   D2A69964  36.032  15.754   6.611
 5520POPC   C3A69965  36.029  15.986   7.038
 5520POPC   C4A69966  36.158  15.889   7.502
 5520POPC   C1B69967  36.199  16.296   6.303
 5520POPC   C2B69968  36.524  16.212   6.623
 5520POPC   C3B69969  36.611  16.406   7.028
 5520POPC   C4B69970  36.283  16.396   7.325
 5521POPC   NC369971  37.091   0.079   5.374
 5521POPC   PO469972  36.927   0.711   5.338
 5521POPC   GL169973  36.769   0.474   5.715
 5521POPC   GL269974  36.506   0.201   5.634
 5521POPC   C1A69975  36.956   0.366   6.142
 5521POPC   D2A69976  37.127   0.532   6.534
 5521POPC   C3A69977  36.923   0.411   6.927
 5521POPC   C4A69978  37.111   0.196   7.271
 5521POPC   C1B69979  36.534   0.079   6.093
 5521POPC   C2B69980  36.707   0.102   6.536
 5521POPC   C3B69981  36.500   0.120   6.970
 5521POPC   C4B69982  36.628   0.097   7.399
 5522POPC   NC369983   3.125  15.365   5.595
 5522POPC   PO469984   2.553  15.080   5.483
 5522POPC   GL169985   2.684  15.108   5.906
 5522POPC   GL269986   3.024  15.039   5.997
 5522POPC   C1A69987   2.680  15.238   6.349
 5522POPC   D2A69988   2.787  15.553   6.645
 5522POPC   C3A69989   2.830  15.465   7.069
 5522POPC   C4A69990   2.687  15.121   7.278
 5522POPC   C1B69991   3.069  14.912   6.418
 5522POPC   C2B69992   2.796  14.957   6.779
 5522POPC   C3B69993   2.821  14.656   7.091
 5522POPC   C4B69994   2.973  14.687   7.482
 5523POPC   NC369995  20.293  28.569   5.322
 5523POPC   PO469996  19.618  28.220   5.362
 5523POPC   GL169997  19.754  28.259   5.787
 5523POPC   GL269998  19.913  28.583   5.840
 5523POPC   C1A69999  19.667  28.348   6.228
 5523POPC   D2A70000  19.733  28.609   6.605
 5523POPC   C3A70001  19.646  28.420   6.967
 5523POPC   C4A70002  19.757  28.045   7.202
 5523POPC   C1B70003  20.103  28.637   6.270
 5523POPC   C2B70004  20.276  28.556   6.703
 5523POPC   C3B70005  20.141  28.349   7.056
 5523POPC   C4B70006  19.959  28.545   7.416
 5524POPC   NC370007  44.420  16.378   5.575
 5524POPC   PO470008  44.980  16.596   5.217
 5524POPC   GL170009  44.893  16.653   5.714
 5524POPC   GL270010  44.627  16.865   5.876
 5524POPC   C1A70011  44.996  16.726   6.190
 5524POPC   D2A70012  44.976  16.956   6.605
 5524POPC   C3A70013  44.700  16.816   6.912
 5524POPC   C4A70014  44.648  16.746   7.354
 5524POPC   C1B70015  44.508  16.850   6.336
 5524POPC   C2B70016  44.358  17.131   6.689
 5524POPC   C3B70017  44.266  17.002   7.128
 5524POPC   C4B70018  44.321  17.057   7.604
 5525POPC   NC370019  10.137   7.288   5.348
 5525POPC   PO470020   9.696   7.799   5.486
 5525POPC   GL170021   9.829   7.504   5.819
 5525POPC   GL270022  10.049   7.220   5.831
 5525POPC   C1A70023   9.714   7.288   6.219
 5525POPC   D2A70024   9.500   7.170   6.599
 5525POPC   C3A70025   9.806   7.275   6.861
 5525POPC   C4A70026   9.886   7.495   7.230
 5525POPC   C1B70027  10.074   6.903   6.124
 5525POPC   C2B70028   9.929   6.862   6.509
 5525POPC   C3B70029  10.150   6.807   6.858
 5525POPC   C4B70030  10.113   7.040   7.196
 5526POPC   NC370031  23.828  20.917   5.286
 5526POPC   PO470032  23.838  21.502   5.428
 5526POPC   GL170033  23.893  21.386   5.843
 5526POPC   GL270034  23.959  21.041   5.833
 5526POPC   C1A70035  23.885  21.570   6.253
 5526POPC   D2A70036  23.928  21.373   6.647
 5526POPC   C3A70037  23.700  21.454   7.004
 5526POPC   C4A70038  24.070  21.573   7.212
 5526POPC   C1B70039  23.773  21.048   6.273
 5526POPC   C2B70040  23.678  20.920   6.710
 5526POPC   C3B70041  23.485  20.985   7.121
 5526POPC   C4B70042  23.218  21.319   7.330
 5527POPC   NC370043  37.592  21.648   5.332
 5527POPC   PO470044  37.200  21.087   5.445
 5527POPC   GL170045  37.550  21.256   5.741
 5527POPC   GL270046  37.602  21.639   5.825
 5527POPC   C1A70047  37.815  21.297   6.140
 5527POPC   D2A70048  37.939  21.541   6.532
 5527POPC   C3A70049  37.704  21.441   6.913
 5527POPC   C4A70050  37.785  21.139   7.234
 5527POPC   C1B70051  37.563  21.760   6.211
 5527POPC   C2B70052  37.527  21.850   6.620
 5527POPC   C3B70053  37.339  21.855   7.000
 5527POPC   C4B70054  37.445  21.618   7.340
 5528POPC   NC370055  14.996  13.279   5.429
 5528POPC   PO470056  14.412  13.537   5.518
 5528POPC   GL170057  14.318  13.687   5.914
 5528POPC   GL270058  14.209  13.371   5.995
 5528POPC   C1A70059  14.398  13.655   6.373
 5528POPC   D2A70060  14.598  13.676   6.760
 5528POPC   C3A70061  14.515  13.921   7.144
 5528POPC   C4A70062  14.771  13.879   7.527
 5528POPC   C1B70063  14.155  13.193   6.398
 5528POPC   C2B70064  14.166  13.408   6.789
 5528POPC   C3B70065  14.425  13.425   7.170
 5528POPC   C4B70066  14.512  13.426   7.618
 5529POPC   NC370067  19.608  18.594   5.584
 5529POPC   PO470068  20.171  18.253   5.496
 5529POPC   GL170069  19.935  18.038   5.875
 5529POPC   GL270070  19.561  17.945   5.860
 5529POPC   C1A70071  19.773  18.148   6.300
 5529POPC   D2A70072  19.608  18.260   6.720
 5529POPC   C3A70073  19.896  18.525   7.026
 5529POPC   C4A70074  20.353  18.636   7.102
 5529POPC   C1B70075  19.326  17.904   6.275
 5529POPC   C2B70076  19.174  17.926   6.721
 5529POPC   C3B70077  19.445  17.949   7.095
 5529POPC   C4B70078  19.898  18.023   7.101
 5530POPC   NC370079   1.839  17.274   5.388
 5530POPC   PO470080   2.011  17.941   5.392
 5530POPC   GL170081   1.999  17.607   5.735
 5530POPC   GL270082   1.638  17.472   5.805
 5530POPC   C1A70083   1.994  17.434   6.158
 5530POPC   D2A70084   1.887  17.599   6.544
 5530POPC   C3A70085   2.186  17.521   6.841
 5530POPC   C4A70086   2.136  17.560   7.275
 5530POPC   C1B70087   1.456  17.522   6.217
 5530POPC   C2B70088   1.467  17.289   6.615
 5530POPC   C3B70089   1.714  17.354   6.988
 5530POPC   C4B70090   1.629  17.682   7.290
 5531POPC   NC370091  26.532   1.462   5.350
 5531POPC   PO470092  26.975   0.938   5.416
 5531POPC   GL170093  26.746   1.114   5.751
 5531POPC   GL270094  26.860   1.461   5.756
 5531POPC   C1A70095  26.788   1.185   6.209
 5531POPC   D2A70096  26.906   1.063   6.631
 5531POPC   C3A70097  26.558   1.002   6.913
 5531POPC   C4A70098  26.497   0.936   7.367
 5531POPC   C1B70099  27.140   1.543   6.072
 5531POPC   C2B70100  27.078   1.539   6.512
 5531POPC   C3B70101  26.788   1.498   6.852
 5531POPC   C4B70102  26.795   1.629   7.263
 5532POPC   NC370103  34.905   2.156   5.520
 5532POPC   PO470104  34.446   1.770   5.295
 5532POPC   GL170105  34.458   1.943   5.729
 5532POPC   GL270106  34.555   1.650   5.840
 5532POPC   C1A70107  34.555   2.045   6.206
 5532POPC   D2A70108  34.374   2.134   6.635
 5532POPC   C3A70109  34.562   2.393   6.971
 5532POPC   C4A70110  34.955   2.389   7.183
 5532POPC   C1B70111  34.753   1.522   6.211
 5532POPC   C2B70112  34.853   1.715   6.581
 5532POPC   C3B70113  34.682   1.868   6.938
 5532POPC   C4B70114  34.634   2.001   7.335
 5533POPC   NC370115  34.690   0.473   5.004
 5533POPC   PO470116  34.217   0.161   5.348
 5533POPC   GL170117  34.475   0.370   5.707
 5533POPC   GL270118  34.385   0.134   5.927
 5533POPC   C1A70119  34.735   0.457   6.124
 5533POPC   D2A70120  34.832   0.436   6.556
 5533POPC   C3A70121  34.763   0.615   6.945
 5533POPC   C4A70122  34.459   0.409   7.205
 5533POPC   C1B70123  34.427   0.138   6.358
 5533POPC   C2B70124  34.417   0.143   6.745
 5533POPC   C3B70125  34.101  44.903   6.904
 5533POPC   C4B70126  34.135   0.011   7.319
 5534POPC   NC370127  34.397  38.683   5.321
 5534POPC   PO470128  34.830  38.199   5.449
 5534POPC   GL170129  34.637  38.376   5.769
 5534POPC   GL270130  34.617  38.091   5.958
 5534POPC   C1A70131  34.810  38.530   6.170
 5534POPC   D2A70132  34.595  38.710   6.527
 5534POPC   C3A70133  34.688  38.554   6.925
 5534POPC   C4A70134  34.716  38.386   7.324
 5534POPC   C1B70135  34.344  38.309   6.258
 5534POPC   C2B70136  34.237  38.364   6.695
 5534POPC   C3B70137  34.266  38.255   7.136
 5534POPC   C4B70138  34.284  38.296   7.591
 5535POPC   NC370139  44.541  12.868   5.269
 5535POPC   PO470140  44.105  12.411   5.569
 5535POPC   GL170141  44.507  12.643   5.704
 5535POPC   GL270142  44.470  13.018   5.756
 5535POPC   C1A70143  44.771  12.663   6.079
 5535POPC   D2A70144   0.037  12.883   6.402
 5535POPC   C3A70145  44.901  12.846   6.864
 5535POPC   C4A70146  44.600  12.645   7.192
 5535POPC   C1B70147  44.661  13.221   6.123
 5535POPC   C2B70148  44.672  13.216   6.574
 5535POPC   C3B70149  44.573  13.232   7.014
 5535POPC   C4B70150  44.760  13.083   7.381
 5536POPC   NC370151   9.942   1.742   5.362
 5536POPC   PO470152   9.537   2.315   5.297
 5536POPC   GL170153   9.527   1.995   5.665
 5536POPC   GL270154   9.853   1.916   5.808
 5536POPC   C1A70155   9.518   1.870   6.153
 5536POPC   D2A70156   9.786   1.854   6.548
 5536POPC   C3A70157   9.584   1.836   6.937
 5536POPC   C4A70158   9.393   2.112   7.223
 5536POPC   C1B70159  10.043   1.688   6.139
 5536POPC   C2B70160  10.254   1.663   6.571
 5536POPC   C3B70161  10.148   1.932   6.921
 5536POPC   C4B70162   9.933   1.975   7.305
 5537POPC   NC370163  22.913   4.267   5.320
 5537POPC   PO470164  22.893   4.909   5.425
 5537POPC   GL170165  22.799   4.615   5.739
 5537POPC   GL270166  23.123   4.529   5.714
 5537POPC   C1A70167  22.833   4.350   6.111
 5537POPC   D2A70168  22.757   4.200   6.528
 5537POPC   C3A70169  23.032   4.190   6.887
 5537POPC   C4A70170  22.952   4.106   7.320
 5537POPC   C1B70171  23.192   4.771   6.091
 5537POPC   C2B70172  23.113   4.587   6.479
 5537POPC   C3B70173  22.973   4.723   6.858
 5537POPC   C4B70174  23.151   4.607   7.231
 5538POPC   NC370175  23.937  36.351   5.376
 5538POPC   PO470176  23.362  36.042   5.449
 5538POPC   GL170177  23.561  36.240   5.811
 5538POPC   GL270178  23.932  36.183   5.889
 5538POPC   C1A70179  23.374  36.226   6.222
 5538POPC   D2A70180  23.408  36.190   6.648
 5538POPC   C3A70181  23.760  35.987   6.856
 5538POPC   C4A70182  23.684  36.167   7.224
 5538POPC   C1B70183  23.878  36.124   6.360
 5538POPC   C2B70184  23.849  36.451   6.685
 5538POPC   C3B70185  24.021  36.516   7.080
 5538POPC   C4B70186  24.204  36.190   7.294
 5539POPC   NC370187  19.700  37.772   5.316
 5539POPC   PO470188  20.069  37.131   5.208
 5539POPC   GL170189  19.968  37.451   5.597
 5539POPC   GL270190  19.612  37.450   5.752
 5539POPC   C1A70191  19.988  37.669   6.057
 5539POPC   D2A70192  20.039  37.582   6.544
 5539POPC   C3A70193  19.851  37.773   6.958
 5539POPC   C4A70194  19.717  38.120   7.270
 5539POPC   C1B70195  19.605  37.374   6.247
 5539POPC   C2B70196  19.596  37.353   6.732
 5539POPC   C3B70197  19.462  37.451   7.166
 5539POPC   C4B70198  19.420  37.370   7.641
 5540POPC   NC370199  20.052  24.077   5.533
 5540POPC   PO470200  19.503  23.606   5.526
 5540POPC   GL170201  19.684  23.854   5.834
 5540POPC   GL270202  20.039  23.737   5.939
 5540POPC   C1A70203  19.654  23.750   6.256
 5540POPC   D2A70204  19.965  23.747   6.565
 5540POPC   C3A70205  19.873  23.506   6.878
 5540POPC   C4A70206  19.612  23.568   7.148
 5540POPC   C1B70207  20.034  24.103   6.197
 5540POPC   C2B70208  20.077  24.246   6.623
 5540POPC   C3B70209  19.958  24.027   7.011
 5540POPC   C4B70210  20.101  24.146   7.409
 5541POPC   NC370211  15.613  22.206   5.421
 5541POPC   PO470212  14.921  22.093   5.400
 5541POPC   GL170213  14.955  22.163   5.828
 5541POPC   GL270214  15.314  22.095   5.822
 5541POPC   C1A70215  15.018  22.311   6.246
 5541POPC   D2A70216  15.272  22.323   6.615
 5541POPC   C3A70217  15.131  22.108   6.942
 5541POPC   C4A70218  14.886  22.297   7.225
 5541POPC   C1B70219  15.489  22.107   6.205
 5541POPC   C2B70220  15.458  21.839   6.540
 5541POPC   C3B70221  15.453  21.665   6.937
 5541POPC   C4B70222  15.333  21.812   7.325
 5542POPC   NC370223  28.868   5.301   5.424
 5542POPC   PO470224  29.297   4.809   5.347
 5542POPC   GL170225  29.219   5.051   5.712
 5542POPC   GL270226  28.904   5.014   5.835
 5542POPC   C1A70227  29.285   5.152   6.157
 5542POPC   D2A70228  29.151   5.058   6.566
 5542POPC   C3A70229  29.364   5.163   6.977
 5542POPC   C4A70230  29.413   4.957   7.390
 5542POPC   C1B70231  28.791   5.272   6.210
 5542POPC   C2B70232  28.627   5.163   6.600
 5542POPC   C3B70233  28.840   5.050   6.967
 5542POPC   C4B70234  28.796   5.432   7.157
 5543POPC   NC370235  11.854  17.559   5.324
 5543POPC   PO470236  12.057  16.925   5.454
 5543POPC   GL170237  12.009  17.308   5.755
 5543POPC   GL270238  12.219  17.621   5.654
 5543POPC   C1A70239  11.875  17.422   6.206
 5543POPC   D2A70240  11.951  17.260   6.657
 5543POPC   C3A70241  12.080  17.330   7.116
 5543POPC   C4A70242  12.003  17.657   7.394
 5543POPC   C1B70243  12.297  17.702   6.075
 5543POPC   C2B70244  12.110  17.799   6.497
 5543POPC   C3B70245  12.277  17.782   6.928
 5543POPC   C4B70246  12.527  17.708   7.298
 5544POPC   NC370247  38.135  41.154   5.578
 5544POPC   PO470248  38.773  40.902   5.457
 5544POPC   GL170249  38.521  40.866   5.825
 5544POPC   GL270250  38.272  40.600   5.800
 5544POPC   C1A70251  38.620  41.009   6.264
 5544POPC   D2A70252  38.588  41.199   6.692
 5544POPC   C3A70253  38.591  40.927   7.072
 5544POPC   C4A70254  38.533  40.684   7.443
 5544POPC   C1B70255  38.346  40.568   6.227
 5544POPC   C2B70256  38.471  40.660   6.645
 5544POPC   C3B70257  38.212  40.577   7.015
 5544POPC   C4B70258  38.270  40.250   7.325
 5545POPC   NC370259   6.142   2.838   5.187
 5545POPC   PO470260   5.841   2.331   5.477
 5545POPC   GL170261   5.856   2.596   5.859
 5545POPC   GL270262   6.002   2.921   5.723
 5545POPC   C1A70263   6.039   2.446   6.261
 5545POPC   D2A70264   6.389   2.390   6.555
 5545POPC   C3A70265   6.184   2.495   6.904
 5545POPC   C4A70266   5.870   2.514   7.182
 5545POPC   C1B70267   5.840   3.082   6.129
 5545POPC   C2B70268   5.913   2.903   6.538
 5545POPC   C3B70269   5.874   2.995   6.966
 5545POPC   C4B70270   6.061   3.235   7.287
 5546POPC   NC370271  15.370  26.202   5.408
 5546POPC   PO470272  15.031  25.598   5.551
 5546POPC   GL170273  15.132  25.980   5.846
 5546POPC   GL270274  15.467  26.110   5.889
 5546POPC   C1A70275  15.179  26.135   6.304
 5546POPC   D2A70276  15.258  26.446   6.642
 5546POPC   C3A70277  15.171  26.254   7.029
 5546POPC   C4A70278  14.903  25.896   7.127
 5546POPC   C1B70279  15.435  25.709   6.189
 5546POPC   C2B70280  15.293  25.777   6.653
 5546POPC   C3B70281  15.421  25.785   7.078
 5546POPC   C4B70282  15.608  26.163   7.272
 5547POPC   NC370283  33.632  15.885   5.425
 5547POPC   PO470284  34.156  16.266   5.040
 5547POPC   GL170285  34.171  16.042   5.510
 5547POPC   GL270286  33.903  16.211   5.699
 5547POPC   C1A70287  34.076  15.804   5.950
 5547POPC   D2A70288  33.800  15.744   6.350
 5547POPC   C3A70289  33.928  15.682   6.814
 5547POPC   C4A70290  33.712  15.655   7.252
 5547POPC   C1B70291  33.956  16.267   6.140
 5547POPC   C2B70292  34.108  16.177   6.543
 5547POPC   C3B70293  33.920  16.271   6.898
 5547POPC   C4B70294  34.056  16.015   7.182
 5548POPC   NC370295  39.538  25.135   5.467
 5548POPC   PO470296  39.802  25.769   5.339
 5548POPC   GL170297  40.049  25.692   5.740
 5548POPC   GL270298  40.025  25.329   5.830
 5548POPC   C1A70299  39.907  25.663   6.199
 5548POPC   D2A70300  39.701  25.321   6.448
 5548POPC   C3A70301  39.637  25.310   6.880
 5548POPC   C4A70302  39.943  25.177   7.141
 5548POPC   C1B70303  40.240  25.251   6.237
 5548POPC   C2B70304  40.213  25.363   6.668
 5548POPC   C3B70305  40.400  25.076   6.961
 5548POPC   C4B70306  40.203  24.688   7.162
 5549POPC   NC370307  10.754  29.439   5.686
 5549POPC   PO470308  10.230  29.397   5.264
 5549POPC   GL170309  10.325  29.093   5.700
 5549POPC   GL270310  10.289  28.749   5.868
 5549POPC   C1A70311  10.469  29.095   6.197
 5549POPC   D2A70312  10.693  29.411   6.512
 5549POPC   C3A70313  10.799  29.344   6.952
 5549POPC   C4A70314  10.501  29.396   7.247
 5549POPC   C1B70315  10.170  28.550   6.268
 5549POPC   C2B70316  10.263  28.602   6.721
 5549POPC   C3B70317  10.473  28.933   6.989
 5549POPC   C4B70318  10.602  28.930   7.437
 5550POPC   NC370319  21.997   7.401   5.619
 5550POPC   PO470320  22.615   7.202   5.791
 5550POPC   GL170321  22.180   7.243   6.049
 5550POPC   GL270322  22.014   7.579   6.095
 5550POPC   C1A70323  21.961   7.222   6.452
 5550POPC   D2A70324  22.229   7.256   6.818
 5550POPC   C3A70325  22.051   7.292   7.217
 5550POPC   C4A70326  22.122   7.150   7.656
 5550POPC   C1B70327  22.380   7.564   6.400
 5550POPC   C2B70328  22.453   7.788   6.783
 5550POPC   C3B70329  22.174   7.815   7.139
 5550POPC   C4B70330  22.198   7.637   7.549
 5551POPC   NC370331  36.807  23.843   5.422
 5551POPC   PO470332  37.054  23.292   5.741
 5551POPC   GL170333  37.045  23.612   6.016
 5551POPC   GL270334  36.828  23.884   5.926
 5551POPC   C1A70335  37.109  23.512   6.433
 5551POPC   D2A70336  36.953  23.224   6.644
 5551POPC   C3A70337  36.766  23.506   6.868
 5551POPC   C4A70338  36.680  23.734   7.219
 5551POPC   C1B70339  36.673  23.779   6.345
 5551POPC   C2B70340  36.672  24.033   6.718
 5551POPC   C3B70341  36.342  24.128   7.028
 5551POPC   C4B70342  36.321  24.025   7.449
 5552POPC   NC370343  25.258  16.279   5.464
 5552POPC   PO470344  25.667  15.680   5.389
 5552POPC   GL170345  25.432  15.812   5.756
 5552POPC   GL270346  25.416  16.186   5.920
 5552POPC   C1A70347  25.463  15.769   6.181
 5552POPC   D2A70348  25.324  16.073   6.443
 5552POPC   C3A70349  25.356  15.886   6.822
 5552POPC   C4A70350  25.419  16.033   7.194
 5552POPC   C1B70351  25.086  16.427   6.130
 5552POPC   C2B70352  24.853  16.270   6.491
 5552POPC   C3B70353  25.032  16.262   6.910
 5552POPC   C4B70354  24.905  16.015   7.250
 5553POPC   NC370355  16.077  26.445   5.495
 5553POPC   PO470356  15.759  25.817   5.493
 5553POPC   GL170357  15.915  25.892   5.929
 5553POPC   GL270358  16.268  25.918   5.992
 5553POPC   C1A70359  15.733  26.092   6.330
 5553POPC   D2A70360  15.665  26.139   6.752
 5553POPC   C3A70361  15.992  25.957   6.938
 5553POPC   C4A70362  15.907  25.667   7.208
 5553POPC   C1B70363  16.200  25.902   6.408
 5553POPC   C2B70364  16.181  26.289   6.574
 5553POPC   C3B70365  16.119  26.458   6.956
 5553POPC   C4B70366  16.091  26.261   7.350
 5554POPC   NC370367   3.419  33.989   5.439
 5554POPC   PO470368   3.791  33.437   5.385
 5554POPC   GL170369   3.723  33.727   5.746
 5554POPC   GL270370   3.365  33.674   5.866
 5554POPC   C1A70371   3.606  34.039   6.095
 5554POPC   D2A70372   3.412  33.879   6.470
 5554POPC   C3A70373   3.533  34.000   6.854
 5554POPC   C4A70374   3.633  33.731   7.178
 5554POPC   C1B70375   3.076  33.967   6.104
 5554POPC   C2B70376   2.909  33.953   6.543
 5554POPC   C3B70377   3.043  33.923   6.963
 5554POPC   C4B70378   3.223  33.955   7.380
 5555POPC   NC370379   7.650   3.228   5.509
 5555POPC   PO470380   7.185   3.722   5.420
 5555POPC   GL170381   7.249   3.517   5.783
 5555POPC   GL270382   7.163   3.170   5.792
 5555POPC   C1A70383   7.377   3.758   6.153
 5555POPC   D2A70384   7.276   3.989   6.510
 5555POPC   C3A70385   7.504   3.832   6.875
 5555POPC   C4A70386   7.535   3.819   7.314
 5555POPC   C1B70387   7.292   3.250   6.208
 5555POPC   C2B70388   7.224   3.469   6.601
 5555POPC   C3B70389   7.290   3.396   7.051
 5555POPC   C4B70390   7.303   3.399   7.536
 5556POPC   NC370391  40.747  19.793   5.351
 5556POPC   PO470392  41.241  20.192   5.501
 5556POPC   GL170393  40.976  19.880   5.785
 5556POPC   GL270394  40.595  19.959   5.827
 5556POPC   C1A70395  40.747  19.550   6.068
 5556POPC   D2A70396  40.613  19.506   6.509
 5556POPC   C3A70397  40.821  19.779   6.823
 5556POPC   C4A70398  40.867  19.655   7.270
 5556POPC   C1B70399  40.753  20.031   6.260
 5556POPC   C2B70400  40.754  20.308   6.626
 5556POPC   C3B70401  40.632  20.231   7.026
 5556POPC   C4B70402  40.619  20.113   7.420
 5557POPC   NC370403  17.863  20.361   5.599
 5557POPC   PO470404  17.487  20.993   5.549
 5557POPC   GL170405  17.392  20.734   5.924
 5557POPC   GL270406  17.098  20.475   5.957
 5557POPC   C1A70407  17.501  20.689   6.346
 5557POPC   D2A70408  17.598  20.774   6.747
 5557POPC   C3A70409  17.451  20.761   7.146
 5557POPC   C4A70410  17.728  20.846   7.503
 5557POPC   C1B70411  17.368  20.212   6.238
 5557POPC   C2B70412  17.515  20.269   6.652
 5557POPC   C3B70413  17.392  20.237   7.058
 5557POPC   C4B70414  17.811  20.399   7.184
 5558POPC   NC370415  19.529  28.908   5.633
 5558POPC   PO470416  20.234  28.918   5.637
 5558POPC   GL170417  19.941  29.121   5.887
 5558POPC   GL270418  19.744  29.406   5.769
 5558POPC   C1A70419  19.823  29.062   6.304
 5558POPC   D2A70420  20.072  29.011   6.631
 5558POPC   C3A70421  19.923  28.868   7.009
 5558POPC   C4A70422  20.011  29.035   7.385
 5558POPC   C1B70423  19.429  29.325   6.127
 5558POPC   C2B70424  19.479  29.339   6.566
 5558POPC   C3B70425  19.793  29.360   6.862
 5558POPC   C4B70426  19.640  29.325   7.222
 5559POPC   NC370427  18.222   0.036   5.442
 5559POPC   PO470428  18.753  44.601   5.454
 5559POPC   GL170429  18.520  44.784   5.808
 5559POPC   GL270430  18.158  44.673   5.793
 5559POPC   C1A70431  18.477  44.543   6.209
 5559POPC   D2A70432  18.563  44.358   6.624
 5559POPC   C3A70433  18.423  44.647   6.934
 5559POPC   C4A70434  18.653  44.798   7.272
 5559POPC   C1B70435  18.102  44.875   6.183
 5559POPC   C2B70436  18.165  44.951   6.604
 5559POPC   C3B70437  17.926  44.873   6.970
 5559POPC   C4B70438  18.042  44.631   7.304
 5560POPC   NC370439  10.464  27.877   5.483
 5560POPC   PO470440  10.883  27.315   5.435
 5560POPC   GL170441  10.687  27.518   5.801
 5560POPC   GL270442  10.318  27.468   5.766
 5560POPC   C1A70443  10.510  27.674   6.205
 5560POPC   D2A70444  10.319  27.596   6.623
 5560POPC   C3A70445  10.514  27.684   6.987
 5560POPC   C4A70446  10.439  27.927   7.338
 5560POPC   C1B70447  10.241  27.217   6.129
 5560POPC   C2B70448  10.060  27.169   6.550
 5560POPC   C3B70449  10.273  27.195   6.955
 5560POPC   C4B70450  10.346  27.383   7.360
 5561POPC   NC370451  36.311  12.365   5.558
 5561POPC   PO470452  35.876  11.952   5.161
 5561POPC   GL170453  36.151  11.891   5.572
 5561POPC   GL270454  35.997  12.097   5.858
 5561POPC   C1A70455  36.411  11.832   5.992
 5561POPC   D2A70456  36.500  11.786   6.449
 5561POPC   C3A70457  36.411  12.019   6.855
 5561POPC   C4A70458  36.125  12.135   7.169
 5561POPC   C1B70459  35.943  12.309   6.270
 5561POPC   C2B70460  35.893  12.302   6.724
 5561POPC   C3B70461  35.662  12.008   6.998
 5561POPC   C4B70462  35.582  12.163   7.375
 5562POPC   NC370463   6.839   9.539   5.366
 5562POPC   PO470464   6.525  10.122   5.437
 5562POPC   GL170465   6.660   9.867   5.801
 5562POPC   GL270466   6.405   9.640   5.683
 5562POPC   C1A70467   6.706   9.831   6.292
 5562POPC   D2A70468   6.597   9.662   6.695
 5562POPC   C3A70469   6.599   9.830   7.138
 5562POPC   C4A70470   6.803   9.680   7.565
 5562POPC   C1B70471   6.241   9.739   6.097
 5562POPC   C2B70472   6.123   9.846   6.512
 5562POPC   C3B70473   6.142   9.621   6.906
 5562POPC   C4B70474   6.079   9.828   7.267
 5563POPC   NC370475   1.510  38.340   5.400
 5563POPC   PO470476   2.041  38.773   5.249
 5563POPC   GL170477   1.841  38.662   5.669
 5563POPC   GL270478   1.988  38.378   5.830
 5563POPC   C1A70479   1.732  38.750   6.126
 5563POPC   D2A70480   1.645  38.739   6.609
 5563POPC   C3A70481   2.000  38.668   6.919
 5563POPC   C4A70482   2.231  38.675   7.304
 5563POPC   C1B70483   1.879  38.178   6.229
 5563POPC   C2B70484   1.963  38.191   6.687
 5563POPC   C3B70485   2.079  38.123   7.125
 5563POPC   C4B70486   2.164  38.202   7.546
 5564POPC   NC370487  24.039  38.701   5.474
 5564POPC   PO470488  23.563  38.186   5.511
 5564POPC   GL170489  23.767  38.320   5.830
 5564POPC   GL270490  23.646  38.668   5.818
 5564POPC   C1A70491  23.522  38.386   6.216
 5564POPC   D2A70492  23.641  38.611   6.591
 5564POPC   C3A70493  23.670  38.412   6.988
 5564POPC   C4A70494  23.461  38.524   7.369
 5564POPC   C1B70495  23.972  38.645   6.162
 5564POPC   C2B70496  24.160  38.588   6.570
 5564POPC   C3B70497  24.179  38.490   7.015
 5564POPC   C4B70498  23.959  38.513   7.433
 5565POPC   NC370499  30.029   7.616   5.452
 5565POPC   PO470500  29.530   7.217   5.625
 5565POPC   GL170501  29.735   7.546   5.868
 5565POPC   GL270502  30.113   7.458   5.930
 5565POPC   C1A70503  29.740   7.563   6.297
 5565POPC   D2A70504  29.799   7.216   6.570
 5565POPC   C3A70505  29.770   7.446   6.937
 5565POPC   C4A70506  30.094   7.388   7.222
 5565POPC   C1B70507  30.263   7.679   6.295
 5565POPC   C2B70508  30.160   7.711   6.729
 5565POPC   C3B70509  30.396   7.794   7.102
 5565POPC   C4B70510  30.324   7.708   7.547
 5566POPC   NC370511  15.124   7.182   5.201
 5566POPC   PO470512  15.262   6.652   5.650
 5566POPC   GL170513  15.021   7.079   5.708
 5566POPC   GL270514  15.155   7.420   5.686
 5566POPC   C1A70515  14.875   7.282   6.113
 5566POPC   D2A70516  14.830   7.236   6.574
 5566POPC   C3A70517  15.184   7.191   6.865
 5566POPC   C4A70518  15.301   7.179   7.293
 5566POPC   C1B70519  15.280   7.575   6.100
 5566POPC   C2B70520  15.231   7.614   6.548
 5566POPC   C3B70521  15.330   7.685   6.980
 5566POPC   C4B70522  15.628   7.566   7.328
 5567POPC   NC370523  15.257   3.580   5.385
 5567POPC   PO470524  15.137   2.963   5.513
 5567POPC   GL170525  15.362   3.225   5.845
 5567POPC   GL270526  15.233   3.538   5.893
 5567POPC   C1A70527  15.215   3.254   6.333
 5567POPC   D2A70528  15.010   3.205   6.784
 5567POPC   C3A70529  15.164   3.484   7.130
 5567POPC   C4A70530  15.483   3.792   7.288
 5567POPC   C1B70531  15.041   3.751   6.234
 5567POPC   C2B70532  15.000   3.695   6.652
 5567POPC   C3B70533  14.768   3.783   6.992
 5567POPC   C4B70534  14.969   3.947   7.338
 5568POPC   NC370535  21.965   6.760   5.462
 5568POPC   PO470536  22.554   6.969   5.278
 5568POPC   GL170537  22.318   6.810   5.817
 5568POPC   GL270538  22.096   6.555   5.913
 5568POPC   C1A70539  22.249   6.828   6.331
 5568POPC   D2A70540  21.962   6.749   6.734
 5568POPC   C3A70541  22.047   6.794   7.207
 5568POPC   C4A70542  22.451   6.799   7.457
 5568POPC   C1B70543  21.863   6.460   6.294
 5568POPC   C2B70544  21.803   6.241   6.680
 5568POPC   C3B70545  21.851   6.338   7.096
 5568POPC   C4B70546  22.166   6.280   7.389
 5569POPC   NC370547  43.744   3.581   5.059
 5569POPC   PO470548  43.894   3.591   5.693
 5569POPC   GL170549  43.892   3.368   5.967
 5569POPC   GL270550  44.282   3.371   5.936
 5569POPC   C1A70551  43.593   3.412   6.282
 5569POPC   D2A70552  43.586   3.386   6.690
 5569POPC   C3A70553  43.623   3.773   6.879
 5569POPC   C4A70554  43.686   3.506   7.205
 5569POPC   C1B70555  44.135   3.423   6.394
 5569POPC   C2B70556  44.081   3.518   6.841
 5569POPC   C3B70557  44.197   3.591   7.281
 5569POPC   C4B70558  44.140   3.915   7.592
 5570POPC   NC370559  44.189  14.048   5.458
 5570POPC   PO470560  44.791  14.191   5.416
 5570POPC   GL170561  44.839  14.432   5.810
 5570POPC   GL270562  44.506  14.449   5.848
 5570POPC   C1A70563  44.872  14.428   6.285
 5570POPC   D2A70564  44.642  14.561   6.665
 5570POPC   C3A70565  44.821  14.495   7.086
 5570POPC   C4A70566  44.756  14.164   7.417
 5570POPC   C1B70567  44.343  14.399   6.286
 5570POPC   C2B70568  44.301  14.162   6.686
 5570POPC   C3B70569  44.349  14.322   7.102
 5570POPC   C4B70570  44.389  14.743   7.291
 5571POPC   NC370571  33.831  38.998   5.446
 5571POPC   PO470572  33.493  39.594   5.398
 5571POPC   GL170573  33.567  39.301   5.786
 5571POPC   GL270574  33.843  39.064   5.939
 5571POPC   C1A70575  33.391  39.192   6.202
 5571POPC   D2A70576  33.270  39.082   6.632
 5571POPC   C3A70577  33.628  39.026   6.866
 5571POPC   C4A70578  33.808  39.061   7.262
 5571POPC   C1B70579  33.885  39.419   6.212
 5571POPC   C2B70580  33.675  39.481   6.601
 5571POPC   C3B70581  33.865  39.498   7.009
 5571POPC   C4B70582  34.231  39.347   7.248
 5572POPC   NC370583  12.441  32.402   5.608
 5572POPC   PO470584  12.220  33.047   5.367
 5572POPC   GL170585  12.051  33.075   5.768
 5572POPC   GL270586  12.335  32.870   5.876
 5572POPC   C1A70587  12.006  33.258   6.198
 5572POPC   D2A70588  12.099  33.053   6.587
 5572POPC   C3A70589  12.193  33.186   6.985
 5572POPC   C4A70590  12.021  33.147   7.345
 5572POPC   C1B70591  12.519  33.246   6.103
 5572POPC   C2B70592  12.546  33.375   6.550
 5572POPC   C3B70593  12.688  33.239   6.968
 5572POPC   C4B70594  12.555  33.175   7.379
 5573POPC   NC370595  11.800  11.784   5.450
 5573POPC   PO470596  12.326  11.410   5.493
 5573POPC   GL170597  12.015  11.459   5.801
 5573POPC   GL270598  11.820  11.136   5.762
 5573POPC   C1A70599  12.016  11.586   6.233
 5573POPC   D2A70600  11.817  11.470   6.606
 5573POPC   C3A70601  11.982  11.603   7.009
 5573POPC   C4A70602  12.006  11.403   7.398
 5573POPC   C1B70603  11.990  11.087   6.174
 5573POPC   C2B70604  11.935  10.968   6.588
 5573POPC   C3B70605  11.917  11.094   6.985
 5573POPC   C4B70606  11.670  11.002   7.331
 5574POPC   NC370607   6.374   8.042   5.330
 5574POPC   PO470608   6.672   8.680   5.571
 5574POPC   GL170609   6.561   8.309   5.743
 5574POPC   GL270610   6.399   8.458   5.997
 5574POPC   C1A70611   6.543   7.973   6.074
 5574POPC   D2A70612   6.698   7.923   6.509
 5574POPC   C3A70613   6.484   7.775   6.894
 5574POPC   C4A70614   6.256   7.994   7.223
 5574POPC   C1B70615   6.795   8.420   6.226
 5574POPC   C2B70616   6.938   8.339   6.638
 5574POPC   C3B70617   6.715   8.254   6.990
 5574POPC   C4B70618   6.890   8.345   7.374
 5575POPC   NC370619  28.700   9.021   5.455
 5575POPC   PO470620  28.107   9.069   5.207
 5575POPC   GL170621  28.072   9.125   5.714
 5575POPC   GL270622  28.357   9.034   5.816
 5575POPC   C1A70623  28.043   8.866   6.160
 5575POPC   D2A70624  28.181   9.028   6.579
 5575POPC   C3A70625  27.998   8.835   6.949
 5575POPC   C4A70626  27.944   8.859   7.408
 5575POPC   C1B70627  28.559   8.736   6.064
 5575POPC   C2B70628  28.481   8.602   6.458
 5575POPC   C3B70629  28.529   8.763   6.848
 5575POPC   C4B70630  28.411   8.978   7.225
 5576POPC   NC370631  18.333  28.022   5.481
 5576POPC   PO470632  18.489  28.627   5.401
 5576POPC   GL170633  18.321  28.515   5.808
 5576POPC   GL270634  18.199  28.195   5.936
 5576POPC   C1A70635  18.300  28.579   6.266
 5576POPC   D2A70636  18.371  28.405   6.666
 5576POPC   C3A70637  18.160  28.384   7.049
 5576POPC   C4A70638  18.162  28.547   7.441
 5576POPC   C1B70639  18.493  28.100   6.260
 5576POPC   C2B70640  18.679  27.992   6.643
 5576POPC   C3B70641  18.653  28.172   7.033
 5576POPC   C4B70642  18.438  28.130   7.435
 5577POPC   NC370643  10.910   9.302   5.553
 5577POPC   PO470644  11.515   8.884   5.402
 5577POPC   GL170645  11.241   8.921   5.733
 5577POPC   GL270646  11.317   9.209   5.859
 5577POPC   C1A70647  11.217   8.742   6.130
 5577POPC   D2A70648  11.010   8.804   6.501
 5577POPC   C3A70649  11.048   8.701   6.934
 5577POPC   C4A70650  10.980   9.048   7.195
 5577POPC   C1B70651  11.268   9.293   6.308
 5577POPC   C2B70652  11.455   9.071   6.651
 5577POPC   C3B70653  11.476   8.980   7.075
 5577POPC   C4B70654  11.805   8.863   7.361
 5578POPC   NC370655  23.719  37.423   5.252
 5578POPC   PO470656  23.954  36.816   5.252
 5578POPC   GL170657  23.831  36.740   5.726
 5578POPC   GL270658  24.057  36.938   5.947
 5578POPC   C1A70659  23.755  36.588   6.179
 5578POPC   D2A70660  23.430  36.688   6.504
 5578POPC   C3A70661  23.589  36.806   6.936
 5578POPC   C4A70662  23.522  36.655   7.357
 5578POPC   C1B70663  23.599  37.056   6.082
 5578POPC   C2B70664  23.445  37.188   6.494
 5578POPC   C3B70665  23.322  37.235   6.919
 5578POPC   C4B70666  23.571  37.190   7.311
 5579POPC   NC370667  11.150  12.028   5.208
 5579POPC   PO470668  11.766  12.206   5.261
 5579POPC   GL170669  11.407  12.064   5.649
 5579POPC   GL270670  11.077  11.837   5.696
 5579POPC   C1A70671  11.324  11.890   6.125
 5579POPC   D2A70672  11.513  11.893   6.559
 5579POPC   C3A70673  11.418  12.273   6.819
 5579POPC   C4A70674  11.293  12.168   7.228
 5579POPC   C1B70675  10.912  11.569   6.081
 5579POPC   C2B70676  10.841  11.690   6.500
 5579POPC   C3B70677  11.029  11.912   6.824
 5579POPC   C4B70678  11.112  11.681   7.178
 5580POPC   NC370679  32.783  10.797   5.362
 5580POPC   PO470680  33.155  10.232   5.457
 5580POPC   GL170681  33.048  10.479   5.849
 5580POPC   GL270682  32.742  10.706   5.879
 5580POPC   C1A70683  33.100  10.374   6.318
 5580POPC   D2A70684  32.998  10.584   6.726
 5580POPC   C3A70685  33.128  10.425   7.124
 5580POPC   C4A70686  33.427  10.267   7.412
 5580POPC   C1B70687  32.632  10.308   6.117
 5580POPC   C2B70688  32.651  10.155   6.534
 5580POPC   C3B70689  32.605  10.312   6.953
 5580POPC   C4B70690  32.680  10.618   7.260
 5581POPC   NC370691   9.715  26.544   5.232
 5581POPC   PO470692   9.424  27.034   5.546
 5581POPC   GL170693   9.821  26.820   5.728
 5581POPC   GL270694   9.950  26.453   5.694
 5581POPC   C1A70695   9.860  26.871   6.186
 5581POPC   D2A70696   9.671  26.817   6.614
 5581POPC   C3A70697   9.754  27.104   6.958
 5581POPC   C4A70698   9.928  27.099   7.355
 5581POPC   C1B70699   9.969  26.376   6.149
 5581POPC   C2B70700  10.108  26.522   6.538
 5581POPC   C3B70701  10.091  26.715   6.919
 5581POPC   C4B70702   9.943  26.609   7.306
 5582POPC   NC370703  16.390  37.535   5.357
 5582POPC   PO470704  16.859  38.073   5.281
 5582POPC   GL170705  16.917  37.923   5.716
 5582POPC   GL270706  16.716  37.600   5.795
 5582POPC   C1A70707  17.000  37.824   6.174
 5582POPC   D2A70708  16.809  37.567   6.503
 5582POPC   C3A70709  16.767  37.706   6.955
 5582POPC   C4A70710  16.742  37.659   7.440
 5582POPC   C1B70711  16.390  37.620   6.149
 5582POPC   C2B70712  16.320  37.554   6.593
 5582POPC   C3B70713  16.248  37.676   7.018
 5582POPC   C4B70714  16.182  37.416   7.363
 5583POPC   NC370715   5.530  28.990   5.374
 5583POPC   PO470716   4.925  28.901   5.341
 5583POPC   GL170717   5.084  29.142   5.730
 5583POPC   GL270718   4.759  29.309   5.823
 5583POPC   C1A70719   5.233  29.376   6.139
 5583POPC   D2A70720   5.157  29.359   6.638
 5583POPC   C3A70721   5.426  29.434   7.035
 5583POPC   C4A70722   5.770  29.282   7.333
 5583POPC   C1B70723   4.729  29.288   6.277
 5583POPC   C2B70724   4.633  29.327   6.723
 5583POPC   C3B70725   4.864  29.236   7.124
 5583POPC   C4B70726   4.943  28.835   7.365
 5584POPC   NC370727  21.544  13.447   5.447
 5584POPC   PO470728  21.123  13.833   5.425
 5584POPC   GL170729  21.170  13.653   5.815
 5584POPC   GL270730  21.343  13.357   5.926
 5584POPC   C1A70731  21.012  13.727   6.209
 5584POPC   D2A70732  21.224  13.749   6.615
 5584POPC   C3A70733  21.062  13.571   6.987
 5584POPC   C4A70734  21.070  13.743   7.392
 5584POPC   C1B70735  21.544  13.693   6.204
 5584POPC   C2B70736  21.734  13.795   6.638
 5584POPC   C3B70737  21.549  13.691   7.056
 5584POPC   C4B70738  21.373  13.322   7.328
 5585POPC   NC370739  14.813  27.598   5.421
 5585POPC   PO470740  15.422  27.612   5.316
 5585POPC   GL170741  15.220  27.350   5.678
 5585POPC   GL270742  14.897  27.412   5.868
 5585POPC   C1A70743  15.245  27.162   6.119
 5585POPC   D2A70744  15.163  27.400   6.494
 5585POPC   C3A70745  15.163  27.311   6.910
 5585POPC   C4A70746  15.355  27.518   7.261
 5585POPC   C1B70747  14.716  27.448   6.241
 5585POPC   C2B70748  14.757  27.681   6.642
 5585POPC   C3B70749  14.861  27.714   7.077
 5585POPC   C4B70750  14.900  27.574   7.492
 5586POPC   NC370751   2.635  32.555   5.230
 5586POPC   PO470752   2.533  31.922   5.224
 5586POPC   GL170753   2.705  32.264   5.634
 5586POPC   GL270754   2.710  32.048   5.979
 5586POPC   C1A70755   2.711  32.535   6.035
 5586POPC   D2A70756   2.679  32.302   6.443
 5586POPC   C3A70757   2.661  32.469   6.855
 5586POPC   C4A70758   2.952  32.501   7.197
 5586POPC   C1B70759   2.516  31.825   6.320
 5586POPC   C2B70760   2.454  31.944   6.756
 5586POPC   C3B70761   2.703  32.020   7.116
 5586POPC   C4B70762   2.609  31.819   7.504
 5587POPC   NC370763  37.165  38.941   5.366
 5587POPC   PO470764  36.964  38.325   5.476
 5587POPC   GL170765  36.988  38.489   5.848
 5587POPC   GL270766  36.634  38.653   5.832
 5587POPC   C1A70767  37.125  38.307   6.247
 5587POPC   D2A70768  37.268  38.174   6.637
 5587POPC   C3A70769  37.007  38.233   6.954
 5587POPC   C4A70770  37.006  38.141   7.367
 5587POPC   C1B70771  36.656  38.493   6.231
 5587POPC   C2B70772  36.909  38.659   6.580
 5587POPC   C3B70773  36.809  38.721   7.000
 5587POPC   C4B70774  37.115  38.636   7.279
 5588POPC   NC370775  14.775  35.509   5.491
 5588POPC   PO470776  14.082  35.390   5.431
 5588POPC   GL170777  14.369  35.355   5.746
 5588POPC   GL270778  14.455  35.706   5.838
 5588POPC   C1A70779  14.414  35.205   6.128
 5588POPC   D2A70780  14.720  35.350   6.444
 5588POPC   C3A70781  14.672  35.320   6.927
 5588POPC   C4A70782  14.446  35.084   7.254
 5588POPC   C1B70783  14.220  35.644   6.218
 5588POPC   C2B70784  14.243  35.361   6.604
 5588POPC   C3B70785  14.173  35.469   7.024
 5588POPC   C4B70786  14.427  35.565   7.417
 5589POPC   NC370787  42.986  38.375   5.316
 5589POPC   PO470788  43.582  38.737   5.585
 5589POPC   GL170789  43.266  38.778   5.881
 5589POPC   GL270790  43.162  38.444   5.792
 5589POPC   C1A70791  42.966  38.654   6.198
 5589POPC   D2A70792  43.036  38.436   6.586
 5589POPC   C3A70793  43.103  38.608   7.015
 5589POPC   C4A70794  42.998  38.196   7.261
 5589POPC   C1B70795  43.423  38.404   6.184
 5589POPC   C2B70796  43.557  38.483   6.607
 5589POPC   C3B70797  43.392  38.211   6.916
 5589POPC   C4B70798  43.515  37.958   7.263
 5590POPC   NC370799  34.050   9.444   5.229
 5590POPC   PO470800  33.567   9.824   5.501
 5590POPC   GL170801  33.776   9.621   5.843
 5590POPC   GL270802  34.094   9.432   5.736
 5590POPC   C1A70803  33.704   9.709   6.298
 5590POPC   D2A70804  33.823   9.975   6.674
 5590POPC   C3A70805  33.508   9.986   6.990
 5590POPC   C4A70806  33.475   9.731   7.342
 5590POPC   C1B70807  34.153   9.471   6.167
 5590POPC   C2B70808  33.978   9.368   6.571
 5590POPC   C3B70809  33.798   9.522   6.985
 5590POPC   C4B70810  33.982   9.598   7.410
 5591POPC   NC370811  42.888  33.785   5.337
 5591POPC   PO470812  43.508  33.557   5.459
 5591POPC   GL170813  43.332  33.613   5.863
 5591POPC   GL270814  43.072  33.843   5.828
 5591POPC   C1A70815  43.229  33.711   6.298
 5591POPC   D2A70816  43.209  33.835   6.724
 5591POPC   C3A70817  43.200  33.712   7.150
 5591POPC   C4A70818  43.249  33.388   7.443
 5591POPC   C1B70819  42.892  34.084   6.199
 5591POPC   C2B70820  42.877  34.219   6.664
 5591POPC   C3B70821  42.874  34.164   7.128
 5591POPC   C4B70822  42.786  34.224   7.597
 5592POPC   NC370823   7.062   9.003   5.109
 5592POPC   PO470824   7.558   8.721   5.449
 5592POPC   GL170825   7.666   8.823   5.833
 5592POPC   GL270826   7.391   9.071   5.823
 5592POPC   C1A70827   7.517   8.784   6.267
 5592POPC   D2A70828   7.101   8.782   6.457
 5592POPC   C3A70829   7.141   8.740   6.919
 5592POPC   C4A70830   7.128   8.985   7.319
 5592POPC   C1B70831   7.264   9.251   6.226
 5592POPC   C2B70832   7.288   9.197   6.683
 5592POPC   C3B70833   7.501   9.240   7.058
 5592POPC   C4B70834   7.328   9.539   7.332
 5593POPC   NC370835  17.479  34.162   5.294
 5593POPC   PO470836  17.310  33.566   5.383
 5593POPC   GL170837  17.437  33.767   5.748
 5593POPC   GL270838  17.755  33.962   5.721
 5593POPC   C1A70839  17.648  33.606   6.126
 5593POPC   D2A70840  17.551  33.563   6.560
 5593POPC   C3A70841  17.487  33.858   6.904
 5593POPC   C4A70842  17.479  33.568   7.247
 5593POPC   C1B70843  17.784  34.094   6.175
 5593POPC   C2B70844  17.934  33.902   6.591
 5593POPC   C3B70845  17.944  33.709   7.028
 5593POPC   C4B70846  17.926  33.567   7.477
 5594POPC   NC370847  38.820   0.896   5.512
 5594POPC   PO470848  38.504   1.508   5.494
 5594POPC   GL170849  38.491   1.188   5.808
 5594POPC   GL270850  38.793   1.158   5.994
 5594POPC   C1A70851  38.359   1.035   6.216
 5594POPC   D2A70852  38.260   1.231   6.601
 5594POPC   C3A70853  38.370   1.021   6.928
 5594POPC   C4A70854  38.255   1.103   7.307
 5594POPC   C1B70855  38.665   1.491   6.346
 5594POPC   C2B70856  38.800   1.670   6.770
 5594POPC   C3B70857  38.745   1.338   7.077
 5594POPC   C4B70858  38.873   0.906   7.143
 5595POPC   NC370859  24.605  19.202   5.242
 5595POPC   PO470860  24.842  18.674   5.439
 5595POPC   GL170861  24.543  18.987   5.681
 5595POPC   GL270862  24.692  19.345   5.731
 5595POPC   C1A70863  24.370  19.125   6.078
 5595POPC   D2A70864  24.388  19.209   6.541
 5595POPC   C3A70865  24.481  18.888   6.839
 5595POPC   C4A70866  24.849  18.855   7.083
 5595POPC   C1B70867  24.863  19.315   6.185
 5595POPC   C2B70868  24.947  19.306   6.658
 5595POPC   C3B70869  24.644  19.341   7.009
 5595POPC   C4B70870  24.209  19.348   7.059
 5596POPC   NC370871  38.086  20.091   5.308
 5596POPC   PO470872  38.780  20.204   5.411
 5596POPC   GL170873  38.707  20.120   5.817
 5596POPC   GL270874  38.405  19.913   5.749
 5596POPC   C1A70875  38.609  19.972   6.224
 5596POPC   D2A70876  38.223  19.972   6.481
 5596POPC   C3A70877  38.300  20.092   6.915
 5596POPC   C4A70878  38.603  19.962   7.245
 5596POPC   C1B70879  38.284  19.594   6.079
 5596POPC   C2B70880  38.231  19.455   6.494
 5596POPC   C3B70881  38.329  19.575   6.877
 5596POPC   C4B70882  38.397  19.500   7.278
 5597POPC   NC370883   6.332  13.097   5.024
 5597POPC   PO470884   6.768  12.772   5.380
 5597POPC   GL170885   6.835  13.058   5.754
 5597POPC   GL270886   6.516  13.072   5.933
 5597POPC   C1A70887   6.908  12.917   6.196
 5597POPC   D2A70888   6.779  12.621   6.522
 5597POPC   C3A70889   6.862  12.841   6.882
 5597POPC   C4A70890   6.769  12.822   7.278
 5597POPC   C1B70891   6.460  12.638   6.118
 5597POPC   C2B70892   6.258  12.530   6.524
 5597POPC   C3B70893   6.336  12.766   6.913
 5597POPC   C4B70894   6.427  13.177   7.106
 5598POPC   NC370895  35.551   0.456   5.350
 5598POPC   PO470896  34.888   0.234   5.358
 5598POPC   GL170897  35.085   0.256   5.797
 5598POPC   GL270898  35.301   0.558   5.796
 5598POPC   C1A70899  35.235   0.309   6.266
 5598POPC   D2A70900  35.297   0.306   6.733
 5598POPC   C3A70901  35.249   0.411   7.154
 5598POPC   C4A70902  34.949   0.368   7.508
 5598POPC   C1B70903  35.452   0.750   6.142
 5598POPC   C2B70904  35.657   0.589   6.506
 5598POPC   C3B70905  35.566   0.738   6.915
 5598POPC   C4B70906  35.676   0.854   7.320
 5599POPC   NC370907   1.404  40.186   5.500
 5599POPC   PO470908   1.482  39.485   5.550
 5599POPC   GL170909   1.331  39.800   5.830
 5599POPC   GL270910   0.982  39.826   5.816
 5599POPC   C1A70911   1.257  39.880   6.245
 5599POPC   D2A70912   1.193  39.652   6.600
 5599POPC   C3A70913   1.190  39.865   6.960
 5599POPC   C4A70914   1.389  39.763   7.311
 5599POPC   C1B70915   0.793  40.080   6.185
 5599POPC   C2B70916   0.769  40.272   6.616
 5599POPC   C3B70917   0.732  40.059   7.048
 5599POPC   C4B70918   0.926  39.933   7.445
 5600POPC   NC370919  30.002  44.725   5.338
 5600POPC   PO470920  29.399  44.708   5.574
 5600POPC   GL170921  29.803  44.523   5.793
 5600POPC   GL270922  30.037  44.792   5.853
 5600POPC   C1A70923  30.139  44.388   6.145
 5600POPC   D2A70924  30.268  44.590   6.562
 5600POPC   C3A70925  29.939  44.666   6.931
 5600POPC   C4A70926  29.907  44.567   7.419
 5600POPC   C1B70927  29.797  44.775   6.264
 5600POPC   C2B70928  29.607  44.965   6.629
 5600POPC   C3B70929  29.743   0.191   6.952
 5600POPC   C4B70930  29.923   0.062   7.306
 5601POPC   NC370931  34.136  16.662   5.317
 5601POPC   PO470932  33.644  17.121   5.342
 5601POPC   GL170933  33.641  17.016   5.805
 5601POPC   GL270934  33.869  16.739   5.791
 5601POPC   C1A70935  33.618  16.958   6.261
 5601POPC   D2A70936  33.727  16.626   6.569
 5601POPC   C3A70937  33.594  16.694   7.004
 5601POPC   C4A70938  33.739  16.975   7.325
 5601POPC   C1B70939  34.082  16.763   6.195
 5601POPC   C2B70940  34.239  16.707   6.619
 5601POPC   C3B70941  34.126  16.733   7.050
 5601POPC   C4B70942  33.935  16.480   7.371
 5602POPC   NC370943  30.085  10.121   5.017
 5602POPC   PO470944  29.933  10.795   5.304
 5602POPC   GL170945  30.059  10.542   5.692
 5602POPC   GL270946  30.313  10.639   5.964
 5602POPC   C1A70947  29.941  10.318   6.093
 5602POPC   D2A70948  30.006  10.454   6.533
 5602POPC   C3A70949  29.609  10.464   6.795
 5602POPC   C4A70950  29.554  10.322   7.209
 5602POPC   C1B70951  29.881  10.823   6.138
 5602POPC   C2B70952  29.731  10.916   6.576
 5602POPC   C3B70953  29.993  10.794   6.943
 5602POPC   C4B70954  30.202  10.432   7.165
 5603POPC   NC370955  35.369  40.225   5.595
 5603POPC   PO470956  35.892  39.760   5.475
 5603POPC   GL170957  35.653  39.830   5.831
 5603POPC   GL270958  35.324  39.674   5.856
 5603POPC   C1A70959  35.637  40.054   6.225
 5603POPC   D2A70960  35.503  39.883   6.632
 5603POPC   C3A70961  35.492  40.077   7.014
 5603POPC   C4A70962  35.139  40.218   7.207
 5603POPC   C1B70963  35.143  39.853   6.242
 5603POPC   C2B70964  35.034  39.648   6.644
 5603POPC   C3B70965  35.043  39.754   7.087
 5603POPC   C4B70966  34.838  39.723   7.516
 5604POPC   NC370967  41.771  31.687   5.514
 5604POPC   PO470968  41.202  31.387   5.350
 5604POPC   GL170969  41.178  31.381   5.804
 5604POPC   GL270970  41.340  31.700   5.838
 5604POPC   C1A70971  41.324  31.265   6.223
 5604POPC   D2A70972  41.347  31.398   6.644
 5604POPC   C3A70973  41.727  31.270   6.868
 5604POPC   C4A70974  41.994  31.041   7.139
 5604POPC   C1B70975  41.563  31.744   6.253
 5604POPC   C2B70976  41.660  31.790   6.706
 5604POPC   C3B70977  41.523  31.641   7.135
 5604POPC   C4B70978  41.325  31.803   7.552
 5605POPC   NC370979  39.650  30.322   5.329
 5605POPC   PO470980  40.294  29.901   5.281
 5605POPC   GL170981  40.061  30.098   5.640
 5605POPC   GL270982  39.887  29.792   5.765
 5605POPC   C1A70983  40.026  30.154   6.103
 5605POPC   D2A70984  40.253  30.005   6.487
 5605POPC   C3A70985  40.082  30.064   6.899
 5605POPC   C4A70986  40.188  30.003   7.318
 5605POPC   C1B70987  40.111  29.643   6.154
 5605POPC   C2B70988  39.985  29.562   6.606
 5605POPC   C3B70989  40.088  29.535   7.041
 5605POPC   C4B70990  39.873  29.609   7.445
 5606POPC   NC370991  42.187   4.903   5.170
 5606POPC   PO470992  42.664   4.400   5.404
 5606POPC   GL170993  42.385   4.325   5.737
 5606POPC   GL270994  42.460   4.602   5.892
 5606POPC   C1A70995  42.169   4.141   6.096
 5606POPC   D2A70996  42.317   4.097   6.516
 5606POPC   C3A70997  42.131   4.140   6.904
 5606POPC   C4A70998  42.343   3.961   7.229
 5606POPC   C1B70999  42.380   4.577   6.296
 5606POPC   C2B71000  42.667   4.477   6.605
 5606POPC   C3B71001  42.556   4.421   7.013
 5606POPC   C4B71002  42.594   4.630   7.400
 5607POPC   NC371003   7.913  19.798   5.472
 5607POPC   PO471004   7.303  20.060   5.354
 5607POPC   GL171005   7.415  19.804   5.710
 5607POPC   GL271006   7.304  19.459   5.804
 5607POPC   C1A71007   7.573  19.789   6.123
 5607POPC   D2A71008   7.406  19.874   6.516
 5607POPC   C3A71009   7.624  19.797   6.879
 5607POPC   C4A71010   7.538  19.862   7.277
 5607POPC   C1B71011   7.281  19.353   6.261
 5607POPC   C2B71012   7.357  19.398   6.711
 5607POPC   C3B71013   7.372  19.408   7.142
 5607POPC   C4B71014   7.282  19.505   7.554
 5608POPC   NC371015   9.556  36.637   5.456
 5608POPC   PO471016   9.244  37.197   5.360
 5608POPC   GL171017   9.533  37.150   5.767
 5608POPC   GL271018   9.595  36.776   5.929
 5608POPC   C1A71019   9.803  37.146   6.182
 5608POPC   D2A71020   9.870  36.773   6.488
 5608POPC   C3A71021   9.968  36.868   6.925
 5608POPC   C4A71022   9.854  37.064   7.338
 5608POPC   C1B71023   9.432  36.529   6.297
 5608POPC   C2B71024   9.451  36.492   6.753
 5608POPC   C3B71025   9.563  36.608   7.175
 5608POPC   C4B71026   9.280  36.624   7.489
 5609POPC   NC371027   1.618  10.836   5.415
 5609POPC   PO471028   2.119  10.458   5.292
 5609POPC   GL171029   2.140  10.387   5.740
 5609POPC   GL271030   1.973  10.713   5.816
 5609POPC   C1A71031   2.062  10.414   6.222
 5609POPC   D2A71032   2.063  10.702   6.585
 5609POPC   C3A71033   2.138  10.559   7.011
 5609POPC   C4A71034   2.303  10.468   7.410
 5609POPC   C1B71035   1.752  10.903   6.199
 5609POPC   C2B71036   1.565  10.907   6.640
 5609POPC   C3B71037   1.711  10.865   7.092
 5609POPC   C4B71038   1.791  10.646   7.524
 5610POPC   NC371039   6.028   4.129   5.495
 5610POPC   PO471040   5.581   4.648   5.574
 5610POPC   GL171041   5.772   4.395   5.852
 5610POPC   GL271042   5.608   4.096   5.797
 5610POPC   C1A71043   6.015   4.374   6.207
 5610POPC   D2A71044   5.944   4.515   6.593
 5610POPC   C3A71045   6.091   4.427   7.019
 5610POPC   C4A71046   5.904   4.469   7.436
 5610POPC   C1B71047   5.539   4.113   6.219
 5610POPC   C2B71048   5.720   4.020   6.585
 5610POPC   C3B71049   5.680   4.123   6.990
 5610POPC   C4B71050   5.821   3.971   7.384
 5611POPC   NC371051  30.202   3.765   5.643
 5611POPC   PO471052  30.864   3.763   5.499
 5611POPC   GL171053  30.635   3.529   5.798
 5611POPC   GL271054  30.556   3.182   5.755
 5611POPC   C1A71055  30.623   3.603   6.224
 5611POPC   D2A71056  30.952   3.652   6.578
 5611POPC   C3A71057  30.928   3.552   7.048
 5611POPC   C4A71058  30.540   3.563   7.324
 5611POPC   C1B71059  30.385   3.131   6.181
 5611POPC   C2B71060  30.418   3.326   6.575
 5611POPC   C3B71061  30.551   3.222   6.948
 5611POPC   C4B71062  30.786   3.092   7.265
 5612POPC   NC371063  39.763  34.911   5.543
 5612POPC   PO471064  39.810  35.529   5.339
 5612POPC   GL171065  40.115  35.548   5.710
 5612POPC   GL271066  39.907  35.311   5.849
 5612POPC   C1A71067  40.235  35.515   6.182
 5612POPC   D2A71068  40.040  35.348   6.563
 5612POPC   C3A71069  40.160  35.375   7.019
 5612POPC   C4A71070  40.007  35.456   7.445
 5612POPC   C1B71071  39.696  35.132   6.177
 5612POPC   C2B71072  39.802  34.889   6.524
 5612POPC   C3B71073  39.673  34.938   6.913
 5612POPC   C4B71074  39.764  35.012   7.317
 5613POPC   NC371075  34.870  36.152   5.516
 5613POPC   PO471076  34.221  35.926   5.622
 5613POPC   GL171077  34.512  35.990   5.922
 5613POPC   GL271078  34.614  36.317   5.954
 5613POPC   C1A71079  34.430  36.057   6.368
 5613POPC   D2A71080  34.324  36.411   6.639
 5613POPC   C3A71081  34.396  36.258   7.048
 5613POPC   C4A71082  34.566  35.848   7.036
 5613POPC   C1B71083  34.912  36.217   6.290
 5613POPC   C2B71084  34.823  36.262   6.747
 5613POPC   C3B71085  34.909  36.203   7.195
 5613POPC   C4B71086  35.031  36.135   7.659
 5614POPC   NC371087  44.151  42.355   5.193
 5614POPC   PO471088  43.681  42.625   5.506
 5614POPC   GL171089  44.039  42.527   5.749
 5614POPC   GL271090  44.060  42.163   5.855
 5614POPC   C1A71091  44.120  42.530   6.199
 5614POPC   D2A71092  43.953  42.200   6.490
 5614POPC   C3A71093  44.044  42.226   6.922
 5614POPC   C4A71094  43.908  42.411   7.314
 5614POPC   C1B71095  43.858  41.841   6.120
 5614POPC   C2B71096  43.650  41.738   6.491
 5614POPC   C3B71097  43.612  41.888   6.851
 5614POPC   C4B71098  43.727  41.944   7.253
 5615POPC   NC371099  14.321  33.271   5.505
 5615POPC   PO471100  14.686  32.740   5.681
 5615POPC   GL171101  14.593  33.069   5.885
 5615POPC   GL271102  14.271  32.887   5.955
 5615POPC   C1A71103  14.736  33.180   6.258
 5615POPC   D2A71104  14.605  32.949   6.579
 5615POPC   C3A71105  14.619  33.148   6.955
 5615POPC   C4A71106  14.627  32.906   7.283
 5615POPC   C1B71107  14.222  33.211   6.251
 5615POPC   C2B71108  14.141  33.174   6.686
 5615POPC   C3B71109  14.210  32.827   6.969
 5615POPC   C4B71110  14.104  32.782   7.406
 5616POPC   NC371111  17.691  39.682   5.373
 5616POPC   PO471112  17.540  40.361   5.599
 5616POPC   GL171113  17.395  39.989   5.807
 5616POPC   GL271114  17.044  40.089   5.876
 5616POPC   C1A71115  17.431  39.889   6.240
 5616POPC   D2A71116  17.708  39.822   6.584
 5616POPC   C3A71117  17.453  39.780   6.940
 5616POPC   C4A71118  17.680  39.838   7.301
 5616POPC   C1B71119  17.242  40.354   6.215
 5616POPC   C2B71120  17.370  40.247   6.653
 5616POPC   C3B71121  17.469  40.288   7.103
 5616POPC   C4B71122  17.741  40.311   7.461
 5617POPC   NC371123  43.138  30.908   5.475
 5617POPC   PO471124  43.027  30.299   5.535
 5617POPC   GL171125  43.300  30.549   5.818
 5617POPC   GL271126  43.037  30.770   5.936
 5617POPC   C1A71127  43.429  30.753   6.235
 5617POPC   D2A71128  43.202  30.716   6.610
 5617POPC   C3A71129  43.468  30.746   6.941
 5617POPC   C4A71130  43.363  30.786   7.348
 5617POPC   C1B71131  42.949  30.433   6.256
 5617POPC   C2B71132  42.798  30.411   6.699
 5617POPC   C3B71133  42.893  30.702   7.043
 5617POPC   C4B71134  42.840  30.662   7.462
 5618POPC   NC371135  25.616  20.610   5.428
 5618POPC   PO471136  24.982  20.215   5.530
 5618POPC   GL171137  25.170  20.447   5.858
 5618POPC   GL271138  25.254  20.739   5.777
 5618POPC   C1A71139  25.280  20.554   6.280
 5618POPC   D2A71140  25.129  20.369   6.650
 5618POPC   C3A71141  25.132  20.621   7.022
 5618POPC   C4A71142  25.449  20.660   7.334
 5618POPC   C1B71143  25.000  20.932   6.075
 5618POPC   C2B71144  25.126  20.997   6.510
 5618POPC   C3B71145  24.990  21.123   6.917
 5618POPC   C4B71146  24.878  20.974   7.328
 5619POPC   NC371147   5.211  10.170   5.377
 5619POPC   PO471148   5.008   9.528   5.479
 5619POPC   GL171149   5.147   9.828   5.766
 5619POPC   GL271150   5.384   9.588   5.874
 5619POPC   C1A71151   5.178  10.007   6.179
 5619POPC   D2A71152   4.960   9.932   6.570
 5619POPC   C3A71153   5.209  10.010   6.936
 5619POPC   C4A71154   5.103  10.074   7.378
 5619POPC   C1B71155   5.260   9.504   6.307
 5619POPC   C2B71156   5.220   9.513   6.749
 5619POPC   C3B71157   5.140   9.565   7.184
 5619POPC   C4B71158   5.077   9.625   7.633
 5620POPC   NC371159  10.050  11.795   5.640
 5620POPC   PO471160  10.595  11.961   5.211
 5620POPC   GL171161  10.605  12.017   5.677
 5620POPC   GL271162  10.338  12.079   5.926
 5620POPC   C1A71163  10.797  12.066   6.112
 5620POPC   D2A71164  10.579  12.193   6.493
 5620POPC   C3A71165  10.504  11.946   6.847
 5620POPC   C4A71166  10.475  12.013   7.277
 5620POPC   C1B71167  10.210  12.418   6.189
 5620POPC   C2B71168  10.285  12.616   6.570
 5620POPC   C3B71169  10.393  12.457   6.954
 5620POPC   C4B71170  10.253  12.457   7.364
 5621POPC   NC371171  32.671  27.030   5.422
 5621POPC   PO471172  32.155  26.516   5.285
 5621POPC   GL171173  32.249  26.650   5.747
 5621POPC   GL271174  32.193  26.990   5.823
 5621POPC   C1A71175  32.093  26.646   6.214
 5621POPC   D2A71176  32.317  26.602   6.609
 5621POPC   C3A71177  32.014  26.580   6.959
 5621POPC   C4A71178  32.065  26.735   7.350
 5621POPC   C1B71179  32.459  26.991   6.180
 5621POPC   C2B71180  32.394  27.135   6.579
 5621POPC   C3B71181  32.283  27.045   6.999
 5621POPC   C4B71182  32.080  27.278   7.336
 5622POPC   NC371183  38.523  35.267   5.404
 5622POPC   PO471184  38.707  35.838   5.357
 5622POPC   GL171185  38.577  35.532   5.817
 5622POPC   GL271186  38.228  35.311   5.823
 5622POPC   C1A71187  38.668  35.240   6.123
 5622POPC   D2A71188  38.613  35.169   6.554
 5622POPC   C3A71189  38.676  35.531   6.804
 5622POPC   C4A71190  38.628  35.286   7.150
 5622POPC   C1B71191  38.068  35.502   6.184
 5622POPC   C2B71192  38.226  35.558   6.568
 5622POPC   C3B71193  38.136  35.470   6.978
 5622POPC   C4B71194  37.962  35.825   7.154
 5623POPC   NC371195  41.382  34.274   5.423
 5623POPC   PO471196  41.497  33.548   5.429
 5623POPC   GL171197  41.499  33.767   5.789
 5623POPC   GL271198  41.786  33.958   5.666
 5623POPC   C1A71199  41.389  33.736   6.239
 5623POPC   D2A71200  41.221  33.652   6.659
 5623POPC   C3A71201  41.519  33.626   6.978
 5623POPC   C4A71202  41.281  33.721   7.346
 5623POPC   C1B71203  41.849  33.966   6.110
 5623POPC   C2B71204  41.897  33.839   6.532
 5623POPC   C3B71205  41.859  34.054   6.931
 5623POPC   C4B71206  41.751  33.949   7.329
 5624POPC   NC371207  43.939  13.305   5.511
 5624POPC   PO471208  43.735  13.996   5.589
 5624POPC   GL171209  43.991  13.691   5.888
 5624POPC   GL271210  43.835  13.323   5.991
 5624POPC   C1A71211  44.017  13.596   6.360
 5624POPC   D2A71212  44.132  13.252   6.637
 5624POPC   C3A71213  44.097  13.391   7.060
 5624POPC   C4A71214  44.265  13.468   7.502
 5624POPC   C1B71215  43.605  13.275   6.363
 5624POPC   C2B71216  43.405  13.501   6.682
 5624POPC   C3B71217  43.442  13.482   7.123
 5624POPC   C4B71218  43.745  13.444   7.408
 5625POPC   NC371219  31.851  20.362   5.507
 5625POPC   PO471220  32.071  19.719   5.461
 5625POPC   GL171221  32.165  19.875   5.850
 5625POPC   GL271222  32.152  20.223   5.972
 5625POPC   C1A71223  32.016  19.823   6.284
 5625POPC   D2A71224  32.099  20.017   6.704
 5625POPC   C3A71225  32.003  19.809   7.093
 5625POPC   C4A71226  32.251  19.729   7.505
 5625POPC   C1B71227  32.487  19.986   6.210
 5625POPC   C2B71228  32.722  19.979   6.552
 5625POPC   C3B71229  32.609  20.080   6.926
 5625POPC   C4B71230  32.723  19.980   7.352
 5626POPC   NC371231  23.253  30.976   5.377
 5626POPC   PO471232  22.606  30.891   5.269
 5626POPC   GL171233  22.742  30.719   5.703
 5626POPC   GL271234  23.044  30.926   5.826
 5626POPC   C1A71235  22.786  30.704   6.179
 5626POPC   D2A71236  22.930  30.563   6.585
 5626POPC   C3A71237  22.604  30.612   6.923
 5626POPC   C4A71238  22.653  30.527   7.364
 5626POPC   C1B71239  23.242  30.927   6.241
 5626POPC   C2B71240  23.138  31.020   6.670
 5626POPC   C3B71241  23.093  30.728   7.047
 5626POPC   C4B71242  23.393  30.646   7.341
 5627POPC   NC371243  31.910  22.340   5.629
 5627POPC   PO471244  31.478  22.082   5.221
 5627POPC   GL171245  31.424  22.134   5.692
 5627POPC   GL271246  31.413  22.455   5.862
 5627POPC   C1A71247  31.572  22.020   6.130
 5627POPC   D2A71248  31.585  21.881   6.526
 5627POPC   C3A71249  31.631  22.008   6.919
 5627POPC   C4A71250  31.297  22.040   7.187
 5627POPC   C1B71251  31.652  22.496   6.252
 5627POPC   C2B71252  31.830  22.441   6.687
 5627POPC   C3B71253  31.628  22.486   7.128
 5627POPC   C4B71254  31.180  22.514   7.260
 5628POPC   NC371255   7.734  39.709   5.513
 5628POPC   PO471256   7.184  40.056   5.668
 5628POPC   GL171257   7.546  40.013   5.888
 5628POPC   GL271258   7.631  40.348   5.918
 5628POPC   C1A71259   7.551  39.853   6.292
 5628POPC   D2A71260   7.221  39.843   6.569
 5628POPC   C3A71261   7.359  39.927   6.966
 5628POPC   C4A71262   7.148  39.698   7.293
 5628POPC   C1B71263   7.876  40.252   6.234
 5628POPC   C2B71264   7.925  40.053   6.609
 5628POPC   C3B71265   7.797  40.286   6.944
 5628POPC   C4B71266   7.631  40.230   7.336
 5629POPC   NC371267  34.480  22.435   5.548
 5629POPC   PO471268  34.644  23.075   5.458
 5629POPC   GL171269  34.608  22.881   5.870
 5629POPC   GL271270  34.856  22.602   5.852
 5629POPC   C1A71271  34.449  23.011   6.326
 5629POPC   D2A71272  34.287  23.349   6.631
 5629POPC   C3A71273  34.289  23.325   7.094
 5629POPC   C4A71274  34.679  23.313   7.275
 5629POPC   C1B71275  34.711  22.564   6.254
 5629POPC   C2B71276  34.847  22.734   6.628
 5629POPC   C3B71277  34.713  22.578   7.022
 5629POPC   C4B71278  34.469  22.837   7.182
 5630POPC   NC371279  11.608   3.575   5.422
 5630POPC   PO471280  10.985   3.289   5.573
 5630POPC   GL171281  11.289   3.489   5.818
 5630POPC   GL271282  11.614   3.279   5.824
 5630POPC   C1A71283  11.415   3.617   6.237
 5630POPC   D2A71284  11.444   3.843   6.632
 5630POPC   C3A71285  11.167   3.706   6.968
 5630POPC   C4A71286  10.743   3.849   7.044
 5630POPC   C1B71287  11.855   3.342   6.187
 5630POPC   C2B71288  11.768   3.446   6.607
 5630POPC   C3B71289  11.622   3.456   7.031
 5630POPC   C4B71290  11.560   3.232   7.444
 5631POPC   NC371291  18.841  37.423   5.413
 5631POPC   PO471292  18.643  38.024   5.394
 5631POPC   GL171293  18.404  37.904   5.776
 5631POPC   GL271294  18.255  37.553   5.778
 5631POPC   C1A71295  18.315  37.851   6.223
 5631POPC   D2A71296  18.283  37.529   6.551
 5631POPC   C3A71297  18.422  37.593   6.959
 5631POPC   C4A71298  18.311  37.914   7.239
 5631POPC   C1B71299  17.979  37.465   6.134
 5631POPC   C2B71300  17.895  37.206   6.526
 5631POPC   C3B71301  18.076  37.161   6.971
 5631POPC   C4B71302  18.096  37.450   7.348
 5632POPC   NC371303  31.899   9.952   5.357
 5632POPC   PO471304  31.598   9.418   5.564
 5632POPC   GL171305  31.507   9.750   5.757
 5632POPC   GL271306  31.192   9.620   5.883
 5632POPC   C1A71307  31.729   9.931   6.099
 5632POPC   D2A71308  31.652  10.103   6.516
 5632POPC   C3A71309  31.516   9.806   6.857
 5632POPC   C4A71310  31.550   9.844   7.324
 5632POPC   C1B71311  31.348   9.635   6.325
 5632POPC   C2B71312  31.108   9.515   6.715
 5632POPC   C3B71313  31.156   9.569   7.170
 5632POPC   C4B71314  31.212   9.578   7.656
 5633POPC   NC371315  16.823  39.189   5.368
 5633POPC   PO471316  17.269  38.731   5.692
 5633POPC   GL171317  16.889  38.955   5.869
 5633POPC   GL271318  16.638  39.248   5.830
 5633POPC   C1A71319  16.948  39.204   6.265
 5633POPC   D2A71320  16.791  39.392   6.637
 5633POPC   C3A71321  16.974  39.353   7.057
 5633POPC   C4A71322  17.050  38.957   7.270
 5633POPC   C1B71323  16.429  39.238   6.224
 5633POPC   C2B71324  16.281  39.437   6.583
 5633POPC   C3B71325  16.421  39.429   7.016
 5633POPC   C4B71326  16.553  39.087   7.236
 5634POPC   NC371327  12.416   1.952   5.199
 5634POPC   PO471328  11.872   1.744   5.548
 5634POPC   GL171329  11.967   2.034   5.893
 5634POPC   GL271330  12.280   2.222   5.921
 5634POPC   C1A71331  11.977   2.099   6.342
 5634POPC   D2A71332  11.878   2.439   6.615
 5634POPC   C3A71333  11.897   2.324   7.046
 5634POPC   C4A71334  12.018   1.968   7.280
 5634POPC   C1B71335  12.378   2.411   6.343
 5634POPC   C2B71336  12.358   2.198   6.763
 5634POPC   C3B71337  12.478   2.188   7.221
 5634POPC   C4B71338  12.472   2.211   7.692
 5635POPC   NC371339   7.945  31.562   5.412
 5635POPC   PO471340   8.553  31.371   5.555
 5635POPC   GL171341   8.249  31.545   5.813
 5635POPC   GL271342   8.514  31.573   6.017
 5635POPC   C1A71343   7.956  31.580   6.152
 5635POPC   D2A71344   8.231  31.585   6.522
 5635POPC   C3A71345   7.987  31.539   6.898
 5635POPC   C4A71346   7.763  31.368   7.214
 5635POPC   C1B71347   8.641  31.228   6.245
 5635POPC   C2B71348   8.715  31.291   6.636
 5635POPC   C3B71349   8.404  31.264   6.919
 5635POPC   C4B71350   8.300  31.444   7.319
 5636POPC   NC371351  27.954  18.571   5.521
 5636POPC   PO471352  27.468  18.133   5.512
 5636POPC   GL171353  27.761  18.218   5.851
 5636POPC   GL271354  27.962  17.903   5.952
 5636POPC   C1A71355  27.690  18.504   6.239
 5636POPC   D2A71356  27.865  18.484   6.671
 5636POPC   C3A71357  27.609  18.541   7.045
 5636POPC   C4A71358  27.792  18.419   7.461
 5636POPC   C1B71359  27.663  17.995   6.290
 5636POPC   C2B71360  27.426  18.222   6.598
 5636POPC   C3B71361  27.499  18.066   6.998
 5636POPC   C4B71362  27.340  18.160   7.426
 5637POPC   NC371363  30.885   7.750   5.288
 5637POPC   PO471364  30.379   7.319   5.217
 5637POPC   GL171365  30.651   7.240   5.607
 5637POPC   GL271366  30.736   7.535   5.769
 5637POPC   C1A71367  30.651   7.166   6.114
 5637POPC   D2A71368  30.401   7.240   6.525
 5637POPC   C3A71369  30.656   7.398   6.874
 5637POPC   C4A71370  30.966   7.146   7.100
 5637POPC   C1B71371  30.771   7.691   6.215
 5637POPC   C2B71372  30.927   7.890   6.613
 5637POPC   C3B71373  30.971   7.775   7.031
 5637POPC   C4B71374  30.794   7.615   7.374
 5638POPC   NC371375  44.145  38.896   5.732
 5638POPC   PO471376  44.448  39.326   5.296
 5638POPC   GL171377  44.531  39.304   5.785
 5638POPC   GL271378  44.452  39.092   6.079
 5638POPC   C1A71379  44.790  39.462   6.187
 5638POPC   D2A71380   0.038  39.382   6.600
 5638POPC   C3A71381  44.811  39.259   6.987
 5638POPC   C4A71382  44.914  39.085   7.403
 5638POPC   C1B71383  44.559  39.117   6.521
 5638POPC   C2B71384  44.319  39.151   6.881
 5638POPC   C3B71385  44.431  39.039   7.285
 5638POPC   C4B71386  44.523  38.956   7.716
 5639POPC   NC371387   6.732  24.314   5.408
 5639POPC   PO471388   6.345  24.872   5.275
 5639POPC   GL171389   6.370  24.625   5.689
 5639POPC   GL271390   6.709  24.624   5.802
 5639POPC   C1A71391   6.350  24.485   6.158
 5639POPC   D2A71392   6.561  24.535   6.588
 5639POPC   C3A71393   6.491  24.328   7.001
 5639POPC   C4A71394   6.404  24.573   7.374
 5639POPC   C1B71395   6.887  24.571   6.183
 5639POPC   C2B71396   7.104  24.520   6.557
 5639POPC   C3B71397   7.003  24.457   6.949
 5639POPC   C4B71398   6.954  24.184   7.235
 5640POPC   NC371399  44.954  34.635   5.407
 5640POPC   PO471400  44.235  34.352   5.320
 5640POPC   GL171401  44.475  34.336   5.736
 5640POPC   GL271402  44.654  34.675   5.814
 5640POPC   C1A71403  44.374  34.479   6.194
 5640POPC   D2A71404  44.510  34.448   6.592
 5640POPC   C3A71405  44.665  34.584   6.993
 5640POPC   C4A71406  44.386  34.439   7.300
 5640POPC   C1B71407  44.906  34.541   6.191
 5640POPC   C2B71408   0.072  34.509   6.632
 5640POPC   C3B71409   0.154  34.757   7.022
 5640POPC   C4B71410  44.949  35.077   7.290
 5641POPC   NC371411  27.045  13.115   5.438
 5641POPC   PO471412  26.479  12.693   5.511
 5641POPC   GL171413  26.735  12.880   5.818
 5641POPC   GL271414  27.064  12.957   5.944
 5641POPC   C1A71415  26.708  12.717   6.242
 5641POPC   D2A71416  26.613  12.809   6.684
 5641POPC   C3A71417  26.925  12.844   6.992
 5641POPC   C4A71418  26.739  12.545   7.195
 5641POPC   C1B71419  26.980  13.214   6.219
 5641POPC   C2B71420  26.897  13.205   6.605
 5641POPC   C3B71421  26.857  13.345   7.014
 5641POPC   C4B71422  26.823  13.186   7.442
 5642POPC   NC371423  16.328  21.656   5.563
 5642POPC   PO471424  15.898  21.108   5.475
 5642POPC   GL171425  15.924  21.433   5.837
 5642POPC   GL271426  15.661  21.709   5.889
 5642POPC   C1A71427  15.803  21.372   6.281
 5642POPC   D2A71428  15.772  21.089   6.605
 5642POPC   C3A71429  15.854  21.262   6.979
 5642POPC   C4A71430  15.748  21.476   7.313
 5642POPC   C1B71431  15.922  21.853   6.254
 5642POPC   C2B71432  15.912  21.712   6.697
 5642POPC   C3B71433  16.173  21.709   7.033
 5642POPC   C4B71434  16.518  21.765   7.349
 5643POPC   NC371435   0.985  32.257   5.345
 5643POPC   PO471436   1.561  32.114   5.359
 5643POPC   GL171437   1.367  32.291   5.741
 5643POPC   GL271438   1.059  32.126   5.865
 5643POPC   C1A71439   1.266  32.481   6.161
 5643POPC   D2A71440   0.970  32.303   6.475
 5643POPC   C3A71441   1.170  32.329   6.882
 5643POPC   C4A71442   1.268  32.564   7.270
 5643POPC   C1B71443   1.371  31.976   6.185
 5643POPC   C2B71444   1.517  32.021   6.612
 5643POPC   C3B71445   1.365  31.863   7.013
 5643POPC   C4B71446   1.096  32.058   7.314
 5644POPC   NC371447  30.731   0.385   5.156
 5644POPC   PO471448  31.409   0.233   5.346
 5644POPC   GL171449  31.022   0.346   5.727
 5644POPC   GL271450  30.782   0.554   5.934
 5644POPC   C1A71451  30.888   0.112   6.128
 5644POPC   D2A71452  30.598   0.186   6.477
 5644POPC   C3A71453  30.733   0.369   6.868
 5644POPC   C4A71454  30.871   0.149   7.231
 5644POPC   C1B71455  30.421   0.576   6.204
 5644POPC   C2B71456  30.300   0.577   6.626
 5644POPC   C3B71457  30.396   0.714   7.063
 5644POPC   C4B71458  30.779   0.695   7.268
 5645POPC   NC371459  14.816   1.989   5.388
 5645POPC   PO471460  14.335   2.329   5.167
 5645POPC   GL171461  14.543   2.244   5.724
 5645POPC   GL271462  14.295   2.099   5.924
 5645POPC   C1A71463  14.652   1.933   6.190
 5645POPC   D2A71464  14.422   1.842   6.597
 5645POPC   C3A71465  14.577   1.968   6.985
 5645POPC   C4A71466  14.503   1.799   7.387
 5645POPC   C1B71467  14.152   2.174   6.276
 5645POPC   C2B71468  13.984   2.141   6.639
 5645POPC   C3B71469  14.123   2.234   7.009
 5645POPC   C4B71470  14.233   2.231   7.381
 5646POPC   NC371471  44.966  42.645   5.435
 5646POPC   PO471472  44.469  43.240   5.483
 5646POPC   GL171473  44.690  43.277   5.866
 5646POPC   GL271474  44.976  43.067   5.909
 5646POPC   C1A71475  44.665  43.581   6.190
 5646POPC   D2A71476  44.534  43.632   6.577
 5646POPC   C3A71477  44.497  43.256   6.817
 5646POPC   C4A71478  44.719  43.089   7.159
 5646POPC   C1B71479  44.774  43.081   6.326
 5646POPC   C2B71480  44.917  42.954   6.711
 5646POPC   C3B71481  44.858  42.629   6.966
 5646POPC   C4B71482  44.944  42.670   7.360
 5647POPC   NC371483  44.853  41.968   5.148
 5647POPC   PO471484  44.620  41.390   5.497
 5647POPC   GL171485  44.788  41.472   5.924
 5647POPC   GL271486  44.557  41.687   6.109
 5647POPC   C1A71487  44.882  41.378   6.349
 5647POPC   D2A71488  44.573  41.513   6.614
 5647POPC   C3A71489  44.813  41.322   6.908
 5647POPC   C4A71490   0.013  41.387   7.271
 5647POPC   C1B71491  44.905  41.894   6.335
 5647POPC   C2B71492  44.953  41.807   6.796
 5647POPC   C3B71493  44.586  41.740   7.089
 5647POPC   C4B71494  44.343  42.057   7.326
 5648POPC   NC371495  24.879  31.124   5.553
 5648POPC   PO471496  24.533  30.501   5.487
 5648POPC   GL171497  24.453  30.630   5.874
 5648POPC   GL271498  24.587  30.363   6.027
 5648POPC   C1A71499  24.671  30.839   6.231
 5648POPC   D2A71500  24.503  30.906   6.658
 5648POPC   C3A71501  24.387  30.671   7.028
 5648POPC   C4A71502  24.614  30.979   7.207
 5648POPC   C1B71503  24.478  30.426   6.455
 5648POPC   C2B71504  24.716  30.335   6.830
 5648POPC   C3B71505  24.621  30.193   7.252
 5648POPC   C4B71506  24.680  30.368   7.712
 5649POPC   NC371507  36.441  36.067   5.461
 5649POPC   PO471508  35.911  35.848   5.190
 5649POPC   GL171509  35.969  35.997   5.703
 5649POPC   GL271510  36.223  36.198   5.897
 5649POPC   C1A71511  35.912  35.960   6.204
 5649POPC   D2A71512  36.209  36.069   6.573
 5649POPC   C3A71513  36.068  35.971   7.006
 5649POPC   C4A71514  35.740  35.713   7.224
 5649POPC   C1B71515  36.068  36.454   6.220
 5649POPC   C2B71516  36.236  36.619   6.593
 5649POPC   C3B71517  36.305  36.450   6.995
 5649POPC   C4B71518  36.228  36.521   7.406
 5650POPC   NC371519  25.141  14.660   5.546
 5650POPC   PO471520  25.597  14.205   5.518
 5650POPC   GL171521  25.371  14.290   5.839
 5650POPC   GL271522  25.509  14.619   5.943
 5650POPC   C1A71523  25.403  14.122   6.227
 5650POPC   D2A71524  25.177  14.199   6.593
 5650POPC   C3A71525  25.365  14.300   6.987
 5650POPC   C4A71526  25.224  14.118   7.352
 5650POPC   C1B71527  25.157  14.579   6.257
 5650POPC   C2B71528  24.980  14.676   6.689
 5650POPC   C3B71529  25.108  14.737   7.131
 5650POPC   C4B71530  25.026  14.837   7.583
 5651POPC   NC371531  24.212  16.021   5.122
 5651POPC   PO471532  24.896  15.848   5.395
 5651POPC   GL171533  24.534  16.105   5.569
 5651POPC   GL271534  24.799  16.226   5.773
 5651POPC   C1A71535  24.370  16.035   6.025
 5651POPC   D2A71536  24.498  15.912   6.456
 5651POPC   C3A71537  24.333  15.806   6.869
 5651POPC   C4A71538  24.389  15.899   7.309
 5651POPC   C1B71539  24.959  15.900   6.066
 5651POPC   C2B71540  24.977  15.703   6.460
 5651POPC   C3B71541  24.847  15.763   6.823
 5651POPC   C4B71542  24.750  15.535   7.157
 5652POPC   NC371543  16.727  21.823   5.139
 5652POPC   PO471544  16.892  21.205   5.412
 5652POPC   GL171545  16.764  21.429   5.781
 5652POPC   GL271546  16.443  21.229   5.854
 5652POPC   C1A71547  16.858  21.325   6.218
 5652POPC   D2A71548  16.707  21.165   6.602
 5652POPC   C3A71549  16.700  21.401   7.001
 5652POPC   C4A71550  16.784  21.326   7.427
 5652POPC   C1B71551  16.335  21.492   6.218
 5652POPC   C2B71552  16.235  21.333   6.620
 5652POPC   C3B71553  16.334  21.071   6.961
 5652POPC   C4B71554  16.271  21.323   7.318
 5653POPC   NC371555  38.648  11.644   5.520
 5653POPC   PO471556  38.351  12.305   5.715
 5653POPC   GL171557  38.517  11.971   5.878
 5653POPC   GL271558  38.197  11.809   5.850
 5653POPC   C1A71559  38.773  11.903   6.216
 5653POPC   D2A71560  38.663  11.929   6.641
 5653POPC   C3A71561  38.594  12.300   6.877
 5653POPC   C4A71562  38.597  12.261   7.296
 5653POPC   C1B71563  38.215  11.911   6.307
 5653POPC   C2B71564  38.119  12.143   6.698
 5653POPC   C3B71565  38.155  12.067   7.136
 5653POPC   C4B71566  38.047  11.655   7.269
 5654POPC   NC371567  32.961   6.292   5.461
 5654POPC   PO471568  33.288   5.633   5.427
 5654POPC   GL171569  33.095   5.717   5.779
 5654POPC   GL271570  33.177   6.037   5.830
 5654POPC   C1A71571  33.023   5.623   6.207
 5654POPC   D2A71572  32.813   5.860   6.543
 5654POPC   C3A71573  32.713   5.734   6.960
 5654POPC   C4A71574  33.072   5.658   7.187
 5654POPC   C1B71575  33.333   6.146   6.195
 5654POPC   C2B71576  33.353   5.864   6.525
 5654POPC   C3B71577  33.414   5.923   6.935
 5654POPC   C4B71578  33.444   6.304   7.131
 5655POPC   NC371579  32.481  42.486   5.158
 5655POPC   PO471580  31.999  42.132   5.344
 5655POPC   GL171581  32.148  42.484   5.681
 5655POPC   GL271582  32.510  42.498   5.755
 5655POPC   C1A71583  32.099  42.561   6.113
 5655POPC   D2A71584  32.179  42.308   6.480
 5655POPC   C3A71585  32.069  42.372   6.912
 5655POPC   C4A71586  32.229  42.126   7.199
 5655POPC   C1B71587  32.637  42.685   6.103
 5655POPC   C2B71588  32.669  42.508   6.496
 5655POPC   C3B71589  32.596  42.291   6.856
 5655POPC   C4B71590  32.538  42.536   7.185
 5656POPC   NC371591   7.771  41.545   5.126
 5656POPC   PO471592   8.317  41.822   5.372
 5656POPC   GL171593   8.145  41.682   5.775
 5656POPC   GL271594   8.006  41.960   5.960
 5656POPC   C1A71595   8.188  41.379   6.158
 5656POPC   D2A71596   8.259  41.056   6.516
 5656POPC   C3A71597   8.206  41.317   6.867
 5656POPC   C4A71598   8.479  41.656   6.988
 5656POPC   C1B71599   7.744  41.933   6.327
 5656POPC   C2B71600   7.818  41.670   6.656
 5656POPC   C3B71601   7.993  41.774   7.045
 5656POPC   C4B71602   8.162  42.096   7.281
 5657POPC   NC371603   0.958  36.290   5.125
 5657POPC   PO471604   1.331  35.858   5.495
 5657POPC   GL171605   1.358  36.132   5.863
 5657POPC   GL271606   1.329  35.836   6.042
 5657POPC   C1A71607   1.374  36.470   6.219
 5657POPC   D2A71608   1.586  36.681   6.593
 5657POPC   C3A71609   1.478  36.463   6.970
 5657POPC   C4A71610   1.122  36.359   7.234
 5657POPC   C1B71611   1.066  36.082   6.317
 5657POPC   C2B71612   1.020  36.190   6.758
 5657POPC   C3B71613   0.970  35.876   7.080
 5657POPC   C4B71614   1.328  35.645   7.178
 5658POPC   NC371615  13.131  32.110   5.476
 5658POPC   PO471616  12.790  32.689   5.615
 5658POPC   GL171617  12.864  32.330   5.889
 5658POPC   GL271618  13.021  32.007   5.971
 5658POPC   C1A71619  12.934  32.387   6.310
 5658POPC   D2A71620  12.945  32.136   6.631
 5658POPC   C3A71621  12.820  32.378   6.955
 5658POPC   C4A71622  12.829  32.304   7.383
 5658POPC   C1B71623  12.620  31.957   6.221
 5658POPC   C2B71624  12.558  31.811   6.679
 5658POPC   C3B71625  12.669  31.882   7.136
 5658POPC   C4B71626  12.807  31.836   7.594
 5659POPC   NC371627  19.979  15.404   5.344
 5659POPC   PO471628  19.443  15.114   5.676
 5659POPC   GL171629  19.772  14.999   5.952
 5659POPC   GL271630  20.141  15.047   5.835
 5659POPC   C1A71631  19.561  14.906   6.353
 5659POPC   D2A71632  19.373  15.193   6.648
 5659POPC   C3A71633  19.677  15.187   6.968
 5659POPC   C4A71634  19.692  15.054   7.352
 5659POPC   C1B71635  20.218  15.204   6.271
 5659POPC   C2B71636  20.228  15.021   6.687
 5659POPC   C3B71637  20.195  15.241   7.074
 5659POPC   C4B71638  20.085  15.405   7.463
 5660POPC   NC371639  32.695  40.352   5.530
 5660POPC   PO471640  33.300  40.205   5.197
 5660POPC   GL171641  33.147  39.936   5.566
 5660POPC   GL271642  32.806  39.815   5.670
 5660POPC   C1A71643  33.219  39.844   6.018
 5660POPC   D2A71644  33.182  40.216   6.338
 5660POPC   C3A71645  33.142  40.161   6.786
 5660POPC   C4A71646  33.142  40.044   7.223
 5660POPC   C1B71647  32.748  40.004   6.110
 5660POPC   C2B71648  32.679  40.115   6.553
 5660POPC   C3B71649  32.729  39.894   6.961
 5660POPC   C4B71650  32.639  40.056   7.354
 5661POPC   NC371651  17.697   9.927   5.204
 5661POPC   PO471652  17.145   9.818   5.505
 5661POPC   GL171653  17.429   9.759   5.791
 5661POPC   GL271654  17.269   9.463   5.895
 5661POPC   C1A71655  17.409   9.919   6.213
 5661POPC   D2A71656  17.602   9.809   6.595
 5661POPC   C3A71657  17.396   9.700   6.969
 5661POPC   C4A71658  17.375   9.907   7.356
 5661POPC   C1B71659  17.586   9.426   6.202
 5661POPC   C2B71660  17.678   9.288   6.620
 5661POPC   C3B71661  17.692   9.244   7.050
 5661POPC   C4B71662  17.446   9.372   7.405
 5662POPC   NC371663  39.262  43.398   5.500
 5662POPC   PO471664  39.201  42.672   5.520
 5662POPC   GL171665  39.291  42.951   5.857
 5662POPC   GL271666  39.036  43.150   5.854
 5662POPC   C1A71667  39.302  43.096   6.322
 5662POPC   D2A71668  39.317  42.966   6.788
 5662POPC   C3A71669  39.306  43.102   7.265
 5662POPC   C4A71670  39.532  43.124   7.699
 5662POPC   C1B71671  38.959  43.459   6.159
 5662POPC   C2B71672  39.151  43.562   6.560
 5662POPC   C3B71673  39.016  43.369   6.936
 5662POPC   C4B71674  38.848  43.413   7.305
 5663POPC   NC371675   0.179  30.368   5.568
 5663POPC   PO471676   0.493  30.940   5.377
 5663POPC   GL171677   0.332  30.817   5.795
 5663POPC   GL271678   0.108  31.081   5.866
 5663POPC   C1A71679   0.341  30.599   6.224
 5663POPC   D2A71680   0.137  30.504   6.605
 5663POPC   C3A71681   0.378  30.341   6.955
 5663POPC   C4A71682   0.473  30.535   7.329
 5663POPC   C1B71683   0.312  31.102   6.251
 5663POPC   C2B71684   0.446  30.920   6.627
 5663POPC   C3B71685   0.205  30.868   6.987
 5663POPC   C4B71686   0.153  30.938   7.405
 5664POPC   NC371687   8.698  30.924   5.519
 5664POPC   PO471688   8.947  30.223   5.319
 5664POPC   GL171689   9.011  30.543   5.716
 5664POPC   GL271690   9.353  30.666   5.817
 5664POPC   C1A71691   8.921  30.776   6.139
 5664POPC   D2A71692   9.016  30.886   6.591
 5664POPC   C3A71693   8.742  30.850   6.933
 5664POPC   C4A71694   8.764  30.937   7.348
 5664POPC   C1B71695   9.278  30.397   6.177
 5664POPC   C2B71696   9.362  30.518   6.588
 5664POPC   C3B71697   9.294  30.679   6.998
 5664POPC   C4B71698   9.418  30.370   7.320
 5665POPC   NC371699   3.704  15.946   5.096
 5665POPC   PO471700   3.156  15.876   5.528
 5665POPC   GL171701   3.423  16.078   5.853
 5665POPC   GL271702   3.758  16.180   5.837
 5665POPC   C1A71703   3.455  16.099   6.286
 5665POPC   D2A71704   3.673  16.086   6.685
 5665POPC   C3A71705   3.418  16.104   7.059
 5665POPC   C4A71706   3.179  15.795   7.267
 5665POPC   C1B71707   3.893  15.863   6.173
 5665POPC   C2B71708   4.021  15.722   6.604
 5665POPC   C3B71709   3.755  15.666   6.991
 5665POPC   C4B71710   3.838  15.762   7.421
 5666POPC   NC371711  20.225   2.788   5.351
 5666POPC   PO471712  19.608   2.939   5.398
 5666POPC   GL171713  19.882   2.869   5.782
 5666POPC   GL271714  20.034   2.546   5.788
 5666POPC   C1A71715  19.819   2.767   6.253
 5666POPC   D2A71716  19.933   2.941   6.701
 5666POPC   C3A71717  19.824   2.797   7.145
 5666POPC   C4A71718  19.810   3.002   7.600
 5666POPC   C1B71719  20.171   2.362   6.176
 5666POPC   C2B71720  20.142   2.451   6.619
 5666POPC   C3B71721  20.252   2.341   7.038
 5666POPC   C4B71722  19.970   2.161   7.357
 5667POPC   NC371723  12.942   6.992   5.401
 5667POPC   PO471724  12.605   6.522   5.170
 5667POPC   GL171725  12.632   6.483   5.664
 5667POPC   GL271726  12.825   6.725   5.854
 5667POPC   C1A71727  12.553   6.425   6.151
 5667POPC   D2A71728  12.746   6.345   6.561
 5667POPC   C3A71729  12.629   6.535   6.979
 5667POPC   C4A71730  12.879   6.791   7.303
 5667POPC   C1B71731  13.038   6.639   6.250
 5667POPC   C2B71732  12.919   6.854   6.637
 5667POPC   C3B71733  13.094   7.116   6.942
 5667POPC   C4B71734  13.357   6.952   7.255
 5668POPC   NC371735  17.422   2.129   5.413
 5668POPC   PO471736  17.698   1.568   5.502
 5668POPC   GL171737  17.633   1.864   5.807
 5668POPC   GL271738  17.273   1.794   5.776
 5668POPC   C1A71739  17.708   2.066   6.210
 5668POPC   D2A71740  17.558   2.169   6.634
 5668POPC   C3A71741  17.664   1.924   6.991
 5668POPC   C4A71742  17.602   2.192   7.338
 5668POPC   C1B71743  17.202   1.991   6.138
 5668POPC   C2B71744  17.200   1.827   6.543
 5668POPC   C3B71745  17.158   1.981   6.939
 5668POPC   C4B71746  17.198   1.881   7.340
 5669POPC   NC371747  10.002   2.596   5.328
 5669POPC   PO471748  10.433   3.108   5.320
 5669POPC   GL171749  10.555   2.973   5.733
 5669POPC   GL271750  10.337   2.704   5.789
 5669POPC   C1A71751  10.762   2.867   6.123
 5669POPC   D2A71752  10.826   2.997   6.563
 5669POPC   C3A71753  10.613   2.773   6.932
 5669POPC   C4A71754  10.432   2.901   7.363
 5669POPC   C1B71755  10.340   2.577   6.238
 5669POPC   C2B71756  10.158   2.617   6.691
 5669POPC   C3B71757  10.216   2.497   7.145
 5669POPC   C4B71758  10.250   2.440   7.612
 5670POPC   NC371759   2.146  15.298   5.402
 5670POPC   PO471760   1.590  14.930   5.259
 5670POPC   GL171761   1.771  14.926   5.697
 5670POPC   GL271762   2.141  14.944   5.794
 5670POPC   C1A71763   1.748  15.020   6.142
 5670POPC   D2A71764   1.765  15.320   6.455
 5670POPC   C3A71765   1.864  15.229   6.870
 5670POPC   C4A71766   1.865  15.313   7.291
 5670POPC   C1B71767   2.201  15.260   6.122
 5670POPC   C2B71768   2.248  15.441   6.546
 5670POPC   C3B71769   2.374  15.309   6.908
 5670POPC   C4B71770   2.322  15.539   7.254
 5671POPC   NC371771  28.131   5.294   5.433
 5671POPC   PO471772  28.582   4.827   5.442
 5671POPC   GL171773  28.390   4.990   5.788
 5671POPC   GL271774  28.496   5.311   5.814
 5671POPC   C1A71775  28.491   4.856   6.195
 5671POPC   D2A71776  28.224   4.838   6.532
 5671POPC   C3A71777  28.377   4.834   6.921
 5671POPC   C4A71778  28.481   5.003   7.315
 5671POPC   C1B71779  28.237   5.311   6.177
 5671POPC   C2B71780  28.090   5.331   6.598
 5671POPC   C3B71781  28.278   5.341   6.995
 5671POPC   C4B71782  28.089   5.300   7.408
 5672POPC   NC371783  24.445  32.025   5.546
 5672POPC   PO471784  24.859  32.564   5.458
 5672POPC   GL171785  24.643  32.403   5.861
 5672POPC   GL271786  24.258  32.303   5.926
 5672POPC   C1A71787  24.629  32.192   6.275
 5672POPC   D2A71788  24.773  32.231   6.701
 5672POPC   C3A71789  24.425  32.180   7.025
 5672POPC   C4A71790  24.427  32.320   7.429
 5672POPC   C1B71791  24.122  32.037   6.270
 5672POPC   C2B71792  24.141  31.810   6.659
 5672POPC   C3B71793  23.934  31.997   6.995
 5672POPC   C4B71794  23.999  32.068   7.438
 5673POPC   NC371795  32.715  10.067   5.516
 5673POPC   PO471796  32.323  10.563   5.339
 5673POPC   GL171797  32.278  10.460   5.763
 5673POPC   GL271798  32.097  10.152   5.797
 5673POPC   C1A71799  32.272  10.668   6.156
 5673POPC   D2A71800  32.504  10.645   6.533
 5673POPC   C3A71801  32.294  10.797   6.892
 5673POPC   C4A71802  32.137  10.585   7.210
 5673POPC   C1B71803  32.149  10.185   6.266
 5673POPC   C2B71804  32.159  10.175   6.715
 5673POPC   C3B71805  32.150  10.084   7.152
 5673POPC   C4B71806  32.507  10.118   7.414
 5674POPC   NC371807  29.658  21.597   5.266
 5674POPC   PO471808  30.152  21.172   5.461
 5674POPC   GL171809  29.833  21.329   5.745
 5674POPC   GL271810  29.777  21.705   5.793
 5674POPC   C1A71811  29.829  21.210   6.191
 5674POPC   D2A71812  30.157  21.257   6.519
 5674POPC   C3A71813  30.069  21.235   6.983
 5674POPC   C4A71814  30.149  21.121   7.443
 5674POPC   C1B71815  29.864  21.712   6.269
 5674POPC   C2B71816  29.694  21.472   6.659
 5674POPC   C3B71817  29.730  21.593   7.138
 5674POPC   C4B71818  29.665  21.732   7.580
 5675POPC   NC371819  19.176  38.322   5.127
 5675POPC   PO471820  19.238  37.670   5.349
 5675POPC   GL171821  19.278  37.862   5.713
 5675POPC   GL271822  18.927  37.781   5.786
 5675POPC   C1A71823  19.301  37.802   6.156
 5675POPC   D2A71824  19.171  37.539   6.497
 5675POPC   C3A71825  19.097  37.673   6.904
 5675POPC   C4A71826  18.879  37.498   7.247
 5675POPC   C1B71827  18.779  37.646   6.181
 5675POPC   C2B71828  18.715  37.833   6.586
 5675POPC   C3B71829  18.741  38.021   6.993
 5675POPC   C4B71830  18.769  37.987   7.433
 5676POPC   NC371831   9.096   4.008   5.661
 5676POPC   PO471832   8.795   3.414   5.487
 5676POPC   GL171833   8.807   3.647   5.834
 5676POPC   GL271834   9.146   3.555   5.897
 5676POPC   C1A71835   8.814   3.630   6.290
 5676POPC   D2A71836   8.718   3.301   6.571
 5676POPC   C3A71837   8.872   3.378   6.983
 5676POPC   C4A71838   8.922   3.713   7.310
 5676POPC   C1B71839   9.206   3.297   6.247
 5676POPC   C2B71840   9.163   3.059   6.628
 5676POPC   C3B71841   9.307   3.076   7.004
 5676POPC   C4B71842   9.231   3.303   7.351
 5677POPC   NC371843  23.861  41.461   5.457
 5677POPC   PO471844  23.756  40.865   5.670
 5677POPC   GL171845  23.580  41.307   5.913
 5677POPC   GL271846  23.564  41.675   5.831
 5677POPC   C1A71847  23.686  41.581   6.332
 5677POPC   D2A71848  23.871  41.514   6.774
 5677POPC   C3A71849  23.704  41.690   7.170
 5677POPC   C4A71850  23.680  41.530   7.614
 5677POPC   C1B71851  23.242  41.771   6.138
 5677POPC   C2B71852  23.244  41.811   6.593
 5677POPC   C3B71853  23.301  41.959   7.027
 5677POPC   C4B71854  23.406  41.940   7.498
 5678POPC   NC371855  11.137  27.718   5.531
 5678POPC   PO471856  11.604  27.388   5.423
 5678POPC   GL171857  11.417  27.363   5.829
 5678POPC   GL271858  11.106  27.199   5.879
 5678POPC   C1A71859  11.521  27.300   6.260
 5678POPC   D2A71860  11.605  27.331   6.703
 5678POPC   C3A71861  11.598  27.645   7.009
 5678POPC   C4A71862  11.413  27.543   7.421
 5678POPC   C1B71863  11.060  27.545   6.189
 5678POPC   C2B71864  11.150  27.618   6.618
 5678POPC   C3B71865  11.122  27.452   7.008
 5678POPC   C4B71866  10.863  27.611   7.351
 5679POPC   NC371867   0.032  25.920   5.239
 5679POPC   PO471868  44.388  26.099   5.346
 5679POPC   GL171869  44.705  26.020   5.702
 5679POPC   GL271870  44.846  25.688   5.704
 5679POPC   C1A71871  44.653  26.117   6.164
 5679POPC   D2A71872  44.745  26.311   6.555
 5679POPC   C3A71873  44.713  26.083   6.937
 5679POPC   C4A71874  44.642  26.226   7.351
 5679POPC   C1B71875  44.446  25.679   5.993
 5679POPC   C2B71876  44.315  25.811   6.412
 5679POPC   C3B71877  44.405  25.621   6.807
 5679POPC   C4B71878  44.406  25.737   7.208
 5680POPC   NC371879  12.991  20.677   5.390
 5680POPC   PO471880  12.261  20.954   5.337
 5680POPC   GL171881  12.573  20.735   5.704
 5680POPC   GL271882  12.948  20.828   5.884
 5680POPC   C1A71883  12.617  20.612   6.186
 5680POPC   D2A71884  12.691  20.779   6.619
 5680POPC   C3A71885  12.694  20.445   6.944
 5680POPC   C4A71886  12.578  20.498   7.386
 5680POPC   C1B71887  13.135  20.838   6.313
 5680POPC   C2B71888  13.148  20.549   6.674
 5680POPC   C3B71889  13.134  20.649   7.113
 5680POPC   C4B71890  13.180  20.435   7.476
 5681POPC   NC371891  31.250  27.559   5.596
 5681POPC   PO471892  31.885  27.309   5.509
 5681POPC   GL171893  31.690  27.485   5.870
 5681POPC   GL271894  31.446  27.202   5.891
 5681POPC   C1A71895  31.470  27.527   6.279
 5681POPC   D2A71896  31.636  27.366   6.668
 5681POPC   C3A71897  31.664  27.581   7.066
 5681POPC   C4A71898  31.259  27.739   7.199
 5681POPC   C1B71899  31.146  27.126   6.236
 5681POPC   C2B71900  31.121  27.321   6.662
 5681POPC   C3B71901  31.289  27.230   7.083
 5681POPC   C4B71902  31.344  27.360   7.531
 5682POPC   NC371903   9.909  21.042   5.133
 5682POPC   PO471904   9.670  21.536   5.619
 5682POPC   GL171905   9.657  21.375   5.998
 5682POPC   GL271906   9.401  21.155   5.902
 5682POPC   C1A71907   9.817  21.540   6.378
 5682POPC   D2A71908   9.852  21.895   6.679
 5682POPC   C3A71909   9.948  21.776   7.115
 5682POPC   C4A71910   9.739  21.696   7.502
 5682POPC   C1B71911   9.392  20.921   6.255
 5682POPC   C2B71912   9.590  21.088   6.596
 5682POPC   C3B71913   9.893  21.340   6.843
 5682POPC   C4B71914   9.991  21.260   7.265
 5683POPC   NC371915   4.949  24.642   5.385
 5683POPC   PO471916   5.575  24.401   5.470
 5683POPC   GL171917   5.377  24.345   5.883
 5683POPC   GL271918   5.011  24.452   5.867
 5683POPC   C1A71919   5.243  24.280   6.320
 5683POPC   D2A71920   5.215  24.151   6.735
 5683POPC   C3A71921   5.302  24.352   7.122
 5683POPC   C4A71922   5.149  24.668   7.428
 5683POPC   C1B71923   4.777  24.483   6.257
 5683POPC   C2B71924   4.929  24.578   6.681
 5683POPC   C3B71925   4.751  24.690   7.072
 5683POPC   C4B71926   4.630  24.504   7.441
 5684POPC   NC371927  23.625  10.470   5.386
 5684POPC   PO471928  24.331  10.543   5.330
 5684POPC   GL171929  24.011  10.517   5.744
 5684POPC   GL271930  24.102  10.252   5.996
 5684POPC   C1A71931  23.622  10.408   6.043
 5684POPC   D2A71932  23.683  10.282   6.474
 5684POPC   C3A71933  23.708  10.603   6.798
 5684POPC   C4A71934  23.647  10.506   7.223
 5684POPC   C1B71935  24.036  10.642   6.235
 5684POPC   C2B71936  24.095  10.916   6.562
 5684POPC   C3B71937  24.205  10.788   6.953
 5684POPC   C4B71938  24.055  10.832   7.386
 5685POPC   NC371939   6.213   8.792   5.592
 5685POPC   PO471940   6.639   9.167   5.161
 5685POPC   GL171941   6.608   9.172   5.671
 5685POPC   GL271942   6.864   8.984   5.927
 5685POPC   C1A71943   6.595   9.362   6.111
 5685POPC   D2A71944   6.788   9.215   6.519
 5685POPC   C3A71945   6.563   9.210   6.930
 5685POPC   C4A71946   6.867   9.392   7.161
 5685POPC   C1B71947   6.527   8.868   6.261
 5685POPC   C2B71948   6.600   8.733   6.706
 5685POPC   C3B71949   6.694   8.762   7.165
 5685POPC   C4B71950   6.588   8.654   7.622
 5686POPC   NC371951  22.111   5.799   5.415
 5686POPC   PO471952  22.517   6.335   5.489
 5686POPC   GL171953  22.296   6.093   5.810
 5686POPC   GL271954  22.335   5.739   5.863
 5686POPC   C1A71955  22.166   6.047   6.227
 5686POPC   D2A71956  22.376   5.871   6.560
 5686POPC   C3A71957  22.166   5.956   6.936
 5686POPC   C4A71958  22.092   5.774   7.330
 5686POPC   C1B71959  22.042   5.534   6.181
 5686POPC   C2B71960  21.990   5.566   6.617
 5686POPC   C3B71961  21.897   5.433   7.015
 5686POPC   C4B71962  21.911   5.179   7.383
 5687POPC   NC371963  42.945  27.122   5.461
 5687POPC   PO471964  43.269  26.514   5.537
 5687POPC   GL171965  43.138  26.704   5.900
 5687POPC   GL271966  42.952  27.009   5.955
 5687POPC   C1A71967  43.328  26.735   6.288
 5687POPC   D2A71968  43.136  26.689   6.672
 5687POPC   C3A71969  43.373  26.780   7.017
 5687POPC   C4A71970  43.027  26.765   7.280
 5687POPC   C1B71971  43.233  27.240   6.202
 5687POPC   C2B71972  43.326  27.157   6.623
 5687POPC   C3B71973  42.998  27.157   6.914
 5687POPC   C4B71974  42.856  27.228   7.308
 5688POPC   NC371975   7.930  13.215   5.064
 5688POPC   PO471976   8.343  12.760   5.379
 5688POPC   GL171977   7.962  12.767   5.696
 5688POPC   GL271978   7.836  12.441   5.861
 5688POPC   C1A71979   7.914  12.968   6.120
 5688POPC   D2A71980   8.141  13.142   6.492
 5688POPC   C3A71981   7.998  13.072   6.942
 5688POPC   C4A71982   8.079  12.645   7.129
 5688POPC   C1B71983   8.214  12.537   6.132
 5688POPC   C2B71984   8.384  12.373   6.545
 5688POPC   C3B71985   8.520  12.396   6.980
 5688POPC   C4B71986   8.472  12.369   7.428
 5689POPC   NC371987  23.278   1.804   5.515
 5689POPC   PO471988  22.706   2.082   5.625
 5689POPC   GL171989  22.897   1.766   5.866
 5689POPC   GL271990  23.179   1.966   6.004
 5689POPC   C1A71991  22.869   1.546   6.255
 5689POPC   D2A71992  22.898   1.634   6.697
 5689POPC   C3A71993  22.626   1.972   6.814
 5689POPC   C4A71994  22.613   1.901   7.238
 5689POPC   C1B71995  23.510   2.253   6.201
 5689POPC   C2B71996  23.423   2.439   6.583
 5689POPC   C3B71997  23.042   2.290   6.776
 5689POPC   C4B71998  23.091   1.996   7.109
 5690POPC   NC371999  37.195  36.459   5.524
 5690POPC   PO472000  36.886  35.874   5.411
 5690POPC   GL172001  36.839  36.141   5.798
 5690POPC   GL272002  36.660  36.465   5.816
 5690POPC   C1A72003  36.673  36.086   6.223
 5690POPC   D2A72004  36.711  35.795   6.574
 5690POPC   C3A72005  36.582  36.005   6.935
 5690POPC   C4A72006  36.748  36.283   7.208
 5690POPC   C1B72007  37.004  36.509   6.154
 5690POPC   C2B72008  37.110  36.612   6.577
 5690POPC   C3B72009  37.178  36.472   7.007
 5690POPC   C4B72010  37.082  36.547   7.484
 5691POPC   NC372011  41.214   0.533   5.589
 5691POPC   PO472012  40.660   0.314   5.236
 5691POPC   GL172013  40.657   0.475   5.663
 5691POPC   GL272014  40.810   0.205   5.762
 5691POPC   C1A72015  40.420   0.300   6.051
 5691POPC   D2A72016  40.360   0.445   6.447
 5691POPC   C3A72017  40.507   0.309   6.841
 5691POPC   C4A72018  40.623   0.645   7.082
 5691POPC   C1B72019  40.923   0.384   6.161
 5691POPC   C2B72020  40.938   0.221   6.555
 5691POPC   C3B72021  41.024   0.356   6.962
 5691POPC   C4B72022  41.072   0.150   7.354
 5692POPC   NC372023  27.956  11.556   5.442
 5692POPC   PO472024  28.566  11.786   5.425
 5692POPC   GL172025  28.348  11.644   5.792
 5692POPC   GL272026  28.423  11.279   5.818
 5692POPC   C1A72027  28.276  11.546   6.235
 5692POPC   D2A72028  28.400  11.282   6.577
 5692POPC   C3A72029  28.316  11.491   6.967
 5692POPC   C4A72030  28.577  11.449   7.364
 5692POPC   C1B72031  28.221  11.010   6.153
 5692POPC   C2B72032  28.249  10.785   6.554
 5692POPC   C3B72033  28.322  10.960   6.970
 5692POPC   C4B72034  28.137  11.199   7.332
 5693POPC   NC372035  18.649  39.102   5.463
 5693POPC   PO472036  17.990  39.284   5.543
 5693POPC   GL172037  18.290  39.204   5.860
 5693POPC   GL272038  18.590  39.023   5.963
 5693POPC   C1A72039  18.176  39.297   6.260
 5693POPC   D2A72040  17.995  39.358   6.633
 5693POPC   C3A72041  18.251  39.175   6.944
 5693POPC   C4A72042  18.016  39.439   7.161
 5693POPC   C1B72043  18.675  39.358   6.229
 5693POPC   C2B72044  18.510  39.496   6.617
 5693POPC   C3B72045  18.545  39.586   7.045
 5693POPC   C4B72046  18.893  39.488   7.293
 5694POPC   NC372047  44.339  38.872   5.259
 5694POPC   PO472048  43.913  39.305   5.642
 5694POPC   GL172049  43.954  39.262   6.026
 5694POPC   GL272050  43.653  39.260   6.092
 5694POPC   C1A72051  44.052  39.147   6.424
 5694POPC   D2A72052  43.896  38.862   6.736
 5694POPC   C3A72053  43.857  39.073   7.106
 5694POPC   C4A72054  43.974  39.025   7.503
 5694POPC   C1B72055  43.526  39.058   6.412
 5694POPC   C2B72056  43.442  39.239   6.796
 5694POPC   C3B72057  43.355  39.058   7.179
 5694POPC   C4B72058  43.560  39.318   7.533
 5695POPC   NC372059  37.467  23.375   5.558
 5695POPC   PO472060  37.267  24.060   5.486
 5695POPC   GL172061  37.478  23.820   5.825
 5695POPC   GL272062  37.811  23.699   5.832
 5695POPC   C1A72063  37.509  23.742   6.257
 5695POPC   D2A72064  37.276  24.020   6.556
 5695POPC   C3A72065  37.170  23.829   6.920
 5695POPC   C4A72066  37.257  23.408   7.027
 5695POPC   C1B72067  37.971  23.509   6.180
 5695POPC   C2B72068  37.909  23.421   6.597
 5695POPC   C3B72069  37.711  23.644   6.904
 5695POPC   C4B72070  37.671  23.538   7.314
 5696POPC   NC372071  40.248  12.187   5.390
 5696POPC   PO472072  39.860  11.646   5.313
 5696POPC   GL172073  39.876  11.761   5.779
 5696POPC   GL272074  40.194  11.904   5.795
 5696POPC   C1A72075  39.771  11.616   6.232
 5696POPC   D2A72076  39.626  11.597   6.696
 5696POPC   C3A72077  39.863  11.831   7.040
 5696POPC   C4A72078  39.795  12.181   7.366
 5696POPC   C1B72079  40.024  12.066   6.171
 5696POPC   C2B72080  40.167  12.047   6.578
 5696POPC   C3B72081  40.111  12.261   6.953
 5696POPC   C4B72082  40.301  12.225   7.340
 5697POPC   NC372083  20.785  17.834   5.097
 5697POPC   PO472084  20.453  17.351   5.169
 5697POPC   GL172085  20.519  17.337   5.663
 5697POPC   GL272086  20.266  17.174   5.829
 5697POPC   C1A72087  20.752  17.425   6.077
 5697POPC   D2A72088  20.674  17.691   6.460
 5697POPC   C3A72089  20.741  17.559   6.905
 5697POPC   C4A72090  21.006  17.751   7.212
 5697POPC   C1B72091  20.265  17.490   6.183
 5697POPC   C2B72092  20.305  17.390   6.648
 5697POPC   C3B72093  20.265  17.597   7.067
 5697POPC   C4B72094  20.292  17.401   7.468
 5698POPC   NC372095  25.444   6.792   5.527
 5698POPC   PO472096  25.090   6.190   5.562
 5698POPC   GL172097  25.114   6.540   5.825
 5698POPC   GL272098  24.915   6.827   5.666
 5698POPC   C1A72099  25.338   6.630   6.218
 5698POPC   D2A72100  25.697   6.451   6.456
 5698POPC   C3A72101  25.578   6.469   6.874
 5698POPC   C4A72102  25.389   6.534   7.248
 5698POPC   C1B72103  24.854   6.859   6.112
 5698POPC   C2B72104  25.037   6.966   6.492
 5698POPC   C3B72105  25.178   6.798   6.857
 5698POPC   C4B72106  24.949   6.803   7.235
 5699POPC   NC372107   4.126   8.056   4.930
 5699POPC   PO472108   4.206   8.434   5.489
 5699POPC   GL172109   4.359   8.228   5.877
 5699POPC   GL272110   4.429   7.870   5.791
 5699POPC   C1A72111   4.153   7.995   6.255
 5699POPC   D2A72112   4.073   7.810   6.663
 5699POPC   C3A72113   4.256   7.977   7.055
 5699POPC   C4A72114   4.358   8.360   7.242
 5699POPC   C1B72115   4.652   7.928   6.197
 5699POPC   C2B72116   4.542   8.065   6.610
 5699POPC   C3B72117   4.790   7.887   6.927
 5699POPC   C4B72118   4.769   7.741   7.323
 5700POPC   NC372119  29.638  35.559   5.435
 5700POPC   PO472120  30.200  35.163   5.456
 5700POPC   GL172121  29.909  35.254   5.778
 5700POPC   GL272122  29.568  35.133   5.694
 5700POPC   C1A72123  29.941  35.464   6.179
 5700POPC   D2A72124  29.859  35.318   6.595
 5700POPC   C3A72125  30.032  35.500   6.940
 5700POPC   C4A72126  30.105  35.337   7.295
 5700POPC   C1B72127  29.574  35.102   6.166
 5700POPC   C2B72128  29.592  34.889   6.575
 5700POPC   C3B72129  29.459  35.057   6.957
 5700POPC   C4B72130  29.598  35.363   7.241
 5701POPC   NC372131  30.784  14.024   5.546
 5701POPC   PO472132  30.425  14.660   5.374
 5701POPC   GL172133  30.780  14.504   5.694
 5701POPC   GL272134  30.546  14.355   5.855
 5701POPC   C1A72135  30.994  14.386   6.096
 5701POPC   D2A72136  31.005  14.556   6.500
 5701POPC   C3A72137  31.096  14.341   6.890
 5701POPC   C4A72138  30.940  14.505   7.258
 5701POPC   C1B72139  30.523  14.199   6.252
 5701POPC   C2B72140  30.524  14.427   6.609
 5701POPC   C3B72141  30.518  14.322   7.021
 5701POPC   C4B72142  30.519  14.235   7.466
 5702POPC   NC372143   7.292  44.958   5.450
 5702POPC   PO472144   7.583  44.418   5.159
 5702POPC   GL172145   7.454  44.497   5.682
 5702POPC   GL272146   7.570  44.846   5.852
 5702POPC   C1A72147   7.555  44.487   6.198
 5702POPC   D2A72148   7.567  44.806   6.581
 5702POPC   C3A72149   7.613  44.668   7.060
 5702POPC   C4A72150   7.673  44.235   7.277
 5702POPC   C1B72151   7.193  44.862   6.159
 5702POPC   C2B72152   7.129   0.126   6.540
 5702POPC   C3B72153   7.367   0.113   6.942
 5702POPC   C4B72154   7.196  44.965   7.311
 5703POPC   NC372155  40.161  28.739   5.562
 5703POPC   PO472156  39.843  28.218   5.471
 5703POPC   GL172157  39.700  28.479   5.877
 5703POPC   GL272158  39.889  28.782   5.986
 5703POPC   C1A72159  39.718  28.553   6.377
 5703POPC   D2A72160  39.703  28.621   6.819
 5703POPC   C3A72161  39.714  28.198   7.039
 5703POPC   C4A72162  40.112  28.024   7.103
 5703POPC   C1B72163  40.303  28.733   6.226
 5703POPC   C2B72164  40.524  28.697   6.641
 5703POPC   C3B72165  40.418  28.505   7.023
 5703POPC   C4B72166  40.016  28.548   7.236
 5704POPC   NC372167  31.490  25.440   5.292
 5704POPC   PO472168  31.412  24.893   5.480
 5704POPC   GL172169  31.411  25.213   5.808
 5704POPC   GL272170  31.117  25.176   6.000
 5704POPC   C1A72171  31.655  25.467   6.150
 5704POPC   D2A72172  31.581  25.758   6.520
 5704POPC   C3A72173  31.686  25.598   6.913
 5704POPC   C4A72174  31.387  25.467   7.193
 5704POPC   C1B72175  31.489  25.006   6.273
 5704POPC   C2B72176  31.767  25.191   6.581
 5704POPC   C3B72177  31.548  25.059   6.949
 5704POPC   C4B72178  31.473  24.794   7.298
 5705POPC   NC372179  43.657  14.757   5.161
 5705POPC   PO472180  44.012  15.274   5.466
 5705POPC   GL172181  43.884  15.031   5.797
 5705POPC   GL272182  44.207  14.892   5.832
 5705POPC   C1A72183  43.676  15.123   6.199
 5705POPC   D2A72184  43.838  15.298   6.593
 5705POPC   C3A72185  43.594  15.120   6.890
 5705POPC   C4A72186  43.526  14.830   7.221
 5705POPC   C1B72187  44.174  15.068   6.258
 5705POPC   C2B72188  44.192  14.924   6.680
 5705POPC   C3B72189  44.080  15.129   7.065
 5705POPC   C4B72190  44.078  15.393   7.430
 5706POPC   NC372191  18.247  13.172   5.426
 5706POPC   PO472192  18.189  12.485   5.552
 5706POPC   GL172193  18.396  12.791   5.791
 5706POPC   GL272194  18.126  13.040   5.902
 5706POPC   C1A72195  18.451  12.795   6.230
 5706POPC   D2A72196  18.134  12.847   6.573
 5706POPC   C3A72197  18.240  12.731   6.998
 5706POPC   C4A72198  18.493  12.569   7.353
 5706POPC   C1B72199  18.230  13.265   6.262
 5706POPC   C2B72200  18.181  13.363   6.676
 5706POPC   C3B72201  18.051  13.196   7.075
 5706POPC   C4B72202  18.114  12.927   7.469
 5707POPC   NC372203  28.783  25.918   5.556
 5707POPC   PO472204  29.464  25.594   5.563
 5707POPC   GL172205  29.194  25.808   5.860
 5707POPC   GL272206  28.974  25.539   5.855
 5707POPC   C1A72207  29.045  26.101   6.204
 5707POPC   D2A72208  29.046  26.319   6.630
 5707POPC   C3A72209  29.168  26.075   6.989
 5707POPC   C4A72210  29.534  26.034   7.272
 5707POPC   C1B72211  28.814  25.613   6.245
 5707POPC   C2B72212  28.925  25.799   6.609
 5707POPC   C3B72213  28.721  25.812   6.980
 5707POPC   C4B72214  28.849  25.625   7.345
 5708POPC   NC372215  12.894   8.544   5.415
 5708POPC   PO472216  13.125   7.943   5.592
 5708POPC   GL172217  12.894   8.250   5.845
 5708POPC   GL272218  13.132   8.437   6.031
 5708POPC   C1A72219  12.621   8.340   6.222
 5708POPC   D2A72220  12.642   8.424   6.689
 5708POPC   C3A72221  12.438   8.146   7.035
 5708POPC   C4A72222  12.515   8.110   7.508
 5708POPC   C1B72223  13.068   8.043   6.304
 5708POPC   C2B72224  12.963   7.964   6.750
 5708POPC   C3B72225  12.940   8.285   7.081
 5708POPC   C4B72226  13.282   8.501   7.300
 5709POPC   NC372227  17.186  43.849   5.067
 5709POPC   PO472228  16.550  43.881   5.329
 5709POPC   GL172229  16.648  43.967   5.774
 5709POPC   GL272230  16.596  43.656   5.914
 5709POPC   C1A72231  16.603  44.049   6.252
 5709POPC   D2A72232  16.463  44.237   6.661
 5709POPC   C3A72233  16.688  44.062   6.988
 5709POPC   C4A72234  16.549  43.730   7.208
 5709POPC   C1B72235  16.855  43.569   6.271
 5709POPC   C2B72236  16.754  43.641   6.694
 5709POPC   C3B72237  17.036  43.684   7.049
 5709POPC   C4B72238  16.923  43.462   7.431
 5710POPC   NC372239  36.466   1.842   5.152
 5710POPC   PO472240  36.741   2.130   5.696
 5710POPC   GL172241  37.023   1.875   5.872
 5710POPC   GL272242  37.251   2.164   5.917
 5710POPC   C1A72243  36.945   1.849   6.275
 5710POPC   D2A72244  36.679   2.073   6.545
 5710POPC   C3A72245  36.846   1.939   6.883
 5710POPC   C4A72246  36.773   1.842   7.272
 5710POPC   C1B72247  37.044   2.350   6.299
 5710POPC   C2B72248  37.077   2.377   6.771
 5710POPC   C3B72249  37.111   2.242   7.208
 5710POPC   C4B72250  37.191   1.979   7.573
 5711POPC   NC372251   9.977  39.429   5.391
 5711POPC   PO472252   9.314  39.602   5.446
 5711POPC   GL172253   9.613  39.383   5.800
 5711POPC   GL272254  10.002  39.336   5.876
 5711POPC   C1A72255   9.680  39.234   6.238
 5711POPC   D2A72256   9.900  39.413   6.571
 5711POPC   C3A72257   9.771  39.168   6.910
 5711POPC   C4A72258   9.852  38.962   7.270
 5711POPC   C1B72259  10.277  39.594   6.147
 5711POPC   C2B72260  10.257  39.841   6.522
 5711POPC   C3B72261  10.213  39.680   6.924
 5711POPC   C4B72262   9.972  39.498   7.222
 5712POPC   NC372263   3.518  11.036   5.385
 5712POPC   PO472264   3.957  11.467   5.662
 5712POPC   GL172265   3.518  11.364   5.845
 5712POPC   GL272266   3.248  11.107   5.835
 5712POPC   C1A72267   3.249  11.445   6.237
 5712POPC   D2A72268   3.255  11.456   6.706
 5712POPC   C3A72269   3.611  11.365   6.949
 5712POPC   C4A72270   3.853  11.502   7.303
 5712POPC   C1B72271   3.469  10.979   6.240
 5712POPC   C2B72272   3.340  10.904   6.657
 5712POPC   C3B72273   3.082  10.956   7.021
 5712POPC   C4B72274   3.453  10.927   7.263
 5713POPC   NC372275  11.598   9.346   5.298
 5713POPC   PO472276  11.090   9.744   5.457
 5713POPC   GL172277  11.351   9.909   5.763
 5713POPC   GL272278  11.572   9.631   5.774
 5713POPC   C1A72279  11.187   9.875   6.191
 5713POPC   D2A72280  11.036   9.810   6.627
 5713POPC   C3A72281  11.052   9.404   6.807
 5713POPC   C4A72282  11.316   9.457   7.150
 5713POPC   C1B72283  11.641   9.681   6.234
 5713POPC   C2B72284  11.546   9.587   6.705
 5713POPC   C3B72285  11.733   9.792   7.110
 5713POPC   C4B72286  11.832   9.707   7.590
 5714POPC   NC372287  25.733  11.218   5.482
 5714POPC   PO472288  25.832  11.930   5.500
 5714POPC   GL172289  25.855  11.577   5.851
 5714POPC   GL272290  26.177  11.375   5.858
 5714POPC   C1A72291  25.956  11.462   6.304
 5714POPC   D2A72292  25.956  11.662   6.722
 5714POPC   C3A72293  26.004  11.426   7.120
 5714POPC   C4A72294  25.893  11.122   7.444
 5714POPC   C1B72295  26.376  11.162   6.256
 5714POPC   C2B72296  26.437  10.995   6.685
 5714POPC   C3B72297  26.474  11.243   7.062
 5714POPC   C4B72298  26.370  11.365   7.475
 5715POPC   NC372299  44.905  39.331   5.429
 5715POPC   PO472300   0.526  39.514   5.260
 5715POPC   GL172301   0.396  39.384   5.714
 5715POPC   GL272302   0.495  39.689   5.871
 5715POPC   C1A72303   0.433  39.205   6.182
 5715POPC   D2A72304   0.642  39.265   6.621
 5715POPC   C3A72305   0.652  39.047   7.030
 5715POPC   C4A72306   0.282  38.847   7.166
 5715POPC   C1B72307   0.812  39.565   6.214
 5715POPC   C2B72308   0.715  39.765   6.615
 5715POPC   C3B72309   0.387  39.678   6.890
 5715POPC   C4B72310   0.287  39.360   7.149
 5716POPC   NC372311   1.391  16.261   5.271
 5716POPC   PO472312   1.035  15.687   5.450
 5716POPC   GL172313   1.211  16.037   5.696
 5716POPC   GL272314   1.582  15.996   5.690
 5716POPC   C1A72315   1.146  16.162   6.138
 5716POPC   D2A72316   1.034  15.880   6.500
 5716POPC   C3A72317   0.960  15.996   6.936
 5716POPC   C4A72318   0.873  16.148   7.342
 5716POPC   C1B72319   1.708  16.182   6.081
 5716POPC   C2B72320   1.528  16.243   6.476
 5716POPC   C3B72321   1.465  16.004   6.831
 5716POPC   C4B72322   1.373  16.059   7.275
 5717POPC   NC372323   7.361  37.376   5.407
 5717POPC   PO472324   7.505  36.693   5.364
 5717POPC   GL172325   7.512  36.918   5.753
 5717POPC   GL272326   7.211  37.058   5.775
 5717POPC   C1A72327   7.502  36.846   6.209
 5717POPC   D2A72328   7.623  36.621   6.592
 5717POPC   C3A72329   7.471  36.859   6.957
 5717POPC   C4A72330   7.437  37.184   7.259
 5717POPC   C1B72331   7.108  37.183   6.190
 5717POPC   C2B72332   7.287  37.225   6.607
 5717POPC   C3B72333   7.045  37.210   6.970
 5717POPC   C4B72334   6.910  36.869   7.201
 5718POPC   NC372335  10.652  28.777   5.475
 5718POPC   PO472336  10.870  28.085   5.538
 5718POPC   GL172337  10.541  28.290   5.794
 5718POPC   GL272338  10.190  28.276   5.660
 5718POPC   C1A72339  10.582  28.217   6.244
 5718POPC   D2A72340  10.717  27.943   6.595
 5718POPC   C3A72341  10.701  28.179   6.978
 5718POPC   C4A72342  10.449  28.466   7.208
 5718POPC   C1B72343  10.136  28.068   6.052
 5718POPC   C2B72344  10.164  28.060   6.494
 5718POPC   C3B72345  10.165  28.094   6.927
 5718POPC   C4B72346  10.011  28.241   7.328
 5719POPC   NC372347  44.633   2.379   5.505
 5719POPC   PO472348  44.302   1.796   5.512
 5719POPC   GL172349  44.588   1.709   5.853
 5719POPC   GL272350  44.612   2.057   5.906
 5719POPC   C1A72351  44.813   1.715   6.274
 5719POPC   D2A72352  44.814   1.686   6.729
 5719POPC   C3A72353  44.597   1.903   7.035
 5719POPC   C4A72354  44.523   1.837   7.473
 5719POPC   C1B72355  44.771   2.231   6.269
 5719POPC   C2B72356  44.585   2.318   6.635
 5719POPC   C3B72357  44.708   2.403   6.996
 5719POPC   C4B72358  44.636   2.308   7.385
 5720POPC   NC372359   5.846   0.556   5.295
 5720POPC   PO472360   6.210   0.028   5.279
 5720POPC   GL172361   6.117   0.318   5.670
 5720POPC   GL272362   5.746   0.286   5.803
 5720POPC   C1A72363   6.132   0.323   6.144
 5720POPC   D2A72364   5.892   0.485   6.531
 5720POPC   C3A72365   6.050   0.435   6.928
 5720POPC   C4A72366   5.841   0.321   7.313
 5720POPC   C1B72367   5.508   0.482   6.179
 5720POPC   C2B72368   5.404   0.679   6.595
 5720POPC   C3B72369   5.603   0.712   7.020
 5720POPC   C4B72370   5.579   0.722   7.521
 5721POPC   NC372371  26.498  19.076   5.620
 5721POPC   PO472372  27.164  19.462   5.564
 5721POPC   GL172373  26.981  19.190   5.879
 5721POPC   GL272374  27.049  18.826   5.890
 5721POPC   C1A72375  26.843  19.076   6.283
 5721POPC   D2A72376  26.996  19.083   6.694
 5721POPC   C3A72377  26.658  19.000   6.985
 5721POPC   C4A72378  26.765  19.291   7.264
 5721POPC   C1B72379  27.071  18.580   6.274
 5721POPC   C2B72380  26.935  18.583   6.702
 5721POPC   C3B72381  27.087  18.718   7.118
 5721POPC   C4B72382  26.910  18.893   7.526
 5722POPC   NC372383   8.387   2.012   5.434
 5722POPC   PO472384   7.822   2.006   5.693
 5722POPC   GL172385   8.206   2.148   5.915
 5722POPC   GL272386   8.559   2.011   5.897
 5722POPC   C1A72387   8.356   2.146   6.344
 5722POPC   D2A72388   8.217   2.056   6.735
 5722POPC   C3A72389   8.216   2.203   7.175
 5722POPC   C4A72390   8.136   2.108   7.620
 5722POPC   C1B72391   8.504   1.677   6.162
 5722POPC   C2B72392   8.536   1.648   6.588
 5722POPC   C3B72393   8.555   1.809   6.991
 5722POPC   C4B72394   8.415   1.761   7.369
 5723POPC   NC372395  13.260  34.664   5.074
 5723POPC   PO472396  12.727  34.727   5.466
 5723POPC   GL172397  12.759  34.574   5.847
 5723POPC   GL272398  12.639  34.249   5.821
 5723POPC   C1A72399  12.931  34.658   6.233
 5723POPC   D2A72400  13.171  34.541   6.573
 5723POPC   C3A72401  13.004  34.613   6.952
 5723POPC   C4A72402  12.798  34.600   7.328
 5723POPC   C1B72403  12.453  34.351   6.203
 5723POPC   C2B72404  12.624  34.462   6.591
 5723POPC   C3B72405  12.656  34.253   6.972
 5723POPC   C4B72406  12.619  34.117   7.390
 5724POPC   NC372407  37.339  34.008   5.723
 5724POPC   PO472408  37.906  33.942   5.350
 5724POPC   GL172409  37.785  33.733   5.753
 5724POPC   GL272410  37.849  34.064   5.866
 5724POPC   C1A72411  37.601  33.690   6.219
 5724POPC   D2A72412  37.415  33.683   6.653
 5724POPC   C3A72413  37.659  33.489   6.983
 5724POPC   C4A72414  37.782  33.591   7.396
 5724POPC   C1B72415  38.025  33.968   6.244
 5724POPC   C2B72416  37.952  33.741   6.620
 5724POPC   C3B72417  37.942  33.911   7.012
 5724POPC   C4B72418  38.171  33.911   7.387
 5725POPC   NC372419  19.080  35.529   5.397
 5725POPC   PO472420  18.530  35.275   5.310
 5725POPC   GL172421  18.892  35.094   5.631
 5725POPC   GL272422  19.242  35.229   5.770
 5725POPC   C1A72423  18.923  35.088   6.111
 5725POPC   D2A72424  19.180  35.239   6.441
 5725POPC   C3A72425  19.099  35.053   6.834
 5725POPC   C4A72426  19.236  35.181   7.238
 5725POPC   C1B72427  19.282  35.611   6.079
 5725POPC   C2B72428  19.007  35.736   6.438
 5725POPC   C3B72429  19.136  35.580   6.853
 5725POPC   C4B72430  19.441  35.748   7.189
 5726POPC   NC372431  25.242   9.600   5.442
 5726POPC   PO472432  24.832  10.101   5.443
 5726POPC   GL172433  25.089   9.980   5.786
 5726POPC   GL272434  25.444   9.852   5.826
 5726POPC   C1A72435  25.033   9.660   6.093
 5726POPC   D2A72436  24.905   9.665   6.498
 5726POPC   C3A72437  25.216   9.592   6.799
 5726POPC   C4A72438  25.213   9.657   7.207
 5726POPC   C1B72439  25.631  10.007   6.199
 5726POPC   C2B72440  25.473  10.089   6.628
 5726POPC   C3B72441  25.600   9.932   7.025
 5726POPC   C4B72442  25.599   9.785   7.503
 5727POPC   NC372443   2.102  11.193   5.207
 5727POPC   PO472444   1.963  11.720   5.511
 5727POPC   GL172445   2.141  11.351   5.694
 5727POPC   GL272446   1.849  11.204   5.699
 5727POPC   C1A72447   2.232  11.079   6.065
 5727POPC   D2A72448   2.376  11.097   6.501
 5727POPC   C3A72449   2.152  11.092   6.908
 5727POPC   C4A72450   2.152  10.983   7.352
 5727POPC   C1B72451   1.820  11.417   6.092
 5727POPC   C2B72452   1.880  11.314   6.514
 5727POPC   C3B72453   1.803  11.524   6.900
 5727POPC   C4B72454   1.786  11.339   7.281
 5728POPC   NC372455  11.251  13.286   5.357
 5728POPC   PO472456  11.097  12.577   5.445
 5728POPC   GL172457  11.299  12.902   5.745
 5728POPC   GL272458  11.097  13.151   5.814
 5728POPC   C1A72459  11.565  12.981   6.133
 5728POPC   D2A72460  11.642  12.712   6.513
 5728POPC   C3A72461  11.612  12.919   6.926
 5728POPC   C4A72462  11.738  12.871   7.363
 5728POPC   C1B72463  11.041  13.010   6.247
 5728POPC   C2B72464  10.887  13.188   6.629
 5728POPC   C3B72465  10.948  12.976   7.032
 5728POPC   C4B72466  11.260  12.677   7.212
 5729POPC   NC372467  31.910  21.375   5.616
 5729POPC   PO472468  32.182  20.711   5.409
 5729POPC   GL172469  32.232  20.711   5.835
 5729POPC   GL272470  32.406  20.988   5.921
 5729POPC   C1A72471  32.186  20.740   6.300
 5729POPC   D2A72472  32.032  20.509   6.614
 5729POPC   C3A72473  32.263  20.453   6.961
 5729POPC   C4A72474  32.289  20.191   7.279
 5729POPC   C1B72475  32.646  20.992   6.338
 5729POPC   C2B72476  32.540  20.974   6.803
 5729POPC   C3B72477  32.470  20.992   7.282
 5729POPC   C4B72478  32.444  20.951   7.742
 5730POPC   NC372479   9.464  10.397   5.598
 5730POPC   PO472480  10.075  10.478   5.586
 5730POPC   GL172481   9.834  10.575   5.901
 5730POPC   GL272482   9.653  10.879   5.779
 5730POPC   C1A72483   9.689  10.404   6.277
 5730POPC   D2A72484   9.666  10.581   6.660
 5730POPC   C3A72485   9.784  10.329   6.995
 5730POPC   C4A72486   9.646  10.200   7.388
 5730POPC   C1B72487   9.613  10.928   6.220
 5730POPC   C2B72488   9.564  11.090   6.633
 5730POPC   C3B72489   9.620  10.917   7.052
 5730POPC   C4B72490   9.810  10.672   7.353
 5731POPC   NC372491  40.794  31.233   5.205
 5731POPC   PO472492  40.794  30.563   5.245
 5731POPC   GL172493  40.847  30.508   5.764
 5731POPC   GL272494  40.507  30.371   5.896
 5731POPC   C1A72495  40.880  30.730   6.193
 5731POPC   D2A72496  40.925  31.015   6.543
 5731POPC   C3A72497  40.674  30.844   6.882
 5731POPC   C4A72498  40.846  30.809   7.287
 5731POPC   C1B72499  40.571  30.376   6.369
 5731POPC   C2B72500  40.508  30.341   6.820
 5731POPC   C3B72501  40.432  30.505   7.235
 5731POPC   C4B72502  40.436  30.815   7.570
 5732POPC   NC372503   0.892  33.043   5.313
 5732POPC   PO472504   1.497  33.180   5.536
 5732POPC   GL172505   1.142  33.062   5.806
 5732POPC   GL272506   1.021  32.707   5.741
 5732POPC   C1A72507   1.248  33.074   6.258
 5732POPC   D2A72508   1.207  32.784   6.614
 5732POPC   C3A72509   1.301  33.006   6.999
 5732POPC   C4A72510   1.395  33.419   7.216
 5732POPC   C1B72511   0.849  32.785   6.164
 5732POPC   C2B72512   0.794  33.079   6.524
 5732POPC   C3B72513   0.808  32.946   6.950
 5732POPC   C4B72514   0.898  33.219   7.251
 5733POPC   NC372515   0.832  36.988   5.432
 5733POPC   PO472516   1.327  36.478   5.332
 5733POPC   GL172517   1.358  36.653   5.747
 5733POPC   GL272518   1.014  36.517   5.776
 5733POPC   C1A72519   1.517  36.943   6.114
 5733POPC   D2A72520   1.597  37.217   6.508
 5733POPC   C3A72521   1.420  37.139   6.925
 5733POPC   C4A72522   1.515  36.892   7.286
 5733POPC   C1B72523   0.996  36.864   6.077
 5733POPC   C2B72524   1.135  36.929   6.491
 5733POPC   C3B72525   1.071  36.751   6.884
 5733POPC   C4B72526   1.025  36.859   7.316
 5734POPC   NC372527  23.503  13.223   5.063
 5734POPC   PO472528  23.858  13.734   5.388
 5734POPC   GL172529  23.785  13.519   5.774
 5734POPC   GL272530  23.459  13.655   5.853
 5734POPC   C1A72531  23.866  13.535   6.227
 5734POPC   D2A72532  23.912  13.364   6.657
 5734POPC   C3A72533  23.792  13.672   6.964
 5734POPC   C4A72534  23.777  14.087   7.149
 5734POPC   C1B72535  23.363  13.385   6.206
 5734POPC   C2B72536  23.408  13.257   6.623
 5734POPC   C3B72537  23.392  13.364   7.062
 5734POPC   C4B72538  23.429  13.385   7.507
 5735POPC   NC372539  13.477  39.064   5.219
 5735POPC   PO472540  14.130  39.018   5.288
 5735POPC   GL172541  13.813  39.017   5.686
 5735POPC   GL272542  13.458  39.187   5.730
 5735POPC   C1A72543  13.853  39.332   6.054
 5735POPC   D2A72544  13.633  39.446   6.443
 5735POPC   C3A72545  13.822  39.374   6.860
 5735POPC   C4A72546  13.687  39.437   7.293
 5735POPC   C1B72547  13.468  39.010   6.149
 5735POPC   C2B72548  13.318  39.047   6.566
 5735POPC   C3B72549  13.449  39.048   6.993
 5735POPC   C4B72550  13.114  39.001   7.266
 5736POPC   NC372551  37.869   5.319   5.280
 5736POPC   PO472552  37.458   4.806   5.565
 5736POPC   GL172553  37.769   5.064   5.717
 5736POPC   GL272554  37.594   5.312   5.841
 5736POPC   C1A72555  37.920   5.040   6.135
 5736POPC   D2A72556  37.706   5.290   6.453
 5736POPC   C3A72557  37.858   5.185   6.856
 5736POPC   C4A72558  37.808   5.059   7.280
 5736POPC   C1B72559  37.391   5.027   6.168
 5736POPC   C2B72560  37.477   4.853   6.608
 5736POPC   C3B72561  37.552   4.700   7.037
 5736POPC   C4B72562  37.354   4.886   7.452
 5737POPC   NC372563   7.077   5.877   5.359
 5737POPC   PO472564   7.658   5.651   5.465
 5737POPC   GL172565   7.452   5.857   5.766
 5737POPC   GL272566   7.224   5.609   5.806
 5737POPC   C1A72567   7.424   6.053   6.171
 5737POPC   D2A72568   7.668   6.158   6.542
 5737POPC   C3A72569   7.492   5.997   6.928
 5737POPC   C4A72570   7.519   6.090   7.354
 5737POPC   C1B72571   7.361   5.428   6.195
 5737POPC   C2B72572   7.413   5.600   6.602
 5737POPC   C3B72573   7.273   5.456   7.005
 5737POPC   C4B72574   7.225   5.691   7.372
 5738POPC   NC372575  30.584   4.058   5.294
 5738POPC   PO472576  30.960   4.626   5.447
 5738POPC   GL172577  30.734   4.418   5.799
 5738POPC   GL272578  30.628   4.059   5.835
 5738POPC   C1A72579  30.567   4.482   6.241
 5738POPC   D2A72580  30.202   4.572   6.545
 5738POPC   C3A72581  30.344   4.601   7.001
 5738POPC   C4A72582  30.523   4.374   7.368
 5738POPC   C1B72583  30.849   4.049   6.231
 5738POPC   C2B72584  30.794   4.171   6.663
 5738POPC   C3B72585  30.712   4.004   7.092
 5738POPC   C4B72586  30.756   3.949   7.582
 5739POPC   NC372587  11.591  16.871   5.239
 5739POPC   PO472588  11.219  16.500   5.649
 5739POPC   GL172589  11.380  16.757   5.952
 5739POPC   GL272590  11.559  17.059   5.779
 5739POPC   C1A72591  11.192  16.778   6.316
 5739POPC   D2A72592  11.350  16.595   6.625
 5739POPC   C3A72593  11.238  16.790   6.957
 5739POPC   C4A72594  11.410  16.706   7.350
 5739POPC   C1B72595  11.404  17.220   6.186
 5739POPC   C2B72596  11.479  17.097   6.622
 5739POPC   C3B72597  11.648  17.070   7.049
 5739POPC   C4B72598  11.621  17.330   7.417
 5740POPC   NC372599   6.928   3.316   5.363
 5740POPC   PO472600   6.420   3.810   5.493
 5740POPC   GL172601   6.742   3.650   5.744
 5740POPC   GL272602   6.650   3.315   5.781
 5740POPC   C1A72603   6.890   3.570   6.172
 5740POPC   D2A72604   6.712   3.643   6.578
 5740POPC   C3A72605   6.964   3.793   6.901
 5740POPC   C4A72606   6.959   3.694   7.311
 5740POPC   C1B72607   6.759   3.077   6.094
 5740POPC   C2B72608   6.846   3.144   6.478
 5740POPC   C3B72609   6.801   3.216   6.889
 5740POPC   C4B72610   6.902   3.182   7.298
 5741POPC   NC372611  33.501  32.270   5.567
 5741POPC   PO472612  32.826  32.122   5.595
 5741POPC   GL172613  33.104  32.174   5.950
 5741POPC   GL272614  33.280  32.482   6.010
 5741POPC   C1A72615  33.158  32.174   6.403
 5741POPC   D2A72616  33.081  32.250   6.850
 5741POPC   C3A72617  33.223  31.922   7.137
 5741POPC   C4A72618  33.271  32.023   7.609
 5741POPC   C1B72619  32.903  32.605   6.248
 5741POPC   C2B72620  32.759  32.682   6.686
 5741POPC   C3B72621  32.890  32.657   7.137
 5741POPC   C4B72622  33.262  32.427   7.298
 5742POPC   NC372623  40.011  24.337   5.418
 5742POPC   PO472624  39.980  25.023   5.412
 5742POPC   GL172625  39.828  24.840   5.802
 5742POPC   GL272626  39.985  24.519   5.892
 5742POPC   C1A72627  39.868  24.888   6.249
 5742POPC   D2A72628  40.010  24.877   6.671
 5742POPC   C3A72629  39.733  24.745   6.995
 5742POPC   C4A72630  39.743  24.644   7.442
 5742POPC   C1B72631  40.162  24.466   6.310
 5742POPC   C2B72632  40.158  24.373   6.748
 5742POPC   C3B72633  39.895  24.238   7.079
 5742POPC   C4B72634  40.192  24.177   7.390
 5743POPC   NC372635  37.424  31.145   5.424
 5743POPC   PO472636  37.651  30.512   5.463
 5743POPC   GL172637  37.526  30.772   5.775
 5743POPC   GL272638  37.283  30.543   5.866
 5743POPC   C1A72639  37.674  30.857   6.181
 5743POPC   D2A72640  37.763  30.650   6.588
 5743POPC   C3A72641  37.865  30.804   6.983
 5743POPC   C4A72642  37.608  30.826   7.336
 5743POPC   C1B72643  37.456  30.403   6.252
 5743POPC   C2B72644  37.354  30.325   6.717
 5743POPC   C3B72645  37.246  30.424   7.162
 5743POPC   C4B72646  37.325  30.491   7.611
 5744POPC   NC372647  34.549  10.662   5.617
 5744POPC   PO472648  34.917  10.128   5.719
 5744POPC   GL172649  34.723  10.325   6.010
 5744POPC   GL272650  34.377  10.275   5.897
 5744POPC   C1A72651  34.885  10.601   6.317
 5744POPC   D2A72652  34.999  10.882   6.643
 5744POPC   C3A72653  34.761  10.818   7.008
 5744POPC   C4A72654  34.900  10.509   7.288
 5744POPC   C1B72655  34.364  10.607   6.241
 5744POPC   C2B72656  34.488  10.543   6.658
 5744POPC   C3B72657  34.398  10.193   6.937
 5744POPC   C4B72658  34.428  10.331   7.343
 5745POPC   NC372659  15.324  39.483   5.519
 5745POPC   PO472660  14.861  39.066   5.193
 5745POPC   GL172661  14.968  38.965   5.674
 5745POPC   GL272662  15.321  39.074   5.799
 5745POPC   C1A72663  14.965  39.055   6.158
 5745POPC   D2A72664  14.903  39.020   6.620
 5745POPC   C3A72665  15.001  39.266   7.013
 5745POPC   C4A72666  15.189  39.272   7.467
 5745POPC   C1B72667  15.398  39.353   6.180
 5745POPC   C2B72668  15.389  39.292   6.643
 5745POPC   C3B72669  15.506  39.177   7.084
 5745POPC   C4B72670  15.608  39.554   7.381
 5746POPC   NC372671  23.946  37.923   5.434
 5746POPC   PO472672  23.320  37.695   5.226
 5746POPC   GL172673  23.466  37.725   5.690
 5746POPC   GL272674  23.731  37.505   5.765
 5746POPC   C1A72675  23.681  37.888   6.121
 5746POPC   D2A72676  23.793  38.113   6.555
 5746POPC   C3A72677  23.823  37.921   6.964
 5746POPC   C4A72678  23.848  37.634   7.306
 5746POPC   C1B72679  23.939  37.413   6.143
 5746POPC   C2B72680  23.962  37.135   6.511
 5746POPC   C3B72681  23.929  37.251   6.953
 5746POPC   C4B72682  24.234  37.283   7.314
 5747POPC   NC372683  31.247  33.995   5.372
 5747POPC   PO472684  31.921  33.890   5.471
 5747POPC   GL172685  31.607  33.851   5.785
 5747POPC   GL272686  31.542  34.160   5.752
 5747POPC   C1A72687  31.401  33.697   6.187
 5747POPC   D2A72688  31.261  33.515   6.602
 5747POPC   C3A72689  31.548  33.427   6.943
 5747POPC   C4A72690  31.645  33.599   7.350
 5747POPC   C1B72691  31.261  34.189   6.099
 5747POPC   C2B72692  31.180  34.027   6.546
 5747POPC   C3B72693  31.330  33.915   6.958
 5747POPC   C4B72694  31.426  34.197   7.300
 5748POPC   NC372695  36.951  10.002   5.477
 5748POPC   PO472696  36.841  10.599   5.362
 5748POPC   GL172697  36.705  10.653   5.799
 5748POPC   GL272698  36.608  10.304   5.870
 5748POPC   C1A72699  36.879  10.626   6.252
 5748POPC   D2A72700  36.917  10.290   6.596
 5748POPC   C3A72701  36.830  10.360   7.029
 5748POPC   C4A72702  36.958  10.795   7.150
 5748POPC   C1B72703  36.413  10.469   6.249
 5748POPC   C2B72704  36.455  10.477   6.666
 5748POPC   C3B72705  36.454  10.700   7.020
 5748POPC   C4B72706  36.578  10.621   7.449
 5749POPC   NC372707  38.175  24.612   5.497
 5749POPC   PO472708  38.799  24.352   5.220
 5749POPC   GL172709  38.627  24.423   5.701
 5749POPC   GL272710  38.570  24.739   5.846
 5749POPC   C1A72711  38.606  24.307   6.177
 5749POPC   D2A72712  38.274  24.288   6.539
 5749POPC   C3A72713  38.448  24.272   6.990
 5749POPC   C4A72714  38.728  24.598   7.214
 5749POPC   C1B72715  38.400  24.781   6.278
 5749POPC   C2B72716  38.447  24.724   6.731
 5749POPC   C3B72717  38.293  24.835   7.141
 5749POPC   C4B72718  38.017  25.116   7.298
 5750POPC   NC372719  20.835  13.419   5.460
 5750POPC   PO472720  20.243  13.751   5.601
 5750POPC   GL172721  20.537  13.600   5.822
 5750POPC   GL272722  20.727  13.908   5.756
 5750POPC   C1A72723  20.567  13.414   6.206
 5750POPC   D2A72724  20.769  13.487   6.585
 5750POPC   C3A72725  20.599  13.353   6.958
 5750POPC   C4A72726  20.781  13.330   7.340
 5750POPC   C1B72727  20.523  13.966   6.159
 5750POPC   C2B72728  20.400  13.820   6.529
 5750POPC   C3B72729  20.566  13.885   6.890
 5750POPC   C4B72730  20.477  13.757   7.246
 5751POPC   NC372731  26.410   5.618   5.548
 5751POPC   PO472732  26.815   6.134   5.386
 5751POPC   GL172733  26.808   5.870   5.756
 5751POPC   GL272734  26.502   6.054   5.829
 5751POPC   C1A72735  26.716   5.631   6.164
 5751POPC   D2A72736  26.832   5.798   6.577
 5751POPC   C3A72737  26.738   5.605   6.953
 5751POPC   C4A72738  26.934   5.846   7.254
 5751POPC   C1B72739  26.645   6.127   6.243
 5751POPC   C2B72740  26.530   6.241   6.677
 5751POPC   C3B72741  26.687   6.249   7.108
 5751POPC   C4B72742  26.594   6.167   7.591
 5752POPC   NC372743  25.234  31.542   5.293
 5752POPC   PO472744  25.814  31.542   5.451
 5752POPC   GL172745  25.559  31.404   5.818
 5752POPC   GL272746  25.204  31.444   5.817
 5752POPC   C1A72747  25.477  31.476   6.291
 5752POPC   D2A72748  25.326  31.301   6.686
 5752POPC   C3A72749  25.384  31.455   7.100
 5752POPC   C4A72750  25.164  31.785   7.190
 5752POPC   C1B72751  25.030  31.230   6.206
 5752POPC   C2B72752  24.814  31.296   6.606
 5752POPC   C3B72753  24.899  31.346   7.050
 5752POPC   C4B72754  25.004  31.387   7.506
 5753POPC   NC372755  39.428  36.567   5.547
 5753POPC   PO472756  38.698  36.542   5.484
 5753POPC   GL172757  39.003  36.631   5.844
 5753POPC   GL272758  39.224  36.954   5.858
 5753POPC   C1A72759  39.286  36.580   6.212
 5753POPC   D2A72760  39.134  36.601   6.620
 5753POPC   C3A72761  39.359  36.682   7.009
 5753POPC   C4A72762  39.074  36.976   7.241
 5753POPC   C1B72763  39.428  37.078   6.267
 5753POPC   C2B72764  39.320  37.107   6.722
 5753POPC   C3B72765  39.536  37.143   7.130
 5753POPC   C4B72766  39.341  37.256   7.564
 5754POPC   NC372767  34.648  25.335   5.274
 5754POPC   PO472768  34.210  24.837   5.224
 5754POPC   GL172769  34.585  24.991   5.627
 5754POPC   GL272770  34.540  25.381   5.756
 5754POPC   C1A72771  34.645  25.089   6.139
 5754POPC   D2A72772  34.410  25.122   6.537
 5754POPC   C3A72773  34.632  25.246   6.915
 5754POPC   C4A72774  34.751  25.038   7.283
 5754POPC   C1B72775  34.391  25.697   6.051
 5754POPC   C2B72776  34.292  25.868   6.463
 5754POPC   C3B72777  34.292  25.696   6.877
 5754POPC   C4B72778  34.491  25.630   7.263
 5755POPC   NC372779  22.228  32.103   5.635
 5755POPC   PO472780  22.117  31.663   5.205
 5755POPC   GL172781  22.157  31.594   5.702
 5755POPC   GL272782  21.975  31.813   5.965
 5755POPC   C1A72783  22.180  31.368   6.117
 5755POPC   D2A72784  22.355  31.422   6.535
 5755POPC   C3A72785  22.134  31.333   6.907
 5755POPC   C4A72786  21.816  31.635   7.020
 5755POPC   C1B72787  22.411  31.813   6.184
 5755POPC   C2B72788  22.536  31.916   6.599
 5755POPC   C3B72789  22.479  31.711   6.995
 5755POPC   C4B72790  22.649  31.837   7.399
 5756POPC   NC372791  41.771  11.883   5.197
 5756POPC   PO472792  41.515  12.502   5.321
 5756POPC   GL172793  41.556  12.150   5.646
 5756POPC   GL272794  41.582  11.769   5.695
 5756POPC   C1A72795  41.611  12.131   6.117
 5756POPC   D2A72796  41.687  11.897   6.523
 5756POPC   C3A72797  41.617  12.108   6.940
 5756POPC   C4A72798  41.721  12.208   7.398
 5756POPC   C1B72799  41.364  11.676   6.097
 5756POPC   C2B72800  41.188  11.777   6.513
 5756POPC   C3B72801  41.340  11.659   6.908
 5756POPC   C4B72802  41.233  11.902   7.242
 5757POPC   NC372803  14.145   2.045   5.467
 5757POPC   PO472804  13.424   2.034   5.455
 5757POPC   GL172805  13.746   2.030   5.800
 5757POPC   GL272806  13.956   1.723   5.827
 5757POPC   C1A72807  13.678   1.970   6.242
 5757POPC   D2A72808  13.476   2.193   6.593
 5757POPC   C3A72809  13.607   1.980   6.946
 5757POPC   C4A72810  13.780   2.004   7.353
 5757POPC   C1B72811  14.101   1.660   6.238
 5757POPC   C2B72812  13.902   1.641   6.655
 5757POPC   C3B72813  14.099   1.719   7.038
 5757POPC   C4B72814  14.040   1.559   7.450
 5758POPC   NC372815  20.281  16.304   5.613
 5758POPC   PO472816  19.926  15.862   5.222
 5758POPC   GL172817  20.060  15.839   5.652
 5758POPC   GL272818  20.074  15.552   5.868
 5758POPC   C1A72819  19.870  15.983   6.064
 5758POPC   D2A72820  19.756  15.957   6.513
 5758POPC   C3A72821  19.751  16.208   6.877
 5758POPC   C4A72822  19.520  16.070   7.241
 5758POPC   C1B72823  19.801  15.494   6.254
 5758POPC   C2B72824  19.934  15.517   6.693
 5758POPC   C3B72825  19.887  15.715   7.112
 5758POPC   C4B72826  19.839  15.849   7.568
 5759POPC   NC372827  35.122  22.846   5.487
 5759POPC   PO472828  35.121  23.436   5.454
 5759POPC   GL172829  35.376  23.185   5.804
 5759POPC   GL272830  35.315  22.841   5.958
 5759POPC   C1A72831  35.565  23.158   6.247
 5759POPC   D2A72832  35.325  22.970   6.603
 5759POPC   C3A72833  35.514  23.058   7.011
 5759POPC   C4A72834  35.546  22.945   7.470
 5759POPC   C1B72835  34.982  23.051   6.210
 5759POPC   C2B72836  34.898  23.269   6.636
 5759POPC   C3B72837  35.000  23.022   7.033
 5759POPC   C4B72838  35.204  22.648   7.198
 5760POPC   NC372839  38.592   4.046   5.570
 5760POPC   PO472840  38.378   4.675   5.453
 5760POPC   GL172841  38.354   4.408   5.839
 5760POPC   GL272842  38.639   4.556   6.014
 5760POPC   C1A72843  38.486   4.137   6.222
 5760POPC   D2A72844  38.604   4.382   6.591
 5760POPC   C3A72845  38.478   4.257   6.987
 5760POPC   C4A72846  38.787   3.982   7.056
 5760POPC   C1B72847  38.234   4.616   6.292
 5760POPC   C2B72848  38.004   4.706   6.685
 5760POPC   C3B72849  38.112   4.674   7.133
 5760POPC   C4B72850  38.478   4.586   7.409
 5761POPC   NC372851  16.057  35.981   5.256
 5761POPC   PO472852  15.469  35.938   5.526
 5761POPC   GL172853  15.806  36.116   5.777
 5761POPC   GL272854  16.047  36.363   5.616
 5761POPC   C1A72855  15.933  35.953   6.210
 5761POPC   D2A72856  15.903  36.185   6.629
 5761POPC   C3A72857  15.921  36.064   7.073
 5761POPC   C4A72858  16.244  35.907   7.348
 5761POPC   C1B72859  16.224  36.361   6.056
 5761POPC   C2B72860  16.286  36.530   6.494
 5761POPC   C3B72861  16.088  36.566   6.919
 5761POPC   C4B72862  16.320  36.449   7.305
 5762POPC   NC372863  42.897  12.293   5.211
 5762POPC   PO472864  42.214  12.060   5.294
 5762POPC   GL172865  42.260  12.213   5.724
 5762POPC   GL272866  42.509  12.505   5.658
 5762POPC   C1A72867  42.128  12.096   6.152
 5762POPC   D2A72868  42.194  11.892   6.550
 5762POPC   C3A72869  42.134  12.081   6.933
 5762POPC   C4A72870  42.173  11.927   7.336
 5762POPC   C1B72871  42.432  12.528   6.107
 5762POPC   C2B72872  42.422  12.341   6.502
 5762POPC   C3B72873  42.415  12.495   6.916
 5762POPC   C4B72874  42.268  12.412   7.321
 5763POPC   NC372875  44.321  44.522   5.554
 5763POPC   PO472876  44.837  44.951   5.668
 5763POPC   GL172877  44.910  44.644   5.892
 5763POPC   GL272878  44.596  44.596   5.988
 5763POPC   C1A72879   0.045  44.453   6.230
 5763POPC   D2A72880  44.797  44.424   6.561
 5763POPC   C3A72881   0.037  44.455   6.922
 5763POPC   C4A72882  44.849  44.645   7.283
 5763POPC   C1B72883  44.740  44.881   6.334
 5763POPC   C2B72884  44.766  44.904   6.786
 5763POPC   C3B72885  44.523   0.004   7.154
 5763POPC   C4B72886  44.582   0.010   7.575
 5764POPC   NC372887   2.345  12.955   5.354
 5764POPC   PO472888   2.997  12.822   5.555
 5764POPC   GL172889   2.708  12.964   5.806
 5764POPC   GL272890   2.525  12.668   5.768
 5764POPC   C1A72891   2.830  13.097   6.205
 5764POPC   D2A72892   2.992  12.894   6.552
 5764POPC   C3A72893   2.859  13.085   6.934
 5764POPC   C4A72894   2.801  12.957   7.353
 5764POPC   C1B72895   2.747  12.589   6.180
 5764POPC   C2B72896   2.668  12.478   6.622
 5764POPC   C3B72897   2.580  12.620   7.045
 5764POPC   C4B72898   2.513  12.568   7.539
 5765POPC   NC372899   2.685  22.346   5.273
 5765POPC   PO472900   2.184  21.972   5.549
 5765POPC   GL172901   2.528  22.251   5.768
 5765POPC   GL272902   2.344  22.344   6.077
 5765POPC   C1A72903   2.840  22.446   6.096
 5765POPC   D2A72904   2.715  22.389   6.538
 5765POPC   C3A72905   2.960  22.295   6.901
 5765POPC   C4A72906   2.961  22.639   7.198
 5765POPC   C1B72907   2.621  21.995   6.230
 5765POPC   C2B72908   2.672  21.861   6.681
 5765POPC   C3B72909   2.641  21.955   7.160
 5765POPC   C4B72910   2.554  21.940   7.651
 5766POPC   NC372911  19.836   8.581   5.417
 5766POPC   PO472912  19.794   9.161   5.437
 5766POPC   GL172913  20.067   8.948   5.747
 5766POPC   GL272914  20.308   9.188   5.837
 5766POPC   C1A72915  20.008   8.847   6.207
 5766POPC   D2A72916  19.684   9.008   6.540
 5766POPC   C3A72917  19.722   8.938   7.015
 5766POPC   C4A72918  19.497   8.851   7.437
 5766POPC   C1B72919  20.180   9.324   6.243
 5766POPC   C2B72920  20.157   9.129   6.651
 5766POPC   C3B72921  20.084   9.310   7.029
 5766POPC   C4B72922  19.927   9.180   7.425
 5767POPC   NC372923   9.179  15.593   5.580
 5767POPC   PO472924   8.727  16.117   5.335
 5767POPC   GL172925   8.860  15.971   5.744
 5767POPC   GL272926   8.589  15.729   5.764
 5767POPC   C1A72927   9.061  16.089   6.194
 5767POPC   D2A72928   9.101  16.233   6.661
 5767POPC   C3A72929   9.017  16.020   7.090
 5767POPC   C4A72930   9.108  15.954   7.565
 5767POPC   C1B72931   8.821  15.626   6.147
 5767POPC   C2B72932   8.907  15.749   6.552
 5767POPC   C3B72933   8.922  15.535   6.925
 5767POPC   C4B72934   9.194  15.548   7.261
 5768POPC   NC372935  38.962  30.994   5.054
 5768POPC   PO472936  39.356  31.431   5.421
 5768POPC   GL172937  39.123  31.366   5.803
 5768POPC   GL272938  38.906  31.062   5.739
 5768POPC   C1A72939  39.216  31.479   6.264
 5768POPC   D2A72940  39.039  31.502   6.701
 5768POPC   C3A72941  39.334  31.505   7.039
 5768POPC   C4A72942  39.516  31.747   7.361
 5768POPC   C1B72943  38.860  31.115   6.191
 5768POPC   C2B72944  38.686  31.125   6.628
 5768POPC   C3B72945  38.904  31.112   7.033
 5768POPC   C4B72946  39.120  31.255   7.431
 5769POPC   NC372947  37.847  13.360   5.238
 5769POPC   PO472948  37.599  12.783   5.479
 5769POPC   GL172949  37.760  12.823   5.877
 5769POPC   GL272950  37.427  12.745   6.021
 5769POPC   C1A72951  37.851  12.675   6.298
 5769POPC   D2A72952  37.668  12.885   6.631
 5769POPC   C3A72953  37.774  12.865   7.073
 5769POPC   C4A72954  38.098  13.029   7.355
 5769POPC   C1B72955  37.503  13.134   6.198
 5769POPC   C2B72956  37.770  13.365   6.452
 5769POPC   C3B72957  37.619  13.341   6.848
 5769POPC   C4B72958  37.737  13.351   7.219
 5770POPC   NC372959  12.055  24.789   5.496
 5770POPC   PO472960  12.194  24.137   5.228
 5770POPC   GL172961  12.234  24.290   5.640
 5770POPC   GL272962  11.878  24.253   5.694
 5770POPC   C1A72963  12.195  24.465   6.067
 5770POPC   D2A72964  12.096  24.787   6.381
 5770POPC   C3A72965  12.034  24.598   6.795
 5770POPC   C4A72966  11.972  24.608   7.234
 5770POPC   C1B72967  11.759  24.036   6.082
 5770POPC   C2B72968  11.567  24.165   6.510
 5770POPC   C3B72969  11.720  24.219   6.959
 5770POPC   C4B72970  12.144  24.150   7.112
 5771POPC   NC372971  30.887  15.705   4.962
 5771POPC   PO472972  30.683  16.115   5.366
 5771POPC   GL172973  30.617  15.815   5.723
 5771POPC   GL272974  30.271  15.650   5.777
 5771POPC   C1A72975  30.674  15.920   6.163
 5771POPC   D2A72976  30.967  15.947   6.509
 5771POPC   C3A72977  30.833  16.064   6.925
 5771POPC   C4A72978  30.734  16.065   7.352
 5771POPC   C1B72979  30.254  15.642   6.239
 5771POPC   C2B72980  30.468  15.813   6.637
 5771POPC   C3B72981  30.465  15.719   7.098
 5771POPC   C4B72982  30.481  15.637   7.545
 5772POPC   NC372983  12.329  15.504   5.322
 5772POPC   PO472984  11.927  14.898   5.370
 5772POPC   GL172985  11.820  14.986   5.771
 5772POPC   GL272986  11.858  15.372   5.723
 5772POPC   C1A72987  11.974  15.022   6.199
 5772POPC   D2A72988  11.728  15.285   6.486
 5772POPC   C3A72989  11.731  15.023   6.803
 5772POPC   C4A72990  11.799  14.923   7.226
 5772POPC   C1B72991  12.065  15.506   6.118
 5772POPC   C2B72992  12.221  15.361   6.558
 5772POPC   C3B72993  12.116  15.309   7.016
 5772POPC   C4B72994  12.274  15.333   7.473
 5773POPC   NC372995  26.115   6.921   5.535
 5773POPC   PO472996  25.838   6.343   5.433
 5773POPC   GL172997  26.139   6.432   5.803
 5773POPC   GL272998  26.208   6.769   5.990
 5773POPC   C1A72999  26.168   6.342   6.261
 5773POPC   D2A73000  26.216   6.653   6.588
 5773POPC   C3A73001  26.057   6.599   6.988
 5773POPC   C4A73002  26.230   6.393   7.306
 5773POPC   C1B73003  25.932   6.966   6.270
 5773POPC   C2B73004  25.773   6.917   6.669
 5773POPC   C3B73005  25.660   6.941   7.074
 5773POPC   C4B73006  25.828   6.742   7.450
 5774POPC   NC373007  33.250   1.115   5.601
 5774POPC   PO473008  32.622   1.034   5.436
 5774POPC   GL173009  32.802   1.230   5.829
 5774POPC   GL273010  32.987   1.571   5.776
 5774POPC   C1A73011  33.000   1.095   6.235
 5774POPC   D2A73012  33.087   0.838   6.622
 5774POPC   C3A73013  33.173   0.998   7.020
 5774POPC   C4A73014  32.906   1.057   7.346
 5774POPC   C1B73015  32.775   1.594   6.196
 5774POPC   C2B73016  32.812   1.376   6.623
 5774POPC   C3B73017  32.936   1.468   7.049
 5774POPC   C4B73018  32.827   1.602   7.482
 5775POPC   NC373019  11.309  18.264   5.409
 5775POPC   PO473020  11.697  18.740   5.687
 5775POPC   GL173021  11.515  18.393   5.854
 5775POPC   GL273022  11.476  18.611   6.111
 5775POPC   C1A73023  11.152  18.212   6.083
 5775POPC   D2A73024  11.104  18.024   6.500
 5775POPC   C3A73025  11.210  18.016   6.937
 5775POPC   C4A73026  10.935  18.128   7.286
 5775POPC   C1B73027  11.541  18.310   6.393
 5775POPC   C2B73028  11.275  18.473   6.710
 5775POPC   C3B73029  11.307  18.514   7.144
 5775POPC   C4B73030  11.530  18.630   7.549
 5776POPC   NC373031  26.272  13.102   5.443
 5776POPC   PO473032  25.671  12.839   5.609
 5776POPC   GL173033  25.946  13.036   5.913
 5776POPC   GL273034  26.226  12.795   5.940
 5776POPC   C1A73035  26.000  12.996   6.373
 5776POPC   D2A73036  26.201  12.593   6.509
 5776POPC   C3A73037  26.194  12.575   6.973
 5776POPC   C4A73038  25.804  12.494   7.242
 5776POPC   C1B73039  26.436  13.129   6.157
 5776POPC   C2B73040  26.389  13.273   6.602
 5776POPC   C3B73041  26.392  13.109   7.054
 5776POPC   C4B73042  26.027  12.969   7.289
 5777POPC   NC373043  32.742   3.304   5.395
 5777POPC   PO473044  33.186   3.859   5.398
 5777POPC   GL173045  33.132   3.612   5.750
 5777POPC   GL273046  32.797   3.658   5.826
 5777POPC   C1A73047  33.168   3.650   6.211
 5777POPC   D2A73048  33.377   3.487   6.561
 5777POPC   C3A73049  33.208   3.598   6.933
 5777POPC   C4A73050  33.212   3.588   7.368
 5777POPC   C1B73051  32.722   3.403   6.193
 5777POPC   C2B73052  32.828   3.458   6.625
 5777POPC   C3B73053  32.620   3.442   7.042
 5777POPC   C4B73054  32.711   3.583   7.488
 5778POPC   NC373055  43.849  34.876   5.446
 5778POPC   PO473056  44.007  35.542   5.400
 5778POPC   GL173057  43.990  35.313   5.770
 5778POPC   GL273058  43.655  35.326   5.772
 5778POPC   C1A73059  44.077  35.333   6.212
 5778POPC   D2A73060  44.208  35.465   6.605
 5778POPC   C3A73061  44.103  35.270   6.953
 5778POPC   C4A73062  44.104  35.324   7.361
 5778POPC   C1B73063  43.579  35.187   6.170
 5778POPC   C2B73064  43.747  35.135   6.586
 5778POPC   C3B73065  43.590  35.284   6.975
 5778POPC   C4B73066  43.603  35.344   7.418
 5779POPC   NC373067   8.616  35.000   5.649
 5779POPC   PO473068   8.061  35.279   5.196
 5779POPC   GL173069   8.070  35.209   5.722
 5779POPC   GL273070   7.987  34.935   5.923
 5779POPC   C1A73071   8.175  35.334   6.178
 5779POPC   D2A73072   8.146  35.117   6.579
 5779POPC   C3A73073   8.156  35.370   6.967
 5779POPC   C4A73074   8.043  35.801   7.120
 5779POPC   C1B73075   7.715  35.106   6.290
 5779POPC   C2B73076   7.664  35.024   6.763
 5779POPC   C3B73077   7.774  35.056   7.238
 5779POPC   C4B73078   7.853  35.146   7.697
 5780POPC   NC373079  20.611  31.123   5.445
 5780POPC   PO473080  20.484  31.707   5.718
 5780POPC   GL173081  20.764  31.428   5.923
 5780POPC   GL273082  20.522  31.212   5.944
 5780POPC   C1A73083  20.763  31.365   6.392
 5780POPC   D2A73084  20.473  31.556   6.727
 5780POPC   C3A73085  20.638  31.733   7.128
 5780POPC   C4A73086  20.902  31.623   7.468
 5780POPC   C1B73087  20.429  30.981   6.298
 5780POPC   C2B73088  20.498  30.920   6.742
 5780POPC   C3B73089  20.637  31.211   7.074
 5780POPC   C4B73090  20.622  31.201   7.540
 5781POPC   NC373091   1.990  20.098   5.468
 5781POPC   PO473092   1.722  19.453   5.420
 5781POPC   GL173093   1.989  19.622   5.765
 5781POPC   GL273094   1.782  19.881   5.911
 5781POPC   C1A73095   2.180  19.710   6.190
 5781POPC   D2A73096   2.007  19.808   6.612
 5781POPC   C3A73097   2.223  19.789   7.019
 5781POPC   C4A73098   2.263  20.187   7.240
 5781POPC   C1B73099   1.559  19.930   6.330
 5781POPC   C2B73100   1.522  19.778   6.773
 5781POPC   C3B73101   1.729  19.913   7.172
 5781POPC   C4B73102   1.550  19.834   7.595
 5782POPC   NC373103  16.078  29.544   5.516
 5782POPC   PO473104  15.682  29.173   5.286
 5782POPC   GL173105  15.875  29.115   5.750
 5782POPC   GL273106  16.211  29.225   5.886
 5782POPC   C1A73107  15.940  28.994   6.236
 5782POPC   D2A73108  16.004  29.199   6.662
 5782POPC   C3A73109  16.157  28.977   7.023
 5782POPC   C4A73110  15.852  28.905   7.351
 5782POPC   C1B73111  16.238  29.441   6.256
 5782POPC   C2B73112  16.467  29.400   6.639
 5782POPC   C3B73113  16.308  29.468   7.061
 5782POPC   C4B73114  16.321  29.382   7.498
 5783POPC   NC373115  14.010  23.507   5.286
 5783POPC   PO473116  13.587  23.968   5.116
 5783POPC   GL173117  13.759  23.878   5.624
 5783POPC   GL273118  13.714  23.563   5.766
 5783POPC   C1A73119  13.674  24.016   6.078
 5783POPC   D2A73120  13.511  24.093   6.519
 5783POPC   C3A73121  13.679  23.943   6.945
 5783POPC   C4A73122  13.447  23.824   7.312
 5783POPC   C1B73123  13.447  23.562   6.172
 5783POPC   C2B73124  13.273  23.490   6.587
 5783POPC   C3B73125  13.470  23.452   6.986
 5783POPC   C4B73126  13.740  23.420   7.361
 5784POPC   NC373127  31.157  17.960   5.390
 5784POPC   PO473128  31.417  18.593   5.294
 5784POPC   GL173129  31.481  18.295   5.595
 5784POPC   GL273130  31.375  18.535   5.825
 5784POPC   C1A73131  31.459  18.069   6.015
 5784POPC   D2A73132  31.431  18.239   6.447
 5784POPC   C3A73133  31.496  18.003   6.838
 5784POPC   C4A73134  31.497  18.046   7.278
 5784POPC   C1B73135  31.267  18.752   6.206
 5784POPC   C2B73136  31.466  18.785   6.593
 5784POPC   C3B73137  31.643  18.498   6.864
 5784POPC   C4B73138  31.586  18.569   7.262
 5785POPC   NC373139  28.768  24.211   5.545
 5785POPC   PO473140  28.187  24.518   5.321
 5785POPC   GL173141  28.252  24.485   5.813
 5785POPC   GL273142  28.444  24.178   5.944
 5785POPC   C1A73143  28.386  24.617   6.273
 5785POPC   D2A73144  28.499  24.843   6.689
 5785POPC   C3A73145  28.214  24.670   6.991
 5785POPC   C4A73146  28.038  24.315   7.179
 5785POPC   C1B73147  28.742  24.121   6.308
 5785POPC   C2B73148  28.719  24.070   6.740
 5785POPC   C3B73149  28.548  24.256   7.091
 5785POPC   C4B73150  28.645  24.141   7.473
 5786POPC   NC373151   5.932  10.939   5.453
 5786POPC   PO473152   5.650  10.292   5.410
 5786POPC   GL173153   5.953  10.480   5.739
 5786POPC   GL273154   6.073  10.187   5.932
 5786POPC   C1A73155   6.135  10.624   6.166
 5786POPC   D2A73156   6.082  10.401   6.590
 5786POPC   C3A73157   5.950  10.618   6.962
 5786POPC   C4A73158   6.296  10.784   7.157
 5786POPC   C1B73159   5.704  10.339   6.205
 5786POPC   C2B73160   5.580  10.430   6.642
 5786POPC   C3B73161   5.454  10.441   7.071
 5786POPC   C4B73162   5.468  10.393   7.522
 5787POPC   NC373163   2.168  10.004   5.337
 5787POPC   PO473164   1.874   9.435   5.209
 5787POPC   GL173165   2.086   9.444   5.672
 5787POPC   GL273166   2.307   9.739   5.772
 5787POPC   C1A73167   2.060   9.522   6.172
 5787POPC   D2A73168   1.731   9.502   6.531
 5787POPC   C3A73169   1.819   9.698   6.942
 5787POPC   C4A73170   2.179   9.547   7.164
 5787POPC   C1B73171   2.344   9.982   6.170
 5787POPC   C2B73172   2.086   9.972   6.565
 5787POPC   C3B73173   2.221  10.039   7.004
 5787POPC   C4B73174   2.323   9.943   7.462
 5788POPC   NC373175   8.128  25.417   5.424
 5788POPC   PO473176   7.894  24.806   5.309
 5788POPC   GL173177   8.069  24.895   5.709
 5788POPC   GL273178   7.940  25.199   5.841
 5788POPC   C1A73179   8.348  25.006   6.067
 5788POPC   D2A73180   8.140  25.100   6.470
 5788POPC   C3A73181   8.175  25.088   6.929
 5788POPC   C4A73182   8.445  25.057   7.263
 5788POPC   C1B73183   8.162  25.486   6.139
 5788POPC   C2B73184   8.394  25.532   6.553
 5788POPC   C3B73185   8.354  25.572   7.015
 5788POPC   C4B73186   7.989  25.528   7.286
 5789POPC   NC373187  24.583  26.674   5.517
 5789POPC   PO473188  24.258  27.209   5.542
 5789POPC   GL173189  24.552  27.005   5.946
 5789POPC   GL273190  24.877  26.795   5.951
 5789POPC   C1A73191  24.756  26.948   6.427
 5789POPC   D2A73192  24.779  26.861   6.912
 5789POPC   C3A73193  24.438  26.928   7.259
 5789POPC   C4A73194  24.517  27.042   7.720
 5789POPC   C1B73195  24.687  26.478   6.238
 5789POPC   C2B73196  24.630  26.382   6.701
 5789POPC   C3B73197  24.552  26.435   7.143
 5789POPC   C4B73198  24.723  26.582   7.541
 5790POPC   NC373199  33.351  44.396   4.991
 5790POPC   PO473200  33.260  44.889   5.450
 5790POPC   GL173201  33.009  44.700   5.786
 5790POPC   GL273202  32.730  44.933   5.818
 5790POPC   C1A73203  33.000  44.493   6.216
 5790POPC   D2A73204  33.078  44.244   6.626
 5790POPC   C3A73205  33.083  44.430   7.043
 5790POPC   C4A73206  33.249  44.830   7.165
 5790POPC   C1B73207  32.874  44.995   6.243
 5790POPC   C2B73208  32.946  44.793   6.658
 5790POPC   C3B73209  32.764  44.857   7.042
 5790POPC   C4B73210  32.824   0.106   7.387
 5791POPC   NC373211  19.648   9.579   5.328
 5791POPC   PO473212  20.093  10.114   5.477
 5791POPC   GL173213  19.880   9.880   5.799
 5791POPC   GL273214  19.928   9.526   5.786
 5791POPC   C1A73215  19.908   9.786   6.239
 5791POPC   D2A73216  19.828   9.521   6.572
 5791POPC   C3A73217  19.829   9.726   6.938
 5791POPC   C4A73218  19.843   9.675   7.353
 5791POPC   C1B73219  19.663   9.337   6.112
 5791POPC   C2B73220  19.347   9.396   6.460
 5791POPC   C3B73221  19.445   9.360   6.883
 5791POPC   C4B73222  19.454   9.338   7.304
 5792POPC   NC373223  17.092  31.283   5.448
 5792POPC   PO473224  16.454  31.558   5.531
 5792POPC   GL173225  16.692  31.543   5.916
 5792POPC   GL273226  17.035  31.525   5.904
 5792POPC   C1A73227  16.765  31.570   6.369
 5792POPC   D2A73228  16.438  31.345   6.605
 5792POPC   C3A73229  16.362  31.294   7.030
 5792POPC   C4A73230  16.537  31.592   7.245
 5792POPC   C1B73231  17.114  31.179   6.159
 5792POPC   C2B73232  16.958  31.130   6.564
 5792POPC   C3B73233  16.883  31.405   6.896
 5792POPC   C4B73234  17.094  31.511   7.266
 5793POPC   NC373235  16.983  24.192   5.084
 5793POPC   PO473236  16.736  24.729   5.390
 5793POPC   GL173237  16.663  24.788   5.812
 5793POPC   GL273238  16.933  24.548   5.832
 5793POPC   C1A73239  16.538  24.597   6.234
 5793POPC   D2A73240  16.463  24.271   6.583
 5793POPC   C3A73241  16.432  24.388   7.013
 5793POPC   C4A73242  16.751  24.646   7.175
 5793POPC   C1B73243  17.101  24.487   6.215
 5793POPC   C2B73244  17.214  24.202   6.514
 5793POPC   C3B73245  16.985  24.337   6.823
 5793POPC   C4B73246  17.127  24.301   7.185
 5794POPC   NC373247   7.681  18.990   5.609
 5794POPC   PO473248   6.983  19.137   5.555
 5794POPC   GL173249   7.234  18.902   5.890
 5794POPC   GL273250   7.540  18.645   5.954
 5794POPC   C1A73251   7.242  18.845   6.322
 5794POPC   D2A73252   7.057  19.007   6.648
 5794POPC   C3A73253   7.273  18.927   7.007
 5794POPC   C4A73254   7.232  19.011   7.441
 5794POPC   C1B73255   7.760  18.876   6.252
 5794POPC   C2B73256   7.650  18.981   6.654
 5794POPC   C3B73257   7.822  19.308   6.937
 5794POPC   C4B73258   7.787  19.271   7.383
 5795POPC   NC373259  13.466  42.627   5.548
 5795POPC   PO473260  13.881  42.161   5.399
 5795POPC   GL173261  13.783  41.986   5.814
 5795POPC   GL273262  13.418  41.880   5.855
 5795POPC   C1A73263  13.853  42.141   6.246
 5795POPC   D2A73264  13.890  42.543   6.527
 5795POPC   C3A73265  13.834  42.475   6.967
 5795POPC   C4A73266  13.555  42.562   7.272
 5795POPC   C1B73267  13.343  42.104   6.268
 5795POPC   C2B73268  13.562  42.134   6.697
 5795POPC   C3B73269  13.545  42.073   7.157
 5795POPC   C4B73270  13.338  41.836   7.503
 5796POPC   NC373271  25.213   3.865   4.844
 5796POPC   PO473272  25.052   4.211   5.430
 5796POPC   GL173273  25.098   4.293   5.854
 5796POPC   GL273274  24.973   3.971   5.957
 5796POPC   C1A73275  25.255   4.593   6.175
 5796POPC   D2A73276  25.454   4.449   6.523
 5796POPC   C3A73277  25.320   4.640   6.887
 5796POPC   C4A73278  25.323   4.427   7.289
 5796POPC   C1B73279  25.163   4.035   6.362
 5796POPC   C2B73280  25.012   4.186   6.779
 5796POPC   C3B73281  24.909   4.132   7.228
 5796POPC   C4B73282  25.068   4.151   7.668
 5797POPC   NC373283  42.683  10.714   5.096
 5797POPC   PO473284  42.217  10.626   5.614
 5797POPC   GL173285  42.507  10.748   5.932
 5797POPC   GL273286  42.434  10.403   6.028
 5797POPC   C1A73287  42.563  10.741   6.385
 5797POPC   D2A73288  42.197  10.737   6.678
 5797POPC   C3A73289  42.278  10.602   7.086
 5797POPC   C4A73290  42.139  10.171   7.012
 5797POPC   C1B73291  42.261  10.262   6.386
 5797POPC   C2B73292  42.521  10.332   6.709
 5797POPC   C3B73293  42.699  10.271   7.067
 5797POPC   C4B73294  42.473  10.268   7.423
 5798POPC   NC373295  34.584  21.940   4.991
 5798POPC   PO473296  34.893  22.195   5.504
 5798POPC   GL173297  34.643  22.118   5.908
 5798POPC   GL273298  34.254  22.150   5.902
 5798POPC   C1A73299  34.528  22.077   6.354
 5798POPC   D2A73300  34.331  22.051   6.770
 5798POPC   C3A73301  34.486  21.847   7.159
 5798POPC   C4A73302  34.444  21.499   7.498
 5798POPC   C1B73303  34.189  22.443   6.231
 5798POPC   C2B73304  34.340  22.560   6.624
 5798POPC   C3B73305  34.136  22.455   6.992
 5798POPC   C4B73306  34.324  22.298   7.321
 5799POPC   NC373307  40.488   2.575   5.110
 5799POPC   PO473308  40.991   3.070   5.302
 5799POPC   GL173309  40.870   3.060   5.767
 5799POPC   GL273310  41.106   2.804   5.746
 5799POPC   C1A73311  40.580   2.985   6.164
 5799POPC   D2A73312  40.708   2.898   6.599
 5799POPC   C3A73313  40.470   2.927   6.957
 5799POPC   C4A73314  40.518   3.135   7.361
 5799POPC   C1B73315  41.071   2.787   6.180
 5799POPC   C2B73316  41.171   2.638   6.565
 5799POPC   C3B73317  40.976   2.599   6.930
 5799POPC   C4B73318  40.891   2.848   7.223
 5800POPC   NC373319   7.065  40.427   5.434
 5800POPC   PO473320   7.471  40.992   5.465
 5800POPC   GL173321   7.191  40.999   5.803
 5800POPC   GL273322   7.461  40.846   5.972
 5800POPC   C1A73323   7.094  41.063   6.251
 5800POPC   D2A73324   7.326  40.869   6.601
 5800POPC   C3A73325   7.322  40.970   7.034
 5800POPC   C4A73326   7.482  40.721   7.392
 5800POPC   C1B73327   7.267  40.519   6.224
 5800POPC   C2B73328   7.418  40.321   6.595
 5800POPC   C3B73329   7.267  40.426   7.016
 5800POPC   C4B73330   7.142  40.221   7.448
 5801POPC   NC373331  16.625  33.975   5.347
 5801POPC   PO473332  16.485  33.418   5.630
 5801POPC   GL173333  16.588  33.826   5.865
 5801POPC   GL273334  16.902  34.008   5.803
 5801POPC   C1A73335  16.688  34.035   6.284
 5801POPC   D2A73336  16.450  34.045   6.672
 5801POPC   C3A73337  16.652  33.985   7.059
 5801POPC   C4A73338  16.631  33.673   7.418
 5801POPC   C1B73339  17.157  33.839   6.172
 5801POPC   C2B73340  17.072  33.837   6.610
 5801POPC   C3B73341  17.026  33.656   7.031
 5801POPC   C4B73342  17.107  33.856   7.435
 5802POPC   NC373343  18.260  30.455   5.491
 5802POPC   PO473344  18.264  31.124   5.360
 5802POPC   GL173345  18.225  30.878   5.818
 5802POPC   GL273346  18.168  30.513   5.975
 5802POPC   C1A73347  18.438  30.850   6.275
 5802POPC   D2A73348  18.630  30.896   6.713
 5802POPC   C3A73349  18.473  30.751   7.096
 5802POPC   C4A73350  18.617  30.730   7.509
 5802POPC   C1B73351  17.949  30.683   6.312
 5802POPC   C2B73352  18.079  30.802   6.723
 5802POPC   C3B73353  18.038  30.453   7.027
 5802POPC   C4B73354  18.175  30.430   7.413
 5803POPC   NC373355  29.936  38.965   5.561
 5803POPC   PO473356  29.565  39.455   5.414
 5803POPC   GL173357  29.830  39.432   5.788
 5803POPC   GL273358  30.195  39.381   5.773
 5803POPC   C1A73359  29.841  39.218   6.187
 5803POPC   D2A73360  29.638  39.201   6.595
 5803POPC   C3A73361  29.854  39.038   6.929
 5803POPC   C4A73362  29.728  39.212   7.272
 5803POPC   C1B73363  30.351  39.252   6.185
 5803POPC   C2B73364  30.157  39.458   6.560
 5803POPC   C3B73365  30.077  39.532   7.001
 5803POPC   C4B73366  30.248  39.193   7.241
 5804POPC   NC373367  21.596  29.130   5.402
 5804POPC   PO473368  21.061  28.977   5.564
 5804POPC   GL173369  21.217  29.308   5.831
 5804POPC   GL273370  21.544  29.195   5.909
 5804POPC   C1A73371  21.318  29.544   6.204
 5804POPC   D2A73372  21.186  29.606   6.611
 5804POPC   C3A73373  21.467  29.374   6.892
 5804POPC   C4A73374  21.727  29.407   7.265
 5804POPC   C1B73375  21.489  29.050   6.357
 5804POPC   C2B73376  21.708  28.930   6.772
 5804POPC   C3B73377  21.560  28.904   7.197
 5804POPC   C4B73378  21.778  28.908   7.603
 5805POPC   NC373379  28.438   7.665   5.372
 5805POPC   PO473380  28.318   7.012   5.464
 5805POPC   GL173381  28.461   7.168   5.834
 5805POPC   GL273382  28.595   7.454   5.798
 5805POPC   C1A73383  28.297   7.253   6.227
 5805POPC   D2A73384  28.285   7.034   6.640
 5805POPC   C3A73385  28.199   7.328   6.988
 5805POPC   C4A73386  28.269   7.571   7.360
 5805POPC   C1B73387  28.570   7.693   6.182
 5805POPC   C2B73388  28.465   7.557   6.597
 5805POPC   C3B73389  28.607   7.660   6.983
 5805POPC   C4B73390  28.544   7.987   7.286
 5806POPC   NC373391  17.877  31.671   5.624
 5806POPC   PO473392  17.514  31.170   5.248
 5806POPC   GL173393  17.676  31.158   5.738
 5806POPC   GL273394  17.659  31.468   6.028
 5806POPC   C1A73395  17.594  31.009   6.182
 5806POPC   D2A73396  17.426  30.983   6.606
 5806POPC   C3A73397  17.441  31.350   6.870
 5806POPC   C4A73398  17.727  31.363   7.217
 5806POPC   C1B73399  17.332  31.613   6.327
 5806POPC   C2B73400  17.358  31.839   6.710
 5806POPC   C3B73401  17.592  31.888   7.090
 5806POPC   C4B73402  17.304  31.949   7.426
 5807POPC   NC373403  23.341  32.282   5.426
 5807POPC   PO473404  23.967  31.942   5.442
 5807POPC   GL173405  23.735  32.161   5.771
 5807POPC   GL273406  23.477  31.955   5.979
 5807POPC   C1A73407  23.739  32.372   6.159
 5807POPC   D2A73408  23.640  32.183   6.546
 5807POPC   C3A73409  23.845  32.461   6.794
 5807POPC   C4A73410  24.042  32.520   7.173
 5807POPC   C1B73411  23.226  32.312   6.205
 5807POPC   C2B73412  23.277  32.575   6.603
 5807POPC   C3B73413  23.245  32.444   7.021
 5807POPC   C4B73414  23.580  32.293   7.232
 5808POPC   NC373415  21.845  16.924   5.629
 5808POPC   PO473416  22.469  16.958   5.374
 5808POPC   GL173417  22.333  16.655   5.725
 5808POPC   GL273418  22.058  16.438   5.806
 5808POPC   C1A73419  22.487  16.476   6.116
 5808POPC   D2A73420  22.603  16.614   6.533
 5808POPC   C3A73421  22.386  16.557   6.913
 5808POPC   C4A73422  22.234  16.718   7.268
 5808POPC   C1B73423  22.013  16.656   6.205
 5808POPC   C2B73424  21.807  16.719   6.596
 5808POPC   C3B73425  21.868  16.534   6.957
 5808POPC   C4B73426  21.589  16.376   7.187
 5809POPC   NC373427  44.588  41.823   5.629
 5809POPC   PO473428  44.607  42.367   5.229
 5809POPC   GL173429  44.533  42.367   5.661
 5809POPC   GL273430  44.823  42.232   5.838
 5809POPC   C1A73431  44.627  42.660   6.025
 5809POPC   D2A73432  44.727  42.549   6.455
 5809POPC   C3A73433  44.374  42.629   6.729
 5809POPC   C4A73434  44.374  42.553   7.170
 5809POPC   C1B73435  44.488  42.181   6.162
 5809POPC   C2B73436  44.423  42.005   6.554
 5809POPC   C3B73437  44.596  42.194   6.873
 5809POPC   C4B73438  44.865  42.154   7.193
 5810POPC   NC373439   5.058  17.693   5.316
 5810POPC   PO473440   5.457  17.108   5.333
 5810POPC   GL173441   5.234  17.285   5.708
 5810POPC   GL273442   5.027  17.572   5.806
 5810POPC   C1A73443   5.348  17.355   6.166
 5810POPC   D2A73444   5.532  17.146   6.534
 5810POPC   C3A73445   5.463  17.395   6.889
 5810POPC   C4A73446   5.094  17.450   7.139
 5810POPC   C1B73447   4.977  17.843   6.173
 5810POPC   C2B73448   4.945  18.035   6.568
 5810POPC   C3B73449   4.902  17.910   6.979
 5810POPC   C4B73450   5.062  17.898   7.390
 5811POPC   NC373451   7.156  25.181   5.424
 5811POPC   PO473452   7.482  25.665   5.504
 5811POPC   GL173453   7.441  25.288   5.840
 5811POPC   GL273454   7.522  24.911   5.736
 5811POPC   C1A73455   7.666  25.207   6.273
 5811POPC   D2A73456   7.749  25.299   6.735
 5811POPC   C3A73457   7.399  25.404   7.012
 5811POPC   C4A73458   7.037  25.377   7.290
 5811POPC   C1B73459   7.301  24.871   6.165
 5811POPC   C2B73460   7.371  24.950   6.635
 5811POPC   C3B73461   7.175  24.934   7.044
 5811POPC   C4B73462   7.216  24.955   7.505
 5812POPC   NC373463   1.009   1.634   5.426
 5812POPC   PO473464   1.440   1.123   5.446
 5812POPC   GL173465   1.135   1.074   5.758
 5812POPC   GL273466   1.198   1.402   5.849
 5812POPC   C1A73467   1.067   0.980   6.191
 5812POPC   D2A73468   1.103   1.211   6.575
 5812POPC   C3A73469   1.008   1.047   6.995
 5812POPC   C4A73470   1.266   1.112   7.383
 5812POPC   C1B73471   0.876   1.468   6.116
 5812POPC   C2B73472   0.665   1.466   6.470
 5812POPC   C3B73473   0.778   1.513   6.860
 5812POPC   C4B73474   1.019   1.533   7.212
 5813POPC   NC373475  29.132   2.309   5.226
 5813POPC   PO473476  29.380   1.715   5.500
 5813POPC   GL173477  29.119   2.034   5.739
 5813POPC   GL273478  29.316   2.276   5.908
 5813POPC   C1A73479  28.852   2.171   6.129
 5813POPC   D2A73480  28.832   2.070   6.611
 5813POPC   C3A73481  28.904   2.154   7.073
 5813POPC   C4A73482  28.954   1.809   7.341
 5813POPC   C1B73483  29.332   2.127   6.322
 5813POPC   C2B73484  29.333   2.199   6.762
 5813POPC   C3B73485  29.393   1.983   7.121
 5813POPC   C4B73486  29.312   2.229   7.456
 5814POPC   NC373487  15.282  38.884   5.271
 5814POPC   PO473488  14.904  38.398   5.412
 5814POPC   GL173489  14.989  38.450   5.839
 5814POPC   GL273490  15.297  38.573   5.844
 5814POPC   C1A73491  15.054  38.478   6.284
 5814POPC   D2A73492  15.008  38.205   6.601
 5814POPC   C3A73493  14.814  38.335   6.939
 5814POPC   C4A73494  15.058  38.319   7.284
 5814POPC   C1B73495  15.414  38.831   6.239
 5814POPC   C2B73496  15.358  38.774   6.678
 5814POPC   C3B73497  15.134  38.771   7.060
 5814POPC   C4B73498  15.286  38.774   7.491
 5815POPC   NC373499  37.266  41.340   5.537
 5815POPC   PO473500  36.970  41.910   5.632
 5815POPC   GL173501  36.676  41.717   5.854
 5815POPC   GL273502  36.843  41.388   5.851
 5815POPC   C1A73503  36.616  41.757   6.287
 5815POPC   D2A73504  36.880  41.790   6.649
 5815POPC   C3A73505  36.701  41.825   7.012
 5815POPC   C4A73506  36.589  41.417   7.184
 5815POPC   C1B73507  37.114  41.584   6.196
 5815POPC   C2B73508  37.324  41.521   6.598
 5815POPC   C3B73509  37.239  41.596   7.010
 5815POPC   C4B73510  37.502  41.704   7.382
 5816POPC   NC373511   5.243  33.250   5.391
 5816POPC   PO473512   5.247  32.617   5.330
 5816POPC   GL173513   5.150  32.853   5.716
 5816POPC   GL273514   5.429  33.029   5.834
 5816POPC   C1A73515   4.992  33.071   6.104
 5816POPC   D2A73516   4.862  32.978   6.543
 5816POPC   C3A73517   5.037  33.094   6.950
 5816POPC   C4A73518   4.814  32.947   7.284
 5816POPC   C1B73519   5.415  32.789   6.207
 5816POPC   C2B73520   5.423  32.939   6.606
 5816POPC   C3B73521   5.401  32.707   6.977
 5816POPC   C4B73522   5.277  32.744   7.375
 5817POPC   NC373523  27.441   0.721   5.469
 5817POPC   PO473524  27.642   1.364   5.480
 5817POPC   GL173525  27.559   1.300   5.879
 5817POPC   GL273526  27.260   1.098   5.835
 5817POPC   C1A73527  27.817   1.310   6.255
 5817POPC   D2A73528  28.002   1.087   6.627
 5817POPC   C3A73529  27.772   1.035   6.998
 5817POPC   C4A73530  27.737   1.406   7.169
 5817POPC   C1B73531  27.324   1.118   6.292
 5817POPC   C2B73532  27.509   1.310   6.661
 5817POPC   C3B73533  27.259   1.394   7.002
 5817POPC   C4B73534  26.953   1.140   7.195
 5818POPC   NC373535  24.118  29.438   5.590
 5818POPC   PO473536  23.519  29.645   5.436
 5818POPC   GL173537  23.725  29.856   5.779
 5818POPC   GL273538  23.756  30.218   5.742
 5818POPC   C1A73539  23.864  29.846   6.209
 5818POPC   D2A73540  23.979  29.731   6.612
 5818POPC   C3A73541  23.796  29.857   6.971
 5818POPC   C4A73542  23.851  29.748   7.385
 5818POPC   C1B73543  23.490  30.195   6.100
 5818POPC   C2B73544  23.544  30.131   6.536
 5818POPC   C3B73545  23.410  30.203   6.972
 5818POPC   C4B73546  23.648  30.204   7.347
 5819POPC   NC373547   7.010   2.645   5.147
 5819POPC   PO473548   6.509   3.067   5.366
 5819POPC   GL173549   6.640   2.742   5.708
 5819POPC   GL273550   6.359   2.507   5.780
 5819POPC   C1A73551   6.682   2.578   6.184
 5819POPC   D2A73552   6.883   2.645   6.589
 5819POPC   C3A73553   6.711   2.530   6.972
 5819POPC   C4A73554   6.785   2.700   7.386
 5819POPC   C1B73555   6.294   2.866   6.132
 5819POPC   C2B73556   6.421   2.894   6.610
 5819POPC   C3B73557   6.407   2.922   7.093
 5819POPC   C4B73558   6.471   3.080   7.533
 5820POPC   NC373559  13.419  40.626   5.406
 5820POPC   PO473560  14.017  40.627   5.577
 5820POPC   GL173561  13.714  40.771   5.859
 5820POPC   GL273562  13.330  40.828   5.881
 5820POPC   C1A73563  13.841  40.632   6.258
 5820POPC   D2A73564  13.861  40.815   6.661
 5820POPC   C3A73565  13.650  40.656   7.003
 5820POPC   C4A73566  13.753  40.333   7.255
 5820POPC   C1B73567  13.464  40.994   6.278
 5820POPC   C2B73568  13.581  41.248   6.630
 5820POPC   C3B73569  13.597  41.162   7.042
 5820POPC   C4B73570  13.459  40.970   7.373
 5821POPC   NC373571  34.550  11.552   5.448
 5821POPC   PO473572  34.827  11.042   5.617
 5821POPC   GL173573  34.667  11.000   6.025
 5821POPC   GL273574  34.557  11.335   5.991
 5821POPC   C1A73575  34.562  11.071   6.476
 5821POPC   D2A73576  34.336  11.195   6.860
 5821POPC   C3A73577  34.549  11.212   7.272
 5821POPC   C4A73578  34.698  11.422   7.650
 5821POPC   C1B73579  34.292  11.556   6.280
 5821POPC   C2B73580  34.181  11.714   6.672
 5821POPC   C3B73581  33.990  11.548   7.019
 5821POPC   C4B73582  34.210  11.581   7.384
 5822POPC   NC373583  24.439  16.543   5.229
 5822POPC   PO473584  24.249  17.165   5.425
 5822POPC   GL173585  24.521  16.925   5.732
 5822POPC   GL273586  24.451  16.593   5.744
 5822POPC   C1A73587  24.713  16.935   6.152
 5822POPC   D2A73588  24.741  16.756   6.576
 5822POPC   C3A73589  24.627  16.904   6.986
 5822POPC   C4A73590  24.251  16.703   7.079
 5822POPC   C1B73591  24.384  16.524   6.188
 5822POPC   C2B73592  24.337  16.374   6.609
 5822POPC   C3B73593  24.533  16.271   6.968
 5822POPC   C4B73594  24.731  16.494   7.273
 5823POPC   NC373595  17.074  19.065   5.416
 5823POPC   PO473596  16.432  18.897   5.603
 5823POPC   GL173597  16.618  19.244   5.821
 5823POPC   GL273598  16.288  19.334   5.944
 5823POPC   C1A73599  16.938  19.272   6.180
 5823POPC   D2A73600  17.159  19.229   6.603
 5823POPC   C3A73601  16.963  19.190   7.027
 5823POPC   C4A73602  16.559  19.201   7.248
 5823POPC   C1B73603  16.480  19.054   6.288
 5823POPC   C2B73604  16.728  18.886   6.655
 5823POPC   C3B73605  16.568  18.696   7.042
 5823POPC   C4B73606  16.417  18.746   7.471
 5824POPC   NC373607  30.949  19.956   5.359
 5824POPC   PO473608  30.328  19.736   5.680
 5824POPC   GL173609  30.770  19.725   5.826
 5824POPC   GL273610  30.897  20.055   5.850
 5824POPC   C1A73611  30.935  19.582   6.241
 5824POPC   D2A73612  31.082  19.688   6.677
 5824POPC   C3A73613  30.731  19.609   6.998
 5824POPC   C4A73614  30.758  19.641   7.492
 5824POPC   C1B73615  31.171  20.162   6.180
 5824POPC   C2B73616  31.084  20.243   6.616
 5824POPC   C3B73617  30.963  20.077   7.034
 5824POPC   C4B73618  30.549  20.026   7.216
 5825POPC   NC373619  42.053  23.086   5.493
 5825POPC   PO473620  41.444  22.810   5.534
 5825POPC   GL173621  41.697  22.719   5.868
 5825POPC   GL273622  41.778  23.074   5.925
 5825POPC   C1A73623  41.545  22.820   6.287
 5825POPC   D2A73624  41.713  22.955   6.641
 5825POPC   C3A73625  41.464  22.846   7.013
 5825POPC   C4A73626  41.325  22.699   7.416
 5825POPC   C1B73627  41.815  23.386   6.249
 5825POPC   C2B73628  41.648  23.482   6.643
 5825POPC   C3B73629  41.800  23.280   7.009
 5825POPC   C4B73630  42.025  23.239   7.375
 5826POPC   NC373631  42.290  23.517   5.081
 5826POPC   PO473632  42.574  24.035   5.423
 5826POPC   GL173633  42.360  23.726   5.772
 5826POPC   GL273634  42.207  23.390   5.867
 5826POPC   C1A73635  42.155  23.802   6.179
 5826POPC   D2A73636  42.208  23.991   6.583
 5826POPC   C3A73637  42.095  23.698   6.876
 5826POPC   C4A73638  42.167  23.836   7.264
 5826POPC   C1B73639  42.555  23.452   6.144
 5826POPC   C2B73640  42.597  23.690   6.503
 5826POPC   C3B73641  42.620  23.736   6.953
 5826POPC   C4B73642  42.564  23.509   7.319
 5827POPC   NC373643   9.677  12.685   5.378
 5827POPC   PO473644   9.879  13.256   5.534
 5827POPC   GL173645   9.527  13.024   5.764
 5827POPC   GL273646   9.512  12.644   5.873
 5827POPC   C1A73647   9.626  13.025   6.209
 5827POPC   D2A73648   9.923  13.120   6.547
 5827POPC   C3A73649   9.668  13.133   6.906
 5827POPC   C4A73650   9.544  13.142   7.325
 5827POPC   C1B73651   9.715  12.515   6.286
 5827POPC   C2B73652   9.799  12.646   6.696
 5827POPC   C3B73653  10.025  12.801   7.032
 5827POPC   C4B73654   9.826  12.731   7.397
 5828POPC   NC373655  18.524  18.516   5.598
 5828POPC   PO473656  17.883  18.268   5.373
 5828POPC   GL173657  18.122  18.277   5.787
 5828POPC   GL273658  18.374  18.017   5.815
 5828POPC   C1A73659  18.369  18.382   6.208
 5828POPC   D2A73660  18.524  18.596   6.577
 5828POPC   C3A73661  18.324  18.443   6.924
 5828POPC   C4A73662  18.564  18.446   7.260
 5828POPC   C1B73663  18.203  17.882   6.226
 5828POPC   C2B73664  18.216  17.995   6.669
 5828POPC   C3B73665  18.380  17.947   7.105
 5828POPC   C4B73666  18.239  18.133   7.489
 5829POPC   NC373667  31.997  41.032   5.376
 5829POPC   PO473668  32.753  40.818   5.416
 5829POPC   GL173669  32.342  40.774   5.696
 5829POPC   GL273670  32.115  40.504   5.870
 5829POPC   C1A73671  32.240  40.907   6.147
 5829POPC   D2A73672  32.384  40.806   6.574
 5829POPC   C3A73673  32.197  40.961   6.934
 5829POPC   C4A73674  32.213  40.649   7.234
 5829POPC   C1B73675  31.884  40.484   6.294
 5829POPC   C2B73676  31.929  40.544   6.752
 5829POPC   C3B73677  31.746  40.769   7.104
 5829POPC   C4B73678  31.864  40.954   7.505
 5830POPC   NC373679  17.784  16.369   5.622
 5830POPC   PO473680  17.524  16.989   5.598
 5830POPC   GL173681  17.760  16.946   5.971
 5830POPC   GL273682  17.622  16.605   6.084
 5830POPC   C1A73683  17.887  16.881   6.418
 5830POPC   D2A73684  17.643  16.538   6.648
 5830POPC   C3A73685  17.480  16.688   7.015
 5830POPC   C4A73686  17.680  16.759   7.405
 5830POPC   C1B73687  17.368  16.884   6.381
 5830POPC   C2B73688  17.152  17.052   6.766
 5830POPC   C3B73689  17.211  17.064   7.220
 5830POPC   C4B73690  17.196  16.671   7.490
 5831POPC   NC373691  16.376  32.017   5.504
 5831POPC   PO473692  16.943  32.374   5.222
 5831POPC   GL173693  16.837  32.213   5.659
 5831POPC   GL273694  16.606  32.431   5.868
 5831POPC   C1A73695  16.925  32.000   6.071
 5831POPC   D2A73696  17.021  32.163   6.492
 5831POPC   C3A73697  16.949  32.138   6.948
 5831POPC   C4A73698  16.768  32.479   7.225
 5831POPC   C1B73699  16.448  32.149   6.226
 5831POPC   C2B73700  16.531  31.950   6.663
 5831POPC   C3B73701  16.370  32.047   7.099
 5831POPC   C4B73702  16.321  31.966   7.588
 5832POPC   NC373703  31.645  30.232   5.515
 5832POPC   PO473704  31.746  29.576   5.382
 5832POPC   GL173705  31.583  29.729   5.798
 5832POPC   GL273706  31.570  30.032   5.971
 5832POPC   C1A73707  31.419  29.615   6.212
 5832POPC   D2A73708  31.549  29.853   6.571
 5832POPC   C3A73709  31.357  29.828   6.954
 5832POPC   C4A73710  31.400  29.552   7.261
 5832POPC   C1B73711  31.835  30.179   6.300
 5832POPC   C2B73712  32.083  30.281   6.660
 5832POPC   C3B73713  31.765  30.168   6.937
 5832POPC   C4B73714  31.636  30.020   7.340
 5833POPC   NC373715  40.568  27.014   5.468
 5833POPC   PO473716  41.200  26.728   5.421
 5833POPC   GL173717  40.975  26.830   5.763
 5833POPC   GL273718  41.177  27.094   5.837
 5833POPC   C1A73719  40.706  26.800   6.121
 5833POPC   D2A73720  40.710  26.994   6.531
 5833POPC   C3A73721  40.697  26.833   6.943
 5833POPC   C4A73722  40.931  26.560   7.169
 5833POPC   C1B73723  41.179  26.985   6.284
 5833POPC   C2B73724  41.181  26.967   6.733
 5833POPC   C3B73725  41.164  27.043   7.165
 5833POPC   C4B73726  41.072  27.432   7.381
 5834POPC   NC373727   0.665  28.857   5.139
 5834POPC   PO473728   1.279  29.000   5.465
 5834POPC   GL173729   1.087  29.243   5.804
 5834POPC   GL273730   1.133  28.963   6.029
 5834POPC   C1A73731   0.858  29.339   6.214
 5834POPC   D2A73732   0.931  29.161   6.610
 5834POPC   C3A73733   0.934  29.398   7.002
 5834POPC   C4A73734   1.023  29.280   7.425
 5834POPC   C1B73735   1.360  29.320   6.278
 5834POPC   C2B73736   1.440  29.233   6.722
 5834POPC   C3B73737   1.188  28.954   7.011
 5834POPC   C4B73738   1.313  28.863   7.418
 5835POPC   NC373739  22.228  17.376   5.335
 5835POPC   PO473740  22.669  17.707   5.547
 5835POPC   GL173741  22.355  17.494   5.856
 5835POPC   GL273742  22.276  17.162   5.805
 5835POPC   C1A73743  22.092  17.400   6.270
 5835POPC   D2A73744  22.227  17.456   6.728
 5835POPC   C3A73745  22.030  17.709   7.083
 5835POPC   C4A73746  22.130  18.019   7.429
 5835POPC   C1B73747  22.404  16.997   6.184
 5835POPC   C2B73748  22.234  16.965   6.575
 5835POPC   C3B73749  22.008  17.040   6.934
 5835POPC   C4B73750  22.133  17.247   7.299
 5836POPC   NC373751  26.128  44.214   5.418
 5836POPC   PO473752  26.163  43.557   5.448
 5836POPC   GL173753  26.057  43.837   5.790
 5836POPC   GL273754  25.670  43.811   5.797
 5836POPC   C1A73755  26.230  43.934   6.224
 5836POPC   D2A73756  26.295  43.906   6.667
 5836POPC   C3A73757  26.261  44.032   7.100
 5836POPC   C4A73758  26.224  43.687   7.390
 5836POPC   C1B73759  25.816  43.645   6.183
 5836POPC   C2B73760  25.812  43.737   6.570
 5836POPC   C3B73761  25.905  43.666   6.981
 5836POPC   C4B73762  25.729  43.788   7.354
 5837POPC   NC373763  18.007  19.372   5.606
 5837POPC   PO473764  18.572  18.988   5.452
 5837POPC   GL173765  18.304  18.949   5.783
 5837POPC   GL273766  18.040  18.790   5.633
 5837POPC   C1A73767  18.380  18.931   6.218
 5837POPC   D2A73768  18.431  19.117   6.620
 5837POPC   C3A73769  18.348  18.927   7.037
 5837POPC   C4A73770  18.574  18.931   7.434
 5837POPC   C1B73771  17.889  18.879   6.085
 5837POPC   C2B73772  17.935  19.128   6.482
 5837POPC   C3B73773  18.053  19.323   6.891
 5837POPC   C4B73774  17.909  19.062   7.272
 5838POPC   NC373775   8.498  34.237   5.368
 5838POPC   PO473776   8.362  33.526   5.395
 5838POPC   GL173777   8.380  33.746   5.795
 5838POPC   GL273778   8.114  33.982   5.782
 5838POPC   C1A73779   8.289  33.873   6.242
 5838POPC   D2A73780   8.001  33.951   6.584
 5838POPC   C3A73781   8.145  33.761   6.986
 5838POPC   C4A73782   7.989  33.397   7.224
 5838POPC   C1B73783   8.080  34.331   6.123
 5838POPC   C2B73784   8.142  34.452   6.550
 5838POPC   C3B73785   8.074  34.285   6.955
 5838POPC   C4B73786   8.078  34.101   7.373
 5839POPC   NC373787  16.092  31.290   5.449
 5839POPC   PO473788  15.824  31.952   5.533
 5839POPC   GL173789  15.978  31.637   5.820
 5839POPC   GL273790  15.779  31.302   5.849
 5839POPC   C1A73791  15.974  31.667   6.260
 5839POPC   D2A73792  15.749  31.697   6.622
 5839POPC   C3A73793  16.070  31.677   6.880
 5839POPC   C4A73794  16.017  31.658   7.289
 5839POPC   C1B73795  16.110  31.192   6.158
 5839POPC   C2B73796  15.965  31.173   6.599
 5839POPC   C3B73797  15.840  31.230   7.038
 5839POPC   C4B73798  15.887  31.179   7.512
 5840POPC   NC373799  27.966  32.559   5.442
 5840POPC   PO473800  27.433  32.405   5.649
 5840POPC   GL173801  27.332  32.331   6.021
 5840POPC   GL273802  27.159  32.022   5.922
 5840POPC   C1A73803  27.548  32.347   6.411
 5840POPC   D2A73804  27.805  32.375   6.774
 5840POPC   C3A73805  27.629  32.238   7.171
 5840POPC   C4A73806  27.836  32.190   7.590
 5840POPC   C1B73807  27.200  31.967   6.375
 5840POPC   C2B73808  27.130  32.184   6.755
 5840POPC   C3B73809  27.174  32.017   7.150
 5840POPC   C4B73810  27.462  31.813   7.464
 5841POPC   NC373811  16.248   3.694   5.399
 5841POPC   PO473812  15.693   3.288   5.410
 5841POPC   GL173813  15.801   3.520   5.743
 5841POPC   GL273814  16.130   3.402   5.771
 5841POPC   C1A73815  15.698   3.466   6.171
 5841POPC   D2A73816  15.498   3.714   6.495
 5841POPC   C3A73817  15.619   3.541   6.868
 5841POPC   C4A73818  15.897   3.462   7.197
 5841POPC   C1B73819  16.232   3.530   6.168
 5841POPC   C2B73820  16.075   3.533   6.595
 5841POPC   C3B73821  16.291   3.668   6.970
 5841POPC   C4B73822  16.392   3.359   7.289
 5842POPC   NC373823  39.790  20.156   5.495
 5842POPC   PO473824  40.303  19.777   5.439
 5842POPC   GL173825  40.133  19.702   5.840
 5842POPC   GL273826  40.077  20.047   5.924
 5842POPC   C1A73827  39.821  19.706   6.184
 5842POPC   D2A73828  39.717  20.024   6.477
 5842POPC   C3A73829  39.878  19.894   6.878
 5842POPC   C4A73830  39.663  19.792   7.281
 5842POPC   C1B73831  40.258  20.222   6.307
 5842POPC   C2B73832  40.375  19.953   6.639
 5842POPC   C3B73833  40.380  19.776   7.049
 5842POPC   C4B73834  40.157  19.895   7.376
 5843POPC   NC373835  24.330  36.960   5.497
 5843POPC   PO473836  25.062  37.086   5.449
 5843POPC   GL173837  24.800  37.004   5.824
 5843POPC   GL273838  24.516  37.221   5.874
 5843POPC   C1A73839  24.548  36.801   6.168
 5843POPC   D2A73840  24.245  36.682   6.482
 5843POPC   C3A73841  24.296  36.902   6.889
 5843POPC   C4A73842  24.479  36.835   7.295
 5843POPC   C1B73843  24.694  37.311   6.249
 5843POPC   C2B73844  24.505  37.315   6.653
 5843POPC   C3B73845  24.704  37.261   7.059
 5843POPC   C4B73846  24.708  37.232   7.517
 5844POPC   NC373847  35.941  23.418   5.535
 5844POPC   PO473848  36.249  22.876   5.319
 5844POPC   GL173849  36.197  22.953   5.777
 5844POPC   GL273850  35.841  22.946   5.826
 5844POPC   C1A73851  36.094  23.078   6.239
 5844POPC   D2A73852  35.946  23.197   6.679
 5844POPC   C3A73853  36.182  22.857   6.911
 5844POPC   C4A73854  36.385  22.675   7.281
 5844POPC   C1B73855  35.765  22.691   6.209
 5844POPC   C2B73856  35.756  22.721   6.666
 5844POPC   C3B73857  35.786  22.638   7.123
 5844POPC   C4B73858  35.720  22.463   7.504
 5845POPC   NC373859  34.180  43.901   5.254
 5845POPC   PO473860  34.704  43.544   5.613
 5845POPC   GL173861  34.354  43.754   5.766
 5845POPC   GL273862  34.325  44.123   5.683
 5845POPC   C1A73863  34.262  43.628   6.193
 5845POPC   D2A73864  34.482  43.506   6.579
 5845POPC   C3A73865  34.478  43.739   6.958
 5845POPC   C4A73866  34.671  43.655   7.358
 5845POPC   C1B73867  34.356  44.146   6.110
 5845POPC   C2B73868  34.405  44.031   6.526
 5845POPC   C3B73869  34.554  44.230   6.875
 5845POPC   C4B73870  34.601  44.156   7.294
 5846POPC   NC373871  40.084  43.072   5.345
 5846POPC   PO473872  39.628  43.430   5.109
 5846POPC   GL173873  39.717  43.255   5.613
 5846POPC   GL273874  40.032  43.383   5.768
 5846POPC   C1A73875  39.757  43.076   6.055
 5846POPC   D2A73876  39.774  42.930   6.499
 5846POPC   C3A73877  39.800  43.214   6.849
 5846POPC   C4A73878  39.807  43.018   7.244
 5846POPC   C1B73879  40.215  43.327   6.213
 5846POPC   C2B73880  40.230  43.506   6.662
 5846POPC   C3B73881  40.262  43.294   7.108
 5846POPC   C4B73882  40.613  43.141   7.397
 5847POPC   NC373883  10.324  35.227   5.372
 5847POPC   PO473884  10.566  35.847   5.460
 5847POPC   GL173885  10.676  35.443   5.737
 5847POPC   GL273886  10.437  35.152   5.861
 5847POPC   C1A73887  10.769  35.338   6.191
 5847POPC   D2A73888  10.612  35.228   6.587
 5847POPC   C3A73889  10.788  35.479   6.910
 5847POPC   C4A73890  10.739  35.349   7.319
 5847POPC   C1B73891  10.213  35.326   6.221
 5847POPC   C2B73892  10.092  35.287   6.662
 5847POPC   C3B73893  10.302  35.310   7.067
 5847POPC   C4B73894  10.333  35.172   7.542
 5848POPC   NC373895  12.241  12.567   5.390
 5848POPC   PO473896  11.690  13.044   5.427
 5848POPC   GL173897  11.939  12.967   5.771
 5848POPC   GL273898  11.939  12.605   5.840
 5848POPC   C1A73899  12.114  13.041   6.189
 5848POPC   D2A73900  12.343  13.199   6.592
 5848POPC   C3A73901  12.120  13.095   6.983
 5848POPC   C4A73902  12.240  12.896   7.356
 5848POPC   C1B73903  12.117  12.544   6.233
 5848POPC   C2B73904  12.136  12.732   6.620
 5848POPC   C3B73905  12.020  12.589   7.009
 5848POPC   C4B73906  12.266  12.304   7.244
 5849POPC   NC373907   5.126   4.559   5.462
 5849POPC   PO473908   5.092   3.940   5.193
 5849POPC   GL173909   5.088   4.078   5.720
 5849POPC   GL273910   5.233   4.421   5.911
 5849POPC   C1A73911   5.016   4.113   6.217
 5849POPC   D2A73912   4.956   4.460   6.533
 5849POPC   C3A73913   5.056   4.381   6.979
 5849POPC   C4A73914   4.909   4.106   7.263
 5849POPC   C1B73915   5.407   4.616   6.248
 5849POPC   C2B73916   5.452   4.494   6.670
 5849POPC   C3B73917   5.522   4.620   7.088
 5849POPC   C4B73918   5.392   4.288   7.369
 5850POPC   NC373919  25.654  28.672   5.736
 5850POPC   PO473920  25.959  28.143   5.395
 5850POPC   GL173921  26.048  28.217   5.842
 5850POPC   GL273922  26.083  28.506   5.944
 5850POPC   C1A73923  26.171  28.115   6.273
 5850POPC   D2A73924  26.242  28.150   6.727
 5850POPC   C3A73925  25.877  28.317   6.936
 5850POPC   C4A73926  25.797  28.503   7.339
 5850POPC   C1B73927  26.218  28.633   6.328
 5850POPC   C2B73928  26.162  28.685   6.762
 5850POPC   C3B73929  26.266  28.520   7.173
 5850POPC   C4B73930  26.504  28.386   7.530
 5851POPC   NC373931  43.688  24.723   5.101
 5851POPC   PO473932  44.083  24.343   5.468
 5851POPC   GL173933  43.782  24.459   5.767
 5851POPC   GL273934  44.019  24.676   5.897
 5851POPC   C1A73935  43.718  24.391   6.224
 5851POPC   D2A73936  43.995  24.324   6.579
 5851POPC   C3A73937  43.924  24.224   7.009
 5851POPC   C4A73938  43.820  24.309   7.440
 5851POPC   C1B73939  44.069  24.780   6.335
 5851POPC   C2B73940  43.713  24.750   6.627
 5851POPC   C3B73941  43.717  24.693   7.057
 5851POPC   C4B73942  44.079  24.783   7.285
 5852POPC   NC373943  42.754  41.915   5.339
 5852POPC   PO473944  43.355  41.716   5.534
 5852POPC   GL173945  43.247  41.480   5.909
 5852POPC   GL273946  42.889  41.394   5.903
 5852POPC   C1A73947  43.178  41.490   6.337
 5852POPC   D2A73948  42.930  41.469   6.654
 5852POPC   C3A73949  43.208  41.566   6.920
 5852POPC   C4A73950  43.230  41.221   7.169
 5852POPC   C1B73951  42.876  41.822   6.107
 5852POPC   C2B73952  43.064  41.956   6.539
 5852POPC   C3B73953  42.803  41.905   6.899
 5852POPC   C4B73954  42.845  41.665   7.236
 5853POPC   NC373955   7.232  43.397   5.503
 5853POPC   PO473956   7.595  42.797   5.405
 5853POPC   GL173957   7.414  42.937   5.768
 5853POPC   GL273958   7.618  43.247   5.815
 5853POPC   C1A73959   7.367  42.786   6.196
 5853POPC   D2A73960   7.608  42.970   6.544
 5853POPC   C3A73961   7.372  42.902   6.905
 5853POPC   C4A73962   7.163  42.833   7.285
 5853POPC   C1B73963   7.393  43.293   6.176
 5853POPC   C2B73964   7.403  43.451   6.570
 5853POPC   C3B73965   7.578  43.366   6.944
 5853POPC   C4B73966   7.308  43.310   7.242
 5854POPC   NC373967   4.643   9.802   5.560
 5854POPC   PO473968   4.083  10.002   5.258
 5854POPC   GL173969   4.122   9.944   5.710
 5854POPC   GL273970   4.178   9.587   5.745
 5854POPC   C1A73971   4.065   9.845   6.173
 5854POPC   D2A73972   4.429   9.819   6.476
 5854POPC   C3A73973   4.379   9.767   6.941
 5854POPC   C4A73974   4.675   9.797   7.303
 5854POPC   C1B73975   4.219   9.370   6.156
 5854POPC   C2B73976   4.183   9.366   6.588
 5854POPC   C3B73977   4.366   9.186   6.953
 5854POPC   C4B73978   4.382   9.392   7.330
 5855POPC   NC373979   7.213  12.705   5.296
 5855POPC   PO473980   7.517  13.294   5.306
 5855POPC   GL173981   7.375  13.029   5.716
 5855POPC   GL273982   7.348  12.637   5.787
 5855POPC   C1A73983   7.413  12.955   6.193
 5855POPC   D2A73984   7.598  13.154   6.569
 5855POPC   C3A73985   7.381  13.037   6.973
 5855POPC   C4A73986   7.615  12.792   7.276
 5855POPC   C1B73987   7.197  12.476   6.215
 5855POPC   C2B73988   7.274  12.604   6.673
 5855POPC   C3B73989   7.185  12.551   7.139
 5855POPC   C4B73990   7.321  12.502   7.565
 5856POPC   NC373991  18.179  41.274   5.499
 5856POPC   PO473992  18.305  41.877   5.549
 5856POPC   GL173993  18.244  41.680   5.937
 5856POPC   GL273994  17.923  41.508   5.884
 5856POPC   C1A73995  18.430  41.413   6.260
 5856POPC   D2A73996  18.321  41.200   6.629
 5856POPC   C3A73997  18.502  41.106   7.004
 5856POPC   C4A73998  18.455  41.386   7.331
 5856POPC   C1B73999  17.921  41.233   6.251
 5856POPC   C2B74000  17.816  41.213   6.695
 5856POPC   C3B74001  18.043  41.471   7.017
 5856POPC   C4B74002  17.965  41.570   7.458
 5857POPC   NC374003  14.360  44.295   5.482
 5857POPC   PO474004  14.564  44.952   5.511
 5857POPC   GL174005  14.421  44.680   5.810
 5857POPC   GL274006  14.167  44.882   5.952
 5857POPC   C1A74007  14.265  44.410   6.143
 5857POPC   D2A74008  14.098  44.338   6.541
 5857POPC   C3A74009  14.197  44.588   6.883
 5857POPC   C4A74010  14.346  44.359   7.244
 5857POPC   C1B74011  14.529  44.981   6.204
 5857POPC   C2B74012  14.562  44.708   6.509
 5857POPC   C3B74013  14.692  44.757   6.892
 5857POPC   C4B74014  14.573  44.807   7.273
 5858POPC   NC374015  10.998   1.208   5.463
 5858POPC   PO474016  10.345   1.455   5.370
 5858POPC   GL174017  10.242   1.343   5.786
 5858POPC   GL274018  10.484   1.063   5.746
 5858POPC   C1A74019  10.425   1.357   6.206
 5858POPC   D2A74020  10.366   1.042   6.556
 5858POPC   C3A74021  10.335   1.197   6.976
 5858POPC   C4A74022  10.270   1.575   7.269
 5858POPC   C1B74023  10.675   0.935   6.133
 5858POPC   C2B74024  10.862   1.147   6.492
 5858POPC   C3B74025  10.888   1.297   6.894
 5858POPC   C4B74026  10.706   1.333   7.280
 5859POPC   NC374027  22.454  29.712   5.345
 5859POPC   PO474028  22.009  30.182   5.294
 5859POPC   GL174029  22.061  30.151   5.782
 5859POPC   GL274030  22.412  30.215   5.856
 5859POPC   C1A74031  22.133  29.957   6.246
 5859POPC   D2A74032  22.259  29.803   6.702
 5859POPC   C3A74033  22.061  29.810   7.128
 5859POPC   C4A74034  22.091  29.632   7.538
 5859POPC   C1B74035  22.461  30.348   6.262
 5859POPC   C2B74036  22.592  30.182   6.640
 5859POPC   C3B74037  22.459  30.133   7.062
 5859POPC   C4B74038  22.417  30.052   7.487
 5860POPC   NC374039  38.256  17.257   5.347
 5860POPC   PO474040  38.109  17.851   5.198
 5860POPC   GL174041  38.352  17.702   5.626
 5860POPC   GL274042  38.319  17.365   5.824
 5860POPC   C1A74043  38.435  17.760   6.096
 5860POPC   D2A74044  38.225  17.679   6.485
 5860POPC   C3A74045  38.473  17.542   6.850
 5860POPC   C4A74046  38.621  17.720   7.235
 5860POPC   C1B74047  38.576  17.283   6.188
 5860POPC   C2B74048  38.462  17.091   6.563
 5860POPC   C3B74049  38.400  17.043   6.984
 5860POPC   C4B74050  38.773  17.214   7.185
 5861POPC   NC374051  34.487  40.407   5.437
 5861POPC   PO474052  34.975  39.924   5.574
 5861POPC   GL174053  34.702  39.920   5.934
 5861POPC   GL274054  34.469  40.158   5.880
 5861POPC   C1A74055  34.624  39.935   6.385
 5861POPC   D2A74056  34.816  40.113   6.771
 5861POPC   C3A74057  34.587  39.993   7.142
 5861POPC   C4A74058  34.479  40.091   7.572
 5861POPC   C1B74059  34.307  40.360   6.262
 5861POPC   C2B74060  34.344  40.279   6.683
 5861POPC   C3B74061  34.309  40.424   7.102
 5861POPC   C4B74062  34.338  40.573   7.579
 5862POPC   NC374063   3.188   2.760   5.412
 5862POPC   PO474064   2.599   2.417   5.447
 5862POPC   GL174065   2.783   2.733   5.737
 5862POPC   GL274066   2.989   2.467   5.787
 5862POPC   C1A74067   2.681   2.977   6.127
 5862POPC   D2A74068   2.467   2.839   6.514
 5862POPC   C3A74069   2.602   2.919   6.958
 5862POPC   C4A74070   2.504   2.962   7.420
 5862POPC   C1B74071   2.815   2.485   6.209
 5862POPC   C2B74072   3.037   2.772   6.501
 5862POPC   C3B74073   3.212   2.870   6.921
 5862POPC   C4B74074   2.989   2.790   7.313
 5863POPC   NC374075   0.118  36.830   5.081
 5863POPC   PO474076   0.372  37.389   5.485
 5863POPC   GL174077   0.505  37.105   5.848
 5863POPC   GL274078   0.568  36.763   5.801
 5863POPC   C1A74079   0.460  36.893   6.276
 5863POPC   D2A74080   0.192  36.782   6.606
 5863POPC   C3A74081   0.294  36.929   6.996
 5863POPC   C4A74082   0.062  37.092   7.324
 5863POPC   C1B74083   0.697  36.454   6.184
 5863POPC   C2B74084   0.634  36.521   6.651
 5863POPC   C3B74085   0.647  36.586   7.122
 5863POPC   C4B74086   0.458  36.816   7.484
 5864POPC   NC374087  10.047   0.110   5.521
 5864POPC   PO474088  10.775   0.110   5.398
 5864POPC   GL174089  10.681   0.437   5.752
 5864POPC   GL274090  10.926   0.728   5.724
 5864POPC   C1A74091  10.441   0.478   6.194
 5864POPC   D2A74092  10.226   0.530   6.643
 5864POPC   C3A74093  10.449   0.396   7.040
 5864POPC   C4A74094  10.441   0.379   7.548
 5864POPC   C1B74095  10.995   0.538   6.161
 5864POPC   C2B74096  10.769   0.643   6.569
 5864POPC   C3B74097  10.742   0.818   6.979
 5864POPC   C4B74098  10.863   0.544   7.298
 5865POPC   NC374099   3.691   7.497   5.341
 5865POPC   PO474100   3.395   6.959   5.392
 5865POPC   GL174101   3.474   7.114   5.773
 5865POPC   GL274102   3.498   7.486   5.801
 5865POPC   C1A74103   3.407   6.973   6.183
 5865POPC   D2A74104   3.459   7.218   6.555
 5865POPC   C3A74105   3.544   7.072   6.970
 5865POPC   C4A74106   3.496   7.346   7.343
 5865POPC   C1B74107   3.723   7.703   6.126
 5865POPC   C2B74108   3.565   7.714   6.517
 5865POPC   C3B74109   3.665   7.579   6.910
 5865POPC   C4B74110   3.822   7.758   7.274
 5866POPC   NC374111  38.908  44.332   5.568
 5866POPC   PO474112  39.402  44.721   5.460
 5866POPC   GL174113  39.282  44.589   5.836
 5866POPC   GL274114  39.189  44.890   5.926
 5866POPC   C1A74115  39.210  44.486   6.263
 5866POPC   D2A74116  39.245  44.698   6.641
 5866POPC   C3A74117  39.267  44.494   7.000
 5866POPC   C4A74118  39.230  44.228   7.330
 5866POPC   C1B74119  39.460  44.985   6.271
 5866POPC   C2B74120  39.545   0.091   6.662
 5866POPC   C3B74121  39.311   0.034   7.067
 5866POPC   C4B74122  39.337  44.808   7.457
 5867POPC   NC374123  21.922  14.610   5.347
 5867POPC   PO474124  22.397  14.104   5.514
 5867POPC   GL174125  22.285  14.278   5.935
 5867POPC   GL274126  22.129  14.592   5.870
 5867POPC   C1A74127  21.986  14.402   6.310
 5867POPC   D2A74128  22.053  14.711   6.654
 5867POPC   C3A74129  21.921  14.526   7.064
 5867POPC   C4A74130  21.974  14.099   7.207
 5867POPC   C1B74131  22.442  14.640   6.253
 5867POPC   C2B74132  22.541  14.482   6.676
 5867POPC   C3B74133  22.405  14.663   7.075
 5867POPC   C4B74134  22.242  14.508   7.471
 5868POPC   NC374135   4.893  29.374   5.314
 5868POPC   PO474136   4.238  29.197   5.302
 5868POPC   GL174137   4.214  29.340   5.739
 5868POPC   GL274138   4.112  28.997   5.801
 5868POPC   C1A74139   4.211  29.282   6.213
 5868POPC   D2A74140   4.111  29.089   6.630
 5868POPC   C3A74141   4.189  29.333   6.999
 5868POPC   C4A74142   4.432  29.425   7.370
 5868POPC   C1B74143   3.926  28.817   6.179
 5868POPC   C2B74144   3.929  28.599   6.608
 5868POPC   C3B74145   4.146  28.696   6.984
 5868POPC   C4B74146   4.446  28.936   7.241
 5869POPC   NC374147  19.434  11.840   5.559
 5869POPC   PO474148  19.790  12.349   5.203
 5869POPC   GL174149  19.891  12.318   5.692
 5869POPC   GL274150  19.613  12.166   5.883
 5869POPC   C1A74151  20.011  12.174   6.169
 5869POPC   D2A74152  19.832  12.140   6.572
 5869POPC   C3A74153  20.111  11.939   6.824
 5869POPC   C4A74154  20.137  11.973   7.243
 5869POPC   C1B74155  19.573  11.840   6.231
 5869POPC   C2B74156  19.617  11.642   6.652
 5869POPC   C3B74157  19.688  11.772   7.083
 5869POPC   C4B74158  19.553  12.126   7.311
 5870POPC   NC374159  40.259  32.044   5.442
 5870POPC   PO474160  39.679  31.919   5.467
 5870POPC   GL174161  39.924  32.054   5.854
 5870POPC   GL274162  40.088  32.405   5.800
 5870POPC   C1A74163  39.792  32.200   6.292
 5870POPC   D2A74164  39.629  32.327   6.704
 5870POPC   C3A74165  39.782  32.036   7.013
 5870POPC   C4A74166  39.855  32.115   7.458
 5870POPC   C1B74167  40.290  32.254   6.194
 5870POPC   C2B74168  40.167  32.098   6.650
 5870POPC   C3B74169  40.216  32.295   7.080
 5870POPC   C4B74170  40.287  32.354   7.538
 5871POPC   NC374171  28.066   0.189   5.535
 5871POPC   PO474172  27.384   0.262   5.534
 5871POPC   GL174173  27.645   0.404   5.846
 5871POPC   GL274174  27.395   0.615   5.956
 5871POPC   C1A74175  27.611   0.307   6.289
 5871POPC   D2A74176  27.375   0.288   6.641
 5871POPC   C3A74177  27.524   0.438   6.982
 5871POPC   C4A74178  27.534   0.254   7.315
 5871POPC   C1B74179  27.721   0.812   6.158
 5871POPC   C2B74180  27.611   0.776   6.579
 5871POPC   C3B74181  27.298   0.877   6.895
 5871POPC   C4B74182  27.369   0.804   7.344
 5872POPC   NC374183  42.530  37.090   5.506
 5872POPC   PO474184  42.998  36.579   5.327
 5872POPC   GL174185  42.655  36.619   5.756
 5872POPC   GL274186  42.269  36.689   5.737
 5872POPC   C1A74187  42.506  36.915   6.145
 5872POPC   D2A74188  42.225  36.943   6.556
 5872POPC   C3A74189  42.282  36.744   6.994
 5872POPC   C4A74190  42.375  36.912   7.406
 5872POPC   C1B74191  42.110  36.583   6.163
 5872POPC   C2B74192  42.094  36.426   6.600
 5872POPC   C3B74193  41.816  36.529   6.955
 5872POPC   C4B74194  41.872  36.773   7.381
 5873POPC   NC374195  36.684  37.946   5.540
 5873POPC   PO474196  37.344  37.758   5.506
 5873POPC   GL174197  37.110  37.891   5.868
 5873POPC   GL274198  36.886  37.569   5.851
 5873POPC   C1A74199  36.850  37.868   6.290
 5873POPC   D2A74200  36.724  37.585   6.676
 5873POPC   C3A74201  36.789  37.743   7.124
 5873POPC   C4A74202  36.872  37.733   7.609
 5873POPC   C1B74203  37.187  37.498   6.190
 5873POPC   C2B74204  37.238  37.653   6.580
 5873POPC   C3B74205  37.166  37.426   6.919
 5873POPC   C4B74206  37.153  37.437   7.339
 5874POPC   NC374207  30.251  37.374   5.491
 5874POPC   PO474208  30.012  37.921   5.492
 5874POPC   GL174209  29.945  37.644   5.812
 5874POPC   GL274210  30.217  37.440   5.983
 5874POPC   C1A74211  29.694  37.504   6.136
 5874POPC   D2A74212  29.660  37.700   6.525
 5874POPC   C3A74213  29.804  37.442   6.877
 5874POPC   C4A74214  29.700  37.534   7.293
 5874POPC   C1B74215  30.164  37.755   6.279
 5874POPC   C2B74216  30.095  37.932   6.683
 5874POPC   C3B74217  30.158  37.775   7.088
 5874POPC   C4B74218  30.201  37.395   7.267
 5875POPC   NC374219   0.069  16.134   5.283
 5875POPC   PO474220  44.442  15.842   5.564
 5875POPC   GL174221  44.714  15.822   5.890
 5875POPC   GL274222  44.862  16.137   5.857
 5875POPC   C1A74223  44.798  15.878   6.323
 5875POPC   D2A74224  44.825  15.584   6.644
 5875POPC   C3A74225  44.766  15.872   6.941
 5875POPC   C4A74226  44.941  16.067   7.283
 5875POPC   C1B74227  44.638  16.350   6.193
 5875POPC   C2B74228  44.718  16.390   6.622
 5875POPC   C3B74229  44.573  16.338   7.056
 5875POPC   C4B74230  44.498  16.228   7.498
 5876POPC   NC374231   4.833  42.482   5.357
 5876POPC   PO474232   5.363  42.108   5.402
 5876POPC   GL174233   5.181  42.264   5.757
 5876POPC   GL274234   4.982  42.561   5.836
 5876POPC   C1A74235   5.082  42.160   6.165
 5876POPC   D2A74236   5.204  41.973   6.540
 5876POPC   C3A74237   5.090  42.130   6.958
 5876POPC   C4A74238   5.391  42.277   7.254
 5876POPC   C1B74239   5.345  42.610   6.094
 5876POPC   C2B74240   5.337  42.480   6.482
 5876POPC   C3B74241   5.295  42.585   6.857
 5876POPC   C4B74242   4.993  42.606   7.173
 5877POPC   NC374243   0.367  33.657   5.499
 5877POPC   PO474244   0.230  34.274   5.261
 5877POPC   GL174245   0.443  34.178   5.724
 5877POPC   GL274246   0.207  33.969   5.875
 5877POPC   C1A74247   0.653  33.932   6.145
 5877POPC   D2A74248   0.552  33.622   6.526
 5877POPC   C3A74249   0.541  33.796   6.968
 5877POPC   C4A74250   0.672  34.087   7.334
 5877POPC   C1B74251   0.172  33.899   6.298
 5877POPC   C2B74252  44.967  33.542   6.471
 5877POPC   C3B74253  44.940  33.378   6.868
 5877POPC   C4B74254   0.129  33.563   7.232
 5878POPC   NC374255   5.462  12.862   5.387
 5878POPC   PO474256   4.861  12.743   5.452
 5878POPC   GL174257   5.069  12.949   5.820
 5878POPC   GL274258   5.386  13.143   5.816
 5878POPC   C1A74259   5.180  12.866   6.255
 5878POPC   D2A74260   5.373  12.698   6.629
 5878POPC   C3A74261   5.113  12.595   6.969
 5878POPC   C4A74262   5.052  12.634   7.400
 5878POPC   C1B74263   5.585  13.166   6.236
 5878POPC   C2B74264   5.378  13.204   6.628
 5878POPC   C3B74265   5.317  13.064   7.029
 5878POPC   C4B74266   5.472  13.214   7.473
 5879POPC   NC374267  29.859  23.988   5.240
 5879POPC   PO474268  30.388  23.617   5.301
 5879POPC   GL174269  30.024  23.818   5.687
 5879POPC   GL274270  29.827  23.562   5.890
 5879POPC   C1A74271  29.723  24.002   6.077
 5879POPC   D2A74272  29.671  23.821   6.508
 5879POPC   C3A74273  29.875  23.932   6.882
 5879POPC   C4A74274  29.650  23.926   7.266
 5879POPC   C1B74275  30.116  23.752   6.253
 5879POPC   C2B74276  30.458  23.608   6.501
 5879POPC   C3B74277  30.360  23.706   6.917
 5879POPC   C4B74278  30.072  23.619   7.275
 5880POPC   NC374279  18.830  25.549   5.521
 5880POPC   PO474280  19.332  25.113   5.365
 5880POPC   GL174281  19.116  25.159   5.784
 5880POPC   GL274282  19.195  25.505   5.866
 5880POPC   C1A74283  19.154  25.164   6.253
 5880POPC   D2A74284  19.347  25.464   6.561
 5880POPC   C3A74285  19.296  25.378   7.013
 5880POPC   C4A74286  18.995  25.165   7.277
 5880POPC   C1B74287  18.887  25.607   6.185
 5880POPC   C2B74288  18.835  25.510   6.602
 5880POPC   C3B74289  18.799  25.567   7.006
 5880POPC   C4B74290  18.776  25.611   7.414
 5881POPC   NC374291  38.582  18.380   5.413
 5881POPC   PO474292  38.040  18.107   5.681
 5881POPC   GL174293  38.374  18.223   5.919
 5881POPC   GL274294  38.443  18.552   5.899
 5881POPC   C1A74295  38.405  18.188   6.374
 5881POPC   D2A74296  38.584  18.037   6.730
 5881POPC   C3A74297  38.335  18.130   7.095
 5881POPC   C4A74298  38.399  18.167   7.525
 5881POPC   C1B74299  38.626  18.647   6.305
 5881POPC   C2B74300  38.720  18.573   6.752
 5881POPC   C3B74301  38.535  18.602   7.169
 5881POPC   C4B74302  38.383  18.688   7.603
 5882POPC   NC374303  17.446  19.688   5.461
 5882POPC   PO474304  17.399  20.358   5.569
 5882POPC   GL174305  17.230  19.976   5.813
 5882POPC   GL274306  17.549  19.773   5.953
 5882POPC   C1A74307  17.104  19.757   6.204
 5882POPC   D2A74308  17.238  19.858   6.617
 5882POPC   C3A74309  17.274  19.626   6.985
 5882POPC   C4A74310  17.390  19.781   7.399
 5882POPC   C1B74311  17.911  19.869   6.241
 5882POPC   C2B74312  17.975  19.985   6.674
 5882POPC   C3B74313  17.737  19.863   7.002
 5882POPC   C4B74314  17.829  19.558   7.289
 5883POPC   NC374315   3.780  26.411   5.422
 5883POPC   PO474316   3.405  26.899   5.278
 5883POPC   GL174317   3.349  26.718   5.733
 5883POPC   GL274318   3.699  26.642   5.881
 5883POPC   C1A74319   3.358  26.788   6.227
 5883POPC   D2A74320   3.400  27.035   6.628
 5883POPC   C3A74321   3.197  26.970   7.031
 5883POPC   C4A74322   3.338  26.865   7.450
 5883POPC   C1B74323   3.826  26.345   6.231
 5883POPC   C2B74324   3.694  26.249   6.685
 5883POPC   C3B74325   3.592  26.609   6.963
 5883POPC   C4B74326   3.685  27.039   7.093
 5884POPC   NC374327  42.885  20.913   5.469
 5884POPC   PO474328  43.357  20.406   5.446
 5884POPC   GL174329  43.209  20.458   5.859
 5884POPC   GL274330  43.185  20.830   5.901
 5884POPC   C1A74331  43.056  20.482   6.279
 5884POPC   D2A74332  43.188  20.790   6.562
 5884POPC   C3A74333  43.111  20.586   6.944
 5884POPC   C4A74334  42.854  20.324   7.186
 5884POPC   C1B74335  42.740  20.840   6.102
 5884POPC   C2B74336  42.664  20.864   6.549
 5884POPC   C3B74337  42.909  21.052   6.902
 5884POPC   C4B74338  42.954  20.865   7.342
 5885POPC   NC374339   4.267  25.483   5.036
 5885POPC   PO474340   3.771  25.308   5.365
 5885POPC   GL174341   3.911  25.246   5.817
 5885POPC   GL274342   4.267  25.186   5.968
 5885POPC   C1A74343   3.896  25.424   6.228
 5885POPC   D2A74344   4.167  25.281   6.521
 5885POPC   C3A74345   4.155  25.337   6.939
 5885POPC   C4A74346   4.289  25.694   7.167
 5885POPC   C1B74347   4.468  24.921   6.312
 5885POPC   C2B74348   4.562  25.039   6.746
 5885POPC   C3B74349   4.657  25.322   7.099
 5885POPC   C4B74350   4.854  25.660   7.377
 5886POPC   NC374351   9.597  19.311   5.473
 5886POPC   PO474352   9.888  18.772   5.635
 5886POPC   GL174353   9.914  19.173   5.839
 5886POPC   GL274354   9.581  19.292   5.996
 5886POPC   C1A74355  10.144  19.398   6.117
 5886POPC   D2A74356   9.921  19.462   6.491
 5886POPC   C3A74357   9.883  19.150   6.774
 5886POPC   C4A74358   9.680  19.219   7.143
 5886POPC   C1B74359   9.696  18.985   6.305
 5886POPC   C2B74360   9.517  18.817   6.699
 5886POPC   C3B74361   9.799  18.725   7.056
 5886POPC   C4B74362   9.780  18.703   7.520
 5887POPC   NC374363   9.996  23.782   5.691
 5887POPC   PO474364  10.527  23.634   5.317
 5887POPC   GL174365  10.518  23.777   5.748
 5887POPC   GL274366  10.375  23.450   5.806
 5887POPC   C1A74367  10.671  23.892   6.200
 5887POPC   D2A74368  10.776  24.042   6.652
 5887POPC   C3A74369  10.515  23.988   7.048
 5887POPC   C4A74370  10.397  23.735   7.428
 5887POPC   C1B74371  10.341  23.450   6.243
 5887POPC   C2B74372  10.340  23.208   6.618
 5887POPC   C3B74373  10.393  23.358   7.069
 5887POPC   C4B74374  10.146  23.289   7.455
 5888POPC   NC374375   4.784  32.601   5.399
 5888POPC   PO474376   5.375  32.152   5.617
 5888POPC   GL174377   5.048  32.358   5.803
 5888POPC   GL274378   4.884  32.082   5.967
 5888POPC   C1A74379   4.954  32.560   6.162
 5888POPC   D2A74380   5.127  32.530   6.574
 5888POPC   C3A74381   4.993  32.233   6.857
 5888POPC   C4A74382   4.984  32.267   7.282
 5888POPC   C1B74383   5.231  32.109   6.288
 5888POPC   C2B74384   5.324  31.869   6.670
 5888POPC   C3B74385   5.261  31.844   7.140
 5888POPC   C4B74386   5.183  31.877   7.610
 5889POPC   NC374387  29.441   9.148   5.431
 5889POPC   PO474388  28.961   8.649   5.515
 5889POPC   GL174389  29.093   8.961   5.841
 5889POPC   GL274390  28.829   9.193   5.942
 5889POPC   C1A74391  29.346   8.902   6.239
 5889POPC   D2A74392  29.496   9.059   6.660
 5889POPC   C3A74393  29.261   8.945   7.014
 5889POPC   C4A74394  28.855   9.105   7.000
 5889POPC   C1B74395  28.844   9.057   6.381
 5889POPC   C2B74396  29.000   8.712   6.620
 5889POPC   C3B74397  28.959   8.511   7.016
 5889POPC   C4B74398  28.832   8.724   7.379
 5890POPC   NC374399  17.448  18.024   5.392
 5890POPC   PO474400  17.101  18.564   5.534
 5890POPC   GL174401  17.268  18.229   5.841
 5890POPC   GL274402  17.630  18.148   5.842
 5890POPC   C1A74403  17.357  18.115   6.296
 5890POPC   D2A74404  17.571  18.344   6.632
 5890POPC   C3A74405  17.437  18.288   7.018
 5890POPC   C4A74406  17.283  18.128   7.396
 5890POPC   C1B74407  17.862  18.289   6.218
 5890POPC   C2B74408  17.996  18.621   6.526
 5890POPC   C3B74409  17.852  18.636   6.958
 5890POPC   C4B74410  17.918  18.179   7.081
 5891POPC   NC374411   4.701  35.180   5.613
 5891POPC   PO474412   4.215  35.773   5.583
 5891POPC   GL174413   4.489  35.584   5.841
 5891POPC   GL274414   4.196  35.398   5.921
 5891POPC   C1A74415   4.583  35.325   6.222
 5891POPC   D2A74416   4.318  35.276   6.539
 5891POPC   C3A74417   4.480  35.408   6.917
 5891POPC   C4A74418   4.569  35.171   7.273
 5891POPC   C1B74419   3.949  35.162   6.160
 5891POPC   C2B74420   3.852  35.101   6.565
 5891POPC   C3B74421   3.796  35.234   6.931
 5891POPC   C4B74422   4.083  35.346   7.230
 5892POPC   NC374423   8.742  19.644   5.490
 5892POPC   PO474424   9.069  20.227   5.223
 5892POPC   GL174425   9.096  20.031   5.677
 5892POPC   GL274426   9.247  19.674   5.754
 5892POPC   C1A74427   8.972  20.084   6.144
 5892POPC   D2A74428   8.755  20.053   6.565
 5892POPC   C3A74429   8.873  20.167   7.002
 5892POPC   C4A74430   8.783  20.205   7.457
 5892POPC   C1B74431   9.114  19.568   6.188
 5892POPC   C2B74432   8.915  19.550   6.631
 5892POPC   C3B74433   8.946  19.644   7.101
 5892POPC   C4B74434   9.333  19.525   7.342
 5893POPC   NC374435  24.826  30.131   5.452
 5893POPC   PO474436  24.573  29.490   5.434
 5893POPC   GL174437  24.496  29.853   5.754
 5893POPC   GL274438  24.251  30.124   5.728
 5893POPC   C1A74439  24.390  29.901   6.200
 5893POPC   D2A74440  24.452  29.946   6.637
 5893POPC   C3A74441  24.573  29.702   6.966
 5893POPC   C4A74442  24.343  29.778   7.290
 5893POPC   C1B74443  24.069  30.309   6.135
 5893POPC   C2B74444  24.022  30.249   6.598
 5893POPC   C3B74445  24.161  30.201   7.032
 5893POPC   C4B74446  24.167  30.266   7.502
 5894POPC   NC374447  16.144  43.890   5.555
 5894POPC   PO474448  15.616  43.525   5.346
 5894POPC   GL174449  15.744  43.637   5.819
 5894POPC   GL274450  16.087  43.553   5.923
 5894POPC   C1A74451  15.858  43.868   6.269
 5894POPC   D2A74452  15.844  44.152   6.663
 5894POPC   C3A74453  15.742  43.994   7.074
 5894POPC   C4A74454  16.176  44.099   7.117
 5894POPC   C1B74455  16.158  43.443   6.353
 5894POPC   C2B74456  16.223  43.719   6.707
 5894POPC   C3B74457  16.079  43.611   7.093
 5894POPC   C4B74458  16.112  43.669   7.548
 5895POPC   NC374459  15.270  43.771   5.082
 5895POPC   PO474460  14.840  44.139   5.493
 5895POPC   GL174461  15.082  43.865   5.830
 5895POPC   GL274462  15.217  43.499   5.800
 5895POPC   C1A74463  14.897  43.652   6.195
 5895POPC   D2A74464  14.758  43.769   6.560
 5895POPC   C3A74465  15.046  44.005   6.746
 5895POPC   C4A74466  15.196  43.969   7.153
 5895POPC   C1B74467  15.398  43.655   6.219
 5895POPC   C2B74468  15.504  43.756   6.670
 5895POPC   C3B74469  15.464  43.557   7.086
 5895POPC   C4B74470  15.495  43.749   7.523
 5896POPC   NC374471  10.777  14.866   5.585
 5896POPC   PO474472  10.592  14.187   5.503
 5896POPC   GL174473  10.612  14.441   5.870
 5896POPC   GL274474  10.333  14.675   5.813
 5896POPC   C1A74475  10.706  14.257   6.295
 5896POPC   D2A74476  10.472  14.010   6.541
 5896POPC   C3A74477  10.468  14.212   6.907
 5896POPC   C4A74478  10.681  14.528   7.181
 5896POPC   C1B74479  10.279  14.515   6.246
 5896POPC   C2B74480  10.454  14.643   6.640
 5896POPC   C3B74481  10.235  14.696   7.040
 5896POPC   C4B74482  10.280  14.651   7.471
 5897POPC   NC374483  29.954  25.497   5.496
 5897POPC   PO474484  29.754  24.844   5.518
 5897POPC   GL174485  29.801  25.131   5.819
 5897POPC   GL274486  30.136  25.185   5.847
 5897POPC   C1A74487  29.797  25.298   6.225
 5897POPC   D2A74488  29.728  25.117   6.633
 5897POPC   C3A74489  29.773  25.410   6.976
 5897POPC   C4A74490  29.834  25.599   7.394
 5897POPC   C1B74491  30.136  24.858   6.147
 5897POPC   C2B74492  30.273  24.819   6.567
 5897POPC   C3B74493  30.127  24.968   6.947
 5897POPC   C4B74494  30.104  25.176   7.317
 5898POPC   NC374495  25.601  17.921   5.474
 5898POPC   PO474496  25.116  17.465   5.194
 5898POPC   GL174497  25.192  17.441   5.683
 5898POPC   GL274498  25.297  17.770   5.864
 5898POPC   C1A74499  25.461  17.325   6.067
 5898POPC   D2A74500  25.556  17.394   6.523
 5898POPC   C3A74501  25.240  17.290   6.854
 5898POPC   C4A74502  25.139  17.378   7.300
 5898POPC   C1B74503  25.159  17.670   6.313
 5898POPC   C2B74504  25.037  17.772   6.747
 5898POPC   C3B74505  25.004  17.845   7.187
 5898POPC   C4B74506  24.947  17.757   7.632
 5899POPC   NC374507  14.866  44.599   5.471
 5899POPC   PO474508  15.406  44.936   5.285
 5899POPC   GL174509  15.271  44.939   5.776
 5899POPC   GL274510  14.931  44.787   5.935
 5899POPC   C1A74511  15.345  44.786   6.227
 5899POPC   D2A74512  15.082  44.617   6.552
 5899POPC   C3A74513  15.225  44.873   6.877
 5899POPC   C4A74514  15.418  44.770   7.232
 5899POPC   C1B74515  15.122  44.358   6.070
 5899POPC   C2B74516  15.400  44.222   6.422
 5899POPC   C3B74517  15.399  44.345   6.877
 5899POPC   C4B74518  15.018  44.446   7.103
 5900POPC   NC374519  39.253  23.012   5.269
 5900POPC   PO474520  38.720  23.371   5.116
 5900POPC   GL174521  38.877  23.122   5.586
 5900POPC   GL274522  38.778  23.362   5.859
 5900POPC   C1A74523  39.265  23.058   5.917
 5900POPC   D2A74524  39.314  22.799   6.330
 5900POPC   C3A74525  39.542  22.881   6.737
 5900POPC   C4A74526  39.514  22.652   7.128
 5900POPC   C1B74527  38.931  23.194   6.258
 5900POPC   C2B74528  38.898  22.999   6.677
 5900POPC   C3B74529  39.115  23.005   7.069
 5900POPC   C4B74530  39.046  23.223   7.480
 5901POPC   NC374531  23.947  33.077   5.436
 5901POPC   PO474532  23.359  32.750   5.505
 5901POPC   GL174533  23.640  32.790   5.857
 5901POPC   GL274534  23.793  33.106   5.899
 5901POPC   C1A74535  23.546  32.876   6.297
 5901POPC   D2A74536  23.709  33.085   6.685
 5901POPC   C3A74537  23.610  32.837   7.031
 5901POPC   C4A74538  23.389  32.815   7.398
 5901POPC   C1B74539  24.031  33.025   6.265
 5901POPC   C2B74540  24.252  33.015   6.644
 5901POPC   C3B74541  24.108  33.073   7.039
 5901POPC   C4B74542  23.825  33.361   7.258
 5902POPC   NC374543   3.444  24.960   5.438
 5902POPC   PO474544   3.617  24.320   5.344
 5902POPC   GL174545   3.682  24.328   5.753
 5902POPC   GL274546   3.690  23.962   5.770
 5902POPC   C1A74547   3.527  24.609   6.103
 5902POPC   D2A74548   3.317  24.728   6.519
 5902POPC   C3A74549   3.524  24.660   6.895
 5902POPC   C4A74550   3.788  24.636   7.274
 5902POPC   C1B74551   3.495  24.097   6.150
 5902POPC   C2B74552   3.729  24.319   6.501
 5902POPC   C3B74553   3.791  24.221   6.941
 5902POPC   C4B74554   3.429  24.274   7.234
 5903POPC   NC374555  39.560  39.659   5.644
 5903POPC   PO474556  39.368  38.991   5.513
 5903POPC   GL174557  39.141  39.105   5.924
 5903POPC   GL274558  38.921  38.817   5.914
 5903POPC   C1A74559  39.125  39.340   6.377
 5903POPC   D2A74560  39.368  39.346   6.805
 5903POPC   C3A74561  39.272  39.531   7.254
 5903POPC   C4A74562  39.560  39.612   7.663
 5903POPC   C1B74563  39.101  38.799   6.353
 5903POPC   C2B74564  39.282  38.794   6.761
 5903POPC   C3B74565  39.276  38.987   7.153
 5903POPC   C4B74566  38.909  39.158   7.275
 5904POPC   NC374567  38.893  30.328   5.436
 5904POPC   PO474568  39.403  29.868   5.404
 5904POPC   GL174569  39.073  29.866   5.735
 5904POPC   GL274570  39.178  30.179   5.862
 5904POPC   C1A74571  38.990  29.857   6.212
 5904POPC   D2A74572  39.252  29.763   6.574
 5904POPC   C3A74573  39.122  29.999   6.937
 5904POPC   C4A74574  38.914  29.857   7.301
 5904POPC   C1B74575  39.503  29.941   6.105
 5904POPC   C2B74576  39.719  29.976   6.515
 5904POPC   C3B74577  39.622  29.859   6.978
 5904POPC   C4B74578  39.400  30.028   7.377
 5905POPC   NC374579   1.565  25.406   5.353
 5905POPC   PO474580   2.172  25.352   5.463
 5905POPC   GL174581   1.866  25.318   5.806
 5905POPC   GL274582   1.691  25.622   5.825
 5905POPC   C1A74583   1.810  25.062   6.209
 5905POPC   D2A74584   2.083  24.746   6.427
 5905POPC   C3A74585   2.096  24.798   6.866
 5905POPC   C4A74586   1.945  25.027   7.210
 5905POPC   C1B74587   1.860  25.566   6.254
 5905POPC   C2B74588   1.980  25.326   6.667
 5905POPC   C3B74589   2.017  25.542   7.093
 5905POPC   C4B74590   1.905  25.796   7.501
 5906POPC   NC374591  18.010  25.490   5.660
 5906POPC   PO474592  18.200  26.191   5.477
 5906POPC   GL174593  18.402  26.010   5.838
 5906POPC   GL274594  18.464  25.646   5.870
 5906POPC   C1A74595  18.510  26.096   6.273
 5906POPC   D2A74596  18.433  26.447   6.559
 5906POPC   C3A74597  18.569  26.421   6.979
 5906POPC   C4A74598  18.657  26.041   7.166
 5906POPC   C1B74599  18.382  25.585   6.303
 5906POPC   C2B74600  18.412  25.775   6.704
 5906POPC   C3B74601  18.307  25.658   7.110
 5906POPC   C4B74602  18.010  25.593   7.388
 5907POPC   NC374603  12.170  33.500   5.429
 5907POPC   PO474604  12.000  34.148   5.520
 5907POPC   GL174605  12.143  34.040   5.910
 5907POPC   GL274606  12.394  33.794   5.791
 5907POPC   C1A74607  12.017  33.797   6.282
 5907POPC   D2A74608  12.079  33.558   6.668
 5907POPC   C3A74609  11.876  33.618   7.085
 5907POPC   C4A74610  11.766  34.071   7.129
 5907POPC   C1B74611  12.535  33.792   6.199
 5907POPC   C2B74612  12.417  33.985   6.578
 5907POPC   C3B74613  12.260  33.946   6.992
 5907POPC   C4B74614  12.367  33.640   7.293
 5908POPC   NC374615  44.731  17.762   5.473
 5908POPC   PO474616  44.763  17.119   5.438
 5908POPC   GL174617  44.615  17.382   5.813
 5908POPC   GL274618  44.460  17.726   5.918
 5908POPC   C1A74619  44.571  17.352   6.243
 5908POPC   D2A74620  44.597  17.641   6.546
 5908POPC   C3A74621  44.780  17.432   6.885
 5908POPC   C4A74622  44.584  17.374   7.299
 5908POPC   C1B74623  44.905  17.724   6.087
 5908POPC   C2B74624   0.073  17.828   6.498
 5908POPC   C3B74625  44.879  18.020   6.830
 5908POPC   C4B74626  44.852  17.822   7.225
 5909POPC   NC374627  41.803   7.407   5.519
 5909POPC   PO474628  41.130   7.278   5.416
 5909POPC   GL174629  41.334   7.493   5.788
 5909POPC   GL274630  41.374   7.170   5.914
 5909POPC   C1A74631  41.524   7.657   6.196
 5909POPC   D2A74632  41.710   7.729   6.622
 5909POPC   C3A74633  41.514   7.784   7.039
 5909POPC   C4A74634  41.448   7.843   7.495
 5909POPC   C1B74635  41.730   7.205   6.203
 5909POPC   C2B74636  41.656   7.216   6.635
 5909POPC   C3B74637  41.787   7.331   7.036
 5909POPC   C4B74638  41.703   7.096   7.391
 5910POPC   NC374639   2.765  24.628   5.539
 5910POPC   PO474640   2.851  23.998   5.309
 5910POPC   GL174641   2.855  24.149   5.738
 5910POPC   GL274642   3.163  24.319   5.788
 5910POPC   C1A74643   2.590  24.333   6.092
 5910POPC   D2A74644   2.649  24.633   6.440
 5910POPC   C3A74645   2.636  24.500   6.859
 5910POPC   C4A74646   2.549  24.732   7.207
 5910POPC   C1B74647   3.077  24.358   6.268
 5910POPC   C2B74648   3.137  24.319   6.760
 5910POPC   C3B74649   3.034  24.552   7.169
 5910POPC   C4B74650   2.909  24.724   7.559
 5911POPC   NC374651  13.882  33.977   5.369
 5911POPC   PO474652  13.382  33.485   5.488
 5911POPC   GL174653  13.722  33.629   5.718
 5911POPC   GL274654  13.553  33.947   5.772
 5911POPC   C1A74655  13.830  33.655   6.163
 5911POPC   D2A74656  13.570  33.573   6.535
 5911POPC   C3A74657  13.842  33.555   6.884
 5911POPC   C4A74658  13.983  33.790   7.244
 5911POPC   C1B74659  13.420  33.979   6.194
 5911POPC   C2B74660  13.625  34.101   6.555
 5911POPC   C3B74661  13.570  33.980   6.955
 5911POPC   C4B74662  13.640  34.191   7.291
 5912POPC   NC374663   7.101  13.443   5.460
 5912POPC   PO474664   6.404  13.448   5.338
 5912POPC   GL174665   6.505  13.563   5.779
 5912POPC   GL274666   6.840  13.651   5.827
 5912POPC   C1A74667   6.619  13.465   6.238
 5912POPC   D2A74668   6.624  13.157   6.567
 5912POPC   C3A74669   6.861  13.342   6.915
 5912POPC   C4A74670   6.724  13.673   7.179
 5912POPC   C1B74671   7.016  13.822   6.195
 5912POPC   C2B74672   6.909  13.784   6.629
 5912POPC   C3B74673   7.113  13.984   6.991
 5912POPC   C4B74674   7.088  13.961   7.428
 5913POPC   NC374675  34.559  44.906   5.509
 5913POPC   PO474676  34.767  44.328   5.399
 5913POPC   GL174677  34.721  44.466   5.810
 5913POPC   GL274678  34.911  44.748   5.821
 5913POPC   C1A74679  34.475  44.657   6.137
 5913POPC   D2A74680  34.421  44.641   6.584
 5913POPC   C3A74681  34.573  44.718   7.015
 5913POPC   C4A74682  34.508  44.657   7.449
 5913POPC   C1B74683  34.866  44.969   6.190
 5913POPC   C2B74684  34.894  44.934   6.618
 5913POPC   C3B74685  34.866   0.121   7.014
 5913POPC   C4B74686  34.963  44.885   7.368
 5914POPC   NC374687  22.318  15.499   5.404
 5914POPC   PO474688  22.352  14.791   5.252
 5914POPC   GL174689  22.193  15.040   5.637
 5914POPC   GL274690  21.817  14.995   5.737
 5914POPC   C1A74691  22.158  15.069   6.120
 5914POPC   D2A74692  22.095  15.244   6.553
 5914POPC   C3A74693  22.368  15.156   6.903
 5914POPC   C4A74694  22.244  15.186   7.341
 5914POPC   C1B74695  21.685  14.845   6.175
 5914POPC   C2B74696  21.640  15.017   6.618
 5914POPC   C3B74697  21.871  15.031   7.021
 5914POPC   C4B74698  21.852  14.880   7.473
 5915POPC   NC374699  29.217  34.407   5.472
 5915POPC   PO474700  29.106  35.133   5.414
 5915POPC   GL174701  28.974  34.795   5.727
 5915POPC   GL274702  29.293  34.725   5.872
 5915POPC   C1A74703  28.870  34.582   6.137
 5915POPC   D2A74704  28.714  34.683   6.534
 5915POPC   C3A74705  29.007  34.629   6.875
 5915POPC   C4A74706  28.976  34.546   7.292
 5915POPC   C1B74707  29.437  34.542   6.241
 5915POPC   C2B74708  29.427  34.382   6.679
 5915POPC   C3B74709  29.489  34.567   7.103
 5915POPC   C4B74710  29.435  34.440   7.560
 5916POPC   NC374711  18.752  11.351   5.364
 5916POPC   PO474712  19.373  11.468   5.277
 5916POPC   GL174713  19.191  11.413   5.715
 5916POPC   GL274714  18.950  11.182   5.836
 5916POPC   C1A74715  19.110  11.585   6.142
 5916POPC   D2A74716  18.979  11.442   6.559
 5916POPC   C3A74717  19.124  11.610   6.923
 5916POPC   C4A74718  19.028  11.415   7.307
 5916POPC   C1B74719  19.337  11.130   6.139
 5916POPC   C2B74720  19.410  11.150   6.613
 5916POPC   C3B74721  19.087  11.054   6.946
 5916POPC   C4B74722  18.927  10.883   7.345
 5917POPC   NC374723  26.374  21.555   5.131
 5917POPC   PO474724  26.255  20.914   5.184
 5917POPC   GL174725  26.229  21.209   5.582
 5917POPC   GL274726  26.275  21.576   5.709
 5917POPC   C1A74727  26.102  21.153   6.031
 5917POPC   D2A74728  26.172  21.280   6.486
 5917POPC   C3A74729  26.031  21.045   6.873
 5917POPC   C4A74730  26.132  21.189   7.323
 5917POPC   C1B74731  25.944  21.639   6.078
 5917POPC   C2B74732  25.751  21.583   6.507
 5917POPC   C3B74733  25.918  21.547   6.942
 5917POPC   C4B74734  25.700  21.653   7.326
 5918POPC   NC374735  31.380  24.415   5.509
 5918POPC   PO474736  30.709  24.547   5.481
 5918POPC   GL174737  30.736  24.432   5.873
 5918POPC   GL274738  30.968  24.183   5.842
 5918POPC   C1A74739  30.567  24.555   6.243
 5918POPC   D2A74740  30.752  24.532   6.633
 5918POPC   C3A74741  30.573  24.680   6.977
 5918POPC   C4A74742  30.447  24.553   7.389
 5918POPC   C1B74743  31.037  24.225   6.274
 5918POPC   C2B74744  31.182  24.136   6.682
 5918POPC   C3B74745  31.011  24.329   7.031
 5918POPC   C4B74746  30.830  24.236   7.440
 5919POPC   NC374747  41.091  12.452   5.512
 5919POPC   PO474748  40.932  13.133   5.407
 5919POPC   GL174749  40.871  12.883   5.794
 5919POPC   GL274750  40.758  12.503   5.888
 5919POPC   C1A74751  40.815  13.059   6.217
 5919POPC   D2A74752  40.606  12.893   6.572
 5919POPC   C3A74753  40.534  13.167   6.917
 5919POPC   C4A74754  40.615  13.051   7.337
 5919POPC   C1B74755  41.090  12.624   6.182
 5919POPC   C2B74756  41.119  12.755   6.598
 5919POPC   C3B74757  40.942  12.827   7.000
 5919POPC   C4B74758  40.977  12.731   7.456
 5920POPC   NC374759  38.110  33.500   5.338
 5920POPC   PO474760  38.662  33.890   5.431
 5920POPC   GL174761  38.622  33.829   5.846
 5920POPC   GL274762  38.287  33.759   5.831
 5920POPC   C1A74763  38.757  33.773   6.261
 5920POPC   D2A74764  38.454  33.794   6.584
 5920POPC   C3A74765  38.497  33.874   6.982
 5920POPC   C4A74766  38.929  33.849   7.068
 5920POPC   C1B74767  38.290  33.522   6.200
 5920POPC   C2B74768  38.262  33.331   6.620
 5920POPC   C3B74769  38.195  33.446   7.085
 5920POPC   C4B74770  38.191  33.334   7.555
 5921POPC   NC374771   1.502   2.875   5.438
 5921POPC   PO474772   1.021   2.428   5.267
 5921POPC   GL174773   1.079   2.596   5.739
 5921POPC   GL274774   1.174   2.976   5.840
 5921POPC   C1A74775   1.176   2.613   6.217
 5921POPC   D2A74776   1.156   2.853   6.651
 5921POPC   C3A74777   1.044   2.657   7.064
 5921POPC   C4A74778   1.284   2.518   7.455
 5921POPC   C1B74779   1.411   3.100   6.241
 5921POPC   C2B74780   1.582   3.163   6.671
 5921POPC   C3B74781   1.320   3.177   7.043
 5921POPC   C4B74782   0.862   3.125   6.991
 5922POPC   NC374783  33.395  36.732   5.524
 5922POPC   PO474784  33.942  37.119   5.434
 5922POPC   GL174785  33.701  37.069   5.787
 5922POPC   GL274786  33.851  36.719   5.827
 5922POPC   C1A74787  33.679  37.026   6.232
 5922POPC   D2A74788  33.753  37.263   6.591
 5922POPC   C3A74789  33.742  37.063   6.990
 5922POPC   C4A74790  33.771  36.876   7.367
 5922POPC   C1B74791  34.092  36.736   6.231
 5922POPC   C2B74792  34.038  36.837   6.646
 5922POPC   C3B74793  34.091  36.652   7.056
 5922POPC   C4B74794  34.008  36.400   7.468
 5923POPC   NC374795  22.113  44.856   5.318
 5923POPC   PO474796  21.908  44.283   5.482
 5923POPC   GL174797  22.112  44.562   5.790
 5923POPC   GL274798  22.163  44.925   5.823
 5923POPC   C1A74799  22.254  44.475   6.198
 5923POPC   D2A74800  22.109  44.222   6.525
 5923POPC   C3A74801  22.068  44.493   6.870
 5923POPC   C4A74802  22.023  44.305   7.248
 5923POPC   C1B74803  22.479  44.930   6.152
 5923POPC   C2B74804  22.335  44.854   6.559
 5923POPC   C3B74805  22.197   0.014   6.929
 5923POPC   C4B74806  22.214  44.834   7.303
 5924POPC   NC374807  41.771  29.112   5.433
 5924POPC   PO474808  41.133  29.274   5.413
 5924POPC   GL174809  41.410  29.243   5.802
 5924POPC   GL274810  41.546  28.896   5.845
 5924POPC   C1A74811  41.530  29.403   6.236
 5924POPC   D2A74812  41.876  29.438   6.490
 5924POPC   C3A74813  41.770  29.243   6.855
 5924POPC   C4A74814  41.568  29.333   7.237
 5924POPC   C1B74815  41.301  28.919   6.209
 5924POPC   C2B74816  41.325  29.125   6.595
 5924POPC   C3B74817  41.320  28.969   6.987
 5924POPC   C4B74818  41.278  28.740   7.363
 5925POPC   NC374819  21.266  41.936   5.478
 5925POPC   PO474820  21.525  41.367   5.252
 5925POPC   GL174821  21.311  41.498   5.725
 5925POPC   GL274822  21.405  41.779   5.941
 5925POPC   C1A74823  21.176  41.431   6.207
 5925POPC   D2A74824  21.324  41.642   6.618
 5925POPC   C3A74825  21.325  41.530   7.083
 5925POPC   C4A74826  21.382  41.664   7.531
 5925POPC   C1B74827  21.624  41.940   6.319
 5925POPC   C2B74828  21.815  41.791   6.725
 5925POPC   C3B74829  21.750  41.833   7.191
 5925POPC   C4B74830  21.773  41.975   7.662
 5926POPC   NC374831  23.335  24.156   5.333
 5926POPC   PO474832  22.816  24.668   5.446
 5926POPC   GL174833  22.940  24.383   5.740
 5926POPC   GL274834  23.308  24.412   5.787
 5926POPC   C1A74835  22.717  24.152   6.075
 5926POPC   D2A74836  22.512  24.256   6.493
 5926POPC   C3A74837  22.761  24.409   6.831
 5926POPC   C4A74838  22.721  24.385   7.269
 5926POPC   C1B74839  23.152  24.469   6.228
 5926POPC   C2B74840  23.258  24.413   6.672
 5926POPC   C3B74841  23.195  24.544   7.111
 5926POPC   C4B74842  23.281  24.973   7.278
 5927POPC   NC374843  41.003  43.361   5.363
 5927POPC   PO474844  40.458  43.150   5.592
 5927POPC   GL174845  40.839  43.127   5.844
 5927POPC   GL274846  40.994  43.452   5.865
 5927POPC   C1A74847  40.866  42.874   6.245
 5927POPC   D2A74848  40.651  42.689   6.619
 5927POPC   C3A74849  40.787  42.919   6.983
 5927POPC   C4A74850  41.107  43.160   7.213
 5927POPC   C1B74851  40.720  43.444   6.227
 5927POPC   C2B74852  40.685  43.253   6.595
 5927POPC   C3B74853  40.709  43.482   6.957
 5927POPC   C4B74854  40.881  43.603   7.313
 5928POPC   NC374855  33.700  25.385   5.448
 5928POPC   PO474856  34.110  25.072   5.740
 5928POPC   GL174857  33.694  25.224   5.948
 5928POPC   GL274858  33.559  25.622   5.880
 5928POPC   C1A74859  33.685  25.055   6.382
 5928POPC   D2A74860  33.950  25.012   6.760
 5928POPC   C3A74861  33.699  24.942   7.086
 5928POPC   C4A74862  33.366  25.165   7.300
 5928POPC   C1B74863  33.893  25.652   6.148
 5928POPC   C2B74864  33.982  25.460   6.521
 5928POPC   C3B74865  33.793  25.506   6.932
 5928POPC   C4B74866  33.986  25.594   7.323
 5929POPC   NC374867  38.582  37.075   5.383
 5929POPC   PO474868  38.189  36.478   5.170
 5929POPC   GL174869  38.217  36.734   5.640
 5929POPC   GL274870  38.230  37.113   5.758
 5929POPC   C1A74871  38.353  36.797   6.114
 5929POPC   D2A74872  38.631  36.750   6.491
 5929POPC   C3A74873  38.476  36.774   6.933
 5929POPC   C4A74874  38.318  37.151   7.157
 5929POPC   C1B74875  38.626  37.216   6.042
 5929POPC   C2B74876  38.625  37.318   6.491
 5929POPC   C3B74877  38.796  37.263   6.905
 5929POPC   C4B74878  38.748  37.381   7.338
 5930POPC   NC374879   9.592  41.131   5.480
 5930POPC   PO474880   9.777  40.486   5.501
 5930POPC   GL174881   9.748  40.773   5.803
 5930POPC   GL274882  10.047  40.998   5.685
 5930POPC   C1A74883   9.631  40.769   6.232
 5930POPC   D2A74884   9.704  40.521   6.598
 5930POPC   C3A74885   9.615  40.730   7.004
 5930POPC   C4A74886   9.510  41.078   7.306
 5930POPC   C1B74887  10.173  40.784   6.060
 5930POPC   C2B74888  10.114  40.824   6.484
 5930POPC   C3B74889  10.107  40.794   6.926
 5930POPC   C4B74890   9.996  40.962   7.347
 5931POPC   NC374891  43.830   1.795   5.441
 5931POPC   PO474892  44.133   2.514   5.430
 5931POPC   GL174893  43.964   2.220   5.818
 5931POPC   GL274894  44.118   1.892   5.955
 5931POPC   C1A74895  43.742   2.032   6.225
 5931POPC   D2A74896  43.905   1.675   6.450
 5931POPC   C3A74897  43.796   1.684   6.877
 5931POPC   C4A74898  43.716   2.035   7.138
 5931POPC   C1B74899  44.283   2.017   6.344
 5931POPC   C2B74900  44.100   2.106   6.751
 5931POPC   C3B74901  44.190   2.186   7.178
 5931POPC   C4B74902  44.198   2.198   7.626
 5932POPC   NC374903  26.054  31.923   5.541
 5932POPC   PO474904  25.730  32.482   5.781
 5932POPC   GL174905  25.994  32.153   5.987
 5932POPC   GL274906  25.864  31.794   5.980
 5932POPC   C1A74907  26.253  32.271   6.339
 5932POPC   D2A74908  26.416  32.667   6.596
 5932POPC   C3A74909  26.286  32.613   7.045
 5932POPC   C4A74910  25.850  32.509   7.204
 5932POPC   C1B74911  25.869  31.784   6.407
 5932POPC   C2B74912  26.140  31.888   6.720
 5932POPC   C3B74913  26.260  32.058   7.077
 5932POPC   C4B74914  26.083  32.109   7.429
 5933POPC   NC374915  36.823  29.420   5.450
 5933POPC   PO474916  37.066  28.826   5.709
 5933POPC   GL174917  36.719  29.046   5.815
 5933POPC   GL274918  36.770  29.389   5.960
 5933POPC   C1A74919  36.468  29.012   6.181
 5933POPC   D2A74920  36.508  28.869   6.594
 5933POPC   C3A74921  36.699  29.238   6.788
 5933POPC   C4A74922  36.702  29.332   7.219
 5933POPC   C1B74923  36.967  29.140   6.308
 5933POPC   C2B74924  37.261  29.190   6.645
 5933POPC   C3B74925  37.309  28.991   7.032
 5933POPC   C4B74926  37.190  29.258   7.341
 5934POPC   NC374927   8.578   9.814   5.403
 5934POPC   PO474928   7.977   9.585   5.477
 5934POPC   GL174929   8.136   9.625   5.885
 5934POPC   GL274930   8.487   9.529   5.841
 5934POPC   C1A74931   8.072   9.585   6.349
 5934POPC   D2A74932   7.953   9.940   6.628
 5934POPC   C3A74933   8.103   9.889   7.040
 5934POPC   C4A74934   8.413   9.599   7.191
 5934POPC   C1B74935   8.464   9.877   6.186
 5934POPC   C2B74936   8.450   9.781   6.632
 5934POPC   C3B74937   8.607   9.979   6.942
 5934POPC   C4B74938   8.474  10.095   7.343
 5935POPC   NC374939  38.673   3.171   5.093
 5935POPC   PO474940  38.430   3.633   5.483
 5935POPC   GL174941  38.460   3.454   5.871
 5935POPC   GL274942  38.449   3.140   5.754
 5935POPC   C1A74943  38.380   3.605   6.268
 5935POPC   D2A74944  38.543   3.771   6.628
 5935POPC   C3A74945  38.226   3.728   6.917
 5935POPC   C4A74946  38.346   3.834   7.296
 5935POPC   C1B74947  38.571   3.049   6.203
 5935POPC   C2B74948  38.569   3.214   6.629
 5935POPC   C3B74949  38.325   3.145   7.009
 5935POPC   C4B74950  38.601   3.079   7.363
 5936POPC   NC374951   4.697  40.470   5.496
 5936POPC   PO474952   4.136  40.901   5.426
 5936POPC   GL174953   4.067  40.657   5.813
 5936POPC   GL274954   4.312  40.421   5.836
 5936POPC   C1A74955   4.048  40.606   6.281
 5936POPC   D2A74956   3.850  40.741   6.681
 5936POPC   C3A74957   4.187  40.856   6.950
 5936POPC   C4A74958   4.398  40.556   7.199
 5936POPC   C1B74959   4.501  40.782   6.080
 5936POPC   C2B74960   4.501  40.781   6.516
 5936POPC   C3B74961   4.713  40.773   6.880
 5936POPC   C4B74962   4.577  41.013   7.265
 5937POPC   NC374963  25.906  24.760   5.248
 5937POPC   PO474964  26.497  24.396   5.294
 5937POPC   GL174965  26.305  24.366   5.711
 5937POPC   GL274966  25.941  24.477   5.731
 5937POPC   C1A74967  26.254  24.401   6.171
 5937POPC   D2A74968  26.115  24.730   6.473
 5937POPC   C3A74969  26.236  24.662   6.897
 5937POPC   C4A74970  26.246  24.342   7.204
 5937POPC   C1B74971  25.718  24.421   6.130
 5937POPC   C2B74972  25.595  24.687   6.479
 5937POPC   C3B74973  25.700  24.601   6.900
 5937POPC   C4B74974  25.886  24.720   7.289
 5938POPC   NC374975  38.629  22.450   5.417
 5938POPC   PO474976  38.438  21.815   5.450
 5938POPC   GL174977  38.525  22.084   5.814
 5938POPC   GL274978  38.239  22.299   5.896
 5938POPC   C1A74979  38.585  22.114   6.270
 5938POPC   D2A74980  38.339  22.120   6.653
 5938POPC   C3A74981  38.616  22.069   6.998
 5938POPC   C4A74982  38.807  21.728   7.269
 5938POPC   C1B74983  38.243  22.490   6.301
 5938POPC   C2B74984  38.154  22.613   6.736
 5938POPC   C3B74985  38.150  22.317   7.103
 5938POPC   C4B74986  38.277  21.960   7.359
 5939POPC   NC374987  24.427  12.606   5.429
 5939POPC   PO474988  24.691  13.231   5.617
 5939POPC   GL174989  24.561  12.807   5.882
 5939POPC   GL274990  24.210  12.611   5.880
 5939POPC   C1A74991  24.595  12.483   6.229
 5939POPC   D2A74992  24.599  12.571   6.709
 5939POPC   C3A74993  24.806  12.941   6.826
 5939POPC   C4A74994  24.787  13.283   7.098
 5939POPC   C1B74995  24.170  12.734   6.333
 5939POPC   C2B74996  24.079  12.882   6.744
 5939POPC   C3B74997  24.329  12.879   7.131
 5939POPC   C4B74998  24.664  12.588   7.252
 5940POPC   NC374999   3.391  33.173   5.443
 5940POPC   PO475000   3.678  32.531   5.599
 5940POPC   GL175001   3.551  32.874   5.833
 5940POPC   GL275002   3.688  33.221   5.856
 5940POPC   C1A75003   3.652  32.875   6.235
 5940POPC   D2A75004   3.520  32.596   6.511
 5940POPC   C3A75005   3.562  32.875   6.823
 5940POPC   C4A75006   3.611  32.874   7.229
 5940POPC   C1B75007   3.540  33.399   6.260
 5940POPC   C2B75008   3.526  33.418   6.724
 5940POPC   C3B75009   3.835  33.298   7.029
 5940POPC   C4B75010   3.807  33.285   7.484
 5941POPC   NC375011  14.659   2.845   5.450
 5941POPC   PO475012  14.076   2.475   5.657
 5941POPC   GL175013  14.182   2.622   6.007
 5941POPC   GL275014  14.504   2.746   5.923
 5941POPC   C1A75015  14.298   2.816   6.385
 5941POPC   D2A75016  14.621   2.875   6.676
 5941POPC   C3A75017  14.292   2.875   6.932
 5941POPC   C4A75018  14.196   2.734   7.314
 5941POPC   C1B75019  14.597   2.435   6.220
 5941POPC   C2B75020  14.442   2.382   6.641
 5941POPC   C3B75021  14.592   2.488   7.043
 5941POPC   C4B75022  14.732   2.277   7.369
 5942POPC   NC375023   5.337  35.944   5.512
 5942POPC   PO475024   5.375  36.636   5.469
 5942POPC   GL175025   5.234  36.354   5.819
 5942POPC   GL275026   4.870  36.332   5.810
 5942POPC   C1A75027   5.391  36.121   6.214
 5942POPC   D2A75028   5.558  36.249   6.634
 5942POPC   C3A75029   5.359  36.043   6.965
 5942POPC   C4A75030   5.059  35.746   7.202
 5942POPC   C1B75031   4.970  36.415   6.252
 5942POPC   C2B75032   5.001  36.149   6.622
 5942POPC   C3B75033   4.903  36.227   7.076
 5942POPC   C4B75034   4.828  36.098   7.519
 5943POPC   NC375035  27.133   6.449   5.507
 5943POPC   PO475036  26.521   6.744   5.388
 5943POPC   GL175037  26.669   6.572   5.777
 5943POPC   GL275038  26.980   6.769   5.856
 5943POPC   C1A75039  26.604   6.622   6.241
 5943POPC   D2A75040  26.786   6.697   6.628
 5943POPC   C3A75041  26.564   6.733   7.008
 5943POPC   C4A75042  26.682   6.626   7.444
 5943POPC   C1B75043  27.074   6.439   6.174
 5943POPC   C2B75044  27.060   6.264   6.587
 5943POPC   C3B75045  27.196   6.365   6.999
 5943POPC   C4B75046  27.170   6.752   7.241
 5944POPC   NC375047  31.330  42.520   5.361
 5944POPC   PO475048  31.311  41.943   5.633
 5944POPC   GL175049  31.392  42.290   5.872
 5944POPC   GL275050  31.647  42.561   5.806
 5944POPC   C1A75051  31.340  42.262   6.310
 5944POPC   D2A75052  31.677  42.287   6.593
 5944POPC   C3A75053  31.513  42.297   6.992
 5944POPC   C4A75054  31.718  42.226   7.353
 5944POPC   C1B75055  31.388  42.743   6.160
 5944POPC   C2B75056  31.366  42.683   6.607
 5944POPC   C3B75057  31.205  42.703   7.025
 5944POPC   C4B75058  31.314  42.514   7.431
 5945POPC   NC375059  40.880  36.310   5.478
 5945POPC   PO475060  40.807  35.597   5.306
 5945POPC   GL175061  41.000  35.843   5.674
 5945POPC   GL275062  40.636  35.933   5.744
 5945POPC   C1A75063  41.039  36.105   6.083
 5945POPC   D2A75064  40.747  36.331   6.381
 5945POPC   C3A75065  40.769  36.221   6.833
 5945POPC   C4A75066  40.634  36.209   7.255
 5945POPC   C1B75067  40.351  36.024   6.107
 5945POPC   C2B75068  40.374  36.015   6.545
 5945POPC   C3B75069  40.492  35.773   6.882
 5945POPC   C4B75070  40.364  35.769   7.299
 5946POPC   NC375071  36.107  44.896   5.378
 5946POPC   PO475072  36.217  44.281   5.538
 5946POPC   GL175073  36.003  44.541   5.766
 5946POPC   GL275074  35.720  44.388   5.863
 5946POPC   C1A75075  36.127  44.762   6.124
 5946POPC   D2A75076  35.972  44.846   6.536
 5946POPC   C3A75077  36.274  44.675   6.793
 5946POPC   C4A75078  36.451  44.647   7.189
 5946POPC   C1B75079  35.703  44.508   6.231
 5946POPC   C2B75080  35.625  44.390   6.593
 5946POPC   C3B75081  35.734  44.574   6.944
 5946POPC   C4B75082  35.969  44.861   7.158
 5947POPC   NC375083  44.662  40.248   5.519
 5947POPC   PO475084   0.043  39.753   5.597
 5947POPC   GL175085  44.646  39.847   5.838
 5947POPC   GL275086  44.310  39.770   5.687
 5947POPC   C1A75087  44.406  40.098   6.174
 5947POPC   D2A75088  44.471  40.078   6.632
 5947POPC   C3A75089  44.849  39.864   6.733
 5947POPC   C4A75090  44.937  39.748   7.138
 5947POPC   C1B75091  44.297  39.605   6.121
 5947POPC   C2B75092  44.391  39.586   6.549
 5947POPC   C3B75093  44.417  39.661   6.986
 5947POPC   C4B75094  44.146  39.465   7.269
 5948POPC   NC375095  20.081  30.279   5.356
 5948POPC   PO475096  19.537  30.556   5.599
 5948POPC   GL175097  19.940  30.668   5.783
 5948POPC   GL275098  20.046  31.038   5.844
 5948POPC   C1A75099  20.047  30.659   6.194
 5948POPC   D2A75100  19.980  30.908   6.541
 5948POPC   C3A75101  20.024  30.712   6.904
 5948POPC   C4A75102  19.932  30.547   7.292
 5948POPC   C1B75103  19.759  31.215   6.175
 5948POPC   C2B75104  19.526  31.158   6.574
 5948POPC   C3B75105  19.639  31.047   6.981
 5948POPC   C4B75106  19.883  31.050   7.352
 5949POPC   NC375107  26.668   4.710   5.691
 5949POPC   PO475108  26.912   5.366   5.477
 5949POPC   GL175109  26.986   5.273   5.882
 5949POPC   GL275110  26.697   5.133   5.986
 5949POPC   C1A75111  27.196   5.420   6.227
 5949POPC   D2A75112  27.028   5.339   6.600
 5949POPC   C3A75113  27.098   5.106   6.960
 5949POPC   C4A75114  26.907   5.302   7.338
 5949POPC   C1B75115  26.732   4.976   6.400
 5949POPC   C2B75116  26.602   5.104   6.811
 5949POPC   C3B75117  26.641   4.876   7.183
 5949POPC   C4B75118  26.630   4.936   7.616
 5950POPC   NC375119  26.695   8.990   5.377
 5950POPC   PO475120  27.272   9.277   5.563
 5950POPC   GL175121  26.937   9.166   5.789
 5950POPC   GL275122  27.040   8.817   5.765
 5950POPC   C1A75123  26.787   9.041   6.192
 5950POPC   D2A75124  27.037   8.893   6.541
 5950POPC   C3A75125  26.912   9.116   6.925
 5950POPC   C4A75126  26.693   9.247   7.343
 5950POPC   C1B75127  26.972   8.564   6.133
 5950POPC   C2B75128  26.819   8.400   6.514
 5950POPC   C3B75129  26.815   8.603   6.899
 5950POPC   C4B75130  26.889   8.775   7.288
 5951POPC   NC375131  41.265   3.321   5.572
 5951POPC   PO475132  41.828   3.016   5.395
 5951POPC   GL175133  41.819   3.344   5.766
 5951POPC   GL275134  41.581   3.656   5.766
 5951POPC   C1A75135  41.751   3.509   6.199
 5951POPC   D2A75136  41.476   3.553   6.539
 5951POPC   C3A75137  41.645   3.419   6.892
 5951POPC   C4A75138  41.667   3.372   7.291
 5951POPC   C1B75139  41.248   3.745   6.119
 5951POPC   C2B75140  41.013   3.784   6.539
 5951POPC   C3B75141  41.180   3.695   6.951
 5951POPC   C4B75142  41.371   3.797   7.374
 5952POPC   NC375143  20.974  22.087   5.365
 5952POPC   PO475144  20.441  22.410   5.518
 5952POPC   GL175145  20.531  22.274   5.917
 5952POPC   GL275146  20.643  21.923   5.820
 5952POPC   C1A75147  20.639  22.487   6.334
 5952POPC   D2A75148  20.902  22.672   6.702
 5952POPC   C3A75149  20.852  22.474   7.104
 5952POPC   C4A75150  20.487  22.173   7.151
 5952POPC   C1B75151  20.497  21.916   6.293
 5952POPC   C2B75152  20.336  21.774   6.732
 5952POPC   C3B75153  20.399  21.635   7.158
 5952POPC   C4B75154  20.671  21.509   7.519
 5953POPC   NC375155  12.223  41.724   5.303
 5953POPC   PO475156  11.696  41.389   5.378
 5953POPC   GL175157  11.909  41.409   5.814
 5953POPC   GL275158  12.213  41.596   5.797
 5953POPC   C1A75159  11.895  41.322   6.292
 5953POPC   D2A75160  12.053  41.563   6.678
 5953POPC   C3A75161  11.819  41.462   7.068
 5953POPC   C4A75162  11.906  41.320   7.505
 5953POPC   C1B75163  12.452  41.864   6.090
 5953POPC   C2B75164  12.339  42.010   6.493
 5953POPC   C3B75165  12.450  41.949   6.916
 5953POPC   C4B75166  12.340  42.063   7.354
 5954POPC   NC375167  20.088  39.702   5.122
 5954POPC   PO475168  19.636  39.932   5.568
 5954POPC   GL175169  19.745  40.163   5.884
 5954POPC   GL275170  19.527  40.421   5.859
 5954POPC   C1A75171  19.787  40.085   6.292
 5954POPC   D2A75172  19.862  39.822   6.629
 5954POPC   C3A75173  19.887  39.976   7.010
 5954POPC   C4A75174  19.913  39.717   7.320
 5954POPC   C1B75175  19.384  40.438   6.248
 5954POPC   C2B75176  19.484  40.279   6.665
 5954POPC   C3B75177  19.546  40.366   7.088
 5954POPC   C4B75178  19.592  40.090   7.449
 5955POPC   NC375179   4.360  11.416   5.442
 5955POPC   PO475180   4.682  10.803   5.247
 5955POPC   GL175181   4.505  11.011   5.688
 5955POPC   GL275182   4.158  10.987   5.729
 5955POPC   C1A75183   4.457  11.275   6.092
 5955POPC   D2A75184   4.200  11.445   6.458
 5955POPC   C3A75185   4.317  11.250   6.862
 5955POPC   C4A75186   4.295  11.233   7.327
 5955POPC   C1B75187   3.994  11.058   6.169
 5955POPC   C2B75188   3.851  11.074   6.600
 5955POPC   C3B75189   3.927  10.976   7.044
 5955POPC   C4B75190   3.877  11.020   7.502
 5956POPC   NC375191  25.361  33.946   5.219
 5956POPC   PO475192  24.874  33.557   5.342
 5956POPC   GL175193  25.254  33.501   5.638
 5956POPC   GL275194  25.427  33.806   5.725
 5956POPC   C1A75195  25.285  33.414   6.090
 5956POPC   D2A75196  25.179  33.634   6.440
 5956POPC   C3A75197  25.207  33.521   6.877
 5956POPC   C4A75198  25.292  33.748   7.248
 5956POPC   C1B75199  25.667  33.788   6.123
 5956POPC   C2B75200  25.646  33.804   6.564
 5956POPC   C3B75201  25.673  33.955   6.949
 5956POPC   C4B75202  25.835  33.969   7.340
 5957POPC   NC375203   8.425  30.116   5.285
 5957POPC   PO475204   8.219  30.721   5.482
 5957POPC   GL175205   7.951  30.773   5.872
 5957POPC   GL275206   7.936  31.138   5.755
 5957POPC   C1A75207   8.066  30.670   6.297
 5957POPC   D2A75208   8.477  30.768   6.485
 5957POPC   C3A75209   8.436  30.455   6.827
 5957POPC   C4A75210   8.066  30.422   7.084
 5957POPC   C1B75211   8.164  31.139   6.136
 5957POPC   C2B75212   8.018  31.126   6.541
 5957POPC   C3B75213   8.121  30.852   6.830
 5957POPC   C4B75214   8.177  30.932   7.236
 5958POPC   NC375215  41.366   1.060   5.235
 5958POPC   PO475216  41.569   1.656   5.473
 5958POPC   GL175217  41.452   1.255   5.730
 5958POPC   GL275218  41.714   0.981   5.715
 5958POPC   C1A75219  41.398   1.228   6.185
 5958POPC   D2A75220  41.614   1.450   6.496
 5958POPC   C3A75221  41.682   1.327   6.903
 5958POPC   C4A75222  41.656   1.472   7.322
 5958POPC   C1B75223  41.654   0.780   6.119
 5958POPC   C2B75224  41.745   0.938   6.542
 5958POPC   C3B75225  41.780   0.792   6.950
 5958POPC   C4B75226  41.574   0.966   7.264
 5959POPC   NC375227  15.622  17.989   5.501
 5959POPC   PO475228  15.209  18.396   5.278
 5959POPC   GL175229  14.999  18.449   5.668
 5959POPC   GL275230  15.159  18.143   5.793
 5959POPC   C1A75231  14.959  18.460   6.140
 5959POPC   D2A75232  15.179  18.481   6.551
 5959POPC   C3A75233  14.979  18.507   6.970
 5959POPC   C4A75234  15.201  18.276   7.306
 5959POPC   C1B75235  15.426  18.131   6.162
 5959POPC   C2B75236  15.571  18.147   6.595
 5959POPC   C3B75237  15.648  18.148   7.053
 5959POPC   C4B75238  15.588  17.944   7.467
 5960POPC   NC375239  35.085  42.581   5.611
 5960POPC   PO475240  35.612  42.287   5.294
 5960POPC   GL175241  35.470  42.232   5.723
 5960POPC   GL275242  35.567  42.579   5.781
 5960POPC   C1A75243  35.401  42.083   6.169
 5960POPC   D2A75244  35.133  42.138   6.560
 5960POPC   C3A75245  35.361  42.172   6.951
 5960POPC   C4A75246  35.396  41.924   7.305
 5960POPC   C1B75247  35.342  42.585   6.203
 5960POPC   C2B75248  35.400  42.576   6.625
 5960POPC   C3B75249  35.290  42.696   7.022
 5960POPC   C4B75250  35.576  42.885   7.285
 5961POPC   NC375251  30.251  15.102   5.337
 5961POPC   PO475252  29.616  15.093   5.262
 5961POPC   GL175253  29.918  15.246   5.695
 5961POPC   GL275254  30.074  14.886   5.764
 5961POPC   C1A75255  29.813  15.353   6.195
 5961POPC   D2A75256  29.534  15.411   6.582
 5961POPC   C3A75257  29.703  15.386   6.988
 5961POPC   C4A75258  29.689  15.098   7.277
 5961POPC   C1B75259  30.254  15.117   6.107
 5961POPC   C2B75260  30.143  15.143   6.547
 5961POPC   C3B75261  30.125  15.051   6.995
 5961POPC   C4B75262  30.102  15.379   7.329
 5962POPC   NC375263  21.684   1.851   5.582
 5962POPC   PO475264  21.297   2.389   5.575
 5962POPC   GL175265  21.322   2.080   5.934
 5962POPC   GL275266  21.575   1.810   6.073
 5962POPC   C1A75267  21.153   1.993   6.358
 5962POPC   D2A75268  21.135   1.632   6.663
 5962POPC   C3A75269  21.268   1.817   7.031
 5962POPC   C4A75270  21.227   2.265   7.129
 5962POPC   C1B75271  21.753   2.210   6.216
 5962POPC   C2B75272  21.641   2.349   6.623
 5962POPC   C3B75273  21.721   2.201   7.024
 5962POPC   C4B75274  21.920   2.352   7.390
 5963POPC   NC375275  26.907  11.328   5.413
 5963POPC   PO475276  27.553  11.416   5.278
 5963POPC   GL175277  27.386  11.363   5.704
 5963POPC   GL275278  27.102  11.621   5.781
 5963POPC   C1A75279  27.547  11.226   6.134
 5963POPC   D2A75280  27.879  11.316   6.465
 5963POPC   C3A75281  27.855  11.132   6.872
 5963POPC   C4A75282  27.634  11.186   7.254
 5963POPC   C1B75283  27.262  11.787   6.158
 5963POPC   C2B75284  27.402  11.542   6.519
 5963POPC   C3B75285  27.298  11.398   6.914
 5963POPC   C4B75286  27.355  11.642   7.270
 5964POPC   NC375287  24.036  17.745   5.425
 5964POPC   PO475288  23.483  17.358   5.279
 5964POPC   GL175289  23.724  17.446   5.726
 5964POPC   GL275290  23.591  17.301   6.039
 5964POPC   C1A75291  23.992  17.619   6.109
 5964POPC   D2A75292  23.906  17.398   6.515
 5964POPC   C3A75293  23.939  17.550   6.949
 5964POPC   C4A75294  23.821  17.370   7.353
 5964POPC   C1B75295  23.550  17.706   6.321
 5964POPC   C2B75296  23.490  17.723   6.754
 5964POPC   C3B75297  23.395  17.486   7.127
 5964POPC   C4B75298  23.405  17.558   7.608
 5965POPC   NC375299  33.191  14.209   5.367
 5965POPC   PO475300  32.928  14.797   5.285
 5965POPC   GL175301  32.990  14.574   5.683
 5965POPC   GL275302  32.830  14.773   5.905
 5965POPC   C1A75303  33.108  14.277   6.065
 5965POPC   D2A75304  33.141  14.134   6.545
 5965POPC   C3A75305  33.368  14.251   6.974
 5965POPC   C4A75306  33.214  14.349   7.405
 5965POPC   C1B75307  32.872  14.632   6.350
 5965POPC   C2B75308  33.210  14.636   6.672
 5965POPC   C3B75309  33.258  14.784   7.099
 5965POPC   C4B75310  32.870  14.719   7.352
 5966POPC   NC375311  35.627  35.640   5.495
 5966POPC   PO475312  35.281  35.078   5.197
 5966POPC   GL175313  35.296  35.192   5.670
 5966POPC   GL275314  35.000  35.364   5.834
 5966POPC   C1A75315  35.443  35.362   6.098
 5966POPC   D2A75316  35.402  35.559   6.516
 5966POPC   C3A75317  35.535  35.370   6.906
 5966POPC   C4A75318  35.283  35.298   7.265
 5966POPC   C1B75319  35.009  35.689   6.196
 5966POPC   C2B75320  34.919  35.767   6.618
 5966POPC   C3B75321  34.899  35.479   6.975
 5966POPC   C4B75322  34.957  35.718   7.344
 5967POPC   NC375323   9.075   2.230   5.265
 5967POPC   PO475324   8.726   1.664   5.434
 5967POPC   GL175325   9.018   1.806   5.766
 5967POPC   GL275326   9.040   2.181   5.807
 5967POPC   C1A75327   9.009   1.811   6.226
 5967POPC   D2A75328   9.244   2.003   6.569
 5967POPC   C3A75329   9.060   1.852   6.930
 5967POPC   C4A75330   8.929   1.801   7.363
 5967POPC   C1B75331   8.854   2.320   6.228
 5967POPC   C2B75332   8.756   2.181   6.674
 5967POPC   C3B75333   8.796   2.251   7.144
 5967POPC   C4B75334   8.641   2.169   7.588
 5968POPC   NC375335  38.903  19.696   5.463
 5968POPC   PO475336  39.373  20.128   5.333
 5968POPC   GL175337  39.217  20.039   5.724
 5968POPC   GL275338  39.514  20.084   5.927
 5968POPC   C1A75339  39.103  19.790   6.102
 5968POPC   D2A75340  39.220  19.840   6.527
 5968POPC   C3A75341  38.962  19.943   6.870
 5968POPC   C4A75342  39.150  19.742   7.216
 5968POPC   C1B75343  39.211  20.272   6.204
 5968POPC   C2B75344  39.320  20.351   6.629
 5968POPC   C3B75345  39.433  20.114   6.974
 5968POPC   C4B75346  39.434  20.205   7.448
 5969POPC   NC375347  41.784  20.522   4.882
 5969POPC   PO475348  41.688  20.663   5.501
 5969POPC   GL175349  41.623  20.730   5.894
 5969POPC   GL275350  41.766  20.454   5.983
 5969POPC   C1A75351  41.450  20.780   6.308
 5969POPC   D2A75352  41.653  20.830   6.722
 5969POPC   C3A75353  41.463  20.896   7.122
 5969POPC   C4A75354  41.459  20.706   7.534
 5969POPC   C1B75355  41.602  20.287   6.358
 5969POPC   C2B75356  41.719  20.238   6.778
 5969POPC   C3B75357  41.560  20.373   7.169
 5969POPC   C4B75358  41.518  20.211   7.599
 5970POPC   NC375359  17.598  23.431   5.289
 5970POPC   PO475360  17.418  22.753   5.399
 5970POPC   GL175361  17.378  22.970   5.798
 5970POPC   GL275362  17.149  23.160   5.799
 5970POPC   C1A75363  17.456  22.882   6.213
 5970POPC   D2A75364  17.539  23.031   6.621
 5970POPC   C3A75365  17.747  22.778   6.926
 5970POPC   C4A75366  17.664  22.588   7.310
 5970POPC   C1B75367  17.185  23.309   6.227
 5970POPC   C2B75368  17.057  23.214   6.629
 5970POPC   C3B75369  17.217  23.070   7.038
 5970POPC   C4B75370  17.391  23.327   7.382
 5971POPC   NC375371  44.249   5.787   5.599
 5971POPC   PO475372  43.961   6.377   5.408
 5971POPC   GL175373  43.989   6.184   5.801
 5971POPC   GL275374  43.690   5.977   5.844
 5971POPC   C1A75375  44.026   5.995   6.216
 5971POPC   D2A75376  43.895   6.066   6.619
 5971POPC   C3A75377  43.980   5.798   6.957
 5971POPC   C4A75378  44.123   5.957   7.336
 5971POPC   C1B75379  43.488   5.851   6.272
 5971POPC   C2B75380  43.509   5.718   6.717
 5971POPC   C3B75381  43.526   5.570   7.132
 5971POPC   C4B75382  43.584   5.742   7.562
 5972POPC   NC375383  31.235  11.420   5.457
 5972POPC   PO475384  31.727  11.032   5.555
 5972POPC   GL175385  31.552  11.341   5.862
 5972POPC   GL275386  31.146  11.307   5.941
 5972POPC   C1A75387  31.473  11.445   6.303
 5972POPC   D2A75388  31.202  11.744   6.541
 5972POPC   C3A75389  31.294  11.584   6.949
 5972POPC   C4A75390  31.712  11.510   7.143
 5972POPC   C1B75391  31.358  10.943   6.125
 5972POPC   C2B75392  31.436  10.894   6.537
 5972POPC   C3B75393  31.194  10.915   6.907
 5972POPC   C4B75394  31.319  11.151   7.242
 5973POPC   NC375395   1.432  41.238   5.488
 5973POPC   PO475396   1.010  41.697   5.130
 5973POPC   GL175397   1.072  41.545   5.631
 5973POPC   GL275398   1.006  41.191   5.760
 5973POPC   C1A75399   1.279  41.520   6.058
 5973POPC   D2A75400   1.349  41.450   6.502
 5973POPC   C3A75401   1.340  41.827   6.773
 5973POPC   C4A75402   1.291  41.754   7.191
 5973POPC   C1B75403   0.793  41.387   6.135
 5973POPC   C2B75404   0.884  41.665   6.500
 5973POPC   C3B75405   0.879  41.553   6.934
 5973POPC   C4B75406   1.055  41.309   7.293
 5974POPC   NC375407   1.590  14.470   5.473
 5974POPC   PO475408   2.119  14.180   5.445
 5974POPC   GL175409   2.010  14.430   5.799
 5974POPC   GL275410   1.703  14.345   5.955
 5974POPC   C1A75411   2.107  14.593   6.211
 5974POPC   D2A75412   2.186  14.400   6.617
 5974POPC   C3A75413   1.958  14.377   7.012
 5974POPC   C4A75414   2.145  14.318   7.438
 5974POPC   C1B75415   1.621  14.573   6.338
 5974POPC   C2B75416   1.845  14.768   6.693
 5974POPC   C3B75417   1.780  14.814   7.184
 5974POPC   C4B75418   1.669  14.525   7.530
 5975POPC   NC375419  20.269  14.212   5.509
 5975POPC   PO475420  20.777  14.461   5.142
 5975POPC   GL175421  20.714  14.432   5.639
 5975POPC   GL275422  20.857  14.700   5.779
 5975POPC   C1A75423  20.504  14.484   6.091
 5975POPC   D2A75424  20.264  14.302   6.457
 5975POPC   C3A75425  20.312  14.358   6.897
 5975POPC   C4A75426  20.551  14.266   7.274
 5975POPC   C1B75427  20.942  14.702   6.218
 5975POPC   C2B75428  20.685  14.606   6.592
 5975POPC   C3B75429  20.883  14.548   6.990
 5975POPC   C4B75430  20.933  14.775   7.354
 5976POPC   NC375431  17.303   0.555   5.582
 5976POPC   PO475432  18.008   0.408   5.570
 5976POPC   GL175433  17.719   0.446   5.854
 5976POPC   GL275434  17.903   0.697   6.008
 5976POPC   C1A75435  17.474   0.476   6.243
 5976POPC   D2A75436  17.628   0.547   6.661
 5976POPC   C3A75437  17.530   0.252   7.005
 5976POPC   C4A75438  17.248   0.490   7.222
 5976POPC   C1B75439  17.976   0.360   6.307
 5976POPC   C2B75440  18.129   0.451   6.710
 5976POPC   C3B75441  17.928   0.556   7.089
 5976POPC   C4B75442  17.693   0.618   7.486
 5977POPC   NC375443   7.664  38.415   5.436
 5977POPC   PO475444   7.736  37.896   5.805
 5977POPC   GL175445   7.559  38.331   5.965
 5977POPC   GL275446   7.681  38.709   5.853
 5977POPC   C1A75447   7.299  38.341   6.334
 5977POPC   D2A75448   7.207  38.192   6.748
 5977POPC   C3A75449   7.528  38.042   7.040
 5977POPC   C4A75450   7.522  38.132   7.507
 5977POPC   C1B75451   7.470  38.809   6.234
 5977POPC   C2B75452   7.357  38.865   6.656
 5977POPC   C3B75453   7.322  38.730   7.079
 5977POPC   C4B75454   7.557  38.904   7.411
 5978POPC   NC375455  42.751  15.175   5.228
 5978POPC   PO475456  43.372  15.054   5.377
 5978POPC   GL175457  43.122  15.134   5.717
 5978POPC   GL275458  43.148  15.492   5.719
 5978POPC   C1A75459  43.124  15.179   6.175
 5978POPC   D2A75460  43.125  15.240   6.619
 5978POPC   C3A75461  43.178  14.839   6.826
 5978POPC   C4A75462  43.056  14.673   7.231
 5978POPC   C1B75463  43.441  15.567   6.083
 5978POPC   C2B75464  43.486  15.649   6.518
 5978POPC   C3B75465  43.358  15.578   6.952
 5978POPC   C4B75466  43.109  15.233   7.142
 5979POPC   NC375467  32.508  34.192   5.509
 5979POPC   PO475468  32.157  34.740   5.422
 5979POPC   GL175469  32.205  34.541   5.800
 5979POPC   GL275470  32.065  34.220   5.822
 5979POPC   C1A75471  32.213  34.687   6.223
 5979POPC   D2A75472  31.977  34.608   6.589
 5979POPC   C3A75473  32.202  34.755   6.933
 5979POPC   C4A75474  32.310  34.664   7.345
 5979POPC   C1B75475  32.365  34.190   6.177
 5979POPC   C2B75476  32.441  34.372   6.607
 5979POPC   C3B75477  32.247  34.235   6.983
 5979POPC   C4B75478  32.376  34.180   7.388
 5980POPC   NC375479   0.696   6.854   5.402
 5980POPC   PO475480   0.613   6.220   5.565
 5980POPC   GL175481   0.495   6.403   5.953
 5980POPC   GL275482   0.259   6.633   5.856
 5980POPC   C1A75483   0.645   6.818   6.166
 5980POPC   D2A75484   0.769   6.853   6.587
 5980POPC   C3A75485   0.683   6.463   6.785
 5980POPC   C4A75486   0.607   6.454   7.202
 5980POPC   C1B75487   0.161   6.766   6.311
 5980POPC   C2B75488   0.272   6.790   6.774
 5980POPC   C3B75489   0.195   6.733   7.239
 5980POPC   C4B75490   0.091   6.664   7.709
 5981POPC   NC375491  34.455   4.329   5.207
 5981POPC   PO475492  34.976   4.131   5.479
 5981POPC   GL175493  34.692   4.324   5.790
 5981POPC   GL275494  34.365   4.255   5.845
 5981POPC   C1A75495  34.686   4.203   6.246
 5981POPC   D2A75496  34.397   4.431   6.508
 5981POPC   C3A75497  34.328   4.351   6.937
 5981POPC   C4A75498  34.611   4.415   7.276
 5981POPC   C1B75499  34.295   3.894   6.166
 5981POPC   C2B75500  34.362   3.928   6.594
 5981POPC   C3B75501  34.202   3.853   6.986
 5981POPC   C4B75502  34.326   3.989   7.409
 5982POPC   NC375503  19.108  17.730   5.530
 5982POPC   PO475504  19.028  17.086   5.637
 5982POPC   GL175505  18.983  17.408   5.925
 5982POPC   GL275506  19.313  17.501   5.949
 5982POPC   C1A75507  18.957  17.572   6.340
 5982POPC   D2A75508  18.656  17.683   6.651
 5982POPC   C3A75509  18.828  17.696   7.071
 5982POPC   C4A75510  19.097  17.773   7.426
 5982POPC   C1B75511  19.383  17.240   6.281
 5982POPC   C2B75512  19.380  17.457   6.656
 5982POPC   C3B75513  19.322  17.427   7.119
 5982POPC   C4B75514  19.393  17.381   7.584
 5983POPC   NC375515  24.768   8.656   5.543
 5983POPC   PO475516  25.174   9.177   5.270
 5983POPC   GL175517  25.127   9.010   5.673
 5983POPC   GL275518  24.798   9.199   5.704
 5983POPC   C1A75519  25.405   8.887   6.050
 5983POPC   D2A75520  25.687   9.045   6.400
 5983POPC   C3A75521  25.499   9.008   6.813
 5983POPC   C4A75522  25.642   8.893   7.220
 5983POPC   C1B75523  24.954   9.125   6.134
 5983POPC   C2B75524  25.009   9.147   6.569
 5983POPC   C3B75525  25.019   9.140   6.998
 5983POPC   C4B75526  25.230   9.177   7.320
 5984POPC   NC375527  27.784  38.667   5.386
 5984POPC   PO475528  27.398  38.132   5.436
 5984POPC   GL175529  27.644  38.305   5.799
 5984POPC   GL275530  27.917  38.563   5.865
 5984POPC   C1A75531  27.638  38.469   6.242
 5984POPC   D2A75532  27.939  38.328   6.528
 5984POPC   C3A75533  27.758  38.456   6.884
 5984POPC   C4A75534  27.726  38.424   7.283
 5984POPC   C1B75535  27.975  38.852   6.282
 5984POPC   C2B75536  28.010  38.883   6.728
 5984POPC   C3B75537  27.829  38.903   7.130
 5984POPC   C4B75538  27.374  38.829   7.148
 5985POPC   NC375539  40.768  38.646   5.608
 5985POPC   PO475540  40.817  39.175   5.133
 5985POPC   GL175541  40.697  39.173   5.627
 5985POPC   GL275542  40.972  39.040   5.858
 5985POPC   C1A75543  40.626  39.296   6.113
 5985POPC   D2A75544  40.746  39.140   6.539
 5985POPC   C3A75545  40.600  39.250   6.961
 5985POPC   C4A75546  40.849  39.213   7.333
 5985POPC   C1B75547  40.999  38.784   6.260
 5985POPC   C2B75548  41.163  38.729   6.707
 5985POPC   C3B75549  41.157  38.831   7.153
 5985POPC   C4B75550  41.124  38.726   7.626
 5986POPC   NC375551  30.201   9.494   5.594
 5986POPC   PO475552  29.688   9.887   5.399
 5986POPC   GL175553  29.843   9.778   5.836
 5986POPC   GL275554  30.172   9.929   5.871
 5986POPC   C1A75555  30.041   9.585   6.230
 5986POPC   D2A75556  30.213   9.495   6.646
 5986POPC   C3A75557  29.988   9.657   7.023
 5986POPC   C4A75558  29.775   9.544   7.405
 5986POPC   C1B75559  30.340  10.044   6.305
 5986POPC   C2B75560  30.274  10.040   6.775
 5986POPC   C3B75561  30.388   9.925   7.204
 5986POPC   C4B75562  30.078   9.998   7.540
 5987POPC   NC375563   3.088   4.549   5.630
 5987POPC   PO475564   3.151   3.936   5.371
 5987POPC   GL175565   2.944   4.067   5.777
 5987POPC   GL275566   2.555   4.088   5.755
 5987POPC   C1A75567   3.031   4.161   6.242
 5987POPC   D2A75568   3.177   4.357   6.654
 5987POPC   C3A75569   3.048   4.167   7.042
 5987POPC   C4A75570   2.722   4.291   7.307
 5987POPC   C1B75571   2.526   4.251   6.185
 5987POPC   C2B75572   2.663   4.346   6.633
 5987POPC   C3B75573   2.751   4.662   6.961
 5987POPC   C4B75574   2.461   4.759   7.299
 5988POPC   NC375575  13.778   6.697   5.550
 5988POPC   PO475576  13.142   6.584   5.506
 5988POPC   GL175577  13.346   6.828   5.841
 5988POPC   GL275578  13.484   6.476   5.910
 5988POPC   C1A75579  13.411   7.004   6.294
 5988POPC   D2A75580  13.503   6.843   6.743
 5988POPC   C3A75581  13.839   6.926   7.081
 5988POPC   C4A75582  13.765   6.830   7.550
 5988POPC   C1B75583  13.586   6.515   6.326
 5988POPC   C2B75584  13.329   6.358   6.618
 5988POPC   C3B75585  13.166   6.519   6.956
 5988POPC   C4B75586  13.561   6.496   7.183
 5989POPC   NC375587  17.677  38.933   5.626
 5989POPC   PO475588  17.267  39.428   5.366
 5989POPC   GL175589  17.518  39.420   5.767
 5989POPC   GL275590  17.340  39.184   5.942
 5989POPC   C1A75591  17.682  39.453   6.198
 5989POPC   D2A75592  17.342  39.455   6.509
 5989POPC   C3A75593  17.419  39.207   6.836
 5989POPC   C4A75594  17.521  39.346   7.236
 5989POPC   C1B75595  17.465  38.986   6.324
 5989POPC   C2B75596  17.820  38.884   6.584
 5989POPC   C3B75597  17.816  38.963   7.020
 5989POPC   C4B75598  17.526  38.836   7.297
 5990POPC   NC375599  36.918  34.524   5.297
 5990POPC   PO475600  36.218  34.633   5.305
 5990POPC   GL175601  36.222  34.541   5.756
 5990POPC   GL275602  36.548  34.440   5.850
 5990POPC   C1A75603  36.042  34.570   6.177
 5990POPC   D2A75604  36.149  34.774   6.576
 5990POPC   C3A75605  35.966  34.633   6.926
 5990POPC   C4A75606  36.120  34.708   7.311
 5990POPC   C1B75607  36.444  34.262   6.270
 5990POPC   C2B75608  36.353  34.324   6.704
 5990POPC   C3B75609  36.410  34.339   7.118
 5990POPC   C4B75610  36.383  34.148   7.512
 5991POPC   NC375611  15.164  35.825   5.206
 5991POPC   PO475612  15.054  35.186   5.315
 5991POPC   GL175613  15.193  35.414   5.777
 5991POPC   GL275614  14.886  35.407   5.968
 5991POPC   C1A75615  15.268  35.513   6.289
 5991POPC   D2A75616  15.095  35.557   6.721
 5991POPC   C3A75617  15.224  35.307   7.085
 5991POPC   C4A75618  15.456  35.616   7.342
 5991POPC   C1B75619  15.120  35.058   6.176
 5991POPC   C2B75620  15.056  35.028   6.637
 5991POPC   C3B75621  14.924  34.864   7.016
 5991POPC   C4B75622  14.902  35.005   7.424
 5992POPC   NC375623  21.752   2.603   5.400
 5992POPC   PO475624  22.378   2.929   5.347
 5992POPC   GL175625  22.204   2.741   5.727
 5992POPC   GL275626  22.438   2.984   5.876
 5992POPC   C1A75627  22.196   2.608   6.181
 5992POPC   D2A75628  22.163   2.836   6.589
 5992POPC   C3A75629  22.036   2.595   6.940
 5992POPC   C4A75630  22.339   2.303   7.106
 5992POPC   C1B75631  22.632   2.927   6.281
 5992POPC   C2B75632  22.597   3.100   6.720
 5992POPC   C3B75633  22.304   2.987   7.088
 5992POPC   C4B75634  22.342   2.676   7.460
 5993POPC   NC375635  37.647  22.736   5.411
 5993POPC   PO475636  37.965  23.359   5.511
 5993POPC   GL175637  37.773  23.055   5.813
 5993POPC   GL275638  37.928  22.739   5.904
 5993POPC   C1A75639  37.652  23.114   6.234
 5993POPC   D2A75640  37.447  23.147   6.622
 5993POPC   C3A75641  37.685  23.111   7.002
 5993POPC   C4A75642  38.098  23.279   7.094
 5993POPC   C1B75643  37.764  22.614   6.303
 5993POPC   C2B75644  37.548  22.641   6.673
 5993POPC   C3B75645  37.704  22.603   7.073
 5993POPC   C4B75646  37.477  22.759   7.410
 5994POPC   NC375647   9.255  41.704   5.368
 5994POPC   PO475648   9.879  41.494   5.396
 5994POPC   GL175649   9.729  41.505   5.810
 5994POPC   GL275650   9.783  41.863   5.853
 5994POPC   C1A75651   9.876  41.243   6.159
 5994POPC   D2A75652  10.039  41.325   6.571
 5994POPC   C3A75653   9.833  41.255   6.954
 5994POPC   C4A75654   9.885  41.449   7.383
 5994POPC   C1B75655   9.581  41.778   6.279
 5994POPC   C2B75656   9.277  41.544   6.588
 5994POPC   C3B75657   9.384  41.521   7.037
 5994POPC   C4B75658   9.674  41.858   7.116
 5995POPC   NC375659  13.180  34.840   5.612
 5995POPC   PO475660  13.439  34.252   5.286
 5995POPC   GL175661  13.542  34.458   5.703
 5995POPC   GL275662  13.261  34.395   5.933
 5995POPC   C1A75663  13.781  34.364   6.108
 5995POPC   D2A75664  13.837  34.584   6.530
 5995POPC   C3A75665  13.572  34.522   6.891
 5995POPC   C4A75666  13.665  34.685   7.291
 5995POPC   C1B75667  13.451  34.741   6.213
 5995POPC   C2B75668  13.318  35.064   6.483
 5995POPC   C3B75669  13.338  34.986   6.909
 5995POPC   C4B75670  13.208  34.915   7.320
 5996POPC   NC375671  22.403  22.674   5.502
 5996POPC   PO475672  21.938  23.112   5.323
 5996POPC   GL175673  22.090  23.120   5.720
 5996POPC   GL275674  21.808  22.907   5.843
 5996POPC   C1A75675  22.286  23.218   6.136
 5996POPC   D2A75676  22.393  22.933   6.523
 5996POPC   C3A75677  22.354  22.996   6.993
 5996POPC   C4A75678  22.191  22.971   7.440
 5996POPC   C1B75679  21.911  22.925   6.320
 5996POPC   C2B75680  21.850  22.986   6.795
 5996POPC   C3B75681  21.930  22.684   7.130
 5996POPC   C4B75682  22.096  22.412   7.502
 5997POPC   NC375683   0.356   0.913   5.292
 5997POPC   PO475684   0.577   1.532   5.258
 5997POPC   GL175685   0.648   1.332   5.668
 5997POPC   GL275686   0.570   1.648   5.771
 5997POPC   C1A75687   0.554   1.077   6.062
 5997POPC   D2A75688   0.632   0.939   6.498
 5997POPC   C3A75689   0.451   1.105   6.878
 5997POPC   C4A75690   0.546   1.329   7.266
 5997POPC   C1B75691   0.252   1.492   6.068
 5997POPC   C2B75692   0.172   1.389   6.508
 5997POPC   C3B75693   0.283   1.607   6.898
 5997POPC   C4B75694   0.106   1.601   7.298
 5998POPC   NC375695  24.717   0.485   5.319
 5998POPC   PO475696  24.195   0.133   5.653
 5998POPC   GL175697  24.553   0.233   5.853
 5998POPC   GL275698  24.640   0.564   5.816
 5998POPC   C1A75699  24.433   0.339   6.272
 5998POPC   D2A75700  24.549   0.487   6.669
 5998POPC   C3A75701  24.273   0.439   7.022
 5998POPC   C4A75702  24.276   0.278   7.424
 5998POPC   C1B75703  24.729   0.755   6.217
 5998POPC   C2B75704  24.733   0.964   6.616
 5998POPC   C3B75705  24.649   0.807   7.043
 5998POPC   C4B75706  24.646   0.733   7.473
 5999POPC   NC375707  10.358  17.595   5.383
 5999POPC   PO475708   9.958  17.060   5.623
 5999POPC   GL175709   9.766  17.392   5.874
 5999POPC   GL275710   9.739  17.747   5.766
 5999POPC   C1A75711   9.769  17.354   6.325
 5999POPC   D2A75712  10.009  17.528   6.680
 5999POPC   C3A75713   9.833  17.322   7.040
 5999POPC   C4A75714   9.408  17.176   7.137
 5999POPC   C1B75715   9.852  17.844   6.197
 5999POPC   C2B75716   9.951  18.049   6.576
 5999POPC   C3B75717   9.910  17.959   7.019
 5999POPC   C4B75718  10.031  17.688   7.364
 6000POPC   NC375719  19.241  13.063   5.456
 6000POPC   PO475720  19.096  12.428   5.328
 6000POPC   GL175721  19.023  12.687   5.719
 6000POPC   GL275722  18.869  13.014   5.823
 6000POPC   C1A75723  19.100  12.716   6.174
 6000POPC   D2A75724  19.012  12.541   6.600
 6000POPC   C3A75725  19.170  12.862   6.891
 6000POPC   C4A75726  19.447  12.877   7.240
 6000POPC   C1B75727  18.763  13.202   6.228
 6000POPC   C2B75728  18.625  13.037   6.648
 6000POPC   C3B75729  18.699  12.938   7.075
 6000POPC   C4B75730  18.968  12.796   7.379
 6001POPC   NC375731  18.400  32.237   5.352
 6001POPC   PO475732  17.826  32.023   5.327
 6001POPC   GL175733  18.077  32.139   5.775
 6001POPC   GL275734  18.379  32.355   5.868
 6001POPC   C1A75735  18.105  32.148   6.262
 6001POPC   D2A75736  18.107  32.019   6.709
 6001POPC   C3A75737  18.001  32.286   7.015
 6001POPC   C4A75738  18.365  32.348   7.267
 6001POPC   C1B75739  18.513  32.479   6.305
 6001POPC   C2B75740  18.497  32.430   6.761
 6001POPC   C3B75741  18.751  32.633   7.119
 6001POPC   C4B75742  18.761  32.523   7.614
 6002POPC   NC375743  10.944  23.851   5.382
 6002POPC   PO475744  11.491  23.445   5.394
 6002POPC   GL175745  11.357  23.720   5.737
 6002POPC   GL275746  11.013  23.602   5.820
 6002POPC   C1A75747  11.269  23.869   6.166
 6002POPC   D2A75748  11.184  23.660   6.546
 6002POPC   C3A75749  11.330  23.878   6.910
 6002POPC   C4A75750  11.328  24.043   7.327
 6002POPC   C1B75751  10.846  23.415   6.190
 6002POPC   C2B75752  10.703  23.540   6.611
 6002POPC   C3B75753  10.863  23.630   7.000
 6002POPC   C4B75754  10.913  23.701   7.416
 6003POPC   NC375755  40.544  42.503   5.595
 6003POPC   PO475756  40.553  41.860   5.397
 6003POPC   GL175757  40.614  42.026   5.823
 6003POPC   GL275758  40.309  41.864   5.919
 6003POPC   C1A75759  40.756  42.323   6.202
 6003POPC   D2A75760  41.102  42.455   6.515
 6003POPC   C3A75761  40.990  42.440   6.976
 6003POPC   C4A75762  41.068  42.685   7.373
 6003POPC   C1B75763  40.508  41.863   6.303
 6003POPC   C2B75764  40.581  42.163   6.657
 6003POPC   C3B75765  40.459  42.201   7.075
 6003POPC   C4B75766  40.461  41.827   7.316
 6004POPC   NC375767  21.167  44.491   5.318
 6004POPC   PO475768  21.500   0.071   5.307
 6004POPC   GL175769  21.615  44.720   5.590
 6004POPC   GL275770  21.637  44.952   5.823
 6004POPC   C1A75771  21.390  44.543   5.990
 6004POPC   D2A75772  21.244  44.849   6.325
 6004POPC   C3A75773  21.126  44.703   6.743
 6004POPC   C4A75774  21.134  44.836   7.166
 6004POPC   C1B75775  21.819  44.743   6.171
 6004POPC   C2B75776  21.636  44.543   6.519
 6004POPC   C3B75777  21.562  44.554   6.961
 6004POPC   C4B75778  21.719  44.872   7.143
 6005POPC   NC375779  35.526   7.038   5.465
 6005POPC   PO475780  35.398   7.722   5.514
 6005POPC   GL175781  35.398   7.385   5.880
 6005POPC   GL275782  35.705   7.160   5.936
 6005POPC   C1A75783  35.111   7.422   6.252
 6005POPC   D2A75784  34.915   7.783   6.486
 6005POPC   C3A75785  35.061   7.659   6.895
 6005POPC   C4A75786  35.039   7.217   7.060
 6005POPC   C1B75787  35.632   7.374   6.340
 6005POPC   C2B75788  35.409   7.299   6.721
 6005POPC   C3B75789  35.547   7.215   7.165
 6005POPC   C4B75790  35.693   7.406   7.557
 6006POPC   NC375791  22.936   7.157   5.456
 6006POPC   PO475792  23.338   7.588   5.217
 6006POPC   GL175793  23.305   7.549   5.681
 6006POPC   GL275794  23.350   7.202   5.817
 6006POPC   C1A75795  23.214   7.652   6.149
 6006POPC   D2A75796  22.917   7.471   6.496
 6006POPC   C3A75797  22.879   7.519   6.948
 6006POPC   C4A75798  22.542   7.431   7.214
 6006POPC   C1B75799  23.369   6.913   6.182
 6006POPC   C2B75800  23.096   6.967   6.531
 6006POPC   C3B75801  22.742   7.036   6.811
 6006POPC   C4B75802  22.855   7.012   7.229
 6007POPC   NC375803  33.222  21.214   5.509
 6007POPC   PO475804  32.571  21.245   5.137
 6007POPC   GL175805  32.738  21.266   5.667
 6007POPC   GL275806  32.949  21.092   5.924
 6007POPC   C1A75807  32.895  21.523   6.155
 6007POPC   D2A75808  33.056  21.575   6.599
 6007POPC   C3A75809  32.924  21.302   6.931
 6007POPC   C4A75810  32.810  21.432   7.328
 6007POPC   C1B75811  33.172  21.145   6.349
 6007POPC   C2B75812  33.406  21.198   6.749
 6007POPC   C3B75813  33.361  21.195   7.208
 6007POPC   C4B75814  33.243  21.220   7.642
 6008POPC   NC375815  40.840  13.842   4.956
 6008POPC   PO475816  41.194  13.922   5.576
 6008POPC   GL175817  40.863  13.772   5.867
 6008POPC   GL275818  41.031  13.940   6.136
 6008POPC   C1A75819  40.633  13.646   6.276
 6008POPC   D2A75820  40.827  13.778   6.670
 6008POPC   C3A75821  40.643  13.750   7.075
 6008POPC   C4A75822  40.272  13.553   7.204
 6008POPC   C1B75823  41.148  13.533   6.339
 6008POPC   C2B75824  40.988  13.258   6.681
 6008POPC   C3B75825  40.956  13.362   7.134
 6008POPC   C4B75826  40.957  13.699   7.480
 6009POPC   NC375827  23.219  35.619   5.572
 6009POPC   PO475828  23.690  35.103   5.350
 6009POPC   GL175829  23.632  35.335   5.749
 6009POPC   GL275830  23.323  35.249   5.934
 6009POPC   C1A75831  23.773  35.305   6.195
 6009POPC   D2A75832  23.885  35.595   6.538
 6009POPC   C3A75833  23.704  35.473   6.961
 6009POPC   C4A75834  23.838  35.419   7.377
 6009POPC   C1B75835  23.357  35.637   6.204
 6009POPC   C2B75836  23.366  35.676   6.623
 6009POPC   C3B75837  23.302  35.843   7.003
 6009POPC   C4B75838  23.453  35.747   7.382
 6010POPC   NC375839  42.317  18.540   5.514
 6010POPC   PO475840  42.031  17.990   5.420
 6010POPC   GL175841  42.063  18.244   5.852
 6010POPC   GL275842  42.334  18.520   6.015
 6010POPC   C1A75843  42.183  18.108   6.271
 6010POPC   D2A75844  42.370  18.163   6.681
 6010POPC   C3A75845  42.127  18.243   7.017
 6010POPC   C4A75846  42.086  18.594   7.240
 6010POPC   C1B75847  42.680  18.388   6.312
 6010POPC   C2B75848  42.880  18.224   6.709
 6010POPC   C3B75849  42.673  18.382   7.077
 6010POPC   C4B75850  42.491  18.389   7.487
 6011POPC   NC375851  32.345  13.924   5.359
 6011POPC   PO475852  31.899  13.511   5.555
 6011POPC   GL175853  32.050  13.832   5.832
 6011POPC   GL275854  32.413  13.858   5.857
 6011POPC   C1A75855  31.975  13.791   6.265
 6011POPC   D2A75856  32.205  13.736   6.635
 6011POPC   C3A75857  32.034  13.746   7.037
 6011POPC   C4A75858  32.271  13.497   7.315
 6011POPC   C1B75859  32.615  13.761   6.241
 6011POPC   C2B75860  32.683  13.908   6.638
 6011POPC   C3B75861  32.569  13.795   7.045
 6011POPC   C4B75862  32.432  13.960   7.445
 6012POPC   NC375863  42.551  33.080   5.314
 6012POPC   PO475864  42.020  32.696   5.433
 6012POPC   GL175865  42.126  33.010   5.764
 6012POPC   GL275866  42.464  33.173   5.799
 6012POPC   C1A75867  42.145  32.980   6.231
 6012POPC   D2A75868  42.376  32.850   6.614
 6012POPC   C3A75869  42.131  32.900   7.015
 6012POPC   C4A75870  42.143  32.779   7.461
 6012POPC   C1B75871  42.638  33.094   6.202
 6012POPC   C2B75872  42.457  33.340   6.522
 6012POPC   C3B75873  42.473  33.279   6.947
 6012POPC   C4B75874  42.604  32.958   7.219
 6013POPC   NC375875   7.229  44.138   5.203
 6013POPC   PO475876   7.652  43.605   5.400
 6013POPC   GL175877   7.475  43.762   5.783
 6013POPC   GL275878   7.232  44.021   5.721
 6013POPC   C1A75879   7.307  43.793   6.195
 6013POPC   D2A75880   7.142  43.966   6.565
 6013POPC   C3A75881   7.300  43.796   6.942
 6013POPC   C4A75882   7.544  43.742   7.290
 6013POPC   C1B75883   7.100  44.266   6.103
 6013POPC   C2B75884   7.146  44.476   6.542
 6013POPC   C3B75885   7.244  44.325   6.976
 6013POPC   C4B75886   7.153  44.070   7.347
 6014POPC   NC375887  23.279  12.263   5.228
 6014POPC   PO475888  22.653  12.040   5.417
 6014POPC   GL175889  23.013  12.094   5.722
 6014POPC   GL275890  23.305  12.348   5.733
 6014POPC   C1A75891  22.983  11.934   6.169
 6014POPC   D2A75892  22.704  11.861   6.531
 6014POPC   C3A75893  22.870  11.822   6.953
 6014POPC   C4A75894  23.150  12.058   7.226
 6014POPC   C1B75895  23.037  12.443   6.094
 6014POPC   C2B75896  22.723  12.359   6.406
 6014POPC   C3B75897  22.786  12.320   6.865
 6014POPC   C4B75898  22.910  12.546   7.243
 6015POPC   NC375899   0.184  37.711   5.194
 6015POPC   PO475900  44.537  37.639   5.460
 6015POPC   GL175901  44.884  37.707   5.764
 6015POPC   GL275902  44.629  37.824   5.961
 6015POPC   C1A75903   0.061  37.708   6.204
 6015POPC   D2A75904   0.084  37.828   6.647
 6015POPC   C3A75905  44.836  37.545   6.947
 6015POPC   C4A75906  44.521  37.699   7.246
 6015POPC   C1B75907  44.424  37.923   6.342
 6015POPC   C2B75908  44.482  37.865   6.757
 6015POPC   C3B75909  44.410  38.181   7.062
 6015POPC   C4B75910  44.352  38.138   7.470
 6016POPC   NC375911  43.114   4.605   5.364
 6016POPC   PO475912  43.666   4.564   5.675
 6016POPC   GL175913  43.255   4.528   5.895
 6016POPC   GL275914  42.940   4.361   5.820
 6016POPC   C1A75915  43.131   4.362   6.305
 6016POPC   D2A75916  43.306   4.127   6.630
 6016POPC   C3A75917  43.110   4.292   6.971
 6016POPC   C4A75918  43.280   4.225   7.377
 6016POPC   C1B75919  42.693   4.153   6.145
 6016POPC   C2B75920  42.817   3.980   6.550
 6016POPC   C3B75921  42.786   3.910   6.984
 6016POPC   C4B75922  42.798   4.134   7.353
 6017POPC   NC375923  22.254   9.148   5.447
 6017POPC   PO475924  21.806   8.592   5.331
 6017POPC   GL175925  22.027   8.773   5.700
 6017POPC   GL275926  21.960   9.148   5.835
 6017POPC   C1A75927  22.123   8.795   6.140
 6017POPC   D2A75928  22.365   9.074   6.390
 6017POPC   C3A75929  22.377   8.846   6.787
 6017POPC   C4A75930  22.305   8.921   7.208
 6017POPC   C1B75931  21.850   9.266   6.206
 6017POPC   C2B75932  21.944   9.167   6.632
 6017POPC   C3B75933  21.895   9.184   7.053
 6017POPC   C4B75934  21.828   9.401   7.396
 6018POPC   NC375935  25.990   4.250   5.390
 6018POPC   PO475936  26.383   4.878   5.349
 6018POPC   GL175937  26.166   4.598   5.769
 6018POPC   GL275938  25.819   4.417   5.859
 6018POPC   C1A75939  26.139   4.405   6.242
 6018POPC   D2A75940  26.399   4.281   6.629
 6018POPC   C3A75941  26.346   4.475   7.040
 6018POPC   C4A75942  26.432   4.489   7.493
 6018POPC   C1B75943  25.771   4.747   6.168
 6018POPC   C2B75944  25.778   4.828   6.604
 6018POPC   C3B75945  25.842   4.504   6.902
 6018POPC   C4B75946  25.912   4.369   7.325
 6019POPC   NC375947  41.387  23.832   5.518
 6019POPC   PO475948  41.997  23.634   5.411
 6019POPC   GL175949  41.784  23.680   5.816
 6019POPC   GL275950  41.467  23.471   5.867
 6019POPC   C1A75951  41.625  23.902   6.190
 6019POPC   D2A75952  41.715  24.098   6.588
 6019POPC   C3A75953  41.608  23.903   6.927
 6019POPC   C4A75954  41.692  23.695   7.249
 6019POPC   C1B75955  41.234  23.557   6.248
 6019POPC   C2B75956  41.217  23.794   6.629
 6019POPC   C3B75957  41.177  23.641   7.055
 6019POPC   C4B75958  41.358  23.295   7.295
 6020POPC   NC375959  41.601   3.918   5.328
 6020POPC   PO475960  41.693   4.605   5.363
 6020POPC   GL175961  41.434   4.496   5.686
 6020POPC   GL275962  41.347   4.131   5.776
 6020POPC   C1A75963  41.472   4.511   6.135
 6020POPC   D2A75964  41.832   4.433   6.426
 6020POPC   C3A75965  41.713   4.423   6.869
 6020POPC   C4A75966  41.599   4.312   7.303
 6020POPC   C1B75967  41.665   4.034   6.107
 6020POPC   C2B75968  41.828   3.920   6.516
 6020POPC   C3B75969  41.659   3.917   6.926
 6020POPC   C4B75970  41.862   3.862   7.300
 6021POPC   NC375971  18.075   1.820   5.433
 6021POPC   PO475972  18.645   2.076   5.402
 6021POPC   GL175973  18.491   2.184   5.821
 6021POPC   GL275974  18.134   2.096   5.854
 6021POPC   C1A75975  18.510   2.055   6.250
 6021POPC   D2A75976  18.139   2.038   6.492
 6021POPC   C3A75977  18.199   1.993   6.907
 6021POPC   C4A75978  18.079   1.800   7.280
 6021POPC   C1B75979  18.099   2.421   6.123
 6021POPC   C2B75980  17.926   2.510   6.516
 6021POPC   C3B75981  17.887   2.415   6.965
 6021POPC   C4B75982  18.140   2.305   7.317
 6022POPC   NC375983  19.734  42.377   5.244
 6022POPC   PO475984  19.244  42.206   5.638
 6022POPC   GL175985  19.682  42.191   5.727
 6022POPC   GL275986  19.811  42.524   5.716
 6022POPC   C1A75987  19.833  42.100   6.121
 6022POPC   D2A75988  19.631  42.151   6.525
 6022POPC   C3A75989  19.868  42.264   6.903
 6022POPC   C4A75990  20.007  42.041   7.282
 6022POPC   C1B75991  20.102  42.549   6.034
 6022POPC   C2B75992  20.055  42.470   6.451
 6022POPC   C3B75993  20.292  42.531   6.804
 6022POPC   C4B75994  20.468  42.700   7.149
 6023POPC   NC375995   0.366  15.265   5.230
 6023POPC   PO475996   0.605  14.753   5.276
 6023POPC   GL175997   0.451  14.934   5.650
 6023POPC   GL275998   0.176  14.827   5.808
 6023POPC   C1A75999   0.514  15.162   6.056
 6023POPC   D2A76000   0.375  15.276   6.498
 6023POPC   C3A76001   0.584  15.071   6.859
 6023POPC   C4A76002   0.887  15.207   7.175
 6023POPC   C1B76003   0.067  14.975   6.208
 6023POPC   C2B76004   0.085  14.845   6.632
 6023POPC   C3B76005   0.080  15.196   6.906
 6023POPC   C4B76006   0.300  15.272   7.256
 6024POPC   NC376007  27.779   7.523   5.376
 6024POPC   PO476008  27.403   6.943   5.427
 6024POPC   GL176009  27.549   7.239   5.760
 6024POPC   GL276010  27.896   7.163   5.728
 6024POPC   C1A76011  27.516   7.510   6.179
 6024POPC   D2A76012  27.327   7.520   6.610
 6024POPC   C3A76013  27.233   7.754   7.012
 6024POPC   C4A76014  27.260   7.732   7.496
 6024POPC   C1B76015  27.826   7.095   6.164
 6024POPC   C2B76016  27.869   7.357   6.552
 6024POPC   C3B76017  27.726   7.546   6.929
 6024POPC   C4B76018  27.768   7.636   7.334
 6025POPC   NC376019   3.072  28.917   5.537
 6025POPC   PO476020   2.713  28.313   5.476
 6025POPC   GL176021   2.909  28.397   5.865
 6025POPC   GL276022   2.811  28.733   5.964
 6025POPC   C1A76023   2.861  28.304   6.310
 6025POPC   D2A76024   2.579  28.206   6.657
 6025POPC   C3A76025   2.805  28.330   7.024
 6025POPC   C4A76026   3.079  28.144   7.330
 6025POPC   C1B76027   2.494  28.659   6.326
 6025POPC   C2B76028   2.412  28.667   6.788
 6025POPC   C3B76029   2.574  28.732   7.229
 6025POPC   C4B76030   2.471  28.668   7.678
 6026POPC   NC376031  30.476  40.612   5.285
 6026POPC   PO476032  31.040  40.305   5.298
 6026POPC   GL176033  30.854  40.557   5.673
 6026POPC   GL276034  30.505  40.659   5.795
 6026POPC   C1A76035  30.954  40.879   6.016
 6026POPC   D2A76036  31.155  40.982   6.428
 6026POPC   C3A76037  30.933  40.808   6.771
 6026POPC   C4A76038  30.932  40.779   7.192
 6026POPC   C1B76039  30.385  41.049   6.047
 6026POPC   C2B76040  30.255  41.123   6.488
 6026POPC   C3B76041  30.272  41.171   6.949
 6026POPC   C4B76042  30.458  40.924   7.250
 6027POPC   NC376043  13.502  35.477   5.604
 6027POPC   PO476044  13.818  36.003   5.298
 6027POPC   GL176045  13.648  36.002   5.717
 6027POPC   GL276046  13.956  35.876   5.826
 6027POPC   C1A76047  13.635  36.256   6.139
 6027POPC   D2A76048  13.568  36.079   6.586
 6027POPC   C3A76049  13.538  36.289   6.985
 6027POPC   C4A76050  13.256  36.263   7.332
 6027POPC   C1B76051  13.708  35.755   6.192
 6027POPC   C2B76052  13.844  35.651   6.592
 6027POPC   C3B76053  13.857  35.866   6.979
 6027POPC   C4B76054  13.474  35.830   7.200
 6028POPC   NC376055  34.990  15.419   5.620
 6028POPC   PO476056  35.569  15.196   5.459
 6028POPC   GL176057  35.462  15.139   5.875
 6028POPC   GL276058  35.172  15.275   6.085
 6028POPC   C1A76059  35.552  14.997   6.277
 6028POPC   D2A76060  35.384  15.136   6.665
 6028POPC   C3A76061  35.661  15.036   6.986
 6028POPC   C4A76062  35.503  14.892   7.384
 6028POPC   C1B76063  35.446  15.559   6.371
 6028POPC   C2B76064  35.596  15.561   6.829
 6028POPC   C3B76065  35.367  15.378   7.181
 6028POPC   C4B76066  35.220  15.516   7.556
 6029POPC   NC376067  15.474   4.499   5.054
 6029POPC   PO476068  15.372   4.942   5.548
 6029POPC   GL176069  15.002   4.856   5.817
 6029POPC   GL276070  15.114   5.162   5.998
 6029POPC   C1A76071  14.850   4.836   6.246
 6029POPC   D2A76072  14.948   5.192   6.496
 6029POPC   C3A76073  14.851   5.186   6.906
 6029POPC   C4A76074  15.122   5.012   7.209
 6029POPC   C1B76075  15.437   5.166   6.312
 6029POPC   C2B76076  15.393   5.094   6.753
 6029POPC   C3B76077  15.539   4.796   7.048
 6029POPC   C4B76078  15.606   5.009   7.401
 6030POPC   NC376079   8.657  20.108   5.031
 6030POPC   PO476080   8.312  19.578   5.293
 6030POPC   GL176081   8.324  19.716   5.767
 6030POPC   GL276082   8.572  19.997   5.833
 6030POPC   C1A76083   8.157  19.934   6.170
 6030POPC   D2A76084   8.236  20.149   6.593
 6030POPC   C3A76085   7.979  20.141   6.997
 6030POPC   C4A76086   8.133  20.159   7.445
 6030POPC   C1B76087   8.622  19.704   6.187
 6030POPC   C2B76088   8.417  19.651   6.573
 6030POPC   C3B76089   8.407  19.838   6.990
 6030POPC   C4B76090   8.044  19.692   7.247
 6031POPC   NC376091   1.994  13.803   5.230
 6031POPC   PO476092   1.854  13.207   5.432
 6031POPC   GL176093   2.018  13.549   5.690
 6031POPC   GL276094   1.918  13.886   5.819
 6031POPC   C1A76095   2.010  13.509   6.145
 6031POPC   D2A76096   2.195  13.521   6.549
 6031POPC   C3A76097   1.945  13.450   6.923
 6031POPC   C4A76098   2.088  13.420   7.368
 6031POPC   C1B76099   2.011  14.043   6.249
 6031POPC   C2B76100   1.961  13.943   6.700
 6031POPC   C3B76101   1.990  13.899   7.147
 6031POPC   C4B76102   1.869  13.922   7.584
 6032POPC   NC376103  40.604  30.182   5.066
 6032POPC   PO476104  41.151  30.079   5.436
 6032POPC   GL176105  40.876  30.011   5.817
 6032POPC   GL276106  40.520  29.847   5.759
 6032POPC   C1A76107  40.953  30.092   6.212
 6032POPC   D2A76108  40.814  29.986   6.591
 6032POPC   C3A76109  41.091  30.016   6.904
 6032POPC   C4A76110  40.856  30.236   7.202
 6032POPC   C1B76111  40.624  29.701   6.185
 6032POPC   C2B76112  40.501  29.583   6.618
 6032POPC   C3B76113  40.551  29.818   7.003
 6032POPC   C4B76114  40.893  29.734   7.276
 6033POPC   NC376115  28.648  27.778   5.339
 6033POPC   PO476116  28.175  28.302   5.181
 6033POPC   GL176117  28.181  28.259   5.667
 6033POPC   GL276118  28.423  28.008   5.815
 6033POPC   C1A76119  27.977  28.311   6.092
 6033POPC   D2A76120  28.013  28.280   6.579
 6033POPC   C3A76121  28.194  28.628   6.846
 6033POPC   C4A76122  28.310  28.624   7.290
 6033POPC   C1B76123  28.412  28.106   6.264
 6033POPC   C2B76124  28.526  28.257   6.678
 6033POPC   C3B76125  28.341  28.161   7.069
 6033POPC   C4B76126  28.657  28.256   7.355
 6034POPC   NC376127  32.382  42.056   5.585
 6034POPC   PO476128  32.086  41.464   5.517
 6034POPC   GL176129  32.034  41.739   5.857
 6034POPC   GL276130  31.874  42.074   5.830
 6034POPC   C1A76131  32.248  41.825   6.259
 6034POPC   D2A76132  32.319  41.869   6.724
 6034POPC   C3A76133  32.178  41.513   6.935
 6034POPC   C4A76134  32.195  41.311   7.309
 6034POPC   C1B76135  31.727  41.932   6.213
 6034POPC   C2B76136  31.834  41.714   6.565
 6034POPC   C3B76137  31.842  41.905   6.941
 6034POPC   C4B76138  31.914  41.751   7.336
 6035POPC   NC376139  40.707  16.868   5.605
 6035POPC   PO476140  40.806  17.432   5.180
 6035POPC   GL176141  40.896  17.497   5.645
 6035POPC   GL276142  40.563  17.407   5.771
 6035POPC   C1A76143  40.867  17.612   6.124
 6035POPC   D2A76144  40.723  17.592   6.587
 6035POPC   C3A76145  40.834  17.446   7.007
 6035POPC   C4A76146  41.148  17.211   7.241
 6035POPC   C1B76147  40.420  17.354   6.238
 6035POPC   C2B76148  40.409  17.136   6.635
 6035POPC   C3B76149  40.352  17.240   7.061
 6035POPC   C4B76150  40.590  17.372   7.473
 6036POPC   NC376151  32.804  33.702   5.455
 6036POPC   PO476152  33.481  33.520   5.478
 6036POPC   GL176153  33.197  33.743   5.815
 6036POPC   GL276154  33.102  33.484   6.041
 6036POPC   C1A76155  32.907  33.981   6.159
 6036POPC   D2A76156  32.856  33.824   6.613
 6036POPC   C3A76157  32.753  34.067   7.005
 6036POPC   C4A76158  32.772  33.877   7.440
 6036POPC   C1B76159  33.324  33.761   6.345
 6036POPC   C2B76160  33.406  33.631   6.757
 6036POPC   C3B76161  33.086  33.659   7.078
 6036POPC   C4B76162  33.081  33.478   7.501
 6037POPC   NC376163   0.254   3.156   5.403
 6037POPC   PO476164   0.571   3.865   5.430
 6037POPC   GL176165   0.496   3.758   5.838
 6037POPC   GL276166   0.279   3.492   5.777
 6037POPC   C1A76167   0.599   3.732   6.295
 6037POPC   D2A76168   0.348   3.692   6.680
 6037POPC   C3A76169   0.495   3.478   7.064
 6037POPC   C4A76170   0.448   3.640   7.472
 6037POPC   C1B76171   0.142   3.487   6.197
 6037POPC   C2B76172   0.035   3.224   6.534
 6037POPC   C3B76173   0.017   3.366   6.947
 6037POPC   C4B76174   0.178   3.137   7.319
 6038POPC   NC376175  32.513  14.775   5.485
 6038POPC   PO476176  31.998  14.254   5.345
 6038POPC   GL176177  32.189  14.338   5.726
 6038POPC   GL276178  32.537  14.358   5.790
 6038POPC   C1A76179  32.198  14.234   6.160
 6038POPC   D2A76180  32.406  14.362   6.526
 6038POPC   C3A76181  32.281  14.193   6.903
 6038POPC   C4A76182  32.213  14.385   7.261
 6038POPC   C1B76183  32.392  14.714   6.133
 6038POPC   C2B76184  32.480  14.880   6.586
 6038POPC   C3B76185  32.454  14.787   7.063
 6038POPC   C4B76186  32.290  14.806   7.530
 6039POPC   NC376187  44.150  20.309   5.648
 6039POPC   PO476188  43.839  19.758   5.395
 6039POPC   GL176189  43.874  19.867   5.821
 6039POPC   GL276190  43.572  20.063   5.901
 6039POPC   C1A76191  43.995  19.693   6.231
 6039POPC   D2A76192  43.801  19.453   6.577
 6039POPC   C3A76193  43.917  19.589   6.950
 6039POPC   C4A76194  44.237  19.810   7.102
 6039POPC   C1B76195  43.867  20.193   6.240
 6039POPC   C2B76196  44.033  20.029   6.639
 6039POPC   C3B76197  43.822  20.095   7.021
 6039POPC   C4B76198  43.862  20.251   7.427
 6040POPC   NC376199   9.962  44.336   5.556
 6040POPC   PO476200   9.549  44.935   5.431
 6040POPC   GL176201   9.701  44.720   5.786
 6040POPC   GL276202   9.500  44.421   5.821
 6040POPC   C1A76203   9.851  44.556   6.194
 6040POPC   D2A76204   9.973  44.417   6.602
 6040POPC   C3A76205   9.782  44.454   6.974
 6040POPC   C4A76206  10.044  44.567   7.304
 6040POPC   C1B76207   9.341  44.680   6.186
 6040POPC   C2B76208   9.221  44.517   6.613
 6040POPC   C3B76209   9.290  44.703   7.016
 6040POPC   C4B76210   9.558  44.730   7.362
 6041POPC   NC376211  18.423   3.183   5.593
 6041POPC   PO476212  18.196   3.755   5.376
 6041POPC   GL176213  18.250   3.627   5.799
 6041POPC   GL276214  18.602   3.671   5.732
 6041POPC   C1A76215  18.232   3.386   6.185
 6041POPC   D2A76216  17.972   3.320   6.528
 6041POPC   C3A76217  18.152   3.379   6.901
 6041POPC   C4A76218  18.297   3.307   7.271
 6041POPC   C1B76219  18.711   3.586   6.151
 6041POPC   C2B76220  18.572   3.459   6.553
 6041POPC   C3B76221  18.599   3.626   6.933
 6041POPC   C4B76222  18.622   3.763   7.331
 6042POPC   NC376223  19.945   4.348   5.100
 6042POPC   PO476224  19.774   3.906   5.591
 6042POPC   GL176225  19.676   4.152   5.957
 6042POPC   GL276226  19.907   4.408   6.073
 6042POPC   C1A76227  19.633   4.100   6.402
 6042POPC   D2A76228  19.904   3.880   6.694
 6042POPC   C3A76229  19.798   3.935   7.119
 6042POPC   C4A76230  19.432   4.172   7.225
 6042POPC   C1B76231  20.154   4.267   6.441
 6042POPC   C2B76232  20.081   4.337   6.900
 6042POPC   C3B76233  19.782   4.574   7.182
 6042POPC   C4B76234  19.464   4.822   7.444
 6043POPC   NC376235  28.810   6.020   5.437
 6043POPC   PO476236  29.277   5.569   5.397
 6043POPC   GL176237  29.045   5.647   5.764
 6043POPC   GL276238  29.214   5.969   5.788
 6043POPC   C1A76239  29.104   5.691   6.206
 6043POPC   D2A76240  29.018   5.550   6.614
 6043POPC   C3A76241  29.354   5.679   6.913
 6043POPC   C4A76242  29.250   5.567   7.320
 6043POPC   C1B76243  28.946   6.195   6.090
 6043POPC   C2B76244  28.811   6.062   6.500
 6043POPC   C3B76245  28.897   5.919   6.941
 6043POPC   C4B76246  29.098   6.068   7.293
 6044POPC   NC376247  28.745   6.791   5.576
 6044POPC   PO476248  28.248   6.413   5.363
 6044POPC   GL176249  28.342   6.526   5.778
 6044POPC   GL276250  28.154   6.767   5.913
 6044POPC   C1A76251  28.426   6.294   6.175
 6044POPC   D2A76252  28.140   6.195   6.473
 6044POPC   C3A76253  28.119   6.496   6.767
 6044POPC   C4A76254  28.061   6.355   7.170
 6044POPC   C1B76255  28.524   6.793   6.215
 6044POPC   C2B76256  28.708   6.585   6.587
 6044POPC   C3B76257  28.664   6.738   6.996
 6044POPC   C4B76258  28.256   6.837   7.136
 6045POPC   NC376259  38.777  14.176   5.406
 6045POPC   PO476260  38.146  14.550   5.338
 6045POPC   GL176261  38.331  14.389   5.716
 6045POPC   GL276262  38.110  14.292   6.012
 6045POPC   C1A76263  38.610  14.411   6.092
 6045POPC   D2A76264  38.409  14.379   6.504
 6045POPC   C3A76265  38.617  14.443   6.879
 6045POPC   C4A76266  38.478  14.437   7.289
 6045POPC   C1B76267  38.207  14.739   6.165
 6045POPC   C2B76268  38.214  14.985   6.546
 6045POPC   C3B76269  38.225  14.775   6.946
 6045POPC   C4B76270  38.141  14.805   7.386
 6046POPC   NC376271  33.152  35.806   5.235
 6046POPC   PO476272  32.887  35.186   5.389
 6046POPC   GL176273  33.104  35.297   5.780
 6046POPC   GL276274  32.792  35.337   5.918
 6046POPC   C1A76275  33.165  35.233   6.246
 6046POPC   D2A76276  33.230  35.384   6.669
 6046POPC   C3A76277  33.115  35.216   7.064
 6046POPC   C4A76278  33.027  35.362   7.487
 6046POPC   C1B76279  32.697  35.019   6.230
 6046POPC   C2B76280  32.825  34.943   6.685
 6046POPC   C3B76281  32.675  34.968   7.146
 6046POPC   C4B76282  32.643  34.968   7.628
 6047POPC   NC376283   3.479  38.892   5.434
 6047POPC   PO476284   3.605  38.258   5.374
 6047POPC   GL176285   3.545  38.513   5.768
 6047POPC   GL276286   3.805  38.773   5.814
 6047POPC   C1A76287   3.361  38.506   6.189
 6047POPC   D2A76288   3.323  38.262   6.589
 6047POPC   C3A76289   3.475  38.435   6.993
 6047POPC   C4A76290   3.453  38.796   7.250
 6047POPC   C1B76291   3.859  38.543   6.188
 6047POPC   C2B76292   3.710  38.625   6.583
 6047POPC   C3B76293   3.887  38.740   6.977
 6047POPC   C4B76294   3.916  39.010   7.334
 6048POPC   NC376295  15.739  35.266   5.383
 6048POPC   PO476296  16.273  35.564   5.384
 6048POPC   GL176297  16.119  35.292   5.778
 6048POPC   GL276298  15.774  35.100   5.862
 6048POPC   C1A76299  16.050  35.406   6.239
 6048POPC   D2A76300  16.048  35.652   6.653
 6048POPC   C3A76301  16.122  35.456   7.090
 6048POPC   C4A76302  15.904  35.475   7.533
 6048POPC   C1B76303  15.618  35.127   6.304
 6048POPC   C2B76304  15.673  35.239   6.756
 6048POPC   C3B76305  15.711  35.150   7.214
 6048POPC   C4B76306  15.756  34.970   7.665
 6049POPC   NC376307  32.339   1.420   5.322
 6049POPC   PO476308  31.905   1.069   5.667
 6049POPC   GL176309  32.295   1.149   5.838
 6049POPC   GL276310  32.350   1.514   5.867
 6049POPC   C1A76311  32.476   1.169   6.257
 6049POPC   D2A76312  32.315   1.296   6.672
 6049POPC   C3A76313  32.464   1.099   7.049
 6049POPC   C4A76314  32.438   1.073   7.511
 6049POPC   C1B76315  32.031   1.398   6.210
 6049POPC   C2B76316  31.817   1.351   6.584
 6049POPC   C3B76317  31.924   1.136   6.982
 6049POPC   C4B76318  32.090   1.363   7.313
 6050POPC   NC376319  44.680  20.710   5.234
 6050POPC   PO476320  44.559  20.144   5.531
 6050POPC   GL176321  44.596  20.456   5.840
 6050POPC   GL276322  44.575  20.787   5.738
 6050POPC   C1A76323  44.534  20.501   6.261
 6050POPC   D2A76324  44.425  20.416   6.677
 6050POPC   C3A76325  44.801  20.413   6.927
 6050POPC   C4A76326  44.700  20.531   7.329
 6050POPC   C1B76327  44.454  20.998   6.134
 6050POPC   C2B76328  44.658  20.925   6.554
 6050POPC   C3B76329  44.550  20.864   6.976
 6050POPC   C4B76330  44.322  20.964   7.384
 6051POPC   NC376331   2.159  18.400   5.469
 6051POPC   PO476332   1.461  18.488   5.406
 6051POPC   GL176333   1.700  18.353   5.800
 6051POPC   GL276334   1.990  18.116   5.867
 6051POPC   C1A76335   1.819  18.375   6.271
 6051POPC   D2A76336   1.975  18.118   6.627
 6051POPC   C3A76337   2.020  18.396   6.967
 6051POPC   C4A76338   1.662  18.564   7.143
 6051POPC   C1B76339   2.212  17.895   6.202
 6051POPC   C2B76340   2.448  17.913   6.597
 6051POPC   C3B76341   2.322  17.976   7.048
 6051POPC   C4B76342   1.948  18.058   7.349
 6052POPC   NC376343   7.326  42.416   5.335
 6052POPC   PO476344   7.740  41.856   5.471
 6052POPC   GL176345   7.597  42.211   5.741
 6052POPC   GL276346   7.274  42.386   5.834
 6052POPC   C1A76347   7.734  42.415   6.119
 6052POPC   D2A76348   7.584  42.447   6.546
 6052POPC   C3A76349   7.652  42.115   6.835
 6052POPC   C4A76350   7.660  42.209   7.261
 6052POPC   C1B76351   7.257  42.100   6.173
 6052POPC   C2B76352   7.171  42.127   6.616
 6052POPC   C3B76353   7.259  42.400   6.998
 6052POPC   C4B76354   7.090  42.368   7.448
 6053POPC   NC376355  32.182  24.642   5.266
 6053POPC   PO476356  32.178  23.978   5.485
 6053POPC   GL176357  32.347  24.319   5.766
 6053POPC   GL276358  32.232  24.677   5.830
 6053POPC   C1A76359  32.413  24.389   6.223
 6053POPC   D2A76360  32.245  24.462   6.643
 6053POPC   C3A76361  32.094  24.192   6.975
 6053POPC   C4A76362  32.254  24.427   7.306
 6053POPC   C1B76363  31.988  24.767   6.228
 6053POPC   C2B76364  31.778  24.685   6.637
 6053POPC   C3B76365  31.921  24.709   7.048
 6053POPC   C4B76366  31.986  24.840   7.497
 6054POPC   NC376367  12.340  21.409   5.465
 6054POPC   PO476368  12.947  21.127   5.488
 6054POPC   GL176369  12.819  21.414   5.705
 6054POPC   GL276370  12.612  21.222   5.867
 6054POPC   C1A76371  13.022  21.506   6.055
 6054POPC   D2A76372  12.955  21.610   6.467
 6054POPC   C3A76373  12.926  21.253   6.757
 6054POPC   C4A76374  12.956  21.337   7.195
 6054POPC   C1B76375  12.671  21.185   6.281
 6054POPC   C2B76376  12.432  21.364   6.602
 6054POPC   C3B76377  12.438  21.282   7.037
 6054POPC   C4B76378  12.684  20.922   7.132
 6055POPC   NC376379   1.352  15.332   5.389
 6055POPC   PO476380   1.275  14.722   5.704
 6055POPC   GL176381   1.326  15.160   5.861
 6055POPC   GL276382   1.588  15.453   5.854
 6055POPC   C1A76383   1.276  15.247   6.267
 6055POPC   D2A76384   1.392  14.966   6.579
 6055POPC   C3A76385   1.378  15.068   6.985
 6055POPC   C4A76386   1.348  15.155   7.402
 6055POPC   C1B76387   1.463  15.719   6.245
 6055POPC   C2B76388   1.377  15.532   6.684
 6055POPC   C3B76389   1.440  15.567   7.112
 6055POPC   C4B76390   1.110  15.641   7.387
 6056POPC   NC376391   1.079  17.083   5.377
 6056POPC   PO476392   0.959  16.422   5.314
 6056POPC   GL176393   1.247  16.639   5.649
 6056POPC   GL276394   1.498  16.953   5.671
 6056POPC   C1A76395   1.173  16.714   6.101
 6056POPC   D2A76396   0.982  16.676   6.517
 6056POPC   C3A76397   1.213  16.458   6.846
 6056POPC   C4A76398   1.108  16.692   7.214
 6056POPC   C1B76399   1.566  17.038   6.123
 6056POPC   C2B76400   1.512  16.773   6.528
 6056POPC   C3B76401   1.577  16.793   6.988
 6056POPC   C4B76402   1.727  16.984   7.367
 6057POPC   NC376403  19.542   0.807   5.373
 6057POPC   PO476404  20.004   0.235   5.385
 6057POPC   GL176405  19.831   0.455   5.746
 6057POPC   GL276406  20.001   0.738   5.812
 6057POPC   C1A76407  19.641   0.578   6.154
 6057POPC   D2A76408  19.381   0.633   6.511
 6057POPC   C3A76409  19.626   0.671   6.892
 6057POPC   C4A76410  19.675   0.468   7.277
 6057POPC   C1B76411  20.116   0.972   6.191
 6057POPC   C2B76412  20.293   0.940   6.617
 6057POPC   C3B76413  20.133   0.962   7.043
 6057POPC   C4B76414  20.071   0.743   7.436
 6058POPC   NC376415  11.322  27.020   5.441
 6058POPC   PO476416  10.859  26.526   5.367
 6058POPC   GL176417  11.026  26.679   5.754
 6058POPC   GL276418  11.342  26.535   5.772
 6058POPC   C1A76419  11.159  26.807   6.199
 6058POPC   D2A76420  11.162  27.102   6.558
 6058POPC   C3A76421  11.335  26.984   6.969
 6058POPC   C4A76422  11.311  26.627   7.232
 6058POPC   C1B76423  11.640  26.640   6.117
 6058POPC   C2B76424  11.634  26.837   6.520
 6058POPC   C3B76425  11.728  26.644   6.893
 6058POPC   C4B76426  11.825  26.490   7.261
 6059POPC   NC376427  43.468   3.695   5.581
 6059POPC   PO476428  42.753   3.486   5.463
 6059POPC   GL176429  42.976   3.693   5.797
 6059POPC   GL276430  43.163   3.395   5.949
 6059POPC   C1A76431  43.169   3.843   6.196
 6059POPC   D2A76432  43.130   3.544   6.526
 6059POPC   C3A76433  43.160   3.559   6.950
 6059POPC   C4A76434  43.143   3.687   7.360
 6059POPC   C1B76435  42.972   3.115   6.283
 6059POPC   C2B76436  42.936   3.105   6.766
 6059POPC   C3B76437  43.049   3.150   7.233
 6059POPC   C4B76438  42.975   2.915   7.638
 6060POPC   NC376439  23.765  18.300   5.422
 6060POPC   PO476440  23.844  18.902   5.609
 6060POPC   GL176441  23.768  18.531   5.914
 6060POPC   GL276442  23.839  18.156   5.959
 6060POPC   C1A76443  23.906  18.414   6.363
 6060POPC   D2A76444  23.939  17.994   6.558
 6060POPC   C3A76445  24.004  18.106   6.989
 6060POPC   C4A76446  23.759  18.426   7.265
 6060POPC   C1B76447  23.450  18.198   6.209
 6060POPC   C2B76448  23.235  18.176   6.621
 6060POPC   C3B76449  23.375  18.119   7.066
 6060POPC   C4B76450  23.679  17.865   7.278
 6061POPC   NC376451  33.510  26.904   5.393
 6061POPC   PO476452  34.202  27.059   5.409
 6061POPC   GL176453  33.928  26.757   5.734
 6061POPC   GL276454  33.535  26.651   5.828
 6061POPC   C1A76455  33.866  26.685   6.198
 6061POPC   D2A76456  33.551  26.860   6.474
 6061POPC   C3A76457  33.672  27.012   6.872
 6061POPC   C4A76458  33.830  26.868   7.277
 6061POPC   C1B76459  33.307  26.480   6.181
 6061POPC   C2B76460  33.468  26.360   6.589
 6061POPC   C3B76461  33.635  26.469   6.977
 6061POPC   C4B76462  33.579  26.453   7.409
 6062POPC   NC376463  38.704  28.733   5.294
 6062POPC   PO476464  38.678  29.403   5.481
 6062POPC   GL176465  38.502  29.141   5.835
 6062POPC   GL276466  38.694  28.844   5.788
 6062POPC   C1A76467  38.298  29.079   6.274
 6062POPC   D2A76468  38.308  29.224   6.726
 6062POPC   C3A76469  38.277  29.060   7.169
 6062POPC   C4A76470  38.522  29.121   7.561
 6062POPC   C1B76471  38.857  28.925   6.187
 6062POPC   C2B76472  38.708  28.890   6.583
 6062POPC   C3B76473  38.770  29.068   6.973
 6062POPC   C4B76474  38.839  28.834   7.305
 6063POPC   NC376475  12.440   9.432   5.350
 6063POPC   PO476476  11.837   9.777   5.309
 6063POPC   GL176477  12.072   9.704   5.688
 6063POPC   GL276478  11.910  10.002   5.823
 6063POPC   C1A76479  12.136   9.588   6.146
 6063POPC   D2A76480  12.009   9.731   6.583
 6063POPC   C3A76481  12.171   9.515   6.913
 6063POPC   C4A76482  12.271   9.606   7.314
 6063POPC   C1B76483  12.033  10.096   6.225
 6063POPC   C2B76484  12.360  10.087   6.526
 6063POPC   C3B76485  12.269  10.017   6.944
 6063POPC   C4B76486  12.090  10.076   7.341
 6064POPC   NC376487  26.054  20.035   5.410
 6064POPC   PO476488  26.112  19.336   5.539
 6064POPC   GL176489  25.982  19.649   5.886
 6064POPC   GL276490  25.952  20.032   5.895
 6064POPC   C1A76491  25.832  19.769   6.310
 6064POPC   D2A76492  26.080  19.864   6.673
 6064POPC   C3A76493  25.848  19.849   7.045
 6064POPC   C4A76494  25.825  19.599   7.408
 6064POPC   C1B76495  26.266  20.007   6.209
 6064POPC   C2B76496  26.309  20.325   6.558
 6064POPC   C3B76497  26.223  20.259   6.980
 6064POPC   C4B76498  26.281  19.978   7.323
 6065POPC   NC376499  43.742   2.779   5.290
 6065POPC   PO476500  44.128   3.328   5.246
 6065POPC   GL176501  44.063   3.015   5.636
 6065POPC   GL276502  43.810   2.747   5.784
 6065POPC   C1A76503  44.108   2.945   6.136
 6065POPC   D2A76504  43.819   2.973   6.493
 6065POPC   C3A76505  43.921   3.036   6.928
 6065POPC   C4A76506  43.814   3.034   7.364
 6065POPC   C1B76507  43.753   2.549   6.193
 6065POPC   C2B76508  43.694   2.484   6.651
 6065POPC   C3B76509  43.761   2.550   7.078
 6065POPC   C4B76510  43.710   2.430   7.521
 6066POPC   NC376511  38.761  32.662   5.163
 6066POPC   PO476512  38.173  33.024   5.328
 6066POPC   GL176513  38.300  33.220   5.732
 6066POPC   GL276514  38.572  33.378   5.594
 6066POPC   C1A76515  38.316  33.018   6.161
 6066POPC   D2A76516  38.214  32.787   6.522
 6066POPC   C3A76517  38.430  32.916   6.881
 6066POPC   C4A76518  38.262  32.838   7.260
 6066POPC   C1B76519  38.721  33.301   6.009
 6066POPC   C2B76520  38.744  33.300   6.469
 6066POPC   C3B76521  38.699  33.412   6.905
 6066POPC   C4B76522  38.601  33.194   7.288
 6067POPC   NC376523  23.645   3.915   5.447
 6067POPC   PO476524  23.714   3.218   5.404
 6067POPC   GL176525  23.631   3.329   5.824
 6067POPC   GL276526  23.753   3.681   5.885
 6067POPC   C1A76527  23.803   3.340   6.245
 6067POPC   D2A76528  23.736   3.611   6.566
 6067POPC   C3A76529  23.771   3.333   6.902
 6067POPC   C4A76530  23.714   3.534   7.275
 6067POPC   C1B76531  24.086   3.783   6.211
 6067POPC   C2B76532  24.119   3.957   6.630
 6067POPC   C3B76533  24.105   3.745   7.012
 6067POPC   C4B76534  24.141   3.785   7.432
 6068POPC   NC376535  17.953   5.030   5.576
 6068POPC   PO476536  17.348   4.993   5.403
 6068POPC   GL176537  17.510   4.937   5.818
 6068POPC   GL276538  17.618   5.266   5.899
 6068POPC   C1A76539  17.532   4.943   6.277
 6068POPC   D2A76540  17.655   5.136   6.675
 6068POPC   C3A76541  17.544   5.044   7.076
 6068POPC   C4A76542  17.410   5.276   7.458
 6068POPC   C1B76543  17.862   5.362   6.269
 6068POPC   C2B76544  17.750   5.647   6.623
 6068POPC   C3B76545  17.604   5.550   7.055
 6068POPC   C4B76546  17.641   5.788   7.482
 6069POPC   NC376547  24.799  22.194   5.177
 6069POPC   PO476548  24.266  22.230   5.590
 6069POPC   GL176549  24.327  22.041   5.981
 6069POPC   GL276550  24.594  21.820   5.949
 6069POPC   C1A76551  24.374  21.937   6.404
 6069POPC   D2A76552  24.476  22.247   6.689
 6069POPC   C3A76553  24.183  22.281   7.000
 6069POPC   C4A76554  24.386  22.405   7.352
 6069POPC   C1B76555  24.885  21.884   6.300
 6069POPC   C2B76556  24.767  21.797   6.736
 6069POPC   C3B76557  24.612  21.975   7.119
 6069POPC   C4B76558  24.840  21.903   7.497
 6070POPC   NC376559   8.747  13.051   5.352
 6070POPC   PO476560   9.242  12.592   5.403
 6070POPC   GL176561   9.016  12.787   5.744
 6070POPC   GL276562   8.704  12.571   5.703
 6070POPC   C1A76563   9.105  12.964   6.177
 6070POPC   D2A76564   9.326  12.869   6.596
 6070POPC   C3A76565   9.174  12.999   7.010
 6070POPC   C4A76566   8.837  13.091   7.290
 6070POPC   C1B76567   8.718  12.443   6.140
 6070POPC   C2B76568   8.820  12.672   6.538
 6070POPC   C3B76569   8.986  12.541   6.922
 6070POPC   C4B76570   8.970  12.599   7.340
 6071POPC   NC376571  33.501  40.332   5.585
 6071POPC   PO476572  33.823  40.860   5.281
 6071POPC   GL176573  33.541  40.927   5.687
 6071POPC   GL276574  33.534  40.646   5.968
 6071POPC   C1A76575  33.606  41.108   6.135
 6071POPC   D2A76576  33.925  41.083   6.480
 6071POPC   C3A76577  33.773  41.028   6.919
 6071POPC   C4A76578  34.032  40.806   7.244
 6071POPC   C1B76579  33.842  40.607   6.288
 6071POPC   C2B76580  33.958  40.607   6.724
 6071POPC   C3B76581  33.749  40.394   7.059
 6071POPC   C4B76582  33.947  40.307   7.437
 6072POPC   NC376583  30.739  16.568   5.445
 6072POPC   PO476584  31.086  17.086   5.276
 6072POPC   GL176585  30.863  17.073   5.680
 6072POPC   GL276586  30.592  16.878   5.815
 6072POPC   C1A76587  30.846  17.179   6.140
 6072POPC   D2A76588  30.874  16.829   6.474
 6072POPC   C3A76589  30.962  16.980   6.901
 6072POPC   C4A76590  30.562  17.025   7.153
 6072POPC   C1B76591  30.586  16.502   6.122
 6072POPC   C2B76592  30.578  16.337   6.552
 6072POPC   C3B76593  30.696  16.547   6.953
 6072POPC   C4B76594  30.588  16.555   7.372
 6073POPC   NC376595  16.327  40.743   5.458
 6073POPC   PO476596  15.579  40.837   5.410
 6073POPC   GL176597  15.878  40.860   5.679
 6073POPC   GL276598  15.746  41.092   5.896
 6073POPC   C1A76599  15.959  40.634   6.036
 6073POPC   D2A76600  15.821  40.587   6.438
 6073POPC   C3A76601  15.986  40.838   6.750
 6073POPC   C4A76602  15.990  40.663   7.166
 6073POPC   C1B76603  15.512  40.894   6.185
 6073POPC   C2B76604  15.464  40.921   6.602
 6073POPC   C3B76605  15.514  40.755   7.011
 6073POPC   C4B76606  15.628  40.973   7.382
 6074POPC   NC376607  39.558   0.111   5.638
 6074POPC   PO476608  39.154   0.581   5.411
 6074POPC   GL176609  39.126   0.417   5.815
 6074POPC   GL276610  39.129   0.729   5.994
 6074POPC   C1A76611  39.001   0.229   6.227
 6074POPC   D2A76612  39.127   0.346   6.623
 6074POPC   C3A76613  38.907   0.423   6.973
 6074POPC   C4A76614  38.780   0.200   7.309
 6074POPC   C1B76615  39.444   0.492   6.234
 6074POPC   C2B76616  39.708   0.578   6.587
 6074POPC   C3B76617  39.492   0.498   6.954
 6074POPC   C4B76618  39.274   0.586   7.289
 6075POPC   NC376619  32.863  41.226   5.611
 6075POPC   PO476620  32.828  41.949   5.596
 6075POPC   GL176621  33.026  41.648   5.834
 6075POPC   GL276622  32.710  41.502   6.013
 6075POPC   C1A76623  33.181  41.405   6.171
 6075POPC   D2A76624  33.035  41.428   6.573
 6075POPC   C3A76625  33.143  41.142   6.891
 6075POPC   C4A76626  33.149  41.556   7.086
 6075POPC   C1B76627  32.622  41.221   6.379
 6075POPC   C2B76628  32.620  41.253   6.850
 6075POPC   C3B76629  32.632  41.579   7.189
 6075POPC   C4B76630  32.948  41.588   7.539
 6076POPC   NC376631   1.519  13.516   5.402
 6076POPC   PO476632   1.123  14.046   5.248
 6076POPC   GL176633   1.180  13.722   5.673
 6076POPC   GL276634   1.017  13.428   5.700
 6076POPC   C1A76635   1.476  13.736   6.073
 6076POPC   D2A76636   1.617  13.549   6.485
 6076POPC   C3A76637   1.519  13.736   6.881
 6076POPC   C4A76638   1.606  13.594   7.278
 6076POPC   C1B76639   0.815  13.322   6.115
 6076POPC   C2B76640   0.960  13.289   6.534
 6076POPC   C3B76641   0.900  13.459   6.920
 6076POPC   C4B76642   1.117  13.698   7.195
 6077POPC   NC376643  31.473  43.494   5.182
 6077POPC   PO476644  31.448  42.948   5.520
 6077POPC   GL176645  31.362  43.280   5.819
 6077POPC   GL276646  31.676  43.428   5.955
 6077POPC   C1A76647  31.305  43.297   6.289
 6077POPC   D2A76648  31.551  43.179   6.672
 6077POPC   C3A76649  31.355  43.178   7.072
 6077POPC   C4A76650  30.907  43.183   7.114
 6077POPC   C1B76651  31.784  43.053   6.218
 6077POPC   C2B76652  31.888  42.767   6.539
 6077POPC   C3B76653  31.740  42.762   6.941
 6077POPC   C4B76654  31.674  42.859   7.337
 6078POPC   NC376655  26.371  17.320   5.399
 6078POPC   PO476656  25.642  17.443   5.449
 6078POPC   GL176657  25.990  17.501   5.692
 6078POPC   GL276658  25.816  17.716   5.885
 6078POPC   C1A76659  26.221  17.513   6.106
 6078POPC   D2A76660  25.999  17.685   6.476
 6078POPC   C3A76661  26.137  17.589   6.916
 6078POPC   C4A76662  25.900  17.528   7.283
 6078POPC   C1B76663  25.691  17.980   6.186
 6078POPC   C2B76664  25.523  17.935   6.584
 6078POPC   C3B76665  25.525  17.707   6.970
 6078POPC   C4B76666  25.473  17.800   7.407
 6079POPC   NC376667  18.607  22.462   5.521
 6079POPC   PO476668  17.983  22.474   5.584
 6079POPC   GL176669  18.226  22.111   5.810
 6079POPC   GL276670  18.519  22.244   5.962
 6079POPC   C1A76671  18.289  21.909   6.256
 6079POPC   D2A76672  18.121  21.893   6.658
 6079POPC   C3A76673  18.377  22.167   6.882
 6079POPC   C4A76674  18.557  22.095   7.270
 6079POPC   C1B76675  18.334  22.424   6.353
 6079POPC   C2B76676  17.961  22.392   6.582
 6079POPC   C3B76677  17.843  22.247   6.960
 6079POPC   C4B76678  18.070  22.271   7.300
 6080POPC   NC376679  15.057  11.821   5.216
 6080POPC   PO476680  15.549  12.336   5.351
 6080POPC   GL176681  15.396  12.123   5.740
 6080POPC   GL276682  15.031  12.045   5.754
 6080POPC   C1A76683  15.364  11.891   6.122
 6080POPC   D2A76684  15.228  11.891   6.557
 6080POPC   C3A76685  15.438  11.729   6.919
 6080POPC   C4A76686  15.259  11.936   7.278
 6080POPC   C1B76687  14.937  12.157   6.215
 6080POPC   C2B76688  14.789  12.301   6.640
 6080POPC   C3B76689  14.812  12.262   7.104
 6080POPC   C4B76690  14.714  11.911   7.373
 6081POPC   NC376691  40.334  19.318   5.511
 6081POPC   PO476692  39.840  18.737   5.414
 6081POPC   GL176693  40.075  18.904   5.751
 6081POPC   GL276694  39.916  19.214   5.872
 6081POPC   C1A76695  40.076  18.841   6.187
 6081POPC   D2A76696  39.863  19.052   6.516
 6081POPC   C3A76697  40.122  19.033   6.878
 6081POPC   C4A76698  40.046  19.011   7.323
 6081POPC   C1B76699  40.202  19.346   6.224
 6081POPC   C2B76700  40.120  19.500   6.660
 6081POPC   C3B76701  39.994  19.460   7.119
 6081POPC   C4B76702  40.090  19.458   7.600
 6082POPC   NC376703   7.157  31.477   5.311
 6082POPC   PO476704   7.671  31.930   5.417
 6082POPC   GL176705   7.543  31.624   5.779
 6082POPC   GL276706   7.168  31.476   5.821
 6082POPC   C1A76707   7.447  31.600   6.232
 6082POPC   D2A76708   7.585  31.419   6.609
 6082POPC   C3A76709   7.466  31.698   6.951
 6082POPC   C4A76710   7.327  31.579   7.392
 6082POPC   C1B76711   7.126  31.182   6.176
 6082POPC   C2B76712   7.222  31.067   6.608
 6082POPC   C3B76713   7.251  31.236   7.017
 6082POPC   C4B76714   7.368  31.081   7.422
 6083POPC   NC376715  20.815  22.640   5.662
 6083POPC   PO476716  21.059  23.196   5.496
 6083POPC   GL176717  20.599  23.221   5.646
 6083POPC   GL276718  20.365  22.912   5.685
 6083POPC   C1A76719  20.465  23.261   6.077
 6083POPC   D2A76720  20.655  23.027   6.433
 6083POPC   C3A76721  20.661  23.083   6.899
 6083POPC   C4A76722  20.924  22.994   7.239
 6083POPC   C1B76723  20.258  22.789   6.122
 6083POPC   C2B76724  20.223  22.769   6.582
 6083POPC   C3B76725  20.398  22.661   6.992
 6083POPC   C4B76726  20.446  22.826   7.410
 6084POPC   NC376727   4.563  43.861   5.451
 6084POPC   PO476728   5.249  43.741   5.491
 6084POPC   GL176729   5.127  43.912   5.857
 6084POPC   GL276730   5.142  44.284   5.880
 6084POPC   C1A76731   5.288  43.925   6.253
 6084POPC   D2A76732   4.994  43.775   6.531
 6084POPC   C3A76733   5.069  43.903   6.936
 6084POPC   C4A76734   5.111  43.691   7.319
 6084POPC   C1B76735   4.858  44.211   6.228
 6084POPC   C2B76736   4.737  44.301   6.666
 6084POPC   C3B76737   4.820  44.303   7.127
 6084POPC   C4B76738   5.185  44.435   7.384
 6085POPC   NC376739   5.991   1.151   5.447
 6085POPC   PO476740   5.472   0.646   5.553
 6085POPC   GL176741   5.830   0.802   5.770
 6085POPC   GL276742   5.808   1.181   5.904
 6085POPC   C1A76743   5.992   0.808   6.155
 6085POPC   D2A76744   5.794   1.024   6.489
 6085POPC   C3A76745   5.978   1.047   6.889
 6085POPC   C4A76746   6.021   0.833   7.286
 6085POPC   C1B76747   5.675   1.457   6.233
 6085POPC   C2B76748   5.785   1.576   6.662
 6085POPC   C3B76749   5.632   1.602   7.075
 6085POPC   C4B76750   5.787   1.298   7.326
 6086POPC   NC376751  27.642  19.521   5.543
 6086POPC   PO476752  27.599  20.113   5.307
 6086POPC   GL176753  27.470  19.963   5.758
 6086POPC   GL276754  27.384  19.640   5.963
 6086POPC   C1A76755  27.644  20.006   6.201
 6086POPC   D2A76756  27.886  19.947   6.576
 6086POPC   C3A76757  27.614  20.098   6.871
 6086POPC   C4A76758  27.514  20.054   7.283
 6086POPC   C1B76759  27.665  19.429   6.191
 6086POPC   C2B76760  27.499  19.398   6.565
 6086POPC   C3B76761  27.513  19.592   6.947
 6086POPC   C4B76762  27.679  19.460   7.281
 6087POPC   NC376763  40.863  44.263   5.364
 6087POPC   PO476764  40.606  43.602   5.223
 6087POPC   GL176765  40.683  43.824   5.621
 6087POPC   GL276766  40.491  43.613   5.815
 6087POPC   C1A76767  40.863  43.930   6.053
 6087POPC   D2A76768  41.046  43.788   6.460
 6087POPC   C3A76769  40.955  43.954   6.893
 6087POPC   C4A76770  40.784  44.112   7.283
 6087POPC   C1B76771  40.379  43.820   6.193
 6087POPC   C2B76772  40.558  43.949   6.544
 6087POPC   C3B76773  40.420  43.930   6.940
 6087POPC   C4B76774  40.397  43.751   7.317
 6088POPC   NC376775  40.485  30.764   5.533
 6088POPC   PO476776  39.838  30.775   5.447
 6088POPC   GL176777  40.056  30.669   5.793
 6088POPC   GL276778  40.122  31.035   5.877
 6088POPC   C1A76779  40.172  30.630   6.211
 6088POPC   D2A76780  39.975  30.439   6.552
 6088POPC   C3A76781  40.017  30.631   6.928
 6088POPC   C4A76782  39.940  30.443   7.301
 6088POPC   C1B76783  39.777  30.934   6.197
 6088POPC   C2B76784  39.603  30.831   6.579
 6088POPC   C3B76785  39.407  30.990   6.925
 6088POPC   C4B76786  39.663  30.867   7.230
 6089POPC   NC376787  33.258  13.518   5.325
 6089POPC   PO476788  32.802  13.954   5.423
 6089POPC   GL176789  33.128  13.816   5.738
 6089POPC   GL276790  33.180  13.434   5.813
 6089POPC   C1A76791  33.149  13.757   6.192
 6089POPC   D2A76792  33.079  13.548   6.561
 6089POPC   C3A76793  33.076  13.806   6.945
 6089POPC   C4A76794  32.952  13.911   7.381
 6089POPC   C1B76795  33.365  13.180   6.134
 6089POPC   C2B76796  33.561  13.256   6.533
 6089POPC   C3B76797  33.354  13.308   6.906
 6089POPC   C4B76798  33.239  13.472   7.283
 6090POPC   NC376799  42.272  35.489   5.480
 6090POPC   PO476800  42.657  34.923   5.547
 6090POPC   GL176801  42.540  35.233   5.866
 6090POPC   GL276802  42.713  35.568   5.772
 6090POPC   C1A76803  42.291  35.251   6.268
 6090POPC   D2A76804  42.288  35.559   6.611
 6090POPC   C3A76805  42.131  35.537   7.039
 6090POPC   C4A76806  42.283  35.188   7.317
 6090POPC   C1B76807  42.617  35.662   6.195
 6090POPC   C2B76808  42.799  35.619   6.605
 6090POPC   C3B76809  42.658  35.592   7.034
 6090POPC   C4B76810  42.661  35.509   7.485
 6091POPC   NC376811  18.427  20.115   5.085
 6091POPC   PO476812  17.940  19.828   5.557
 6091POPC   GL176813  18.313  19.768   5.834
 6091POPC   GL276814  18.470  19.438   5.813
 6091POPC   C1A76815  18.527  19.895   6.200
 6091POPC   D2A76816  18.428  20.201   6.511
 6091POPC   C3A76817  18.464  20.086   6.955
 6091POPC   C4A76818  18.205  19.893   7.221
 6091POPC   C1B76819  18.238  19.451   6.228
 6091POPC   C2B76820  18.365  19.645   6.613
 6091POPC   C3B76821  18.524  19.561   6.998
 6091POPC   C4B76822  18.332  19.373   7.341
 6092POPC   NC376823  38.287  34.161   5.499
 6092POPC   PO476824  38.367  34.829   5.324
 6092POPC   GL176825  38.428  34.839   5.772
 6092POPC   GL276826  38.489  34.498   5.863
 6092POPC   C1A76827  38.350  34.850   6.238
 6092POPC   D2A76828  38.451  34.664   6.646
 6092POPC   C3A76829  38.338  34.809   7.069
 6092POPC   C4A76830  38.508  34.624   7.518
 6092POPC   C1B76831  38.446  34.262   6.270
 6092POPC   C2B76832  38.195  34.215   6.666
 6092POPC   C3B76833  38.248  34.318   7.084
 6092POPC   C4B76834  38.023  34.438   7.437
 6093POPC   NC376835  38.648  20.610   5.585
 6093POPC   PO476836  38.002  20.492   5.500
 6093POPC   GL176837  38.275  20.441   5.892
 6093POPC   GL276838  38.378  20.807   5.991
 6093POPC   C1A76839  38.450  20.452   6.341
 6093POPC   D2A76840  38.426  20.699   6.731
 6093POPC   C3A76841  38.556  20.491   7.111
 6093POPC   C4A76842  38.681  20.392   7.524
 6093POPC   C1B76843  38.202  21.032   6.376
 6093POPC   C2B76844  38.170  21.143   6.837
 6093POPC   C3B76845  38.356  20.962   7.211
 6093POPC   C4B76846  38.431  20.775   7.636
 6094POPC   NC376847   8.561  42.159   5.174
 6094POPC   PO476848   9.125  42.441   5.255
 6094POPC   GL176849   8.886  42.379   5.704
 6094POPC   GL276850   8.559  42.123   5.753
 6094POPC   C1A76851   8.836  42.446   6.170
 6094POPC   D2A76852   9.069  42.373   6.577
 6094POPC   C3A76853   8.935  42.352   7.004
 6094POPC   C4A76854   8.946  42.644   7.361
 6094POPC   C1B76855   8.492  41.861   6.117
 6094POPC   C2B76856   8.281  41.901   6.527
 6094POPC   C3B76857   8.463  42.142   6.872
 6094POPC   C4B76858   8.666  42.025   7.290
 6095POPC   NC376859  42.280  22.000   5.524
 6095POPC   PO476860  42.203  22.656   5.372
 6095POPC   GL176861  42.394  22.434   5.730
 6095POPC   GL276862  42.083  22.332   5.907
 6095POPC   C1A76863  42.527  22.503   6.134
 6095POPC   D2A76864  42.642  22.499   6.571
 6095POPC   C3A76865  42.336  22.309   6.833
 6095POPC   C4A76866  42.311  22.192   7.223
 6095POPC   C1B76867  42.341  22.028   6.178
 6095POPC   C2B76868  42.449  21.867   6.598
 6095POPC   C3B76869  42.209  21.750   6.967
 6095POPC   C4B76870  42.082  21.785   7.419
 6096POPC   NC376871  21.999  13.927   5.724
 6096POPC   PO476872  21.989  13.335   5.407
 6096POPC   GL176873  22.204  13.466   5.790
 6096POPC   GL276874  21.864  13.433   5.898
 6096POPC   C1A76875  22.496  13.702   6.104
 6096POPC   D2A76876  22.631  13.742   6.556
 6096POPC   C3A76877  22.313  13.784   6.896
 6096POPC   C4A76878  22.311  13.718   7.348
 6096POPC   C1B76879  22.039  13.534   6.301
 6096POPC   C2B76880  22.130  13.340   6.685
 6096POPC   C3B76881  21.986  13.383   7.122
 6096POPC   C4B76882  21.835  13.689   7.465
 6097POPC   NC376883   8.255  32.510   5.477
 6097POPC   PO476884   8.660  32.017   5.290
 6097POPC   GL176885   8.364  32.020   5.677
 6097POPC   GL276886   8.011  32.139   5.726
 6097POPC   C1A76887   8.268  31.970   6.155
 6097POPC   D2A76888   8.285  32.097   6.611
 6097POPC   C3A76889   8.412  31.842   6.967
 6097POPC   C4A76890   8.262  32.001   7.373
 6097POPC   C1B76891   8.094  32.430   6.083
 6097POPC   C2B76892   8.060  32.548   6.506
 6097POPC   C3B76893   8.122  32.499   6.932
 6097POPC   C4B76894   7.934  32.404   7.306
 6098POPC   NC376895  27.358  21.727   5.176
 6098POPC   PO476896  27.642  21.083   5.385
 6098POPC   GL176897  27.609  21.207   5.827
 6098POPC   GL276898  27.500  21.561   5.862
 6098POPC   C1A76899  27.776  21.280   6.224
 6098POPC   D2A76900  27.704  21.427   6.621
 6098POPC   C3A76901  27.829  21.213   6.979
 6098POPC   C4A76902  27.978  21.580   7.168
 6098POPC   C1B76903  27.469  21.767   6.282
 6098POPC   C2B76904  27.467  21.871   6.729
 6098POPC   C3B76905  27.462  21.598   7.086
 6098POPC   C4B76906  27.353  21.163   7.167
 6099POPC   NC376907  34.803  16.406   5.729
 6099POPC   PO476908  34.506  16.943   5.460
 6099POPC   GL176909  34.440  16.777   5.843
 6099POPC   GL276910  34.313  16.468   5.817
 6099POPC   C1A76911  34.703  16.837   6.211
 6099POPC   D2A76912  34.880  16.958   6.576
 6099POPC   C3A76913  34.600  16.936   6.927
 6099POPC   C4A76914  34.634  16.691   7.249
 6099POPC   C1B76915  34.450  16.409   6.258
 6099POPC   C2B76916  34.687  16.465   6.642
 6099POPC   C3B76917  34.433  16.316   6.972
 6099POPC   C4B76918  34.438  16.239   7.407
 6100POPC   NC376919  34.993  29.342   5.409
 6100POPC   PO476920  35.483  28.877   5.235
 6100POPC   GL176921  35.467  29.268   5.581
 6100POPC   GL276922  35.287  29.117   5.781
 6100POPC   C1A76923  35.477  29.485   6.058
 6100POPC   D2A76924  35.609  29.339   6.495
 6100POPC   C3A76925  35.433  29.335   6.927
 6100POPC   C4A76926  35.672  29.367   7.305
 6100POPC   C1B76927  35.310  29.008   6.217
 6100POPC   C2B76928  35.536  28.792   6.509
 6100POPC   C3B76929  35.567  28.823   6.939
 6100POPC   C4B76930  35.357  28.969   7.327
 6101POPC   NC376931  17.799  15.094   5.503
 6101POPC   PO476932  17.173  15.225   5.284
 6101POPC   GL176933  17.347  15.190   5.769
 6101POPC   GL276934  17.648  15.367   5.888
 6101POPC   C1A76935  17.411  15.162   6.269
 6101POPC   D2A76936  17.193  15.196   6.668
 6101POPC   C3A76937  17.395  15.294   7.060
 6101POPC   C4A76938  17.289  15.214   7.486
 6101POPC   C1B76939  17.770  15.563   6.231
 6101POPC   C2B76940  17.648  15.467   6.652
 6101POPC   C3B76941  17.748  15.647   7.051
 6101POPC   C4B76942  18.103  15.532   7.200
 6102POPC   NC376943  29.022   3.768   5.401
 6102POPC   PO476944  29.569   3.349   5.334
 6102POPC   GL176945  29.280   3.470   5.710
 6102POPC   GL276946  29.069   3.226   5.801
 6102POPC   C1A76947  29.043   3.669   6.086
 6102POPC   D2A76948  28.971   3.561   6.529
 6102POPC   C3A76949  29.107   3.644   6.967
 6102POPC   C4A76950  28.833   3.668   7.358
 6102POPC   C1B76951  29.223   3.181   6.181
 6102POPC   C2B76952  29.066   3.033   6.561
 6102POPC   C3B76953  29.246   3.070   6.955
 6102POPC   C4B76954  29.163   3.259   7.313
 6103POPC   NC376955  28.105  25.489   5.469
 6103POPC   PO476956  28.349  26.178   5.552
 6103POPC   GL176957  28.111  26.238   5.883
 6103POPC   GL276958  28.002  25.909   5.886
 6103POPC   C1A76959  28.274  26.316   6.261
 6103POPC   D2A76960  28.572  26.172   6.528
 6103POPC   C3A76961  28.354  26.169   6.905
 6103POPC   C4A76962  28.079  26.233   7.242
 6103POPC   C1B76963  28.344  25.798   6.148
 6103POPC   C2B76964  28.377  25.711   6.572
 6103POPC   C3B76965  28.184  25.674   6.936
 6103POPC   C4B76966  28.323  25.777   7.315
 6104POPC   NC376967  19.530  14.665   5.529
 6104POPC   PO476968  20.206  14.676   5.466
 6104POPC   GL176969  20.040  14.533   5.871
 6104POPC   GL276970  19.691  14.480   5.974
 6104POPC   C1A76971  20.042  14.716   6.286
 6104POPC   D2A76972  19.842  14.601   6.677
 6104POPC   C3A76973  19.966  14.753   7.056
 6104POPC   C4A76974  20.126  14.515   7.394
 6104POPC   C1B76975  19.762  14.214   6.343
 6104POPC   C2B76976  19.947  13.968   6.708
 6104POPC   C3B76977  19.981  14.037   7.153
 6104POPC   C4B76978  19.673  14.363   7.191
 6105POPC   NC376979  39.973  15.429   5.712
 6105POPC   PO476980  40.001  14.852   5.329
 6105POPC   GL176981  40.247  14.942   5.731
 6105POPC   GL276982  40.500  15.207   5.740
 6105POPC   C1A76983  40.183  15.024   6.202
 6105POPC   D2A76984  39.828  15.178   6.497
 6105POPC   C3A76985  39.841  15.021   6.920
 6105POPC   C4A76986  40.117  15.033   7.257
 6105POPC   C1B76987  40.495  15.468   6.133
 6105POPC   C2B76988  40.240  15.509   6.524
 6105POPC   C3B76989  40.070  15.489   6.945
 6105POPC   C4B76990  40.354  15.508   7.292
 6106POPC   NC376991  16.063   2.989   5.391
 6106POPC   PO476992  15.815   2.411   5.515
 6106POPC   GL176993  15.962   2.690   5.841
 6106POPC   GL276994  15.834   3.009   5.873
 6106POPC   C1A76995  16.108   2.617   6.289
 6106POPC   D2A76996  15.901   2.366   6.634
 6106POPC   C3A76997  16.020   2.484   7.060
 6106POPC   C4A76998  15.871   2.851   7.267
 6106POPC   C1B76999  16.297   3.026   6.043
 6106POPC   C2B77000  16.396   3.126   6.475
 6106POPC   C3B77001  16.206   3.098   6.895
 6106POPC   C4B77002  16.381   2.839   7.233
 6107POPC   NC377003   0.670  43.466   5.399
 6107POPC   PO477004   0.311  42.938   5.540
 6107POPC   GL177005   0.451  42.837   5.921
 6107POPC   GL277006   0.538  43.170   5.962
 6107POPC   C1A77007   0.275  42.947   6.327
 6107POPC   D2A77008   0.419  43.092   6.727
 6107POPC   C3A77009   0.310  42.911   7.110
 6107POPC   C4A77010   0.513  42.673   7.452
 6107POPC   C1B77011   0.619  43.374   6.351
 6107POPC   C2B77012   0.824  43.406   6.746
 6107POPC   C3B77013   0.682  43.346   7.177
 6107POPC   C4B77014   0.702  43.578   7.586
 6108POPC   NC377015   4.532  16.320   5.514
 6108POPC   PO477016   4.171  16.917   5.485
 6108POPC   GL177017   4.391  16.721   5.822
 6108POPC   GL277018   4.122  16.542   5.948
 6108POPC   C1A77019   4.587  16.850   6.224
 6108POPC   D2A77020   4.637  17.035   6.647
 6108POPC   C3A77021   4.471  16.737   6.924
 6108POPC   C4A77022   4.150  16.508   7.155
 6108POPC   C1B77023   4.057  16.906   6.179
 6108POPC   C2B77024   4.116  16.918   6.594
 6108POPC   C3B77025   3.988  16.961   6.993
 6108POPC   C4B77026   3.836  16.827   7.382
 6109POPC   NC377027  19.997  22.497   5.425
 6109POPC   PO477028  19.564  21.964   5.332
 6109POPC   GL177029  19.639  22.269   5.707
 6109POPC   GL277030  19.991  22.252   5.854
 6109POPC   C1A77031  19.588  22.438   6.126
 6109POPC   D2A77032  19.733  22.486   6.576
 6109POPC   C3A77033  19.521  22.278   6.966
 6109POPC   C4A77034  19.557  22.396   7.422
 6109POPC   C1B77035  20.129  22.309   6.260
 6109POPC   C2B77036  20.294  22.272   6.645
 6109POPC   C3B77037  20.037  22.316   6.946
 6109POPC   C4B77038  19.962  22.091   7.255
 6110POPC   NC377039   2.392  16.767   5.448
 6110POPC   PO477040   1.744  16.546   5.387
 6110POPC   GL177041   1.961  16.698   5.768
 6110POPC   GL277042   2.006  17.057   5.823
 6110POPC   C1A77043   1.929  16.709   6.222
 6110POPC   D2A77044   1.936  17.071   6.520
 6110POPC   C3A77045   2.049  16.964   6.913
 6110POPC   C4A77046   2.131  16.630   7.179
 6110POPC   C1B77047   2.323  17.027   6.161
 6110POPC   C2B77048   2.358  16.749   6.543
 6110POPC   C3B77049   2.529  16.492   6.877
 6110POPC   C4B77050   2.626  16.732   7.259
 6111POPC   NC377051  39.553   2.701   5.349
 6111POPC   PO477052  38.990   2.986   5.366
 6111POPC   GL177053  39.219   2.825   5.737
 6111POPC   GL277054  39.360   2.531   5.794
 6111POPC   C1A77055  39.092   2.758   6.183
 6111POPC   D2A77056  39.220   2.903   6.598
 6111POPC   C3A77057  39.124   2.681   6.994
 6111POPC   C4A77058  39.047   2.850   7.428
 6111POPC   C1B77059  39.499   2.459   6.201
 6111POPC   C2B77060  39.369   2.410   6.614
 6111POPC   C3B77061  39.489   2.285   7.002
 6111POPC   C4B77062  39.691   2.426   7.370
 6112POPC   NC377063  31.126  18.976   5.265
 6112POPC   PO477064  31.817  19.124   5.327
 6112POPC   GL177065  31.509  19.041   5.630
 6112POPC   GL277066  31.673  18.939   5.908
 6112POPC   C1A77067  31.261  19.229   6.002
 6112POPC   D2A77068  31.323  19.272   6.473
 6112POPC   C3A77069  31.188  19.132   6.877
 6112POPC   C4A77070  31.389  19.174   7.280
 6112POPC   C1B77071  31.755  19.293   6.193
 6112POPC   C2B77072  31.852  19.249   6.612
 6112POPC   C3B77073  31.754  19.007   6.980
 6112POPC   C4B77074  31.940  18.913   7.379
 6113POPC   NC377075   1.824  32.764   5.544
 6113POPC   PO477076   2.396  32.939   5.170
 6113POPC   GL177077   2.318  33.035   5.649
 6113POPC   GL277078   1.994  33.217   5.738
 6113POPC   C1A77079   2.204  32.933   6.108
 6113POPC   D2A77080   2.203  33.161   6.511
 6113POPC   C3A77081   2.172  32.914   6.882
 6113POPC   C4A77082   2.205  33.148   7.285
 6113POPC   C1B77083   1.764  33.208   6.162
 6113POPC   C2B77084   1.669  33.111   6.603
 6113POPC   C3B77085   1.770  33.149   7.032
 6113POPC   C4B77086   1.758  32.747   7.248
 6114POPC   NC377087  23.137  43.770   4.976
 6114POPC   PO477088  22.872  44.283   5.425
 6114POPC   GL177089  22.825  43.929   5.735
 6114POPC   GL277090  22.547  43.704   5.755
 6114POPC   C1A77091  22.932  43.822   6.154
 6114POPC   D2A77092  23.134  43.976   6.513
 6114POPC   C3A77093  23.038  43.847   6.904
 6114POPC   C4A77094  22.890  44.116   7.238
 6114POPC   C1B77095  22.462  43.517   6.170
 6114POPC   C2B77096  22.703  43.562   6.537
 6114POPC   C3B77097  22.564  43.651   6.954
 6114POPC   C4B77098  22.789  43.628   7.321
 6115POPC   NC377099  12.490  40.352   5.652
 6115POPC   PO477100  12.026  39.905   5.564
 6115POPC   GL177101  12.121  40.034   5.927
 6115POPC   GL277102  11.994  40.391   5.855
 6115POPC   C1A77103  12.055  39.843   6.337
 6115POPC   D2A77104  12.174  39.679   6.747
 6115POPC   C3A77105  12.081  39.988   7.072
 6115POPC   C4A77106  11.958  40.110   7.504
 6115POPC   C1B77107  12.144  40.376   6.289
 6115POPC   C2B77108  11.928  40.391   6.672
 6115POPC   C3B77109  11.970  40.480   7.079
 6115POPC   C4B77110  12.326  40.426   7.330
 6116POPC   NC377111   6.498  37.645   5.320
 6116POPC   PO477112   6.857  38.156   5.483
 6116POPC   GL177113   6.819  37.797   5.831
 6116POPC   GL277114   6.488  37.631   5.836
 6116POPC   C1A77115   6.786  37.572   6.258
 6116POPC   D2A77116   6.513  37.501   6.620
 6116POPC   C3A77117   6.683  37.542   7.050
 6116POPC   C4A77118   6.795  37.423   7.482
 6116POPC   C1B77119   6.374  37.848   6.215
 6116POPC   C2B77120   6.178  37.907   6.604
 6116POPC   C3B77121   6.307  37.871   7.003
 6116POPC   C4B77122   6.502  37.863   7.403
 6117POPC   NC377123   0.343  35.184   5.438
 6117POPC   PO477124   0.549  35.839   5.459
 6117POPC   GL177125   0.493  35.517   5.798
 6117POPC   GL277126   0.637  35.156   5.835
 6117POPC   C1A77127   0.374  35.447   6.211
 6117POPC   D2A77128   0.208  35.684   6.533
 6117POPC   C3A77129   0.502  35.641   6.850
 6117POPC   C4A77130   0.488  35.702   7.252
 6117POPC   C1B77131   0.761  35.119   6.256
 6117POPC   C2B77132   0.591  35.194   6.648
 6117POPC   C3B77133   0.432  35.190   7.078
 6117POPC   C4B77134   0.365  35.309   7.531
 6118POPC   NC377135  39.658  10.052   5.436
 6118POPC   PO477136  39.960   9.532   5.371
 6118POPC   GL177137  40.168   9.739   5.711
 6118POPC   GL277138  39.899   9.893   5.871
 6118POPC   C1A77139  40.257   9.680   6.162
 6118POPC   D2A77140  40.285   9.850   6.575
 6118POPC   C3A77141  40.197   9.687   6.969
 6118POPC   C4A77142  40.187   9.966   7.300
 6118POPC   C1B77143  39.867  10.065   6.306
 6118POPC   C2B77144  39.856  10.062   6.802
 6118POPC   C3B77145  39.692   9.852   7.205
 6118POPC   C4B77146  39.492   9.900   7.634
 6119POPC   NC377147  21.717  37.066   5.498
 6119POPC   PO477148  21.520  36.491   5.817
 6119POPC   GL177149  21.495  36.894   5.939
 6119POPC   GL277150  21.334  37.202   5.795
 6119POPC   C1A77151  21.609  36.870   6.346
 6119POPC   D2A77152  21.452  36.781   6.706
 6119POPC   C3A77153  21.691  36.975   6.961
 6119POPC   C4A77154  21.452  37.027   7.298
 6119POPC   C1B77155  21.247  37.262   6.237
 6119POPC   C2B77156  21.027  37.114   6.602
 6119POPC   C3B77157  21.025  37.126   7.027
 6119POPC   C4B77158  21.114  37.451   7.295
 6120POPC   NC377159  36.581  31.569   5.409
 6120POPC   PO477160  35.882  31.541   5.403
 6120POPC   GL177161  36.137  31.458   5.780
 6120POPC   GL277162  36.052  31.724   6.021
 6120POPC   C1A77163  36.302  31.329   6.213
 6120POPC   D2A77164  36.167  31.664   6.525
 6120POPC   C3A77165  36.043  31.538   6.948
 6120POPC   C4A77166  36.093  31.258   7.281
 6120POPC   C1B77167  35.804  31.374   6.222
 6120POPC   C2B77168  35.928  31.154   6.594
 6120POPC   C3B77169  35.690  31.157   6.968
 6120POPC   C4B77170  35.595  31.433   7.302
 6121POPC   NC377171  28.693  22.727   5.116
 6121POPC   PO477172  29.243  22.879   5.473
 6121POPC   GL177173  29.138  23.006   5.855
 6121POPC   GL277174  29.422  23.227   5.842
 6121POPC   C1A77175  29.060  22.754   6.234
 6121POPC   D2A77176  29.353  22.629   6.561
 6121POPC   C3A77177  29.195  22.802   6.933
 6121POPC   C4A77178  28.872  22.743   7.213
 6121POPC   C1B77179  29.473  23.074   6.258
 6121POPC   C2B77180  29.519  23.337   6.615
 6121POPC   C3B77181  29.629  23.406   7.041
 6121POPC   C4B77182  29.395  23.121   7.292
 6122POPC   NC377183  40.385   9.364   5.401
 6122POPC   PO477184  40.877   9.872   5.403
 6122POPC   GL177185  40.693   9.771   5.814
 6122POPC   GL277186  40.714   9.404   5.832
 6122POPC   C1A77187  40.719   9.867   6.272
 6122POPC   D2A77188  40.683  10.154   6.596
 6122POPC   C3A77189  40.649   9.960   7.009
 6122POPC   C4A77190  40.756   9.921   7.442
 6122POPC   C1B77191  40.789   9.355   6.288
 6122POPC   C2B77192  40.674   9.509   6.712
 6122POPC   C3B77193  40.694   9.471   7.163
 6122POPC   C4B77194  40.391   9.539   7.454
 6123POPC   NC377195  41.352   4.922   5.333
 6123POPC   PO477196  41.927   5.144   5.476
 6123POPC   GL177197  41.607   4.988   5.785
 6123POPC   GL277198  41.279   5.146   5.805
 6123POPC   C1A77199  41.515   5.005   6.230
 6123POPC   D2A77200  41.585   4.867   6.629
 6123POPC   C3A77201  41.829   5.131   6.874
 6123POPC   C4A77202  41.896   5.161   7.291
 6123POPC   C1B77203  41.159   5.381   6.211
 6123POPC   C2B77204  41.192   5.370   6.661
 6123POPC   C3B77205  41.195   5.106   7.014
 6123POPC   C4B77206  41.488   4.792   7.130
 6124POPC   NC377207   4.994  16.943   5.375
 6124POPC   PO477208   4.964  16.241   5.360
 6124POPC   GL177209   5.032  16.536   5.720
 6124POPC   GL277210   5.349  16.750   5.698
 6124POPC   C1A77211   5.274  16.472   6.136
 6124POPC   D2A77212   5.221  16.398   6.581
 6124POPC   C3A77213   5.014  16.517   6.950
 6124POPC   C4A77214   5.331  16.614   7.228
 6124POPC   C1B77215   5.085  16.929   6.034
 6124POPC   C2B77216   5.095  16.888   6.457
 6124POPC   C3B77217   5.159  16.995   6.875
 6124POPC   C4B77218   4.851  16.988   7.167
 6125POPC   NC377219   2.702  36.306   5.536
 6125POPC   PO477220   2.593  35.650   5.575
 6125POPC   GL177221   2.639  35.918   5.895
 6125POPC   GL277222   3.011  35.991   5.886
 6125POPC   C1A77223   2.662  35.842   6.329
 6125POPC   D2A77224   2.951  35.987   6.624
 6125POPC   C3A77225   2.913  35.832   7.022
 6125POPC   C4A77226   2.643  35.968   7.331
 6125POPC   C1B77227   3.025  36.326   6.219
 6125POPC   C2B77228   3.236  36.398   6.618
 6125POPC   C3B77229   3.188  36.484   7.023
 6125POPC   C4B77230   3.072  36.240   7.371
 6126POPC   NC377231  24.615   5.384   5.616
 6126POPC   PO477232  24.173   5.807   5.367
 6126POPC   GL177233  24.244   5.716   5.823
 6126POPC   GL277234  24.565   5.874   5.896
 6126POPC   C1A77235  24.230   5.862   6.273
 6126POPC   D2A77236  24.575   6.016   6.520
 6126POPC   C3A77237  24.509   6.061   6.952
 6126POPC   C4A77238  24.330   5.822   7.302
 6126POPC   C1B77239  24.648   5.555   6.260
 6126POPC   C2B77240  24.755   5.547   6.720
 6126POPC   C3B77241  24.644   5.428   7.138
 6126POPC   C4B77242  24.600   5.486   7.601
 6127POPC   NC377243   1.903  30.967   5.538
 6127POPC   PO477244   1.940  30.505   5.003
 6127POPC   GL177245   2.032  30.445   5.536
 6127POPC   GL277246   2.355  30.545   5.737
 6127POPC   C1A77247   1.900  30.534   6.027
 6127POPC   D2A77248   1.978  30.608   6.480
 6127POPC   C3A77249   1.738  30.768   6.819
 6127POPC   C4A77250   1.844  30.887   7.255
 6127POPC   C1B77251   2.342  30.770   6.169
 6127POPC   C2B77252   2.519  30.681   6.575
 6127POPC   C3B77253   2.271  30.679   6.950
 6127POPC   C4B77254   2.342  30.958   7.296
 6128POPC   NC377255  16.525  30.390   5.497
 6128POPC   PO477256  17.007  30.812   5.421
 6128POPC   GL177257  16.769  31.027   5.769
 6128POPC   GL277258  16.387  30.966   5.754
 6128POPC   C1A77259  16.614  31.097   6.185
 6128POPC   D2A77260  16.533  30.844   6.542
 6128POPC   C3A77261  16.690  30.918   6.934
 6128POPC   C4A77262  16.754  30.665   7.222
 6128POPC   C1B77263  16.397  30.622   6.099
 6128POPC   C2B77264  16.534  30.335   6.473
 6128POPC   C3B77265  16.367  30.351   6.912
 6128POPC   C4B77266  16.300  30.433   7.341
 6129POPC   NC377267  21.637  38.773   5.434
 6129POPC   PO477268  21.260  38.167   5.387
 6129POPC   GL177269  21.300  38.482   5.747
 6129POPC   GL277270  20.999  38.690   5.775
 6129POPC   C1A77271  21.633  38.528   6.103
 6129POPC   D2A77272  21.802  38.204   6.401
 6129POPC   C3A77273  21.767  38.287   6.858
 6129POPC   C4A77274  21.688  38.661   7.062
 6129POPC   C1B77275  21.174  38.748   6.199
 6129POPC   C2B77276  21.360  38.604   6.624
 6129POPC   C3B77277  21.205  38.426   7.054
 6129POPC   C4B77278  21.069  38.420   7.514
 6130POPC   NC377279  17.050  25.696   5.449
 6130POPC   PO477280  16.456  26.083   5.550
 6130POPC   GL177281  16.796  26.105   5.898
 6130POPC   GL277282  17.087  25.843   5.930
 6130POPC   C1A77283  16.656  26.173   6.329
 6130POPC   D2A77284  16.588  25.959   6.719
 6130POPC   C3A77285  16.503  26.096   7.120
 6130POPC   C4A77286  16.714  26.084   7.558
 6130POPC   C1B77287  17.111  25.918   6.345
 6130POPC   C2B77288  17.040  26.193   6.681
 6130POPC   C3B77289  17.008  26.102   7.105
 6130POPC   C4B77290  17.111  26.355   7.450
 6131POPC   NC377291  26.677  22.982   5.491
 6131POPC   PO477292  27.366  23.141   5.512
 6131POPC   GL177293  27.047  23.012   5.892
 6131POPC   GL277294  26.745  22.764   5.954
 6131POPC   C1A77295  26.933  22.956   6.373
 6131POPC   D2A77296  26.653  22.878   6.752
 6131POPC   C3A77297  26.765  23.163   7.100
 6131POPC   C4A77298  27.171  23.359   7.152
 6131POPC   C1B77299  26.504  23.082   6.167
 6131POPC   C2B77300  26.507  23.332   6.532
 6131POPC   C3B77301  26.322  23.358   6.930
 6131POPC   C4B77302  26.253  23.044   7.256
 6132POPC   NC377303  34.066   7.701   5.504
 6132POPC   PO477304  34.750   7.789   5.589
 6132POPC   GL177305  34.599   8.040   5.920
 6132POPC   GL277306  34.224   8.000   5.893
 6132POPC   C1A77307  34.566   8.204   6.350
 6132POPC   D2A77308  34.592   8.605   6.597
 6132POPC   C3A77309  34.702   8.517   7.036
 6132POPC   C4A77310  34.836   8.086   7.180
 6132POPC   C1B77311  34.072   8.072   6.305
 6132POPC   C2B77312  34.198   8.301   6.713
 6132POPC   C3B77313  34.335   8.114   7.113
 6132POPC   C4B77314  34.110   7.995   7.496
 6133POPC   NC377315  24.139  30.745   5.448
 6133POPC   PO477316  23.514  30.581   5.443
 6133POPC   GL177317  23.524  30.652   5.878
 6133POPC   GL277318  23.879  30.731   5.880
 6133POPC   C1A77319  23.652  30.611   6.318
 6133POPC   D2A77320  23.474  30.623   6.697
 6133POPC   C3A77321  23.782  30.559   7.016
 6133POPC   C4A77322  23.887  30.694   7.438
 6133POPC   C1B77323  24.142  30.801   6.234
 6133POPC   C2B77324  24.028  30.757   6.625
 6133POPC   C3B77325  24.010  31.008   6.953
 6133POPC   C4B77326  24.145  31.127   7.293
 6134POPC   NC377327  23.986  21.861   5.655
 6134POPC   PO477328  23.406  22.266   5.466
 6134POPC   GL177329  23.647  22.208   5.886
 6134POPC   GL277330  23.942  22.410   5.940
 6134POPC   C1A77331  23.615  22.005   6.295
 6134POPC   D2A77332  23.913  21.894   6.655
 6134POPC   C3A77333  23.755  21.970   7.055
 6134POPC   C4A77334  23.411  22.106   7.312
 6134POPC   C1B77335  24.012  22.304   6.330
 6134POPC   C2B77336  23.734  22.377   6.682
 6134POPC   C3B77337  23.720  22.480   7.109
 6134POPC   C4B77338  23.914  22.265   7.493
 6135POPC   NC377339  42.592   3.934   5.464
 6135POPC   PO477340  41.980   3.667   5.403
 6135POPC   GL177341  42.274   3.653   5.815
 6135POPC   GL277342  42.506   3.335   5.896
 6135POPC   C1A77343  42.229   3.634   6.273
 6135POPC   D2A77344  42.057   3.379   6.598
 6135POPC   C3A77345  42.139   3.540   6.990
 6135POPC   C4A77346  42.161   3.440   7.415
 6135POPC   C1B77347  42.718   3.566   6.230
 6135POPC   C2B77348  42.606   3.531   6.691
 6135POPC   C3B77349  42.634   3.449   7.153
 6135POPC   C4B77350  42.630   3.686   7.534
 6136POPC   NC377351   3.428  15.031   4.802
 6136POPC   PO477352   3.288  14.928   5.581
 6136POPC   GL177353   3.585  14.967   5.884
 6136POPC   GL277354   3.897  15.152   5.833
 6136POPC   C1A77355   3.547  15.144   6.284
 6136POPC   D2A77356   3.536  15.548   6.524
 6136POPC   C3A77357   3.309  15.430   6.908
 6136POPC   C4A77358   3.196  15.026   7.143
 6136POPC   C1B77359   4.011  15.360   6.233
 6136POPC   C2B77360   3.922  15.203   6.647
 6136POPC   C3B77361   3.749  15.155   7.042
 6136POPC   C4B77362   3.668  14.853   7.332
 6137POPC   NC377363  15.728  32.475   5.440
 6137POPC   PO477364  16.353  32.510   5.415
 6137POPC   GL177365  16.086  32.349   5.786
 6137POPC   GL277366  15.828  32.589   5.922
 6137POPC   C1A77367  15.919  32.177   6.196
 6137POPC   D2A77368  16.059  32.131   6.626
 6137POPC   C3A77369  15.803  32.112   7.000
 6137POPC   C4A77370  15.783  32.461   7.275
 6137POPC   C1B77371  16.227  32.679   6.158
 6137POPC   C2B77372  16.420  32.569   6.560
 6137POPC   C3B77373  16.213  32.549   6.965
 6137POPC   C4B77374  16.269  32.449   7.383
 6138POPC   NC377375  44.616  26.954   5.236
 6138POPC   PO477376  44.581  27.662   5.371
 6138POPC   GL177377  44.748  27.597   5.792
 6138POPC   GL277378   0.030  27.345   5.844
 6138POPC   C1A77379  44.545  27.578   6.180
 6138POPC   D2A77380  44.357  27.328   6.520
 6138POPC   C3A77381  44.495  27.516   6.921
 6138POPC   C4A77382  44.363  27.754   7.270
 6138POPC   C1B77383   0.111  27.687   6.141
 6138POPC   C2B77384  44.898  27.753   6.523
 6138POPC   C3B77385   0.009  27.622   6.921
 6138POPC   C4B77386  44.840  27.582   7.315
 6139POPC   NC377387  19.429  13.671   5.468
 6139POPC   PO477388  18.762  13.361   5.462
 6139POPC   GL177389  18.896  13.551   5.848
 6139POPC   GL277390  19.207  13.428   5.870
 6139POPC   C1A77391  19.042  13.709   6.268
 6139POPC   D2A77392  19.042  13.956   6.655
 6139POPC   C3A77393  18.972  13.693   7.018
 6139POPC   C4A77394  18.910  13.319   7.354
 6139POPC   C1B77395  19.271  13.240   6.275
 6139POPC   C2B77396  19.121  13.319   6.672
 6139POPC   C3B77397  19.339  13.344   7.048
 6139POPC   C4B77398  19.410  13.339   7.446
 6140POPC   NC377399  26.980  37.086   5.572
 6140POPC   PO477400  26.812  37.689   5.392
 6140POPC   GL177401  27.041  37.634   5.758
 6140POPC   GL277402  26.847  37.394   5.935
 6140POPC   C1A77403  27.041  37.787   6.189
 6140POPC   D2A77404  27.213  37.941   6.571
 6140POPC   C3A77405  27.016  37.866   6.948
 6140POPC   C4A77406  26.909  37.512   7.230
 6140POPC   C1B77407  26.995  37.295   6.350
 6140POPC   C2B77408  26.783  37.476   6.724
 6140POPC   C3B77409  26.437  37.550   7.038
 6140POPC   C4B77410  26.459  37.484   7.529
 6141POPC   NC377411  43.431  11.989   5.183
 6141POPC   PO477412  43.200  12.567   5.454
 6141POPC   GL177413  43.044  12.222   5.710
 6141POPC   GL277414  42.732  12.049   5.635
 6141POPC   C1A77415  43.204  12.048   6.096
 6141POPC   D2A77416  43.340  12.118   6.549
 6141POPC   C3A77417  43.170  11.901   6.940
 6141POPC   C4A77418  43.344  11.846   7.386
 6141POPC   C1B77419  42.664  12.065   6.058
 6141POPC   C2B77420  42.842  12.078   6.455
 6141POPC   C3B77421  42.661  12.032   6.837
 6141POPC   C4B77422  42.662  12.099   7.237
 6142POPC   NC377423  33.917   6.294   5.398
 6142POPC   PO477424  33.520   6.793   5.240
 6142POPC   GL177425  33.649   6.732   5.687
 6142POPC   GL277426  33.990   6.684   5.738
 6142POPC   C1A77427  33.667   6.565   6.142
 6142POPC   D2A77428  33.623   6.325   6.575
 6142POPC   C3A77429  33.870   6.474   6.921
 6142POPC   C4A77430  33.700   6.728   7.255
 6142POPC   C1B77431  34.201   6.864   6.083
 6142POPC   C2B77432  34.045   6.717   6.501
 6142POPC   C3B77433  34.037   6.940   6.911
 6142POPC   C4B77434  34.083   7.103   7.339
 6143POPC   NC377435  36.675  22.945   5.519
 6143POPC   PO477436  37.307  23.034   5.291
 6143POPC   GL177437  37.218  22.823   5.748
 6143POPC   GL277438  36.871  22.861   5.971
 6143POPC   C1A77439  37.279  22.761   6.230
 6143POPC   D2A77440  37.035  22.711   6.616
 6143POPC   C3A77441  37.182  22.894   6.992
 6143POPC   C4A77442  36.960  22.742   7.323
 6143POPC   C1B77443  36.610  23.208   6.205
 6143POPC   C2B77444  36.450  23.178   6.616
 6143POPC   C3B77445  36.657  23.002   6.988
 6143POPC   C4B77446  36.859  23.237   7.286
 6144POPC   NC377447   4.890  21.003   5.557
 6144POPC   PO477448   5.007  20.329   5.537
 6144POPC   GL177449   5.115  20.579   5.851
 6144POPC   GL277450   4.827  20.740   5.981
 6144POPC   C1A77451   5.271  20.599   6.270
 6144POPC   D2A77452   5.235  20.500   6.694
 6144POPC   C3A77453   5.274  20.772   7.048
 6144POPC   C4A77454   5.408  20.678   7.493
 6144POPC   C1B77455   4.773  20.362   6.184
 6144POPC   C2B77456   4.743  20.448   6.636
 6144POPC   C3B77457   4.885  20.370   7.072
 6144POPC   C4B77458   4.635  20.324   7.421
 6145POPC   NC377459  11.030  35.850   5.561
 6145POPC   PO477460  11.354  35.306   5.441
 6145POPC   GL177461  11.177  35.252   5.843
 6145POPC   GL277462  10.926  34.977   5.845
 6145POPC   C1A77463  11.283  35.444   6.261
 6145POPC   D2A77464  11.469  35.558   6.676
 6145POPC   C3A77465  11.351  35.518   7.139
 6145POPC   C4A77466  11.449  35.651   7.615
 6145POPC   C1B77467  11.104  34.951   6.248
 6145POPC   C2B77468  11.122  35.159   6.664
 6145POPC   C3B77469  11.085  35.040   7.088
 6145POPC   C4B77470  10.823  34.861   7.430
 6146POPC   NC377471  41.786  26.271   5.421
 6146POPC   PO477472  41.197  25.999   5.395
 6146POPC   GL177473  41.462  25.863   5.751
 6146POPC   GL277474  41.522  26.189   5.873
 6146POPC   C1A77475  41.448  25.826   6.230
 6146POPC   D2A77476  41.583  25.637   6.631
 6146POPC   C3A77477  41.512  25.845   7.011
 6146POPC   C4A77478  41.267  26.180   7.075
 6146POPC   C1B77479  41.732  26.413   6.238
 6146POPC   C2B77480  41.820  26.382   6.686
 6146POPC   C3B77481  41.769  26.263   7.123
 6146POPC   C4B77482  41.860  26.394   7.533
 6147POPC   NC377483  41.691  42.577   5.500
 6147POPC   PO477484  41.003  42.312   5.581
 6147POPC   GL177485  41.298  42.074   5.888
 6147POPC   GL277486  41.662  42.087   5.883
 6147POPC   C1A77487  41.471  42.098   6.348
 6147POPC   D2A77488  41.711  42.058   6.728
 6147POPC   C3A77489  41.425  41.940   7.048
 6147POPC   C4A77490  41.280  42.229   7.389
 6147POPC   C1B77491  41.738  42.476   6.147
 6147POPC   C2B77492  41.769  42.549   6.594
 6147POPC   C3B77493  41.519  42.516   6.972
 6147POPC   C4B77494  41.593  42.642   7.395
 6148POPC   NC377495  20.706  11.671   5.300
 6148POPC   PO477496  20.629  10.958   5.451
 6148POPC   GL177497  20.634  11.167   5.827
 6148POPC   GL277498  20.839  11.448   5.800
 6148POPC   C1A77499  20.464  11.320   6.222
 6148POPC   D2A77500  20.657  11.215   6.596
 6148POPC   C3A77501  20.471  11.045   6.984
 6148POPC   C4A77502  20.152  10.998   7.292
 6148POPC   C1B77503  20.980  11.636   6.207
 6148POPC   C2B77504  20.811  11.698   6.638
 6148POPC   C3B77505  20.642  11.543   7.029
 6148POPC   C4B77506  20.942  11.500   7.328
 6149POPC   NC377507  10.236   4.955   5.406
 6149POPC   PO477508  10.530   5.486   5.390
 6149POPC   GL177509  10.493   5.199   5.796
 6149POPC   GL277510  10.346   4.818   5.877
 6149POPC   C1A77511  10.618   5.122   6.224
 6149POPC   D2A77512  10.964   5.219   6.523
 6149POPC   C3A77513  11.007   5.167   6.964
 6149POPC   C4A77514  10.738   5.210   7.314
 6149POPC   C1B77515  10.383   4.679   6.312
 6149POPC   C2B77516  10.711   4.758   6.603
 6149POPC   C3B77517  10.615   4.827   7.015
 6149POPC   C4B77518  10.562   4.742   7.451
 6150POPC   NC377519   8.606   0.403   5.204
 6150POPC   PO477520   8.945  44.934   5.514
 6150POPC   GL177521   9.071   0.074   5.891
 6150POPC   GL277522   8.988   0.452   5.876
 6150POPC   C1A77523   9.237   0.241   6.256
 6150POPC   D2A77524   9.100   0.526   6.545
 6150POPC   C3A77525   9.138   0.400   6.966
 6150POPC   C4A77526   9.106   0.214   7.373
 6150POPC   C1B77527   8.642   0.688   6.106
 6150POPC   C2B77528   8.701   0.850   6.519
 6150POPC   C3B77529   8.567   0.898   6.961
 6150POPC   C4B77530   8.822   0.648   7.268
 6151POPC   NC377531  11.432  15.124   5.391
 6151POPC   PO477532  11.018  15.521   5.666
 6151POPC   GL177533  11.377  15.271   5.870
 6151POPC   GL277534  11.136  15.040   5.906
 6151POPC   C1A77535  11.479  14.921   6.239
 6151POPC   D2A77536  11.280  14.770   6.664
 6151POPC   C3A77537  11.325  14.958   7.075
 6151POPC   C4A77538  11.586  15.393   7.124
 6151POPC   C1B77539  11.167  15.322   6.306
 6151POPC   C2B77540  11.257  15.333   6.736
 6151POPC   C3B77541  11.060  15.372   7.168
 6151POPC   C4B77542  10.927  15.325   7.597
 6152POPC   NC377543   8.918  24.159   5.416
 6152POPC   PO477544   9.265  24.758   5.382
 6152POPC   GL177545   9.115  24.566   5.764
 6152POPC   GL277546   9.237  24.207   5.830
 6152POPC   C1A77547   9.051  24.680   6.182
 6152POPC   D2A77548   9.318  24.529   6.495
 6152POPC   C3A77549   9.209  24.614   6.930
 6152POPC   C4A77550   8.872  24.799   7.168
 6152POPC   C1B77551   8.867  24.197   6.121
 6152POPC   C2B77552   8.807  24.364   6.543
 6152POPC   C3B77553   8.802  24.219   6.965
 6152POPC   C4B77554   8.653  24.335   7.350
 6153POPC   NC377555  17.633  22.338   5.334
 6153POPC   PO477556  17.091  21.973   5.373
 6153POPC   GL177557  17.329  21.919   5.774
 6153POPC   GL277558  17.718  21.941   5.755
 6153POPC   C1A77559  17.314  22.155   6.180
 6153POPC   D2A77560  17.466  22.469   6.504
 6153POPC   C3A77561  17.342  22.453   6.923
 6153POPC   C4A77562  17.403  22.141   7.242
 6153POPC   C1B77563  17.814  22.081   6.198
 6153POPC   C2B77564  17.598  21.969   6.609
 6153POPC   C3B77565  17.650  21.752   7.036
 6153POPC   C4B77566  17.752  21.829   7.502
 6154POPC   NC377567  44.082   4.434   5.548
 6154POPC   PO477568  43.628   4.009   5.267
 6154POPC   GL177569  43.756   4.072   5.773
 6154POPC   GL277570  44.131   4.021   5.877
 6154POPC   C1A77571  43.723   3.923   6.244
 6154POPC   D2A77572  44.098   3.928   6.547
 6154POPC   C3A77573  44.048   4.052   6.990
 6154POPC   C4A77574  43.663   4.283   7.039
 6154POPC   C1B77575  44.012   4.332   6.193
 6154POPC   C2B77576  44.143   4.512   6.534
 6154POPC   C3B77577  43.968   4.697   6.850
 6154POPC   C4B77578  44.090   4.558   7.208
 6155POPC   NC377579  43.743  23.978   5.536
 6155POPC   PO477580  44.119  23.442   5.677
 6155POPC   GL177581  44.091  23.819   5.895
 6155POPC   GL277582  43.734  23.838   6.028
 6155POPC   C1A77583  44.154  23.898   6.322
 6155POPC   D2A77584  43.903  23.818   6.691
 6155POPC   C3A77585  44.122  23.708   7.074
 6155POPC   C4A77586  44.265  23.284   7.177
 6155POPC   C1B77587  43.591  23.539   6.354
 6155POPC   C2B77588  43.421  23.627   6.766
 6155POPC   C3B77589  43.605  23.832   7.125
 6155POPC   C4B77590  43.472  23.958   7.539
 6156POPC   NC377591  26.056   5.200   5.247
 6156POPC   PO477592  25.735   4.656   5.438
 6156POPC   GL177593  25.872   5.027   5.728
 6156POPC   GL277594  26.237   5.138   5.747
 6156POPC   C1A77595  25.947   5.314   6.106
 6156POPC   D2A77596  26.176   5.274   6.514
 6156POPC   C3A77597  26.016   5.436   6.895
 6156POPC   C4A77598  25.869   5.286   7.301
 6156POPC   C1B77599  26.260   4.909   6.160
 6156POPC   C2B77600  26.284   4.770   6.591
 6156POPC   C3B77601  26.123   4.938   6.979
 6156POPC   C4B77602  26.148   4.884   7.413
 6157POPC   NC377603  27.847  16.376   5.500
 6157POPC   PO477604  27.285  15.888   5.473
 6157POPC   GL177605  27.527  16.082   5.804
 6157POPC   GL277606  27.854  15.926   5.757
 6157POPC   C1A77607  27.408  16.068   6.248
 6157POPC   D2A77608  27.332  16.305   6.639
 6157POPC   C3A77609  27.477  16.090   7.022
 6157POPC   C4A77610  27.839  16.200   7.312
 6157POPC   C1B77611  27.782  15.617   6.116
 6157POPC   C2B77612  27.850  15.624   6.571
 6157POPC   C3B77613  27.930  15.817   6.982
 6157POPC   C4B77614  27.667  15.733   7.361
 6158POPC   NC377615  37.042  39.807   5.137
 6158POPC   PO477616  36.781  39.306   5.542
 6158POPC   GL177617  36.962  39.046   5.817
 6158POPC   GL277618  37.035  39.299   6.027
 6158POPC   C1A77619  37.210  38.848   6.128
 6158POPC   D2A77620  37.294  39.124   6.485
 6158POPC   C3A77621  37.091  39.119   6.859
 6158POPC   C4A77622  37.220  39.125   7.276
 6158POPC   C1B77623  36.740  39.052   6.285
 6158POPC   C2B77624  36.589  39.147   6.686
 6158POPC   C3B77625  36.658  39.217   7.114
 6158POPC   C4B77626  36.778  38.987   7.469
 6159POPC   NC377627  25.223  21.634   5.360
 6159POPC   PO477628  25.265  20.991   5.338
 6159POPC   GL177629  25.266  21.252   5.720
 6159POPC   GL277630  25.589  21.395   5.756
 6159POPC   C1A77631  25.276  21.362   6.165
 6159POPC   D2A77632  25.143  21.503   6.549
 6159POPC   C3A77633  25.404  21.486   6.885
 6159POPC   C4A77634  25.230  21.409   7.265
 6159POPC   C1B77635  25.608  21.008   6.047
 6159POPC   C2B77636  25.643  21.059   6.495
 6159POPC   C3B77637  25.494  20.984   6.910
 6159POPC   C4B77638  25.639  21.125   7.307
 6160POPC   NC377639  11.299  41.586   5.274
 6160POPC   PO477640  10.850  41.864   5.637
 6160POPC   GL177641  11.268  41.815   5.781
 6160POPC   GL277642  11.393  41.459   5.845
 6160POPC   C1A77643  11.456  41.941   6.168
 6160POPC   D2A77644  11.553  41.665   6.517
 6160POPC   C3A77645  11.494  41.833   6.909
 6160POPC   C4A77646  11.425  41.776   7.327
 6160POPC   C1B77647  11.135  41.551   6.240
 6160POPC   C2B77648  11.020  41.339   6.584
 6160POPC   C3B77649  11.152  41.463   6.978
 6160POPC   C4B77650  10.917  41.217   7.242
 6161POPC   NC377651  13.308  24.211   5.402
 6161POPC   PO477652  12.696  24.414   5.246
 6161POPC   GL177653  12.886  24.420   5.717
 6161POPC   GL277654  12.973  24.781   5.913
 6161POPC   C1A77655  12.925  24.367   6.184
 6161POPC   D2A77656  13.063  24.369   6.622
 6161POPC   C3A77657  12.955  24.621   6.982
 6161POPC   C4A77658  12.857  24.239   7.229
 6161POPC   C1B77659  12.616  24.790   6.235
 6161POPC   C2B77660  12.518  24.758   6.691
 6161POPC   C3B77661  12.474  24.648   7.131
 6161POPC   C4B77662  12.479  24.834   7.528
 6162POPC   NC377663  37.097   3.068   5.398
 6162POPC   PO477664  36.873   2.404   5.222
 6162POPC   GL177665  37.012   2.565   5.633
 6162POPC   GL277666  36.738   2.730   5.793
 6162POPC   C1A77667  37.200   2.735   6.012
 6162POPC   D2A77668  37.252   2.784   6.478
 6162POPC   C3A77669  36.841   2.812   6.713
 6162POPC   C4A77670  36.635   2.853   7.126
 6162POPC   C1B77671  36.605   2.628   6.233
 6162POPC   C2B77672  36.366   2.508   6.611
 6162POPC   C3B77673  36.563   2.354   6.981
 6162POPC   C4B77674  36.690   2.427   7.412
 6163POPC   NC377675  40.909  26.359   5.490
 6163POPC   PO477676  40.606  25.704   5.433
 6163POPC   GL177677  40.637  25.991   5.786
 6163POPC   GL277678  40.991  26.022   5.878
 6163POPC   C1A77679  40.630  26.250   6.169
 6163POPC   D2A77680  40.802  26.480   6.521
 6163POPC   C3A77681  40.823  26.187   6.840
 6163POPC   C4A77682  40.595  26.028   7.175
 6163POPC   C1B77683  40.931  25.735   6.223
 6163POPC   C2B77684  41.083  25.768   6.673
 6163POPC   C3B77685  41.026  25.739   7.136
 6163POPC   C4B77686  41.193  25.593   7.529
 6164POPC   NC377687  25.491   0.571   5.558
 6164POPC   PO477688  24.966   0.067   5.423
 6164POPC   GL177689  25.072   0.255   5.837
 6164POPC   GL277690  25.148   0.605   5.949
 6164POPC   C1A77691  24.953   0.272   6.292
 6164POPC   D2A77692  25.003   0.278   6.739
 6164POPC   C3A77693  25.263   0.505   7.019
 6164POPC   C4A77694  25.217   0.535   7.483
 6164POPC   C1B77695  25.249   0.668   6.416
 6164POPC   C2B77696  25.225   0.962   6.765
 6164POPC   C3B77697  25.085   0.967   7.194
 6164POPC   C4B77698  25.109   0.994   7.637
 6165POPC   NC377699  21.820  36.184   5.628
 6165POPC   PO477700  22.477  36.307   5.487
 6165POPC   GL177701  22.398  36.333   5.907
 6165POPC   GL277702  22.246  35.986   5.912
 6165POPC   C1A77703  22.486  36.303   6.355
 6165POPC   D2A77704  22.454  35.931   6.590
 6165POPC   C3A77705  22.249  36.086   6.888
 6165POPC   C4A77706  22.458  36.153   7.274
 6165POPC   C1B77707  22.025  36.090   6.299
 6165POPC   C2B77708  21.813  36.402   6.555
 6165POPC   C3B77709  21.981  36.532   6.912
 6165POPC   C4B77710  21.965  36.281   7.268
 6166POPC   NC377711  17.443  35.519   5.409
 6166POPC   PO477712  17.868  35.858   5.782
 6166POPC   GL177713  17.605  35.497   5.908
 6166POPC   GL277714  17.262  35.327   5.853
 6166POPC   C1A77715  17.580  35.221   6.263
 6166POPC   D2A77716  17.389  35.343   6.657
 6166POPC   C3A77717  17.691  35.477   6.955
 6166POPC   C4A77718  17.801  35.104   7.176
 6166POPC   C1B77719  17.040  35.347   6.262
 6166POPC   C2B77720  17.019  35.696   6.587
 6166POPC   C3B77721  17.158  35.642   7.017
 6166POPC   C4B77722  17.282  35.229   7.171
 6167POPC   NC377723  17.454  30.747   5.393
 6167POPC   PO477724  17.840  30.302   5.636
 6167POPC   GL177725  17.581  30.572   5.898
 6167POPC   GL277726  17.261  30.785   5.865
 6167POPC   C1A77727  17.421  30.546   6.327
 6167POPC   D2A77728  17.640  30.541   6.718
 6167POPC   C3A77729  17.666  30.838   7.063
 6167POPC   C4A77730  17.646  30.647   7.481
 6167POPC   C1B77731  16.933  30.680   6.183
 6167POPC   C2B77732  16.987  30.539   6.614
 6167POPC   C3B77733  17.205  30.589   6.996
 6167POPC   C4B77734  17.181  31.005   7.139
 6168POPC   NC377735  44.512  31.781   5.467
 6168POPC   PO477736  44.959  31.318   5.430
 6168POPC   GL177737  44.751  31.459   5.794
 6168POPC   GL277738   0.023  31.589   5.899
 6168POPC   C1A77739  44.506  31.637   6.137
 6168POPC   D2A77740  44.407  31.486   6.547
 6168POPC   C3A77741  44.679  31.534   6.890
 6168POPC   C4A77742  44.552  31.496   7.310
 6168POPC   C1B77743  44.927  31.419   6.330
 6168POPC   C2B77744   0.167  31.345   6.721
 6168POPC   C3B77745   0.075  31.379   7.176
 6168POPC   C4B77746  44.956  31.404   7.645
 6169POPC   NC377747   7.172  17.411   5.498
 6169POPC   PO477748   7.705  17.792   5.364
 6169POPC   GL177749   7.558  17.586   5.780
 6169POPC   GL277750   7.610  17.194   5.746
 6169POPC   C1A77751   7.216  17.661   6.132
 6169POPC   D2A77752   6.991  17.823   6.523
 6169POPC   C3A77753   7.183  17.730   6.923
 6169POPC   C4A77754   7.581  17.684   7.132
 6169POPC   C1B77755   7.393  17.158   6.140
 6169POPC   C2B77756   7.319  17.345   6.532
 6169POPC   C3B77757   7.345  17.240   6.934
 6169POPC   C4B77758   7.362  17.042   7.285
 6170POPC   NC377759  36.998  12.781   5.374
 6170POPC   PO477760  36.288  12.812   5.464
 6170POPC   GL177761  36.587  12.875   5.792
 6170POPC   GL277762  36.954  12.967   5.828
 6170POPC   C1A77763  36.609  13.092   6.191
 6170POPC   D2A77764  36.664  12.868   6.555
 6170POPC   C3A77765  36.814  12.992   6.942
 6170POPC   C4A77766  36.918  12.638   7.236
 6170POPC   C1B77767  36.929  12.692   6.137
 6170POPC   C2B77768  37.163  12.857   6.466
 6170POPC   C3B77769  37.252  12.743   6.862
 6170POPC   C4B77770  37.285  13.005   7.198
 6171POPC   NC377771   1.552  42.225   5.586
 6171POPC   PO477772   2.202  42.005   5.348
 6171POPC   GL177773   1.999  42.023   5.753
 6171POPC   GL277774   1.950  42.345   5.866
 6171POPC   C1A77775   1.879  41.965   6.196
 6171POPC   D2A77776   2.084  42.071   6.612
 6171POPC   C3A77777   1.828  41.988   6.986
 6171POPC   C4A77778   2.102  42.069   7.306
 6171POPC   C1B77779   2.157  42.421   6.228
 6171POPC   C2B77780   2.154  42.612   6.609
 6171POPC   C3B77781   2.265  42.451   6.980
 6171POPC   C4B77782   2.206  42.580   7.395
 6172POPC   NC377783   4.970  18.658   5.572
 6172POPC   PO477784   5.264  18.085   5.423
 6172POPC   GL177785   5.166  18.230   5.826
 6172POPC   GL277786   5.464  18.408   5.851
 6172POPC   C1A77787   4.910  18.393   6.183
 6172POPC   D2A77788   4.596  18.454   6.508
 6172POPC   C3A77789   4.700  18.674   6.906
 6172POPC   C4A77790   5.007  18.615   7.257
 6172POPC   C1B77791   5.378  18.216   6.293
 6172POPC   C2B77792   5.398  18.188   6.751
 6172POPC   C3B77793   5.377  18.225   7.183
 6172POPC   C4B77794   5.523  18.053   7.569
 6173POPC   NC377795  22.932  32.808   5.679
 6173POPC   PO477796  22.623  32.279   5.437
 6173POPC   GL177797  22.712  32.081   5.813
 6173POPC   GL277798  23.025  31.923   5.727
 6173POPC   C1A77799  22.671  32.259   6.231
 6173POPC   D2A77800  22.823  32.368   6.624
 6173POPC   C3A77801  22.818  32.128   6.991
 6173POPC   C4A77802  22.854  32.352   7.378
 6173POPC   C1B77803  22.955  31.842   6.189
 6173POPC   C2B77804  23.140  31.946   6.580
 6173POPC   C3B77805  23.399  31.918   6.932
 6173POPC   C4B77806  23.194  31.970   7.323
 6174POPC   NC377807  30.253  12.659   5.036
 6174POPC   PO477808  29.825  13.105   5.316
 6174POPC   GL177809  29.983  12.868   5.674
 6174POPC   GL277810  29.969  13.165   5.853
 6174POPC   C1A77811  30.090  12.756   6.136
 6174POPC   D2A77812  30.413  12.715   6.461
 6174POPC   C3A77813  30.267  12.627   6.887
 6174POPC   C4A77814  29.858  12.617   7.088
 6174POPC   C1B77815  29.878  13.217   6.277
 6174POPC   C2B77816  29.964  12.953   6.609
 6174POPC   C3B77817  29.990  13.102   6.995
 6174POPC   C4B77818  29.677  13.212   7.274
 6175POPC   NC377819  37.489  16.877   5.319
 6175POPC   PO477820  38.147  16.850   5.145
 6175POPC   GL177821  37.910  16.685   5.624
 6175POPC   GL277822  37.569  16.510   5.669
 6175POPC   C1A77823  37.643  16.863   6.061
 6175POPC   D2A77824  37.617  17.021   6.538
 6175POPC   C3A77825  37.728  16.839   6.919
 6175POPC   C4A77826  37.470  16.847   7.251
 6175POPC   C1B77827  37.518  16.362   6.125
 6175POPC   C2B77828  37.645  16.488   6.522
 6175POPC   C3B77829  37.495  16.375   6.925
 6175POPC   C4B77830  37.570  16.339   7.341
 6176POPC   NC377831  25.879  13.847   5.431
 6176POPC   PO477832  26.388  13.536   5.587
 6176POPC   GL177833  26.195  13.750   5.858
 6176POPC   GL277834  26.483  13.934   5.896
 6176POPC   C1A77835  26.105  13.524   6.222
 6176POPC   D2A77836  25.853  13.539   6.566
 6176POPC   C3A77837  25.915  13.273   6.892
 6176POPC   C4A77838  26.019  13.493   7.266
 6176POPC   C1B77839  26.299  13.999   6.332
 6176POPC   C2B77840  26.324  14.106   6.808
 6176POPC   C3B77841  26.223  13.978   7.287
 6176POPC   C4B77842  26.316  13.841   7.745
 6177POPC   NC377843  27.823  13.743   5.454
 6177POPC   PO477844  27.194  13.570   5.441
 6177POPC   GL177845  27.340  13.390   5.833
 6177POPC   GL277846  27.574  13.645   5.903
 6177POPC   C1A77847  27.483  13.302   6.284
 6177POPC   D2A77848  27.760  13.357   6.641
 6177POPC   C3A77849  27.602  13.455   7.049
 6177POPC   C4A77850  27.287  13.234   7.264
 6177POPC   C1B77851  27.697  13.915   6.227
 6177POPC   C2B77852  27.644  13.852   6.654
 6177POPC   C3B77853  27.742  14.003   7.026
 6177POPC   C4B77854  27.551  13.892   7.365
 6178POPC   NC377855  15.844  11.241   5.162
 6178POPC   PO477856  16.009  10.861   5.676
 6178POPC   GL177857  15.743  11.159   5.865
 6178POPC   GL277858  15.778  11.458   5.658
 6178POPC   C1A77859  15.858  11.230   6.307
 6178POPC   D2A77860  16.212  11.116   6.607
 6178POPC   C3A77861  16.089  11.080   7.044
 6178POPC   C4A77862  15.668  11.177   7.091
 6178POPC   C1B77863  15.849  11.702   6.038
 6178POPC   C2B77864  15.709  11.692   6.447
 6178POPC   C3B77865  15.931  11.542   6.793
 6178POPC   C4B77866  15.963  11.645   7.217
 6179POPC   NC377867  12.608   0.971   5.185
 6179POPC   PO477868  13.272   1.005   5.354
 6179POPC   GL177869  12.976   1.148   5.680
 6179POPC   GL277870  12.611   1.218   5.679
 6179POPC   C1A77871  12.995   1.245   6.121
 6179POPC   D2A77872  12.927   1.023   6.516
 6179POPC   C3A77873  13.019   1.176   6.895
 6179POPC   C4A77874  12.953   0.983   7.270
 6179POPC   C1B77875  12.470   1.197   6.138
 6179POPC   C2B77876  12.384   0.926   6.523
 6179POPC   C3B77877  12.538   0.995   6.946
 6179POPC   C4B77878  12.648   1.429   7.131
 6180POPC   NC377879  38.783   5.020   5.449
 6180POPC   PO477880  38.341   5.497   5.308
 6180POPC   GL177881  38.325   5.186   5.637
 6180POPC   GL277882  38.599   5.420   5.754
 6180POPC   C1A77883  38.481   5.031   6.070
 6180POPC   D2A77884  38.717   4.874   6.442
 6180POPC   C3A77885  38.508   4.825   6.834
 6180POPC   C4A77886  38.493   5.043   7.217
 6180POPC   C1B77887  38.207   5.456   6.042
 6180POPC   C2B77888  38.249   5.270   6.465
 6180POPC   C3B77889  38.371   5.367   6.862
 6180POPC   C4B77890  38.149   5.430   7.221
 6181POPC   NC377891  37.316   4.486   5.254
 6181POPC   PO477892  36.635   4.278   5.355
 6181POPC   GL177893  36.802   4.444   5.741
 6181POPC   GL277894  37.172   4.444   5.799
 6181POPC   C1A77895  36.753   4.231   6.138
 6181POPC   D2A77896  36.640   4.068   6.540
 6181POPC   C3A77897  36.669   4.347   6.866
 6181POPC   C4A77898  36.957   4.201   7.137
 6181POPC   C1B77899  37.158   4.568   6.255
 6181POPC   C2B77900  37.159   4.468   6.716
 6181POPC   C3B77901  37.035   4.717   7.076
 6181POPC   C4B77902  36.884   4.578   7.487
 6182POPC   NC377903   3.123  37.532   5.594
 6182POPC   PO477904   2.689  38.031   5.421
 6182POPC   GL177905   2.696  37.725   5.765
 6182POPC   GL277906   2.939  37.931   5.905
 6182POPC   C1A77907   2.883  37.545   6.215
 6182POPC   D2A77908   2.786  37.306   6.630
 6182POPC   C3A77909   2.719  37.560   6.983
 6182POPC   C4A77910   2.363  37.655   7.197
 6182POPC   C1B77911   2.518  37.919   6.174
 6182POPC   C2B77912   2.553  37.851   6.601
 6182POPC   C3B77913   2.912  38.021   6.850
 6182POPC   C4B77914   3.093  37.859   7.224
 6183POPC   NC377915  25.818   2.678   5.673
 6183POPC   PO477916  26.465   2.737   5.430
 6183POPC   GL177917  26.281   2.790   5.840
 6183POPC   GL277918  26.258   2.444   5.901
 6183POPC   C1A77919  25.963   2.964   6.213
 6183POPC   D2A77920  25.645   3.045   6.540
 6183POPC   C3A77921  25.746   3.058   6.988
 6183POPC   C4A77922  26.074   2.844   7.197
 6183POPC   C1B77923  25.943   2.428   6.257
 6183POPC   C2B77924  25.962   2.630   6.645
 6183POPC   C3B77925  26.333   2.557   6.879
 6183POPC   C4B77926  26.139   2.301   7.201
 6184POPC   NC377927  10.960   7.690   4.945
 6184POPC   PO477928  11.448   7.420   5.356
 6184POPC   GL177929  11.467   7.633   5.762
 6184POPC   GL277930  11.381   7.280   5.857
 6184POPC   C1A77931  11.262   7.673   6.176
 6184POPC   D2A77932  11.291   7.423   6.556
 6184POPC   C3A77933  11.321   7.635   6.942
 6184POPC   C4A77934  11.331   7.537   7.386
 6184POPC   C1B77935  11.023   7.216   6.128
 6184POPC   C2B77936  10.968   7.023   6.549
 6184POPC   C3B77937  11.154   7.051   6.954
 6184POPC   C4B77938  11.046   6.883   7.356
 6185POPC   NC377939  13.659   4.872   4.896
 6185POPC   PO477940  13.669   5.301   5.446
 6185POPC   GL177941  13.573   5.064   5.827
 6185POPC   GL277942  13.303   5.280   5.880
 6185POPC   C1A77943  13.770   5.032   6.280
 6185POPC   D2A77944  13.873   5.256   6.693
 6185POPC   C3A77945  13.873   5.172   7.144
 6185POPC   C4A77946  14.078   5.309   7.540
 6185POPC   C1B77947  13.256   5.079   6.273
 6185POPC   C2B77948  13.433   4.907   6.639
 6185POPC   C3B77949  13.387   5.144   6.976
 6185POPC   C4B77950  13.257   5.010   7.353
 6186POPC   NC377951  32.227  29.696   5.299
 6186POPC   PO477952  32.067  30.409   5.469
 6186POPC   GL177953  32.079  30.093   5.825
 6186POPC   GL277954  32.095  29.708   5.787
 6186POPC   C1A77955  32.329  30.019   6.214
 6186POPC   D2A77956  32.562  29.903   6.590
 6186POPC   C3A77957  32.362  29.929   6.997
 6186POPC   C4A77958  32.184  30.293   7.189
 6186POPC   C1B77959  31.931  29.693   6.192
 6186POPC   C2B77960  32.043  29.775   6.613
 6186POPC   C3B77961  31.890  29.699   7.037
 6186POPC   C4B77962  31.862  29.596   7.481
 6187POPC   NC377963  28.067  37.197   5.230
 6187POPC   PO477964  28.393  36.734   5.630
 6187POPC   GL177965  28.417  36.781   6.024
 6187POPC   GL277966  28.408  37.145   5.994
 6187POPC   C1A77967  28.526  36.732   6.449
 6187POPC   D2A77968  28.544  37.049   6.771
 6187POPC   C3A77969  28.689  36.819   7.121
 6187POPC   C4A77970  28.688  36.453   7.319
 6187POPC   C1B77971  28.189  37.105   6.351
 6187POPC   C2B77972  28.043  36.857   6.661
 6187POPC   C3B77973  28.179  36.867   7.064
 6187POPC   C4B77974  28.383  37.240   7.238
 6188POPC   NC377975  31.851  33.440   5.565
 6188POPC   PO477976  32.402  33.821   5.258
 6188POPC   GL177977  32.376  33.793   5.766
 6188POPC   GL277978  32.100  33.698   5.907
 6188POPC   C1A77979  32.481  33.678   6.223
 6188POPC   D2A77980  32.332  33.872   6.608
 6188POPC   C3A77981  32.462  33.643   6.982
 6188POPC   C4A77982  32.286  33.682   7.367
 6188POPC   C1B77983  31.898  33.918   6.218
 6188POPC   C2B77984  31.731  33.780   6.602
 6188POPC   C3B77985  31.948  33.790   6.977
 6188POPC   C4B77986  31.902  34.024   7.336
 6189POPC   NC377987  13.394  11.596   5.332
 6189POPC   PO477988  14.013  11.147   5.413
 6189POPC   GL177989  13.847  11.399   5.819
 6189POPC   GL277990  13.504  11.545   5.820
 6189POPC   C1A77991  13.649  11.486   6.285
 6189POPC   D2A77992  13.462  11.607   6.667
 6189POPC   C3A77993  13.748  11.501   6.983
 6189POPC   C4A77994  13.769  11.247   7.316
 6189POPC   C1B77995  13.437  11.116   6.031
 6189POPC   C2B77996  13.532  11.008   6.471
 6189POPC   C3B77997  13.443  11.097   6.912
 6189POPC   C4B77998  13.402  10.904   7.344
 6190POPC   NC377999  31.720  40.112   5.653
 6190POPC   PO478000  32.359  39.900   5.346
 6190POPC   GL178001  32.337  40.038   5.770
 6190POPC   GL278002  32.071  39.885   5.899
 6190POPC   C1A78003  32.302  40.197   6.213
 6190POPC   D2A78004  32.128  40.074   6.580
 6190POPC   C3A78005  32.324  40.229   6.941
 6190POPC   C4A78006  32.142  40.152   7.338
 6190POPC   C1B78007  31.887  39.737   6.274
 6190POPC   C2B78008  31.967  39.558   6.632
 6190POPC   C3B78009  32.083  39.765   6.997
 6190POPC   C4B78010  32.000  39.664   7.400
 6191POPC   NC378011  32.186   0.741   5.506
 6191POPC   PO478012  32.392   0.072   5.444
 6191POPC   GL178013  32.308   0.336   5.836
 6191POPC   GL278014  32.018   0.223   6.062
 6191POPC   C1A78015  32.164   0.700   6.154
 6191POPC   D2A78016  32.027   0.885   6.522
 6191POPC   C3A78017  32.166   0.672   6.881
 6191POPC   C4A78018  32.228   0.668   7.295
 6191POPC   C1B78019  32.407   0.281   6.327
 6191POPC   C2B78020  32.466   0.065   6.683
 6191POPC   C3B78021  32.410   0.229   7.104
 6191POPC   C4B78022  32.379   0.235   7.576
 6192POPC   NC378023   4.026  44.213   5.476
 6192POPC   PO478024   4.316  43.473   5.468
 6192POPC   GL178025   4.361  43.661   5.892
 6192POPC   GL278026   4.107  43.904   5.888
 6192POPC   C1A78027   4.431  43.919   6.306
 6192POPC   D2A78028   4.533  43.841   6.769
 6192POPC   C3A78029   4.226  44.015   7.022
 6192POPC   C4A78030   4.282  44.245   7.363
 6192POPC   C1B78031   3.969  43.609   6.230
 6192POPC   C2B78032   3.764  43.633   6.639
 6192POPC   C3B78033   3.890  43.599   7.089
 6192POPC   C4B78034   4.266  43.614   7.345
 6193POPC   NC378035   3.766  12.823   5.309
 6193POPC   PO478036   3.148  12.860   5.065
 6193POPC   GL178037   3.436  12.998   5.612
 6193POPC   GL278038   3.740  13.060   5.814
 6193POPC   C1A78039   3.337  13.020   6.106
 6193POPC   D2A78040   3.574  13.087   6.505
 6193POPC   C3A78041   3.357  13.011   6.908
 6193POPC   C4A78042   3.303  12.851   7.348
 6193POPC   C1B78043   3.761  12.732   6.173
 6193POPC   C2B78044   3.854  12.692   6.643
 6193POPC   C3B78045   3.806  12.858   7.085
 6193POPC   C4B78046   3.768  12.787   7.538
 6194POPC   NC378047  20.937  34.706   5.463
 6194POPC   PO478048  20.268  34.828   5.496
 6194POPC   GL178049  20.582  34.654   5.833
 6194POPC   GL278050  20.675  34.309   5.713
 6194POPC   C1A78051  20.662  34.661   6.306
 6194POPC   D2A78052  20.537  34.735   6.743
 6194POPC   C3A78053  20.783  34.755   7.116
 6194POPC   C4A78054  20.907  34.756   7.532
 6194POPC   C1B78055  20.780  34.175   6.149
 6194POPC   C2B78056  20.549  34.193   6.552
 6194POPC   C3B78057  20.541  34.293   7.007
 6194POPC   C4B78058  20.888  34.276   7.311
 6195POPC   NC378059  18.751   0.092   5.247
 6195POPC   PO478060  19.232   0.478   5.488
 6195POPC   GL178061  18.961   0.553   5.834
 6195POPC   GL278062  18.819   0.248   5.874
 6195POPC   C1A78063  18.871   0.564   6.287
 6195POPC   D2A78064  18.884   0.665   6.706
 6195POPC   C3A78065  19.161   0.959   6.845
 6195POPC   C4A78066  19.241   0.802   7.224
 6195POPC   C1B78067  19.221   0.223   6.145
 6195POPC   C2B78068  19.147   0.182   6.595
 6195POPC   C3B78069  19.247   0.328   7.020
 6195POPC   C4B78070  19.167   0.395   7.511
 6196POPC   NC378071  29.475  12.931   5.556
 6196POPC   PO478072  28.865  12.828   5.280
 6196POPC   GL178073  28.942  12.875   5.743
 6196POPC   GL278074  29.083  12.543   5.839
 6196POPC   C1A78075  28.884  12.867   6.224
 6196POPC   D2A78076  29.013  12.621   6.624
 6196POPC   C3A78077  28.836  12.735   7.035
 6196POPC   C4A78078  28.824  13.094   7.291
 6196POPC   C1B78079  29.364  12.615   6.213
 6196POPC   C2B78080  29.506  12.729   6.646
 6196POPC   C3B78081  29.359  12.578   7.036
 6196POPC   C4B78082  29.456  12.643   7.499
 6197POPC   NC378083  38.428  16.533   5.318
 6197POPC   PO478084  38.743  17.119   5.449
 6197POPC   GL178085  38.429  16.866   5.728
 6197POPC   GL278086  38.341  16.477   5.813
 6197POPC   C1A78087  38.526  16.770   6.167
 6197POPC   D2A78088  38.472  16.449   6.469
 6197POPC   C3A78089  38.633  16.594   6.875
 6197POPC   C4A78090  38.515  16.663   7.308
 6197POPC   C1B78091  38.051  16.589   6.128
 6197POPC   C2B78092  38.072  16.771   6.530
 6197POPC   C3B78093  38.136  16.541   6.913
 6197POPC   C4B78094  38.009  16.566   7.333
 6198POPC   NC378095   8.826  27.894   5.384
 6198POPC   PO478096   8.674  27.279   5.449
 6198POPC   GL178097   8.922  27.534   5.749
 6198POPC   GL278098   9.179  27.326   5.861
 6198POPC   C1A78099   9.129  27.781   6.119
 6198POPC   D2A78100   9.292  27.797   6.565
 6198POPC   C3A78101   9.020  27.750   6.932
 6198POPC   C4A78102   8.653  27.546   7.086
 6198POPC   C1B78103   8.946  27.243   6.207
 6198POPC   C2B78104   8.892  27.361   6.616
 6198POPC   C3B78105   9.048  27.227   6.996
 6198POPC   C4B78106   9.087  27.387   7.431
 6199POPC   NC378107  39.916  17.435   5.377
 6199POPC   PO478108  40.256  17.008   5.719
 6199POPC   GL178109  40.025  17.383   5.894
 6199POPC   GL278110  39.667  17.416   5.829
 6199POPC   C1A78111  39.964  17.610   6.326
 6199POPC   D2A78112  40.236  17.645   6.728
 6199POPC   C3A78113  40.115  17.650   7.202
 6199POPC   C4A78114  40.175  17.711   7.657
 6199POPC   C1B78115  39.453  17.558   6.183
 6199POPC   C2B78116  39.451  17.471   6.618
 6199POPC   C3B78117  39.632  17.588   7.017
 6199POPC   C4B78118  39.709  17.555   7.495
 6200POPC   NC378119  15.209  36.264   5.705
 6200POPC   PO478120  15.073  36.874   5.442
 6200POPC   GL178121  15.284  36.801   5.828
 6200POPC   GL278122  15.209  37.135   5.950
 6200POPC   C1A78123  15.204  36.638   6.223
 6200POPC   D2A78124  15.028  36.608   6.593
 6200POPC   C3A78125  15.163  36.826   6.922
 6200POPC   C4A78126  15.117  36.709   7.309
 6200POPC   C1B78127  14.995  37.379   6.287
 6200POPC   C2B78128  14.901  37.227   6.719
 6200POPC   C3B78129  14.797  37.147   7.158
 6200POPC   C4B78130  14.643  37.212   7.598
 6201POPC   NC378131  12.113  20.073   5.501
 6201POPC   PO478132  12.113  19.339   5.449
 6201POPC   GL178133  12.058  19.569   5.819
 6201POPC   GL278134  11.951  19.911   5.951
 6201POPC   C1A78135  12.176  19.464   6.218
 6201POPC   D2A78136  12.002  19.226   6.563
 6201POPC   C3A78137  12.102  19.462   6.928
 6201POPC   C4A78138  12.027  19.729   7.250
 6201POPC   C1B78139  12.029  20.204   6.291
 6201POPC   C2B78140  12.283  20.237   6.676
 6201POPC   C3B78141  12.268  20.180   7.140
 6201POPC   C4B78142  12.035  20.125   7.547
 6202POPC   NC378143   7.198  36.367   5.528
 6202POPC   PO478144   7.428  35.748   5.559
 6202POPC   GL178145   7.521  36.052   5.883
 6202POPC   GL278146   7.599  36.414   5.864
 6202POPC   C1A78147   7.655  36.115   6.316
 6202POPC   D2A78148   7.487  35.909   6.665
 6202POPC   C3A78149   7.545  35.984   7.077
 6202POPC   C4A78150   7.253  35.805   7.325
 6202POPC   C1B78151   7.238  36.387   6.190
 6202POPC   C2B78152   7.184  36.334   6.644
 6202POPC   C3B78153   7.244  36.420   7.099
 6202POPC   C4B78154   7.017  36.475   7.495
 6203POPC   NC378155  37.950  18.272   5.256
 6203POPC   PO478156  37.267  18.428   5.271
 6203POPC   GL178157  37.523  18.348   5.685
 6203POPC   GL278158  37.531  18.055   5.927
 6203POPC   C1A78159  37.585  18.494   6.151
 6203POPC   D2A78160  37.490  18.281   6.563
 6203POPC   C3A78161  37.644  18.393   6.955
 6203POPC   C4A78162  37.844  18.148   7.258
 6203POPC   C1B78163  37.870  18.066   6.296
 6203POPC   C2B78164  37.982  18.046   6.739
 6203POPC   C3B78165  38.021  17.707   7.076
 6203POPC   C4B78166  38.017  17.770   7.553
 6204POPC   NC378167  45.000  27.481   5.360
 6204POPC   PO478168   0.616  27.594   5.337
 6204POPC   GL178169   0.508  27.616   5.765
 6204POPC   GL278170   0.712  27.887   5.852
 6204POPC   C1A78171   0.456  27.307   6.108
 6204POPC   D2A78172   0.237  27.306   6.482
 6204POPC   C3A78173   0.425  27.323   6.872
 6204POPC   C4A78174   0.296  27.354   7.273
 6204POPC   C1B78175   0.581  27.876   6.250
 6204POPC   C2B78176   0.392  27.813   6.620
 6204POPC   C3B78177   0.548  27.839   7.011
 6204POPC   C4B78178   0.577  27.742   7.430
 6205POPC   NC378179  10.769  15.708   5.047
 6205POPC   PO478180  10.384  16.169   5.437
 6205POPC   GL178181  10.311  15.967   5.846
 6205POPC   GL278182  10.108  15.674   5.880
 6205POPC   C1A78183  10.542  15.900   6.227
 6205POPC   D2A78184  10.547  16.160   6.594
 6205POPC   C3A78185  10.635  16.111   7.063
 6205POPC   C4A78186  10.305  16.074   7.392
 6205POPC   C1B78187  10.182  15.508   6.264
 6205POPC   C2B78188  10.434  15.574   6.600
 6205POPC   C3B78189  10.762  15.652   6.851
 6205POPC   C4B78190  10.618  15.617   7.273
 6206POPC   NC378191  14.681  22.521   5.431
 6206POPC   PO478192  14.180  23.078   5.428
 6206POPC   GL178193  14.223  22.804   5.704
 6206POPC   GL278194  14.538  22.864   5.790
 6206POPC   C1A78195  14.186  22.810   6.153
 6206POPC   D2A78196  14.475  22.859   6.497
 6206POPC   C3A78197  14.327  22.853   6.902
 6206POPC   C4A78198  14.422  22.513   7.153
 6206POPC   C1B78199  14.649  23.149   6.127
 6206POPC   C2B78200  14.712  23.300   6.550
 6206POPC   C3B78201  14.651  23.238   6.993
 6206POPC   C4B78202  14.940  23.440   7.238
 6207POPC   NC378203  43.618  38.240   5.543
 6207POPC   PO478204  44.275  38.481   5.533
 6207POPC   GL178205  43.944  38.456   5.886
 6207POPC   GL278206  43.798  38.750   6.080
 6207POPC   C1A78207  43.898  38.215   6.258
 6207POPC   D2A78208  44.100  38.188   6.646
 6207POPC   C3A78209  43.884  38.273   7.000
 6207POPC   C4A78210  43.636  38.602   7.157
 6207POPC   C1B78211  44.185  38.647   6.341
 6207POPC   C2B78212  44.368  38.635   6.770
 6207POPC   C3B78213  44.179  38.622   7.203
 6207POPC   C4B78214  44.190  38.592   7.660
 6208POPC   NC378215   5.359  41.633   5.399
 6208POPC   PO478216   4.682  41.737   5.415
 6208POPC   GL178217   4.980  41.589   5.756
 6208POPC   GL278218   5.176  41.250   5.737
 6208POPC   C1A78219   5.249  41.655   6.116
 6208POPC   D2A78220   5.306  41.444   6.509
 6208POPC   C3A78221   5.153  41.630   6.899
 6208POPC   C4A78222   5.239  41.688   7.315
 6208POPC   C1B78223   4.902  41.207   6.115
 6208POPC   C2B78224   4.887  41.151   6.565
 6208POPC   C3B78225   4.975  41.180   7.005
 6208POPC   C4B78226   4.758  41.488   7.273
 6209POPC   NC378227  11.022  20.638   5.420
 6209POPC   PO478228  11.659  20.592   5.162
 6209POPC   GL178229  11.456  20.625   5.670
 6209POPC   GL278230  11.223  20.322   5.778
 6209POPC   C1A78231  11.260  20.728   6.095
 6209POPC   D2A78232  11.204  20.528   6.510
 6209POPC   C3A78233  11.119  20.687   6.931
 6209POPC   C4A78234  11.418  20.763   7.284
 6209POPC   C1B78235  11.489  20.250   6.152
 6209POPC   C2B78236  11.447  20.063   6.537
 6209POPC   C3B78237  11.453  20.286   6.931
 6209POPC   C4B78238  11.165  20.307   7.258
 6210POPC   NC378239  38.127  28.263   5.323
 6210POPC   PO478240  38.781  28.301   5.441
 6210POPC   GL178241  38.451  28.388   5.752
 6210POPC   GL278242  38.230  28.101   5.839
 6210POPC   C1A78243  38.454  28.596   6.183
 6210POPC   D2A78244  38.450  28.393   6.607
 6210POPC   C3A78245  38.472  28.634   6.985
 6210POPC   C4A78246  38.387  28.612   7.444
 6210POPC   C1B78247  38.093  28.256   6.239
 6210POPC   C2B78248  37.953  28.456   6.630
 6210POPC   C3B78249  38.106  28.279   7.025
 6210POPC   C4B78250  38.124  27.983   7.363
 6211POPC   NC378251  24.438  14.678   5.443
 6211POPC   PO478252  24.857  14.256   5.555
 6211POPC   GL178253  24.703  14.567   5.874
 6211POPC   GL278254  24.304  14.582   5.912
 6211POPC   C1A78255  24.633  14.499   6.309
 6211POPC   D2A78256  24.656  14.195   6.629
 6211POPC   C3A78257  24.850  14.292   6.987
 6211POPC   C4A78258  24.820  14.412   7.387
 6211POPC   C1B78259  24.043  14.534   6.292
 6211POPC   C2B78260  24.167  14.357   6.684
 6211POPC   C3B78261  24.325  14.359   7.100
 6211POPC   C4B78262  24.012  14.503   7.401
 6212POPC   NC378263  15.144  42.738   5.435
 6212POPC   PO478264  15.483  42.275   5.235
 6212POPC   GL178265  15.277  42.280   5.694
 6212POPC   GL278266  15.498  41.987   5.760
 6212POPC   C1A78267  15.149  42.485   6.141
 6212POPC   D2A78268  15.066  42.703   6.566
 6212POPC   C3A78269  15.109  42.439   6.932
 6212POPC   C4A78270  15.231  42.497   7.355
 6212POPC   C1B78271  15.278  41.963   6.151
 6212POPC   C2B78272  15.379  41.809   6.536
 6212POPC   C3B78273  15.543  41.846   6.928
 6212POPC   C4B78274  15.337  42.004   7.313
 6213POPC   NC378275  41.287  28.005   5.382
 6213POPC   PO478276  41.602  28.640   5.410
 6213POPC   GL178277  41.568  28.359   5.784
 6213POPC   GL278278  41.613  27.976   5.778
 6213POPC   C1A78279  41.582  28.473   6.236
 6213POPC   D2A78280  41.574  28.678   6.646
 6213POPC   C3A78281  41.473  28.433   7.004
 6213POPC   C4A78282  41.565  28.309   7.421
 6213POPC   C1B78283  41.456  27.962   6.202
 6213POPC   C2B78284  41.440  28.068   6.649
 6213POPC   C3B78285  41.264  27.944   7.077
 6213POPC   C4B78286  41.319  27.866   7.523
 6214POPC   NC378287  15.033   0.488   5.390
 6214POPC   PO478288  15.709   0.267   5.587
 6214POPC   GL178289  15.388   0.439   5.877
 6214POPC   GL278290  14.984   0.492   5.897
 6214POPC   C1A78291  15.320   0.688   6.248
 6214POPC   D2A78292  15.070   0.600   6.585
 6214POPC   C3A78293  15.217   0.430   6.957
 6214POPC   C4A78294  14.912   0.590   7.265
 6214POPC   C1B78295  15.048   0.213   6.206
 6214POPC   C2B78296  14.893   0.104   6.572
 6214POPC   C3B78297  14.724   0.248   6.947
 6214POPC   C4B78298  14.998   0.094   7.285
 6215POPC   NC378299  26.773  33.247   5.236
 6215POPC   PO478300  27.150  32.734   5.259
 6215POPC   GL178301  27.104  32.871   5.742
 6215POPC   GL278302  27.260  33.183   5.872
 6215POPC   C1A78303  26.824  32.994   6.141
 6215POPC   D2A78304  26.688  33.276   6.530
 6215POPC   C3A78305  26.588  33.052   6.932
 6215POPC   C4A78306  26.736  32.807   7.269
 6215POPC   C1B78307  27.154  33.360   6.278
 6215POPC   C2B78308  27.118  33.560   6.665
 6215POPC   C3B78309  26.966  33.391   7.055
 6215POPC   C4B78310  27.205  33.060   7.235
 6216POPC   NC378311   3.279  31.520   5.537
 6216POPC   PO478312   3.973  31.332   5.508
 6216POPC   GL178313   3.741  31.355   5.888
 6216POPC   GL278314   3.528  31.058   5.843
 6216POPC   C1A78315   3.792  31.139   6.322
 6216POPC   D2A78316   3.661  31.188   6.770
 6216POPC   C3A78317   3.900  31.454   7.102
 6216POPC   C4A78318   3.976  31.474   7.555
 6216POPC   C1B78319   3.328  31.307   6.199
 6216POPC   C2B78320   3.426  31.603   6.543
 6216POPC   C3B78321   3.443  31.618   6.988
 6216POPC   C4B78322   3.632  31.846   7.331
 6217POPC   NC378323  32.864  37.578   5.559
 6217POPC   PO478324  33.067  38.200   5.470
 6217POPC   GL178325  33.194  37.897   5.830
 6217POPC   GL278326  33.302  37.519   5.785
 6217POPC   C1A78327  33.004  37.717   6.230
 6217POPC   D2A78328  32.787  37.515   6.577
 6217POPC   C3A78329  32.851  37.666   6.977
 6217POPC   C4A78330  32.493  37.914   7.137
 6217POPC   C1B78331  33.240  37.252   6.110
 6217POPC   C2B78332  33.247  37.292   6.544
 6217POPC   C3B78333  33.368  37.401   6.952
 6217POPC   C4B78334  33.193  37.424   7.333
 6218POPC   NC378335   1.494   5.204   5.601
 6218POPC   PO478336   2.010   4.918   5.350
 6218POPC   GL178337   2.078   5.055   5.809
 6218POPC   GL278338   1.841   5.287   5.951
 6218POPC   C1A78339   2.293   5.026   6.230
 6218POPC   D2A78340   2.319   4.741   6.577
 6218POPC   C3A78341   2.124   4.906   6.939
 6218POPC   C4A78342   2.117   5.168   7.297
 6218POPC   C1B78343   1.803   4.931   6.236
 6218POPC   C2B78344   1.687   4.881   6.660
 6218POPC   C3B78345   1.666   5.164   7.031
 6218POPC   C4B78346   1.665   5.124   7.503
 6219POPC   NC378347  38.394  43.744   5.440
 6219POPC   PO478348  38.468  44.440   5.535
 6219POPC   GL178349  38.271  44.162   5.752
 6219POPC   GL278350  38.582  44.018   5.835
 6219POPC   C1A78351  38.242  44.201   6.196
 6219POPC   D2A78352  38.511  44.116   6.551
 6219POPC   C3A78353  38.293  44.104   6.956
 6219POPC   C4A78354  38.567  44.196   7.300
 6219POPC   C1B78355  38.504  43.734   6.154
 6219POPC   C2B78356  38.634  43.597   6.551
 6219POPC   C3B78357  38.669  43.765   6.952
 6219POPC   C4B78358  38.427  43.697   7.311
 6220POPC   NC378359   8.489  14.015   5.418
 6220POPC   PO478360   8.082  13.637   5.105
 6220POPC   GL178361   8.103  13.547   5.621
 6220POPC   GL278362   8.385  13.713   5.842
 6220POPC   C1A78363   7.966  13.501   6.110
 6220POPC   D2A78364   7.931  13.587   6.587
 6220POPC   C3A78365   8.334  13.527   6.802
 6220POPC   C4A78366   8.459  13.425   7.218
 6220POPC   C1B78367   8.343  13.838   6.295
 6220POPC   C2B78368   8.305  14.037   6.714
 6220POPC   C3B78369   8.181  13.891   7.132
 6220POPC   C4B78370   8.002  13.957   7.506
 6221POPC   NC378371  39.579  22.074   5.382
 6221POPC   PO478372  39.081  22.577   5.376
 6221POPC   GL178373  39.044  22.288   5.761
 6221POPC   GL278374  39.301  21.995   5.840
 6221POPC   C1A78375  39.065  22.323   6.228
 6221POPC   D2A78376  38.998  22.114   6.631
 6221POPC   C3A78377  39.042  22.383   7.005
 6221POPC   C4A78378  38.915  22.208   7.395
 6221POPC   C1B78379  39.556  22.129   6.220
 6221POPC   C2B78380  39.536  22.140   6.658
 6221POPC   C3B78381  39.516  22.146   7.094
 6221POPC   C4B78382  39.305  21.886   7.334
 6222POPC   NC378383  40.704  37.926   5.439
 6222POPC   PO478384  41.179  37.550   5.097
 6222POPC   GL178385  40.961  37.503   5.580
 6222POPC   GL278386  41.010  37.821   5.822
 6222POPC   C1A78387  40.711  37.423   6.001
 6222POPC   D2A78388  40.637  37.371   6.482
 6222POPC   C3A78389  40.537  37.525   6.912
 6222POPC   C4A78390  40.738  37.454   7.333
 6222POPC   C1B78391  40.732  37.889   6.186
 6222POPC   C2B78392  40.881  37.798   6.584
 6222POPC   C3B78393  41.011  37.721   6.983
 6222POPC   C4B78394  40.666  37.993   7.121
 6223POPC   NC378395   4.853  39.592   5.605
 6223POPC   PO478396   5.269  40.106   5.349
 6223POPC   GL178397   5.171  40.082   5.784
 6223POPC   GL278398   5.260  39.712   5.878
 6223POPC   C1A78399   5.270  40.262   6.217
 6223POPC   D2A78400   5.392  40.070   6.621
 6223POPC   C3A78401   5.121  40.213   6.965
 6223POPC   C4A78402   5.205  40.241   7.400
 6223POPC   C1B78403   4.948  39.863   6.190
 6223POPC   C2B78404   4.822  39.986   6.574
 6223POPC   C3B78405   4.895  39.749   6.911
 6223POPC   C4B78406   4.927  39.817   7.290
 6224POPC   NC378407  11.836  13.503   5.370
 6224POPC   PO478408  12.450  13.500   5.196
 6224POPC   GL178409  12.265  13.402   5.671
 6224POPC   GL278410  12.021  13.658   5.811
 6224POPC   C1A78411  12.319  13.492   6.168
 6224POPC   D2A78412  12.105  13.642   6.566
 6224POPC   C3A78413  12.224  13.593   6.998
 6224POPC   C4A78414  12.151  13.393   7.423
 6224POPC   C1B78415  11.805  13.476   6.191
 6224POPC   C2B78416  11.819  13.220   6.562
 6224POPC   C3B78417  11.732  13.433   6.941
 6224POPC   C4B78418  11.669  13.646   7.299
 6225POPC   NC378419  22.571  14.549   5.590
 6225POPC   PO478420  23.221  14.503   5.338
 6225POPC   GL178421  23.148  14.312   5.754
 6225POPC   GL278422  22.817  14.168   5.811
 6225POPC   C1A78423  23.168  14.456   6.200
 6225POPC   D2A78424  23.015  14.718   6.569
 6225POPC   C3A78425  22.923  14.610   7.009
 6225POPC   C4A78426  23.157  14.758   7.339
 6225POPC   C1B78427  22.723  14.182   6.240
 6225POPC   C2B78428  22.990  14.190   6.598
 6225POPC   C3B78429  22.860  14.116   6.955
 6225POPC   C4B78430  22.507  14.177   7.186
 6226POPC   NC378431   5.496  31.625   5.468
 6226POPC   PO478432   6.058  31.357   5.572
 6226POPC   GL178433   5.776  31.369   5.870
 6226POPC   GL278434   5.830  31.708   5.873
 6226POPC   C1A78435   5.831  31.223   6.290
 6226POPC   D2A78436   5.706  30.955   6.635
 6226POPC   C3A78437   5.993  31.130   6.939
 6226POPC   C4A78438   5.985  31.383   7.306
 6226POPC   C1B78439   5.700  31.742   6.287
 6226POPC   C2B78440   5.904  31.666   6.661
 6226POPC   C3B78441   5.743  31.744   7.050
 6226POPC   C4B78442   5.697  31.761   7.500
 6227POPC   NC378443  24.523  44.915   5.430
 6227POPC   PO478444  24.470  44.300   5.137
 6227POPC   GL178445  24.485  44.460   5.609
 6227POPC   GL278446  24.797  44.642   5.770
 6227POPC   C1A78447  24.289  44.536   6.038
 6227POPC   D2A78448  24.430  44.502   6.496
 6227POPC   C3A78449  24.262  44.670   6.929
 6227POPC   C4A78450  24.281  44.389   7.315
 6227POPC   C1B78451  24.677  44.852   6.172
 6227POPC   C2B78452  24.583  44.984   6.618
 6227POPC   C3B78453  24.641   0.070   7.069
 6227POPC   C4B78454  24.519  44.824   7.434
 6228POPC   NC378455  14.016  41.077   5.499
 6228POPC   PO478456  14.639  40.772   5.412
 6228POPC   GL178457  14.687  40.755   5.871
 6228POPC   GL278458  14.342  40.903   5.871
 6228POPC   C1A78459  14.519  40.771   6.323
 6228POPC   D2A78460  14.234  40.443   6.525
 6228POPC   C3A78461  14.173  40.491   6.960
 6228POPC   C4A78462  14.498  40.697   7.202
 6228POPC   C1B78463  14.013  41.111   6.136
 6228POPC   C2B78464  14.077  41.246   6.519
 6228POPC   C3B78465  14.316  41.061   6.814
 6228POPC   C4B78466  14.059  40.950   7.135
 6229POPC   NC378467  41.377  36.872   5.442
 6229POPC   PO478468  42.001  37.191   5.539
 6229POPC   GL178469  41.721  36.982   5.838
 6229POPC   GL278470  41.687  36.604   5.844
 6229POPC   C1A78471  41.469  37.062   6.207
 6229POPC   D2A78472  41.434  36.887   6.626
 6229POPC   C3A78473  41.806  37.038   6.877
 6229POPC   C4A78474  41.761  37.246   7.247
 6229POPC   C1B78475  41.319  36.558   6.149
 6229POPC   C2B78476  41.208  36.389   6.572
 6229POPC   C3B78477  41.119  36.585   6.969
 6229POPC   C4B78478  41.431  36.823   7.149
 6230POPC   NC378479  35.086  41.035   5.513
 6230POPC   PO478480  35.663  40.604   5.535
 6230POPC   GL178481  35.498  40.892   5.825
 6230POPC   GL278482  35.202  40.770   5.961
 6230POPC   C1A78483  35.498  41.063   6.243
 6230POPC   D2A78484  35.498  40.835   6.609
 6230POPC   C3A78485  35.638  41.034   6.970
 6230POPC   C4A78486  35.554  40.936   7.379
 6230POPC   C1B78487  35.304  40.450   6.274
 6230POPC   C2B78488  35.231  40.401   6.706
 6230POPC   C3B78489  35.280  40.671   7.060
 6230POPC   C4B78490  35.160  40.661   7.505
 6231W        W78491  10.163  36.534   1.720
 6232W        W78492  41.551  19.024  13.899
 6233W        W78493   0.136  10.632  13.329
 6234W        W78494   5.236  27.155   0.709
 6235W        W78495  12.856  32.254  11.272
 6236W        W78496  29.974  13.093  13.509
 6237W        W78497  17.073   4.075  13.850
 6238W        W78498  32.880  30.182  11.328
 6239W        W78499  40.391  32.873  14.452
 6240W        W78500  44.984  22.120  13.612
 6241W        W78501  26.169  23.719   4.398
 6242W        W78502  28.521  41.997  11.970
 6243W        W78503   7.983  15.738  14.941
 6244W        W78504  19.327  22.848   5.016
 6245W        W78505   7.423  43.948  10.979
 6246W        W78506   2.209  20.136   0.783
 6247W        W78507  29.629  15.217  12.950
 6248W        W78508   3.471  13.167  11.890
 6249W        W78509  25.031  32.740  12.827
 6250W        W78510   5.784  21.431  12.061
 6251W        W78511  15.746  44.731   4.361
 6252W        W78512  18.582  33.409  13.064
 6253W        W78513  18.108   7.864   3.042
 6254W        W78514  22.684  37.015   3.664
 6255W        W78515  25.985  41.474  13.235
 6256W        W78516  33.136   6.018   1.410
 6257W        W78517  31.259   1.402   2.202
 6258W        W78518  33.658   7.472   2.334
 6259W        W78519  26.909  15.810   0.913
 6260W        W78520  34.881  17.712   2.246
 6261W        W78521  18.103  31.494  12.591
 6262W        W78522  22.541   3.854  14.421
 6263W        W78523  15.877  31.807  12.915
 6264W        W78524  42.784  26.062  12.451
 6265W        W78525  37.353  12.692  13.443
 6266W        W78526  15.283  35.623   4.362
 6267W        W78527   0.010   9.000  11.896
 6268W        W78528  42.977  16.110  11.845
 6269W        W78529   8.173   3.872   3.340
 6270W        W78530  43.408  37.487  11.056
 6271W        W78531  44.978  43.054  13.481
 6272W        W78532  33.351  17.550   3.315
 6273W        W78533  16.722  41.427  11.271
 6274W        W78534  27.721  14.162  14.370
 6275W        W78535  29.086  22.786   1.027
 6276W        W78536  43.963  20.218  10.793
 6277W        W78537  28.471  23.010   2.692
 6278W        W78538  17.891  38.452  11.220
 6279W        W78539  18.627  37.329   4.515
 6280W        W78540  23.957  29.878   4.277
 6281W        W78541  27.676  39.831  12.482
 6282W        W78542   7.208  44.507   3.844
 6283W        W78543  22.219  17.513  13.039
 6284W        W78544  28.387  44.315   0.813
 6285W        W78545  38.954   8.857  11.345
 6286W        W78546  38.544  37.990  12.908
 6287W        W78547  31.836  23.066   4.189
 6288W        W78548  35.033  44.317  12.436
 6289W        W78549  23.765  24.440   4.120
 6290W        W78550  32.358  31.600  13.272
 6291W        W78551  16.516  40.993  12.597
 6292W        W78552  10.665   6.163  14.460
 6293W        W78553  37.247   9.152  11.120
 6294W        W78554  22.649  16.316  11.834
 6295W        W78555  23.963  16.600   3.231
 6296W        W78556  25.644  20.768  10.683
 6297W        W78557  10.397  42.230  11.966
 6298W        W78558  40.059  22.112  13.525
 6299W        W78559  16.989  26.258   2.662
 6300W        W78560  26.191  39.461  10.467
 6301W        W78561  19.020   1.358   0.474
 6302W        W78562  32.721  38.737   2.141
 6303W        W78563  28.923  35.203  13.779
 6304W        W78564  11.342  19.927   2.268
 6305W        W78565  25.634   6.356   1.696
 6306W        W78566  26.470   5.879  13.980
 6307W        W78567  44.862  19.111   0.129
 6308W        W78568   4.662  14.892   3.835
 6309W        W78569  42.232  41.750   4.590
 6310W        W78570  28.547  43.922   2.836
 6311W        W78571  20.724  17.753  10.732
 6312W        W78572   7.997  15.752   0.909
 6313W        W78573  28.101  34.198   0.436
 6314W        W78574   7.339  30.950   3.224
 6315W        W78575  27.132  12.758  11.169
 6316W        W78576  38.971  19.853   1.766
 6317W        W78577  40.476  44.348  10.723
 6318W        W78578  26.722  31.867  12.088
 6319W        W78579  30.111  27.702  10.515
 6320W        W78580  23.229   8.230   2.579
 6321W        W78581   3.984  43.825   3.747
 6322W        W78582  33.755  29.693  12.428
 6323W        W78583   4.254  11.900  14.509
 6324W        W78584  20.146  18.527   2.230
 6325W        W78585  41.219  12.122  11.000
 6326W        W78586   1.885  40.851  14.400
 6327W        W78587  41.798  11.758   4.676
 6328W        W78588  31.891  33.560   3.618
 6329W        W78589   3.490  34.514   3.675
 6330W        W78590  26.104  24.943   1.838
 6331W        W78591  13.296  17.570  11.936
 6332W        W78592   9.438  25.609  11.186
 6333W        W78593  27.656  22.012  11.306
 6334W        W78594  17.253   9.702  13.053
 6335W        W78595  42.430  39.895  10.982
 6336W        W78596  32.935  24.554  13.446
 6337W        W78597  27.498  43.377   4.562
 6338W        W78598  23.711  15.321   0.744
 6339W        W78599  30.114  19.473   3.265
 6340W        W78600  21.250  25.434  12.398
 6341W        W78601  40.944   8.128  10.732
 6342W        W78602  20.486  26.077   1.933
 6343W        W78603   8.468  28.667  10.656
 6344W        W78604   0.247  22.674  10.115
 6345W        W78605   0.948  21.055  13.469
 6346W        W78606  42.525  29.574  11.385
 6347W        W78607  24.584   4.820   1.805
 6348W        W78608  25.192  14.786   3.599
 6349W        W78609  26.561  31.058  13.788
 6350W        W78610  41.775   3.746   4.859
 6351W        W78611  21.246  41.263   3.581
 6352W        W78612  35.521   8.845   5.047
 6353W        W78613  21.206  42.586  13.110
 6354W        W78614  29.754  31.717  14.065
 6355W        W78615  19.813  35.020   1.320
 6356W        W78616  23.041  13.009   4.909
 6357W        W78617   1.215  44.363   4.615
 6358W        W78618  33.063  35.393   0.644
 6359W        W78619  37.781  35.368   0.605
 6360W        W78620  24.732  15.785  11.219
 6361W        W78621  26.447  39.509   5.000
 6362W        W78622   3.668  30.454  14.468
 6363W        W78623  16.849  10.768  13.169
 6364W        W78624  22.279  35.437  13.078
 6365W        W78625  27.355   7.779   3.723
 6366W        W78626   3.724  18.587  11.266
 6367W        W78627  21.295  41.995   2.339
 6368W        W78628  14.894  30.225  13.803
 6369W        W78629   3.321  12.243   3.280
 6370W        W78630  35.104  23.041   1.790
 6371W        W78631  22.807   8.621   9.956
 6372W        W78632  41.300   4.882   4.826
 6373W        W78633  13.267   7.291   2.146
 6374W        W78634  38.953  20.126   2.218
 6375W        W78635   5.687  15.334  14.065
 6376W        W78636  25.098   4.314   2.230
 6377W        W78637   9.237  37.016  11.107
 6378W        W78638  31.961   4.767   4.970
 6379W        W78639  15.732  31.835  14.972
 6380W        W78640   0.102  23.480  13.949
 6381W        W78641  39.607  35.122   0.962
 6382W        W78642  37.462  28.543  13.220
 6383W        W78643  28.389  42.515  12.909
 6384W        W78644  11.448   6.972  13.411
 6385W        W78645  35.927  29.926  11.396
 6386W        W78646  25.983  33.596   3.965
 6387W        W78647  13.125  11.559   0.807
 6388W        W78648  26.204  41.372  10.143
 6389W        W78649  14.275  31.072   3.511
 6390W        W78650  44.377  11.327   4.747
 6391W        W78651  26.382  25.100  11.228
 6392W        W78652  17.433  14.401   2.328
 6393W        W78653  17.783  20.035   0.782
 6394W        W78654  25.413  30.904  14.474
 6395W        W78655   6.790  44.320  14.419
 6396W        W78656  13.893  18.167  11.952
 6397W        W78657  25.047  25.034  12.994
 6398W        W78658  14.703  42.897  14.333
 6399W        W78659  29.077  19.564   0.869
 6400W        W78660  13.592  10.637   3.934
 6401W        W78661  14.868  20.820  11.698
 6402W        W78662  36.033  11.667  12.069
 6403W        W78663  33.210  26.444  12.480
 6404W        W78664  10.729  22.201  11.035
 6405W        W78665  15.133  20.504  11.362
 6406W        W78666  31.883  37.459  13.066
 6407W        W78667   0.493  12.902  14.956
 6408W        W78668  28.594  28.403   2.200
 6409W        W78669   3.276  11.816  13.164
 6410W        W78670  24.989  28.698   3.974
 6411W        W78671  10.348  27.007   4.643
 6412W        W78672  14.602  37.407  10.371
 6413W        W78673   9.578  20.203  12.109
 6414W        W78674  37.106  39.364   0.383
 6415W        W78675  23.480  21.612  14.555
 6416W        W78676  43.443  29.920   0.456
 6417W        W78677  15.369  16.289   1.945
 6418W        W78678  43.667  42.986   2.767
 6419W        W78679   8.544  43.887   1.926
 6420W        W78680  25.896  39.025  10.523
 6421W        W78681   4.208   1.638  13.904
 6422W        W78682  21.587  35.834  12.433
 6423W        W78683   4.502  33.395  11.511
 6424W        W78684  34.381   8.856   2.256
 6425W        W78685  23.220  14.908   0.041
 6426W        W78686  39.557  44.280   2.867
 6427W        W78687  13.565  17.614   5.133
 6428W        W78688  20.684   7.743  10.939
 6429W        W78689  20.222  28.327   4.571
 6430W        W78690  30.831  14.576   4.023
 6431W        W78691  28.234   4.381   2.684
 6432W        W78692  40.391  27.548   0.720
 6433W        W78693   9.660  30.561  10.527
 6434W        W78694  39.420  14.783  14.534
 6435W        W78695  11.852  12.706   5.068
 6436W        W78696  22.079  15.572  14.933
 6437W        W78697  27.243   1.307  11.760
 6438W        W78698  27.960  37.446   4.738
 6439W        W78699  13.668  18.550   2.383
 6440W        W78700  12.704   4.806   4.174
 6441W        W78701  20.034  30.092   4.857
 6442W        W78702  24.668  13.006   0.235
 6443W        W78703  16.275  31.010   3.605
 6444W        W78704  29.562  13.174   3.027
 6445W        W78705  23.469  41.020   4.136
 6446W        W78706  15.289  34.498  14.135
 6447W        W78707  42.764  33.930   1.696
 6448W        W78708  19.300   2.289   1.888
 6449W        W78709  39.644  20.635   2.385
 6450W        W78710  10.814   7.381   2.206
 6451W        W78711  17.151  43.906  12.182
 6452W        W78712  16.442  27.961   3.324
 6453W        W78713  34.086   4.663  11.957
 6454W        W78714   2.816  29.355   1.983
 6455W        W78715   7.747  20.519  10.624
 6456W        W78716   0.654  25.228   1.734
 6457W        W78717  12.611  18.646  13.379
 6458W        W78718  44.209   6.247   4.642
 6459W        W78719  14.938  12.939   5.005
 6460W        W78720  23.214   2.442   1.050
 6461W        W78721   5.702  11.629   4.429
 6462W        W78722  15.189  27.592   0.913
 6463W        W78723  44.679  40.716  11.264
 6464W        W78724  38.049  33.956   0.368
 6465W        W78725  31.575  31.536  14.010
 6466W        W78726   3.839   0.763   1.984
 6467W        W78727  28.445  25.785   3.690
 6468W        W78728  33.285  25.987  12.745
 6469W        W78729   1.510  44.940   0.903
 6470W        W78730  42.786  41.322   4.150
 6471W        W78731  43.767  14.163  12.138
 6472W        W78732   3.366   4.920  10.930
 6473W        W78733  41.026  33.919   2.403
 6474W        W78734   2.018   2.719  12.153
 6475W        W78735  30.386  22.210   1.300
 6476W        W78736  41.389  42.899  10.454
 6477W        W78737   8.295  18.237  10.638
 6478W        W78738  12.081  14.211  10.579
 6479W        W78739  14.885  38.856   2.392
 6480W        W78740  23.144  28.539   4.705
 6481W        W78741  27.739  39.158   9.748
 6482W        W78742  15.104  43.473   0.526
 6483W        W78743  21.005   8.765   4.166
 6484W        W78744  19.841   4.911   3.390
 6485W        W78745   5.405  22.212  11.624
 6486W        W78746  30.440  28.427   4.528
 6487W        W78747  38.504  38.940  12.617
 6488W        W78748   2.977  10.407  12.801
 6489W        W78749  32.437  15.629   1.757
 6490W        W78750   0.428  33.752   4.895
 6491W        W78751  15.358  15.136  13.509
 6492W        W78752  34.672  35.185  14.846
 6493W        W78753  20.244  13.147  11.147
 6494W        W78754   8.219  26.127  11.751
 6495W        W78755  38.104  27.222   3.785
 6496W        W78756   5.737  38.564   4.180
 6497W        W78757  14.554  13.327  12.490
 6498W        W78758  21.050  43.355   4.620
 6499W        W78759   2.339  34.638   4.683
 6500W        W78760  31.428  41.675  10.513
 6501W        W78761  28.912  28.123  12.515
 6502W        W78762  19.958   5.839   2.640
 6503W        W78763  32.672  41.745  12.456
 6504W        W78764  18.716  26.906   0.695
 6505W        W78765  35.630  22.935  10.717
 6506W        W78766   1.283  34.487   4.617
 6507W        W78767   9.806  14.080  12.368
 6508W        W78768  25.285  42.764  10.987
 6509W        W78769  33.716   5.892  14.879
 6510W        W78770  15.265   1.785  14.316
 6511W        W78771  22.022   0.658   3.680
 6512W        W78772  13.436  11.626  12.144
 6513W        W78773  32.565   3.083  12.995
 6514W        W78774  10.169  38.581  12.313
 6515W        W78775  21.565   5.230   1.762
 6516W        W78776  35.156   1.735  11.398
 6517W        W78777  12.604  19.700  14.455
 6518W        W78778   2.174  13.233   2.001
 6519W        W78779  40.556   1.791  14.485
 6520W        W78780  35.872  40.511   4.121
 6521W        W78781  35.023  38.427  13.342
 6522W        W78782  32.936  14.579   2.604
 6523W        W78783   2.334   1.016   4.550
 6524W        W78784  42.033  44.786  12.198
 6525W        W78785  12.284  26.142   0.955
 6526W        W78786   9.765  41.956   3.515
 6527W        W78787  21.531  41.602  10.588
 6528W        W78788  16.239   2.505  10.831
 6529W        W78789  17.783   1.015   1.371
 6530W        W78790  42.525  34.776   1.655
 6531W        W78791   1.123  14.113   1.410
 6532W        W78792  36.066  44.219  12.273
 6533W        W78793  25.947  41.569   0.238
 6534W        W78794  36.038  29.865   4.544
 6535W        W78795  40.896  33.166  13.326
 6536W        W78796   0.532  26.637  10.986
 6537W        W78797   1.204  15.311  10.670
 6538W        W78798   2.989  21.052   4.853
 6539W        W78799  17.006  16.321   3.724
 6540W        W78800  12.213   0.672  12.359
 6541W        W78801  41.757  15.718   1.266
 6542W        W78802  33.893  36.483  10.593
 6543W        W78803  23.225  29.170  14.859
 6544W        W78804  30.980  35.833  11.406
 6545W        W78805  21.499  26.634  12.040
 6546W        W78806  18.247  19.478   4.874
 6547W        W78807   3.688  20.718   2.237
 6548W        W78808   8.838  40.143   2.812
 6549W        W78809  30.911  39.623   2.336
 6550W        W78810   6.203  19.550  13.446
 6551W        W78811  33.381  31.576  10.449
 6552W        W78812   5.837  25.138  13.824
 6553W        W78813  29.164  32.570   0.348
 6554W        W78814  19.066  42.578   1.215
 6555W        W78815  25.567  38.935   2.334
 6556W        W78816   7.489   2.874   4.816
 6557W        W78817  21.500  12.030   0.244
 6558W        W78818  12.303  38.122   4.153
 6559W        W78819   6.679  39.290   1.874
 6560W        W78820   9.421  20.730  12.194
 6561W        W78821  24.921  32.677  11.493
 6562W        W78822  15.583   4.265   1.839
 6563W        W78823  21.619   7.120   0.159
 6564W        W78824  14.019   4.244   0.628
 6565W        W78825  12.279  24.437  11.034
 6566W        W78826  19.952   4.039  11.436
 6567W        W78827  41.983  14.030  14.825
 6568W        W78828  24.879  37.393  14.899
 6569W        W78829  21.546  29.977   4.815
 6570W        W78830  22.956  19.230   4.702
 6571W        W78831   5.022  24.077  12.577
 6572W        W78832  29.390  23.028  10.981
 6573W        W78833  28.749  16.029   0.382
 6574W        W78834  17.595  29.347   1.883
 6575W        W78835  29.421  40.833   1.241
 6576W        W78836   1.341  41.728  14.481
 6577W        W78837  21.487   9.787   3.633
 6578W        W78838  27.269   7.529  13.905
 6579W        W78839  18.119  12.209   2.899
 6580W        W78840  13.746  27.529   4.245
 6581W        W78841  37.896  18.202   3.735
 6582W        W78842  41.923  26.677   0.542
 6583W        W78843  40.501  39.361   3.333
 6584W        W78844  31.468   2.386   4.214
 6585W        W78845  17.693  25.568  14.203
 6586W        W78846   2.223  23.640   1.946
 6587W        W78847  33.161  11.311  13.392
 6588W        W78848  27.231  35.080  10.865
 6589W        W78849  18.574  30.937  11.923
 6590W        W78850   5.701   8.674  10.707
 6591W        W78851  42.199  39.480  11.165
 6592W        W78852  32.692  23.092   2.887
 6593W        W78853  33.117  37.057   3.120
 6594W        W78854   3.023  42.345  13.704
 6595W        W78855  17.563  44.147  11.033
 6596W        W78856  39.303  44.355   3.763
 6597W        W78857  33.583  29.389   3.708
 6598W        W78858  28.903  39.520  13.609
 6599W        W78859  30.684   2.892  10.220
 6600W        W78860   3.309  11.714  11.226
 6601W        W78861   6.470   8.360  12.137
 6602W        W78862  15.037  33.480   3.108
 6603W        W78863  24.391  36.877  13.332
 6604W        W78864  19.011  12.382  10.684
 6605W        W78865   0.240  38.137  11.779
 6606W        W78866   0.796  30.599   3.668
 6607W        W78867  35.939  16.235  14.350
 6608W        W78868   4.766   8.230   2.943
 6609W        W78869  27.016  39.649  10.283
 6610W        W78870   7.437  22.277   4.264
 6611W        W78871   8.239  34.989  14.244
 6612W        W78872   4.730  36.619   0.401
 6613W        W78873  37.433   7.341  11.529
 6614W        W78874  22.286  17.749   0.271
 6615W        W78875  36.446  10.709  13.896
 6616W        W78876   8.187  30.814  11.552
 6617W        W78877   7.820  13.232   2.789
 6618W        W78878  22.643   7.909  13.533
 6619W        W78879  43.913  43.063   1.800
 6620W        W78880  39.358   0.087  14.125
 6621W        W78881  27.575  29.715  10.672
 6622W        W78882  16.752  12.886   3.266
 6623W        W78883  26.861  42.522  10.415
 6624W        W78884  40.999  20.516   4.605
 6625W        W78885  37.421   8.683  10.438
 6626W        W78886  28.722  29.996  14.970
 6627W        W78887   7.971  20.118   0.358
 6628W        W78888  30.420  17.583   2.930
 6629W        W78889   5.930  10.832  13.332
 6630W        W78890  33.828  11.861  13.828
 6631W        W78891   1.065  28.175   0.361
 6632W        W78892  18.964  14.903   4.714
 6633W        W78893   1.445  36.494   3.214
 6634W        W78894  24.933   1.475   0.462
 6635W        W78895   8.443  23.779   4.531
 6636W        W78896  42.732  42.406  13.033
 6637W        W78897  38.635  29.421   4.594
 6638W        W78898  30.740  42.860   4.083
 6639W        W78899  21.531  41.704   0.938
 6640W        W78900  30.463  27.583  11.199
 6641W        W78901  21.067   3.038   2.369
 6642W        W78902  12.695  15.864   0.326
 6643W        W78903  44.719  37.003   2.165
 6644W        W78904  38.991  23.694   3.646
 6645W        W78905  10.199  31.435  12.996
 6646W        W78906  36.414  18.357   5.471
 6647W        W78907  29.438  16.224  12.809
 6648W        W78908  11.164  37.852  12.420
 6649W        W78909  41.756  35.345   2.365
 6650W        W78910  26.259  21.022  14.683
 6651W        W78911   9.823   3.537  13.515
 6652W        W78912  23.940  40.455   2.271
 6653W        W78913  27.542  17.864  13.765
 6654W        W78914  29.525  33.466  14.095
 6655W        W78915  30.511  19.761  12.901
 6656W        W78916   6.387   0.443   4.269
 6657W        W78917   7.584  29.417   1.990
 6658W        W78918  23.086  40.115   2.345
 6659W        W78919  13.243  10.661   3.172
 6660W        W78920  21.801  40.920  13.868
 6661W        W78921   2.482   3.444   3.621
 6662W        W78922  34.001  30.031  14.850
 6663W        W78923  37.285   2.943   1.151
 6664W        W78924  42.477  28.935   3.829
 6665W        W78925  24.224   3.934   0.407
 6666W        W78926  15.105  24.745   4.062
 6667W        W78927   6.707  22.937   2.825
 6668W        W78928  36.902  16.632   1.287
 6669W        W78929  39.297   0.768  11.484
 6670W        W78930   1.841  18.504  11.617
 6671W        W78931   7.384  44.002   0.110
 6672W        W78932   7.373  33.805  11.579
 6673W        W78933   9.245  10.180  13.495
 6674W        W78934  20.569  35.290   0.097
 6675W        W78935  31.200  14.298   2.469
 6676W        W78936  14.012  26.413  12.077
 6677W        W78937   4.938  27.775   9.884
 6678W        W78938  26.243  22.178   4.294
 6679W        W78939   9.695  24.507  13.519
 6680W        W78940  30.186  35.817   0.240
 6681W        W78941   1.768  32.564  12.090
 6682W        W78942   0.817  31.943  10.945
 6683W        W78943   2.197  26.689   0.337
 6684W        W78944  23.657   5.593  12.588
 6685W        W78945  10.697   2.914   1.229
 6686W        W78946  22.613  18.811   2.326
 6687W        W78947  38.790   2.906  13.654
 6688W        W78948   8.069   0.327  14.859
 6689W        W78949   3.743  19.489   2.748
 6690W        W78950  14.547  38.242   3.305
 6691W        W78951   0.689  31.084  10.916
 6692W        W78952  13.449  16.395  12.559
 6693W        W78953  27.163  36.333  10.737
 6694W        W78954   3.304  26.721  13.946
 6695W        W78955  27.288  18.940  10.838
 6696W        W78956  32.491   1.923   0.234
 6697W        W78957  37.181  35.831  12.354
 6698W        W78958  14.263  14.550   2.885
 6699W        W78959  19.057  38.883   5.099
 6700W        W78960  43.733  13.014  12.054
 6701W        W78961  16.896   6.378   2.261
 6702W        W78962  39.603  38.484  12.361
 6703W        W78963  27.112  42.985  12.556
 6704W        W78964  10.829  20.725  13.822
 6705W        W78965  23.559  39.560  10.651
 6706W        W78966  41.804   1.263  13.007
 6707W        W78967   7.032  14.488   3.753
 6708W        W78968   0.454  10.426   2.346
 6709W        W78969  43.366  42.020  14.107
 6710W        W78970  16.350  39.826  10.709
 6711W        W78971   0.253  34.108  13.311
 6712W        W78972   2.039  40.634   1.149
 6713W        W78973  27.546  41.384  11.591
 6714W        W78974   9.593  30.364   1.708
 6715W        W78975  25.440  19.011  11.907
 6716W        W78976  40.078   5.897   4.558
 6717W        W78977  17.702  19.950   3.277
 6718W        W78978  10.726  41.894   3.268
 6719W        W78979  20.088   6.662   2.260
 6720W        W78980  40.492  27.005  14.801
 6721W        W78981  44.299  38.299  14.775
 6722W        W78982  41.132  26.659   1.135
 6723W        W78983   8.376  26.001  13.671
 6724W        W78984  26.009  29.618  10.752
 6725W        W78985   2.070  21.623   0.784
 6726W        W78986  24.978   4.508   3.613
 6727W        W78987  13.737  37.566   4.011
 6728W        W78988  36.506  21.056   1.709
 6729W        W78989  20.862  25.258   4.970
 6730W        W78990  12.376  41.033   2.636
 6731W        W78991   0.680  26.205  14.926
 6732W        W78992   8.513  27.168  13.035
 6733W        W78993  24.587  28.911  13.174
 6734W        W78994   2.359   3.716  11.496
 6735W        W78995  28.645   2.837   3.350
 6736W        W78996   0.403  23.549   1.868
 6737W        W78997  34.451  31.641   1.378
 6738W        W78998  43.975  24.662   1.964
 6739W        W78999  30.542  30.147   1.712
 6740W        W79000  12.827   3.350   4.332
 6741W        W79001  43.822  42.108  11.985
 6742W        W79002  33.416  27.537  12.095
 6743W        W79003  30.659  28.718  14.555
 6744W        W79004  22.531  32.376   2.817
 6745W        W79005  22.167  28.980   1.414
 6746W        W79006  12.641  20.956   0.565
 6747W        W79007  41.172  32.439   1.393
 6748W        W79008  43.390  21.346  14.770
 6749W        W79009  38.403   9.664   0.170
 6750W        W79010   9.265  39.370   4.946
 6751W        W79011  40.554  24.555   0.429
 6752W        W79012  14.548  39.363   0.774
 6753W        W79013  32.581  34.667   0.778
 6754W        W79014  10.831   2.904   3.765
 6755W        W79015  21.214  15.573  13.042
 6756W        W79016   2.129  15.150  10.808
 6757W        W79017   7.531  32.875   2.739
 6758W        W79018  24.477   6.256   2.665
 6759W        W79019  34.781  13.159   4.143
 6760W        W79020  16.277  20.187  13.429
 6761W        W79021  27.959  11.771  11.901
 6762W        W79022   8.829  41.431  10.639
 6763W        W79023  34.264   6.916   2.775
 6764W        W79024  20.012   9.075  13.899
 6765W        W79025  21.774  44.524  11.098
 6766W        W79026   1.833   0.014  11.644
 6767W        W79027  21.859  24.123  11.945
 6768W        W79028  16.535  10.678   4.097
 6769W        W79029  44.987  11.201   4.081
 6770W        W79030  29.576   2.807  11.153
 6771W        W79031  24.584   6.791   0.827
 6772W        W79032  29.528  11.339  12.100
 6773W        W79033   9.707  40.505  11.152
 6774W        W79034  25.882  38.534  12.676
 6775W        W79035  22.075   7.015  11.618
 6776W        W79036  26.219  42.994  13.060
 6777W        W79037  33.129  42.996   2.320
 6778W        W79038   3.829  20.834   4.069
 6779W        W79039  43.279  24.086   2.290
 6780W        W79040   1.827  18.250  14.359
 6781W        W79041   6.354  38.417  14.851
 6782W        W79042  37.007  39.628   0.860
 6783W        W79043  28.660  12.496   2.414
 6784W        W79044   4.956  35.826   4.512
 6785W        W79045  19.808   2.730  12.787
 6786W        W79046   6.463  32.959  13.551
 6787W        W79047  40.296  18.044  14.289
 6788W        W79048  10.287  17.381   1.643
 6789W        W79049  30.785  31.639   9.663
 6790W        W79050  37.112  15.179  14.064
 6791W        W79051  35.959  30.452  14.477
 6792W        W79052  24.670  40.955  10.215
 6793W        W79053   1.268  41.028   3.547
 6794W        W79054   6.326  29.390   2.263
 6795W        W79055  15.082  30.906   4.363
 6796W        W79056  12.637  43.516   0.839
 6797W        W79057  40.266  34.097  10.709
 6798W        W79058  41.928  26.200  14.994
 6799W        W79059  24.106  29.934   3.017
 6800W        W79060  42.266  20.649   0.602
 6801W        W79061  15.923  22.136  12.366
 6802W        W79062  40.774  27.092  10.654
 6803W        W79063  14.152  10.893   3.250
 6804W        W79064  19.486  40.743  13.467
 6805W        W79065  36.344   7.372  14.399
 6806W        W79066   1.772  16.503   1.405
 6807W        W79067  35.133  36.955   4.270
 6808W        W79068   2.946  41.538   1.827
 6809W        W79069   3.415  32.007  13.901
 6810W        W79070  32.035   2.419   5.189
 6811W        W79071   5.712  10.101   1.467
 6812W        W79072  42.051   0.371  11.715
 6813W        W79073   5.235  27.990  11.518
 6814W        W79074   8.600  37.793  11.990
 6815W        W79075  20.215  23.055   2.426
 6816W        W79076  14.170  22.311   2.987
 6817W        W79077   7.667  28.503   1.135
 6818W        W79078   9.556  17.684   1.499
 6819W        W79079   9.488  24.936  13.828
 6820W        W79080   9.845  44.729  12.938
 6821W        W79081  34.306  12.808   2.336
 6822W        W79082  28.827  15.687   3.345
 6823W        W79083  30.982  13.818  12.113
 6824W        W79084  12.713  27.867   3.452
 6825W        W79085   7.810   4.504  11.513
 6826W        W79086  26.136  34.306   1.324
 6827W        W79087  26.933  31.449   4.413
 6828W        W79088   8.587  31.043   0.431
 6829W        W79089  37.742   9.211  13.495
 6830W        W79090  10.476  27.732  10.173
 6831W        W79091  33.887  23.848   3.226
 6832W        W79092   4.056  17.275   1.254
 6833W        W79093  36.075  33.352   2.406
 6834W        W79094   4.791   9.658  13.294
 6835W        W79095   7.419  29.426   1.208
 6836W        W79096  13.113  24.509   3.339
 6837W        W79097  29.933  38.523   2.834
 6838W        W79098  43.564  36.663  13.961
 6839W        W79099  22.412  12.591   3.202
 6840W        W79100   1.036   7.858   4.748
 6841W        W79101  15.657  37.926  13.184
 6842W        W79102  36.258  43.543  12.184
 6843W        W79103  14.199  39.429  13.037
 6844W        W79104  42.781  28.639  10.972
 6845W        W79105  21.658  10.437  14.255
 6846W        W79106  16.775  36.230  13.509
 6847W        W79107  16.198  35.476  11.614
 6848W        W79108  19.762  36.867  14.823
 6849W        W79109   6.486  29.739   0.281
 6850W        W79110   2.216  22.987  10.562
 6851W        W79111  31.465   7.692   4.577
 6852W        W79112  44.035  44.524   2.716
 6853W        W79113  29.066   5.779  14.604
 6854W        W79114  10.723  12.852   3.278
 6855W        W79115  44.371  38.014  10.652
 6856W        W79116  10.578  24.331   2.334
 6857W        W79117  38.373  34.928   2.841
 6858W        W79118  39.946  38.314   0.966
 6859W        W79119   5.892  32.624  14.408
 6860W        W79120  39.440  16.926   0.323
 6861W        W79121  44.965  18.180   4.609
 6862W        W79122   2.753  20.945  14.413
 6863W        W79123  33.975  41.362   2.981
 6864W        W79124  20.851  16.057  11.644
 6865W        W79125  23.225  16.099   0.243
 6866W        W79126  40.953  16.650   4.710
 6867W        W79127  36.926  33.863  11.664
 6868W        W79128  17.831   9.420  13.949
 6869W        W79129  13.348  27.494  12.628
 6870W        W79130  34.537   1.906  13.115
 6871W        W79131  26.081  34.303   3.853
 6872W        W79132  18.778  14.202   1.384
 6873W        W79133   4.248  12.261  14.132
 6874W        W79134  26.743  17.734   0.304
 6875W        W79135   8.970  40.375   0.426
 6876W        W79136  26.141  16.558  11.402
 6877W        W79137  43.361  27.119   1.319
 6878W        W79138  13.108  39.419  12.811
 6879W        W79139  27.570  32.432  13.301
 6880W        W79140  25.624  18.475   0.293
 6881W        W79141  15.132  21.807  12.394
 6882W        W79142  41.859  38.915   4.309
 6883W        W79143  29.874  40.611   1.309
 6884W        W79144  34.002  38.568  13.644
 6885W        W79145  33.556  26.611   1.753
 6886W        W79146  30.415  12.147   0.977
 6887W        W79147  35.864   0.690  14.081
 6888W        W79148   7.968  38.085   2.735
 6889W        W79149   4.547  10.412  10.961
 6890W        W79150  28.454  10.104   2.456
 6891W        W79151   5.329  10.422  14.729
 6892W        W79152  11.304   8.211  10.738
 6893W        W79153  37.857  18.484   1.818
 6894W        W79154  20.792  17.122   2.990
 6895W        W79155  14.655  33.404  14.457
 6896W        W79156  10.425   5.224  11.157
 6897W        W79157  13.604  11.640   3.711
 6898W        W79158  23.753  14.311   1.717
 6899W        W79159  18.099  22.714   0.534
 6900W        W79160  16.107  13.613   2.255
 6901W        W79161   2.072  23.821  13.327
 6902W        W79162  13.808  34.485   4.615
 6903W        W79163  38.067   5.346   0.711
 6904W        W79164   1.957  36.521   3.289
 6905W        W79165  10.313  35.833   3.276
 6906W        W79166   8.584  13.034  11.115
 6907W        W79167  22.792  20.466   0.295
 6908W        W79168  26.847  43.844  11.471
 6909W        W79169  14.221  24.189   4.096
 6910W        W79170   0.822   9.350   2.829
 6911W        W79171  17.490  28.941  13.785
 6912W        W79172  16.719  13.114   3.763
 6913W        W79173  26.977  27.487  11.974
 6914W        W79174  36.058  31.299   4.393
 6915W        W79175  32.858  10.181  11.506
 6916W        W79176  26.979  20.173   4.457
 6917W        W79177  27.912  19.372   2.348
 6918W        W79178  29.915   6.701   0.894
 6919W        W79179  13.182  21.504   1.290
 6920W        W79180  28.073  19.027  10.101
 6921W        W79181  39.655   9.621   4.141
 6922W        W79182   6.654  41.995   3.951
 6923W        W79183  37.063   9.286  14.652
 6924W        W79184   8.597   3.765   3.062
 6925W        W79185  29.185  30.157  14.791
 6926W        W79186   6.668   0.460  11.432
 6927W        W79187  24.731   9.246  13.466
 6928W        W79188   3.344  35.132   1.393
 6929W        W79189   9.769  35.433   4.727
 6930W        W79190   7.644  31.840   9.963
 6931W        W79191  10.954  27.051   3.771
 6932W        W79192   4.981  19.456   5.120
 6933W        W79193  39.187  36.900  13.818
 6934W        W79194  29.126  15.601  13.957
 6935W        W79195  32.885  32.966   1.422
 6936W        W79196  19.511  12.243   3.222
 6937W        W79197  38.071  15.198  10.816
 6938W        W79198  30.168  33.820  14.594
 6939W        W79199  25.766  20.516  11.135
 6940W        W79200   4.555  20.333  11.511
 6941W        W79201  26.165  43.833  12.647
 6942W        W79202  42.270  13.093   1.298
 6943W        W79203  23.528  40.798   3.240
 6944W        W79204   1.873  10.928   2.225
 6945W        W79205  15.760  18.277  12.558
 6946W        W79206  24.156  28.001   9.948
 6947W        W79207  24.149   9.864  13.832
 6948W        W79208   5.751   8.040   4.175
 6949W        W79209  24.181   9.867  14.348
 6950W        W79210  37.134  17.176  14.551
 6951W        W79211  20.177  15.579   3.885
 6952W        W79212  42.987  13.345  10.674
 6953W        W79213  12.719  15.096   4.570
 6954W        W79214  42.491  44.231   0.311
 6955W        W79215  20.709  36.935   4.632
 6956W        W79216  41.583  29.662  11.613
 6957W        W79217  28.878   5.832  12.908
 6958W        W79218  21.609  28.605   5.435
 6959W        W79219  29.462  28.116   1.815
 6960W        W79220  26.474  14.307   2.706
 6961W        W79221  30.471  38.899   4.639
 6962W        W79222  14.303   5.247  11.904
 6963W        W79223  24.105  30.549   0.722
 6964W        W79224   2.516   9.096  13.471
 6965W        W79225   3.303  19.233   4.524
 6966W        W79226  33.526  15.949   1.415
 6967W        W79227  22.647  41.032   4.088
 6968W        W79228   1.258   4.537  10.840
 6969W        W79229  22.114  11.631  11.042
 6970W        W79230   4.123  21.135   5.013
 6971W        W79231  28.563  31.429   3.591
 6972W        W79232  29.924  34.558  14.328
 6973W        W79233  33.049  20.959  12.386
 6974W        W79234   4.239  41.819   2.446
 6975W        W79235  39.695   5.910  14.929
 6976W        W79236   9.130  26.072  10.592
 6977W        W79237  30.032  34.650   1.697
 6978W        W79238  20.651   6.170  14.801
 6979W        W79239   2.429  15.513  11.552
 6980W        W79240  17.542  36.015  11.125
 6981W        W79241  26.760  33.570   2.690
 6982W        W79242   0.874   1.268   0.399
 6983W        W79243  13.944  25.819   0.775
 6984W        W79244  28.731  28.575   2.693
 6985W        W79245  29.476  15.251   1.511
 6986W        W79246  25.566  22.337  10.727
 6987W        W79247   3.377   5.803  11.579
 6988W        W79248  39.034  24.947  12.961
 6989W        W79249  39.720   1.868  13.089
 6990W        W79250  33.489  11.704  11.321
 6991W        W79251  22.580  36.543  13.286
 6992W        W79252  12.310  41.836  10.688
 6993W        W79253  16.800   1.764  10.410
 6994W        W79254  18.590  34.677   3.292
 6995W        W79255  14.566  43.763   3.181
 6996W        W79256   7.018  44.797   2.245
 6997W        W79257  39.087  21.873   0.542
 6998W        W79258  40.448  37.835   5.006
 6999W        W79259  29.516  15.364  14.463
 7000W        W79260  16.881  27.942   3.078
 7001W        W79261  12.086  44.810   3.721
 7002W        W79262  21.707  26.564  14.042
 7003W        W79263  41.855  41.308   5.038
 7004W        W79264  34.644  43.425   0.383
 7005W        W79265   7.414  25.014  11.835
 7006W        W79266  24.830   7.566  12.453
 7007W        W79267  33.428  37.146   4.957
 7008W        W79268  34.061  31.999   1.456
 7009W        W79269  23.048  11.673  14.023
 7010W        W79270   9.594  31.352  13.901
 7011W        W79271  13.063  28.632   3.566
 7012W        W79272  20.516   5.989  10.613
 7013W        W79273   4.852   4.388   1.184
 7014W        W79274  38.476   4.729  10.685
 7015W        W79275  18.394  28.765   1.837
 7016W        W79276  20.721  42.382  10.696
 7017W        W79277  35.626  12.910  12.992
 7018W        W79278  40.429   5.417   0.450
 7019W        W79279   3.708  44.737  10.550
 7020W        W79280   4.806   0.272  10.722
 7021W        W79281  12.862  18.596  13.841
 7022W        W79282  35.537  23.644   1.069
 7023W        W79283  29.996   4.193  12.173
 7024W        W79284  14.217  43.291  12.440
 7025W        W79285  20.280  20.154  12.952
 7026W        W79286  12.975  30.760  11.205
 7027W        W79287  12.750   5.908  11.334
 7028W        W79288  32.694   4.662   3.683
 7029W        W79289   6.698  32.043   4.081
 7030W        W79290  17.038  27.482  14.521
 7031W        W79291   7.422  33.591  10.712
 7032W        W79292  38.388   9.582   3.712
 7033W        W79293   1.311  39.478  12.875
 7034W        W79294  27.015  17.926  14.903
 7035W        W79295  21.898   5.593   4.106
 7036W        W79296  24.879  19.038  14.028
 7037W        W79297   9.904  44.038  10.718
 7038W        W79298   5.414  33.153  13.558
 7039W        W79299  41.723  26.175  13.981
 7040W        W79300  11.336   6.186   4.504
 7041W        W79301  39.387   9.061   0.950
 7042W        W79302  21.028  44.279  10.609
 7043W        W79303  38.827  26.543   4.806
 7044W        W79304  24.627   3.631   0.589
 7045W        W79305   7.900  42.349   4.417
 7046W        W79306  15.343  34.456  12.674
 7047W        W79307  44.780   0.535  11.944
 7048W        W79308  38.478   2.498  14.820
 7049W        W79309  29.470  15.886  10.756
 7050W        W79310  42.741  22.466  13.028
 7051W        W79311  12.787  16.329  11.081
 7052W        W79312  11.836  17.343  12.824
 7053W        W79313   8.681  39.528  14.516
 7054W        W79314  34.217  16.252   4.186
 7055W        W79315   0.815   0.271  12.969
 7056W        W79316  37.834  28.361   4.370
 7057W        W79317  34.258  32.426  12.530
 7058W        W79318  21.076  20.760  13.988
 7059W        W79319  36.000  28.382   1.773
 7060W        W79320  11.294  17.469   0.858
 7061W        W79321  25.062  30.923  13.501
 7062W        W79322  39.379  28.075  11.413
 7063W        W79323   1.312  35.512  11.900
 7064W        W79324  27.504  38.368   3.712
 7065W        W79325  10.423   4.414   1.184
 7066W        W79326  34.492   3.362  12.569
 7067W        W79327   6.895   1.869  14.455
 7068W        W79328  43.842  40.144  13.910
 7069W        W79329   4.871  41.111   0.256
 7070W        W79330  44.951  12.731  12.931
 7071W        W79331  31.487  35.986  11.571
 7072W        W79332  38.327  39.578   4.760
 7073W        W79333  13.614  34.888  13.933
 7074W        W79334  32.123  24.156   0.884
 7075W        W79335  31.488  15.803   0.694
 7076W        W79336  13.142  20.147  10.459
 7077W        W79337   0.256  30.550  12.920
 7078W        W79338  37.599  18.148  12.442
 7079W        W79339  15.473  13.458   0.497
 7080W        W79340  35.471  44.359  14.896
 7081W        W79341  37.319   5.965   0.283
 7082W        W79342  25.437  28.054  14.172
 7083W        W79343  34.699  15.768   4.571
 7084W        W79344  16.033   4.896   4.181
 7085W        W79345  34.303   4.163  12.042
 7086W        W79346  39.841  26.406  14.093
 7087W        W79347  13.895  11.154   4.662
 7088W        W79348  30.632   2.426  14.324
 7089W        W79349  10.522  40.119   5.103
 7090W        W79350  11.131  20.768  13.415
 7091W        W79351   4.354  10.758   4.195
 7092W        W79352   1.943  12.781   1.883
 7093W        W79353  16.027  27.390  14.698
 7094W        W79354  30.991  41.534  12.619
 7095W        W79355  23.805  26.466   4.185
 7096W        W79356  24.186   0.430   3.944
 7097W        W79357  32.001  44.396  13.512
 7098W        W79358  11.182  21.118   4.553
 7099W        W79359   0.006   0.340   3.633
 7100W        W79360  21.044  36.236  13.527
 7101W        W79361  32.564  14.361   5.191
 7102W        W79362  29.044   6.428  13.972
 7103W        W79363   3.579  33.442   0.962
 7104W        W79364  21.071  40.733   4.585
 7105W        W79365   8.837  24.478   2.403
 7106W        W79366  33.996  36.468  11.106
 7107W        W79367  31.985  20.461   3.243
 7108W        W79368  12.786   4.015  11.016
 7109W        W79369  34.723  31.393   4.124
 7110W        W79370  41.937   3.149  12.820
 7111W        W79371  20.941  32.031  12.524
 7112W        W79372  25.714  32.892  10.618
 7113W        W79373  38.089  38.936   0.963
 7114W        W79374  41.508  27.447  14.518
 7115W        W79375   8.028  40.287   0.425
 7116W        W79376   7.005  37.612  13.502
 7117W        W79377  13.020  34.524   0.062
 7118W        W79378  18.925  44.843  14.857
 7119W        W79379  41.452  20.167  12.156
 7120W        W79380  40.617  25.475  14.590
 7121W        W79381  22.076  20.633  12.434
 7122W        W79382  29.573   8.093  12.777
 7123W        W79383  18.530  20.904   4.201
 7124W        W79384  32.155   1.294  12.050
 7125W        W79385  38.791  17.811   2.762
 7126W        W79386  19.122  19.676  14.817
 7127W        W79387  19.509   3.971   0.714
 7128W        W79388  21.511   0.379   1.762
 7129W        W79389   8.947  39.852  13.423
 7130W        W79390  36.737  35.390   1.420
 7131W        W79391   9.119  12.651  11.623
 7132W        W79392  38.393  24.537   2.835
 7133W        W79393   6.633   3.954   1.839
 7134W        W79394  27.435  31.387   4.552
 7135W        W79395  27.984  42.991   5.090
 7136W        W79396  35.862  18.734   2.346
 7137W        W79397  31.344  18.765  12.816
 7138W        W79398  23.734  41.884   2.453
 7139W        W79399  32.509  40.781   3.677
 7140W        W79400  42.861   6.796   4.385
 7141W        W79401  17.024  21.717  11.608
 7142W        W79402  30.110   9.970  14.427
 7143W        W79403   6.083  33.028   4.523
 7144W        W79404  11.229  20.303   1.804
 7145W        W79405  29.545  24.577   0.300
 7146W        W79406  38.647  11.684   4.199
 7147W        W79407  22.349  12.604   4.143
 7148W        W79408  32.923  42.624   4.709
 7149W        W79409  16.089  43.876  13.961
 7150W        W79410   6.726  28.014  11.680
 7151W        W79411  41.008  32.993  13.831
 7152W        W79412  41.336  37.020   0.928
 7153W        W79413  41.557  24.059  14.876
 7154W        W79414  29.328  34.526   0.903
 7155W        W79415  37.509  36.907   4.781
 7156W        W79416  25.949  41.872   4.970
 7157W        W79417  30.057  43.999  13.873
 7158W        W79418  20.272  29.226  11.110
 7159W        W79419  38.755  21.175   1.221
 7160W        W79420  27.010  29.083  13.137
 7161W        W79421   1.416  31.440   2.993
 7162W        W79422  30.341  41.949   1.202
 7163W        W79423   4.797   9.251   3.126
 7164W        W79424  43.470  28.109  12.303
 7165W        W79425  36.047  11.650  10.671
 7166W        W79426  12.080  21.336   2.728
 7167W        W79427  38.008  35.539   4.722
 7168W        W79428  16.069  31.148   4.091
 7169W        W79429  28.937  32.689  14.871
 7170W        W79430  29.916  12.072  12.062
 7171W        W79431  18.051   1.409  12.871
 7172W        W79432  26.878  24.004   1.303
 7173W        W79433  23.637  19.102   3.593
 7174W        W79434  20.482  34.125  11.172
 7175W        W79435  40.812  16.278   3.477
 7176W        W79436   6.902  33.040   1.277
 7177W        W79437  34.014   8.022   1.495
 7178W        W79438  23.083  14.137   4.107
 7179W        W79439   4.708  31.375  11.786
 7180W        W79440   3.451  40.762   1.130
 7181W        W79441  14.952  36.219   2.916
 7182W        W79442  22.426  39.961  12.393
 7183W        W79443   7.229   3.786  12.890
 7184W        W79444  25.700  37.771   0.983
 7185W        W79445  43.940  43.904  13.018
 7186W        W79446  27.608  21.779  13.582
 7187W        W79447  12.429  15.378   2.835
 7188W        W79448  27.751  31.136   9.856
 7189W        W79449  15.196   9.588   2.775
 7190W        W79450  28.603  11.287  14.434
 7191W        W79451  42.826  27.093  10.557
 7192W        W79452  27.004  24.147   4.112
 7193W        W79453  30.017  34.918   2.149
 7194W        W79454  35.320  27.650   1.954
 7195W        W79455   7.420  27.113  14.387
 7196W        W79456  24.169  39.685   1.012
 7197W        W79457   4.808  23.167   1.445
 7198W        W79458  22.610   9.401   0.811
 7199W        W79459  14.014  41.983   0.400
 7200W        W79460  28.509  37.789  14.526
 7201W        W79461  32.010  39.622  14.681
 7202W        W79462  41.222  42.458   3.539
 7203W        W79463  27.988   0.450   0.214
 7204W        W79464  39.938   3.852   2.689
 7205W        W79465  37.475  24.222   4.535
 7206W        W79466   5.949  42.218  14.363
 7207W        W79467  34.879   8.772  10.315
 7208W        W79468   2.624   4.320  11.169
 7209W        W79469  34.697  32.022  14.847
 7210W        W79470   8.387  28.537   2.184
 7211W        W79471  17.821   4.012  11.054
 7212W        W79472  23.165   2.109   1.980
 7213W        W79473  25.394  33.371   2.105
 7214W        W79474  17.719   5.598  12.804
 7215W        W79475  13.094   8.044   2.524
 7216W        W79476  19.094  21.004   0.325
 7217W        W79477  31.956  37.968   0.728
 7218W        W79478   0.164  11.228  14.850
 7219W        W79479  18.570  33.047  11.620
 7220W        W79480  28.766  25.840  12.957
 7221W        W79481  23.027   2.145   0.200
 7222W        W79482  29.570  37.292   4.708
 7223W        W79483   8.905  12.100  12.450
 7224W        W79484  14.700  17.772  13.994
 7225W        W79485  13.761   7.345  13.790
 7226W        W79486  14.665  25.665  10.664
 7227W        W79487  44.490  33.222  13.427
 7228W        W79488   6.731   3.675  11.215
 7229W        W79489  27.993  33.392   2.927
 7230W        W79490  12.336  34.374   3.130
 7231W        W79491  30.039  13.209   1.803
 7232W        W79492  22.730  26.625   2.961
 7233W        W79493  15.813   4.273   3.593
 7234W        W79494  11.298   5.953   3.403
 7235W        W79495   7.058   2.032  12.000
 7236W        W79496  20.741  23.245  12.178
 7237W        W79497  38.531  44.143  13.422
 7238W        W79498  10.254  36.351   3.331
 7239W        W79499   6.679  29.115  11.140
 7240W        W79500  28.644  25.024  11.115
 7241W        W79501  27.096  33.865  12.635
 7242W        W79502  14.745  40.409  14.456
 7243W        W79503  20.323  27.956   3.250
 7244W        W79504   3.992  29.715   4.911
 7245W        W79505   1.324  22.958   2.725
 7246W        W79506  15.308   2.705   0.907
 7247W        W79507   0.951   0.374  14.347
 7248W        W79508  12.995  20.972  12.419
 7249W        W79509   1.425   0.745  14.972
 7250W        W79510   7.438  41.799  12.525
 7251W        W79511  13.532  30.045  10.261
 7252W        W79512  33.054  28.233  10.575
 7253W        W79513  19.232  35.003   4.045
 7254W        W79514  30.212  11.860   4.089
 7255W        W79515  38.112   3.868  12.640
 7256W        W79516  22.581  33.786  13.375
 7257W        W79517  41.928  16.631   4.730
 7258W        W79518  23.632  21.177  11.985
 7259W        W79519  34.792  11.627  12.298
 7260W        W79520  17.875   7.356  12.412
 7261W        W79521  33.582   9.646   1.617
 7262W        W79522  22.971  26.607  14.500
 7263W        W79523  37.479   0.219  14.086
 7264W        W79524   9.359  43.480   4.717
 7265W        W79525  14.882  44.360  14.522
 7266W        W79526  26.420  43.381  12.529
 7267W        W79527  27.748  14.547   3.290
 7268W        W79528  42.852  20.672  11.055
 7269W        W79529   5.720   0.393  11.149
 7270W        W79530  23.145  23.917  13.601
 7271W        W79531  11.722  24.104   3.575
 7272W        W79532  15.632  35.219   1.736
 7273W        W79533   6.225  39.981  14.065
 7274W        W79534  27.469  15.301  11.944
 7275W        W79535  29.627   8.002   4.466
 7276W        W79536  42.966  23.550   0.482
 7277W        W79537   9.603  29.451  12.060
 7278W        W79538  31.370  31.265  11.860
 7279W        W79539  32.530  30.158  10.479
 7280W        W79540  10.189  41.842  11.178
 7281W        W79541  16.286   0.287  11.130
 7282W        W79542  14.819  31.664  14.841
 7283W        W79543  22.552  39.447   0.739
 7284W        W79544   8.756  31.773  13.534
 7285W        W79545  14.068  37.571   1.682
 7286W        W79546  17.197  20.159   3.180
 7287W        W79547  41.234  40.525   4.510
 7288W        W79548   9.440  38.869  10.911
 7289W        W79549  38.396  30.547   3.078
 7290W        W79550  24.477  38.996  12.988
 7291W        W79551  24.829  35.587   1.797
 7292W        W79552  39.968  22.128   0.090
 7293W        W79553  23.015  17.753  13.620
 7294W        W79554  43.828  10.387   2.386
 7295W        W79555  25.243  41.596   3.391
 7296W        W79556  24.605  21.314  13.933
 7297W        W79557  35.087  27.260  14.817
 7298W        W79558  34.979  35.605  12.426
 7299W        W79559   3.909  20.748  14.553
 7300W        W79560  11.353  35.117   0.727
 7301W        W79561   9.225  42.255  14.377
 7302W        W79562   3.902  31.927  11.611
 7303W        W79563   7.516  22.983  10.960
 7304W        W79564  44.505  16.635   0.097
 7305W        W79565  24.934  41.301   4.306
 7306W        W79566  22.068  16.632  14.081
 7307W        W79567  28.832  26.974  12.039
 7308W        W79568   9.942  40.258  12.926
 7309W        W79569  18.342  28.412  14.784
 7310W        W79570  17.265  18.141   1.928
 7311W        W79571  34.748  27.547   0.849
 7312W        W79572   9.370  37.278   1.486
 7313W        W79573  32.492  23.514  14.257
 7314W        W79574  20.548  36.595  14.365
 7315W        W79575  18.793   2.442   4.054
 7316W        W79576  29.533  35.781  14.405
 7317W        W79577   3.040  42.371   2.980
 7318W        W79578  33.904  24.668   1.335
 7319W        W79579   4.845  35.485   1.215
 7320W        W79580  24.658  16.365   4.460
 7321W        W79581  43.436  19.410   1.839
 7322W        W79582  15.149   3.925   1.435
 7323W        W79583  17.735  29.248  12.834
 7324W        W79584  36.590  40.313  13.440
 7325W        W79585  12.098   5.450   2.323
 7326W        W79586   2.470  33.472   0.081
 7327W        W79587  28.371   8.336  12.398
 7328W        W79588  12.660   8.860  13.983
 7329W        W79589  14.291  15.207   2.073
 7330W        W79590  31.632  24.002  13.773
 7331W        W79591  10.790  41.330   1.506
 7332W        W79592  17.363  16.811  14.492
 7333W        W79593  15.847  21.315  11.554
 7334W        W79594  13.635   9.113  11.176
 7335W        W79595  33.666  25.297   0.922
 7336W        W79596  42.568   2.958  13.455
 7337W        W79597  22.632   1.378  14.815
 7338W        W79598  36.563  28.649   4.401
 7339W        W79599   8.223  41.310  13.982
 7340W        W79600  42.485  17.834   0.532
 7341W        W79601  34.391  41.355  11.652
 7342W        W79602  28.928  33.992   0.195
 7343W        W79603  15.041  12.191  11.289
 7344W        W79604   2.754   8.848   3.275
 7345W        W79605  25.293  28.173   4.232
 7346W        W79606   9.251  23.082  10.635
 7347W        W79607  40.587  41.286   1.620
 7348W        W79608  23.023  19.239  13.529
 7349W        W79609   6.216  21.926   3.230
 7350W        W79610  40.948  29.785   3.951
 7351W        W79611  19.183   5.495  14.856
 7352W        W79612  37.597  16.355  12.080
 7353W        W79613  30.991  25.439  14.338
 7354W        W79614  31.484  12.435  12.401
 7355W        W79615   3.007  39.247  11.602
 7356W        W79616  16.663  20.107   2.878
 7357W        W79617  17.691   0.859  10.899
 7358W        W79618  43.242  41.864   0.387
 7359W        W79619  38.617  26.590  11.132
 7360W        W79620   4.935  40.815   0.705
 7361W        W79621  28.967  37.518   2.407
 7362W        W79622  24.204  10.328  13.548
 7363W        W79623   6.585  21.823  12.304
 7364W        W79624  21.980  29.182  12.894
 7365W        W79625   1.325  40.623  12.218
 7366W        W79626  23.258   5.351  14.288
 7367W        W79627  32.409  30.094  14.109
 7368W        W79628  25.521   9.022  14.356
 7369W        W79629  41.546  20.160   3.460
 7370W        W79630   0.153  23.073   0.346
 7371W        W79631   9.396  15.571   4.399
 7372W        W79632  37.708   7.781  13.618
 7373W        W79633   4.452   1.478  13.052
 7374W        W79634  35.583  32.723   1.005
 7375W        W79635  23.759   1.780   3.424
 7376W        W79636  36.315   5.210   1.395
 7377W        W79637  38.985  27.967  11.073
 7378W        W79638  38.619  19.098   2.394
 7379W        W79639  37.254  22.630  12.138
 7380W        W79640  29.011  38.923   3.913
 7381W        W79641  36.387  30.879   3.105
 7382W        W79642  42.421  40.033  12.523
 7383W        W79643  21.553   2.901   0.891
 7384W        W79644  34.071  40.777   0.891
 7385W        W79645  35.646  25.998   3.762
 7386W        W79646  31.321  27.490  14.327
 7387W        W79647  44.223  30.539  14.333
 7388W        W79648   6.924  16.663  12.092
 7389W        W79649  37.473  33.486  11.444
 7390W        W79650  26.981  35.876   4.113
 7391W        W79651  35.130   0.201  14.009
 7392W        W79652  27.063   6.142   4.096
 7393W        W79653  30.166  13.863  14.898
 7394W        W79654  32.853   0.677   1.014
 7395W        W79655  30.356  32.439   4.214
 7396W        W79656   9.486  15.741  10.420
 7397W        W79657   0.858  10.235   3.964
 7398W        W79658  15.068  36.478   1.262
 7399W        W79659  22.609  22.046  14.430
 7400W        W79660  10.309  34.922  11.902
 7401W        W79661  20.928   5.425  12.427
 7402W        W79662  25.923  13.840   0.551
 7403W        W79663  41.104  12.832  11.570
 7404W        W79664  18.006  33.600  11.835
 7405W        W79665  43.012  34.031   3.146
 7406W        W79666  11.353  24.270  12.476
 7407W        W79667   2.481  33.414  12.544
 7408W        W79668  23.034  18.780  10.643
 7409W        W79669  13.623  42.896   1.371
 7410W        W79670  19.429  38.459   3.903
 7411W        W79671  10.213  11.800   1.329
 7412W        W79672   9.255  22.167   2.830
 7413W        W79673   4.937  34.920   4.510
 7414W        W79674   4.347  21.067   3.172
 7415W        W79675  10.729   1.299  12.963
 7416W        W79676  29.114  28.120   4.403
 7417W        W79677  18.416  12.069   4.719
 7418W        W79678  28.315   8.299   3.118
 7419W        W79679  42.498  41.545  13.068
 7420W        W79680  38.606   2.355  12.636
 7421W        W79681  18.277  28.164  10.531
 7422W        W79682  17.317  23.930   0.337
 7423W        W79683  29.444   4.317   2.270
 7424W        W79684  26.578  31.349  11.009
 7425W        W79685   7.706  34.301  14.297
 7426W        W79686  14.253  44.217  10.997
 7427W        W79687  38.653  29.732   4.182
 7428W        W79688   3.410  38.543   2.854
 7429W        W79689  12.957  23.618   3.118
 7430W        W79690  17.739  40.282   0.889
 7431W        W79691  41.002  23.571   2.616
 7432W        W79692  26.156   1.384   2.852
 7433W        W79693  44.776  24.959   0.233
 7434W        W79694  18.546  17.545   3.113
 7435W        W79695  43.625  35.116   4.130
 7436W        W79696  12.203   2.795  11.517
 7437W        W79697  15.861   2.930   4.112
 7438W        W79698  14.465  41.757  13.841
 7439W        W79699  39.555   1.415   1.250
 7440W        W79700   5.190  16.799  14.452
 7441W        W79701  37.524  16.915   3.615
 7442W        W79702  43.224  31.618  12.051
 7443W        W79703   9.936  31.248   2.802
 7444W        W79704   4.770  10.177   3.274
 7445W        W79705   2.501  16.580   1.937
 7446W        W79706  14.065  11.128   2.785
 7447W        W79707   9.933  17.898   2.842
 7448W        W79708  30.933  14.669  14.265
 7449W        W79709  12.719   1.208  13.092
 7450W        W79710  33.572   7.195  13.883
 7451W        W79711  19.069  40.467  11.590
 7452W        W79712  31.474  28.025  10.694
 7453W        W79713  11.315  41.590   1.308
 7454W        W79714  14.719   3.312  14.779
 7455W        W79715  17.292  16.079  10.622
 7456W        W79716  36.841  18.223  11.339
 7457W        W79717  37.051  13.512  11.589
 7458W        W79718  12.188   6.118  12.461
 7459W        W79719  42.380  42.814   1.465
 7460W        W79720  17.391  10.404   3.861
 7461W        W79721   8.423   2.534  12.929
 7462W        W79722  24.112   4.666  12.015
 7463W        W79723  28.170   6.227  14.496
 7464W        W79724  27.363  12.093  13.516
 7465W        W79725  25.461  20.448  12.858
 7466W        W79726  43.557  37.039  11.310
 7467W        W79727  20.913   3.524  13.077
 7468W        W79728  23.662  37.833  10.956
 7469W        W79729  10.736   9.423  14.902
 7470W        W79730  21.975  19.679   0.019
 7471W        W79731  44.275  19.327  11.643
 7472W        W79732   0.148  16.565  14.418
 7473W        W79733  44.967  14.339  11.612
 7474W        W79734  17.060  40.514  11.530
 7475W        W79735  39.019  15.356  11.532
 7476W        W79736   6.329   5.438   2.315
 7477W        W79737   7.192   6.239  11.530
 7478W        W79738  39.738  27.088  12.508
 7479W        W79739  10.710   6.643  12.438
 7480W        W79740  10.256  38.120  14.383
 7481W        W79741  41.922  23.656  11.604
 7482W        W79742  32.395  11.681   4.778
 7483W        W79743  21.267   3.764   1.423
 7484W        W79744   3.299  10.907   1.242
 7485W        W79745  16.034  13.877   1.789
 7486W        W79746  28.619   9.281   3.623
 7487W        W79747  39.276   7.577   1.963
 7488W        W79748   2.072  15.362  11.911
 7489W        W79749  38.971   8.413  12.561
 7490W        W79750  39.521  24.909  11.912
 7491W        W79751  41.904  41.822  10.744
 7492W        W79752  13.152  29.285   1.924
 7493W        W79753  36.563  26.969  10.622
 7494W        W79754  35.818  42.986  14.401
 7495W        W79755  19.833  27.473  10.611
 7496W        W79756  25.748  30.006   4.482
 7497W        W79757  18.541  33.538  14.008
 7498W        W79758   9.411   5.141  11.214
 7499W        W79759   0.523  34.553  12.516
 7500W        W79760  38.625  11.677  14.796
 7501W        W79761   7.459   0.904   2.268
 7502W        W79762  32.588  32.599   0.580
 7503W        W79763  37.101   8.471   1.881
 7504W        W79764   4.340  14.155  12.588
 7505W        W79765  11.245  29.649   0.501
 7506W        W79766  26.539  22.309  12.358
 7507W        W79767  28.512  21.020  13.091
 7508W        W79768  34.142  20.680  11.090
 7509W        W79769  10.639  44.872  12.767
 7510W        W79770  29.066  38.409   1.800
 7511W        W79771  21.859  24.168  10.190
 7512W        W79772  37.410  38.847   2.341
 7513W        W79773  25.442  32.849   2.117
 7514W        W79774  38.253  24.504  13.422
 7515W        W79775   2.745  25.659   4.687
 7516W        W79776  30.887  32.422   0.828
 7517W        W79777  36.850  21.906   3.150
 7518W        W79778  11.898  32.660  12.561
 7519W        W79779   4.024  26.759  14.799
 7520W        W79780  41.814  39.427   0.337
 7521W        W79781   3.497  29.547   5.062
 7522W        W79782  42.624  27.606  14.392
 7523W        W79783   8.386  31.712   4.535
 7524W        W79784  18.289  29.752  14.819
 7525W        W79785  35.156  30.995   5.062
 7526W        W79786  43.865  25.425   2.699
 7527W        W79787  11.536  42.067  10.866
 7528W        W79788  19.947  18.348  11.535
 7529W        W79789   6.685   9.724   0.955
 7530W        W79790  30.612   8.826   3.806
 7531W        W79791  29.090  28.502   0.836
 7532W        W79792  20.926  35.953  10.687
 7533W        W79793  22.700  14.175  11.580
 7534W        W79794  30.877  23.708   1.369
 7535W        W79795   9.436   1.856   5.108
 7536W        W79796  15.878  17.980  11.961
 7537W        W79797  19.285   3.257   1.831
 7538W        W79798  12.233  44.227  14.888
 7539W        W79799  18.017  23.591  13.498
 7540W        W79800  34.808  37.455  10.681
 7541W        W79801  33.012  21.043  12.890
 7542W        W79802  25.180  36.889   3.211
 7543W        W79803   5.371  41.762  11.736
 7544W        W79804  23.425   4.460   1.877
 7545W        W79805  16.819  25.853   3.648
 7546W        W79806  43.219   8.212   4.717
 7547W        W79807  25.734   8.777   9.902
 7548W        W79808  32.686  10.773  12.751
 7549W        W79809   7.484  37.919  12.781
 7550W        W79810  30.666   1.195   4.346
 7551W        W79811   4.574   3.479  11.116
 7552W        W79812  34.056  19.203  13.790
 7553W        W79813  11.898  34.887   2.169
 7554W        W79814   8.805  26.212   3.200
 7555W        W79815  43.791  11.179   0.641
 7556W        W79816  13.186  23.287   2.655
 7557W        W79817  11.625  20.776   3.860
 7558W        W79818  13.118  15.532  11.341
 7559W        W79819  20.674   9.421  13.478
 7560W        W79820  23.091  12.161  12.855
 7561W        W79821  41.427  21.950  14.024
 7562W        W79822   6.968  38.882   3.111
 7563W        W79823  15.973  29.659   4.141
 7564W        W79824  34.391   0.068   0.842
 7565W        W79825  22.050  37.695  13.524
 7566W        W79826  26.902  41.378   4.182
 7567W        W79827  21.148  19.699  11.246
 7568W        W79828   0.829   3.760  13.391
 7569W        W79829  26.081   2.307   2.907
 7570W        W79830  33.994  35.376   2.372
 7571W        W79831  12.903   5.475  11.128
 7572W        W79832  44.372  23.839   0.991
 7573W        W79833   6.635   8.466  10.541
 7574W        W79834  16.650  24.970   1.799
 7575W        W79835  11.261  42.363   0.567
 7576W        W79836  32.515  23.827   3.800
 7577W        W79837  11.983  21.781  13.620
 7578W        W79838  15.024  34.424  11.423
 7579W        W79839  11.203  26.928  14.537
 7580W        W79840  43.555  25.045  12.113
 7581W        W79841  34.346  30.477   1.899
 7582W        W79842  35.339   6.241  10.787
 7583W        W79843  30.585   6.336   0.224
 7584W        W79844  29.021  37.465   2.903
 7585W        W79845  19.923  28.508   0.342
 7586W        W79846  12.789  28.507   2.305
 7587W        W79847  13.812  15.151   2.280
 7588W        W79848  23.510  44.703  13.524
 7589W        W79849  21.028  41.785   1.311
 7590W        W79850  25.641  28.073   2.451
 7591W        W79851   5.036  17.044   3.205
 7592W        W79852  17.106   3.455   0.218
 7593W        W79853  44.173  22.667  14.058
 7594W        W79854  17.300  18.747   3.771
 7595W        W79855   7.577  30.882  14.529
 7596W        W79856   6.297  20.536   3.139
 7597W        W79857   7.730   6.885  11.135
 7598W        W79858  26.078  44.193  10.644
 7599W        W79859   0.454  16.146  10.788
 7600W        W79860  11.757  10.784  13.099
 7601W        W79861  16.200  44.743   3.039
 7602W        W79862  12.781  28.963   2.056
 7603W        W79863  15.560  43.240  11.544
 7604W        W79864   8.771   3.525   2.636
 7605W        W79865  30.476  17.770   4.267
 7606W        W79866  36.996  38.018  13.837
 7607W        W79867  32.458   9.624  11.065
 7608W        W79868  31.443  28.823   3.230
 7609W        W79869  36.060  12.748   4.320
 7610W        W79870  24.965  34.929  13.586
 7611W        W79871  32.318  32.729   2.175
 7612W        W79872  43.217  40.964  12.953
 7613W        W79873   1.353  44.912  11.719
 7614W        W79874  39.952   5.487  14.783
 7615W        W79875  20.109  19.561   2.674
 7616W        W79876  13.604  42.358   3.711
 7617W        W79877  22.755  26.772   1.328
 7618W        W79878  37.159   4.878   0.736
 7619W        W79879  22.696  15.090  13.871
 7620W        W79880   2.909   9.444   2.192
 7621W        W79881  42.828   0.995   1.719
 7622W        W79882  32.477  30.958   3.088
 7623W        W79883   3.705   3.080  11.580
 7624W        W79884  19.647  18.287  12.563
 7625W        W79885  17.318  16.013  12.992
 7626W        W79886  35.600  22.188   0.166
 7627W        W79887   9.058  33.104   2.801
 7628W        W79888  16.700  22.026   3.152
 7629W        W79889  22.534  23.415  14.355
 7630W        W79890   5.762  39.105   3.182
 7631W        W79891  18.229  42.112   1.236
 7632W        W79892  44.558  19.948   4.222
 7633W        W79893   4.135  32.782   0.445
 7634W        W79894  29.460  41.588  14.065
 7635W        W79895  16.207  18.688  13.887
 7636W        W79896  23.511   2.911  12.393
 7637W        W79897  19.795  12.873  13.039
 7638W        W79898  38.666   6.005   2.239
 7639W        W79899   3.350  15.606  10.517
 7640W        W79900   9.312  22.238  13.391
 7641W        W79901  22.292  37.485   1.955
 7642W        W79902  14.781   3.053   2.851
 7643W        W79903   9.811  10.104   4.668
 7644W        W79904  29.557  42.157   2.838
 7645W        W79905  31.126  17.294   4.799
 7646W        W79906   7.265  14.061  14.235
 7647W        W79907  43.523  25.137  13.014
 7648W        W79908  31.986  32.970   0.725
 7649W        W79909   8.031  34.008   0.213
 7650W        W79910   0.719   4.091  13.819
 7651W        W79911   2.327  26.874  12.074
 7652W        W79912  38.861  25.939   0.769
 7653W        W79913  21.925   8.715   3.676
 7654W        W79914  17.291  31.023  12.589
 7655W        W79915  20.276  23.980   0.699
 7656W        W79916  16.259  11.246   0.294
 7657W        W79917  44.328   2.511   3.384
 7658W        W79918  37.913  13.024  12.570
 7659W        W79919   2.949   4.858  11.177
 7660W        W79920  38.712  17.711  14.884
 7661W        W79921  43.094  40.426   4.138
 7662W        W79922   8.710  40.536   4.691
 7663W        W79923  17.943  19.101  14.880
 7664W        W79924   4.491  42.204   3.954
 7665W        W79925  44.257  40.355   0.867
 7666W        W79926  38.548   5.463   2.259
 7667W        W79927  44.935  42.986   4.133
 7668W        W79928   9.164  39.936   3.630
 7669W        W79929  34.898  11.339   3.270
 7670W        W79930  11.133  12.535  14.869
 7671W        W79931  37.424   1.235   4.887
 7672W        W79932   6.934  36.087  14.461
 7673W        W79933  37.037  36.327  12.346
 7674W        W79934  25.885   6.550   2.462
 7675W        W79935  24.293   2.444  13.491
 7676W        W79936  44.059  17.767   1.477
 7677W        W79937  35.608  43.410   2.414
 7678W        W79938   6.299  33.894   3.219
 7679W        W79939  38.915   5.340   2.788
 7680W        W79940  13.149  36.085   2.864
 7681W        W79941  20.199   3.609  13.588
 7682W        W79942  26.954   5.654  13.941
 7683W        W79943  40.577  12.718  13.115
 7684W        W79944  13.786  36.015  11.544
 7685W        W79945  40.349  24.714   2.582
 7686W        W79946  33.023   7.979   4.495
 7687W        W79947  23.336  28.023  11.529
 7688W        W79948   7.260   6.791  11.364
 7689W        W79949  31.941  41.259   1.752
 7690W        W79950   0.365  42.373   4.481
 7691W        W79951  10.921  26.055   1.247
 7692W        W79952   4.607  26.281   5.047
 7693W        W79953  16.739  20.092  13.119
 7694W        W79954  33.664  16.215   0.209
 7695W        W79955  41.543  42.810   2.083
 7696W        W79956   3.870   0.773   0.798
 7697W        W79957  14.815  13.660   4.196
 7698W        W79958  44.446  15.879   1.250
 7699W        W79959  40.432  25.761  14.196
 7700W        W79960   5.661   1.871   0.850
 7701W        W79961  36.015  11.341  11.085
 7702W        W79962  26.237  43.452  14.439
 7703W        W79963  30.912   8.395   3.732
 7704W        W79964  19.771   9.243   1.370
 7705W        W79965  39.611  16.877  11.983
 7706W        W79966  11.860  10.054  11.659
 7707W        W79967   4.865  38.670  10.063
 7708W        W79968  28.163  28.128  12.099
 7709W        W79969   5.026   9.871   0.320
 7710W        W79970  22.646  36.069  12.526
 7711W        W79971  19.097  43.021   1.491
 7712W        W79972  41.394  29.730   3.658
 7713W        W79973   9.928  23.468  11.202
 7714W        W79974  22.511  29.124   2.779
 7715W        W79975   1.764  19.464  11.596
 7716W        W79976  13.124  30.902  14.469
 7717W        W79977  19.293  13.392  11.589
 7718W        W79978  39.737  42.326  12.769
 7719W        W79979  11.476  28.564   0.338
 7720W        W79980   2.576  38.745   0.700
 7721W        W79981   5.031  37.450  12.793
 7722W        W79982  44.837  11.709  12.497
 7723W        W79983  34.036  19.574   4.789
 7724W        W79984   3.826  22.442   1.379
 7725W        W79985  31.486   7.396   1.443
 7726W        W79986   1.639  22.991  11.610
 7727W        W79987  13.581  31.991  12.011
 7728W        W79988  25.496  10.971   1.187
 7729W        W79989  26.990  30.033  12.838
 7730W        W79990  17.173  22.375   0.771
 7731W        W79991  30.416  37.872   4.868
 7732W        W79992   0.467  41.834  12.160
 7733W        W79993  28.567  44.228  12.552
 7734W        W79994  31.637  34.135  12.047
 7735W        W79995  12.981  12.664  13.152
 7736W        W79996   9.026   2.310  14.637
 7737W        W79997  10.162  42.280  10.265
 7738W        W79998  27.637  25.944   0.481
 7739W        W79999   1.462   3.474  12.996
 7740W        W80000  13.330  26.377  14.289
 7741W        W80001  29.949  37.514   2.760
 7742W        W80002  16.130   9.148   1.341
 7743W        W80003  22.070  20.630   1.737
 7744W        W80004   7.340   0.417  12.057
 7745W        W80005   7.578  27.135   3.191
 7746W        W80006   9.244  42.286   4.029
 7747W        W80007  44.375  41.779   3.236
 7748W        W80008  23.531  18.595  14.744
 7749W        W80009   6.825  30.523   3.640
 7750W        W80010  12.607  19.964   4.289
 7751W        W80011  28.861  35.009  10.616
 7752W        W80012  27.943   7.856   0.992
 7753W        W80013   8.941  27.418   2.352
 7754W        W80014  19.767  12.695  10.532
 7755W        W80015  14.403  11.470   2.239
 7756W        W80016   3.249  17.141  10.634
 7757W        W80017  20.563  39.547  11.641
 7758W        W80018  22.548   1.708   2.247
 7759W        W80019  43.743  39.757   4.742
 7760W        W80020  11.148  26.065  10.635
 7761W        W80021  21.920  35.331  14.811
 7762W        W80022  24.633  41.558   0.361
 7763W        W80023  12.378   9.244  14.177
 7764W        W80024  26.211   3.807   1.219
 7765W        W80025   2.866   1.658   1.473
 7766W        W80026   9.613  41.710   1.778
 7767W        W80027  12.659   2.955   3.833
 7768W        W80028  15.085  25.730  12.460
 7769W        W80029  11.783  13.084  10.745
 7770W        W80030  28.515  41.070  14.539
 7771W        W80031   2.349   6.797   0.735
 7772W        W80032  11.568   5.349   4.038
 7773W        W80033  21.779  28.922  11.277
 7774W        W80034  35.247  19.794  11.115
 7775W        W80035  31.828  29.444   3.530
 7776W        W80036  42.839  20.679   0.684
 7777W        W80037  33.522  36.480  13.134
 7778W        W80038  22.807  13.261  14.933
 7779W        W80039   4.376  25.563  10.318
 7780W        W80040   8.125  30.642   3.612
 7781W        W80041  12.848   7.109  11.155
 7782W        W80042  31.458  41.085   2.779
 7783W        W80043  37.713   1.440   3.392
 7784W        W80044   2.922  12.832  12.108
 7785W        W80045  17.413  26.061  13.211
 7786W        W80046   6.479  11.358   2.346
 7787W        W80047  41.995  16.788   0.975
 7788W        W80048  21.998  36.584   1.878
 7789W        W80049  28.650  11.682  14.111
 7790W        W80050  40.359  37.948  14.438
 7791W        W80051  31.484  41.393  11.925
 7792W        W80052   7.382  37.886  14.409
 7793W        W80053  17.614  43.295   4.282
 7794W        W80054  42.201  14.253  12.978
 7795W        W80055  14.808  30.251   3.742
 7796W        W80056  29.205  27.008   1.916
 7797W        W80057  39.772  33.876   1.201
 7798W        W80058  43.460  31.357  13.499
 7799W        W80059  28.412   8.717   3.806
 7800W        W80060  23.144  44.857  11.026
 7801W        W80061  44.296   7.873  12.463
 7802W        W80062  18.734  36.637   4.484
 7803W        W80063  16.682  34.503   0.354
 7804W        W80064   0.745  24.495   3.271
 7805W        W80065  27.721  21.272   4.111
 7806W        W80066  36.285  16.066  11.563
 7807W        W80067  39.764  38.949   4.110
 7808W        W80068  31.785   0.551   2.290
 7809W        W80069   1.808  32.731  10.549
 7810W        W80070   4.779   7.377  13.891
 7811W        W80071  23.774   9.329   1.659
 7812W        W80072  12.232  34.337  11.125
 7813W        W80073  43.839  32.596  11.261
 7814W        W80074  30.972  40.492  14.903
 7815W        W80075   3.286  12.034  14.349
 7816W        W80076   2.336  12.792   1.186
 7817W        W80077   4.912  40.498  11.938
 7818W        W80078   4.923  29.050  13.570
 7819W        W80079  16.614  35.093   2.737
 7820W        W80080   9.423   0.992  11.637
 7821W        W80081   2.020   5.008   2.577
 7822W        W80082   8.256  32.224  12.388
 7823W        W80083  24.006  39.341  10.804
 7824W        W80084   3.747   1.825   3.797
 7825W        W80085  40.323  16.271  14.690
 7826W        W80086  21.105  31.940   4.076
 7827W        W80087   2.932  12.268   4.300
 7828W        W80088  26.017  10.293   1.278
 7829W        W80089  10.367   2.826  12.493
 7830W        W80090  13.019  17.622  14.062
 7831W        W80091  36.885  20.678  11.651
 7832W        W80092  30.859  27.132  11.941
 7833W        W80093  34.168  16.735   3.612
 7834W        W80094   1.815  34.512   1.893
 7835W        W80095   7.088   2.137  13.267
 7836W        W80096  43.857  33.430  10.641
 7837W        W80097  15.101   8.324   1.904
 7838W        W80098  28.901  25.301  11.943
 7839W        W80099  26.307  19.204  12.830
 7840W        W80100   7.470  40.107  13.517
 7841W        W80101  17.894  43.315   2.820
 7842W        W80102  19.268  33.300  13.388
 7843W        W80103  10.237  34.431   0.081
 7844W        W80104  27.115  15.731  10.218
 7845W        W80105  13.556  32.168   1.544
 7846W        W80106   7.698   7.517   2.630
 7847W        W80107  28.532  41.916  12.815
 7848W        W80108   3.223   8.206   4.377
 7849W        W80109  19.213  40.390   1.752
 7850W        W80110   0.669  26.879   1.264
 7851W        W80111  25.937  30.318   4.113
 7852W        W80112   6.858  37.044  13.033
 7853W        W80113  39.356   1.050  14.363
 7854W        W80114   0.126  26.120   3.662
 7855W        W80115   1.174  18.568  14.228
 7856W        W80116  20.033  15.565   0.884
 7857W        W80117   8.208  23.561   3.975
 7858W        W80118  34.622  44.441  13.926
 7859W        W80119  30.183   4.855   3.901
 7860W        W80120  44.555  14.642   5.358
 7861W        W80121   1.528  20.414   2.551
 7862W        W80122  41.795  36.195   1.385
 7863W        W80123   1.239  25.881  11.947
 7864W        W80124  39.804  35.426   4.105
 7865W        W80125  28.456   1.405   1.903
 7866W        W80126   0.262   4.732  10.773
 7867W        W80127  28.682   4.251   0.012
 7868W        W80128  32.523  19.819  13.998
 7869W        W80129   1.495  38.448   2.164
 7870W        W80130  17.283  43.154  13.996
 7871W        W80131  37.650  43.370  13.801
 7872W        W80132   3.760   9.389   0.009
 7873W        W80133  10.281  43.037  11.584
 7874W        W80134  35.948   5.444   0.104
 7875W        W80135   3.854  19.963   4.499
 7876W        W80136  33.952  25.197   1.344
 7877W        W80137  44.557   4.245  12.473
 7878W        W80138  43.900   8.306  11.147
 7879W        W80139  24.227  41.778  10.350
 7880W        W80140  23.056  12.751  11.608
 7881W        W80141  31.471  19.514  14.375
 7882W        W80142   5.593   8.974   3.346
 7883W        W80143  34.391  39.130   1.761
 7884W        W80144  35.312  19.617  12.610
 7885W        W80145  37.816  40.850  12.949
 7886W        W80146   3.767  37.534   1.877
 7887W        W80147  40.656  13.513  13.488
 7888W        W80148  30.913  34.208   0.415
 7889W        W80149  36.590   8.954   5.462
 7890W        W80150  14.282   4.986  13.576
 7891W        W80151  29.448   3.389   2.703
 7892W        W80152  26.144  38.058  11.925
 7893W        W80153   5.920  21.565   4.573
 7894W        W80154   2.903   0.301   2.778
 7895W        W80155  28.617  17.835   3.215
 7896W        W80156  11.950  17.149   5.026
 7897W        W80157  35.141  10.594   2.691
 7898W        W80158  24.988  39.049  12.884
 7899W        W80159   3.330   8.126   1.959
 7900W        W80160  26.752   9.867  13.469
 7901W        W80161  13.062  14.556  14.979
 7902W        W80162  32.593  36.622   3.606
 7903W        W80163   2.738  43.368  10.810
 7904W        W80164  26.539  41.872   3.312
 7905W        W80165  12.828   8.498   2.556
 7906W        W80166  38.405  33.136  13.808
 7907W        W80167  43.469   0.739  10.714
 7908W        W80168  23.049  29.339   4.135
 7909W        W80169  41.030  36.530   2.068
 7910W        W80170  38.273  43.385   4.029
 7911W        W80171  44.447  34.201   1.699
 7912W        W80172   3.277  34.611  11.438
 7913W        W80173   1.605  36.517   1.366
 7914W        W80174  28.396  43.939   1.278
 7915W        W80175   5.484  14.234   2.936
 7916W        W80176  35.646  24.182   0.316
 7917W        W80177   3.442  16.737  13.431
 7918W        W80178  42.315   6.703   0.055
 7919W        W80179  22.814   3.801  13.950
 7920W        W80180   1.829   1.532  13.084
 7921W        W80181  26.013  20.923  13.384
 7922W        W80182  44.645   0.651  13.516
 7923W        W80183   8.340  27.121  14.273
 7924W        W80184  34.522  40.939   4.124
 7925W        W80185   0.893  30.976   4.638
 7926W        W80186  17.796  16.339  12.419
 7927W        W80187  15.861  35.961   1.238
 7928W        W80188  19.775  16.122  10.617
 7929W        W80189  37.657  39.279  11.177
 7930W        W80190   6.236   6.382   3.839
 7931W        W80191  35.068  18.211  10.205
 7932W        W80192   0.291   0.993   4.350
 7933W        W80193   9.210   4.308   4.613
 7934W        W80194  24.692  39.929  11.301
 7935W        W80195  23.862  13.623  11.074
 7936W        W80196  41.524  14.721  10.674
 7937W        W80197  39.509  23.605   2.777
 7938W        W80198  41.029  25.148   1.791
 7939W        W80199  40.997  13.742  13.156
 7940W        W80200  42.447   5.739  10.582
 7941W        W80201  27.626  35.321  12.523
 7942W        W80202  40.469  38.548   1.148
 7943W        W80203  11.672  32.835   1.435
 7944W        W80204  33.832  31.581  13.322
 7945W        W80205  24.019   2.662   2.139
 7946W        W80206   1.297  18.290  10.783
 7947W        W80207  19.709  13.232  11.331
 7948W        W80208  16.754  28.428  11.614
 7949W        W80209  12.760   7.523  13.863
 7950W        W80210   3.848  20.264   3.205
 7951W        W80211  37.332  31.905  12.672
 7952W        W80212  20.066  43.760   2.712
 7953W        W80213  32.951  15.019  12.109
 7954W        W80214  24.988  34.817   2.884
 7955W        W80215  12.241  38.600   0.120
 7956W        W80216  31.931  29.918   0.996
 7957W        W80217  26.488  31.583  13.781
 7958W        W80218  41.973  11.384  11.398
 7959W        W80219   2.912  32.134  10.739
 7960W        W80220  21.448  42.326  14.850
 7961W        W80221  28.730  42.402  13.270
 7962W        W80222  22.437  32.305  11.061
 7963W        W80223  39.319   4.304   0.483
 7964W        W80224  41.068  21.271  12.710
 7965W        W80225  20.261  33.485  14.377
 7966W        W80226   4.842  34.983   2.074
 7967W        W80227  36.187   6.346   4.143
 7968W        W80228  18.667   6.357  13.436
 7969W        W80229  30.460  14.872  14.127
 7970W        W80230  27.669  41.453  13.241
 7971W        W80231  26.240  16.175  14.428
 7972W        W80232  25.105   9.757  12.010
 7973W        W80233   1.510   9.351  12.980
 7974W        W80234  15.055   2.566   4.069
 7975W        W80235  29.669   2.761   3.293
 7976W        W80236  20.607  40.589  11.150
 7977W        W80237   8.272  24.653  14.025
 7978W        W80238  25.659  21.722   1.417
 7979W        W80239  25.674  44.773  14.259
 7980W        W80240  37.290   5.623   1.748
 7981W        W80241  24.212   6.437  11.144
 7982W        W80242  37.456  40.010  12.145
 7983W        W80243   2.524  27.074  11.627
 7984W        W80244   8.776   8.258  11.594
 7985W        W80245  19.676  31.019  13.437
 7986W        W80246  26.564  42.203   0.201
 7987W        W80247   9.813  12.396   4.078
 7988W        W80248  39.624   9.377   3.226
 7989W        W80249  14.160  16.056  12.102
 7990W        W80250  32.181  20.006   4.592
 7991W        W80251  31.280  43.993  14.101
 7992W        W80252  17.015  25.517  13.975
 7993W        W80253  11.266  14.696  14.773
 7994W        W80254  26.365  36.318  12.495
 7995W        W80255  24.515  11.611   2.806
 7996W        W80256  35.804  19.742   3.735
 7997W        W80257   2.055  11.399  11.395
 7998W        W80258  11.107  18.578  14.416
 7999W        W80259  44.899   9.796   0.817
 8000W        W80260  33.959  26.180   4.951
 8001W        W80261   5.140  32.129  12.918
 8002W        W80262  14.765   0.672   4.093
 8003W        W80263  14.678  30.466   0.865
 8004W        W80264  29.407   3.412  13.495
 8005W        W80265  33.919   8.138  14.000
 8006W        W80266  11.138   2.739  11.509
 8007W        W80267  35.616  32.960   0.079
 8008W        W80268  16.846  29.251  12.886
 8009W        W80269  36.605   3.286   0.020
 8010W        W80270  11.655  32.298   4.862
 8011W        W80271  25.527  41.088  10.658
 8012W        W80272  39.497  38.579   0.937
 8013W        W80273  26.639  29.175  14.094
 8014W        W80274  44.469  29.227   3.250
 8015W        W80275  17.274  14.216  10.025
 8016W        W80276  31.568  23.507  12.815
 8017W        W80277  30.503  32.950   4.105
 8018W        W80278  30.645  22.773  12.816
 8019W        W80279   3.932  23.958  13.422
 8020W        W80280   7.447   0.992  13.819
 8021W        W80281   9.776  29.422   4.492
 8022W        W80282  35.961  35.950   3.434
 8023W        W80283   1.527   2.146  10.497
 8024W        W80284  22.531  15.303  11.041
 8025W        W80285  37.833   9.783  12.778
 8026W        W80286  44.874  24.276  14.349
 8027W        W80287  10.204   8.599   3.638
 8028W        W80288  15.215  34.069  11.734
 8029W        W80289  35.512  35.824  14.858
 8030W        W80290  22.756  25.385   2.707
 8031W        W80291  11.197  24.659   4.672
 8032W        W80292  10.804  39.049  11.952
 8033W        W80293   5.661  39.620  11.171
 8034W        W80294  36.058  10.914   1.369
 8035W        W80295  41.900  21.481  14.695
 8036W        W80296  36.033   7.695   4.290
 8037W        W80297  11.817  12.473   0.087
 8038W        W80298  34.882  40.369  12.913
 8039W        W80299  34.348   1.022  11.601
 8040W        W80300  17.313  19.291  12.937
 8041W        W80301  25.163  15.152   3.235
 8042W        W80302  21.169   8.310   4.338
 8043W        W80303  18.609  14.688  14.950
 8044W        W80304  18.492  33.876  12.860
 8045W        W80305  37.415   0.723   2.342
 8046W        W80306   3.359  31.513   3.243
 8047W        W80307  22.275  13.213  14.997
 8048W        W80308  15.234  10.294   1.619
 8049W        W80309  21.220  19.932   4.649
 8050W        W80310  28.464  24.613   3.831
 8051W        W80311  40.984  21.502  11.206
 8052W        W80312  25.436  40.043   4.324
 8053W        W80313  22.859  40.229   3.751
 8054W        W80314  24.238  23.983  10.419
 8055W        W80315  31.605   2.763   2.924
 8056W        W80316   3.122   4.450   2.360
 8057W        W80317  37.875  30.348   4.077
 8058W        W80318   6.766  27.217  11.351
 8059W        W80319   5.249  33.616   3.513
 8060W        W80320  27.605  44.994  14.879
 8061W        W80321   7.706  22.289   3.752
 8062W        W80322   4.652  12.598   2.349
 8063W        W80323  22.096   4.862  11.160
 8064W        W80324  21.550  36.831   4.175
 8065W        W80325  20.133  23.762  11.446
 8066W        W80326  43.834   3.242  12.526
 8067W        W80327  37.222  19.887  12.451
 8068W        W80328  21.754  27.851  14.880
 8069W        W80329  39.029  17.226   2.176
 8070W        W80330  32.697  15.029  12.982
 8071W        W80331   3.207  42.616  11.199
 8072W        W80332  35.546   3.598  14.252
 8073W        W80333  20.009  22.076  11.434
 8074W        W80334  21.112  42.876  11.946
 8075W        W80335  18.981  10.809   3.683
 8076W        W80336  29.663  22.055   4.105
 8077W        W80337   5.117  25.611   9.964
 8078W        W80338  39.450   2.472  10.759
 8079W        W80339   4.657  44.364   2.222
 8080W        W80340  37.150  16.187   3.419
 8081W        W80341  43.007  12.259   3.412
 8082W        W80342  27.951  25.505  13.465
 8083W        W80343  41.034  25.544  11.210
 8084W        W80344  20.051   4.945  13.000
 8085W        W80345  10.667  10.330  12.515
 8086W        W80346  10.723  32.087   9.851
 8087W        W80347   1.380  28.444   2.311
 8088W        W80348  38.401  27.482  13.428
 8089W        W80349  18.470  44.371   4.513
 8090W        W80350  32.986   9.721   3.154
 8091W        W80351  15.828  44.792   2.669
 8092W        W80352   0.817  15.828  14.230
 8093W        W80353  11.236  22.049   1.330
 8094W        W80354   8.709  39.441   4.137
 8095W        W80355  25.950  10.921  11.071
 8096W        W80356  44.945   1.786   1.264
 8097W        W80357   1.967   2.193   2.859
 8098W        W80358  22.238  24.163   0.021
 8099W        W80359  22.010  31.998   0.941
 8100W        W80360  10.811   0.426   2.312
 8101W        W80361  34.571  33.052  11.950
 8102W        W80362   0.787  44.508   1.816
 8103W        W80363  21.093  26.465  14.725
 8104W        W80364  31.022  35.558   2.336
 8105W        W80365  44.217  40.949  12.081
 8106W        W80366   4.379  18.191  13.013
 8107W        W80367  22.291  23.648  14.876
 8108W        W80368  37.129  12.165   4.250
 8109W        W80369  36.922  28.071  13.070
 8110W        W80370  24.460   9.223  11.710
 8111W        W80371   4.637  11.212   0.455
 8112W        W80372  18.860   1.983  10.486
 8113W        W80373   5.723  16.360   3.359
 8114W        W80374  18.736   6.832  13.807
 8115W        W80375  13.678  14.927  11.598
 8116W        W80376  28.436  24.847  12.874
 8117W        W80377  29.729  15.881  13.610
 8118W        W80378  42.780  17.710   3.304
 8119W        W80379  41.382   0.845  13.833
 8120W        W80380  26.004  16.527   4.529
 8121W        W80381   5.637  39.076   4.146
 8122W        W80382  20.681  36.558  12.787
 8123W        W80383   2.958  27.547   1.677
 8124W        W80384  15.199  19.051  12.540
 8125W        W80385  20.010  22.618   1.725
 8126W        W80386  18.318  28.696  12.145
 8127W        W80387  24.112  17.263  10.721
 8128W        W80388  22.905   8.985   3.706
 8129W        W80389   8.004  30.412   5.071
 8130W        W80390  10.662  22.597  10.661
 8131W        W80391  38.837  34.691  14.422
 8132W        W80392   0.473  27.430  13.058
 8133W        W80393  23.655   8.159   1.367
 8134W        W80394  13.649  33.028   2.534
 8135W        W80395  34.151  28.542   1.284
 8136W        W80396  41.837  26.407  13.532
 8137W        W80397  14.825  28.912   1.485
 8138W        W80398  44.796  11.663   2.169
 8139W        W80399   3.459   3.675   3.699
 8140W        W80400  31.425  26.735   0.273
 8141W        W80401  26.701  24.515  13.697
 8142W        W80402   8.646   4.678  10.887
 8143W        W80403  11.960  39.472  14.974
 8144W        W80404  41.121  32.031   5.210
 8145W        W80405  37.904   3.252   4.922
 8146W        W80406  30.525   7.635   0.302
 8147W        W80407  37.610  40.258   0.856
 8148W        W80408  43.847  30.509  11.966
 8149W        W80409  36.623  39.299   2.772
 8150W        W80410   3.860  36.870  11.963
 8151W        W80411  13.102   4.652  11.082
 8152W        W80412  44.663   7.718  14.400
 8153W        W80413  42.324  43.837  13.932
 8154W        W80414   2.476  23.273  14.966
 8155W        W80415  25.562  24.956   4.105
 8156W        W80416   4.474  29.264   1.758
 8157W        W80417  40.022  24.957   1.808
 8158W        W80418   8.619   6.858  10.330
 8159W        W80419   8.757   2.244  10.781
 8160W        W80420  19.934  37.428   0.451
 8161W        W80421  19.254  10.903   4.140
 8162W        W80422  13.312  30.236  12.020
 8163W        W80423  22.020   6.663   4.581
 8164W        W80424  15.370  33.092   3.198
 8165W        W80425  12.139   7.119  11.407
 8166W        W80426  41.452  18.698  14.297
 8167W        W80427  13.057  29.711   4.270
 8168W        W80428  38.475   5.269  14.023
 8169W        W80429   9.886  15.902   2.772
 8170W        W80430  25.963   0.234   3.907
 8171W        W80431  39.018  13.860  12.187
 8172W        W80432   4.873  37.296   2.904
 8173W        W80433  30.623  13.677   1.643
 8174W        W80434  25.691  18.533  14.351
 8175W        W80435  22.558  27.679   3.703
 8176W        W80436  42.746  31.824   0.867
 8177W        W80437  27.430  31.180   5.040
 8178W        W80438  11.155   3.504  14.035
 8179W        W80439  40.368  19.616   2.006
 8180W        W80440  27.872  20.455  12.953
 8181W        W80441  33.081  42.012  13.257
 8182W        W80442  43.837   8.957   4.212
 8183W        W80443  18.931  18.936  13.535
 8184W        W80444   4.663  25.854   9.992
 8185W        W80445  18.069  30.108  14.477
 8186W        W80446  14.387  17.896  14.991
 8187W        W80447   1.032  14.461   2.367
 8188W        W80448   7.689  40.450  11.263
 8189W        W80449   4.743   0.986  11.070
 8190W        W80450  38.577  11.160  14.807
 8191W        W80451  18.484   8.227  13.549
 8192W        W80452  25.626  28.168   3.433
 8193W        W80453  13.830  13.614   1.381
 8194W        W80454  28.462  37.327  14.275
 8195W        W80455  23.559  41.053   2.782
 8196W        W80456  32.932  33.203  10.833
 8197W        W80457  35.335  32.818  10.615
 8198W        W80458   4.896  12.849  10.274
 8199W        W80459  18.129  15.019  10.845
 8200W        W80460  29.873  37.790   2.283
 8201W        W80461  26.024  14.812  11.629
 8202W        W80462  35.479  23.135   1.243
 8203W        W80463   9.669  43.189  14.558
 8204W        W80464   2.185  12.290  12.613
 8205W        W80465  43.343  26.555  10.002
 8206W        W80466  25.720  41.942   2.220
 8207W        W80467  16.045  18.100  14.619
 8208W        W80468  16.660  41.848  12.217
 8209W        W80469  33.349  23.114  12.686
 8210W        W80470  30.312  43.095  13.609
 8211W        W80471  26.590   0.581  12.372
 8212W        W80472  44.538  11.187   3.843
 8213W        W80473   5.003   4.265  13.099
 8214W        W80474  12.873   6.595  11.291
 8215W        W80475  41.454  44.700   0.443
 8216W        W80476  30.724  11.953   1.352
 8217W        W80477  23.158  18.566   1.323
 8218W        W80478  30.422   2.255  13.403
 8219W        W80479  21.488  34.892  14.446
 8220W        W80480  33.540  11.711  10.815
 8221W        W80481  18.163  43.421  14.824
 8222W        W80482  18.965   4.759  12.596
 8223W        W80483   7.284   8.240  13.486
 8224W        W80484  31.611  30.662  12.039
 8225W        W80485  23.063   1.743  14.776
 8226W        W80486  41.533  13.336   4.214
 8227W        W80487  39.153  38.209  12.342
 8228W        W80488  39.283  24.325   4.995
 8229W        W80489   9.718   9.402  13.056
 8230W        W80490   1.525  26.563  11.306
 8231W        W80491  23.167  18.376   2.786
 8232W        W80492   3.504  33.427  12.504
 8233W        W80493  25.054  10.333   4.545
 8234W        W80494  28.630  18.692   2.321
 8235W        W80495  12.495  40.879   4.353
 8236W        W80496  42.488  34.147  11.154
 8237W        W80497  39.055  26.171  13.834
 8238W        W80498  33.989   9.770   2.228
 8239W        W80499  28.467   4.848   3.632
 8240W        W80500  13.636  21.573  14.395
 8241W        W80501  26.277  11.851  10.758
 8242W        W80502   8.420  25.862   3.296
 8243W        W80503  30.975  29.046   3.411
 8244W        W80504  12.618   9.654   0.754
 8245W        W80505  38.341  38.496  12.870
 8246W        W80506  34.908  10.281  13.372
 8247W        W80507  13.851  26.231  13.439
 8248W        W80508  28.730  14.573   1.222
 8249W        W80509  40.951  24.297   1.804
 8250W        W80510  23.826  25.888  13.380
 8251W        W80511  24.153  38.764   1.007
 8252W        W80512  15.518  13.239   3.055
 8253W        W80513  40.136  35.071  11.528
 8254W        W80514   1.651  32.794  13.938
 8255W        W80515  28.503   9.307  10.600
 8256W        W80516  13.219  31.639   3.284
 8257W        W80517  12.618  37.019   2.376
 8258W        W80518  24.084  27.223  10.985
 8259W        W80519  39.109   2.935   0.390
 8260W        W80520  10.097   8.714   2.608
 8261W        W80521  17.258  21.223   4.476
 8262W        W80522  22.664   9.964   0.692
 8263W        W80523  36.538   6.240   3.788
 8264W        W80524  40.529   3.873  11.197
 8265W        W80525   8.748   8.126  14.441
 8266W        W80526   9.576  23.432   0.897
 8267W        W80527  32.574   4.701   0.836
 8268W        W80528  25.409  41.670  13.875
 8269W        W80529  21.983  18.711   0.917
 8270W        W80530   2.453  12.298   1.431
 8271W        W80531  24.239  16.860  14.933
 8272W        W80532   0.130   8.863  14.434
 8273W        W80533  38.493   4.636  13.844
 8274W        W80534  10.908  21.626  13.573
 8275W        W80535  38.697   1.770  13.079
 8276W        W80536  13.082  22.702  14.953
 8277W        W80537  19.982   6.238   1.835
 8278W        W80538  40.528  26.570   1.132
 8279W        W80539  12.167   4.361   2.998
 8280W        W80540   2.312  16.378   2.753
 8281W        W80541  24.132  27.405  14.431
 8282W        W80542  30.366  40.493   2.196
 8283W        W80543  24.615  24.966   2.568
 8284W        W80544  24.651   9.626  14.391
 8285W        W80545  12.462  42.066  11.143
 8286W        W80546  16.088  43.250  11.709
 8287W        W80547  13.779   2.727   1.547
 8288W        W80548  35.074  37.003   3.762
 8289W        W80549   7.188  43.689   0.493
 8290W        W80550  28.175  23.614   1.303
 8291W        W80551  29.013  31.857   0.801
 8292W        W80552  17.666  44.321  14.832
 8293W        W80553  42.727  37.406   2.884
 8294W        W80554  29.929  22.509  11.416
 8295W        W80555  19.042  35.115  14.441
 8296W        W80556   1.896  34.225  11.582
 8297W        W80557  39.937  29.644  12.418
 8298W        W80558  32.496   1.765   3.287
 8299W        W80559   3.465  17.556   4.502
 8300W        W80560   9.384  39.985   3.156
 8301W        W80561  18.638  40.624   2.111
 8302W        W80562  26.163  43.364  13.921
 8303W        W80563   7.712   1.505  12.472
 8304W        W80564  14.255  34.189   3.182
 8305W        W80565  19.553  33.541  11.925
 8306W        W80566  39.435  21.120   1.675
 8307W        W80567  23.425  34.303   1.341
 8308W        W80568  11.853  21.360   4.663
 8309W        W80569  36.719  30.639  14.980
 8310W        W80570  34.878   7.825   3.699
 8311W        W80571  18.046  40.232   0.468
 8312W        W80572  36.411  20.030  12.255
 8313W        W80573  40.932  29.433  13.809
 8314W        W80574  34.360  43.562  12.780
 8315W        W80575  16.679  28.171   1.679
 8316W        W80576   5.554   7.279  12.530
 8317W        W80577  27.487  23.557   3.886
 8318W        W80578  21.572  27.957  11.988
 8319W        W80579  10.728  37.521  13.043
 8320W        W80580  32.918  31.434  13.787
 8321W        W80581  33.072  20.151   9.870
 8322W        W80582  43.790  27.640  11.438
 8323W        W80583  28.956  16.066  14.830
 8324W        W80584  20.113  18.015  10.690
 8325W        W80585  13.859  39.549   1.803
 8326W        W80586  34.498  24.022  12.116
 8327W        W80587  30.442  22.828   3.387
 8328W        W80588  11.150  33.102  14.438
 8329W        W80589  12.009   5.864  12.065
 8330W        W80590  21.249  16.193   3.741
 8331W        W80591  37.321   3.912  10.497
 8332W        W80592  10.909   6.202  13.545
 8333W        W80593  35.125  24.721   4.265
 8334W        W80594  30.093  44.120  11.603
 8335W        W80595  43.056  33.442  13.924
 8336W        W80596  21.716   5.863   0.948
 8337W        W80597  31.910   3.777  13.020
 8338W        W80598   9.412  27.620   2.220
 8339W        W80599  42.972   9.351   4.097
 8340W        W80600   3.270  31.441  14.840
 8341W        W80601   8.745  18.276  13.005
 8342W        W80602  43.228  16.088   4.893
 8343W        W80603  38.696  43.351   0.707
 8344W        W80604  21.068  22.058   2.342
 8345W        W80605   7.051   5.979   0.989
 8346W        W80606  18.644  42.836  12.444
 8347W        W80607  32.917   7.972   0.510
 8348W        W80608   7.489   0.221   2.991
 8349W        W80609  11.792  26.554   2.714
 8350W        W80610  43.008   9.166   3.183
 8351W        W80611  22.585  10.203  14.811
 8352W        W80612  10.216   8.761   0.737
 8353W        W80613  30.666  29.657  14.716
 8354W        W80614  39.675  25.844   2.708
 8355W        W80615  28.920  29.262   4.179
 8356W        W80616  29.103  30.897   2.874
 8357W        W80617  43.702  26.611   2.414
 8358W        W80618  26.648  13.706  13.924
 8359W        W80619  21.122   4.261   0.657
 8360W        W80620  25.949  18.314   0.832
 8361W        W80621   6.231   7.947  14.256
 8362W        W80622  32.324   5.965   0.411
 8363W        W80623   7.973  37.799  13.214
 8364W        W80624  35.105  37.818   0.432
 8365W        W80625  35.653  10.943   4.517
 8366W        W80626  33.116  14.125   2.379
 8367W        W80627  33.549  11.757  10.302
 8368W        W80628   4.151  19.520  14.417
 8369W        W80629  22.080  38.914   1.454
 8370W        W80630  28.654  43.448  13.108
 8371W        W80631  21.535  31.416  11.227
 8372W        W80632  22.059  43.307   4.086
 8373W        W80633  27.293  33.063  14.943
 8374W        W80634   9.775  26.888   0.034
 8375W        W80635   1.327  41.731  12.404
 8376W        W80636  42.927  35.718  13.552
 8377W        W80637  16.603  18.807   1.291
 8378W        W80638  41.258  39.178   0.764
 8379W        W80639   9.364  39.392  12.950
 8380W        W80640  34.041  22.753   2.356
 8381W        W80641  44.068   0.019   0.865
 8382W        W80642  38.986  43.356   0.274
 8383W        W80643  39.095   8.853   0.212
 8384W        W80644  24.629  28.129   0.020
 8385W        W80645  14.214   5.287   4.306
 8386W        W80646  29.711  35.978  11.097
 8387W        W80647  44.687  13.875   1.800
 8388W        W80648  22.478   1.896  12.704
 8389W        W80649   9.537   1.226  12.501
 8390W        W80650  41.648  13.319   0.538
 8391W        W80651  41.937   0.074   1.378
 8392W        W80652  15.841  39.473   2.733
 8393W        W80653   1.950  18.095  11.171
 8394W        W80654   4.693  15.067  11.711
 8395W        W80655  12.300  18.970  11.964
 8396W        W80656  40.084  41.242   0.210
 8397W        W80657  14.075   4.671   2.734
 8398W        W80658  43.817  19.091  11.479
 8399W        W80659  37.876  26.151  10.786
 8400W        W80660  32.474  36.738  11.082
 8401W        W80661  24.151   0.001  14.955
 8402W        W80662  13.913   5.963  11.357
 8403W        W80663  18.749  37.005   4.129
 8404W        W80664  19.512  15.276   2.673
 8405W        W80665   3.834   6.694  10.944
 8406W        W80666  39.351  26.489   0.321
 8407W        W80667  19.559  33.389   3.644
 8408W        W80668   2.071  20.680  14.918
 8409W        W80669  29.929   7.657   0.883
 8410W        W80670  21.090  18.605  13.842
 8411W        W80671  29.780  35.025   1.028
 8412W        W80672   1.031  16.717  12.305
 8413W        W80673  39.056  35.471   3.303
 8414W        W80674  18.657  21.428   2.369
 8415W        W80675  36.478  25.210   1.833
 8416W        W80676  19.203   5.378   2.421
 8417W        W80677  25.440   4.748   3.722
 8418W        W80678  39.231  11.260  13.019
 8419W        W80679  22.606  20.123  14.297
 8420W        W80680  36.328   0.026   2.389
 8421W        W80681  28.810  15.578  14.950
 8422W        W80682  30.419   8.667  14.674
 8423W        W80683  36.659  25.471  11.636
 8424W        W80684  33.125  34.063  10.785
 8425W        W80685  37.385   4.419   4.135
 8426W        W80686  10.310  25.522  10.704
 8427W        W80687   5.416  43.035  11.972
 8428W        W80688   9.842   9.840   1.492
 8429W        W80689  39.872   2.072  12.404
 8430W        W80690  39.444  43.651  14.200
 8431W        W80691   4.161   4.588  13.414
 8432W        W80692   4.856   4.358   0.678
 8433W        W80693  14.753  43.780   2.701
 8434W        W80694  35.070   0.283   4.018
 8435W        W80695  35.530  38.047  11.522
 8436W        W80696  42.550   6.683  11.492
 8437W        W80697  29.268  22.055   0.420
 8438W        W80698  20.062  19.587   3.697
 8439W        W80699  10.830   5.416   2.816
 8440W        W80700  20.242   5.235   0.293
 8441W        W80701  21.268  29.649   0.872
 8442W        W80702  11.387  11.210   2.848
 8443W        W80703  44.285  44.868  13.296
 8444W        W80704  11.711  23.972  10.755
 8445W        W80705  39.257  24.008  12.057
 8446W        W80706   5.907  32.160  13.482
 8447W        W80707  20.814  20.406  10.174
 8448W        W80708  20.728  44.045  11.685
 8449W        W80709  15.322  42.747   4.702
 8450W        W80710  43.927  44.035  13.516
 8451W        W80711  44.477   3.797   4.148
 8452W        W80712  24.092  15.562   1.831
 8453W        W80713   5.726  40.097   1.488
 8454W        W80714   6.333  44.087  13.816
 8455W        W80715   2.751  16.579   4.153
 8456W        W80716  18.856  32.302  11.037
 8457W        W80717  31.480  29.183   0.043
 8458W        W80718   2.431  37.652   4.457
 8459W        W80719  39.884  12.393  11.977
 8460W        W80720  19.089  35.776  10.513
 8461W        W80721  22.522  33.074   3.611
 8462W        W80722  42.781  32.130   3.841
 8463W        W80723  43.362  33.165  12.867
 8464W        W80724  15.406  25.566  13.833
 8465W        W80725   7.107   7.189  12.390
 8466W        W80726  32.616  40.485  14.291
 8467W        W80727  37.916  16.683   3.339
 8468W        W80728  13.239  39.417  10.398
 8469W        W80729   4.830  16.780   3.644
 8470W        W80730  12.135  29.668  11.929
 8471W        W80731  21.244  35.098   4.398
 8472W        W80732  16.767  35.300  12.058
 8473W        W80733  34.421  35.059  11.481
 8474W        W80734   1.542  42.344  12.951
 8475W        W80735   6.457  30.658   0.155
 8476W        W80736  19.574  14.810   3.946
 8477W        W80737  31.713   9.898   3.158
 8478W        W80738  23.170  38.934  13.271
 8479W        W80739  19.334  24.672   3.055
 8480W        W80740   4.586  19.622  11.141
 8481W        W80741   7.076  32.511   2.816
 8482W        W80742  33.101  19.673   2.019
 8483W        W80743  27.517   9.295  13.552
 8484W        W80744  10.210  33.346   1.587
 8485W        W80745  38.015  23.102   0.728
 8486W        W80746  22.530  34.290  11.934
 8487W        W80747  36.925   0.064  12.960
 8488W        W80748  38.444  10.720  14.483
 8489W        W80749  40.967  21.777   0.326
 8490W        W80750  34.897  36.899  14.005
 8491W        W80751  11.627  22.498  11.536
 8492W        W80752   3.973   3.239  14.877
 8493W        W80753  29.066  41.734   0.640
 8494W        W80754  32.907  22.274   1.636
 8495W        W80755  31.328   1.043  13.567
 8496W        W80756   8.834   7.454  14.023
 8497W        W80757  32.408   4.179   1.781
 8498W        W80758  23.815  28.781  12.038
 8499W        W80759  28.640  13.521   2.610
 8500W        W80760  11.126  32.468   3.269
 8501W        W80761  19.627  40.653   4.730
 8502W        W80762  25.739   9.871  14.788
 8503W        W80763  34.229  18.763   5.031
 8504W        W80764  32.640   3.953  11.230
 8505W        W80765  12.716  11.772   0.540
 8506W        W80766  14.328  39.811   4.741
 8507W        W80767  26.461  15.637   2.152
 8508W        W80768  33.112   7.595   0.812
 8509W        W80769  44.299  31.325   0.567
 8510W        W80770  42.318   9.145   0.844
 8511W        W80771  13.939  37.620  13.923
 8512W        W80772  17.181  22.432  11.175
 8513W        W80773  19.393  30.497  14.555
 8514W        W80774  29.145   1.047  11.611
 8515W        W80775  15.661  28.438  13.851
 8516W        W80776  17.895  35.547  13.877
 8517W        W80777  21.025  22.539   1.437
 8518W        W80778   3.198  41.062   3.565
 8519W        W80779  24.690   6.429  13.942
 8520W        W80780  11.950   0.784   2.708
 8521W        W80781  30.020  18.620  12.229
 8522W        W80782  13.590  22.596  11.581
 8523W        W80783  11.326  10.602  13.350
 8524W        W80784   6.050  42.682   5.171
 8525W        W80785   7.744  33.061   4.563
 8526W        W80786  25.593  33.130  11.048
 8527W        W80787  10.650  37.873  11.674
 8528W        W80788   5.451  29.700   0.309
 8529W        W80789  42.024  36.378   0.937
 8530W        W80790   6.364   9.572  13.500
 8531W        W80791  34.346   2.089   1.830
 8532W        W80792   7.581  30.675  12.372
 8533W        W80793  25.016  44.684  11.471
 8534W        W80794  32.014  14.976   0.401
 8535W        W80795  13.078  30.611  12.633
 8536W        W80796  28.556   6.505  10.431
 8537W        W80797  17.257  29.649   0.005
 8538W        W80798  32.188  43.895  12.457
 8539W        W80799  13.153  39.728   9.991
 8540W        W80800   8.247  41.994  12.863
 8541W        W80801  21.831  11.192  11.949
 8542W        W80802  37.605  28.046   1.717
 8543W        W80803  23.068  18.499  12.967
 8544W        W80804  19.033   3.862   0.929
 8545W        W80805  21.744  25.683   2.764
 8546W        W80806  21.277  27.382   5.559
 8547W        W80807  19.588  25.616   0.426
 8548W        W80808  23.997  24.648  12.564
 8549W        W80809  34.800  41.819   4.583
 8550W        W80810  17.672  31.113   0.731
 8551W        W80811  37.044  28.184  12.146
 8552W        W80812  42.000  16.662  12.405
 8553W        W80813   1.186  34.928   3.426
 8554W        W80814  44.197  42.838   4.590
 8555W        W80815  42.253  34.859   4.030
 8556W        W80816  23.242  42.879   4.580
 8557W        W80817  39.318  10.626   2.691
 8558W        W80818  44.687  35.137   4.069
 8559W        W80819   1.104  38.815   1.858
 8560W        W80820  16.712  12.384  11.898
 8561W        W80821   8.292  38.916   1.295
 8562W        W80822   9.696  41.110   3.899
 8563W        W80823  15.237   7.226  13.759
 8564W        W80824  43.812  20.804   3.218
 8565W        W80825  29.661  35.320   2.146
 8566W        W80826  42.782  11.356  13.911
 8567W        W80827  23.566   2.322   1.415
 8568W        W80828  38.634  33.619  13.644
 8569W        W80829  26.918  25.571  14.483
 8570W        W80830  30.550  32.159  11.049
 8571W        W80831  43.477  34.972  12.165
 8572W        W80832  26.986  18.050   2.503
 8573W        W80833  41.846  37.049  12.062
 8574W        W80834  20.574  29.157  14.897
 8575W        W80835  44.154  10.733  13.003
 8576W        W80836  15.219  29.567  11.059
 8577W        W80837  35.094  17.724   3.584
 8578W        W80838  39.051   5.750   2.471
 8579W        W80839  20.160  43.371   1.655
 8580W        W80840  15.578  39.763   3.364
 8581W        W80841   2.094  28.093   0.665
 8582W        W80842  28.736  20.557   3.479
 8583W        W80843   2.351   0.833  12.554
 8584W        W80844  34.134  40.544  12.440
 8585W        W80845  41.580  32.839  12.299
 8586W        W80846   9.854  31.184   4.197
 8587W        W80847   1.783   4.423  10.738
 8588W        W80848  36.896  35.593   0.970
 8589W        W80849   6.834  25.175  14.169
 8590W        W80850   9.182  18.669   4.157
 8591W        W80851   0.222  19.588  13.522
 8592W        W80852  35.103  29.626  12.936
 8593W        W80853  10.557  28.314  13.796
 8594W        W80854  18.258  11.733   3.045
 8595W        W80855  27.933  32.661   1.716
 8596W        W80856  35.796   4.313   0.827
 8597W        W80857  44.021   2.808  13.260
 8598W        W80858  25.402   9.252   2.777
 8599W        W80859  23.540  35.370   1.222
 8600W        W80860  27.146  19.700   4.333
 8601W        W80861   6.740  14.405   0.513
 8602W        W80862  21.720  31.088   1.926
 8603W        W80863  24.012  40.846   2.945
 8604W        W80864  11.752  17.908   4.147
 8605W        W80865  10.141   6.661  13.246
 8606W        W80866   4.908  42.972  12.664
 8607W        W80867  41.054  20.642  14.353
 8608W        W80868  11.692   5.512  11.851
 8609W        W80869   1.725  21.229  11.076
 8610W        W80870  39.267  35.084   2.774
 8611W        W80871  17.402  18.718  14.098
 8612W        W80872   8.823  38.619   4.749
 8613W        W80873   7.160  20.796  12.571
 8614W        W80874  21.874  38.171  14.971
 8615W        W80875  37.623  29.434   4.092
 8616W        W80876   9.866  11.076   3.658
 8617W        W80877  21.464  31.600   3.827
 8618W        W80878  22.617  22.298   3.365
 8619W        W80879  24.164  29.063   4.671
 8620W        W80880  39.566  15.239   0.504
 8621W        W80881  11.981   8.698  10.106
 8622W        W80882  44.848  43.307  12.104
 8623W        W80883  23.119  36.385   0.049
 8624W        W80884  33.871   8.806  10.189
 8625W        W80885  41.513  19.663  13.051
 8626W        W80886  28.669  33.865   1.649
 8627W        W80887  13.882  15.904   1.851
 8628W        W80888  31.288   8.608  12.469
 8629W        W80889  21.680  10.571   1.921
 8630W        W80890   4.918  27.646  10.723
 8631W        W80891   5.012  29.962  11.156
 8632W        W80892  12.200  25.727   1.944
 8633W        W80893  24.299  40.820  13.605
 8634W        W80894  13.894  15.894  13.976
 8635W        W80895  27.304  37.911   3.855
 8636W        W80896  24.275   1.812   1.147
 8637W        W80897  19.047  44.541  13.031
 8638W        W80898  38.427  22.195  13.763
 8639W        W80899  26.937  36.174   1.733
 8640W        W80900   1.672  30.093  11.921
 8641W        W80901   1.446  25.063   4.510
 8642W        W80902  25.643  17.679  12.455
 8643W        W80903  16.353  16.234  10.587
 8644W        W80904   5.008  41.949  12.557
 8645W        W80905  37.942  33.593  11.289
 8646W        W80906  10.603  39.052   2.806
 8647W        W80907  19.700  23.484   4.867
 8648W        W80908  12.910  37.471   0.081
 8649W        W80909   3.436  22.709  13.044
 8650W        W80910  24.436  11.133   2.582
 8651W        W80911  29.615  10.609   2.128
 8652W        W80912  41.272   8.252   1.985
 8653W        W80913  14.099  22.589  11.526
 8654W        W80914  11.202   5.650   3.806
 8655W        W80915  43.738  38.673  10.650
 8656W        W80916  28.749   8.460   4.678
 8657W        W80917  34.077  33.009   3.227
 8658W        W80918  19.265  12.178  13.890
 8659W        W80919  38.852  14.256   3.303
 8660W        W80920  18.562  25.651   0.288
 8661W        W80921   7.911   4.941  12.323
 8662W        W80922  37.977  34.309   2.621
 8663W        W80923  44.902  40.517   0.013
 8664W        W80924  34.611  42.414  11.677
 8665W        W80925  11.308   5.852   1.444
 8666W        W80926  10.834  32.015  13.915
 8667W        W80927  23.996  40.122   1.835
 8668W        W80928  44.265   0.925   4.310
 8669W        W80929  39.483  41.189   3.856
 8670W        W80930  29.036  16.335   0.735
 8671W        W80931  21.790  44.514   1.274
 8672W        W80932  41.376  18.851  13.429
 8673W        W80933  32.032   2.406   4.209
 8674W        W80934  41.433   4.311   0.734
 8675W        W80935  13.909  41.333   1.119
 8676W        W80936  44.384   1.073  11.751
 8677W        W80937  23.087  38.064  14.908
 8678W        W80938  29.560  42.419  12.162
 8679W        W80939  31.255  42.372   1.253
 8680W        W80940  24.014   7.136   3.756
 8681W        W80941  12.790   1.380  12.421
 8682W        W80942  27.137   1.039  12.205
 8683W        W80943  34.003  29.390  12.020
 8684W        W80944   5.505  20.139  12.386
 8685W        W80945  20.520  27.906  12.227
 8686W        W80946   1.491  33.025  11.208
 8687W        W80947  18.972  40.387  14.369
 8688W        W80948  11.239  14.389  10.588
 8689W        W80949  12.605  24.203   3.763
 8690W        W80950  25.909  34.624   3.178
 8691W        W80951  27.183  23.968   2.763
 8692W        W80952  31.040  40.971   1.048
 8693W        W80953  14.638  16.180  13.388
 8694W        W80954   5.773  17.159   1.845
 8695W        W80955  31.057  21.036   1.802
 8696W        W80956  32.873  20.064   0.149
 8697W        W80957  32.675  29.362   3.320
 8698W        W80958  30.072  15.067  13.818
 8699W        W80959  35.397   7.817   3.696
 8700W        W80960   8.858   2.023  14.241
 8701W        W80961   1.800   7.938   0.426
 8702W        W80962  32.374  32.879   1.455
 8703W        W80963   9.302   4.414   2.083
 8704W        W80964   1.488  24.597  12.247
 8705W        W80965  22.974  28.938   3.017
 8706W        W80966  41.397  41.499   4.266
 8707W        W80967   2.983  16.767  12.599
 8708W        W80968  37.102  44.554  13.254
 8709W        W80969   6.876  34.663  14.749
 8710W        W80970   1.184  15.102  13.751
 8711W        W80971  16.313   0.521  13.426
 8712W        W80972  12.108   8.301  14.529
 8713W        W80973  15.283  35.630  12.160
 8714W        W80974  38.815  31.808  12.448
 8715W        W80975  30.643  36.471   5.145
 8716W        W80976  22.814  18.920   3.189
 8717W        W80977  18.771  23.153  11.052
 8718W        W80978   5.835  10.176  14.345
 8719W        W80979  34.551  18.742  11.669
 8720W        W80980  32.091  38.011   2.827
 8721W        W80981  21.084   0.247   2.620
 8722W        W80982  16.462  13.013  11.101
 8723W        W80983   7.805  17.707  14.339
 8724W        W80984  42.895  35.863   4.597
 8725W        W80985   0.864   7.478   0.330
 8726W        W80986  19.996  24.726   1.095
 8727W        W80987   8.761  37.426   3.421
 8728W        W80988  28.414  36.876  14.034
 8729W        W80989   9.282  29.615  13.363
 8730W        W80990  38.847   5.180  13.336
 8731W        W80991  13.018  30.163  10.339
 8732W        W80992  36.370   3.137   2.662
 8733W        W80993   7.224  19.695  14.312
 8734W        W80994  27.965  23.424   0.423
 8735W        W80995  24.662  35.568   4.157
 8736W        W80996  17.595  38.061  14.599
 8737W        W80997  38.061  27.564  10.304
 8738W        W80998  25.101  11.098  14.716
 8739W        W80999  32.567  12.610   3.518
 8740W        W81000  26.858  16.756   2.532
 8741W        W81001  10.244  35.513  13.274
 8742W        W81002  21.279  11.630  14.945
 8743W        W81003  43.787   0.564  13.525
 8744W        W81004  34.999  34.766  11.108
 8745W        W81005  28.427  18.536   2.776
 8746W        W81006  17.555  13.698   0.400
 8747W        W81007  25.499  44.747   1.646
 8748W        W81008  10.814  30.966  11.878
 8749W        W81009  15.819  26.994   3.215
 8750W        W81010  13.323  10.543  13.836
 8751W        W81011   0.223  19.985   0.984
 8752W        W81012  36.189   0.438  14.407
 8753W        W81013  15.237  17.492  12.375
 8754W        W81014   0.324  18.062  11.401
 8755W        W81015  23.940  28.099   5.520
 8756W        W81016  42.364  39.535   3.216
 8757W        W81017  23.713  14.449   4.585
 8758W        W81018   3.303   6.641  14.364
 8759W        W81019  34.963  35.097  11.527
 8760W        W81020   3.645  18.024   4.355
 8761W        W81021  19.924  33.081  14.460
 8762W        W81022  27.694  44.824  12.969
 8763W        W81023   9.762   0.577   3.679
 8764W        W81024   3.361   6.340   4.607
 8765W        W81025  13.713  39.401  11.182
 8766W        W81026   1.458  40.588   3.838
 8767W        W81027  30.155   5.635  11.175
 8768W        W81028  13.897  36.479  12.397
 8769W        W81029  38.974  33.523   1.722
 8770W        W81030   6.681  31.942  14.968
 8771W        W81031  10.567   7.204  14.454
 8772W        W81032  42.116   9.804   0.922
 8773W        W81033  29.478  22.650  13.516
 8774W        W81034   0.511  29.602   3.326
 8775W        W81035  44.178  40.385   4.363
 8776W        W81036  30.062  40.780   4.267
 8777W        W81037  21.728  21.005  14.073
 8778W        W81038  21.960  23.286   3.594
 8779W        W81039   1.829  11.799   1.744
 8780W        W81040  40.517  14.472   0.874
 8781W        W81041  38.983   0.409   2.847
 8782W        W81042  16.154  18.276   1.882
 8783W        W81043  34.136  40.265   2.177
 8784W        W81044  42.573  31.461   0.250
 8785W        W81045  33.789  21.691  13.897
 8786W        W81046  27.680   9.156  13.090
 8787W        W81047  36.310  14.742  12.181
 8788W        W81048  39.861  22.241   2.459
 8789W        W81049  18.186  31.851  10.390
 8790W        W81050   2.176  13.031  14.267
 8791W        W81051  31.525  30.073   0.724
 8792W        W81052   5.912  35.687  10.568
 8793W        W81053  10.097  22.523   4.529
 8794W        W81054  28.176  11.543  10.386
 8795W        W81055  28.418  36.988  11.210
 8796W        W81056  22.894   3.300  12.730
 8797W        W81057   3.162   0.980  12.673
 8798W        W81058  25.116  32.622  13.711
 8799W        W81059  37.474  22.957   0.635
 8800W        W81060  21.275  11.105   1.434
 8801W        W81061  11.148  11.585   0.087
 8802W        W81062  42.864   8.102   3.599
 8803W        W81063  39.857  29.759   2.276
 8804W        W81064  41.111  32.582  13.530
 8805W        W81065  10.542  14.314   3.777
 8806W        W81066  42.702  14.373  12.945
 8807W        W81067  25.071   3.459  14.483
 8808W        W81068  38.112  13.800   0.963
 8809W        W81069  21.684   1.744  11.653
 8810W        W81070  33.537  23.972  11.872
 8811W        W81071  19.239   7.925  11.123
 8812W        W81072  28.655  19.255  11.651
 8813W        W81073  34.658  40.354   0.273
 8814W        W81074   0.865  36.615   2.880
 8815W        W81075  10.745  32.004   2.324
 8816W        W81076  11.618  12.341   4.135
 8817W        W81077   6.864  21.584  10.387
 8818W        W81078  21.131  40.184  11.923
 8819W        W81079  13.796  28.174  11.590
 8820W        W81080  41.273  37.912   4.330
 8821W        W81081  24.464  32.615   1.273
 8822W        W81082  18.744   3.411   0.941
 8823W        W81083  21.937   1.415   0.506
 8824W        W81084  22.739  24.120  14.899
 8825W        W81085  24.905  21.288   3.698
 8826W        W81086  20.961  33.885   2.258
 8827W        W81087   1.763  28.040   2.996
 8828W        W81088  31.593  24.069   3.548
 8829W        W81089  22.188   0.706   2.384
 8830W        W81090  14.556   7.205   0.422
 8831W        W81091  11.445   8.317   2.901
 8832W        W81092   3.940  19.755  10.648
 8833W        W81093  15.463   1.399   0.223
 8834W        W81094  18.493  33.096  11.133
 8835W        W81095  34.761  10.626   2.264
 8836W        W81096   1.385  19.750   0.606
 8837W        W81097  17.749   5.761   4.990
 8838W        W81098  44.822   1.417   1.606
 8839W        W81099  23.224   3.023  12.991
 8840W        W81100  37.060  20.184   3.596
 8841W        W81101  30.523  32.662   4.670
 8842W        W81102  14.731  20.058   3.389
 8843W        W81103  14.638  35.332  12.715
 8844W        W81104  30.414  37.476   0.440
 8845W        W81105  27.467  14.391  13.958
 8846W        W81106  37.936  30.569  13.641
 8847W        W81107  32.307  22.013   0.059
 8848W        W81108  30.882   8.561  13.849
 8849W        W81109  21.371  39.490   1.249
 8850W        W81110  16.360  17.227   0.033
 8851W        W81111  31.598  32.027   4.320
 8852W        W81112  16.475  18.108   3.157
 8853W        W81113  40.907  29.497   4.388
 8854W        W81114   2.524   2.634   0.861
 8855W        W81115  14.112   1.371   1.320
 8856W        W81116   9.694  35.917   3.937
 8857W        W81117  14.063  15.431  14.800
 8858W        W81118  34.341   6.701  14.835
 8859W        W81119  30.680  10.695  13.402
 8860W        W81120  21.542  44.834   4.447
 8861W        W81121  16.725  20.097  14.458
 8862W        W81122   1.299  14.125   0.546
 8863W        W81123  22.097  28.083  11.080
 8864W        W81124   4.772  28.634   3.626
 8865W        W81125  22.486  17.304  14.650
 8866W        W81126  38.427  29.081   2.849
 8867W        W81127  38.310  43.407  10.680
 8868W        W81128  39.466  29.944  14.868
 8869W        W81129  12.865   6.688   0.279
 8870W        W81130  23.509  43.908  13.443
 8871W        W81131  11.348  13.606   2.387
 8872W        W81132   6.704  27.772   0.387
 8873W        W81133  15.652  32.789   4.349
 8874W        W81134  30.371  22.240  12.008
 8875W        W81135  23.170  30.209   1.960
 8876W        W81136  41.003  22.007  14.864
 8877W        W81137  28.571  22.556   3.181
 8878W        W81138  21.699  24.735   4.843
 8879W        W81139   7.631  28.089   3.259
 8880W        W81140  36.292  15.407   3.086
 8881W        W81141  18.031  43.543   2.357
 8882W        W81142  27.259  26.639  11.107
 8883W        W81143  27.265   0.906   2.302
 8884W        W81144   8.741  10.917  12.115
 8885W        W81145  30.909  39.670   4.124
 8886W        W81146   0.775  34.119   2.188
 8887W        W81147  30.908  21.885   1.419
 8888W        W81148   9.996  37.472   4.167
 8889W        W81149  22.651   1.507  13.503
 8890W        W81150  34.323   2.022  11.132
 8891W        W81151  12.316  23.602  12.108
 8892W        W81152  11.648  10.898   4.324
 8893W        W81153  23.646  18.352  10.893
 8894W        W81154  29.445  27.487  14.774
 8895W        W81155  16.681   5.038  12.182
 8896W        W81156  15.253  35.849   0.563
 8897W        W81157   6.728  41.356  14.261
 8898W        W81158  39.079  18.127   1.350
 8899W        W81159  28.010   7.263   3.286
 8900W        W81160  11.387  21.752   2.356
 8901W        W81161   8.281   9.338  12.506
 8902W        W81162  21.573  11.195  13.523
 8903W        W81163  34.888  40.464  14.757
 8904W        W81164   0.519  30.617   0.988
 8905W        W81165   5.399  39.616  13.161
 8906W        W81166  18.868   5.836   0.046
 8907W        W81167  30.933  12.292   2.221
 8908W        W81168  42.475  37.840   1.654
 8909W        W81169  10.896  15.544  13.935
 8910W        W81170  25.179   3.720  11.208
 8911W        W81171  20.146  40.307  13.002
 8912W        W81172  35.936  30.860   2.833
 8913W        W81173  28.152  41.797   0.592
 8914W        W81174  14.181  22.736   1.220
 8915W        W81175  23.100  29.466  13.359
 8916W        W81176   5.174   3.846   0.076
 8917W        W81177  28.462   2.744   0.440
 8918W        W81178  29.031  31.675   3.709
 8919W        W81179  38.133  35.405  12.937
 8920W        W81180  39.098   8.977  12.554
 8921W        W81181  32.959  43.448   1.427
 8922W        W81182  25.528   3.349  14.756
 8923W        W81183  19.996  13.757  12.571
 8924W        W81184  20.079  35.658  11.023
 8925W        W81185  28.087   4.901  12.852
 8926W        W81186  39.584  32.152  12.432
 8927W        W81187  42.885  12.935  12.841
 8928W        W81188   3.048  28.968   2.890
 8929W        W81189   2.034  15.974   1.490
 8930W        W81190  29.728  43.610   1.212
 8931W        W81191   7.613  12.839  10.933
 8932W        W81192  18.047  34.772   0.328
 8933W        W81193  31.100  43.399  13.833
 8934W        W81194   8.828   0.503  14.339
 8935W        W81195  13.131  44.611   4.659
 8936W        W81196  35.097  21.731   2.647
 8937W        W81197  19.146  24.168   3.679
 8938W        W81198  28.995  26.150  13.820
 8939W        W81199  17.232  43.698  11.720
 8940W        W81200  32.012   1.281   0.698
 8941W        W81201   4.371  42.892   4.576
 8942W        W81202  41.835  44.995  11.401
 8943W        W81203  19.315  26.613   4.344
 8944W        W81204   0.697   0.324  11.072
 8945W        W81205  18.668  22.193   4.311
 8946W        W81206  14.294  22.442  11.070
 8947W        W81207  37.908  23.814   3.313
 8948W        W81208  14.423  38.467  14.380
 8949W        W81209  32.457  18.202  12.488
 8950W        W81210  21.004  35.936   0.292
 8951W        W81211  36.494  28.672   4.937
 8952W        W81212  34.889  35.152   4.266
 8953W        W81213   1.735  14.242   2.638
 8954W        W81214  10.082  14.207   4.675
 8955W        W81215  26.197  13.044   0.974
 8956W        W81216  35.244  30.895  11.946
 8957W        W81217  17.961  31.495   0.197
 8958W        W81218  12.343  32.797  14.517
 8959W        W81219  17.325  44.750  13.607
 8960W        W81220  41.294  28.596   1.666
 8961W        W81221   7.189  25.963   3.201
 8962W        W81222  20.113   4.379   3.381
 8963W        W81223   4.980  30.965  12.632
 8964W        W81224   6.143  42.224  13.315
 8965W        W81225   1.318   7.285   4.550
 8966W        W81226  36.120  44.292   0.267
 8967W        W81227  30.612   2.586   1.758
 8968W        W81228   9.429  33.380  13.846
 8969W        W81229  14.851   8.118   3.046
 8970W        W81230  33.432  30.059  10.538
 8971W        W81231   3.048  17.615   2.608
 8972W        W81232   9.257   8.879  14.394
 8973W        W81233  12.581   0.698   3.776
 8974W        W81234   3.214  30.626  11.419
 8975W        W81235  12.135  41.806  13.781
 8976W        W81236  16.305  25.614   3.554
 8977W        W81237   8.815  39.020   1.289
 8978W        W81238  12.753   9.196   4.684
 8979W        W81239  37.527   4.902   1.109
 8980W        W81240  29.871  12.907   4.840
 8981W        W81241  37.095  30.284  14.958
 8982W        W81242   2.694  16.118   0.810
 8983W        W81243  37.909  39.454   4.439
 8984W        W81244  22.711  11.159  14.875
 8985W        W81245  11.107  39.461   0.263
 8986W        W81246  40.262  40.540   1.923
 8987W        W81247  41.242  28.757  14.285
 8988W        W81248   5.924  10.196  11.591
 8989W        W81249  44.222  44.301  11.486
 8990W        W81250   2.963  10.746  10.529
 8991W        W81251  10.233  17.362   0.417
 8992W        W81252  35.110  42.286  11.406
 8993W        W81253  36.141  33.204  13.774
 8994W        W81254  31.994  25.778   3.282
 8995W        W81255  10.691  17.297  10.791
 8996W        W81256   8.111  25.690   0.356
 8997W        W81257  24.913   8.799   1.211
 8998W        W81258   0.358  10.736  14.869
 8999W        W81259  33.671  16.451   1.393
 9000W        W81260   6.651  35.840  11.915
 9001W        W81261  20.496  30.450   1.601
 9002W        W81262  44.778   5.474   3.213
 9003W        W81263   1.594   1.016   1.459
 9004W        W81264   3.245  10.817  12.942
 9005W        W81265  33.424  44.979   0.826
 9006W        W81266  16.668  14.366   1.234
 9007W        W81267  34.453  30.753  12.889
 9008W        W81268  42.461  24.171  11.358
 9009W        W81269  44.692  31.965   1.899
 9010W        W81270  36.406  19.953   5.576
 9011W        W81271  30.574   0.457   1.184
 9012W        W81272  27.216  19.450  10.665
 9013W        W81273   9.832  20.001  12.511
 9014W        W81274  41.114  10.278   3.128
 9015W        W81275  43.522   3.184   0.860
 9016W        W81276  39.435   6.645   0.350
 9017W        W81277  22.836  26.148   3.194
 9018W        W81278   5.493  35.665   2.799
 9019W        W81279  44.511   4.852   3.432
 9020W        W81280  20.790  44.952   0.186
 9021W        W81281  24.257  35.955  14.697
 9022W        W81282  15.954  25.599  14.035
 9023W        W81283  14.166   8.118  12.446
 9024W        W81284   5.257   8.055   2.103
 9025W        W81285  28.989  20.579  13.747
 9026W        W81286   6.588  15.170   4.061
 9027W        W81287  24.000  14.900   4.016
 9028W        W81288  26.468   0.370   4.704
 9029W        W81289  15.864  14.688  14.983
 9030W        W81290   1.516  18.062  12.590
 9031W        W81291  24.507  43.957   4.213
 9032W        W81292  23.273   3.500  14.016
 9033W        W81293  12.356  28.587  14.378
 9034W        W81294   4.381  34.858  14.427
 9035W        W81295   9.838  43.003   1.886
 9036W        W81296  20.517  27.190   0.176
 9037W        W81297  15.718  44.380  11.910
 9038W        W81298  25.750  34.686   1.945
 9039W        W81299  14.665   9.304  13.075
 9040W        W81300  19.692   3.334  10.565
 9041W        W81301  33.182   2.867  14.616
 9042W        W81302  27.689  13.212   3.631
 9043W        W81303   4.795  33.551  13.384
 9044W        W81304  28.279   3.353  14.501
 9045W        W81305   2.313   9.895  11.223
 9046W        W81306  12.667  16.752  13.627
 9047W        W81307  11.290  40.128  13.357
 9048W        W81308   9.748  41.384  10.604
 9049W        W81309  25.453  22.181   3.260
 9050W        W81310  35.996  10.391   0.062
 9051W        W81311   5.388  26.633   4.282
 9052W        W81312  30.446   5.893  14.922
 9053W        W81313  21.076  24.232   0.312
 9054W        W81314  10.232  10.346   2.358
 9055W        W81315  24.624  20.619  11.341
 9056W        W81316  13.797  42.799  14.312
 9057W        W81317  31.511  14.974   1.208
 9058W        W81318  29.920   7.936  14.456
 9059W        W81319  21.757   9.732   4.091
 9060W        W81320  35.068  13.717   4.133
 9061W        W81321   6.133  30.891  10.684
 9062W        W81322   3.773  17.134   2.801
 9063W        W81323   8.912   6.605   2.043
 9064W        W81324  26.987  44.933  13.025
 9065W        W81325  17.526  41.420   2.425
 9066W        W81326  10.197  35.189   4.069
 9067W        W81327   6.235  31.896   2.750
 9068W        W81328  13.698  34.898  14.439
 9069W        W81329  42.032  34.988   1.047
 9070W        W81330   0.459   6.998  14.354
 9071W        W81331   9.307  34.675   0.674
 9072W        W81332   8.571  25.161  13.800
 9073W        W81333  34.384   0.993   2.783
 9074W        W81334   6.302  25.686  12.060
 9075W        W81335  19.684  36.523  10.672
 9076W        W81336   9.173   6.450   2.439
 9077W        W81337  19.726  41.875  11.119
 9078W        W81338  21.944  20.924   2.150
 9079W        W81339  35.369  19.143   2.263
 9080W        W81340   1.493   8.277  11.863
 9081W        W81341   5.312  24.671   4.050
 9082W        W81342  13.089  22.257   2.142
 9083W        W81343  33.671   8.964  12.010
 9084W        W81344  35.429  38.338  11.946
 9085W        W81345   7.493  15.541   0.034
 9086W        W81346  43.626  31.518   0.047
 9087W        W81347  19.637   2.632   3.692
 9088W        W81348   6.740  18.512  10.674
 9089W        W81349   5.868  33.428  12.987
 9090W        W81350  26.095  21.828   0.364
 9091W        W81351   2.291  37.482   3.557
 9092W        W81352  39.085  39.038  10.857
 9093W        W81353  33.306  22.463   1.916
 9094W        W81354  32.437  33.607   4.776
 9095W        W81355  41.760  24.719  11.637
 9096W        W81356  28.213   9.241   1.000
 9097W        W81357  33.924  18.066  13.305
 9098W        W81358   7.195  35.964  11.588
 9099W        W81359  18.026  40.017  14.875
 9100W        W81360  25.112  44.689   0.872
 9101W        W81361  11.746  43.463   4.103
 9102W        W81362  35.567  33.432  12.939
 9103W        W81363  18.260   0.337   2.182
 9104W        W81364  28.076  38.572   1.703
 9105W        W81365  29.937  21.926  12.062
 9106W        W81366  32.133  26.177  11.030
 9107W        W81367  37.946  37.109   0.945
 9108W        W81368  42.365  19.164  11.472
 9109W        W81369  27.954  40.088   1.363
 9110W        W81370  33.612  26.537   1.130
 9111W        W81371  17.284  38.160  13.674
 9112W        W81372  35.346  12.788   1.393
 9113W        W81373  29.657   3.791  10.612
 9114W        W81374  27.289   7.744   2.654
 9115W        W81375  32.687   6.832   1.337
 9116W        W81376  31.490  32.994   3.897
 9117W        W81377  44.753  11.523  11.037
 9118W        W81378   0.207  29.203   2.093
 9119W        W81379  12.153   4.306  12.666
 9120W        W81380  32.639  11.203   3.665
 9121W        W81381   2.470  41.954  12.882
 9122W        W81382  26.614   5.349  14.523
 9123W        W81383  35.190   2.881  14.910
 9124W        W81384  38.308  16.287  12.931
 9125W        W81385  41.543  37.108  13.421
 9126W        W81386   1.286  41.568  13.294
 9127W        W81387   7.177  12.955   4.026
 9128W        W81388   9.185  16.971  14.065
 9129W        W81389  23.789  23.104   4.412
 9130W        W81390   3.767  24.431  11.632
 9131W        W81391   3.399  16.050   4.660
 9132W        W81392  24.689  23.281  13.786
 9133W        W81393  33.114   3.972   1.820
 9134W        W81394  29.848  41.399  13.297
 9135W        W81395   4.664  31.185  13.962
 9136W        W81396   0.296  37.302  10.130
 9137W        W81397  21.643   4.224   2.421
 9138W        W81398  12.738  14.482   0.413
 9139W        W81399  13.708   1.893  13.066
 9140W        W81400  27.571  26.069   1.971
 9141W        W81401  27.500   6.959   2.147
 9142W        W81402   2.194  37.357   0.852
 9143W        W81403  44.515   5.806   4.665
 9144W        W81404  20.803  39.963  13.551
 9145W        W81405  40.838  20.604  10.669
 9146W        W81406  27.631  39.128   1.238
 9147W        W81407  23.544  17.644   0.904
 9148W        W81408  24.568  40.001  13.552
 9149W        W81409  34.187  44.506   3.872
 9150W        W81410  42.864  23.851  11.368
 9151W        W81411  41.348  39.145   0.232
 9152W        W81412  32.448   2.652  12.157
 9153W        W81413  22.146   4.333   4.301
 9154W        W81414  16.139  42.512   0.924
 9155W        W81415  15.625  33.920  14.269
 9156W        W81416   7.739  32.451  13.428
 9157W        W81417  29.862   9.487   1.169
 9158W        W81418  14.782  13.767  14.793
 9159W        W81419  24.419  13.876  14.551
 9160W        W81420  13.246   5.679  12.830
 9161W        W81421  33.886   1.327   3.969
 9162W        W81422  34.621   8.783  12.584
 9163W        W81423  15.608   1.788   4.240
 9164W        W81424  25.100  33.634   1.734
 9165W        W81425  26.016   5.635  13.912
 9166W        W81426   0.903  38.491  10.895
 9167W        W81427  24.061  12.318  10.724
 9168W        W81428  16.127  40.508   4.705
 9169W        W81429   6.865  12.319   1.939
 9170W        W81430  29.942  11.339   2.542
 9171W        W81431  21.665  13.759  12.359
 9172W        W81432  33.407   5.260   1.731
 9173W        W81433   3.519  41.027  11.692
 9174W        W81434  24.735  33.495   0.729
 9175W        W81435  32.026  12.096  13.951
 9176W        W81436  26.985   5.151  12.130
 9177W        W81437  21.816   4.469  11.387
 9178W        W81438  17.063   7.224  12.028
 9179W        W81439  26.598  44.788  11.940
 9180W        W81440  31.113   8.414  11.860
 9181W        W81441   9.153   7.683  14.844
 9182W        W81442  33.041  30.041   3.607
 9183W        W81443  44.680  26.757   2.233
 9184W        W81444  30.847  25.713  11.256
 9185W        W81445  10.594  22.049  13.530
 9186W        W81446  14.408  35.227  11.763
 9187W        W81447  27.049   2.333  10.695
 9188W        W81448  32.373  38.423  13.502
 9189W        W81449  19.603  22.518  14.552
 9190W        W81450  23.712  18.548   2.947
 9191W        W81451  25.308  23.504   3.587
 9192W        W81452  28.488  28.542  10.518
 9193W        W81453   9.992  29.070  12.952
 9194W        W81454  28.017   0.331   1.212
 9195W        W81455   5.168   8.085  11.418
 9196W        W81456  41.565  25.021   0.879
 9197W        W81457  35.051  22.078   4.661
 9198W        W81458   2.880   1.852   2.860
 9199W        W81459  13.565  16.054  10.481
 9200W        W81460  34.861   9.030  13.799
 9201W        W81461  41.331  15.153  11.481
 9202W        W81462  20.031  32.046  13.457
 9203W        W81463  25.606  23.740  13.595
 9204W        W81464  21.707  27.833   3.149
 9205W        W81465  26.413  29.493   4.106
 9206W        W81466  32.408  28.208  14.879
 9207W        W81467  26.487  39.399   3.345
 9208W        W81468  41.938  15.281   0.516
 9209W        W81469   2.012  16.203  11.819
 9210W        W81470   4.355  36.825   3.160
 9211W        W81471  41.843  32.840   3.555
 9212W        W81472  43.566  17.477   3.589
 9213W        W81473   2.667  23.283   1.847
 9214W        W81474  26.502  36.321   3.489
 9215W        W81475  16.795  15.697   9.809
 9216W        W81476  21.372  16.881  13.454
 9217W        W81477  14.359   5.203   1.329
 9218W        W81478  21.488  40.989  11.176
 9219W        W81479   8.182   2.408   0.223
 9220W        W81480   9.501   6.113   3.480
 9221W        W81481  42.919  43.698  12.785
 9222W        W81482  34.267  32.517   3.140
 9223W        W81483  20.688  14.170   3.633
 9224W        W81484  10.859  40.394   2.032
 9225W        W81485  36.041  25.792   0.313
 9226W        W81486  44.765  40.096  12.940
 9227W        W81487  28.947   9.150   4.239
 9228W        W81488  32.421  25.250  12.501
 9229W        W81489  28.958  12.667   1.359
 9230W        W81490  18.503  26.022  12.457
 9231W        W81491  10.532  18.246  11.495
 9232W        W81492  20.712  19.078   2.716
 9233W        W81493  18.051  39.032   1.375
 9234W        W81494  12.555  28.690   3.688
 9235W        W81495   6.873  25.652  13.375
 9236W        W81496  17.545  32.896  14.768
 9237W        W81497   6.477   0.630  13.435
 9238W        W81498   4.303  24.176   0.983
 9239W        W81499  33.355   5.758  14.487
 9240W        W81500  32.259  19.210   3.691
 9241W        W81501  41.381   3.202  12.027
 9242W        W81502  38.399   0.829   0.874
 9243W        W81503  29.411   7.327   0.322
 9244W        W81504   2.482   2.648   1.734
 9245W        W81505  32.904  31.516  11.393
 9246W        W81506  38.127  41.057  10.739
 9247W        W81507  43.591  28.530   4.149
 9248W        W81508  17.504  34.858   4.206
 9249W        W81509  18.542   4.560  14.396
 9250W        W81510  28.689  38.739   1.376
 9251W        W81511  23.706  24.733   3.117
 9252W        W81512  15.924  40.242   3.385
 9253W        W81513  41.784   1.340   0.714
 9254W        W81514  14.910  40.774   2.833
 9255W        W81515  41.890  44.492   0.173
 9256W        W81516  40.120   8.874  13.421
 9257W        W81517   5.297   9.413   4.301
 9258W        W81518  18.355  23.741  10.750
 9259W        W81519  43.823  10.767   0.963
 9260W        W81520  20.562  27.944   0.727
 9261W        W81521   7.296  42.586  11.539
 9262W        W81522   0.871   5.899  10.814
 9263W        W81523   8.125   1.000   4.107
 9264W        W81524  18.298  21.528   2.757
 9265W        W81525  36.511   1.337   4.616
 9266W        W81526  10.357  26.617   3.169
 9267W        W81527  26.842  19.628   0.338
 9268W        W81528   6.284  41.054  10.723
 9269W        W81529  27.751  24.670   2.153
 9270W        W81530   6.451  41.976   1.952
 9271W        W81531  28.163  10.718  12.190
 9272W        W81532  35.199  33.589   3.628
 9273W        W81533   5.649  16.848  12.491
 9274W        W81534  41.830  14.179   4.990
 9275W        W81535  17.629  21.250  11.085
 9276W        W81536  37.367  42.066   2.617
 9277W        W81537  34.860  32.591  13.130
 9278W        W81538  41.255  15.180   3.928
 9279W        W81539   7.803   2.955   4.335
 9280W        W81540  11.136  33.999  10.589
 9281W        W81541  23.969   5.869  11.669
 9282W        W81542   3.855   4.052   3.775
 9283W        W81543  20.793  42.023   1.708
 9284W        W81544  35.172  35.553   1.457
 9285W        W81545   3.458  37.267   4.096
 9286W        W81546  36.293  34.395   3.648
 9287W        W81547  22.739  18.583  12.177
 9288W        W81548   5.606   7.600  10.818
 9289W        W81549   0.191  21.103   3.611
 9290W        W81550   1.332  18.989   1.430
 9291W        W81551  21.221  23.487   4.135
 9292W        W81552  33.404  23.669   3.240
 9293W        W81553  42.554  37.883  13.881
 9294W        W81554  12.083  24.890   3.636
 9295W        W81555  29.563   9.244  14.419
 9296W        W81556  31.254   5.456  14.894
 9297W        W81557  22.389  40.386   3.555
 9298W        W81558  28.901  42.809   4.553
 9299W        W81559  16.784   2.537  11.074
 9300W        W81560  28.611  32.188   5.031
 9301W        W81561  40.331   4.401   1.483
 9302W        W81562  30.193  13.481   0.396
 9303W        W81563  27.429  39.789   4.189
 9304W        W81564   8.113  13.086  13.799
 9305W        W81565  34.619   4.970   2.710
 9306W        W81566  16.029  33.103  11.701
 9307W        W81567   3.357  26.423  11.644
 9308W        W81568  25.202  18.775  14.562
 9309W        W81569   3.467  12.671  12.064
 9310W        W81570  26.856   8.885  10.442
 9311W        W81571  18.095  38.468   4.590
 9312W        W81572  30.728  15.400   1.687
 9313W        W81573  41.855  36.805   0.329
 9314W        W81574  24.466  10.666  14.696
 9315W        W81575  33.906  25.711  13.993
 9316W        W81576  19.507   9.643   1.907
 9317W        W81577  20.337   6.899   2.709
 9318W        W81578  30.399  30.833  11.533
 9319W        W81579  19.989   2.748  10.609
 9320W        W81580  25.194  34.074   1.254
 9321W        W81581  31.051   6.670   2.212
 9322W        W81582  18.602  34.769  13.165
 9323W        W81583  41.523  22.129  11.175
 9324W        W81584   1.552   2.728  11.914
 9325W        W81585  10.841  15.700   1.351
 9326W        W81586  15.686   6.241   1.292
 9327W        W81587  13.606  44.891  12.863
 9328W        W81588  18.527  30.169  13.144
 9329W        W81589  10.160   5.787  14.575
 9330W        W81590   5.718  16.286  12.622
 9331W        W81591  22.495  11.679   1.730
 9332W        W81592   6.916  44.915   3.637
 9333W        W81593  42.754  23.845   4.195
 9334W        W81594  37.970   7.884   3.205
 9335W        W81595  18.780  33.550  10.469
 9336W        W81596  31.609  10.528  11.381
 9337W        W81597   3.468  18.799   4.257
 9338W        W81598  23.195   2.957  11.567
 9339W        W81599   3.137   1.414  11.729
 9340W        W81600   9.698  21.270   2.586
 9341W        W81601   9.748  42.801  10.909
 9342W        W81602  36.807  28.480  12.517
 9343W        W81603  35.962   0.929   2.917
 9344W        W81604   1.532  44.626  12.995
 9345W        W81605   1.946  26.632  13.411
 9346W        W81606  33.665  32.792  13.399
 9347W        W81607   0.365  32.518  12.496
 9348W        W81608  43.499   5.227   2.823
 9349W        W81609   6.487   7.189  13.648
 9350W        W81610  22.719  40.135   3.163
 9351W        W81611   7.363  35.855   1.838
 9352W        W81612   5.683   2.391   1.383
 9353W        W81613  18.311  22.483  13.678
 9354W        W81614  18.221  10.308   0.938
 9355W        W81615  39.286  44.271   1.155
 9356W        W81616  38.782  26.349   2.715
 9357W        W81617  36.343  43.008  14.486
 9358W        W81618   1.927   8.555  11.749
 9359W        W81619  21.945  34.168  13.417
 9360W        W81620  22.812  22.190   2.380
 9361W        W81621   1.347   4.582   4.895
 9362W        W81622  10.041   1.539   3.835
 9363W        W81623   7.589  14.158   0.242
 9364W        W81624   5.333  11.798  14.235
 9365W        W81625  44.360  30.022  14.845
 9366W        W81626  31.929  37.659  11.597
 9367W        W81627   3.346   6.816  10.762
 9368W        W81628  36.207  27.379   0.899
 9369W        W81629   3.795  24.470  14.329
 9370W        W81630   5.376  40.796   3.822
 9371W        W81631  39.506  18.667  14.393
 9372W        W81632  27.549   5.741   2.907
 9373W        W81633  11.345  21.203   0.909
 9374W        W81634  23.250  21.635  14.069
 9375W        W81635  38.526  31.394  12.308
 9376W        W81636  18.601  43.535  11.224
 9377W        W81637   6.974  13.330   3.292
 9378W        W81638   5.695  25.716  11.730
 9379W        W81639  29.659  31.493   3.679
 9380W        W81640  20.080  26.712  12.111
 9381W        W81641   3.884  14.809   4.415
 9382W        W81642  37.326  20.520   3.885
 9383W        W81643   3.698  13.055   1.187
 9384W        W81644  15.756   1.379   3.181
 9385W        W81645  27.631  20.012  13.070
 9386W        W81646  17.346  23.155  10.646
 9387W        W81647  15.298  25.986  12.858
 9388W        W81648  26.528  43.243  11.991
 9389W        W81649  24.106  20.361  13.799
 9390W        W81650   5.977  25.700   2.262
 9391W        W81651   0.607  32.669   0.446
 9392W        W81652  25.110  15.229   1.726
 9393W        W81653  15.572  38.041   2.807
 9394W        W81654  13.753  17.730   3.712
 9395W        W81655   1.242  19.698   4.133
 9396W        W81656  37.996  33.936   0.903
 9397W        W81657  23.947   2.823  11.036
 9398W        W81658  23.013  38.110   0.961
 9399W        W81659   7.659  25.221  10.519
 9400W        W81660   3.801  27.750  13.578
 9401W        W81661   4.979  24.746  10.812
 9402W        W81662  22.328  12.029  11.888
 9403W        W81663  30.629  16.652  10.639
 9404W        W81664  33.334  39.424  12.911
 9405W        W81665  35.553  22.402  10.706
 9406W        W81666   7.356  25.622   1.478
 9407W        W81667  25.665  26.174  11.834
 9408W        W81668   7.319  25.627  10.666
 9409W        W81669  19.208  21.340  13.106
 9410W        W81670  25.221  41.538   3.946
 9411W        W81671   9.252  18.671  12.454
 9412W        W81672   4.318  24.438   3.241
 9413W        W81673  34.458  17.560   4.273
 9414W        W81674  31.667  13.528  13.721
 9415W        W81675   1.802   9.354  10.734
 9416W        W81676  15.244  18.229   4.806
 9417W        W81677  10.406  44.903  10.676
 9418W        W81678   0.010  28.624  14.453
 9419W        W81679  11.012  15.666   2.293
 9420W        W81680  22.636  29.703   1.147
 9421W        W81681  17.707  11.762   3.092
 9422W        W81682  20.962  14.743  13.420
 9423W        W81683  38.058  36.078   3.814
 9424W        W81684  26.251  42.569  12.221
 9425W        W81685  19.068   5.798   2.678
 9426W        W81686  32.529  31.140   4.288
 9427W        W81687  23.144   9.871   1.811
 9428W        W81688  26.945  36.503  14.790
 9429W        W81689  27.756  42.388  13.604
 9430W        W81690   7.357  26.327  12.321
 9431W        W81691  18.188  21.265   0.683
 9432W        W81692  39.222   4.881   2.738
 9433W        W81693  29.168  39.024  14.443
 9434W        W81694  33.448  10.136   2.772
 9435W        W81695   4.704   2.442   2.363
 9436W        W81696  19.846  40.749  13.081
 9437W        W81697  29.888   0.067  11.544
 9438W        W81698  35.477  21.564   5.783
 9439W        W81699  31.965  25.033   3.631
 9440W        W81700  32.947  25.724  11.419
 9441W        W81701   0.219  34.494  14.052
 9442W        W81702  40.797   0.865   4.285
 9443W        W81703  30.125  39.224  11.610
 9444W        W81704  32.075  33.898  12.182
 9445W        W81705   0.821  25.052   3.150
 9446W        W81706  25.017  24.106  11.077
 9447W        W81707  38.036  19.990  10.655
 9448W        W81708   2.886  11.866   2.249
 9449W        W81709  13.664  21.985  13.336
 9450W        W81710   1.022  23.462   1.302
 9451W        W81711  22.825  15.162  13.013
 9452W        W81712  19.214  25.507  10.578
 9453W        W81713   5.882  17.036   4.552
 9454W        W81714   6.815  13.010   2.895
 9455W        W81715  41.101   0.752  14.291
 9456W        W81716  18.092  36.444   3.791
 9457W        W81717  35.500  18.739  13.122
 9458W        W81718  26.558  30.966   1.343
 9459W        W81719  12.347   1.198   0.740
 9460W        W81720  31.484  42.187   4.619
 9461W        W81721  30.970  33.976  14.761
 9462W        W81722   7.896  22.146   1.647
 9463W        W81723  11.835  16.880   4.168
 9464W        W81724  25.783   8.641   1.607
 9465W        W81725  24.024  30.060  11.887
 9466W        W81726  12.374  37.485   3.572
 9467W        W81727  10.549  30.612  13.597
 9468W        W81728   0.990  19.712   1.959
 9469W        W81729   1.268  43.807   0.478
 9470W        W81730  38.138  32.528   3.761
 9471W        W81731  10.413  21.209  10.625
 9472W        W81732  25.634  31.783   3.685
 9473W        W81733   1.039  11.824  11.734
 9474W        W81734  34.884  37.978   4.269
 9475W        W81735  26.383  42.320   4.286
 9476W        W81736  41.209  32.137  13.858
 9477W        W81737   3.694  32.153   4.678
 9478W        W81738   9.424  20.478  13.600
 9479W        W81739  41.355  31.143   0.549
 9480W        W81740  42.004  28.069   2.255
 9481W        W81741   1.752  23.524   3.312
 9482W        W81742  12.233  18.179   4.105
 9483W        W81743  26.114  44.840  13.377
 9484W        W81744  39.824  32.714   2.369
 9485W        W81745  29.623  38.608   2.261
 9486W        W81746  38.482  42.253  12.968
 9487W        W81747  29.394  28.056  11.421
 9488W        W81748  44.432  42.047   3.913
 9489W        W81749  28.984  18.211   4.440
 9490W        W81750  39.291   6.736   2.733
 9491W        W81751  34.835   5.190  13.380
 9492W        W81752   7.804  32.369  14.318
 9493W        W81753  21.609  12.305  11.555
 9494W        W81754  38.791  32.078  13.200
 9495W        W81755  19.374  40.701  12.307
 9496W        W81756  19.617  30.880   0.497
 9497W        W81757  20.125  37.976  14.449
 9498W        W81758  29.075   7.716   1.402
 9499W        W81759   9.785  33.023   3.384
 9500W        W81760   9.637  28.570  14.080
 9501W        W81761  12.729  20.103   1.808
 9502W        W81762  12.575  30.924   4.610
 9503W        W81763  25.890  31.970  12.422
 9504W        W81764   5.956  30.679   0.347
 9505W        W81765   3.283  28.144  12.903
 9506W        W81766  43.235  25.743   1.841
 9507W        W81767  20.563   5.104   4.407
 9508W        W81768  29.508   9.871  11.659
 9509W        W81769  19.438  27.096   2.326
 9510W        W81770  42.441  36.434  13.104
 9511W        W81771  22.988  16.141   3.300
 9512W        W81772  26.452  38.580   4.911
 9513W        W81773  35.675   7.773   2.311
 9514W        W81774  31.908  10.566   0.577
 9515W        W81775   1.260   2.893   1.240
 9516W        W81776  11.705  29.731  12.964
 9517W        W81777  29.196  15.189  13.257
 9518W        W81778  11.137  30.400  14.512
 9519W        W81779  31.755   3.956  11.693
 9520W        W81780   5.958   8.636  12.862
 9521W        W81781  44.404  11.152  12.185
 9522W        W81782  10.316  20.981  14.894
 9523W        W81783  11.782  16.445  11.293
 9524W        W81784  35.937  31.487   1.151
 9525W        W81785  44.323  41.279   3.178
 9526W        W81786   5.639  40.556   3.251
 9527W        W81787  14.201   1.818   3.786
 9528W        W81788  40.551  35.514  11.074
 9529W        W81789  20.454  39.262  12.483
 9530W        W81790  35.178  27.511  10.869
 9531W        W81791  18.707  31.115   1.773
 9532W        W81792  23.947  41.252   4.088
 9533W        W81793  14.731   5.996  11.496
 9534W        W81794   8.097  37.563  11.113
 9535W        W81795  40.079   7.110  10.622
 9536W        W81796  35.398  37.900  14.991
 9537W        W81797  17.096  38.000   2.694
 9538W        W81798  36.559  31.460   1.881
 9539W        W81799  44.216   3.468  11.140
 9540W        W81800  11.216   3.013   2.782
 9541W        W81801  11.264  39.118  12.158
 9542W        W81802  43.238  20.607   1.193
 9543W        W81803   8.420  39.955  13.443
 9544W        W81804  24.579  42.319  10.952
 9545W        W81805  13.805  27.914   3.541
 9546W        W81806  41.787  38.895  13.011
 9547W        W81807   4.709   6.449   4.140
 9548W        W81808  34.909  12.903  11.291
 9549W        W81809   9.784   4.236  13.544
 9550W        W81810  22.067  34.227  12.630
 9551W        W81811  13.960  22.682   0.241
 9552W        W81812  32.272  34.696  13.399
 9553W        W81813  15.812  34.527  11.531
 9554W        W81814   6.481  27.364  13.598
 9555W        W81815  32.170  11.397  13.502
 9556W        W81816  13.285  39.443   0.003
 9557W        W81817  43.849  32.471   4.544
 9558W        W81818   5.369  14.101   1.536
 9559W        W81819  25.027   5.737  12.451
 9560W        W81820  40.650  12.249   2.798
 9561W        W81821  37.428  35.014   2.796
 9562W        W81822   7.860   6.977   0.810
 9563W        W81823   9.168  40.643   1.209
 9564W        W81824  30.305  44.443   4.177
 9565W        W81825  12.576  19.154  11.564
 9566W        W81826  25.511  20.861   1.813
 9567W        W81827  28.926  39.199   0.738
 9568W        W81828  38.134  22.913  12.043
 9569W        W81829  37.370  15.850   2.853
 9570W        W81830  15.388  15.127  11.808
 9571W        W81831  14.969  38.490  13.191
 9572W        W81832  30.612  40.931   4.282
 9573W        W81833  29.920  42.719   2.930
 9574W        W81834  11.849  14.790  13.841
 9575W        W81835   4.481  12.129  11.562
 9576W        W81836   3.362   6.496  14.887
 9577W        W81837  20.090   2.722   1.188
 9578W        W81838   1.446  34.893   1.936
 9579W        W81839  25.680  33.638  14.651
 9580W        W81840  37.801  16.228   2.710
 9581W        W81841  11.793  22.178  12.871
 9582W        W81842  10.623   1.723   4.661
 9583W        W81843  29.552  30.161  13.350
 9584W        W81844  38.858  23.886   0.747
 9585W        W81845  19.756  21.684  13.666
 9586W        W81846   2.342  16.624  10.573
 9587W        W81847  31.592  16.087   4.054
 9588W        W81848  24.606  12.581  14.940
 9589W        W81849   3.246  16.395  14.394
 9590W        W81850   1.502  34.535   3.204
 9591W        W81851  17.255   7.610  13.758
 9592W        W81852  44.931  12.446  11.147
 9593W        W81853  17.161  19.072   4.606
 9594W        W81854  32.429  33.184   0.472
 9595W        W81855   9.848  22.041  10.981
 9596W        W81856   7.630  32.551   3.131
 9597W        W81857  35.459  35.500   3.629
 9598W        W81858  43.400  39.740   1.350
 9599W        W81859  25.400  26.542   1.814
 9600W        W81860  43.835  43.540  12.188
 9601W        W81861  15.046  18.152   2.909
 9602W        W81862  44.987   4.319  13.369
 9603W        W81863  35.009  28.614   1.881
 9604W        W81864   5.835   4.282   1.289
 9605W        W81865  23.290  34.841  12.346
 9606W        W81866   6.790  29.184  13.885
 9607W        W81867  23.614   1.168  10.981
 9608W        W81868  20.082  42.510   2.019
 9609W        W81869   6.851  24.589   4.158
 9610W        W81870  40.111   0.167  11.596
 9611W        W81871  40.155  25.451   4.092
 9612W        W81872   7.307  39.281   0.861
 9613W        W81873  34.320  17.096   0.190
 9614W        W81874  32.955  13.410  11.912
 9615W        W81875  18.500  23.155  12.545
 9616W        W81876  35.870  16.640  12.107
 9617W        W81877  33.473  28.027  11.330
 9618W        W81878  31.909  17.626  11.571
 9619W        W81879   2.443  43.541   2.717
 9620W        W81880   5.345  25.047   0.268
 9621W        W81881  39.506   4.337   3.161
 9622W        W81882  25.210  42.498   3.724
 9623W        W81883  27.538  24.103  12.667
 9624W        W81884  17.098  12.051  13.146
 9625W        W81885  34.287  30.177   0.274
 9626W        W81886   9.913  37.121   9.870
 9627W        W81887  23.014  35.316   3.886
 9628W        W81888  21.249   0.659   0.277
 9629W        W81889  40.929  24.040   2.827
 9630W        W81890   2.202  41.602  13.813
 9631W        W81891  34.874  43.500  13.429
 9632W        W81892   7.329   4.988  11.048
 9633W        W81893  18.605  35.106  13.554
 9634W        W81894  42.761  37.916   2.742
 9635W        W81895  32.960   3.152   2.930
 9636W        W81896   1.505  29.651   3.281
 9637W        W81897   7.773  16.025   2.863
 9638W        W81898  25.533  10.672   2.665
 9639W        W81899  10.545  33.900   1.366
 9640W        W81900  12.512  17.513  14.046
 9641W        W81901   5.530  28.696   4.146
 9642W        W81902  43.420  30.545  14.012
 9643W        W81903  43.334   6.840  12.528
 9644W        W81904  37.852  35.812  12.405
 9645W        W81905  35.494  22.458   4.631
 9646W        W81906  41.996  37.784   4.780
 9647W        W81907  10.743  33.079   1.946
 9648W        W81908  12.659  27.807  10.227
 9649W        W81909   6.185  24.970  10.681
 9650W        W81910   6.234   7.756   3.723
 9651W        W81911  12.279  20.979  14.936
 9652W        W81912  20.637   0.376   2.341
 9653W        W81913  42.998  39.301  11.645
 9654W        W81914  12.320  16.100  14.289
 9655W        W81915  43.193   5.645   2.811
 9656W        W81916   5.924  11.619   3.938
 9657W        W81917  30.564  35.516   2.585
 9658W        W81918  27.840   0.913   0.408
 9659W        W81919  33.883  13.268  12.904
 9660W        W81920  21.753  41.035   0.274
 9661W        W81921  34.518   8.238  10.859
 9662W        W81922  33.944  24.731  14.971
 9663W        W81923  20.123  14.841   3.174
 9664W        W81924  40.562   0.747   4.735
 9665W        W81925  22.136  20.571   0.884
 9666W        W81926  27.258  14.597   2.733
 9667W        W81927  41.872  37.396  13.090
 9668W        W81928  11.137  39.869   3.744
 9669W        W81929  17.136  38.319   3.320
 9670W        W81930   0.868  14.633   0.777
 9671W        W81931  24.979  34.703  12.106
 9672W        W81932  16.695  39.745   4.563
 9673W        W81933   0.989  10.721   2.635
 9674W        W81934  38.382  28.998  11.497
 9675W        W81935  33.660   3.830  13.507
 9676W        W81936  21.727  38.792  12.548
 9677W        W81937  25.214  27.973  12.051
 9678W        W81938  39.530  17.594   4.580
 9679W        W81939  41.596  13.564   3.250
 9680W        W81940  41.063  20.920  14.855
 9681W        W81941  43.182  27.800   0.278
 9682W        W81942  42.321   0.391   3.047
 9683W        W81943  18.313  11.682  13.494
 9684W        W81944  19.037  20.758   3.240
 9685W        W81945  41.792  14.039  11.264
 9686W        W81946  33.385   0.609   0.244
 9687W        W81947   6.420  36.059  14.427
 9688W        W81948  42.684  25.090   3.059
 9689W        W81949  23.136  25.857   0.452
 9690W        W81950  33.380  27.975   3.677
 9691W        W81951  41.643  13.433  12.665
 9692W        W81952  18.267  31.200   3.106
 9693W        W81953  34.923   1.834   5.095
 9694W        W81954   5.422  23.476  11.131
 9695W        W81955   5.215  31.435  11.904
 9696W        W81956  27.245  23.127   3.752
 9697W        W81957  23.620  13.279   0.290
 9698W        W81958  19.551  38.271   1.016
 9699W        W81959  28.857  25.717  14.116
 9700W        W81960  42.824  18.190   4.535
 9701W        W81961  14.785  19.674   1.303
 9702W        W81962  32.653  43.019   4.476
 9703W        W81963  44.714  21.598  10.480
 9704W        W81964  31.064  12.782  10.495
 9705W        W81965  26.557  35.059   3.716
 9706W        W81966  17.798  31.880   3.405
 9707W        W81967   1.345  22.552  13.804
 9708W        W81968  35.927  36.683   1.742
 9709W        W81969  36.401   4.883  13.080
 9710W        W81970  36.228  22.786  13.898
 9711W        W81971  37.582  20.653  10.104
 9712W        W81972  24.696  32.395  11.118
 9713W        W81973   4.937  16.926  10.282
 9714W        W81974   7.911  26.416   3.674
 9715W        W81975   9.104   7.455  11.024
 9716W        W81976   2.344   3.129  14.461
 9717W        W81977  28.446  10.961   1.270
 9718W        W81978   1.209  43.058   2.521
 9719W        W81979   0.477   4.323   3.240
 9720W        W81980  37.688  22.998  13.765
 9721W        W81981   7.809  18.188  14.034
 9722W        W81982  17.353  38.563  14.454
 9723W        W81983   6.114  43.940  12.489
 9724W        W81984   2.262  37.072  14.125
 9725W        W81985  24.711   3.973  11.136
 9726W        W81986  30.180  33.903  13.680
 9727W        W81987  40.272   8.233   1.914
 9728W        W81988  33.389  44.905   2.709
 9729W        W81989  17.354  35.555  13.866
 9730W        W81990  15.744  31.299  12.812
 9731W        W81991   1.409  35.475  13.383
 9732W        W81992   5.787  24.650  13.635
 9733W        W81993  24.471  37.724  14.900
 9734W        W81994   0.499  43.180   4.175
 9735W        W81995  33.079   8.752   3.195
 9736W        W81996  39.904  11.693   1.583
 9737W        W81997  36.804   4.857  13.408
 9738W        W81998  38.969  34.466   1.242
 9739W        W81999  40.024  15.423   4.845
 9740W        W82000  37.116  23.602   2.214
 9741W        W82001  38.550   5.984  13.320
 9742W        W82002  17.323  34.659  11.160
 9743W        W82003  44.948   7.459   2.676
 9744W        W82004  35.479  44.375  12.840
 9745W        W82005   3.754   7.045   3.572
 9746W        W82006  18.145  30.764  11.680
 9747W        W82007   5.911  23.712   1.867
 9748W        W82008  34.115  27.023   1.906
 9749W        W82009  34.603  12.915  13.128
 9750W        W82010  18.738   6.513  12.899
 9751W        W82011  43.991   7.169   2.334
 9752W        W82012   3.042  25.745   0.199
 9753W        W82013  12.571  25.064   2.873
 9754W        W82014  12.860   9.401   2.921
 9755W        W82015  37.186  10.098   4.159
 9756W        W82016  21.542   3.848   3.230
 9757W        W82017  31.457  27.122   4.388
 9758W        W82018  22.727  40.539   0.012
 9759W        W82019   5.457   5.306   4.262
 9760W        W82020  11.111  30.687   0.305
 9761W        W82021  36.576  16.586  14.788
 9762W        W82022  28.743  36.796   0.022
 9763W        W82023  11.950  18.779  14.774
 9764W        W82024  12.353  44.907  11.074
 9765W        W82025   3.904  26.455  13.306
 9766W        W82026  18.892  24.664  13.531
 9767W        W82027   5.891  28.041  10.778
 9768W        W82028  34.111  40.028  12.462
 9769W        W82029   1.243  37.814  11.434
 9770W        W82030   4.913  27.634   2.392
 9771W        W82031  28.897  25.155  12.444
 9772W        W82032   6.985  34.881   4.100
 9773W        W82033  37.645  33.543   5.086
 9774W        W82034  13.108  35.041  13.075
 9775W        W82035  22.287   8.758  13.276
 9776W        W82036  28.974  43.890  14.344
 9777W        W82037   6.024  27.585  13.519
 9778W        W82038  33.255  20.293  14.876
 9779W        W82039   8.609  36.642   0.825
 9780W        W82040  13.925  22.117  12.850
 9781W        W82041  19.729  17.078  11.786
 9782W        W82042  15.516  11.249   2.922
 9783W        W82043  40.982  41.699   2.178
 9784W        W82044  44.576  14.566  13.874
 9785W        W82045  32.985   4.656   0.366
 9786W        W82046  22.056  10.637  11.171
 9787W        W82047  13.721   7.426   0.831
 9788W        W82048  41.590  32.511  14.779
 9789W        W82049  14.656  12.028  12.902
 9790W        W82050  23.014  26.358  10.975
 9791W        W82051  36.368  36.503  13.582
 9792W        W82052   3.837  17.745   1.289
 9793W        W82053  30.974  42.142  14.826
 9794W        W82054   2.257   8.385   1.608
 9795W        W82055   0.313  15.399   2.936
 9796W        W82056  17.776   6.056  14.333
 9797W        W82057   6.830  12.614   3.832
 9798W        W82058  19.799  43.295  13.178
 9799W        W82059  31.178  40.939   3.425
 9800W        W82060  18.324   9.531  13.769
 9801W        W82061  38.281  40.811   0.346
 9802W        W82062  28.549   1.331   0.957
 9803W        W82063   8.621   4.244  14.807
 9804W        W82064  33.025  36.858  14.774
 9805W        W82065   1.442   0.848   4.554
 9806W        W82066  23.615  22.511  14.373
 9807W        W82067  22.558   4.470   4.786
 9808W        W82068  43.600   0.755   1.223
 9809W        W82069  14.463  20.016   2.956
 9810W        W82070  25.214   1.253   4.558
 9811W        W82071  38.838  30.773   2.848
 9812W        W82072  15.233  19.264   3.840
 9813W        W82073  35.361  24.540   3.345
 9814W        W82074  13.241  30.288   1.726
 9815W        W82075  22.269   5.523  10.439
 9816W        W82076   5.559  31.406  14.896
 9817W        W82077  20.611  42.114   1.216
 9818W        W82078  16.788  15.433  13.600
 9819W        W82079  20.987  11.334  11.584
 9820W        W82080  27.460  24.999   3.023
 9821W        W82081  27.422   2.308  13.831
 9822W        W82082  42.808  21.357  10.460
 9823W        W82083  15.720  38.339   1.024
 9824W        W82084  32.276  28.634  10.919
 9825W        W82085   0.820  25.698  14.914
 9826W        W82086  35.334   1.813   4.761
 9827W        W82087  25.747  42.786  13.851
 9828W        W82088   0.356  22.661   3.670
 9829W        W82089  10.304   0.802   4.394
 9830W        W82090  38.794  31.404   5.373
 9831W        W82091  40.426  18.302  10.678
 9832W        W82092  20.536   2.416   3.816
 9833W        W82093   0.956  39.848  13.651
 9834W        W82094   7.971   6.427  11.055
 9835W        W82095  39.033  20.258   3.512
 9836W        W82096  43.166   9.263  14.542
 9837W        W82097   4.187   2.862   4.998
 9838W        W82098  18.636  43.702   1.679
 9839W        W82099  24.658   1.723   3.046
 9840W        W82100  16.453  17.827   1.884
 9841W        W82101  33.675  21.709   2.259
 9842W        W82102  34.462  27.034  13.581
 9843W        W82103  15.144  29.152  11.831
 9844W        W82104  32.044  37.103   1.762
 9845W        W82105  32.136   2.777   4.823
 9846W        W82106  27.531  22.675  11.515
 9847W        W82107  17.573  44.404  12.457
 9848W        W82108   7.375  42.037  11.564
 9849W        W82109  26.075  40.486   3.850
 9850W        W82110  31.043  24.055   4.252
 9851W        W82111   5.718  35.456   0.296
 9852W        W82112  34.220  13.751  11.558
 9853W        W82113  44.258  27.809  11.261
 9854W        W82114  41.009  39.880  11.664
 9855W        W82115  13.488  10.059   0.856
 9856W        W82116   9.906  17.713   3.751
 9857W        W82117   3.250  13.455  14.605
 9858W        W82118  23.683  24.201   1.810
 9859W        W82119   1.766   5.874   4.709
 9860W        W82120   5.390  34.885  11.144
 9861W        W82121  14.627  20.484  12.036
 9862W        W82122  39.438   7.335  11.540
 9863W        W82123   1.665  32.323   1.909
 9864W        W82124  19.738  23.018   1.162
 9865W        W82125  42.864   3.824  13.941
 9866W        W82126  15.775  43.852  10.361
 9867W        W82127   1.700  28.493   1.894
 9868W        W82128  42.981   5.112   2.889
 9869W        W82129   9.820  44.538  12.012
 9870W        W82130  25.131  28.478  10.487
 9871W        W82131  35.139  30.013  12.535
 9872W        W82132  30.696  12.603  12.438
 9873W        W82133  39.227  34.318   1.932
 9874W        W82134   9.421  26.922   1.353
 9875W        W82135  32.878  42.882  14.523
 9876W        W82136  22.788  21.797   9.772
 9877W        W82137  30.171  33.723   3.835
 9878W        W82138  41.844  13.743   1.896
 9879W        W82139  22.475  30.082  13.560
 9880W        W82140  43.151  31.438   1.414
 9881W        W82141  11.644   7.351   0.279
 9882W        W82142  22.482  15.569  11.726
 9883W        W82143  10.914  21.528   4.374
 9884W        W82144   6.809  42.252  10.405
 9885W        W82145  25.177  21.977  12.898
 9886W        W82146   6.002  41.615   2.359
 9887W        W82147  38.496  28.905   4.754
 9888W        W82148  33.407  19.539  11.611
 9889W        W82149  11.259  39.495   2.367
 9890W        W82150  19.330  16.174  12.015
 9891W        W82151   0.057  37.162  14.229
 9892W        W82152   4.401  30.402  11.901
 9893W        W82153   6.128  11.754   4.690
 9894W        W82154  26.813  31.800  11.195
 9895W        W82155  28.647  16.408   1.746
 9896W        W82156  33.547   1.063   2.405
 9897W        W82157  37.009  23.573  13.092
 9898W        W82158  22.715  39.547  12.280
 9899W        W82159  23.196  35.397   4.362
 9900W        W82160  16.320  23.677   4.851
 9901W        W82161  19.763  36.398   0.065
 9902W        W82162  35.986  14.072  10.420
 9903W        W82163  42.768  32.602   3.167
 9904W        W82164  12.372  14.757  13.846
 9905W        W82165  31.967   9.741  14.771
 9906W        W82166  22.601  38.501  11.689
 9907W        W82167  39.866  40.999  11.670
 9908W        W82168  29.681   4.424   0.363
 9909W        W82169  29.880  11.579  13.572
 9910W        W82170  12.057  25.111  12.883
 9911W        W82171   0.885  33.048   3.803
 9912W        W82172  42.488   4.383  11.410
 9913W        W82173  40.802  39.667   3.018
 9914W        W82174  23.774  25.658   1.813
 9915W        W82175  18.297   7.948  10.205
 9916W        W82176  17.812  34.846   1.203
 9917W        W82177  32.732  40.678  12.566
 9918W        W82178  33.409  32.406  12.532
 9919W        W82179  34.461  30.013  10.511
 9920W        W82180  23.281  32.128  13.382
 9921W        W82181   0.393  38.987   0.376
 9922W        W82182  16.195  42.441   0.031
 9923W        W82183   8.393  27.149   0.810
 9924W        W82184  28.059  11.554   3.672
 9925W        W82185  34.196   4.395  10.616
 9926W        W82186   8.224  20.264   0.776
 9927W        W82187  22.625   2.643  11.995
 9928W        W82188  21.230  13.793  11.567
 9929W        W82189  15.613  17.473   4.111
 9930W        W82190  44.247   7.650   2.282
 9931W        W82191  37.834  21.186  10.718
 9932W        W82192   1.269  17.224  14.780
 9933W        W82193  27.450  22.124  12.205
 9934W        W82194  35.154   4.683  10.568
 9935W        W82195  40.027   0.010   2.202
 9936W        W82196  20.886  22.241  13.060
 9937W        W82197   6.265  27.198   1.095
 9938W        W82198  10.899   1.381  11.655
 9939W        W82199   7.858  30.414   0.287
 9940W        W82200  19.531  23.063  12.414
 9941W        W82201  19.736  39.302  14.920
 9942W        W82202  41.075  23.991   0.843
 9943W        W82203  30.914  42.978  12.967
 9944W        W82204  10.874  38.427  14.998
 9945W        W82205  20.858  40.980  13.874
 9946W        W82206   8.617  31.472   2.162
 9947W        W82207   7.136  26.024   0.152
 9948W        W82208  24.114  18.311   3.705
 9949W        W82209  33.801  15.878  14.858
 9950W        W82210  16.160   2.980   0.029
 9951W        W82211  43.003   9.905  11.493
 9952W        W82212   4.907  32.503   2.280
 9953W        W82213  20.740  24.245   4.174
 9954W        W82214  30.998  16.654  12.510
 9955W        W82215  17.354  19.538   4.403
 9956W        W82216  40.568  20.347   3.804
 9957W        W82217  17.305  30.065   2.352
 9958W        W82218  41.429  25.021  11.967
 9959W        W82219   5.536  12.389   4.392
 9960W        W82220   9.832  29.971   4.526
 9961W        W82221  26.676  29.482  11.052
 9962W        W82222  21.758  30.123  13.787
 9963W        W82223  37.355  37.962   2.185
 9964W        W82224   5.477  13.671  10.837
 9965W        W82225  17.717  15.387   3.305
 9966W        W82226  31.491  19.943   0.411
 9967W        W82227  44.150  26.487  11.539
 9968W        W82228  37.376  39.714  11.270
 9969W        W82229  40.943   6.255  10.764
 9970W        W82230  12.845  38.413  13.023
 9971W        W82231   4.242  37.044  12.347
 9972W        W82232  40.500  42.317  13.865
 9973W        W82233  42.524  44.562   2.515
 9974W        W82234  25.046   4.736   4.084
 9975W        W82235  29.038  22.531  11.562
 9976W        W82236   1.031  43.334   3.646
 9977W        W82237  34.609  18.336  12.984
 9978W        W82238   3.016   6.651  11.619
 9979W        W82239  27.710  31.024   5.445
 9980W        W82240  11.045   5.120   0.169
 9981W        W82241  35.333  23.735   3.541
 9982W        W82242  12.808  36.559   3.670
 9983W        W82243   3.196  13.162   4.110
 9984W        W82244   8.431   5.674   2.933
 9985W        W82245   0.056  16.619  12.437
 9986W        W82246   1.940  28.583  14.576
 9987W        W82247  16.668  15.889   1.225
 9988W        W82248   0.764   6.421   4.726
 9989W        W82249   8.139  38.068   3.231
 9990W        W82250  40.561  38.385   4.126
 9991W        W82251  28.357  30.561  10.225
 9992W        W82252  38.639   0.355   0.721
 9993W        W82253   1.766  10.371  14.723
 9994W        W82254  17.120  18.832  12.811
 9995W        W82255  21.794   6.459   4.154
 9996W        W82256  24.829  23.715  11.554
 9997W        W82257  34.045   1.760   2.514
 9998W        W82258  16.031  40.359   1.632
 9999W        W82259  32.098  39.808   2.849
10000W        W82260  11.903   0.348   4.262
10001W        W82261  43.043  18.935   0.002
10002W        W82262  11.156   3.971  12.063
10003W        W82263   4.293  15.772  14.693
10004W        W82264  32.356  26.162  12.463
10005W        W82265   4.841  26.343   9.916
10006W        W82266  32.380  12.141   4.113
10007W        W82267  28.228  26.678   2.132
10008W        W82268   8.357   7.247  12.877
10009W        W82269   9.160  40.165   1.450
10010W        W82270   3.748   2.962   1.718
10011W        W82271  20.268  12.713  12.877
10012W        W82272  38.993  16.189  14.072
10013W        W82273  44.274   5.158  10.676
10014W        W82274  31.465  41.606   2.807
10015W        W82275  29.467  43.688  14.177
10016W        W82276  39.818  36.606  12.084
10017W        W82277  33.632  33.088  14.722
10018W        W82278   4.078  29.014  10.821
10019W        W82279  35.950  16.222   2.799
10020W        W82280  36.586  22.609  10.282
10021W        W82281  14.621  30.247   3.263
10022W        W82282   8.281  27.156   3.746
10023W        W82283  18.350  34.664   2.620
10024W        W82284  26.229  33.394   3.571
10025W        W82285  41.038  10.970   1.944
10026W        W82286  42.386  19.040   2.132
10027W        W82287  36.449  35.339   0.995
10028W        W82288  21.205   8.325  12.678
10029W        W82289  17.582  44.801   4.213
10030W        W82290   3.394  21.707  12.897
10031W        W82291  12.694  24.177   0.898
10032W        W82292  11.774  42.627  13.453
10033W        W82293  12.729  12.420  11.684
10034W        W82294   3.902   2.867  12.563
10035W        W82295   2.469  10.215  14.390
10036W        W82296  25.037   1.967  11.008
10037W        W82297  38.367  34.388   3.749
10038W        W82298  28.643  23.849  14.890
10039W        W82299  10.779   1.668  10.721
10040W        W82300   3.780  15.725  10.018
10041W        W82301   8.737   2.146   3.124
10042W        W82302  36.104   8.922  12.679
10043W        W82303  43.448  23.005   0.870
10044W        W82304  42.235   6.779  10.695
10045W        W82305  17.583  37.338   4.551
10046W        W82306  31.974   4.463   0.995
10047W        W82307   0.781   9.814   1.901
10048W        W82308  43.213   0.387   2.923
10049W        W82309   5.321  36.104   1.873
10050W        W82310  14.699  35.550   2.920
10051W        W82311   0.425   3.422  12.954
10052W        W82312  24.715  26.991  14.693
10053W        W82313  25.416  34.192  12.862
10054W        W82314  32.666   4.238  14.871
10055W        W82315   3.252   7.837  10.757
10056W        W82316  44.481   9.768   3.673
10057W        W82317   6.854  11.688   4.071
10058W        W82318   5.592  43.462   2.214
10059W        W82319  40.557  31.917   3.285
10060W        W82320  43.855  12.316   2.817
10061W        W82321  11.455  42.615   3.264
10062W        W82322   3.934  10.465   4.276
10063W        W82323  33.451   1.925   3.616
10064W        W82324  22.698  15.471   2.777
10065W        W82325  13.417   2.886   1.205
10066W        W82326   7.883  10.155   0.156
10067W        W82327  29.643  10.359   0.872
10068W        W82328  17.190  13.094   4.496
10069W        W82329  35.055  25.977   2.107
10070W        W82330   6.357   2.219   4.617
10071W        W82331  24.177   1.918  11.370
10072W        W82332  16.374   1.550   4.004
10073W        W82333  26.290  41.428  13.902
10074W        W82334   9.409  10.202  10.896
10075W        W82335  11.130   0.267  14.904
10076W        W82336  20.734   7.593   0.254
10077W        W82337  40.501  14.697   3.688
10078W        W82338  44.947   1.998  13.712
10079W        W82339   6.406  16.501  13.441
10080W        W82340  26.185   0.544   1.703
10081W        W82341  39.972  43.233   0.452
10082W        W82342  31.119   1.773   1.398
10083W        W82343  15.195  36.814  10.387
10084W        W82344  44.661  38.543   3.057
10085W        W82345  20.178  12.993   0.974
10086W        W82346  28.048  24.062   2.331
10087W        W82347  42.203   1.789   3.772
10088W        W82348  28.979   5.922  13.787
10089W        W82349   7.433  18.080   3.713
10090W        W82350  21.022  36.366  14.417
10091W        W82351  31.656  12.444   3.176
10092W        W82352   0.909  16.806   1.255
10093W        W82353  22.175   5.436  12.823
10094W        W82354  41.305   7.703  14.401
10095W        W82355  39.034   2.936  11.521
10096W        W82356  16.966  42.191  14.998
10097W        W82357  23.099  10.950   2.733
10098W        W82358  22.641   3.170  12.075
10099W        W82359  28.062  30.638   4.601
10100W        W82360  12.797  15.650   5.098
10101W        W82361  39.674  10.261   0.407
10102W        W82362  30.587  41.069   0.383
10103W        W82363  15.121  38.522   1.991
10104W        W82364  13.887  38.048   0.588
10105W        W82365  15.354  19.307  11.213
10106W        W82366  16.259   3.941   0.247
10107W        W82367  29.536  13.358  11.001
10108W        W82368  37.404  30.877   0.301
10109W        W82369  36.339   7.496  12.870
10110W        W82370  34.542  31.911   0.879
10111W        W82371  31.870   4.819  14.896
10112W        W82372  27.970  22.475  10.631
10113W        W82373  37.576   7.376  13.927
10114W        W82374  25.422  15.078   4.281
10115W        W82375  30.656  35.406  12.587
10116W        W82376  29.595  25.428  12.874
10117W        W82377  37.520   1.487   4.418
10118W        W82378   5.943  13.606   1.025
10119W        W82379  20.572  30.065   4.638
10120W        W82380  24.959   0.834   2.805
10121W        W82381   7.271  11.863  13.983
10122W        W82382  44.799  15.724   3.766
10123W        W82383  20.833  30.707   2.306
10124W        W82384  12.635   8.102   2.209
10125W        W82385  15.044  31.418   4.571
10126W        W82386  27.128  36.251  14.343
10127W        W82387   0.344   7.331  13.114
10128W        W82388   4.404  13.333  12.188
10129W        W82389   5.046  31.116  13.144
10130W        W82390   0.821   6.761  10.532
10131W        W82391  28.106  21.647   0.325
10132W        W82392  39.362  23.097  12.944
10133W        W82393   3.228  26.405   4.057
10134W        W82394   9.428  41.555   0.845
10135W        W82395   0.588   4.811  13.959
10136W        W82396   5.823  34.844  11.443
10137W        W82397  34.395   0.530   3.599
10138W        W82398  23.316   0.459   0.730
10139W        W82399  32.637  39.999  11.632
10140W        W82400  43.248  38.978  13.979
10141W        W82401  11.636  42.880  11.124
10142W        W82402  31.952  32.920   2.665
10143W        W82403   3.816  15.776  10.691
10144W        W82404  44.843  27.208   4.248
10145W        W82405  12.616  11.311   0.756
10146W        W82406  39.040   1.987  14.500
10147W        W82407   6.416  34.063  11.886
10148W        W82408  43.262  31.139   0.992
10149W        W82409   1.466  31.434  11.353
10150W        W82410  39.916   8.386  13.478
10151W        W82411  43.705   1.245  11.645
10152W        W82412  13.642  44.883  11.387
10153W        W82413  27.110  13.817  10.809
10154W        W82414  32.404  39.187  10.727
10155W        W82415  40.014  33.885   3.222
10156W        W82416  22.989   7.235  14.453
10157W        W82417  17.279  20.657  14.823
10158W        W82418   5.107  24.714  14.167
10159W        W82419  44.986  13.566  12.527
10160W        W82420  23.721  26.678   1.236
10161W        W82421   8.200  36.987   2.354
10162W        W82422  23.277  29.046   4.811
10163W        W82423  19.523   3.472  13.147
10164W        W82424  43.438  25.241  10.503
10165W        W82425  33.184  41.412   1.326
10166W        W82426   0.434  21.885   1.149
10167W        W82427   3.310   7.459  13.075
10168W        W82428  36.047  32.350  11.586
10169W        W82429  20.731   3.322   2.122
10170W        W82430  12.240  41.386  12.433
10171W        W82431  17.646  39.060  10.526
10172W        W82432  31.868   2.031  12.590
10173W        W82433   9.803   3.221   1.349
10174W        W82434  14.319  32.529  14.984
10175W        W82435  40.101   9.409  13.413
10176W        W82436  14.327   9.948   0.160
10177W        W82437  15.785  32.162  11.618
10178W        W82438   3.866   3.563   0.357
10179W        W82439  24.545  14.221   0.799
10180W        W82440  10.382  32.959  11.984
10181W        W82441  35.470   2.982  13.984
10182W        W82442  18.195   1.706   1.224
10183W        W82443  19.102  32.097  14.026
10184W        W82444  23.807  26.972   3.658
10185W        W82445  13.718   9.785   3.627
10186W        W82446  20.469  15.031  13.084
10187W        W82447  37.889  44.237  13.133
10188W        W82448  33.142  28.412   2.416
10189W        W82449  23.035  37.407   3.744
10190W        W82450   4.384   6.661  11.605
10191W        W82451  32.103  44.228  12.033
10192W        W82452  31.504  25.742   4.551
10193W        W82453  17.094  32.455  10.709
10194W        W82454  39.995  15.233  14.645
10195W        W82455  25.146   7.968   4.190
10196W        W82456   5.381  35.903   2.350
10197W        W82457   6.940  28.926  10.751
10198W        W82458  31.063  14.118   4.124
10199W        W82459   9.407   2.746   0.849
10200W        W82460  12.342  13.328   1.646
10201W        W82461   8.678   7.893  14.947
10202W        W82462  37.994  36.776  14.491
10203W        W82463  18.732  21.559  14.946
10204W        W82464  13.889  10.227   4.806
10205W        W82465  31.453  31.322   3.733
10206W        W82466  37.495   2.412   4.451
10207W        W82467   8.895  34.520  12.021
10208W        W82468  10.260   2.400   4.881
10209W        W82469   5.694  44.285   2.238
10210W        W82470  26.521  43.541   3.239
10211W        W82471  22.611  37.052  10.406
10212W        W82472  25.171  27.108   3.667
10213W        W82473  33.694  10.021   5.040
10214W        W82474  14.651  37.964   4.281
10215W        W82475  20.526  32.942  11.442
10216W        W82476  32.939   8.698  13.825
10217W        W82477  39.575  30.143   0.890
10218W        W82478  13.888  24.549  13.151
10219W        W82479  18.870  43.384  11.716
10220W        W82480  18.430  10.023  13.918
10221W        W82481  35.959  30.613  13.093
10222W        W82482  41.039   5.319   2.137
10223W        W82483  29.715   0.369   3.230
10224W        W82484  27.554  18.639  13.503
10225W        W82485  25.300   8.381  12.097
10226W        W82486  14.825  27.871  11.439
10227W        W82487   7.661   0.929   0.240
10228W        W82488  36.453  34.999   0.567
10229W        W82489   6.008  28.496   4.209
10230W        W82490   1.802  41.829  10.620
10231W        W82491  24.529   6.196   2.141
10232W        W82492  31.480  14.285   4.375
10233W        W82493  24.695  21.826   0.464
10234W        W82494   8.361   0.164  14.443
10235W        W82495  33.471   3.894  13.982
10236W        W82496  19.025  28.460   2.655
10237W        W82497  17.569   7.200  11.999
10238W        W82498  21.494  38.238   0.909
10239W        W82499  10.083  32.641   0.791
10240W        W82500  27.813   7.645   0.532
10241W        W82501  39.191   7.303   5.100
10242W        W82502   0.982  29.129   0.253
10243W        W82503  10.815   5.888  11.195
10244W        W82504   1.841  22.246  13.131
10245W        W82505  10.370  44.056  13.371
10246W        W82506  23.973   8.393  13.055
10247W        W82507  24.822  33.537   2.183
10248W        W82508  14.397  38.046  10.910
10249W        W82509  10.690  21.197   4.698
10250W        W82510  11.593  25.993  13.006
10251W        W82511  36.000  41.572  11.015
10252W        W82512  13.080  33.061  14.837
10253W        W82513  26.932  27.474  14.089
10254W        W82514  23.662  18.076   4.706
10255W        W82515  12.319  36.629   0.320
10256W        W82516  34.769  42.062   0.226
10257W        W82517  35.007  22.544  14.401
10258W        W82518   4.256   3.708   3.674
10259W        W82519  19.015  37.943  10.483
10260W        W82520  26.761  15.080   3.198
10261W        W82521  41.434  41.684  13.802
10262W        W82522  17.584  16.803  12.582
10263W        W82523  40.339  13.437   4.149
10264W        W82524  15.318   2.936   0.046
10265W        W82525  12.785  38.789   3.229
10266W        W82526  33.883  12.135  10.684
10267W        W82527   5.313  11.217   1.824
10268W        W82528  34.145  12.265  13.871
10269W        W82529  12.010  13.653   4.855
10270W        W82530   5.813   8.794   2.926
10271W        W82531   7.369  34.363   2.913
10272W        W82532  18.520   7.365   2.668
10273W        W82533  43.820   8.282   1.318
10274W        W82534  29.065  42.809   1.470
10275W        W82535  41.634  33.906  13.534
10276W        W82536  39.834  35.731  14.204
10277W        W82537  26.855  18.249   0.816
10278W        W82538   1.264  34.490   3.680
10279W        W82539  17.602   0.560   1.254
10280W        W82540  34.446  15.702  10.911
10281W        W82541  36.937  39.892  11.972
10282W        W82542  11.733   6.329  13.264
10283W        W82543  15.124  34.535  10.643
10284W        W82544  32.471  14.878  11.149
10285W        W82545  25.437  35.324   2.374
10286W        W82546  37.112   0.305   1.152
10287W        W82547   9.642  26.030  10.345
10288W        W82548  22.366  14.808  10.948
10289W        W82549  38.419   8.570  10.680
10290W        W82550  35.999   8.747   4.871
10291W        W82551  17.347   4.243   3.973
10292W        W82552   2.709   6.845   0.328
10293W        W82553  41.736  16.587   0.258
10294W        W82554  19.198  26.602  14.536
10295W        W82555  19.773   2.833   0.322
10296W        W82556   5.166  26.463  11.988
10297W        W82557  42.046  12.616   1.400
10298W        W82558  13.789  14.752   2.661
10299W        W82559  27.970  16.554  12.045
10300W        W82560  41.896  22.300  13.287
10301W        W82561  25.781  23.752   2.688
10302W        W82562   4.339  14.524  13.851
10303W        W82563  12.800  31.485   3.586
10304W        W82564   2.480   9.371  13.049
10305W        W82565  42.234  19.671   1.509
10306W        W82566  39.293  28.508  12.171
10307W        W82567  14.637  43.000  12.470
10308W        W82568  24.624  32.403   1.713
10309W        W82569   6.700  27.131  10.847
10310W        W82570  11.439  28.422  13.354
10311W        W82571   8.789  43.916   0.795
10312W        W82572  21.837  32.864   4.747
10313W        W82573  12.601  11.795  14.558
10314W        W82574  36.895  23.079  14.376
10315W        W82575  21.680   3.535  12.090
10316W        W82576  22.953  34.937  10.569
10317W        W82577  29.669  43.224  14.038
10318W        W82578  37.879   9.416  10.661
10319W        W82579  40.715  14.967   0.920
10320W        W82580  39.868  26.576   4.706
10321W        W82581  44.981  33.055   2.200
10322W        W82582   6.939  16.520   3.345
10323W        W82583  33.199  11.254   4.542
10324W        W82584  38.947  13.594   2.151
10325W        W82585  33.453   7.281   1.302
10326W        W82586  40.759   4.884   1.705
10327W        W82587  40.644  25.594   3.995
10328W        W82588  27.464  21.136  10.759
10329W        W82589  35.938  21.181   2.479
10330W        W82590   1.760  15.493  14.560
10331W        W82591  16.467  16.503   5.435
10332W        W82592  21.715  28.528  13.049
10333W        W82593  33.167  17.952  12.120
10334W        W82594  19.685  12.600   2.393
10335W        W82595  23.599  32.372   2.337
10336W        W82596  32.102  22.707  13.819
10337W        W82597  35.658  12.324   4.053
10338W        W82598  36.923  12.270  14.969
10339W        W82599  34.103  33.104   0.809
10340W        W82600  19.187  14.609  11.133
10341W        W82601   8.444   5.448  11.054
10342W        W82602  34.105  24.512   2.778
10343W        W82603  17.334  25.175   4.142
10344W        W82604  36.600  29.702  10.726
10345W        W82605  44.003  33.405   2.642
10346W        W82606   8.929  29.106   0.295
10347W        W82607  41.536   2.759  13.814
10348W        W82608  33.008   5.232  14.069
10349W        W82609   2.665  22.752  10.692
10350W        W82610  43.660   3.117   0.341
10351W        W82611  31.100  12.352   1.735
10352W        W82612  38.006  15.826  13.399
10353W        W82613  37.964  15.749   3.758
10354W        W82614  31.839  41.755  12.076
10355W        W82615  17.010  35.071   0.062
10356W        W82616  16.586  15.776  12.750
10357W        W82617  10.311  37.602  14.428
10358W        W82618  40.369  33.458   5.057
10359W        W82619  41.467   7.175   4.175
10360W        W82620  27.069  18.444  14.947
10361W        W82621  39.557  31.199  13.771
10362W        W82622  40.010  28.597   3.125
10363W        W82623  22.458  25.939   4.171
10364W        W82624   3.793  22.542   2.305
10365W        W82625  19.680  21.737  12.241
10366W        W82626  15.123  39.080  14.463
10367W        W82627  31.644  12.698   3.681
10368W        W82628  36.255  24.897   0.374
10369W        W82629  26.227  35.558  11.639
10370W        W82630  32.116  17.278   4.340
10371W        W82631  43.465  33.376   1.349
10372W        W82632  28.717   6.423  14.378
10373W        W82633  34.369  16.193   1.860
10374W        W82634  44.518  35.542  12.017
10375W        W82635   6.206  34.919  10.296
10376W        W82636  42.973  12.358   2.903
10377W        W82637   1.727  17.191   1.825
10378W        W82638  39.663  16.891  14.437
10379W        W82639  44.157   1.979  13.309
10380W        W82640   4.233  41.721   1.374
10381W        W82641   6.133  37.561  11.738
10382W        W82642   5.970  42.258  12.399
10383W        W82643  29.401  30.626  13.518
10384W        W82644   5.930  40.406  10.839
10385W        W82645   5.896  24.530  10.734
10386W        W82646  33.835  32.689  12.373
10387W        W82647  35.810  12.738  14.295
10388W        W82648  43.765  24.166  14.909
10389W        W82649   4.545  22.194  11.167
10390W        W82650  35.307  40.827   2.776
10391W        W82651  10.546  20.702   4.529
10392W        W82652  32.729  15.456   3.747
10393W        W82653   2.671  13.936   3.565
10394W        W82654  38.026   3.978   3.708
10395W        W82655  39.187  19.104  14.414
10396W        W82656   7.282  15.239   2.256
10397W        W82657  28.802  40.467  10.681
10398W        W82658  17.526   8.177   5.624
10399W        W82659  34.694   0.928   3.711
10400W        W82660  33.061  31.894  12.895
10401W        W82661  35.904  17.288   4.901
10402W        W82662  14.969   1.294   0.706
10403W        W82663   3.923  39.551  13.418
10404W        W82664  42.065  15.205   5.071
10405W        W82665  32.869   9.681  14.346
10406W        W82666   7.787  19.865   3.643
10407W        W82667   4.000   3.470  11.767
10408W        W82668  14.928   5.762   0.823
10409W        W82669   8.339  15.204  14.753
10410W        W82670  42.990  42.125   2.388
10411W        W82671  16.623   2.005   4.747
10412W        W82672   4.762  38.412  11.052
10413W        W82673   3.160  25.538  13.846
10414W        W82674  42.337  17.646   4.135
10415W        W82675  41.440   2.247  12.925
10416W        W82676  36.932  28.032   0.378
10417W        W82677  26.620  32.296  11.215
10418W        W82678  23.467   0.359  13.957
10419W        W82679   7.139   4.660   0.034
10420W        W82680  27.215  20.301  14.753
10421W        W82681  42.476  21.106  12.144
10422W        W82682  31.664  27.065  12.544
10423W        W82683  20.139  23.763   0.236
10424W        W82684  29.477   8.296   0.522
10425W        W82685   7.356  41.449   0.735
10426W        W82686  40.028  30.840  12.989
10427W        W82687   7.212  22.044  12.471
10428W        W82688  26.386   6.220  12.988
10429W        W82689  19.355  23.561  10.807
10430W        W82690  28.189  30.651   3.714
10431W        W82691  17.425  22.572  12.934
10432W        W82692  16.176  31.069  13.589
10433W        W82693  18.187   2.865  11.651
10434W        W82694   5.525  38.889  13.754
10435W        W82695   8.989  31.823  11.035
10436W        W82696   5.760  18.627   2.376
10437W        W82697  22.209  43.061  13.876
10438W        W82698  42.418  29.120  11.617
10439W        W82699  30.105  39.406   4.159
10440W        W82700  10.848  23.468  12.904
10441W        W82701  40.019  20.693   1.448
10442W        W82702  34.042  23.666  14.903
10443W        W82703  35.669   0.236   1.769
10444W        W82704  18.990  31.884  12.599
10445W        W82705  13.231  12.073  13.932
10446W        W82706  17.359  39.456  12.131
10447W        W82707  16.398  17.563  10.328
10448W        W82708  13.325  11.648   1.804
10449W        W82709  23.633  32.380  13.892
10450W        W82710  37.871  30.862   4.120
10451W        W82711   6.872  13.366   1.968
10452W        W82712   4.971  24.773   1.877
10453W        W82713  15.632  35.524   2.136
10454W        W82714  42.113  40.090   1.327
10455W        W82715  29.769  29.642   4.232
10456W        W82716  34.003   4.862   9.857
10457W        W82717  19.988  36.644  12.145
10458W        W82718  14.668  33.849   3.109
10459W        W82719  25.594  17.530   2.409
10460W        W82720  29.189  21.117  14.995
10461W        W82721  19.634  28.988  14.483
10462W        W82722  35.787  15.117  14.493
10463W        W82723  28.067  25.642   0.445
10464W        W82724  38.534   2.735   3.577
10465W        W82725  24.154  20.923   1.421
10466W        W82726   4.107  39.943   4.473
10467W        W82727  11.995  21.186  12.457
10468W        W82728   9.209  44.733  10.407
10469W        W82729  11.562   6.906  11.481
10470W        W82730   7.694  43.963   4.929
10471W        W82731  37.657  18.321  14.508
10472W        W82732  25.199  23.633  11.189
10473W        W82733  22.008  37.872   1.734
10474W        W82734   0.415   1.726   0.426
10475W        W82735   8.788   0.851  12.931
10476W        W82736  16.239   4.388  14.333
10477W        W82737  38.957  11.615  13.745
10478W        W82738   5.291  21.557  12.071
10479W        W82739   3.341  28.158  13.818
10480W        W82740  22.700  22.679  14.022
10481W        W82741  37.061  29.387  12.613
10482W        W82742  26.932  23.031  12.060
10483W        W82743  36.870  20.296   1.203
10484W        W82744  25.643  12.116   0.517
10485W        W82745   0.127   0.504  13.466
10486W        W82746  34.457   4.087   1.847
10487W        W82747  31.383  17.175   1.384
10488W        W82748  13.371  39.663  13.780
10489W        W82749  12.186  17.428   1.711
10490W        W82750   0.535  18.811   4.084
10491W        W82751   0.430  25.711  12.406
10492W        W82752  12.204  28.177   3.224
10493W        W82753  38.052  42.063  12.404
10494W        W82754  14.153  18.545   1.800
10495W        W82755  22.522  42.744  11.594
10496W        W82756  28.352  28.009  13.144
10497W        W82757   5.711  17.621   2.347
10498W        W82758  39.289  24.212   0.280
10499W        W82759  35.332  19.101  11.377
10500W        W82760  20.298  35.881  11.451
10501W        W82761  36.442  31.004   2.112
10502W        W82762   1.447  29.173   3.510
10503W        W82763  11.833   8.513  12.289
10504W        W82764  37.510  19.925  13.354
10505W        W82765  44.323   7.783   1.762
10506W        W82766  16.666  44.289   0.600
10507W        W82767  29.444  24.223  14.890
10508W        W82768  14.219  41.264   0.290
10509W        W82769   3.400  25.784  13.467
10510W        W82770  33.991  14.993   1.812
10511W        W82771  38.341  27.446   4.492
10512W        W82772   4.824  33.035  11.707
10513W        W82773  28.937  24.644   3.593
10514W        W82774  28.046  28.084   2.743
10515W        W82775  34.968  20.244   5.040
10516W        W82776   8.007  10.588   4.212
10517W        W82777  31.049   5.409   1.074
10518W        W82778  28.797  21.456  11.272
10519W        W82779  30.133  24.126  12.036
10520W        W82780  42.344  24.123   1.444
10521W        W82781   5.005  40.370   2.377
10522W        W82782  19.772  31.352  12.981
10523W        W82783  43.206  34.403   4.747
10524W        W82784  43.528  11.108   1.215
10525W        W82785  42.504  21.020   0.862
10526W        W82786  38.891  25.273   3.839
10527W        W82787   1.285  35.382  11.402
10528W        W82788  16.288  12.742   2.783
10529W        W82789   5.900  41.962  10.712
10530W        W82790  34.557  18.587  14.442
10531W        W82791  22.111  34.361  10.741
10532W        W82792   6.167  14.729   3.194
10533W        W82793  12.671  13.469   0.374
10534W        W82794  29.655  34.514  11.593
10535W        W82795  18.187  25.758  13.494
10536W        W82796  11.115   8.516  11.113
10537W        W82797   2.946   6.652   3.594
10538W        W82798  22.307  10.567   3.266
10539W        W82799  13.669  36.870  13.128
10540W        W82800  42.244  27.575   3.682
10541W        W82801  36.472  25.434  13.518
10542W        W82802  43.444   1.700  13.869
10543W        W82803  24.233   7.721  11.555
10544W        W82804  19.178  14.436   4.771
10545W        W82805   6.317  29.214   0.408
10546W        W82806   2.867  17.169  11.275
10547W        W82807  19.803  17.539   2.240
10548W        W82808  13.296  39.948   3.661
10549W        W82809  39.793   1.374  11.746
10550W        W82810   2.608  42.764  14.456
10551W        W82811  24.105  27.245   0.462
10552W        W82812   8.359  37.141   3.216
10553W        W82813   1.174  32.066  12.431
10554W        W82814  36.533  16.812  13.463
10555W        W82815  29.589   6.105   3.691
10556W        W82816  42.793  42.499   3.625
10557W        W82817  11.731  35.607  13.013
10558W        W82818  12.892  10.647  10.990
10559W        W82819  21.329  13.233   1.735
10560W        W82820  21.565  11.560   0.838
10561W        W82821  39.955  24.968  11.606
10562W        W82822   1.379  33.758  13.922
10563W        W82823  19.298  39.352   4.190
10564W        W82824  22.232  44.982   0.488
10565W        W82825   9.252  32.124   1.202
10566W        W82826  30.579   7.605  11.812
10567W        W82827  16.671  18.834   2.207
10568W        W82828  24.627  29.051   0.239
10569W        W82829  32.190  25.880  13.890
10570W        W82830  30.552  37.334  13.456
10571W        W82831  36.927  32.469   1.424
10572W        W82832  22.020  27.000   2.219
10573W        W82833  43.525  24.758  12.540
10574W        W82834  25.118   0.213   4.471
10575W        W82835  21.551  35.114  10.734
10576W        W82836  10.094  30.966   0.306
10577W        W82837  24.417  44.608   1.952
10578W        W82838  39.582  17.546   2.701
10579W        W82839  11.096   3.090  13.084
10580W        W82840  11.789   1.288   2.738
10581W        W82841  17.037  11.271  12.510
10582W        W82842   7.378  27.728   0.880
10583W        W82843  33.024   3.937  12.096
10584W        W82844  23.279   6.521  12.531
10585W        W82845   9.112  13.268  12.002
10586W        W82846  37.449  28.485   2.282
10587W        W82847  42.426  40.285  12.968
10588W        W82848  17.463  18.502   4.203
10589W        W82849   8.077   3.412  11.283
10590W        W82850   0.512  30.006  14.269
10591W        W82851   7.220  34.820  11.767
10592W        W82852  37.166  32.152   4.131
10593W        W82853  40.852   2.313  11.171
10594W        W82854  19.987  24.359  12.097
10595W        W82855  20.845  34.092   3.581
10596W        W82856  24.626  23.994   1.707
10597W        W82857  28.845  10.636   1.210
10598W        W82858   4.182  38.620   0.453
10599W        W82859  39.772  21.570  11.586
10600W        W82860  32.448   9.948  13.357
10601W        W82861   6.593  39.864  10.197
10602W        W82862  41.058  19.048  11.061
10603W        W82863  11.263   5.677  11.051
10604W        W82864  26.138  42.714   1.332
10605W        W82865   2.657   3.937   1.013
10606W        W82866  29.703   6.801  14.512
10607W        W82867   6.329   3.265   9.832
10608W        W82868  22.460  10.711  14.728
10609W        W82869  21.143  18.752  12.453
10610W        W82870  40.015  10.185   1.314
10611W        W82871   6.779  13.295   4.236
10612W        W82872  20.724  15.140  14.533
10613W        W82873  24.505  44.433   0.467
10614W        W82874  19.183   0.519  12.134
10615W        W82875  42.045  23.192   0.866
10616W        W82876  23.155  24.516   0.448
10617W        W82877  34.652  37.409   1.898
10618W        W82878  11.825  32.024  10.550
10619W        W82879  17.766  23.476   1.207
10620W        W82880   9.889  32.581  13.362
10621W        W82881  21.241  21.722   5.102
10622W        W82882   3.543  37.989   2.791
10623W        W82883  16.674  15.920  13.795
10624W        W82884  19.954  34.132  12.928
10625W        W82885  31.077  13.743   1.400
10626W        W82886  35.083  19.616  13.998
10627W        W82887   5.676  16.980   4.070
10628W        W82888  31.011  13.079   2.808
10629W        W82889  32.835  20.776   1.378
10630W        W82890  17.179  11.360   4.342
10631W        W82891   1.607  14.246  14.800
10632W        W82892  12.937   6.203  14.910
10633W        W82893  26.668   4.967  11.078
10634W        W82894  42.583   2.287  13.917
10635W        W82895  24.692  43.470   2.374
10636W        W82896  17.041  35.736  11.947
10637W        W82897   8.409   9.699  13.860
10638W        W82898  36.120  30.660   2.338
10639W        W82899  14.704  35.898  11.751
10640W        W82900  39.379  16.782   3.329
10641W        W82901   5.845   2.895  12.608
10642W        W82902  38.760  32.600  11.572
10643W        W82903  19.518  10.662   4.545
10644W        W82904  20.476  10.822  10.672
10645W        W82905  36.107  28.516   4.606
10646W        W82906  14.095  20.071   1.583
10647W        W82907   8.372  30.994  11.095
10648W        W82908   0.920  32.982  12.012
10649W        W82909  18.724  34.408  13.542
10650W        W82910   7.704  44.843   2.690
10651W        W82911  41.222  10.672   1.243
10652W        W82912   9.563   8.955  14.796
10653W        W82913  28.556  19.157   0.425
10654W        W82914  42.339  10.150  11.383
10655W        W82915  39.471  33.372   2.279
10656W        W82916   9.935  23.828  12.554
10657W        W82917  30.391  39.504   2.264
10658W        W82918  41.866  24.546   3.243
10659W        W82919  43.690  21.042  12.499
10660W        W82920  21.277  41.248   2.698
10661W        W82921  20.681  19.182  13.500
10662W        W82922  34.216   2.143  13.897
10663W        W82923  26.621  31.444   3.688
10664W        W82924   6.392  22.693   3.995
10665W        W82925   6.419  35.164  14.251
10666W        W82926  11.563  40.773   4.534
10667W        W82927   4.319  42.084  11.467
10668W        W82928  24.002  13.678  12.891
10669W        W82929  15.626  28.665   0.372
10670W        W82930   1.730  34.577  14.186
10671W        W82931  18.342  26.054  11.237
10672W        W82932  24.106  32.579  12.881
10673W        W82933  27.708   1.419   1.453
10674W        W82934  27.429  22.088   2.460
10675W        W82935  32.951  11.739   4.688
10676W        W82936  41.718  17.818   1.023
10677W        W82937  26.724   2.683   4.405
10678W        W82938  30.550  40.874  13.369
10679W        W82939  40.218  24.148  11.052
10680W        W82940   5.035  27.586  12.668
10681W        W82941  42.847  27.421  13.351
10682W        W82942  17.572  19.072  12.527
10683W        W82943  40.023  32.142  12.876
10684W        W82944   0.672   0.194  12.077
10685W        W82945  33.658  16.624  12.615
10686W        W82946   2.828   9.326   4.717
10687W        W82947  12.241  25.976   1.478
10688W        W82948  43.439   6.999   1.195
10689W        W82949  15.544  25.134   2.274
10690W        W82950  22.738   8.811  13.013
10691W        W82951  23.200  38.356  12.891
10692W        W82952  20.999  31.699   1.852
10693W        W82953  40.181  16.690   1.261
10694W        W82954  18.818  23.532  12.643
10695W        W82955   0.358  15.660  10.997
10696W        W82956  17.213  26.697   1.890
10697W        W82957  39.321   1.586   0.391
10698W        W82958  25.713  40.881   2.518
10699W        W82959  19.979  34.465  11.607
10700W        W82960  19.262  20.803  11.603
10701W        W82961  29.009  19.061   0.751
10702W        W82962   6.824  41.301  12.770
10703W        W82963  30.286  19.305  11.096
10704W        W82964  18.656   5.208  12.535
10705W        W82965   0.376  38.474   2.319
10706W        W82966   4.387  10.280   0.780
10707W        W82967   7.691  29.432  11.965
10708W        W82968  12.959   6.296  10.720
10709W        W82969  44.265  21.171   2.160
10710W        W82970   3.271  40.292  12.098
10711W        W82971  35.679  23.504   2.281
10712W        W82972  30.994  31.309  10.368
10713W        W82973  25.034  23.592  10.684
10714W        W82974  15.418  17.094  11.927
10715W        W82975   7.407   1.314  11.579
10716W        W82976  29.500  44.193  14.083
10717W        W82977   9.198  10.277  14.904
10718W        W82978  10.065   3.947  10.602
10719W        W82979  11.797  19.578   3.295
10720W        W82980   2.714  41.409  13.833
10721W        W82981  18.550  22.802   3.722
10722W        W82982  28.455  31.076  14.328
10723W        W82983   9.865   7.407   3.197
10724W        W82984  14.454  28.723  13.933
10725W        W82985  32.282  18.788   0.019
10726W        W82986  14.799  12.339  14.937
10727W        W82987  19.074  19.176   3.527
10728W        W82988  11.396  29.348  11.968
10729W        W82989  18.866  15.271   5.081
10730W        W82990  11.954  32.549  11.717
10731W        W82991  22.493  26.064   5.056
10732W        W82992  37.883  40.906   2.183
10733W        W82993   0.087  19.309   1.869
10734W        W82994  42.990  12.887   1.413
10735W        W82995  42.975  30.550   1.913
10736W        W82996   1.807  42.482  13.379
10737W        W82997  10.371   9.038   3.428
10738W        W82998   4.835  15.729   2.308
10739W        W82999  39.843   9.799  10.624
10740W        W83000  27.396  40.988   1.473
10741W        W83001  41.396  25.109   4.511
10742W        W83002  43.703   7.179   0.766
10743W        W83003  21.591  11.925   1.203
10744W        W83004  42.723   4.214   4.116
10745W        W83005   1.039   0.483   1.901
10746W        W83006  13.856  17.252   0.823
10747W        W83007  13.007  41.082  12.805
10748W        W83008  32.306  37.316  14.418
10749W        W83009  29.113   5.432  13.586
10750W        W83010  34.490  20.747  11.529
10751W        W83011  24.478  11.286   1.984
10752W        W83012  36.798  21.376   0.491
10753W        W83013  33.237  25.059   4.098
10754W        W83014  29.594  16.062   4.327
10755W        W83015  15.719   2.064   3.805
10756W        W83016  16.510  21.494  14.427
10757W        W83017  17.530   4.731   4.207
10758W        W83018  25.727  30.080  10.648
10759W        W83019  25.420  23.642   1.767
10760W        W83020  10.752  33.379  11.651
10761W        W83021  28.240  27.109   0.549
10762W        W83022  36.905  31.494  14.972
10763W        W83023  34.013  11.925  13.349
10764W        W83024   4.177  36.962  11.385
10765W        W83025  44.304   8.390   3.218
10766W        W83026  37.896  18.971   1.689
10767W        W83027  16.964  42.061  12.583
10768W        W83028  41.808  36.554   4.267
10769W        W83029   9.228  35.779   4.167
10770W        W83030  28.244  11.160  14.821
10771W        W83031  15.855   8.260   2.737
10772W        W83032  38.481  12.004  12.890
10773W        W83033  15.773  22.829   2.228
10774W        W83034   3.348  39.876   2.338
10775W        W83035  42.162  29.215   0.893
10776W        W83036  39.876   7.747   3.283
10777W        W83037  44.433  23.200   3.354
10778W        W83038  36.207   1.398  14.523
10779W        W83039  35.325  18.031  13.916
10780W        W83040  27.620  12.643  14.040
10781W        W83041   1.439  41.249   2.884
10782W        W83042  35.990  30.005  14.825
10783W        W83043  42.394  19.983   2.885
10784W        W83044  28.497  23.153  12.918
10785W        W83045  12.116  27.670  11.934
10786W        W83046  10.576  44.035   1.233
10787W        W83047  10.847  14.261   0.815
10788W        W83048  40.353   3.506  12.090
10789W        W83049   1.266  29.997  11.611
10790W        W83050   2.316  35.520  12.021
10791W        W83051  12.097  29.545   0.823
10792W        W83052  12.812   2.958   2.818
10793W        W83053  41.517  11.208  14.801
10794W        W83054  39.722  18.898   1.768
10795W        W83055  25.535  18.587  13.440
10796W        W83056  11.221  25.612   4.712
10797W        W83057  25.631  15.698  11.777
10798W        W83058  39.403  13.011  13.548
10799W        W83059  44.337  32.655   4.575
10800W        W83060  38.957  16.324  11.524
10801W        W83061  16.353  19.681   1.114
10802W        W83062  37.987  20.060   4.197
10803W        W83063  41.778  25.748  11.498
10804W        W83064  28.105  38.618  10.789
10805W        W83065  11.119  36.987  10.968
10806W        W83066  11.675   5.908  12.879
10807W        W83067  30.835  23.022  14.958
10808W        W83068  29.831  18.339   2.259
10809W        W83069   4.564  15.845   3.695
10810W        W83070  13.121  43.958   1.150
10811W        W83071   3.746  20.333   1.873
10812W        W83072   0.466   5.894   2.517
10813W        W83073  43.829  20.257   1.904
10814W        W83074   6.075  23.443   0.276
10815W        W83075  25.740  18.112  13.399
10816W        W83076  37.377  37.104  14.416
10817W        W83077  39.609  25.866   4.670
10818W        W83078   6.169  12.197  13.425
10819W        W83079  41.431   0.225   0.435
10820W        W83080  26.847  39.374   3.705
10821W        W83081  16.962  35.594   0.745
10822W        W83082  28.115  44.951  14.977
10823W        W83083  36.594  24.949  14.908
10824W        W83084  42.741   8.927  12.854
10825W        W83085  43.969  23.078   0.888
10826W        W83086  21.497   8.556  14.738
10827W        W83087   7.677  25.370  12.978
10828W        W83088  32.930  22.264  11.602
10829W        W83089  21.720   3.654  11.103
10830W        W83090  21.264  20.265   1.678
10831W        W83091  27.504  22.306  13.517
10832W        W83092  18.062   8.128  14.916
10833W        W83093  20.793  35.030   4.637
10834W        W83094  36.368  11.768   0.726
10835W        W83095  28.561  37.833  13.971
10836W        W83096  30.367   8.364  12.973
10837W        W83097  18.873  41.394   2.712
10838W        W83098  18.440  31.457  13.560
10839W        W83099  23.041  42.439  14.996
10840W        W83100   8.463  33.474  12.918
10841W        W83101  33.497  39.441   2.122
10842W        W83102  19.589  38.858   4.932
10843W        W83103  35.364   4.740   3.204
10844W        W83104  32.028  13.080  12.284
10845W        W83105  17.044   6.518  13.460
10846W        W83106  10.809  41.787  12.799
10847W        W83107   0.037  17.734   2.868
10848W        W83108   6.154  15.209   3.797
10849W        W83109   0.526   5.550  14.548
10850W        W83110  31.991  16.797   1.878
10851W        W83111  27.683  30.717  12.051
10852W        W83112  12.650   4.841   0.009
10853W        W83113   9.645  19.163   3.298
10854W        W83114  13.762  39.360   3.187
10855W        W83115  10.425  23.634  12.579
10856W        W83116   7.999   6.252  13.255
10857W        W83117  14.746  10.084  11.265
10858W        W83118   1.816  10.133   1.689
10859W        W83119   7.828   7.885   0.569
10860W        W83120   6.737  10.950  14.742
10861W        W83121  22.614  20.709   0.769
10862W        W83122  27.946  38.293  11.174
10863W        W83123   2.943  36.453  13.928
10864W        W83124  42.810  20.202  14.530
10865W        W83125  24.012   5.980  12.549
10866W        W83126  14.268  29.456  10.226
10867W        W83127  22.851  25.421   0.465
10868W        W83128  25.155  25.193  10.605
10869W        W83129   4.847  44.709  13.873
10870W        W83130  33.124  42.737   1.881
10871W        W83131   1.788  13.393   3.503
10872W        W83132  39.081  31.245   3.724
10873W        W83133  27.630  17.897   3.305
10874W        W83134  22.123   1.166  14.888
10875W        W83135  14.573  14.491   1.680
10876W        W83136  21.224  24.732   0.412
10877W        W83137  41.418  20.699   3.203
10878W        W83138  21.713  30.171   1.495
10879W        W83139  13.702  22.645  14.252
10880W        W83140   9.862  36.960   0.968
10881W        W83141  35.994  18.990  14.728
10882W        W83142  42.845   2.336  11.116
10883W        W83143  25.728   0.250   1.782
10884W        W83144  29.145  39.440   2.096
10885W        W83145   6.066  16.740   2.924
10886W        W83146  29.116   1.874   3.239
10887W        W83147  38.427  33.936  11.766
10888W        W83148  22.277  27.898   3.095
10889W        W83149  10.928   0.641  10.070
10890W        W83150  26.523  39.182   5.422
10891W        W83151  10.650  10.593   0.733
10892W        W83152  21.750   6.763   0.501
10893W        W83153   2.342  31.264   4.336
10894W        W83154  30.032  39.903  10.801
10895W        W83155   6.244  15.391   4.870
10896W        W83156  32.548  34.571   3.109
10897W        W83157  22.144  33.391  10.470
10898W        W83158   4.389   1.802  12.357
10899W        W83159  11.129  21.215  14.875
10900W        W83160  17.746  31.651  10.693
10901W        W83161  34.809  26.885   1.379
10902W        W83162  18.524   7.367   0.875
10903W        W83163   2.788  23.487   3.316
10904W        W83164  21.674  24.178  11.081
10905W        W83165   4.303  33.370   2.148
10906W        W83166  36.916  32.348  13.421
10907W        W83167  39.383   4.902   2.233
10908W        W83168  20.267  22.193   1.865
10909W        W83169  29.571  32.444   2.646
10910W        W83170  44.258  37.318   0.793
10911W        W83171  26.462   8.646   3.281
10912W        W83172  36.487  44.822   3.311
10913W        W83173   0.634  15.924  12.091
10914W        W83174  26.744  19.296   2.590
10915W        W83175  22.045  37.093   1.659
10916W        W83176  20.420  25.567   1.868
10917W        W83177   6.677  10.854  13.790
10918W        W83178  15.153   8.492  13.051
10919W        W83179   9.572  20.596   2.262
10920W        W83180  27.122  39.106   4.636
10921W        W83181  36.812  13.772  13.812
10922W        W83182  14.815  22.632  12.902
10923W        W83183  19.697  28.731   1.385
10924W        W83184  33.815  40.468  12.019
10925W        W83185  33.971   7.394  11.561
10926W        W83186  21.268  41.490  12.494
10927W        W83187   7.551  19.581  11.211
10928W        W83188  15.776  11.706  13.429
10929W        W83189   6.983   7.218   1.282
10930W        W83190  26.219  42.993   0.361
10931W        W83191  10.585  35.903  12.932
10932W        W83192   3.001  43.233   4.822
10933W        W83193  22.210   8.596  11.309
10934W        W83194  27.927  10.921   1.299
10935W        W83195  44.468  22.073  13.535
10936W        W83196  22.737   6.295  14.839
10937W        W83197  25.458  40.411  11.880
10938W        W83198  11.625   6.394  11.552
10939W        W83199  36.072  35.498  11.264
10940W        W83200  44.110  20.626  14.037
10941W        W83201  26.504  20.121   1.276
10942W        W83202  14.860  25.048  11.564
10943W        W83203  13.785   4.749  13.497
10944W        W83204   3.401  20.048   1.342
10945W        W83205  16.586  43.032  13.006
10946W        W83206  30.620  38.079   1.248
10947W        W83207  11.693  21.517   4.180
10948W        W83208  23.601  21.248   1.745
10949W        W83209   8.726  34.669   1.873
10950W        W83210  30.159   0.443   4.136
10951W        W83211  11.703  39.470   1.431
10952W        W83212   8.225  33.020  12.844
10953W        W83213  32.630  29.780  11.518
10954W        W83214  17.048  24.099   2.089
10955W        W83215   2.028  27.020   2.284
10956W        W83216  20.299  28.414  14.960
10957W        W83217  11.767   9.710  14.715
10958W        W83218   7.659  33.882  12.937
10959W        W83219   5.463  22.544   4.976
10960W        W83220  18.926  41.865  11.099
10961W        W83221  32.035  14.587   1.803
10962W        W83222  33.376  35.848   3.636
10963W        W83223  24.512  32.916  12.879
10964W        W83224  44.327  16.780   2.374
10965W        W83225  42.073  21.806  13.279
10966W        W83226  39.112  22.167   2.890
10967W        W83227   8.777   8.656  14.460
10968W        W83228  19.260  13.988  12.022
10969W        W83229  12.588   6.901  11.617
10970W        W83230  24.500  14.959  11.375
10971W        W83231  28.641  28.000   4.270
10972W        W83232  32.313  35.143   3.663
10973W        W83233   0.017  11.734  14.891
10974W        W83234   1.550  19.292  12.032
10975W        W83235  43.982  10.115   4.632
10976W        W83236  41.234  24.313   2.248
10977W        W83237   4.759  44.957   4.598
10978W        W83238  38.764   8.835   2.237
10979W        W83239  32.290  10.442  12.564
10980W        W83240  16.138  39.458  12.935
10981W        W83241   3.455  10.289   1.707
10982W        W83242   3.747   4.563   3.790
10983W        W83243  28.671  41.965   1.957
10984W        W83244  35.753  35.978  12.596
10985W        W83245  13.011   0.516  14.815
10986W        W83246   8.551   5.257   4.206
10987W        W83247  24.536  20.649   4.540
10988W        W83248   2.182  40.108   2.806
10989W        W83249   3.651  35.975  12.908
10990W        W83250   2.401  29.412   4.643
10991W        W83251  28.907  35.816  11.608
10992W        W83252  12.178   7.658  14.774
10993W        W83253   0.883   1.494   4.840
10994W        W83254  44.812  17.664  14.031
10995W        W83255  13.085  39.997   4.525
10996W        W83256  32.143   1.919   2.956
10997W        W83257  26.637  39.484   0.925
10998W        W83258   7.725   3.330  14.997
10999W        W83259  12.878  22.669  11.085
11000W        W83260  10.604  23.518  13.833
11001W        W83261   6.467  39.605   4.267
11002W        W83262  21.157  10.627  14.625
11003W        W83263  22.210  14.208  14.527
11004W        W83264  14.158  36.537   3.910
11005W        W83265   5.202  24.993   1.473
11006W        W83266  11.694  26.021   2.687
11007W        W83267   0.253  37.002  10.632
11008W        W83268  19.515   5.816  13.745
11009W        W83269  27.862  39.084  12.941
11010W        W83270  11.209  23.470  10.782
11011W        W83271  38.134  25.531  12.906
11012W        W83272  12.211  20.294   2.738
11013W        W83273  29.003  29.934   4.967
11014W        W83274  24.913  29.677  14.803
11015W        W83275   6.748  33.075  11.696
11016W        W83276  24.665  14.390   4.526
11017W        W83277  43.034   6.177   1.862
11018W        W83278  30.722  38.414   4.491
11019W        W83279  16.313  28.054   0.305
11020W        W83280  11.767  15.381  12.503
11021W        W83281  21.541   5.445   2.334
11022W        W83282   9.619  16.233   0.886
11023W        W83283  25.470  35.518  14.259
11024W        W83284  40.379  17.583   4.770
11025W        W83285  28.211  27.207   0.043
11026W        W83286   5.538   0.790  11.396
11027W        W83287  42.716  12.657   3.226
11028W        W83288  14.677   8.268   1.172
11029W        W83289  25.722  33.659   1.815
11030W        W83290   1.184  27.476  14.268
11031W        W83291   5.899  33.003  12.682
11032W        W83292  38.718   9.355   1.645
11033W        W83293  24.077  18.650   2.150
11034W        W83294  10.332   0.633   2.124
11035W        W83295   2.705   8.498  13.409
11036W        W83296   6.766   6.945  14.936
11037W        W83297  34.980  11.339  11.216
11038W        W83298  44.548   7.457   4.116
11039W        W83299  17.311   5.980   1.499
11040W        W83300  34.555  26.967   3.414
11041W        W83301  20.421  17.337   3.343
11042W        W83302  40.223  29.448  12.031
11043W        W83303  37.623  25.130   2.704
11044W        W83304  41.583  22.174  11.839
11045W        W83305   9.467  14.402   0.045
11046W        W83306  44.444  44.536  10.346
11047W        W83307   0.525  40.372   1.248
11048W        W83308  41.087   1.687   2.802
11049W        W83309  16.779  39.986   3.635
11050W        W83310  27.368  19.806   3.659
11051W        W83311  29.966  21.977  11.539
11052W        W83312   0.962  24.130   0.440
11053W        W83313  44.123  30.845   4.067
11054W        W83314  40.319  10.169  11.014
11055W        W83315  11.054  44.570  12.870
11056W        W83316  21.236  39.458  14.994
11057W        W83317  31.042  39.448   4.579
11058W        W83318  30.195  17.376  14.842
11059W        W83319   0.471  43.823   3.336
11060W        W83320  18.015  37.129  13.969
11061W        W83321  31.092   8.706  11.041
11062W        W83322   4.927  12.273   0.899
11063W        W83323  21.091  12.873  11.098
11064W        W83324  33.596  37.549  11.259
11065W        W83325   5.251   7.254   4.232
11066W        W83326  23.000  42.425   3.136
11067W        W83327  41.755  34.068  10.779
11068W        W83328  23.537  33.577   1.747
11069W        W83329  13.494  29.868   0.908
11070W        W83330  41.369  19.519   1.228
11071W        W83331  40.622  40.742   1.550
11072W        W83332  26.800  12.208  14.881
11073W        W83333  24.800  22.602  12.971
11074W        W83334  20.260  41.140   2.744
11075W        W83335  11.592  22.815  12.884
11076W        W83336   5.289  44.318  11.574
11077W        W83337  30.219  33.322  14.472
11078W        W83338  25.715   9.647   1.774
11079W        W83339  12.570  30.958  13.467
11080W        W83340  42.838  12.580   1.947
11081W        W83341  25.356  38.012  11.172
11082W        W83342  19.506  42.919  13.413
11083W        W83343  34.998  24.454  13.751
11084W        W83344  28.674  23.295   1.001
11085W        W83345  22.690   2.800  13.979
11086W        W83346   2.815   4.368   0.709
11087W        W83347  30.196  12.596   0.766
11088W        W83348  10.565   2.205   4.471
11089W        W83349  38.325  36.030  11.144
11090W        W83350  24.419  23.154  12.040
11091W        W83351   4.874  31.984  10.731
11092W        W83352  24.281   2.892   1.237
11093W        W83353  43.336  25.821   0.751
11094W        W83354  20.765  21.934  12.549
11095W        W83355   2.987   9.727   3.783
11096W        W83356  10.401  13.668   0.238
11097W        W83357  18.839  37.711  11.657
11098W        W83358   8.459  15.563   1.786
11099W        W83359  10.105  11.287  14.127
11100W        W83360  15.393  34.060   0.423
11101W        W83361  22.984  10.588  11.086
11102W        W83362  15.756  43.568  12.185
11103W        W83363  18.530   5.426  13.688
11104W        W83364  29.076  36.176   3.496
11105W        W83365  16.988  14.716   1.549
11106W        W83366  14.928  12.130  11.810
11107W        W83367  27.403  41.282   2.711
11108W        W83368  43.914  42.945   3.219
11109W        W83369  39.030  12.916  11.643
11110W        W83370  19.464  17.883   0.847
11111W        W83371   3.861  30.905  13.557
11112W        W83372  35.777   4.079   0.346
11113W        W83373  15.272  24.197   2.658
11114W        W83374   5.105  42.826   4.632
11115W        W83375   7.900  31.069  14.949
11116W        W83376   0.667  36.120  14.421
11117W        W83377  25.206  38.382   1.573
11118W        W83378  40.254  38.797  13.883
11119W        W83379  35.792  30.983   3.679
11120W        W83380  22.272  19.609  12.471
11121W        W83381  25.104  10.585   3.739
11122W        W83382   5.796   1.458  10.599
11123W        W83383  16.996  30.496  13.839
11124W        W83384  36.134  10.809   3.535
11125W        W83385  23.220  42.843  11.888
11126W        W83386  29.070  26.239   2.358
11127W        W83387  35.844   6.945  14.891
11128W        W83388  32.449  24.944  11.652
11129W        W83389  28.514  23.483   2.951
11130W        W83390  31.989  10.434   3.872
11131W        W83391  44.165  20.574  11.181
11132W        W83392  16.272   5.850   4.888
11133W        W83393  20.530  25.044  11.998
11134W        W83394  34.896  33.633  11.827
11135W        W83395  42.529  37.116   3.316
11136W        W83396  12.148  30.420  10.477
11137W        W83397  24.778   3.655   2.786
11138W        W83398   2.075  42.897  13.577
11139W        W83399  36.433  15.135  11.484
11140W        W83400  17.486  13.187   2.316
11141W        W83401   5.983  29.427   0.753
11142W        W83402   9.340  38.465   2.850
11143W        W83403   2.951  40.852   1.191
11144W        W83404  23.983  43.951   3.341
11145W        W83405  43.476  12.944   3.701
11146W        W83406  27.895  39.039   2.988
11147W        W83407  39.243  38.483  11.054
11148W        W83408  32.715   3.688  14.441
11149W        W83409  34.008  27.476  13.117
11150W        W83410  15.047   8.716  11.457
11151W        W83411  25.050   6.405  12.049
11152W        W83412  30.673  30.891  10.316
11153W        W83413   9.756  13.256  13.833
11154W        W83414  27.520  27.054  13.532
11155W        W83415   1.347   8.113   0.721
11156W        W83416   4.152  19.987  12.015
11157W        W83417  29.705  28.716   2.586
11158W        W83418  24.524  22.926  11.138
11159W        W83419  22.344   9.689  12.922
11160W        W83420  30.618  29.615   1.698
11161W        W83421  36.418  10.891   3.097
11162W        W83422   0.075   5.218   2.368
11163W        W83423   4.257  28.450  11.530
11164W        W83424  30.629  36.302  12.481
11165W        W83425  13.624  30.164  12.425
11166W        W83426  25.557  22.106  11.185
11167W        W83427  24.263  37.175   5.031
11168W        W83428  14.723   0.433  13.012
11169W        W83429   8.703   9.660   0.716
11170W        W83430  27.961  41.613   1.478
11171W        W83431  15.087  42.429  12.617
11172W        W83432  18.816  33.665   5.369
11173W        W83433  37.981  21.786   2.255
11174W        W83434  42.010  10.295  10.579
11175W        W83435  21.497  32.647  11.414
11176W        W83436  34.073   6.434  14.442
11177W        W83437  13.308  28.400   2.275
11178W        W83438  42.094   9.702  13.778
11179W        W83439  44.761  20.770   1.359
11180W        W83440  27.989  21.326   2.035
11181W        W83441  15.099   1.038   0.254
11182W        W83442   9.188  21.798  13.639
11183W        W83443  24.067   5.408  10.888
11184W        W83444  27.700   7.388   2.717
11185W        W83445   8.329  30.370  11.788
11186W        W83446  17.718  21.265   4.699
11187W        W83447  18.123  35.387  14.586
11188W        W83448  16.650  13.955  12.787
11189W        W83449   9.846  33.320  11.150
11190W        W83450  31.005  12.284   4.855
11191W        W83451  36.023   6.336   3.655
11192W        W83452  30.692  23.643  14.042
11193W        W83453  21.992   1.191   1.430
11194W        W83454  15.107   6.924  12.004
11195W        W83455  32.363   2.357   2.608
11196W        W83456  22.493  39.045   4.209
11197W        W83457  16.243   4.963  11.884
11198W        W83458  37.468  19.342  11.954
11199W        W83459  40.051  10.297  14.953
11200W        W83460  23.491  32.623  12.101
11201W        W83461  23.143  33.575  14.489
11202W        W83462  18.868  19.770  13.057
11203W        W83463  22.302  34.984   1.352
11204W        W83464  21.830  38.435   3.160
11205W        W83465   9.595  41.263  12.122
11206W        W83466  33.901  43.934   0.380
11207W        W83467  10.200   1.929   2.520
11208W        W83468   7.177  44.035   1.749
11209W        W83469  15.782  34.601   4.887
11210W        W83470   8.454  41.267  11.451
11211W        W83471  40.291  31.147   1.348
11212W        W83472  35.381   3.697   3.252
11213W        W83473  20.869  16.364   1.434
11214W        W83474  17.415  35.991  14.985
11215W        W83475  37.557   0.017  12.412
11216W        W83476   8.813  40.137   4.991
11217W        W83477  10.212  18.349   0.171
11218W        W83478  21.683  12.504   0.710
11219W        W83479   6.715   5.668  13.004
11220W        W83480  22.441   1.516  13.033
11221W        W83481   0.264  35.854   2.779
11222W        W83482  21.512  37.506  14.604
11223W        W83483  15.990  24.001  12.383
11224W        W83484  39.819  35.423  10.692
11225W        W83485  19.150  32.692  13.116
11226W        W83486  44.252  17.123  10.923
11227W        W83487  15.870  24.874   2.655
11228W        W83488  16.402  31.115  12.802
11229W        W83489  20.668   5.948   0.820
11230W        W83490  37.399  14.925   4.576
11231W        W83491  33.676  43.077   3.791
11232W        W83492  32.130  12.921   3.526
11233W        W83493  25.041  40.533  11.061
11234W        W83494  20.258  42.836  14.837
11235W        W83495  31.948  15.661  11.991
11236W        W83496  44.128  20.546   2.874
11237W        W83497  27.100  39.938  14.456
11238W        W83498  20.754  29.581   0.909
11239W        W83499  40.882  44.346   0.396
11240W        W83500  23.099   0.762  14.803
11241W        W83501   1.225   7.739   4.278
11242W        W83502  41.006   9.986   3.923
11243W        W83503   2.376  16.382  14.556
11244W        W83504  19.462  34.458  11.619
11245W        W83505  22.325  40.844  13.774
11246W        W83506  12.493  44.410   3.718
11247W        W83507  26.180  13.505  14.760
11248W        W83508  43.728   0.281   3.157
11249W        W83509  27.082  14.534   4.597
11250W        W83510  35.632   2.277   4.882
11251W        W83511  44.421  10.368  14.011
11252W        W83512  33.557  35.692   4.110
11253W        W83513  27.444  16.190   2.107
11254W        W83514  33.996  39.492   0.411
11255W        W83515  17.737  23.198  14.934
11256W        W83516  44.623  29.793  13.792
11257W        W83517  12.905  22.590  12.516
11258W        W83518   7.135  19.981  10.848
11259W        W83519  18.055   1.673  14.311
11260W        W83520  44.886  29.899   3.739
11261W        W83521  16.188  22.682   0.850
11262W        W83522  28.685  25.351   3.438
11263W        W83523  44.825   1.074   2.830
11264W        W83524   6.882   9.511  14.833
11265W        W83525  39.149  23.096  11.124
11266W        W83526  16.583   2.256   1.825
11267W        W83527   5.456  24.773  10.604
11268W        W83528  32.632  19.101   0.868
11269W        W83529  27.949  12.878   1.238
11270W        W83530  36.688  15.286  14.348
11271W        W83531  14.607  25.271  12.919
11272W        W83532   9.296  10.141   4.254
11273W        W83533  35.231  19.241   4.090
11274W        W83534  43.975  24.122   3.177
11275W        W83535  40.552  24.885   0.907
11276W        W83536  23.042   6.680   1.275
11277W        W83537  34.011  36.156   1.702
11278W        W83538  10.602  37.302   4.642
11279W        W83539  38.444  24.503   0.253
11280W        W83540  17.304  18.538  11.880
11281W        W83541  17.649   3.806   0.608
11282W        W83542  17.622  40.092  14.539
11283W        W83543   5.927  24.215   1.277
11284W        W83544   9.245  21.459   2.733
11285W        W83545  32.334  19.189   0.379
11286W        W83546   7.408  28.727  10.606
11287W        W83547  26.619  22.533  14.845
11288W        W83548   2.299   1.519  13.307
11289W        W83549  30.985   7.838   2.711
11290W        W83550  25.205  14.736   1.876
11291W        W83551  24.247  32.107  13.122
11292W        W83552  14.098   1.895   1.261
11293W        W83553   7.825  17.165  10.338
11294W        W83554  30.591  37.180  10.653
11295W        W83555  18.778  40.905   2.915
11296W        W83556  17.523  40.573  14.360
11297W        W83557  20.239  14.575   1.788
11298W        W83558  10.742  38.267   0.968
11299W        W83559  11.559  36.415   4.161
11300W        W83560  30.019  10.157  13.386
11301W        W83561  27.743   0.793  14.916
11302W        W83562  44.603  32.455   4.187
11303W        W83563   0.459  29.094   2.547
11304W        W83564  44.621  41.960  14.014
11305W        W83565   4.618  43.351   1.929
11306W        W83566  40.420   0.375  12.558
11307W        W83567  23.482  26.593   3.723
11308W        W83568   4.915   9.036  12.814
11309W        W83569  33.284  24.926  13.399
11310W        W83570  11.196   0.481   4.604
11311W        W83571  24.037   7.383   1.877
11312W        W83572  24.399   3.658   3.655
11313W        W83573  40.988   6.455  13.510
11314W        W83574  32.232  27.199   0.059
11315W        W83575  22.377   5.268   0.946
11316W        W83576  20.009  12.187   2.308
11317W        W83577  11.163  31.696   0.382
11318W        W83578  11.159   4.761  11.513
11319W        W83579   8.669  41.402   3.158
11320W        W83580  22.169  27.508   2.260
11321W        W83581   4.622  44.770  10.855
11322W        W83582  35.518  21.556   4.373
11323W        W83583   2.097  36.567  12.953
11324W        W83584  33.618  13.897   0.435
11325W        W83585  15.947  19.806  10.686
11326W        W83586  25.582  33.805   2.311
11327W        W83587   2.751  27.658   2.147
11328W        W83588  18.585  11.181  14.991
11329W        W83589  17.216   2.199   0.008
11330W        W83590  37.822  19.732   4.565
11331W        W83591  39.175  16.387   0.943
11332W        W83592  42.525  42.509  13.483
11333W        W83593  35.818  26.593  12.551
11334W        W83594  15.177  21.029   1.387
11335W        W83595  41.871  25.061  12.785
11336W        W83596  37.974  41.540  11.625
11337W        W83597  28.741  41.067  11.040
11338W        W83598  15.544  22.156   2.689
11339W        W83599  37.479  37.887  13.989
11340W        W83600  42.847  42.025  14.427
11341W        W83601  11.672  22.160   1.031
11342W        W83602  34.435  24.497   4.810
11343W        W83603  34.007  15.539   4.593
11344W        W83604  10.824   3.220  10.774
11345W        W83605  24.708  15.987  14.291
11346W        W83606   5.278  17.303   1.703
11347W        W83607  19.038   1.324  13.146
11348W        W83608   6.206  39.365   3.277
11349W        W83609  44.497  31.581  10.674
11350W        W83610  20.766  44.059   2.756
11351W        W83611  14.400  34.741  11.907
11352W        W83612   9.812  40.891   4.852
11353W        W83613  28.817  29.812   1.758
11354W        W83614   7.370  23.507  14.308
11355W        W83615  17.990   2.283   3.337
11356W        W83616  17.210  41.382  11.108
11357W        W83617  10.359  26.710  14.407
11358W        W83618   1.022  30.134  13.057
11359W        W83619   6.127  23.227  14.822
11360W        W83620  15.812  39.865  11.528
11361W        W83621   8.833  24.236   1.929
11362W        W83622   8.127  43.066  11.832
11363W        W83623   8.265  24.147  13.886
11364W        W83624  40.807  12.818   0.033
11365W        W83625   1.111  24.401   3.857
11366W        W83626  40.865  44.033  11.624
11367W        W83627  20.101  27.022  11.564
11368W        W83628  35.200   6.822  12.469
11369W        W83629  17.729  37.839   3.405
11370W        W83630  20.641  14.808   1.992
11371W        W83631  13.146  38.395   1.837
11372W        W83632   5.455  32.086  12.475
11373W        W83633  20.591  23.482   3.751
11374W        W83634   5.306  43.106  13.523
11375W        W83635  23.304   5.060   0.525
11376W        W83636   6.447   6.377   2.295
11377W        W83637   9.044  34.273   4.085
11378W        W83638  30.467  29.662  12.277
11379W        W83639   4.983  22.155  13.502
11380W        W83640  23.590   9.122  11.427
11381W        W83641  21.775   0.013  11.207
11382W        W83642   4.591  24.632   4.572
11383W        W83643  42.271  30.508   1.237
11384W        W83644   0.940  24.951   4.692
11385W        W83645   8.882   1.331   0.492
11386W        W83646  21.801  28.502  14.224
11387W        W83647  20.278  21.578  13.704
11388W        W83648  21.299  25.990   3.199
11389W        W83649  39.459  25.957  14.070
11390W        W83650  40.137  13.687   3.743
11391W        W83651  10.927  29.359  10.741
11392W        W83652  42.346  15.791  11.526
11393W        W83653  27.689   4.168   1.781
11394W        W83654  38.807   2.992  10.679
11395W        W83655  10.108  21.733   3.819
11396W        W83656  27.120  31.610   2.130
11397W        W83657  41.824   8.855  13.905
11398W        W83658   7.800  23.416   2.167
11399W        W83659  21.190   5.775   0.217
11400W        W83660  22.765  27.196   3.755
11401W        W83661  34.979  31.576   1.451
11402W        W83662   6.947  23.223  13.366
11403W        W83663  25.151  18.681   0.412
11404W        W83664  10.113  37.465  14.894
11405W        W83665  20.660  36.545   3.762
11406W        W83666  36.376  42.907   0.340
11407W        W83667  28.026   0.923  12.066
11408W        W83668  12.305  37.976   3.661
11409W        W83669  42.027  20.187  13.452
11410W        W83670  14.279  25.980   2.407
11411W        W83671  44.005   5.357   2.868
11412W        W83672  15.308  29.165  13.427
11413W        W83673  17.834  17.347   2.266
11414W        W83674  44.729  33.552  13.091
11415W        W83675  21.204  28.978   3.666
11416W        W83676  35.378   9.742  13.504
11417W        W83677  25.341   3.878   2.263
11418W        W83678  18.648   6.626   0.356
11419W        W83679   1.426  13.668   4.022
11420W        W83680  26.529   5.332  12.900
11421W        W83681  13.276   0.861  11.567
11422W        W83682  31.057  43.376   4.231
11423W        W83683  38.708  11.371   3.160
11424W        W83684  22.164  37.958  11.831
11425W        W83685  36.055  21.262  14.988
11426W        W83686  25.123  32.000   3.107
11427W        W83687  39.818  38.378  11.885
11428W        W83688  44.295  12.125  13.697
11429W        W83689  18.221   2.564   2.612
11430W        W83690  43.329  44.777  12.456
11431W        W83691  27.770  30.645  14.246
11432W        W83692  27.481   4.983   1.676
11433W        W83693  23.116  35.319  11.647
11434W        W83694   2.256   1.787  12.870
11435W        W83695   7.956  40.365  13.606
11436W        W83696   5.723  42.351   3.004
11437W        W83697  17.095  30.042  11.199
11438W        W83698  13.058  30.405  10.787
11439W        W83699  37.057  17.834  11.072
11440W        W83700  24.503  28.424   9.794
11441W        W83701  32.598  13.701  13.251
11442W        W83702  16.047  25.122  12.942
11443W        W83703  20.008  13.730   3.760
11444W        W83704   2.983  17.186   3.207
11445W        W83705   4.234  28.646  14.841
11446W        W83706   0.397   0.055   4.548
11447W        W83707  43.798   6.159   2.460
11448W        W83708   5.030  14.566   4.928
11449W        W83709  24.586  26.110   1.296
11450W        W83710  17.458  13.921   3.616
11451W        W83711  30.398  23.621   1.479
11452W        W83712  11.765  27.570  11.370
11453W        W83713  35.496   2.698  14.414
11454W        W83714  37.544  35.464  14.291
11455W        W83715  44.904  22.759  13.407
11456W        W83716   3.526   8.972   2.679
11457W        W83717  43.297  30.877   3.096
11458W        W83718  20.801  37.401  10.694
11459W        W83719  12.325   1.474   2.257
11460W        W83720   9.364   4.496   0.296
11461W        W83721   2.534  37.067   3.794
11462W        W83722   2.289  32.543  12.155
11463W        W83723  10.666   4.292   3.384
11464W        W83724  27.949  42.352  10.388
11465W        W83725  41.797  40.805  14.510
11466W        W83726  36.561  36.120  12.965
11467W        W83727   3.871   8.371   1.347
11468W        W83728   0.507   2.909   0.799
11469W        W83729  43.747   4.011   4.174
11470W        W83730   3.157   3.881  13.917
11471W        W83731  10.673  30.048   3.313
11472W        W83732  43.284  27.186  13.097
11473W        W83733  21.118  13.718   1.631
11474W        W83734  36.556  16.291  13.472
11475W        W83735  24.417  14.284  13.844
11476W        W83736   2.479  12.194  13.937
11477W        W83737  20.470  15.224   2.310
11478W        W83738  13.062  44.441   1.313
11479W        W83739  13.532  35.382   3.722
11480W        W83740  41.903  20.901   3.280
11481W        W83741   4.725   4.369   1.679
11482W        W83742  36.078  40.841  13.422
11483W        W83743  33.105  29.546   0.055
11484W        W83744   2.242  42.859  14.078
11485W        W83745  30.551  34.157  12.071
11486W        W83746  41.481   1.383   1.941
11487W        W83747  10.579  24.942   1.892
11488W        W83748   1.806  34.912   1.542
11489W        W83749  30.221  42.961  11.203
11490W        W83750   8.154  43.057   1.951
11491W        W83751  29.924  32.530  14.704
11492W        W83752  39.385  36.089   1.128
11493W        W83753  44.416  39.136  12.295
11494W        W83754  39.590   6.373  13.306
11495W        W83755   5.357  11.853  11.096
11496W        W83756   9.566  15.118   4.069
11497W        W83757  21.334  40.965  14.094
11498W        W83758   8.003  35.503   1.020
11499W        W83759  38.210  44.041   2.974
11500W        W83760  20.736  10.218   3.819
11501W        W83761  13.759  28.372   0.493
11502W        W83762  10.003  26.132   5.074
11503W        W83763  32.594  33.858   1.403
11504W        W83764  43.805  11.720   3.679
11505W        W83765   0.462  31.438   3.400
11506W        W83766  35.453  23.152  12.455
11507W        W83767  30.088  25.754  14.234
11508W        W83768   2.459   0.204  14.262
11509W        W83769  36.569  19.231   4.552
11510W        W83770  43.537  30.592   4.731
11511W        W83771  23.014  33.014   3.781
11512W        W83772  23.088   1.429  13.915
11513W        W83773   9.661  21.842  13.434
11514W        W83774   3.028  44.325  13.117
11515W        W83775  25.528  39.031   1.303
11516W        W83776  18.084  30.122   1.848
11517W        W83777  31.470  21.547  11.559
11518W        W83778  31.042   3.275   2.828
11519W        W83779   2.700  33.464   3.358
11520W        W83780   7.135  36.555  14.960
11521W        W83781  26.166   8.623   4.735
11522W        W83782  26.168  42.742  11.204
11523W        W83783  17.085  23.433  12.922
11524W        W83784  13.589  41.304   2.652
11525W        W83785  28.243   2.504   3.395
11526W        W83786  37.560  19.076  13.631
11527W        W83787  32.541  21.749   0.467
11528W        W83788   4.793  39.052   1.655
11529W        W83789  28.049   5.333  13.110
11530W        W83790  12.652  27.853  11.029
11531W        W83791  40.056  18.796  13.567
11532W        W83792  33.266   6.775  13.265
11533W        W83793  13.431  37.483  13.864
11534W        W83794   3.306  40.494  14.401
11535W        W83795  19.592  29.649   3.760
11536W        W83796  38.122  15.738  14.928
11537W        W83797  11.143  38.394  13.509
11538W        W83798  29.159  20.260  11.058
11539W        W83799  13.849  36.619  13.587
11540W        W83800  27.586  19.742   0.847
11541W        W83801  18.926  31.638   4.791
11542W        W83802  31.492   0.912  12.129
11543W        W83803   8.690  38.752  10.624
11544W        W83804  27.291  44.516  12.890
11545W        W83805   9.770  19.052   4.174
11546W        W83806  19.998  12.762  12.443
11547W        W83807  25.132  39.359   3.109
11548W        W83808  22.815  29.451   0.702
11549W        W83809  36.040  40.230   3.714
11550W        W83810  22.763  41.987   2.990
11551W        W83811  13.812  13.391  10.604
11552W        W83812  12.893   0.313  13.524
11553W        W83813  29.055  18.930  11.609
11554W        W83814   4.296   9.179   1.897
11555W        W83815  41.806  32.409  13.003
11556W        W83816   7.325  36.915  14.577
11557W        W83817  27.584  30.893   4.619
11558W        W83818   2.957  28.039   1.884
11559W        W83819  24.428  11.086  13.359
11560W        W83820  42.537  23.020   1.768
11561W        W83821  36.593  20.288  11.845
11562W        W83822  24.828  40.287   2.844
11563W        W83823  38.401  20.225  13.595
11564W        W83824  32.505   5.151   3.656
11565W        W83825  14.153  24.191   3.159
11566W        W83826  29.963  24.302  13.071
11567W        W83827  36.115  27.707   0.499
11568W        W83828  12.291   4.136   3.955
11569W        W83829  31.554  44.426   4.502
11570W        W83830   9.242  29.143   2.676
11571W        W83831  27.857  24.598  14.686
11572W        W83832  16.241  37.193  11.599
11573W        W83833  23.016  17.588   3.604
11574W        W83834  41.022  32.810   3.360
11575W        W83835  35.479  31.563  10.538
11576W        W83836  27.544  32.613  14.836
11577W        W83837  28.168  17.360   3.670
11578W        W83838  14.127  28.658   4.978
11579W        W83839  40.373  28.349   2.353
11580W        W83840  34.774   4.970  10.333
11581W        W83841  19.851  37.491  14.074
11582W        W83842   8.957   9.838   1.150
11583W        W83843  32.132  14.718  11.565
11584W        W83844  43.088  27.118   3.154
11585W        W83845   3.055  42.861   3.254
11586W        W83846   0.916  35.168  14.806
11587W        W83847  18.957  29.946   0.266
11588W        W83848  16.633   8.717  10.811
11589W        W83849  25.174  34.695   3.697
11590W        W83850   1.374  30.334  13.917
11591W        W83851   8.416   0.538   0.544
11592W        W83852  31.445  16.317  12.037
11593W        W83853  19.265  25.617  14.947
11594W        W83854  33.542  43.546   2.151
11595W        W83855   4.954  20.559  13.985
11596W        W83856  39.420  34.108  10.641
11597W        W83857  16.070   6.905  13.350
11598W        W83858  42.863   9.521  12.608
11599W        W83859  32.130  16.771   2.428
11600W        W83860  31.432   6.860   4.314
11601W        W83861   5.393  15.144   2.921
11602W        W83862  18.969   5.253   4.721
11603W        W83863   9.726  17.152   2.280
11604W        W83864  36.416  31.688  12.074
11605W        W83865  36.018  37.012   0.047
11606W        W83866  32.841  36.322   4.002
11607W        W83867  36.105  18.947   2.804
11608W        W83868  18.517  15.327  10.646
11609W        W83869  13.333   4.241   4.332
11610W        W83870  34.604  16.137  11.157
11611W        W83871   9.705  10.348  10.087
11612W        W83872  34.354  29.139  13.906
11613W        W83873  14.663  17.964  10.228
11614W        W83874  37.743  29.193  13.975
11615W        W83875  38.042  37.889  10.890
11616W        W83876   3.445  33.924   0.811
11617W        W83877  39.225   3.755  14.849
11618W        W83878  31.578   9.363  10.757
11619W        W83879  31.480   0.340  10.733
11620W        W83880  20.640  25.463  10.670
11621W        W83881  30.092  32.877   0.941
11622W        W83882  39.842  15.355   1.043
11623W        W83883  29.462  21.808  13.455
11624W        W83884  36.852  42.892  13.155
11625W        W83885  32.653   2.722   4.074
11626W        W83886  14.709  23.679   1.453
11627W        W83887   6.916   8.857   2.234
11628W        W83888  15.734  34.178   1.732
11629W        W83889  14.903  17.138  10.215
11630W        W83890  13.276  44.564   0.021
11631W        W83891  41.471  39.011  13.413
11632W        W83892  15.068  15.365   0.474
11633W        W83893  30.768  40.188   4.056
11634W        W83894  43.502  26.615  12.773
11635W        W83895  10.420  15.160   2.818
11636W        W83896  24.761  14.281  12.837
11637W        W83897  41.382  41.399   4.794
11638W        W83898  10.379   1.022   0.595
11639W        W83899  21.650  15.499  13.313
11640W        W83900  21.164  40.459   2.269
11641W        W83901  34.518  21.469  13.457
11642W        W83902  32.913  22.941  12.424
11643W        W83903  29.928  33.518  10.261
11644W        W83904   9.682   6.793  11.311
11645W        W83905  32.436  40.619  13.831
11646W        W83906   0.821  33.743   2.641
11647W        W83907   9.142   4.816  14.023
11648W        W83908  29.299  14.669  14.028
11649W        W83909   5.697  36.310   0.848
11650W        W83910  22.728  41.408   1.794
11651W        W83911  29.962  42.922   1.949
11652W        W83912  15.069  27.676  14.479
11653W        W83913  32.602  38.970   0.491
11654W        W83914  20.667  37.786   0.189
11655W        W83915  21.451  14.733  13.596
11656W        W83916  19.001  17.108   4.169
11657W        W83917  16.597  27.749   2.647
11658W        W83918  12.578  37.053   0.746
11659W        W83919  26.486   0.274   3.796
11660W        W83920  14.183  29.702   2.671
11661W        W83921  20.115  22.099   1.385
11662W        W83922  19.074  19.710   3.246
11663W        W83923  28.004  35.130  10.267
11664W        W83924  42.855  34.182   0.417
11665W        W83925  34.047   7.867  14.797
11666W        W83926   5.261  42.325   2.243
11667W        W83927  34.420  23.928   1.412
11668W        W83928  34.708  44.273   0.311
11669W        W83929  26.513  27.795   4.583
11670W        W83930  26.346  14.057   4.116
11671W        W83931  20.200   7.056   9.908
11672W        W83932  26.432   5.344   4.114
11673W        W83933  33.000   5.933   3.703
11674W        W83934  29.541  18.530  12.387
11675W        W83935  32.989  21.969  13.895
11676W        W83936  17.640   3.284   2.427
11677W        W83937   2.919  32.937  13.383
11678W        W83938  28.458  20.576   2.498
11679W        W83939  26.763  24.283  12.344
11680W        W83940   8.400  14.647   4.542
11681W        W83941  38.803  15.558   0.467
11682W        W83942   6.252   5.481   3.860
11683W        W83943  14.575   5.701   1.187
11684W        W83944  18.190  34.364  10.685
11685W        W83945  29.194  41.352  14.881
11686W        W83946  14.183   9.650   0.553
11687W        W83947   8.706  29.578   4.146
11688W        W83948   5.777  12.318   2.726
11689W        W83949  25.575   6.723  13.436
11690W        W83950   2.862  13.240  12.500
11691W        W83951   5.619  35.830   0.668
11692W        W83952  21.502   7.406  11.068
11693W        W83953  21.307  44.799  11.178
11694W        W83954  25.381  37.841   5.071
11695W        W83955   8.140  40.922  13.045
11696W        W83956  21.189  44.218   4.104
11697W        W83957  28.487  43.005  14.875
11698W        W83958  40.656  39.161   2.878
11699W        W83959  33.660  14.164  14.947
11700W        W83960  10.803  20.639   3.050
11701W        W83961  30.070   9.869   2.457
11702W        W83962  25.501  31.910   1.771
11703W        W83963  25.573  34.292   0.989
11704W        W83964  40.728   4.738   2.746
11705W        W83965  37.933  38.080   1.995
11706W        W83966  16.668   0.941   2.797
11707W        W83967  29.925  24.611  10.805
11708W        W83968  30.553  23.044  12.371
11709W        W83969   1.414  23.087   0.003
11710W        W83970   7.120  24.660  12.643
11711W        W83971   7.220  10.320  11.023
11712W        W83972   7.543  27.657   5.272
11713W        W83973  40.972  39.375   4.662
11714W        W83974  28.233   7.295   2.800
11715W        W83975  22.658  44.179   2.724
11716W        W83976  44.744  39.811  14.339
11717W        W83977   2.453  44.672  14.400
11718W        W83978  33.875   6.251  11.956
11719W        W83979  30.367  33.623  12.044
11720W        W83980  26.698  43.208   0.306
11721W        W83981  21.293  16.651   1.453
11722W        W83982   8.934  23.961   4.700
11723W        W83983  23.316  15.964   4.065
11724W        W83984  29.501  27.477   0.688
11725W        W83985  37.402  40.993  12.486
11726W        W83986   4.726  15.317  10.709
11727W        W83987  26.006  39.960   4.668
11728W        W83988  15.379  36.454  10.735
11729W        W83989  41.072  37.311   0.185
11730W        W83990  21.570  22.541  12.816
11731W        W83991  35.853  21.737   0.253
11732W        W83992   1.610  21.452  12.970
11733W        W83993  34.102  27.489  11.580
11734W        W83994  23.695  12.732   1.292
11735W        W83995  37.096  13.246   3.299
11736W        W83996  43.054  20.110  10.414
11737W        W83997   0.061  30.452   1.157
11738W        W83998  37.591  24.064   3.606
11739W        W83999   1.168  17.212   1.872
11740W        W84000  22.379  17.625  11.717
11741W        W84001  11.217  23.334   0.867
11742W        W84002  42.514  19.074   2.627
11743W        W84003   3.199   7.604  13.567
11744W        W84004   9.734  23.600  12.129
11745W        W84005  22.167  36.817  14.802
11746W        W84006  27.773  35.152  10.747
11747W        W84007  17.612  12.168   2.761
11748W        W84008  29.154   2.478  13.811
11749W        W84009  23.637  40.689  12.587
11750W        W84010  28.752  30.696  13.005
11751W        W84011  31.251  16.074  14.401
11752W        W84012  19.896  29.133   5.340
11753W        W84013  38.329  23.655   2.589
11754W        W84014  19.277  18.190  13.831
11755W        W84015  18.827  43.587   4.018
11756W        W84016  41.741  16.989   1.412
11757W        W84017  43.716  41.605  12.061
11758W        W84018  10.399  36.846   4.738
11759W        W84019  24.723  25.963  13.454
11760W        W84020  33.252  18.874   2.355
11761W        W84021   4.443  35.181  11.085
11762W        W84022   0.723  32.217   3.898
11763W        W84023  22.484  27.170   4.629
11764W        W84024  30.869  18.639  13.049
11765W        W84025  25.061  19.017   3.512
11766W        W84026  36.770  22.840  13.933
11767W        W84027   6.243   9.589  10.546
11768W        W84028  30.224  17.114  13.924
11769W        W84029  32.145  31.482   4.128
11770W        W84030  37.949   0.929  14.045
11771W        W84031  15.010  25.919  13.863
11772W        W84032   3.040  44.996   0.934
11773W        W84033  21.861  44.998   4.838
11774W        W84034  18.325  19.041   1.615
11775W        W84035  34.420  11.264  14.858
11776W        W84036   5.029  14.638  12.541
11777W        W84037  17.280   8.252   0.841
11778W        W84038  16.879  19.544  12.077
11779W        W84039  11.264   7.394  12.540
11780W        W84040  37.889  34.792   2.747
11781W        W84041  15.356  22.370   4.451
11782W        W84042  39.627   1.993   2.744
11783W        W84043   1.307  13.796  13.595
11784W        W84044  38.608  44.140  11.105
11785W        W84045  26.743   4.748   0.310
11786W        W84046   3.918  44.381  10.882
11787W        W84047  44.890  42.004  10.568
11788W        W84048   2.570  30.052   3.060
11789W        W84049  33.528  12.159  11.081
11790W        W84050   3.832   2.905  13.091
11791W        W84051  44.987   7.292  13.493
11792W        W84052  33.563  25.168  12.428
11793W        W84053  26.236  14.753   2.842
11794W        W84054  41.403   1.974   3.190
11795W        W84055  43.314   5.156   1.652
11796W        W84056  27.109  31.475   3.946
11797W        W84057  26.408  40.028   1.655
11798W        W84058  36.606  18.638  11.523
11799W        W84059   3.894  35.029  11.695
11800W        W84060  37.636  34.386   4.944
11801W        W84061   1.832  40.466  12.070
11802W        W84062  28.651  28.135  13.999
11803W        W84063  12.171   1.489  13.913
11804W        W84064  44.725  23.626   3.076
11805W        W84065  44.588  11.696  11.500
11806W        W84066  14.135  44.173  12.242
11807W        W84067  19.218   8.949   1.364
11808W        W84068  43.693  23.133   1.335
11809W        W84069   8.237  25.313   4.553
11810W        W84070  31.962   8.846  14.707
11811W        W84071  31.568   1.737  11.669
11812W        W84072  30.517  43.814   0.189
11813W        W84073  19.485  34.875  11.943
11814W        W84074  33.165  42.248   4.276
11815W        W84075   0.217  26.146  12.905
11816W        W84076  39.946   1.045  12.135
11817W        W84077   4.622  23.139  12.624
11818W        W84078  18.920   7.564  12.857
11819W        W84079   9.912  14.214  10.607
11820W        W84080  39.363  14.581   1.326
11821W        W84081  26.539  18.062   2.148
11822W        W84082  34.105   6.208   4.113
11823W        W84083  37.115  42.061   2.139
11824W        W84084   9.660   1.963   1.817
11825W        W84085  27.484   2.761   2.320
11826W        W84086  38.948  33.015   1.039
11827W        W84087  39.543  43.735   4.142
11828W        W84088  31.993  33.146   1.204
11829W        W84089   1.266  15.565  13.509
11830W        W84090   8.866  29.636  11.648
11831W        W84091   3.814  36.397  13.799
11832W        W84092  25.969   3.952   1.701
11833W        W84093  39.729  14.137   2.167
11834W        W84094  21.398  43.318  11.938
11835W        W84095  44.170  41.041  10.021
11836W        W84096  12.077  44.051   0.367
11837W        W84097  25.741  30.015  13.602
11838W        W84098   8.006  10.627  13.800
11839W        W84099  36.784  34.270   2.843
11840W        W84100  12.824  39.366  14.770
11841W        W84101   0.220  36.275  10.947
11842W        W84102   3.903  39.030   3.166
11843W        W84103   0.281  11.102  12.132
11844W        W84104  32.564  19.233  11.743
11845W        W84105  30.132   5.694  13.590
11846W        W84106   1.441  31.920   0.362
11847W        W84107  18.873   3.076  12.396
11848W        W84108  23.718  35.826  14.465
11849W        W84109  11.041   2.434   4.430
11850W        W84110  31.968  31.870   0.296
11851W        W84111   2.036  37.718   4.979
11852W        W84112  15.251  18.726   2.142
11853W        W84113  22.441  23.497   3.600
11854W        W84114  38.263   6.468   4.612
11855W        W84115  44.451  29.531   1.965
11856W        W84116  20.494   3.450  13.985
11857W        W84117   2.841  28.829  11.552
11858W        W84118   7.121   4.957   4.958
11859W        W84119  40.534  11.220  13.417
11860W        W84120   6.638  30.285   1.376
11861W        W84121  20.262   0.304   4.308
11862W        W84122  32.877  22.035   1.187
11863W        W84123  24.752  23.499   3.746
11864W        W84124  11.241  30.327  10.732
11865W        W84125  41.817  31.273   4.131
11866W        W84126  44.568  20.841   2.869
11867W        W84127  23.384  23.436  13.924
11868W        W84128   6.401  38.848  13.046
11869W        W84129  22.684   1.382  11.093
11870W        W84130  43.163  32.994   4.297
11871W        W84131   1.083  31.458   1.724
11872W        W84132  23.602  10.822   2.819
11873W        W84133  15.119  22.501  13.906
11874W        W84134  16.042  39.893  12.007
11875W        W84135  24.219  17.321  14.053
11876W        W84136  14.247   9.776   3.708
11877W        W84137  14.268  20.624   2.906
11878W        W84138  22.679  20.088  10.883
11879W        W84139   0.014  40.356   1.938
11880W        W84140  10.897   9.363  11.081
11881W        W84141   6.922  20.597  12.988
11882W        W84142  42.397  11.454  11.114
11883W        W84143  11.911   0.398  12.667
11884W        W84144  26.888  23.477   1.186
11885W        W84145   6.196  43.106   4.258
11886W        W84146  23.024  10.296  14.493
11887W        W84147  25.368  30.160  13.978
11888W        W84148  32.641   1.174  13.429
11889W        W84149  20.392  43.014  11.627
11890W        W84150   3.809  16.583  14.837
11891W        W84151  11.921   7.455   2.635
11892W        W84152  12.182  13.657  11.493
11893W        W84153  19.238   0.603   4.580
11894W        W84154   9.575  14.472   3.940
11895W        W84155  28.031  28.735  12.934
11896W        W84156  35.758  28.604  11.184
11897W        W84157   5.931  23.526  13.553
11898W        W84158   6.665  40.616   4.044
11899W        W84159  29.084  40.994   1.838
11900W        W84160  23.135  14.177  10.803
11901W        W84161  40.229  27.449  14.787
11902W        W84162  29.227  32.387  10.907
11903W        W84163  35.339  20.434   4.721
11904W        W84164  41.525  40.497   2.275
11905W        W84165  23.632  25.003  11.104
11906W        W84166   5.655  32.146   4.240
11907W        W84167  30.055  31.129  10.582
11908W        W84168   9.389  10.918   2.031
11909W        W84169   7.819   3.352   0.498
11910W        W84170  17.564  40.540   0.471
11911W        W84171  16.823   8.529  11.672
11912W        W84172   7.028  33.929  10.735
11913W        W84173  20.794  27.458   5.381
11914W        W84174  13.131   3.559   2.940
11915W        W84175  41.444  17.579   2.268
11916W        W84176   5.343  13.340   4.029
11917W        W84177  18.837  16.405  12.634
11918W        W84178  12.997  20.589   3.361
11919W        W84179  25.041  12.751   2.713
11920W        W84180  14.848  20.311   0.884
11921W        W84181  33.802  26.744   2.213
11922W        W84182  43.731   3.983   0.293
11923W        W84183   1.298  41.891  12.888
11924W        W84184  41.956   3.839  13.442
11925W        W84185  11.579  40.849  11.160
11926W        W84186  34.962   3.322   2.904
11927W        W84187  13.759  14.548   3.124
11928W        W84188  17.663   9.649  10.687
11929W        W84189  10.621  36.362   3.731
11930W        W84190  36.625  19.758  13.682
11931W        W84191  10.472  19.651  13.175
11932W        W84192  20.154  17.368  11.694
11933W        W84193  40.978   9.360   0.044
11934W        W84194  42.886  34.439  14.641
11935W        W84195  33.914  11.374   0.009
11936W        W84196  17.948   2.831  10.986
11937W        W84197   9.000  13.114  14.084
11938W        W84198   8.385  34.908   3.670
11939W        W84199  17.698  28.270  14.364
11940W        W84200  35.435  21.910   0.912
11941W        W84201  16.597  15.365   1.201
11942W        W84202  24.139  26.366   1.260
11943W        W84203  11.773  29.825  10.133
11944W        W84204  11.386  17.636   3.907
11945W        W84205  33.276  17.910  13.007
11946W        W84206  28.289  21.731   2.900
11947W        W84207  36.102  27.499   4.697
11948W        W84208  42.451  24.684  12.520
11949W        W84209  29.633  33.617  13.622
11950W        W84210   0.182   5.758   2.946
11951W        W84211   8.784   6.565   2.751
11952W        W84212  44.904   2.233   4.677
11953W        W84213  41.668  38.254  13.873
11954W        W84214  13.072  40.452   0.007
11955W        W84215  27.972  38.441  14.797
11956W        W84216   3.789   1.932  13.901
11957W        W84217  43.213  10.874  12.940
11958W        W84218  22.615   1.322  12.073
11959W        W84219  25.898  18.348  11.119
11960W        W84220   5.502  27.046   4.614
11961W        W84221   1.571   5.310   0.538
11962W        W84222  18.740  41.747  14.888
11963W        W84223  39.192  16.311   1.955
11964W        W84224  14.283   8.838  10.577
11965W        W84225   4.339   6.680   1.157
11966W        W84226  12.862  33.283   0.977
11967W        W84227  28.901  36.025   2.661
11968W        W84228  21.720   9.923  14.459
11969W        W84229   2.694  14.205  11.476
11970W        W84230   1.091  10.144   4.426
11971W        W84231   3.013   0.736  14.928
11972W        W84232  18.925  19.450  12.637
11973W        W84233  42.098  38.306  12.674
11974W        W84234   2.620  11.261  13.365
11975W        W84235  15.790  17.170   4.533
11976W        W84236  34.945  38.960  11.527
11977W        W84237  37.614  36.430   3.429
11978W        W84238  13.441   9.559   4.199
11979W        W84239  44.935  30.924  11.958
11980W        W84240   3.408  12.306   1.442
11981W        W84241  33.631  34.954  12.014
11982W        W84242  40.361  43.321  11.614
11983W        W84243  33.098  15.577  14.422
11984W        W84244  35.071  19.622  13.097
11985W        W84245  37.376  39.863   2.435
11986W        W84246  39.144   3.773   4.518
11987W        W84247   3.266   7.284   0.533
11988W        W84248   8.431   1.913  12.118
11989W        W84249  34.835  24.683  11.658
11990W        W84250  14.887  33.573  14.011
11991W        W84251  25.650  19.975   2.602
11992W        W84252  37.817  38.428   4.234
11993W        W84253  18.642   7.769   1.449
11994W        W84254  22.732   5.277   0.275
11995W        W84255   7.309   3.188   3.607
11996W        W84256  33.068   2.418  12.858
11997W        W84257  39.847   4.816  10.584
11998W        W84258  22.312   3.992  13.958
11999W        W84259  19.019  31.043   2.190
12000W        W84260  10.632  28.681  12.246
12001W        W84261  29.731  43.842   3.921
12002W        W84262  21.524  36.056  13.870
12003W        W84263  32.362  25.879   3.979
12004W        W84264  41.327   1.471   3.253
12005W        W84265  27.678  36.658  14.449
12006W        W84266  38.498  21.105   0.788
12007W        W84267  31.373   8.694  13.871
12008W        W84268  41.354  23.624  10.939
12009W        W84269  19.589  37.428   4.153
12010W        W84270  24.541  17.137   3.843
12011W        W84271  32.040   3.859  10.858
12012W        W84272  36.127  22.540   0.801
12013W        W84273   0.529  31.472   2.894
12014W        W84274  31.916  29.001   0.970
12015W        W84275  15.528  10.444   2.055
12016W        W84276  19.628  14.323  11.147
12017W        W84277  17.529   3.124   0.258
12018W        W84278  40.440   6.131  10.701
12019W        W84279   8.208  44.258  13.294
12020W        W84280  17.755   2.860  14.869
12021W        W84281  40.465  24.250  13.789
12022W        W84282  40.794   9.145   2.243
12023W        W84283  32.202  31.475  14.510
12024W        W84284   6.355  38.337  13.167
12025W        W84285   6.355   5.875   5.081
12026W        W84286  40.086   3.946  10.768
12027W        W84287   5.649  26.038   3.428
12028W        W84288  29.184  36.117  13.874
12029W        W84289  24.199  41.084   1.779
12030W        W84290  38.082  13.348   1.797
12031W        W84291  17.794  43.613  14.077
12032W        W84292  25.009  12.131  11.570
12033W        W84293  10.169  30.953  11.122
12034W        W84294   3.793  33.039   1.229
12035W        W84295  12.400  38.180  14.820
12036W        W84296  12.698  12.126   2.868
12037W        W84297  11.868  37.797  14.335
12038W        W84298  34.654  19.215   1.100
12039W        W84299  44.991  36.528  13.439
12040W        W84300  17.615  40.493  11.391
12041W        W84301  20.064  29.998  14.383
12042W        W84302  42.057  29.452   2.465
12043W        W84303  26.041   6.968  13.349
12044W        W84304  25.732  11.696   3.110
12045W        W84305   8.873   1.775  12.346
12046W        W84306  43.093   1.450   1.339
12047W        W84307  36.064  15.328   4.712
12048W        W84308  21.283  31.818   2.689
12049W        W84309  27.620  30.173  11.580
12050W        W84310   1.233   1.335   0.782
12051W        W84311  17.646  29.862  14.310
12052W        W84312  16.708   2.997   2.888
12053W        W84313  38.875  28.568   4.837
12054W        W84314  17.023  35.965  14.623
12055W        W84315  42.972  15.172   0.322
12056W        W84316  38.131  33.395   1.609
12057W        W84317  22.236   7.300   2.347
12058W        W84318  30.511  24.757   0.956
12059W        W84319  37.670  43.734  11.218
12060W        W84320   2.308  41.747  13.324
12061W        W84321  11.241  37.279   3.200
12062W        W84322  35.060  41.391   3.135
12063W        W84323  25.992  20.171   1.352
12064W        W84324  41.564  44.393  12.976
12065W        W84325   3.872   4.503   1.977
12066W        W84326   4.691  14.614   1.868
12067W        W84327  10.741  42.249   3.673
12068W        W84328  39.839  21.650   0.723
12069W        W84329   2.950  39.406   3.924
12070W        W84330  23.529  14.707   1.447
12071W        W84331  34.561  19.209   1.916
12072W        W84332  21.726  44.858   2.387
12073W        W84333  12.639   0.857  14.380
12074W        W84334  29.034  36.602   4.856
12075W        W84335  11.374  40.583   4.068
12076W        W84336  27.004  15.693  12.284
12077W        W84337  14.801  36.406  12.023
12078W        W84338  30.440  43.521   4.835
12079W        W84339  44.307  28.552   2.042
12080W        W84340   4.740  38.917  12.843
12081W        W84341  38.033   4.878   3.848
12082W        W84342   7.240  12.324   1.338
12083W        W84343  10.704   6.350  11.557
12084W        W84344  13.821  43.245   2.177
12085W        W84345  25.576  16.100   2.483
12086W        W84346  28.629  37.480  11.907
12087W        W84347   2.521  32.664   2.201
12088W        W84348  29.989  33.405   4.744
12089W        W84349   0.259  19.102  11.620
12090W        W84350  14.371  11.366   3.185
12091W        W84351  29.587   8.786  12.877
12092W        W84352  10.388  21.525   3.226
12093W        W84353  41.954  40.834   3.159
12094W        W84354  42.868  36.452   3.282
12095W        W84355  25.994  18.808   0.330
12096W        W84356   6.412  13.192   2.162
12097W        W84357  32.368   9.108   1.802
12098W        W84358  27.968  29.125   2.766
12099W        W84359   7.470  33.627   4.125
12100W        W84360   5.679  11.744  12.441
12101W        W84361  32.851  42.290   1.904
12102W        W84362  33.393  44.765  10.673
12103W        W84363   6.119  28.931   0.947
12104W        W84364  25.634   0.767  11.153
12105W        W84365  43.535  31.629   2.647
12106W        W84366  35.457   5.130  14.538
12107W        W84367   3.120  38.207  11.889
12108W        W84368   6.333  17.860  13.096
12109W        W84369  29.894  15.613  10.964
12110W        W84370  26.772  35.878  14.602
12111W        W84371  29.972  22.774   4.456
12112W        W84372  40.510  41.495   2.097
12113W        W84373   3.439  10.756   3.026
12114W        W84374   4.095  11.440  14.296
12115W        W84375  25.725  30.502   3.225
12116W        W84376  16.924  39.592  13.354
12117W        W84377  11.558  25.194  12.159
12118W        W84378  33.321  41.024   0.876
12119W        W84379  26.405  30.895   0.850
12120W        W84380   8.386  43.468   2.769
12121W        W84381  18.258  31.958  13.862
12122W        W84382   8.809  19.105   0.731
12123W        W84383   0.979   3.096   0.853
12124W        W84384  26.008  26.088  10.934
12125W        W84385   9.216  10.287   1.019
12126W        W84386   0.356  25.503  14.436
12127W        W84387  13.185  14.646  10.707
12128W        W84388   4.309  13.597  10.695
12129W        W84389   6.702  21.021  14.356
12130W        W84390  39.891  22.605  10.452
12131W        W84391   4.746  23.491  11.558
12132W        W84392  14.660  27.240  13.770
12133W        W84393  16.992  15.316   3.816
12134W        W84394  30.460  39.376   2.831
12135W        W84395   6.500  19.569  12.026
12136W        W84396  39.153  23.706   0.349
12137W        W84397  31.529  40.227  14.003
12138W        W84398  25.588  10.891  14.733
12139W        W84399  11.217  19.600  12.035
12140W        W84400  25.435  14.900   1.448
12141W        W84401  13.067  27.548   0.412
12142W        W84402  10.528  43.927  10.815
12143W        W84403  27.078  28.471  11.486
12144W        W84404  40.299  15.105   1.995
12145W        W84405   9.234   0.416   3.487
12146W        W84406  28.960  34.409   0.523
12147W        W84407  39.550   7.835  14.744
12148W        W84408   1.321  32.829   3.597
12149W        W84409  24.151  15.183  10.679
12150W        W84410   9.902   1.787   2.979
12151W        W84411   6.290  33.614  10.109
12152W        W84412   4.761  40.540  13.081
12153W        W84413   3.807  32.183  10.293
12154W        W84414   9.931   7.298  12.490
12155W        W84415  28.428  16.189   2.631
12156W        W84416  13.221  44.753  12.562
12157W        W84417  30.684   4.760   4.024
12158W        W84418  30.134   0.816   2.242
12159W        W84419  10.777   6.420   1.343
12160W        W84420  39.851  31.416  14.805
12161W        W84421  20.026  27.732  12.135
12162W        W84422  38.444  17.096   3.412
12163W        W84423  32.205   6.834   0.301
12164W        W84424  26.948  12.873   1.450
12165W        W84425  41.378  34.808   1.413
12166W        W84426  33.091   3.692   2.382
12167W        W84427   8.543  39.218  10.818
12168W        W84428  13.130   9.069  13.907
12169W        W84429  35.143  15.159   1.319
12170W        W84430  12.541   5.334   3.222
12171W        W84431  23.627  44.867   4.625
12172W        W84432  33.570   1.469   4.734
12173W        W84433   4.995  22.463   3.808
12174W        W84434  24.981  38.344  12.427
12175W        W84435  19.028  16.709   2.958
12176W        W84436  33.055  19.322   5.469
12177W        W84437  38.605  42.513   2.237
12178W        W84438  12.171  38.556   0.689
12179W        W84439  21.431  32.101   1.823
12180W        W84440  11.854  15.110  13.386
12181W        W84441  33.763  44.015  12.423
12182W        W84442   7.877  34.162   3.703
12183W        W84443  27.484  32.902   4.896
12184W        W84444  18.605  33.520  11.464
12185W        W84445  10.073  14.860  12.417
12186W        W84446  26.171  40.316   1.274
12187W        W84447  28.519   9.728   3.293
12188W        W84448  22.572  13.949   3.364
12189W        W84449   3.966  25.081   4.938
12190W        W84450  20.541  42.282  11.180
12191W        W84451  26.488  30.046   0.994
12192W        W84452  44.047   9.425   4.134
12193W        W84453  30.213  21.252  11.168
12194W        W84454  26.193  23.492  12.984
12195W        W84455  35.337  26.859  12.568
12196W        W84456  30.948  29.735  10.193
12197W        W84457  11.999  35.391  12.452
12198W        W84458   8.697   1.502   4.723
12199W        W84459   6.724   0.231   2.237
12200W        W84460  23.622   1.757  14.961
12201W        W84461  15.762  30.618  14.303
12202W        W84462   6.616  43.347   1.922
12203W        W84463  31.974  32.689   4.678
12204W        W84464  16.786  14.272  12.407
12205W        W84465   5.948   0.357   0.704
12206W        W84466  39.344  17.313   3.312
12207W        W84467  13.113  39.907  12.212
12208W        W84468  25.196  35.888   1.500
12209W        W84469  41.935  29.010   2.207
12210W        W84470  31.976  11.970   3.818
12211W        W84471  22.024  13.844   1.741
12212W        W84472  19.520  15.184   1.145
12213W        W84473  10.710  19.219   3.134
12214W        W84474  26.571  39.917   0.644
12215W        W84475  31.651  32.042  13.886
12216W        W84476  12.593  22.129  13.305
12217W        W84477  39.954  34.476   4.503
12218W        W84478  31.044  10.799   3.650
12219W        W84479   8.912  22.794  11.568
12220W        W84480   3.763  37.118   0.071
12221W        W84481   7.424  38.980   2.259
12222W        W84482  27.634  29.891  13.623
12223W        W84483  44.697  43.231   3.694
12224W        W84484  34.372   5.646   1.758
12225W        W84485  17.441  40.987  13.596
12226W        W84486  41.001  23.120   0.724
12227W        W84487   5.895  43.839  11.998
12228W        W84488  18.840  13.329   0.185
12229W        W84489  10.240  19.330  12.316
12230W        W84490  16.387  34.036   3.409
12231W        W84491  20.791  27.487   4.457
12232W        W84492  21.286  11.259   4.549
12233W        W84493  12.224  18.590  10.892
12234W        W84494   5.891  37.327   4.695
12235W        W84495   4.339  16.806  12.561
12236W        W84496  12.081  42.211   0.226
12237W        W84497   6.868   8.806   4.630
12238W        W84498  25.671  26.908   1.478
12239W        W84499   9.779  25.053   3.185
12240W        W84500  24.700  39.426  14.878
12241W        W84501  22.911   5.710  12.428
12242W        W84502  42.745  39.243   3.363
12243W        W84503  22.061   0.935  12.604
12244W        W84504  40.174   6.209   1.310
12245W        W84505   7.203  43.875  12.650
12246W        W84506  18.566  30.162  14.369
12247W        W84507  44.857  22.529   2.352
12248W        W84508  44.061  41.340  11.813
12249W        W84509   5.124  25.055  14.779
12250W        W84510  22.053  11.421  11.540
12251W        W84511  37.660  14.006  12.756
12252W        W84512  19.603  34.936   4.661
12253W        W84513   4.803  15.755   0.445
12254W        W84514  37.466  32.632   1.695
12255W        W84515  13.308  42.201  14.822
12256W        W84516  17.984  19.884  12.954
12257W        W84517  30.018  27.522   1.446
12258W        W84518   4.891  35.927  12.128
12259W        W84519   2.336  39.668  13.945
12260W        W84520  30.136  42.026   4.096
12261W        W84521  41.340  24.292   4.093
12262W        W84522  14.852  39.426   2.627
12263W        W84523  42.376  14.047  13.456
12264W        W84524   6.984  42.277   4.276
12265W        W84525  23.675  41.048  10.487
12266W        W84526  24.028  29.611  14.666
12267W        W84527  11.550  30.073  12.470
12268W        W84528  36.910  42.785   3.696
12269W        W84529   0.321   7.877  12.515
12270W        W84530  27.929  40.782  14.978
12271W        W84531  36.660  14.373  12.105
12272W        W84532  43.663  20.275  12.979
12273W        W84533   5.416  34.520  10.725
12274W        W84534  19.274  20.650  12.506
12275W        W84535  35.001  26.421  13.410
12276W        W84536  31.482  43.624   0.557
12277W        W84537  41.779  39.602   1.764
12278W        W84538  19.406   7.162  12.308
12279W        W84539   6.108  34.482   2.927
12280W        W84540  27.818  35.872   4.090
12281W        W84541   6.802   7.175   4.519
12282W        W84542   1.939  15.721   2.804
12283W        W84543  31.404   0.017   2.787
12284W        W84544   1.227  27.981  11.232
12285W        W84545  35.001  10.949   0.744
12286W        W84546  16.685  32.576   1.662
12287W        W84547  29.514  32.118   0.844
12288W        W84548  35.269   7.290   1.279
12289W        W84549   1.853  37.051  12.859
12290W        W84550  18.613  24.696   2.824
12291W        W84551  23.690  34.020  11.120
12292W        W84552   1.368  17.622   3.698
12293W        W84553  30.656   2.218  11.495
12294W        W84554  22.759  36.488   3.546
12295W        W84555  34.445  42.806  12.979
12296W        W84556  15.324   1.498  14.738
12297W        W84557   0.898  17.306   1.418
12298W        W84558  34.439   2.750   0.332
12299W        W84559   4.721  35.662  10.784
12300W        W84560  10.202   4.483   3.156
12301W        W84561  11.718  39.433   4.732
12302W        W84562   5.091  29.593  12.022
12303W        W84563   8.315  26.183  12.245
12304W        W84564  22.459  10.793  13.955
12305W        W84565  21.994  19.959  14.219
12306W        W84566  40.005  18.004   1.156
12307W        W84567  17.084   7.678  10.330
12308W        W84568  37.155  43.533   2.314
12309W        W84569   7.781  12.632  13.134
12310W        W84570  20.223   4.244  12.384
12311W        W84571  26.727   4.692  13.882
12312W        W84572   4.386  14.652   4.210
12313W        W84573   2.824  39.489  12.041
12314W        W84574  22.023  39.440  13.833
12315W        W84575  43.923  34.457  13.605
12316W        W84576   8.817  12.387   3.822
12317W        W84577  28.701  43.834  11.667
12318W        W84578  36.541   0.960  11.883
12319W        W84579  37.446  15.887   3.804
12320W        W84580   4.032   0.902  12.538
12321W        W84581  32.102   4.120   4.832
12322W        W84582  11.595  10.395   4.241
12323W        W84583  10.118  27.437  10.595
12324W        W84584  19.757  40.983  11.513
12325W        W84585   0.699  41.878  14.027
12326W        W84586  43.046  12.743  13.309
12327W        W84587  19.087  26.938  11.119
12328W        W84588  32.589  35.519   0.443
12329W        W84589  44.017  22.549   0.051
12330W        W84590  13.780  31.017   3.683
12331W        W84591  36.917   8.870   2.152
12332W        W84592   4.260   2.089  11.923
12333W        W84593  11.067  23.464   0.354
12334W        W84594  15.581   3.429  13.020
12335W        W84595  14.862   1.399   4.609
12336W        W84596  18.825  26.188   3.752
12337W        W84597  12.751  38.804   4.012
12338W        W84598   2.957  38.889   2.223
12339W        W84599  28.493  42.697  13.606
12340W        W84600  28.896  22.385   3.846
12341W        W84601  44.838   6.750   4.031
12342W        W84602  20.768  36.439  12.299
12343W        W84603  27.547   6.198   2.672
12344W        W84604   5.379   1.513   2.190
12345W        W84605  40.553  43.105   5.086
12346W        W84606  12.600  39.829   4.272
12347W        W84607  18.206  23.698   2.367
12348W        W84608  29.169  12.974   3.748
12349W        W84609   1.707  10.186  11.021
12350W        W84610  10.388  18.565  13.758
12351W        W84611  18.121   3.466   2.301
12352W        W84612  30.334  40.341   1.352
12353W        W84613  38.792  28.062   1.405
12354W        W84614  36.220   9.843  11.425
12355W        W84615  15.923  40.219  13.321
12356W        W84616  35.452  21.522  11.142
12357W        W84617   5.183  24.286   1.816
12358W        W84618  31.418  28.009   3.809
12359W        W84619  11.379  24.950  14.496
12360W        W84620  37.295  30.232   1.319
12361W        W84621   5.264  31.577   0.950
12362W        W84622   0.866  23.754   1.725
12363W        W84623  13.532  27.269   2.855
12364W        W84624  34.409  11.391  11.648
12365W        W84625  20.273   5.637   2.298
12366W        W84626  43.999  24.407  14.502
12367W        W84627   0.980   1.934  11.623
12368W        W84628  44.831  18.779  12.916
12369W        W84629  36.422  17.764  10.707
12370W        W84630  36.963  14.583   1.612
12371W        W84631  22.540   3.284   1.611
12372W        W84632  13.638  30.395   4.582
12373W        W84633  40.542  21.095  12.668
12374W        W84634  26.475  30.908   3.456
12375W        W84635  36.080  36.004   1.064
12376W        W84636  44.865  22.679   3.782
12377W        W84637  39.914   9.537   2.151
12378W        W84638  14.508  40.710   4.247
12379W        W84639  39.428  44.328  10.343
12380W        W84640  29.857  32.664   5.741
12381W        W84641  13.232  16.524   1.192
12382W        W84642  35.989  24.529   2.643
12383W        W84643  21.213  15.967   1.388
12384W        W84644   4.221  26.754  13.892
12385W        W84645  24.104  12.617   2.245
12386W        W84646  13.065  35.744  13.105
12387W        W84647  25.229  17.421  12.609
12388W        W84648  10.281   0.477   4.796
12389W        W84649  39.401  27.964   5.012
12390W        W84650  33.368   4.791   4.210
12391W        W84651  30.778   3.842  11.899
12392W        W84652  21.492   4.703  14.468
12393W        W84653  39.477  32.830  12.997
12394W        W84654   5.825  22.723  10.527
12395W        W84655  37.876  43.659  12.032
12396W        W84656  42.267  29.447   3.232
12397W        W84657  13.633  40.737  11.618
12398W        W84658   0.263  18.279   0.987
12399W        W84659  24.522  11.819   1.305
12400W        W84660   2.897  38.317  13.549
12401W        W84661  11.589  24.736  11.175
12402W        W84662   3.674  22.989  12.496
12403W        W84663  19.684  30.466  12.402
12404W        W84664   1.176  38.435  13.451
12405W        W84665  26.528   2.159   0.329
12406W        W84666   7.883  42.393   3.891
12407W        W84667  38.959   8.402   1.780
12408W        W84668  31.483  43.579  11.203
12409W        W84669  26.096  38.749   3.658
12410W        W84670   2.702  32.923  12.520
12411W        W84671  35.474  39.843  12.047
12412W        W84672  11.771   2.165   0.018
12413W        W84673  33.547  24.897  14.241
12414W        W84674  16.472  42.158  10.667
12415W        W84675  19.128   4.023  11.483
12416W        W84676  42.519  34.560   2.868
12417W        W84677  40.275  18.096  12.557
12418W        W84678  26.060  28.474   1.776
12419W        W84679  23.550  44.793  12.554
12420W        W84680  39.903  20.910   3.906
12421W        W84681  28.905  10.247  10.217
12422W        W84682  21.344  35.629   1.691
12423W        W84683  41.238  36.109   2.372
12424W        W84684   1.730  20.830   4.632
12425W        W84685  22.599  31.915  11.417
12426W        W84686  15.205  29.882   4.659
12427W        W84687  34.342  37.003   0.116
12428W        W84688  11.556  17.020   0.789
12429W        W84689   0.419   1.850   4.860
12430W        W84690  11.762  10.817   1.455
12431W        W84691  16.581   4.775  11.153
12432W        W84692  38.581  26.989   4.677
12433W        W84693  16.314  40.503   4.229
12434W        W84694  37.864  10.597   5.138
12435W        W84695  40.113  12.421   3.670
12436W        W84696  13.434  36.138   4.344
12437W        W84697  19.118  21.637  12.375
12438W        W84698  36.820  20.104  14.395
12439W        W84699  17.516  20.214   3.678
12440W        W84700  20.150  33.017  12.000
12441W        W84701  10.705  17.783   3.304
12442W        W84702   8.494  42.020  12.398
12443W        W84703   5.909  44.063  14.430
12444W        W84704  39.475  30.458  10.751
12445W        W84705   9.686  36.068   3.008
12446W        W84706  14.830  22.045   3.614
12447W        W84707   8.427  38.291  14.802
12448W        W84708  17.493  36.900   0.454
12449W        W84709  43.720  11.252   2.236
12450W        W84710  28.428  17.226  10.217
12451W        W84711  31.375   8.712   1.691
12452W        W84712  11.268  10.633   2.195
12453W        W84713  41.923  10.010  13.397
12454W        W84714  15.904  34.677   0.873
12455W        W84715   2.969  38.479   3.645
12456W        W84716   9.750  37.614   2.353
12457W        W84717  34.088  16.589   4.594
12458W        W84718  21.078  19.321   0.291
12459W        W84719   4.567   0.413  13.045
12460W        W84720   7.867  23.524   0.882
12461W        W84721  36.981   0.392   0.317
12462W        W84722  25.074   2.171  13.938
12463W        W84723  42.239  14.636   2.255
12464W        W84724   9.519  39.464  14.999
12465W        W84725  40.398  22.577   1.864
12466W        W84726   7.501  36.481  12.536
12467W        W84727  16.128  20.144   4.517
12468W        W84728  15.867  20.237  13.093
12469W        W84729  40.059  23.802   3.882
12470W        W84730  44.423  41.023   3.868
12471W        W84731  12.167  31.000   0.944
12472W        W84732  21.238  42.830   2.911
12473W        W84733  26.546  20.803   1.467
12474W        W84734   3.829  15.145  14.101
12475W        W84735  16.653  19.133  11.908
12476W        W84736  14.385  28.983  10.997
12477W        W84737  29.426  31.603   0.937
12478W        W84738   4.310  34.910   3.713
12479W        W84739  27.473  17.411  12.852
12480W        W84740   9.186  20.840  11.148
12481W        W84741  12.349  37.856   2.557
12482W        W84742  23.653  31.866  11.975
12483W        W84743  42.348  40.561  13.396
12484W        W84744   9.624  36.355   4.552
12485W        W84745  14.281  29.008   0.487
12486W        W84746   1.186  10.724   3.927
12487W        W84747   1.757  23.232  10.607
12488W        W84748   4.272  18.270  13.948
12489W        W84749  20.366  23.542  11.824
12490W        W84750  26.209  12.386   3.254
12491W        W84751   6.482  36.551   1.230
12492W        W84752  41.458  31.371  12.128
12493W        W84753  32.359  42.557   3.216
12494W        W84754  32.309  23.517  10.685
12495W        W84755  26.646  11.708   0.528
12496W        W84756  39.468  36.558   0.894
12497W        W84757   1.046  14.332   1.878
12498W        W84758  15.796  26.144  14.297
12499W        W84759   0.480   9.895  13.669
12500W        W84760   1.456  20.654   3.011
12501W        W84761   5.423  27.484   3.327
12502W        W84762  36.347   1.843   4.522
12503W        W84763  28.051  28.190  11.216
12504W        W84764  14.795  10.233  12.062
12505W        W84765   6.483  27.643   1.380
12506W        W84766  28.280   1.768   3.115
12507W        W84767  12.798   7.258   3.764
12508W        W84768  37.273  43.407  12.453
12509W        W84769  42.008  13.760  10.896
12510W        W84770  35.259  39.322  12.825
12511W        W84771  27.450   7.649  11.190
12512W        W84772  36.130  36.604   2.216
12513W        W84773  27.501   8.032   4.191
12514W        W84774  18.787   0.285  11.939
12515W        W84775   9.627   2.734  13.161
12516W        W84776  18.597  29.367  13.028
12517W        W84777  17.509  32.084  12.286
12518W        W84778  30.540  24.569  14.263
12519W        W84779  16.523  24.672  13.928
12520W        W84780  10.847  14.326  14.781
12521W        W84781  37.088  37.543   3.217
12522W        W84782  37.054  36.057  12.791
12523W        W84783  34.369   4.217  11.085
12524W        W84784   1.205  24.568   4.455
12525W        W84785  28.871  25.986  11.348
12526W        W84786  33.301  24.145   4.127
12527W        W84787   8.771  13.800   5.051
12528W        W84788  40.580  17.518  12.004
12529W        W84789   1.498  12.371   4.579
12530W        W84790  14.110  14.062   9.746
12531W        W84791  16.849  17.176   3.775
12532W        W84792  21.798  38.521   1.248
12533W        W84793  25.285   2.814  14.042
12534W        W84794  36.536  15.306   1.348
12535W        W84795  29.088   9.753  14.431
12536W        W84796  21.696  42.934   1.181
12537W        W84797  21.869  35.227   1.229
12538W        W84798  36.508  31.844  13.000
12539W        W84799  16.032  10.128  13.876
12540W        W84800  39.421   8.609   1.912
12541W        W84801  32.501   3.918   1.238
12542W        W84802  18.679  31.497   3.177
12543W        W84803  28.232  14.136  14.380
12544W        W84804  31.876  23.917  12.679
12545W        W84805  43.992  22.257   3.305
12546W        W84806  43.343  43.497  12.031
12547W        W84807  19.866   4.495   1.242
12548W        W84808  30.167  12.964   0.396
12549W        W84809  35.713   7.206   0.355
12550W        W84810  42.363  39.836  10.471
12551W        W84811   5.619  30.584  11.350
12552W        W84812  38.847  13.347  14.767
12553W        W84813   0.772   4.484   2.800
12554W        W84814  12.049   0.909   1.805
12555W        W84815   4.865  11.410   3.803
12556W        W84816  14.561  30.250   2.323
12557W        W84817   9.229   7.790   3.544
12558W        W84818   6.629  39.147  14.342
12559W        W84819  25.501  15.644   2.221
12560W        W84820  34.720   5.801   0.747
12561W        W84821  22.678  31.535   4.410
12562W        W84822   4.752  16.061   0.986
12563W        W84823  16.199  18.619   0.984
12564W        W84824  43.829  29.232  13.909
12565W        W84825   7.640  26.523   1.353
12566W        W84826  42.882   1.435  11.150
12567W        W84827  28.627  21.464  13.311
12568W        W84828  30.714  26.971  14.847
12569W        W84829  22.695  32.089   1.378
12570W        W84830   9.613  43.320   3.361
12571W        W84831  27.898  34.402   0.901
12572W        W84832  12.184  44.582   1.825
12573W        W84833  21.568  19.767  13.117
12574W        W84834  17.545  13.416   3.731
12575W        W84835  18.204  29.061   2.951
12576W        W84836  32.934  36.608   4.439
12577W        W84837  21.251  11.615   1.451
12578W        W84838  40.490  10.403   1.536
12579W        W84839  36.786  18.772   4.608
12580W        W84840  34.683  31.561  11.722
12581W        W84841   5.392  12.782  13.083
12582W        W84842  28.551  12.073  14.848
12583W        W84843  20.524  22.785  12.309
12584W        W84844  26.562   8.936  13.027
12585W        W84845  17.575  38.370  11.611
12586W        W84846  43.710  41.385   0.789
12587W        W84847  32.182  10.720  14.600
12588W        W84848  22.667  29.967   4.935
12589W        W84849   0.445  11.309  14.071
12590W        W84850   1.237  33.983   2.377
12591W        W84851  19.788  34.632  10.676
12592W        W84852  31.418  42.891   0.028
12593W        W84853  33.838  31.693  14.918
12594W        W84854  24.102  42.964   4.506
12595W        W84855   8.636  24.675  10.809
12596W        W84856  35.953   5.745  11.928
12597W        W84857  28.434   0.557  12.098
12598W        W84858   0.415  17.447   4.307
12599W        W84859  20.142  40.801   3.170
12600W        W84860   4.219  29.920  12.020
12601W        W84861  15.184   8.680  14.817
12602W        W84862  44.923  13.574  14.827
12603W        W84863   7.854  30.611   9.940
12604W        W84864  15.634  34.626   3.132
12605W        W84865  13.108   1.522  11.088
12606W        W84866   2.370  12.499  12.162
12607W        W84867  10.360  38.358  10.964
12608W        W84868   7.850  16.591   4.360
12609W        W84869  37.434  27.523   4.943
12610W        W84870   4.188   6.867   0.675
12611W        W84871  23.072  26.676  10.427
12612W        W84872  27.096  38.350  14.447
12613W        W84873  16.098  39.131  11.143
12614W        W84874  14.854  19.172   2.844
12615W        W84875  23.491  27.562   2.554
12616W        W84876   2.618  30.889   2.610
12617W        W84877  38.131  15.799   4.243
12618W        W84878  24.632  42.397  13.721
12619W        W84879  42.210   9.865   2.964
12620W        W84880  25.508   5.282  12.660
12621W        W84881  11.152  33.496   2.063
12622W        W84882   7.336  40.277   0.946
12623W        W84883  24.611   4.799  10.740
12624W        W84884  13.589   4.905  13.984
12625W        W84885  28.947   5.953   4.229
12626W        W84886  30.385  34.660  14.556
12627W        W84887  22.880  44.936   4.930
12628W        W84888   2.707   7.995   2.141
12629W        W84889   0.838   8.375  10.990
12630W        W84890   7.985  28.189   2.327
12631W        W84891  34.098  11.970   4.988
12632W        W84892   6.284   7.001  12.060
12633W        W84893  35.317   3.317   1.540
12634W        W84894  36.330   4.782   1.864
12635W        W84895   7.958  22.693  12.486
12636W        W84896  19.489  15.870  12.996
12637W        W84897  27.489  25.499   1.136
12638W        W84898  13.601  20.491  12.076
12639W        W84899  14.724  26.072  13.373
12640W        W84900   9.936  34.937   4.793
12641W        W84901  15.578   6.855  11.544
12642W        W84902   8.795  24.999  11.201
12643W        W84903  25.468   9.410  14.002
12644W        W84904  12.588  31.679  12.889
12645W        W84905   3.237  18.059  10.740
12646W        W84906  37.290   9.780  14.597
12647W        W84907  24.074  27.626  10.303
12648W        W84908  11.271  39.627   0.719
12649W        W84909  15.732   4.182  10.395
12650W        W84910  32.655  29.201  11.690
12651W        W84911   2.205   9.635   0.952
12652W        W84912  44.893  25.628  12.323
12653W        W84913  22.801   3.930   0.455
12654W        W84914  22.255  34.383  13.078
12655W        W84915  19.902   5.339  13.615
12656W        W84916  17.211  35.063   3.792
12657W        W84917   7.766   1.038   4.523
12658W        W84918  14.351   0.066  11.254
12659W        W84919  32.182  41.809   4.237
12660W        W84920  20.207  36.527  10.807
12661W        W84921  24.492   5.799  11.651
12662W        W84922   2.220   4.853  12.440
12663W        W84923  22.472  37.472   2.863
12664W        W84924   5.905   1.338   4.652
12665W        W84925  35.078  43.327   0.729
12666W        W84926  20.734   0.806  11.862
12667W        W84927  31.789   1.151  13.825
12668W        W84928  13.676  21.658   3.302
12669W        W84929  40.835  13.170  11.854
12670W        W84930  11.066  41.024  11.141
12671W        W84931  24.914  18.672   4.532
12672W        W84932  10.152  34.983   2.675
12673W        W84933  19.667  43.264  12.680
12674W        W84934  22.764  39.023   2.365
12675W        W84935  23.703  36.104  14.027
12676W        W84936  14.839  30.163  12.925
12677W        W84937   8.792   7.494   5.369
12678W        W84938   1.845  10.675  11.125
12679W        W84939  19.346  15.637  13.451
12680W        W84940  15.214  27.081   4.880
12681W        W84941  20.747   4.799   2.367
12682W        W84942  31.862  13.254  10.884
12683W        W84943  28.169  22.953  14.083
12684W        W84944  40.900   3.564   1.323
12685W        W84945  43.472  22.956   2.268
12686W        W84946  27.679  35.869   1.278
12687W        W84947   6.283  15.257   1.888
12688W        W84948  33.503   6.154  10.284
12689W        W84949  29.649  25.410   1.897
12690W        W84950  14.293  16.124   2.117
12691W        W84951  21.282   5.773   1.233
12692W        W84952  37.308  17.573   1.098
12693W        W84953  44.007  34.085  10.502
12694W        W84954  42.456  26.270   4.139
12695W        W84955   4.271  41.653  10.742
12696W        W84956  12.980  31.424  10.084
12697W        W84957  26.958   7.864   0.751
12698W        W84958  23.370  43.301   0.464
12699W        W84959  28.401  36.967   4.132
12700W        W84960   5.395   5.422  13.363
12701W        W84961  34.450  27.958   0.881
12702W        W84962  13.422   4.263  11.064
12703W        W84963   8.647  28.404  11.055
12704W        W84964  44.298  35.999  12.307
12705W        W84965  18.475  40.327   1.296
12706W        W84966  41.385  42.798  13.922
12707W        W84967  36.912   3.243   3.342
12708W        W84968  43.463   7.736   2.820
12709W        W84969  12.273  30.100  13.530
12710W        W84970  27.275  44.112  13.445
12711W        W84971   8.415  25.664  11.591
12712W        W84972  13.213  28.444   1.374
12713W        W84973  36.510   4.934   3.832
12714W        W84974  37.490  15.715   0.447
12715W        W84975  12.394  36.032   3.615
12716W        W84976  24.331   4.077   2.241
12717W        W84977   0.897  12.350   0.767
12718W        W84978  10.208  16.111  10.511
12719W        W84979  42.706  42.440   1.665
12720W        W84980  19.756   2.115  12.405
12721W        W84981  40.317  25.127  10.563
12722W        W84982   3.802   3.513  10.595
12723W        W84983   5.753  25.705  10.770
12724W        W84984  17.039  10.313  12.398
12725W        W84985   9.878  15.579   0.301
12726W        W84986  32.898  14.422   0.916
12727W        W84987  33.935  25.192  14.041
12728W        W84988  15.991   0.478  11.530
12729W        W84989  24.834  26.600   5.054
12730W        W84990  30.650  39.884   0.265
12731W        W84991  23.605  30.022  11.457
12732W        W84992  32.950  15.165   4.267
12733W        W84993   3.769  37.570  13.311
12734W        W84994   1.882  23.342   4.526
12735W        W84995  44.528   9.622   1.134
12736W        W84996  38.322  10.358   5.026
12737W        W84997  31.073  37.332  12.644
12738W        W84998  19.765   5.005   4.437
12739W        W84999  41.601  15.693   0.340
12740W        W85000   1.356  31.887  13.833
12741W        W85001  11.313  17.002  12.119
12742W        W85002  31.624  37.793  11.988
12743W        W85003  39.354  33.822  14.515
12744W        W85004  31.081  30.120   0.464
12745W        W85005   1.694  43.777  11.992
12746W        W85006  29.051  33.466  14.295
12747W        W85007   9.392   9.606   1.373
12748W        W85008  35.947  41.700   3.756
12749W        W85009  13.381  28.553  14.491
12750W        W85010  22.547  20.014   0.308
12751W        W85011   1.401  21.243  10.668
12752W        W85012   0.898  10.135   2.343
12753W        W85013  21.710   5.288  11.903
12754W        W85014  14.842  44.981  11.342
12755W        W85015  11.308  28.197   4.600
12756W        W85016  42.355  39.388   0.372
12757W        W85017  38.271  44.481   1.009
12758W        W85018  36.370  16.784  12.061
12759W        W85019  20.563  41.908  10.797
12760W        W85020  27.357  19.208   3.126
12761W        W85021  34.210  22.193  13.353
12762W        W85022  29.909  35.547  11.881
12763W        W85023  41.865  23.570   1.597
12764W        W85024   3.070  23.958  11.046
12765W        W85025  36.097  11.075  10.637
12766W        W85026   2.982  31.582   0.893
12767W        W85027   1.367  39.871  13.977
12768W        W85028  13.033   6.192   2.735
12769W        W85029  16.246   5.704   0.797
12770W        W85030  27.008  25.863  14.936
12771W        W85031  16.549  23.204   2.822
12772W        W85032  24.369  31.697  12.407
12773W        W85033  26.832  44.428  13.094
12774W        W85034  27.410   3.433   3.249
12775W        W85035  10.311  24.078   1.701
12776W        W85036  35.840  44.812  11.211
12777W        W85037  34.715   2.926   3.148
12778W        W85038  16.419   2.288   2.362
12779W        W85039   3.671  10.194   4.620
12780W        W85040   4.014  35.048   4.117
12781W        W85041  19.716  26.755  14.723
12782W        W85042   2.352  21.633   2.909
12783W        W85043   2.391  21.288  14.302
12784W        W85044  26.841  44.406   4.595
12785W        W85045  37.004  14.315  14.944
12786W        W85046  37.146  39.403  13.307
12787W        W85047  36.952  12.944   3.833
12788W        W85048  37.095  18.583  11.624
12789W        W85049   9.321  21.115   1.875
12790W        W85050  31.380  25.194  12.531
12791W        W85051  28.045  26.920  12.729
12792W        W85052  39.884  32.962   3.384
12793W        W85053  44.960  24.305   1.615
12794W        W85054  29.878  25.941   2.801
12795W        W85055  37.016   6.202   3.537
12796W        W85056  22.960  23.990   2.807
12797W        W85057  11.271   1.977   4.381
12798W        W85058  15.299  41.270  11.987
12799W        W85059  30.231  22.090   1.773
12800W        W85060  28.592  33.606   3.802
12801W        W85061  12.685  15.144   5.084
12802W        W85062   5.481  22.486   4.457
12803W        W85063  37.220  24.869  11.597
12804W        W85064  19.798  26.000   4.726
12805W        W85065  32.452   4.671   3.182
12806W        W85066  31.194  23.319   0.801
12807W        W85067   8.867  14.983  11.202
12808W        W85068  27.034   2.142   1.851
12809W        W85069   1.050   3.207  14.845
12810W        W85070  15.409  36.496   0.876
12811W        W85071  28.890  21.152  10.882
12812W        W85072  28.836  16.092  12.092
12813W        W85073   5.263  40.123   2.759
12814W        W85074  42.870  21.573  14.836
12815W        W85075   5.834  27.639  12.050
12816W        W85076  18.547  24.582  14.031
12817W        W85077  28.654  22.469   1.187
12818W        W85078   7.441  13.427   3.110
12819W        W85079  42.041  22.939   3.265
12820W        W85080  26.149  11.198   2.431
12821W        W85081  35.837   3.237  12.987
12822W        W85082  26.158  19.165   4.419
12823W        W85083  19.986  12.197   1.387
12824W        W85084  24.179  18.554  11.659
12825W        W85085   6.473  12.202  11.625
12826W        W85086  38.083  44.185   3.615
12827W        W85087  24.001   9.488   0.714
12828W        W85088   4.826  30.910  10.927
12829W        W85089  19.511  18.557  12.988
12830W        W85090  23.672   0.299  12.535
12831W        W85091  36.195  33.628   3.319
12832W        W85092   4.726  35.140  10.667
12833W        W85093   0.544  13.648   2.815
12834W        W85094  42.304   5.144   0.744
12835W        W85095  19.568  36.783  12.419
12836W        W85096   0.781  19.235  11.555
12837W        W85097  20.980  37.391   0.381
12838W        W85098  38.192   9.840   9.778
12839W        W85099  41.553  37.567  12.624
12840W        W85100  27.014   0.216  14.741
12841W        W85101  40.333  10.124   2.855
12842W        W85102  31.502  10.185   1.695
12843W        W85103  15.930  25.032  10.783
12844W        W85104   4.404  28.931   1.279
12845W        W85105  34.497  34.862  10.463
12846W        W85106  29.188  23.080  13.615
12847W        W85107  12.405  36.944   2.836
12848W        W85108  18.714  40.892   4.851
12849W        W85109   1.699   2.214   0.676
12850W        W85110  42.728  29.449  10.568
12851W        W85111   3.933  15.702  11.188
12852W        W85112  34.124  25.946  13.566
12853W        W85113  35.807   7.217  10.611
12854W        W85114   3.631  35.648   3.272
12855W        W85115   4.931  44.996   2.357
12856W        W85116  37.077  42.438   1.297
12857W        W85117  27.739   3.809  10.894
12858W        W85118  36.691  12.174  13.594
12859W        W85119  31.484  35.052   4.868
12860W        W85120  30.040   2.457  12.516
12861W        W85121   6.737  29.221   4.170
12862W        W85122  40.534  16.573   3.812
12863W        W85123  42.364   1.191   0.823
12864W        W85124  33.427   5.422  13.834
12865W        W85125  15.295  14.633  13.758
12866W        W85126  35.091  14.326   4.972
12867W        W85127  37.867  12.526   0.543
12868W        W85128  21.110   5.290  14.866
12869W        W85129  30.782  39.606   1.591
12870W        W85130  13.167   5.322   2.148
12871W        W85131  24.433   7.509  10.673
12872W        W85132  43.466   6.435  12.193
12873W        W85133  41.547  16.445  14.222
12874W        W85134  41.614  28.057   0.817
12875W        W85135  17.172  42.786   5.032
12876W        W85136  34.012  28.571   3.619
12877W        W85137   6.888  14.727  14.275
12878W        W85138  14.108   4.751  11.934
12879W        W85139   0.198  20.474  14.901
12880W        W85140  12.640  40.361   2.903
12881W        W85141   5.310  30.495  14.876
12882W        W85142  34.398  38.385  14.947
12883W        W85143  15.003   9.047   0.413
12884W        W85144  10.704  40.332  11.249
12885W        W85145  40.943  28.589   0.195
12886W        W85146  25.038   3.350   0.493
12887W        W85147   2.451   7.266  12.632
12888W        W85148  32.188  17.127   1.038
12889W        W85149  33.483  27.567   2.225
12890W        W85150  29.000  31.175   3.787
12891W        W85151  19.826   3.902  12.203
12892W        W85152  38.821  33.052   1.926
12893W        W85153  26.231  10.364   3.332
12894W        W85154  22.345  38.858   3.295
12895W        W85155  18.191  36.241  10.620
12896W        W85156  24.516  33.556   1.184
12897W        W85157  31.190   1.749   0.361
12898W        W85158  16.714   0.451  14.580
12899W        W85159  41.177  42.860  13.419
12900W        W85160  13.426  35.558  11.924
12901W        W85161  21.736  16.995  11.248
12902W        W85162  35.507  10.868  13.873
12903W        W85163  12.586  44.058  11.118
12904W        W85164  23.185  42.526   1.395
12905W        W85165   9.340  43.037  12.685
12906W        W85166  21.810  32.033  10.564
12907W        W85167   8.857   8.118  13.421
12908W        W85168  16.870  29.340  11.071
12909W        W85169  16.548  34.271  14.904
12910W        W85170   0.841  39.112   3.571
12911W        W85171  20.879  24.187  12.077
12912W        W85172  10.099  36.677  11.613
12913W        W85173   7.917  34.431   0.711
12914W        W85174  11.232  19.149   0.470
12915W        W85175   8.915  35.467  11.159
12916W        W85176  44.269  19.542  13.006
12917W        W85177  35.661  25.580  14.362
12918W        W85178  35.498  39.518  11.134
12919W        W85179   5.351  38.794   0.293
12920W        W85180  29.092   2.767  10.964
12921W        W85181   8.897  44.137   2.747
12922W        W85182   7.873  40.024  14.976
12923W        W85183   0.427  41.851  12.683
12924W        W85184   3.496  25.256  13.557
12925W        W85185  23.872  42.759   3.577
12926W        W85186  12.032  37.673  12.430
12927W        W85187  14.364  31.978  13.552
12928W        W85188  24.162  40.815   4.268
12929W        W85189  43.887   5.448  11.598
12930W        W85190  41.790  27.085   2.367
12931W        W85191  40.911   0.476   1.140
12932W        W85192  17.322  15.818  11.106
12933W        W85193  43.141  26.673  10.533
12934W        W85194  15.855  43.731  14.953
12935W        W85195  26.489  21.733  14.324
12936W        W85196   5.156  10.163   2.320
12937W        W85197  25.465   0.457   1.342
12938W        W85198  39.996  13.493   4.695
12939W        W85199   4.847  33.083  10.752
12940W        W85200   9.212   9.177  12.471
12941W        W85201  16.339   2.405   4.578
12942W        W85202  18.103  34.415  14.503
12943W        W85203   3.522   6.897  11.758
12944W        W85204  33.221  34.517  10.579
12945W        W85205  37.350   5.811   4.163
12946W        W85206  24.071   5.829   0.248
12947W        W85207  40.295  44.905  13.867
12948W        W85208   5.702  27.008  10.685
12949W        W85209   9.664  10.099  12.479
12950W        W85210  43.806   4.201   3.660
12951W        W85211  15.030  22.764  10.934
12952W        W85212  29.411   6.635   0.889
12953W        W85213   1.487  31.487   3.489
12954W        W85214  40.102  25.207  14.364
12955W        W85215  23.008   8.736   0.686
12956W        W85216  28.534  28.944   2.380
12957W        W85217  42.206  21.318   4.494
12958W        W85218   3.528   6.380  12.999
12959W        W85219  40.485  38.633   4.576
12960W        W85220   7.248  33.476   2.825
12961W        W85221  37.274   5.036  13.372
12962W        W85222  41.471  19.783  14.349
12963W        W85223   4.444  41.887  14.576
12964W        W85224  39.817  30.583   4.366
12965W        W85225  40.975   7.120  12.439
12966W        W85226  20.546   9.026   4.921
12967W        W85227  30.486   7.273   3.582
12968W        W85228  14.983  43.881  14.761
12969W        W85229  13.851  19.200  13.032
12970W        W85230   1.297  22.489   3.600
12971W        W85231   3.977   9.133  11.285
12972W        W85232  18.424  14.616  12.291
12973W        W85233  29.032  32.006  12.007
12974W        W85234  23.007  27.139   4.710
12975W        W85235  33.816  11.924   2.686
12976W        W85236  27.956  36.772  11.096
12977W        W85237  28.352  39.648  13.620
12978W        W85238  28.149  26.218   3.787
12979W        W85239  16.193  13.572  14.346
12980W        W85240  37.471  19.786   2.615
12981W        W85241  17.194  33.520   3.748
12982W        W85242  24.387  41.929   1.668
12983W        W85243  23.446  33.109  14.455
12984W        W85244  40.489   2.302   3.119
12985W        W85245   5.168  25.710   2.694
12986W        W85246   5.315  14.520  12.000
12987W        W85247   5.028  17.364   0.016
12988W        W85248  29.501  19.430  12.055
12989W        W85249  25.769  37.252  11.390
12990W        W85250  19.832  14.851   1.926
12991W        W85251  16.837   0.897  14.878
12992W        W85252  16.963  21.526   1.253
12993W        W85253   8.124  13.240  12.592
12994W        W85254   2.086  27.293  12.975
12995W        W85255  10.759   0.959   2.298
12996W        W85256   5.367  21.651   0.516
12997W        W85257  35.653  37.422   1.704
12998W        W85258  10.623   7.867   2.135
12999W        W85259  24.366  21.643   1.983
13000W        W85260  11.086  11.441  10.371
13001W        W85261  18.154  40.396  10.605
13002W        W85262  32.666  41.348   1.281
13003W        W85263  27.308   7.483   0.921
13004W        W85264  30.521  23.693  13.152
13005W        W85265  19.245  33.677  10.712
13006W        W85266  23.204  25.306  13.652
13007W        W85267  38.373   3.919   2.182
13008W        W85268   4.343  20.806  14.826
13009W        W85269  16.641  11.722  13.784
13010W        W85270  32.088   6.167  14.441
13011W        W85271   7.935  22.030   3.270
13012W        W85272  36.899  12.576  10.955
13013W        W85273  18.557   6.797  10.613
13014W        W85274  37.512  42.409  13.812
13015W        W85275   3.157  25.988  12.444
13016W        W85276  32.437  33.992   2.384
13017W        W85277   9.890  18.032  14.912
13018W        W85278  15.292  35.333  11.149
13019W        W85279  38.443  22.427   3.244
13020W        W85280  39.143   1.289  12.649
13021W        W85281   3.399  43.350  10.565
13022W        W85282   1.892   8.615  13.988
13023W        W85283  43.506   9.235  13.154
13024W        W85284  39.676  34.600  13.517
13025W        W85285   3.976  14.216  14.818
13026W        W85286   2.178  30.356   1.840
13027W        W85287  33.686  41.902  12.540
13028W        W85288  43.769  44.560   4.699
13029W        W85289  37.084  40.891  14.701
13030W        W85290   1.425  32.641  13.407
13031W        W85291  27.852  21.381   5.000
13032W        W85292  29.538  30.974   4.771
13033W        W85293  15.550  26.729  10.648
13034W        W85294   7.929  41.991   1.750
13035W        W85295   5.342  41.999   1.265
13036W        W85296  11.677  33.589  12.621
13037W        W85297  26.120   8.298  11.574
13038W        W85298  31.147  29.135  13.509
13039W        W85299  41.460   9.425   5.287
13040W        W85300  27.995  15.592   4.227
13041W        W85301  37.958  43.343   1.198
13042W        W85302  27.374   1.130  14.871
13043W        W85303  19.498  36.290   0.851
13044W        W85304   5.153  29.441  12.672
13045W        W85305  14.544  12.162  11.469
13046W        W85306  11.040   4.428   2.453
13047W        W85307   4.845   3.869  12.639
13048W        W85308  38.313  11.500  12.921
13049W        W85309  22.170  16.942   3.977
13050W        W85310   6.812  11.092   4.709
13051W        W85311  44.755  30.690  11.548
13052W        W85312  14.620  40.762  12.466
13053W        W85313  36.419  38.808   2.798
13054W        W85314  39.655  17.168   4.917
13055W        W85315  44.580  18.476  12.574
13056W        W85316   7.851  17.031   4.676
13057W        W85317  26.918   0.762  10.354
13058W        W85318  39.602   4.739  12.753
13059W        W85319  15.247  32.840  11.664
13060W        W85320  18.122  13.158   4.319
13061W        W85321  20.511  15.395  12.452
13062W        W85322  41.505   6.454  13.957
13063W        W85323  31.855  28.589  13.286
13064W        W85324  40.034  29.172   3.328
13065W        W85325  33.518  42.640  13.766
13066W        W85326   1.665  32.139  10.357
13067W        W85327  25.931  24.351  12.047
13068W        W85328  14.644   4.513  11.881
13069W        W85329  30.616  11.584  12.651
13070W        W85330  27.207  22.332  14.443
13071W        W85331  16.509  40.715  14.420
13072W        W85332   5.523  34.486   3.602
13073W        W85333  25.686  41.599   4.619
13074W        W85334   1.219  17.217   0.305
13075W        W85335   9.430  37.964  11.051
13076W        W85336  33.969  17.029   0.889
13077W        W85337   8.778   6.114   1.821
13078W        W85338  12.666  18.482   4.667
13079W        W85339   8.928  42.638  12.839
13080W        W85340   2.885   9.603   4.284
13081W        W85341   1.316  42.748  14.488
13082W        W85342  33.578  28.161  14.459
13083W        W85343  16.257  31.979  11.711
13084W        W85344   4.745  44.322   3.567
13085W        W85345  16.882  39.445   1.844
13086W        W85346  32.453  30.494  13.791
13087W        W85347  39.231  21.149   5.015
13088W        W85348  29.452  42.574  14.034
13089W        W85349  35.500   2.529   0.911
13090W        W85350  17.064   2.414   3.915
13091W        W85351   8.303   6.819  11.206
13092W        W85352  11.160   4.836  10.976
13093W        W85353   7.886   5.021  13.986
13094W        W85354  10.348  25.143   4.421
13095W        W85355  20.203  23.254  12.794
13096W        W85356   8.703   4.465   0.813
13097W        W85357  13.653  42.812   4.572
13098W        W85358  26.028   9.603   4.431
13099W        W85359  10.688   7.744  13.486
13100W        W85360  44.242   7.485  11.055
13101W        W85361  37.673  31.199  10.908
13102W        W85362  39.104  42.846  14.978
13103W        W85363  34.142   9.914   1.245
13104W        W85364  38.916  34.849  10.324
13105W        W85365  39.446  17.051   2.477
13106W        W85366   7.965  25.914   3.563
13107W        W85367  22.838  12.710   4.122
13108W        W85368   4.994  23.148  13.509
13109W        W85369   7.416  19.874  12.559
13110W        W85370  34.212  44.748   3.227
13111W        W85371  44.907  36.887  11.396
13112W        W85372  26.866  23.218  14.927
13113W        W85373   1.631  44.173   3.643
13114W        W85374  13.738  33.828  14.986
13115W        W85375  15.129   2.793   1.404
13116W        W85376  32.894  13.131  14.495
13117W        W85377  30.044   2.844  10.939
13118W        W85378  40.253  15.402  12.333
13119W        W85379  40.211  35.893  13.249
13120W        W85380   3.222  22.313  14.829
13121W        W85381  19.326  24.007   4.163
13122W        W85382  11.447  37.007   3.606
13123W        W85383  34.456  43.443  11.442
13124W        W85384  34.941  34.423   4.708
13125W        W85385  37.507  44.463   2.712
13126W        W85386   1.691  43.965   3.116
13127W        W85387  31.877  25.564  12.084
13128W        W85388  12.682  36.882  11.987
13129W        W85389  27.888  41.552  12.518
13130W        W85390  35.810  33.053   4.631
13131W        W85391  15.398  28.308   3.258
13132W        W85392  22.942   2.837   1.243
13133W        W85393  24.462  26.710  12.890
13134W        W85394   6.405  29.179  12.454
13135W        W85395   6.023  21.231   5.082
13136W        W85396   4.474  10.492  14.412
13137W        W85397  35.877  11.898   2.586
13138W        W85398  34.443  14.363   3.197
13139W        W85399   8.769  37.686  12.895
13140W        W85400  21.088  24.260   4.623
13141W        W85401  19.061  15.870  11.675
13142W        W85402  19.528   1.351   0.403
13143W        W85403  16.630  11.198  11.251
13144W        W85404  11.614  26.662   0.968
13145W        W85405  37.986   4.148   1.906
13146W        W85406   5.639   8.817  11.752
13147W        W85407  23.290  16.488  11.005
13148W        W85408  34.843  19.404  12.435
13149W        W85409  22.972  40.973  14.838
13150W        W85410  10.578   6.362   2.734
13151W        W85411   0.927  27.088   2.159
13152W        W85412  30.430  30.059   4.703
13153W        W85413  41.509   4.274   2.586
13154W        W85414  43.819  11.414  10.932
13155W        W85415  29.192  35.039   2.897
13156W        W85416  39.499  39.773  11.798
13157W        W85417   9.893  30.308   2.840
13158W        W85418  41.838  32.481  11.999
13159W        W85419  18.981  13.024   4.871
13160W        W85420  37.026  14.653  12.323
13161W        W85421  43.418  10.720  14.904
13162W        W85422   5.837  24.035   4.225
13163W        W85423  36.624  42.419   1.558
13164W        W85424  18.193  18.692  11.971
13165W        W85425  34.607  30.527  14.118
13166W        W85426  24.493  38.211  11.485
13167W        W85427  44.301  16.570   0.582
13168W        W85428  28.613  21.593  12.123
13169W        W85429  17.992   2.708  14.425
13170W        W85430  40.203  38.417  14.319
13171W        W85431  36.913   1.763   1.320
13172W        W85432  25.441  25.819   3.702
13173W        W85433  21.927  44.396   2.257
13174W        W85434   9.785  25.791   1.898
13175W        W85435   2.578  34.411  14.985
13176W        W85436  16.322  31.051  11.536
13177W        W85437  39.329   4.175  12.982
13178W        W85438  40.984  12.966   3.641
13179W        W85439  35.701  30.427  14.923
13180W        W85440  41.832  30.826  14.994
13181W        W85441  38.998   3.877   0.294
13182W        W85442  11.170  28.958   3.682
13183W        W85443   1.968  31.473   2.789
13184W        W85444  32.263  28.889   2.224
13185W        W85445  29.064  40.738   3.762
13186W        W85446  42.913  38.658   1.596
13187W        W85447   0.511  38.382  13.964
13188W        W85448  17.767  29.445  10.790
13189W        W85449  35.386  26.245   1.776
13190W        W85450  37.387  41.137  13.373
13191W        W85451   9.700  21.134   4.639
13192W        W85452   5.760  18.638   4.102
13193W        W85453  15.463  31.439   4.865
13194W        W85454  30.669  44.524  10.875
13195W        W85455   5.751   7.138   3.299
13196W        W85456  24.851  15.871   4.317
13197W        W85457  39.235   9.310   0.012
13198W        W85458   8.199  32.925   0.739
13199W        W85459   3.287   5.861   3.326
13200W        W85460  18.982  40.483   3.465
13201W        W85461  16.294  31.424   4.508
13202W        W85462  30.871   9.819   3.784
13203W        W85463   7.168  28.502   4.668
13204W        W85464   7.813  32.518   4.551
13205W        W85465  33.577  32.774  11.166
13206W        W85466  15.360  15.246   2.369
13207W        W85467  34.129  39.808  10.715
13208W        W85468  14.656  40.227   0.916
13209W        W85469  39.522   8.878   0.493
13210W        W85470   2.208  19.722  12.488
13211W        W85471  14.340  32.602   0.481
13212W        W85472  34.341  14.210  12.923
13213W        W85473  20.572  20.572   0.869
13214W        W85474  31.096  13.577  11.111
13215W        W85475  19.706  35.989   1.677
13216W        W85476  39.503   9.332   3.740
13217W        W85477  12.852  38.905  13.170
13218W        W85478  36.555  43.292   4.372
13219W        W85479   0.565  31.341   2.382
13220W        W85480  23.774  29.913   2.593
13221W        W85481  18.308  18.365   1.016
13222W        W85482  17.757   7.100   3.072
13223W        W85483   4.289  17.221   0.649
13224W        W85484  19.642  11.773  14.586
13225W        W85485   0.786  32.836   2.734
13226W        W85486   9.943  41.774   1.300
13227W        W85487  27.096  26.098   3.705
13228W        W85488  23.302  28.495  14.512
13229W        W85489   9.639  41.367   1.398
13230W        W85490  17.663  13.326   4.579
13231W        W85491  14.660  39.567  13.840
13232W        W85492  34.962   3.904   3.694
13233W        W85493   7.756  44.145   2.221
13234W        W85494  39.473   9.593   5.578
13235W        W85495  14.159  40.891  14.011
13236W        W85496  33.928  44.869   0.924
13237W        W85497  43.054  33.819   3.633
13238W        W85498   4.716  44.486  12.478
13239W        W85499  36.127   2.133   1.994
13240W        W85500  10.863   9.809  11.331
13241W        W85501   2.530  33.827  14.362
13242W        W85502  12.618   1.752   2.641
13243W        W85503  40.005  41.306   1.243
13244W        W85504  43.337  36.186   5.189
13245W        W85505  27.986   3.368  11.071
13246W        W85506  33.896  10.624   4.353
13247W        W85507  39.389  24.676  14.781
13248W        W85508  20.101  13.609   1.936
13249W        W85509  36.645  38.955  12.128
13250W        W85510  42.090   3.710  14.779
13251W        W85511  44.778   9.217   1.348
13252W        W85512  24.432   2.910  14.833
13253W        W85513  21.160  34.948   2.799
13254W        W85514   7.771  37.947  14.737
13255W        W85515  14.906   3.616  10.645
13256W        W85516  30.386  40.773  11.970
13257W        W85517   6.862  39.522  13.119
13258W        W85518  13.179  14.350   4.648
13259W        W85519  36.548  22.260   2.963
13260W        W85520   6.842  29.213   0.335
13261W        W85521  20.130  10.226   1.471
13262W        W85522  21.082  37.896   0.730
13263W        W85523  33.883   5.192   3.075
13264W        W85524  16.223  22.325  14.556
13265W        W85525  42.416  10.213   4.626
13266W        W85526   2.473  31.615   2.230
13267W        W85527  25.537  34.691  12.887
13268W        W85528  37.446  31.038  13.845
13269W        W85529   3.008  38.942  14.177
13270W        W85530  33.532  41.518   4.919
13271W        W85531  11.454  19.644  12.936
13272W        W85532   2.454  34.071  12.985
13273W        W85533  35.499   4.495  11.759
13274W        W85534  21.214  42.271   1.837
13275W        W85535  23.491  16.791  10.579
13276W        W85536  38.372  30.912   2.637
13277W        W85537  17.339  24.559   2.168
13278W        W85538   5.287   2.077  13.528
13279W        W85539   8.909  13.792  13.822
13280W        W85540  15.091  23.455  14.300
13281W        W85541   3.654  40.422   1.443
13282W        W85542  12.064  18.523  12.029
13283W        W85543  31.330  41.806  13.970
13284W        W85544  24.931  26.057   0.348
13285W        W85545  12.682  31.639  13.778
13286W        W85546   1.202  24.159   2.860
13287W        W85547   3.669  34.378   0.898
13288W        W85548  27.609  30.511   0.319
13289W        W85549  39.002   3.751  13.058
13290W        W85550  32.090  27.450   4.858
13291W        W85551  10.339  26.422  12.279
13292W        W85552  22.989  44.283   3.146
13293W        W85553   2.830  44.317   3.103
13294W        W85554  36.544   5.438   3.897
13295W        W85555   0.623   8.132   4.990
13296W        W85556  26.002   3.145   4.202
13297W        W85557  16.642   6.226   0.408
13298W        W85558   5.637  12.080   3.701
13299W        W85559   5.810  22.507  10.988
13300W        W85560  19.125  17.456   0.124
13301W        W85561  17.482   6.478   0.704
13302W        W85562  42.461   5.247  10.357
13303W        W85563  35.866  43.236  12.111
13304W        W85564  22.582   8.051  10.673
13305W        W85565   1.472  18.539   3.245
13306W        W85566  36.971  28.456   4.886
13307W        W85567   8.296  20.969  13.978
13308W        W85568  11.691  29.992  11.102
13309W        W85569  11.193  10.598   0.325
13310W        W85570  20.653  23.359   2.380
13311W        W85571   6.471  16.618  10.639
13312W        W85572  15.070  44.206   2.679
13313W        W85573   2.540  34.069   2.335
13314W        W85574  23.017  42.784   1.821
13315W        W85575  22.520  37.289   2.383
13316W        W85576  33.390   1.581   4.260
13317W        W85577  11.408  36.863   0.880
13318W        W85578  18.035   0.982  13.827
13319W        W85579  40.631  32.447  10.508
13320W        W85580  36.633  20.560   1.712
13321W        W85581  43.272  33.060   1.884
13322W        W85582  10.435  27.578  14.871
13323W        W85583  33.855  11.419  12.488
13324W        W85584  32.152  22.060  13.574
13325W        W85585   0.477  26.529  11.913
13326W        W85586   7.157  32.919   4.554
13327W        W85587  14.745  11.698  14.569
13328W        W85588   4.534  10.884  10.759
13329W        W85589  32.114  17.368  12.850
13330W        W85590  31.169   2.448  11.473
13331W        W85591   6.347  28.896   4.237
13332W        W85592  41.996  44.708  12.992
13333W        W85593  42.275  42.342   2.638
13334W        W85594  27.811  35.367  12.008
13335W        W85595  32.227   2.442  11.709
13336W        W85596  20.354   6.372   0.785
13337W        W85597  40.405  12.392   4.105
13338W        W85598  35.323  37.134  13.838
13339W        W85599   2.949   7.159   2.303
13340W        W85600   3.886   6.475   1.337
13341W        W85601  28.414  11.128   0.346
13342W        W85602  32.527  18.045   1.748
13343W        W85603  20.785  27.719   3.154
13344W        W85604  35.838  32.541  14.187
13345W        W85605  20.121  25.264  11.775
13346W        W85606  32.059   3.355  10.642
13347W        W85607   0.850   8.656   2.014
13348W        W85608  11.100  28.228   2.796
13349W        W85609   8.708  30.425   2.263
13350W        W85610  42.980  10.250   3.190
13351W        W85611  34.867   9.819   3.886
13352W        W85612  14.242  42.947   3.494
13353W        W85613  39.324  41.595  12.497
13354W        W85614  26.222  38.829   4.142
13355W        W85615  32.638   9.054  12.501
13356W        W85616  25.450  12.359  11.661
13357W        W85617  34.797  20.586   3.805
13358W        W85618  21.766  34.013   0.174
13359W        W85619  43.979  37.318  13.423
13360W        W85620  29.320  33.244  11.923
13361W        W85621   1.997  32.129  11.918
13362W        W85622  32.627  40.412   2.775
13363W        W85623  30.538  31.745  12.048
13364W        W85624  23.582   8.167   4.280
13365W        W85625   9.178  34.454   4.560
13366W        W85626  41.393  11.152  12.078
13367W        W85627  10.598   4.691   2.378
13368W        W85628  36.406  22.151  10.526
13369W        W85629  18.273  27.106   2.582
13370W        W85630  14.688  19.220  11.557
13371W        W85631  36.450  43.490   2.864
13372W        W85632   7.652  31.490  11.153
13373W        W85633   4.517  38.206  13.355
13374W        W85634  25.171  20.096   2.878
13375W        W85635  10.306   6.810  14.698
13376W        W85636   4.774  44.734  14.819
13377W        W85637  13.090   9.600  13.940
13378W        W85638   8.499  13.684  14.260
13379W        W85639  15.826  16.233  12.852
13380W        W85640  23.075  29.037   3.534
13381W        W85641  32.891  12.797   1.711
13382W        W85642  29.975  10.469   3.265
13383W        W85643  37.011  26.425  14.516
13384W        W85644  21.498  41.761  14.119
13385W        W85645  14.037  25.158   1.233
13386W        W85646  32.140  30.986   4.018
13387W        W85647  27.940  24.800  14.172
13388W        W85648  34.037  20.729   5.114
13389W        W85649  42.296   8.931  11.947
13390W        W85650  31.637  16.525   0.262
13391W        W85651  42.560  40.323   1.442
13392W        W85652  28.615  40.908  12.401
13393W        W85653  26.098   6.719   2.894
13394W        W85654  37.947   4.787  10.707
13395W        W85655  28.880   9.820   1.236
13396W        W85656  40.939  32.061  14.310
13397W        W85657   6.949  26.540   0.801
13398W        W85658  35.037  26.266   2.999
13399W        W85659  21.612  43.722  14.865
13400W        W85660  12.762   8.655   4.686
13401W        W85661  14.176  14.664   9.772
13402W        W85662  13.006  21.650  13.613
13403W        W85663  33.068  12.826   0.795
13404W        W85664  36.185  39.750   3.640
13405W        W85665  23.574   4.548  12.363
13406W        W85666  10.326  43.027  13.266
13407W        W85667  36.638  27.023   3.673
13408W        W85668   0.703   9.364   5.052
13409W        W85669  27.752  39.959  11.999
13410W        W85670   4.819  27.828   5.135
13411W        W85671   5.812  23.762  11.298
13412W        W85672  19.282  43.500  12.060
13413W        W85673  13.441  27.343  12.124
13414W        W85674  26.124  19.975   2.353
13415W        W85675  34.654   1.755  14.455
13416W        W85676  33.848  18.253   1.391
13417W        W85677   8.394  37.480   2.257
13418W        W85678  19.499  12.652  12.118
13419W        W85679  20.773  21.251   1.033
13420W        W85680  22.286   0.101  14.984
13421W        W85681  43.169  11.715  14.925
13422W        W85682  39.971  28.592   2.602
13423W        W85683  33.568  10.937   4.066
13424W        W85684  21.093  21.800  14.821
13425W        W85685  13.327  25.664   3.117
13426W        W85686  43.311   2.221  12.081
13427W        W85687  20.534  42.299   2.112
13428W        W85688  34.655  43.362  10.455
13429W        W85689  14.872  31.529  13.008
13430W        W85690  38.772  35.815  12.048
13431W        W85691   1.519  20.341   3.431
13432W        W85692  35.758  36.885   0.952
13433W        W85693  25.022   0.963  12.775
13434W        W85694  30.392  35.776   0.816
13435W        W85695   4.927  20.596   0.996
13436W        W85696  15.402  20.489  14.810
13437W        W85697  31.002   6.499   2.725
13438W        W85698  16.484  14.092  13.494
13439W        W85699  36.345   3.498  12.945
13440W        W85700  38.232  11.217  10.709
13441W        W85701   4.468  37.428   0.036
13442W        W85702   2.297  43.105  10.306
13443W        W85703   7.137  35.742  12.047
13444W        W85704  20.951  44.470   3.641
13445W        W85705  31.345  16.203  14.984
13446W        W85706   9.539  19.749   1.766
13447W        W85707  32.336  44.839  12.845
13448W        W85708   8.655   1.957   4.999
13449W        W85709  41.111   6.643  11.639
13450W        W85710  21.282  28.728   4.101
13451W        W85711  25.660  27.001  10.707
13452W        W85712   7.952   8.813  10.615
13453W        W85713  37.872   0.751  13.031
13454W        W85714   8.356  11.736  14.095
13455W        W85715   4.356  17.256  14.651
13456W        W85716  29.386  11.727  14.907
13457W        W85717  35.416  36.177   0.264
13458W        W85718  25.317  23.781  14.017
13459W        W85719  21.597  18.153   4.715
13460W        W85720  42.933   7.202  10.974
13461W        W85721  13.299  25.540   4.220
13462W        W85722  39.056  23.069  14.545
13463W        W85723  40.458  19.289  10.341
13464W        W85724   3.989  28.117  12.241
13465W        W85725  27.465   3.697   1.738
13466W        W85726  39.059  26.957   4.465
13467W        W85727  15.831  40.572  12.933
13468W        W85728  27.040  20.056  12.220
13469W        W85729  13.450  37.592  11.153
13470W        W85730  21.258  37.471   1.949
13471W        W85731  31.723  26.678  14.793
13472W        W85732   6.498  37.030  11.060
13473W        W85733  21.623  12.810  13.445
13474W        W85734   3.373   6.217   2.084
13475W        W85735  15.117  13.459   4.565
13476W        W85736  22.325   1.725   4.172
13477W        W85737  23.158  25.218  11.091
13478W        W85738  32.221  25.002  12.908
13479W        W85739   5.799  15.903  12.274
13480W        W85740  15.534  44.895   1.408
13481W        W85741  10.396  11.591  11.208
13482W        W85742  32.077  25.218  14.789
13483W        W85743  30.125  38.820   0.461
13484W        W85744  18.309  36.942   4.487
13485W        W85745  28.187   7.366   0.901
13486W        W85746  42.937   6.118  13.007
13487W        W85747  40.339  16.610  13.071
13488W        W85748  11.811  18.567  11.226
13489W        W85749  39.460   2.935  11.165
13490W        W85750   5.122  33.612   4.001
13491W        W85751  11.768  14.900  11.137
13492W        W85752  38.200  31.306  14.272
13493W        W85753   6.384   4.945  12.432
13494W        W85754  34.157   1.798  13.499
13495W        W85755   8.244  11.605  15.000
13496W        W85756   7.510  16.285   2.491
13497W        W85757   6.404  14.793   4.517
13498W        W85758  38.423  10.745   1.019
13499W        W85759  32.946  21.237  10.925
13500W        W85760  27.713  21.179   3.335
13501W        W85761   2.973  39.025  11.014
13502W        W85762  33.762  35.321  10.624
13503W        W85763  39.021  14.640  13.039
13504W        W85764  32.477   4.105   4.449
13505W        W85765   2.242  34.496  12.106
13506W        W85766  23.006  34.693   0.185
13507W        W85767  15.736   3.191   0.299
13508W        W85768  20.292  21.531   0.225
13509W        W85769  16.329  11.644   0.676
13510W        W85770   5.812  21.533   0.778
13511W        W85771  22.660   8.166   1.128
13512W        W85772  32.020  34.129   1.222
13513W        W85773   9.209  41.339   1.757
13514W        W85774  18.663  10.321   2.785
13515W        W85775  13.444  38.957  12.505
13516W        W85776  21.522  31.917   4.570
13517W        W85777  27.708  14.315   0.318
13518W        W85778  42.695   5.783   4.095
13519W        W85779  36.786  31.806  12.527
13520W        W85780  17.589   8.793  11.246
13521W        W85781  27.816  32.327   0.328
13522W        W85782   8.725  30.746   4.738
13523W        W85783  39.065  11.920   1.091
13524W        W85784  37.840  22.471  12.168
13525W        W85785   6.421  27.616  12.705
13526W        W85786  37.999   3.082  12.887
13527W        W85787  33.681  37.779   1.340
13528W        W85788  16.309  34.689  11.406
13529W        W85789  18.711  35.091   2.211
13530W        W85790  13.365  34.669   3.214
13531W        W85791  43.887  43.913   2.863
13532W        W85792  17.666  10.679  10.602
13533W        W85793  23.278  33.090  12.039
13534W        W85794   8.630  16.218   3.407
13535W        W85795  20.368   6.280   3.279
13536W        W85796  36.496  15.292  10.454
13537W        W85797  30.941  30.664   0.895
13538W        W85798   2.321  33.689   1.417
13539W        W85799  16.062  19.392   0.322
13540W        W85800  38.302  11.951  11.154
13541W        W85801   4.968   7.894  13.902
13542W        W85802  29.617  24.518   1.704
13543W        W85803   3.057  44.943   4.261
13544W        W85804  22.732   1.344   2.642
13545W        W85805  26.901   3.311   2.726
13546W        W85806   7.754  10.191   1.159
13547W        W85807  11.678  38.527  11.616
13548W        W85808  28.973  15.787   0.817
13549W        W85809  35.547  31.180  13.804
13550W        W85810  28.111  19.711  12.559
13551W        W85811   7.947  30.010   4.739
13552W        W85812  37.428  44.982   0.276
13553W        W85813  26.639   9.679   1.727
13554W        W85814  20.017   3.840  14.386
13555W        W85815   8.520  23.732   2.680
13556W        W85816  13.904  30.360  11.169
13557W        W85817  30.027   6.873  12.889
13558W        W85818   1.145  19.626  11.973
13559W        W85819  16.918  16.749   5.510
13560W        W85820  38.481  25.870   3.863
13561W        W85821  25.540  37.845   3.289
13562W        W85822  32.642  21.597  10.733
13563W        W85823  21.470  33.850   3.893
13564W        W85824  32.402  29.703   0.979
13565W        W85825   8.562  29.406  11.168
13566W        W85826  30.325  15.388  11.098
13567W        W85827  35.036  34.971   0.151
13568W        W85828  11.890   3.352   4.921
13569W        W85829  16.747  25.102  14.130
13570W        W85830  22.778  33.733   9.833
13571W        W85831  23.068  26.171  12.458
13572W        W85832  26.304  14.173  12.939
13573W        W85833  20.740  14.460  14.362
13574W        W85834  16.770  19.205  12.893
13575W        W85835  25.393  42.558   2.781
13576W        W85836  21.498  37.983   4.693
13577W        W85837   0.323  17.919   3.282
13578W        W85838   5.897   8.698   1.285
13579W        W85839  22.088   4.470  13.947
13580W        W85840  34.350   5.342  10.591
13581W        W85841  14.377   8.836   3.538
13582W        W85842  10.449  22.264  14.543
13583W        W85843  11.636  30.917   4.775
13584W        W85844  13.964  16.245  12.530
13585W        W85845  21.634   0.717  12.379
13586W        W85846  15.534  37.551  10.739
13587W        W85847  39.861   9.878  13.503
13588W        W85848  41.374  22.474  14.030
13589W        W85849  19.870  20.115   4.896
13590W        W85850  44.415  40.042  13.967
13591W        W85851  26.099  42.744  10.684
13592W        W85852   1.000   0.247  12.486
13593W        W85853  16.101  26.889   1.044
13594W        W85854  41.936  42.884   1.750
13595W        W85855  12.560  39.336   4.559
13596W        W85856  39.048  30.587  14.407
13597W        W85857  31.379   7.750  11.933
13598W        W85858  38.148  44.502   0.454
13599W        W85859  15.981  41.046  12.657
13600W        W85860  24.111   7.926   2.335
13601W        W85861   3.313   3.701  10.675
13602W        W85862  15.518  22.787  10.682
13603W        W85863   1.359  41.236  13.672
13604W        W85864  19.837  23.470  11.762
13605W        W85865  10.848  25.969  13.618
13606W        W85866  20.152   4.416   3.882
13607W        W85867  12.684  42.999   2.761
13608W        W85868  13.253  30.673  11.684
13609W        W85869   9.999  26.094   1.006
13610W        W85870   8.127   3.842  14.306
13611W        W85871  43.275  10.063  10.292
13612W        W85872  37.270  32.377   0.363
13613W        W85873   0.011  30.720   4.028
13614W        W85874  43.863   7.826   4.322
13615W        W85875  31.047   9.808   4.262
13616W        W85876  31.150   3.110  10.229
13617W        W85877  20.788  21.464   3.740
13618W        W85878  33.676   3.329   4.332
13619W        W85879  34.432  27.589  12.194
13620W        W85880  25.829   5.246   2.791
13621W        W85881  19.810   0.431  12.631
13622W        W85882  37.978  21.094  11.548
13623W        W85883  41.397   5.126   3.031
13624W        W85884  43.814  17.656   3.139
13625W        W85885   7.846  15.359   1.651
13626W        W85886  25.095  32.436   3.425
13627W        W85887  27.138  15.161   3.577
13628W        W85888  19.071  24.937   1.694
13629W        W85889  41.846  19.657  10.623
13630W        W85890   1.366  38.440  10.588
13631W        W85891  33.883   4.644  13.893
13632W        W85892  28.151  36.065  10.544
13633W        W85893   1.105  17.203  13.034
13634W        W85894   0.940  10.641   4.392
13635W        W85895  41.508  25.910  14.928
13636W        W85896  33.888  39.344   0.906
13637W        W85897  21.504  37.548   9.818
13638W        W85898  17.875  27.877  10.685
13639W        W85899  41.459   9.412   4.113
13640W        W85900  37.408  38.408  13.112
13641W        W85901  39.387  44.146  14.039
13642W        W85902  39.016  12.779   4.183
13643W        W85903  10.354  25.245   1.246
13644W        W85904  32.632  23.317   3.810
13645W        W85905  12.693  32.107   4.197
13646W        W85906  27.089  25.544  11.534
13647W        W85907   1.418  35.135   1.236
13648W        W85908  37.815  32.966   0.036
13649W        W85909  17.068  43.813   4.555
13650W        W85910  11.627  39.295   0.932
13651W        W85911  33.509  37.761   2.214
13652W        W85912  27.679  42.871  11.478
13653W        W85913  22.263  22.339  12.527
13654W        W85914  30.968  29.593   3.742
13655W        W85915  38.046  44.834  13.405
13656W        W85916  10.820  19.892  13.458
13657W        W85917  32.353  36.038   0.120
13658W        W85918  31.150  25.017   2.233
13659W        W85919   2.877  19.563  14.984
13660W        W85920  43.163  22.596  14.547
13661W        W85921  15.981  41.252  10.731
13662W        W85922   7.734  27.471   2.813
13663W        W85923  28.604   2.900  13.772
13664W        W85924  26.208  16.669  11.894
13665W        W85925   2.250  23.136  14.518
13666W        W85926  39.092  12.146  11.357
13667W        W85927   6.504  17.337  13.153
13668W        W85928  15.060  15.521   1.417
13669W        W85929  27.353  10.763   2.963
13670W        W85930   6.984   1.625   3.353
13671W        W85931   7.779  36.858  12.278
13672W        W85932  15.644   6.627  12.016
13673W        W85933   8.691  24.961   4.548
13674W        W85934   8.437   7.900  12.591
13675W        W85935  24.964  34.074  10.674
13676W        W85936   6.756  11.209  11.731
13677W        W85937  23.764   9.848   2.451
13678W        W85938  19.960  14.679   0.650
13679W        W85939  28.101  42.045  14.308
13680W        W85940  42.866  14.125   2.451
13681W        W85941  44.692   8.745   3.793
13682W        W85942  22.289  33.920   0.748
13683W        W85943  32.149  40.419   1.168
13684W        W85944   3.983  34.039  11.991
13685W        W85945  20.631  27.750   2.209
13686W        W85946  33.946  42.025  14.972
13687W        W85947   6.182  42.581   4.190
13688W        W85948  21.455  23.084  13.883
13689W        W85949  10.346  14.685   2.595
13690W        W85950   3.517  24.677  13.815
13691W        W85951  12.038  34.505   4.146
13692W        W85952  20.593   2.862   1.181
13693W        W85953  27.964  31.092  14.447
13694W        W85954  39.311   8.088   2.016
13695W        W85955  27.461  34.188   3.371
13696W        W85956  30.182  11.159  14.480
13697W        W85957   5.291  38.913   2.417
13698W        W85958  28.591   4.494   1.418
13699W        W85959  19.517   2.987   3.337
13700W        W85960   0.223  19.238  12.110
13701W        W85961  31.108  32.882   1.087
13702W        W85962  15.085  37.459   0.971
13703W        W85963  32.822   3.458   3.327
13704W        W85964   7.725  38.785   1.300
13705W        W85965   9.336   3.865   4.326
13706W        W85966   0.055  36.083   2.343
13707W        W85967  42.889  14.841   1.674
13708W        W85968  36.046  43.424  11.144
13709W        W85969  42.796  15.286  13.477
13710W        W85970  23.500   8.688   4.318
13711W        W85971  17.186  18.082  13.478
13712W        W85972  40.203  15.564  12.888
13713W        W85973  21.130  40.974   2.243
13714W        W85974  36.933  23.759   0.884
13715W        W85975  15.845  23.707  11.169
13716W        W85976  44.174  23.455   0.076
13717W        W85977  11.125   0.815   3.571
13718W        W85978  36.946   1.759  13.811
13719W        W85979  18.583  15.655  13.859
13720W        W85980  20.634   2.391  14.891
13721W        W85981  14.592  34.596  13.378
13722W        W85982  26.699  10.415  14.485
13723W        W85983  19.771   6.739  11.028
13724W        W85984  44.578  34.470   3.189
13725W        W85985  42.532  44.766  13.614
13726W        W85986  14.538  11.120  13.471
13727W        W85987  21.943   7.811  11.863
13728W        W85988  36.478  30.075  12.600
13729W        W85989  27.661  12.067   0.265
13730W        W85990  13.976   1.700   4.665
13731W        W85991  40.284   3.795   4.553
13732W        W85992  34.571  22.766   4.974
13733W        W85993  33.403  38.038   0.923
13734W        W85994  32.482  19.134  12.682
13735W        W85995   6.461  32.167  14.542
13736W        W85996  32.429  15.937   2.746
13737W        W85997   9.835   4.440  10.727
13738W        W85998  21.465  20.500   3.434
13739W        W85999   4.771  15.571  12.461
13740W        W86000   7.683   6.194  12.864
13741W        W86001   8.705  23.226   3.845
13742W        W86002  10.331  18.682   2.138
13743W        W86003  36.019  17.159  11.981
13744W        W86004  24.467  19.021   1.811
13745W        W86005  43.967  14.469  10.689
13746W        W86006  10.983  29.510  14.631
13747W        W86007  41.787  39.583  12.094
13748W        W86008  36.940   4.682   3.690
13749W        W86009  32.411  28.758  12.611
13750W        W86010  27.473  13.932   2.747
13751W        W86011  28.502  30.404   5.375
13752W        W86012  25.126  30.474  14.424
13753W        W86013  15.980  17.109  11.039
13754W        W86014  42.808   3.713   4.055
13755W        W86015  15.529  35.157  12.433
13756W        W86016  44.872  11.758  14.393
13757W        W86017   7.035   0.505   1.923
13758W        W86018  39.640  31.809  13.038
13759W        W86019  42.892  42.202  13.949
13760W        W86020   1.299  10.056  11.672
13761W        W86021   7.645  28.759  12.554
13762W        W86022  27.128  39.987   2.289
13763W        W86023  43.743  39.642  12.045
13764W        W86024  25.499   3.754   1.779
13765W        W86025  25.168  28.135  13.367
13766W        W86026  37.608  10.664   4.702
13767W        W86027  22.152  27.511   5.026
13768W        W86028   2.207  43.594   1.028
13769W        W86029   2.822  33.601  14.721
13770W        W86030   7.888  41.290  10.260
13771W        W86031  23.731  42.473  10.669
13772W        W86032  29.917  11.499   0.294
13773W        W86033  10.422  25.535   2.678
13774W        W86034  26.463   1.352  12.799
13775W        W86035  16.953  24.168   1.570
13776W        W86036   5.747  15.718   1.313
13777W        W86037   3.363  41.543   0.640
13778W        W86038  42.493  39.795   4.125
13779W        W86039   3.702   0.450  13.827
13780W        W86040   2.822  34.174   1.850
13781W        W86041   7.819  23.737   0.412
13782W        W86042   8.770  23.358  13.836
13783W        W86043  27.865  18.783   5.004
13784W        W86044  19.002   3.283   0.029
13785W        W86045  43.805  23.984   2.283
13786W        W86046  17.299  43.371  10.878
13787W        W86047  16.625  34.372  12.925
13788W        W86048  11.022  41.554   0.522
13789W        W86049  27.200  28.426  10.990
13790W        W86050  15.665  10.556   0.321
13791W        W86051  17.209  13.930   2.729
13792W        W86052  17.919  20.664   2.266
13793W        W86053  31.142  33.555  14.274
13794W        W86054  29.929  44.943  10.536
13795W        W86055  37.702  34.900  11.263
13796W        W86056  37.698   9.600   2.563
13797W        W86057  38.824  20.607  12.553
13798W        W86058  12.038  28.524  12.359
13799W        W86059  20.931  11.484  14.472
13800W        W86060   2.855  36.903   0.431
13801W        W86061  30.736   1.252  14.804
13802W        W86062  15.303  32.159   9.877
13803W        W86063   2.939   2.997   0.745
13804W        W86064   4.824  21.777  12.068
13805W        W86065   0.035  35.434  12.894
13806W        W86066  25.048  26.930   4.697
13807W        W86067   6.268  15.249   2.772
13808W        W86068   1.430   0.997  14.534
13809W        W86069  42.557  28.625   2.631
13810W        W86070  43.103  13.571   1.828
13811W        W86071  39.998  12.954   0.928
13812W        W86072  34.800  15.581  12.431
13813W        W86073   2.897   1.810   4.449
13814W        W86074  34.577   6.488   1.984
13815W        W86075  10.840  27.996  10.758
13816W        W86076  19.736   5.866   3.831
13817W        W86077  43.367  18.923   0.434
13818W        W86078  24.644  23.206  14.921
13819W        W86079  29.536  12.827  13.396
13820W        W86080  30.511   6.778   4.480
13821W        W86081  37.875  29.452  14.412
13822W        W86082  14.209  30.736   1.671
13823W        W86083  30.552  19.604  13.451
13824W        W86084   2.980  10.911   3.256
13825W        W86085  27.755  22.593  13.923
13826W        W86086  25.475   5.801   0.432
13827W        W86087  21.691   1.419   4.558
13828W        W86088  35.039  17.335   0.526
13829W        W86089  11.721   1.342   4.209
13830W        W86090   0.854  42.918  12.870
13831W        W86091  37.864  39.509  14.912
13832W        W86092  17.659   4.546  11.032
13833W        W86093  32.614  33.132   4.576
13834W        W86094  28.002  44.693  11.526
13835W        W86095  31.548  19.072  10.745
13836W        W86096  24.022   8.751  10.587
13837W        W86097  36.559  13.153  14.535
13838W        W86098   2.799  30.442  14.389
13839W        W86099  21.511  17.206   0.342
13840W        W86100  39.792  18.735   3.800
13841W        W86101   0.346  44.024  14.264
13842W        W86102   5.343   5.463   1.300
13843W        W86103  23.933   9.073   5.169
13844W        W86104  25.148  29.036  12.966
13845W        W86105  33.454  34.375   1.722
13846W        W86106   1.872   3.211   2.825
13847W        W86107  24.681  13.752   2.881
13848W        W86108  37.620   7.623  11.923
13849W        W86109  27.078  26.590   3.255
13850W        W86110   5.976  42.823  14.889
13851W        W86111  40.416  39.859   2.463
13852W        W86112  40.354  39.998   1.945
13853W        W86113  11.241  16.949   1.863
13854W        W86114  34.222  36.128   2.170
13855W        W86115  22.091  38.423  11.634
13856W        W86116  13.170   3.809   3.538
13857W        W86117   2.368  25.194  11.108
13858W        W86118  44.189  10.220  10.824
13859W        W86119  38.406  18.216   4.945
13860W        W86120  15.584  31.896   3.949
13861W        W86121  28.039  16.495  14.088
13862W        W86122  40.536  23.737   4.073
13863W        W86123  43.454  20.053  14.360
13864W        W86124  26.705  39.811  12.003
13865W        W86125  34.429  42.530   4.863
13866W        W86126   4.439  43.251   4.171
13867W        W86127  10.936  27.389  11.552
13868W        W86128   3.295   7.963  13.198
13869W        W86129  32.537   8.911  13.332
13870W        W86130  18.009  10.373   1.422
13871W        W86131  37.832  12.802  13.549
13872W        W86132  28.926  38.719   0.900
13873W        W86133  32.078   0.241   1.331
13874W        W86134  41.471  44.942  14.987
13875W        W86135  43.758  35.492   2.063
13876W        W86136  25.482  17.079   9.937
13877W        W86137  31.094  17.435  11.081
13878W        W86138   3.232  19.199  12.941
13879W        W86139  20.083  21.286   1.851
13880W        W86140   6.942  41.790   2.671
13881W        W86141   3.953   5.566   3.623
13882W        W86142  43.011  37.360   3.299
13883W        W86143  26.140  29.468   2.826
13884W        W86144  10.085  36.143  10.822
13885W        W86145   1.717  11.187  11.720
13886W        W86146  26.702  19.578  10.662
13887W        W86147  31.917  16.172  13.388
13888W        W86148  37.664  27.143   2.312
13889W        W86149  32.396  23.957  11.454
13890W        W86150  31.665   3.666   1.400
13891W        W86151  18.225  17.871   0.879
13892W        W86152  15.514  31.497   4.336
13893W        W86153  32.101  24.323   3.169
13894W        W86154  16.054  38.940  14.509
13895W        W86155  24.063   2.965   3.110
13896W        W86156  17.837  28.763   0.967
13897W        W86157  39.306   6.307  11.402
13898W        W86158   0.866  24.767   1.633
13899W        W86159  13.519  39.453   3.687
13900W        W86160  24.597   1.805  14.734
13901W        W86161   8.324  19.364   4.834
13902W        W86162  36.631  38.538  11.417
13903W        W86163  11.864  14.765  12.959
13904W        W86164  11.220  42.660   1.539
13905W        W86165  24.677  32.643   4.171
13906W        W86166  19.311  27.097   3.656
13907W        W86167  23.455  28.900   2.766
13908W        W86168  11.702   2.874  12.536
13909W        W86169  12.107   1.231  14.828
13910W        W86170  34.358   5.774  11.288
13911W        W86171  36.710  27.769   2.645
13912W        W86172  43.464  31.572  10.561
13913W        W86173  43.434  20.043  11.604
13914W        W86174  26.368  14.160   1.384
13915W        W86175  29.089  42.422   1.826
13916W        W86176  22.110  28.646  10.982
13917W        W86177  42.202   4.533   3.272
13918W        W86178  12.726  12.051   1.933
13919W        W86179   7.405  10.286   0.295
13920W        W86180  42.765  34.910  12.453
13921W        W86181  40.073  20.656  11.199
13922W        W86182   7.390   7.347  13.111
13923W        W86183  37.473  25.743  11.770
13924W        W86184  29.551   9.809   0.767
13925W        W86185  22.216   4.706  11.652
13926W        W86186   9.660  35.853   4.448
13927W        W86187  42.115  14.877  11.628
13928W        W86188  22.990  34.805   2.796
13929W        W86189  18.040   2.761   3.095
13930W        W86190  26.128  26.755   0.332
13931W        W86191   2.371   2.233  12.653
13932W        W86192  30.009  19.140   0.998
13933W        W86193  35.884   3.740  12.961
13934W        W86194   9.390  22.053  10.664
13935W        W86195  21.652  24.065  12.429
13936W        W86196  20.552  25.104  11.501
13937W        W86197  31.410  16.140  10.696
13938W        W86198  40.430  24.107  14.293
13939W        W86199  13.788   0.438   1.392
13940W        W86200  17.098  40.408   3.739
13941W        W86201  20.680  32.889  10.945
13942W        W86202   7.695  24.220  11.544
13943W        W86203  24.738  13.622  11.112
13944W        W86204  44.949  30.545  13.335
13945W        W86205  27.179   4.750  12.927
13946W        W86206   3.109  24.142   3.073
13947W        W86207  20.851   5.080   0.776
13948W        W86208  21.091   5.970   9.962
13949W        W86209  27.111  32.509  11.247
13950W        W86210  12.039  40.626  11.129
13951W        W86211  21.106  33.881  14.576
13952W        W86212  33.865  38.311   0.862
13953W        W86213  17.282  15.051   4.174
13954W        W86214   2.006  42.845   4.121
13955W        W86215  29.420  13.763  11.555
13956W        W86216   4.836   9.682   3.406
13957W        W86217  44.345   8.318   1.259
13958W        W86218  15.525  20.824  14.423
13959W        W86219   5.941   0.019  12.511
13960W        W86220  43.936   1.769  12.881
13961W        W86221  37.577  23.998  11.508
13962W        W86222  16.097  26.533  14.878
13963W        W86223  25.039  26.403  12.069
13964W        W86224  41.254  36.046   1.295
13965W        W86225  25.108  41.164  14.700
13966W        W86226  34.407   5.924  14.316
13967W        W86227  26.668  22.447   4.085
13968W        W86228  19.772  21.690   2.040
13969W        W86229   8.382   3.771   4.757
13970W        W86230  36.938  15.798  14.763
13971W        W86231  18.938  24.651  13.030
13972W        W86232  12.823  38.427  13.539
13973W        W86233  10.382  39.855   3.196
13974W        W86234   5.657   8.232   1.309
13975W        W86235  16.387   5.249  14.875
13976W        W86236  33.444  27.621  14.376
13977W        W86237  17.156  16.447   0.892
13978W        W86238  36.817  13.894   2.145
13979W        W86239  26.513   2.752  11.968
13980W        W86240   4.397   8.231   3.800
13981W        W86241  36.314   9.172   5.056
13982W        W86242  32.026  22.747  11.581
13983W        W86243   0.948  43.853   3.163
13984W        W86244  37.857  38.450   1.151
13985W        W86245  31.258  29.871  10.574
13986W        W86246  36.545   5.100   0.916
13987W        W86247  26.345   7.722  12.334
13988W        W86248   5.289  33.495   4.484
13989W        W86249  25.677  37.758  13.973
13990W        W86250  10.167   7.220   1.425
13991W        W86251  22.955   5.914  12.957
13992W        W86252  11.202  22.091  14.198
13993W        W86253  14.816  21.201  11.074
13994W        W86254  32.520  14.790   0.255
13995W        W86255  30.002  35.064   4.086
13996W        W86256   4.405  15.739  13.490
13997W        W86257  19.986  13.062   2.305
13998W        W86258  18.184  15.513  12.007
13999W        W86259  34.869  39.896   0.056
14000W        W86260  16.030  37.059   2.819
14001W        W86261  19.639   2.123   3.538
14002W        W86262   7.664  23.225   3.795
14003W        W86263   6.731  38.473   3.325
14004W        W86264  23.004  37.343  13.998
14005W        W86265  20.201  36.985  14.525
14006W        W86266  32.604  34.096   1.887
14007W        W86267  14.070  43.907  14.070
14008W        W86268  38.344  21.365  10.698
14009W        W86269  37.840   2.891  12.340
14010W        W86270   5.998  30.270  11.131
14011W        W86271  36.928  36.818  12.297
14012W        W86272  22.712   4.310  14.091
14013W        W86273  30.155  10.984   3.301
14014W        W86274  35.679  30.632  13.981
14015W        W86275  43.842  26.343  11.146
14016W        W86276  20.282  32.093   5.054
14017W        W86277  34.596  22.964   1.796
14018W        W86278  41.802  41.846  11.706
14019W        W86279  37.659  28.001  11.089
14020W        W86280   6.749  36.132   2.626
14021W        W86281  24.140  29.158   0.444
14022W        W86282  44.274   7.292   4.533
14023W        W86283  20.577  35.007  14.295
14024W        W86284  34.955  37.304   0.452
14025W        W86285  25.998  38.487  12.170
14026W        W86286  12.275  39.058  14.837
14027W        W86287   9.279  38.833  11.404
14028W        W86288  24.788  24.019   0.768
14029W        W86289  43.396  17.035   0.765
14030W        W86290  16.212  32.533  13.983
14031W        W86291  13.914   7.301  11.020
14032W        W86292  14.122   4.716   4.182
14033W        W86293  11.898  36.898   2.652
14034W        W86294  32.715  37.493   4.648
14035W        W86295  28.959  34.659  12.939
14036W        W86296  37.104   7.731   2.644
14037W        W86297  30.391  20.751   0.295
14038W        W86298  16.827  40.337  12.021
14039W        W86299   2.913  34.911  13.352
14040W        W86300  27.041  33.303   3.583
14041W        W86301  37.513   8.160   4.070
14042W        W86302  34.925   0.699  10.505
14043W        W86303   0.891  40.428  11.478
14044W        W86304   4.876  12.980  13.251
14045W        W86305   1.856   0.990   4.266
14046W        W86306  30.635  25.952  10.637
14047W        W86307  27.555  20.760   3.083
14048W        W86308  32.401  42.515   1.740
14049W        W86309  33.701  11.790   1.375
14050W        W86310  10.376  43.581  14.836
14051W        W86311   0.189  40.830   0.843
14052W        W86312  10.872  31.744  12.482
14053W        W86313   6.227  21.506  12.463
14054W        W86314  26.774   2.400  13.426
14055W        W86315  15.186  34.959  12.837
14056W        W86316  40.806   6.552   3.358
14057W        W86317  34.621   6.631   2.490
14058W        W86318  31.037  41.957   2.272
14059W        W86319   4.891  28.723   1.188
14060W        W86320  26.996  42.276   0.522
14061W        W86321   2.019  17.058   1.379
14062W        W86322  20.264  13.056  12.061
14063W        W86323  39.860  43.136  12.433
14064W        W86324  14.164  32.325  10.654
14065W        W86325  16.028  22.510   1.880
14066W        W86326  25.466   7.322   2.514
14067W        W86327  15.776  43.339  10.777
14068W        W86328  11.767  35.440   0.835
14069W        W86329  37.063  12.487  12.931
14070W        W86330  39.578  19.628  13.271
14071W        W86331  10.670  14.135   4.624
14072W        W86332  26.523   8.466  13.443
14073W        W86333  36.242  39.480  12.753
14074W        W86334   3.064  44.400   1.345
14075W        W86335  27.478  34.108   0.855
14076W        W86336  17.700   6.872  12.483
14077W        W86337  39.367   8.809   3.792
14078W        W86338  33.116  44.097  13.422
14079W        W86339   4.764  21.504   2.212
14080W        W86340  34.572   7.143   0.015
14081W        W86341   5.868  10.612   1.294
14082W        W86342  26.867  40.011  14.920
14083W        W86343  15.724   3.133  14.781
14084W        W86344  32.185  38.942  13.393
14085W        W86345  27.891  20.709  12.424
14086W        W86346  16.079  30.494  14.729
14087W        W86347  28.539  34.624  10.467
14088W        W86348  22.098  21.326  11.010
14089W        W86349  17.068  12.686   3.671
14090W        W86350   3.245   1.570   3.623
14091W        W86351  25.024  40.638   3.707
14092W        W86352  16.341   5.318   4.064
14093W        W86353  29.072  27.104  10.609
14094W        W86354  16.847  30.578  13.341
14095W        W86355   8.957  24.228  11.996
14096W        W86356  39.018  33.358  10.971
14097W        W86357  12.153  38.742  11.516
14098W        W86358  37.588  23.950  13.552
14099W        W86359  19.169   3.343  10.708
14100W        W86360  20.829  18.575   3.834
14101W        W86361   9.104  31.501  13.845
14102W        W86362  28.537  25.152   4.861
14103W        W86363  19.191   9.539   5.020
14104W        W86364  40.116   3.304  11.669
14105W        W86365   3.611  26.379   2.655
14106W        W86366  40.990  41.452   3.937
14107W        W86367  35.280   0.768  13.409
14108W        W86368  29.412  39.915   4.047
14109W        W86369  18.612  23.778   3.709
14110W        W86370  20.363  20.275   4.990
14111W        W86371  32.039  10.271  10.693
14112W        W86372  16.241  27.533   0.165
14113W        W86373  10.377   0.501   1.481
14114W        W86374  39.503  26.454   2.392
14115W        W86375   4.350  15.646   1.758
14116W        W86376  16.832  29.218   2.729
14117W        W86377  10.101  25.046  10.733
14118W        W86378  10.866  30.574   2.672
14119W        W86379  22.782  25.900  10.638
14120W        W86380  25.994  43.288   2.715
14121W        W86381  22.524   2.273   0.292
14122W        W86382   2.299  16.058  10.550
14123W        W86383  32.273  19.021   2.858
14124W        W86384  39.939  27.557  12.434
14125W        W86385  15.946  30.609   4.058
14126W        W86386  14.301  37.601  11.159
14127W        W86387  17.718  14.187  12.113
14128W        W86388   5.372  18.897   1.229
14129W        W86389  17.669  33.458  12.605
14130W        W86390   4.414  43.429   0.186
14131W        W86391  38.662  43.709   1.682
14132W        W86392   1.425   4.749  12.695
14133W        W86393  35.079  22.063   0.121
14134W        W86394   5.828  39.602   3.879
14135W        W86395  37.312  44.859  13.735
14136W        W86396  26.098  42.330   4.761
14137W        W86397   4.699  19.050  11.418
14138W        W86398  13.288  41.868  12.500
14139W        W86399   1.256   5.995  12.540
14140W        W86400   7.211  41.795  13.000
14141W        W86401  30.836  22.480  13.566
14142W        W86402  35.916  39.467   3.293
14143W        W86403  38.354  14.271   3.109
14144W        W86404   2.066   2.014  11.048
14145W        W86405  44.735  23.391   0.227
14146W        W86406  28.725  28.091  12.047
14147W        W86407  14.178  37.466  10.677
14148W        W86408  32.656  26.972  11.438
14149W        W86409   5.752  20.612  10.564
14150W        W86410  30.454  10.735  14.593
14151W        W86411  39.911  39.127  12.870
14152W        W86412  26.948  12.288  11.026
14153W        W86413  22.505  21.607  13.567
14154W        W86414  33.084   5.252  14.586
14155W        W86415  11.399  13.276   2.807
14156W        W86416  38.316  31.626  13.377
14157W        W86417  31.196   3.980  13.474
14158W        W86418   0.426  40.611  13.382
14159W        W86419  27.174  37.526  10.060
14160W        W86420  21.532  40.390   3.742
14161W        W86421  32.462  21.125  11.645
14162W        W86422  19.613  30.186   1.481
14163W        W86423  31.221  42.807  13.996
14164W        W86424   8.662   6.938   2.425
14165W        W86425  30.714  17.475  10.713
14166W        W86426   0.892  22.475  13.398
14167W        W86427  21.450  32.020  13.874
14168W        W86428   2.893  22.158   0.202
14169W        W86429   9.724   1.226  12.987
14170W        W86430  31.669  20.866   0.027
14171W        W86431  41.055  14.260   2.641
14172W        W86432  39.105   6.228  12.428
14173W        W86433  28.359   5.746   4.549
14174W        W86434  13.759   6.725  12.122
14175W        W86435  19.093   4.335  11.045
14176W        W86436  21.724  43.948   1.450
14177W        W86437  36.437   8.777   4.240
14178W        W86438  27.730  40.270   1.880
14179W        W86439  33.944   2.595  11.110
14180W        W86440  20.261  27.574   4.418
14181W        W86441  21.103   5.006   4.500
14182W        W86442   3.455  38.856  10.843
14183W        W86443  41.302  33.670  12.499
14184W        W86444   2.994   5.794  11.936
14185W        W86445  21.016  12.257   2.274
14186W        W86446  40.816  24.433  11.557
14187W        W86447  25.567  36.931   1.333
14188W        W86448  31.421   5.766  10.615
14189W        W86449   4.937  31.897   3.164
14190W        W86450  43.951  42.823   4.119
14191W        W86451  16.599  13.675  13.237
14192W        W86452  43.906  28.524  12.859
14193W        W86453  42.709  12.688  12.413
14194W        W86454   1.484  44.749   3.130
14195W        W86455  43.461  40.861   2.381
14196W        W86456  34.643  32.893   0.847
14197W        W86457   6.780  30.237   2.287
14198W        W86458   0.772  37.114  10.699
14199W        W86459   9.367  42.030  11.134
14200W        W86460  29.703   5.462  10.925
14201W        W86461  38.843  23.615  11.844
14202W        W86462  26.184  41.784  11.165
14203W        W86463  20.080  29.474   3.735
14204W        W86464  19.263  32.418  14.439
14205W        W86465   9.166  31.477   3.417
14206W        W86466  22.811  20.911   5.294
14207W        W86467  38.323  16.628   4.168
14208W        W86468   2.661   3.744  10.537
14209W        W86469  25.556  19.214  12.399
14210W        W86470  33.803  15.124  12.003
14211W        W86471   0.800  44.731   4.673
14212W        W86472  34.807   2.149   1.579
14213W        W86473  29.109  29.033   1.834
14214W        W86474   1.706  16.744  11.193
14215W        W86475  34.173  38.308  12.961
14216W        W86476  24.152   0.998  12.594
14217W        W86477  39.967   2.744   3.896
14218W        W86478  23.778  17.081  14.285
14219W        W86479   2.892   8.027  13.549
14220W        W86480   3.688  40.892   2.155
14221W        W86481  41.004   8.698   1.804
14222W        W86482  39.538  11.660  10.679
14223W        W86483   9.786   6.305  10.408
14224W        W86484  40.244  32.114   2.296
14225W        W86485  20.626   7.379  13.735
14226W        W86486  34.045  33.455   1.350
14227W        W86487  15.300  28.556   0.815
14228W        W86488   4.197  25.104   0.810
14229W        W86489  42.993  42.870   1.630
14230W        W86490  16.905  41.422   1.339
14231W        W86491  34.339  22.053   3.171
14232W        W86492  19.786  19.986  12.086
14233W        W86493  40.469  22.676   0.941
14234W        W86494  10.641  21.353  11.486
14235W        W86495  21.609   7.623   4.653
14236W        W86496  44.765   0.440   1.429
14237W        W86497   5.123   4.700   1.741
14238W        W86498  18.521  37.460   2.315
14239W        W86499  31.064  25.959   3.599
14240W        W86500  36.633  44.627  14.989
14241W        W86501  28.863  41.748  14.027
14242W        W86502   7.003  22.295  13.908
14243W        W86503  42.836  26.143  13.930
14244W        W86504  37.938  16.265  10.224
14245W        W86505  44.291  14.994  13.973
14246W        W86506  26.200  41.262  11.043
14247W        W86507  23.753  37.115  13.053
14248W        W86508   5.211  13.613  14.037
14249W        W86509  34.827  38.745   3.101
14250W        W86510  30.688  22.228   4.161
14251W        W86511  19.242   0.245   0.819
14252W        W86512  33.133  30.686   3.911
14253W        W86513   2.333  24.468  14.470
14254W        W86514  39.007  40.610  13.336
14255W        W86515  36.947   4.629  10.506
14256W        W86516   2.612  42.586  11.980
14257W        W86517   5.281  41.157   2.795
14258W        W86518   5.785  13.742  14.891
14259W        W86519  38.525  30.527   0.314
14260W        W86520   5.251   2.143  10.839
14261W        W86521   2.438   3.655  13.223
14262W        W86522  11.267  28.736   4.529
14263W        W86523  11.134  41.993  11.185
14264W        W86524  22.284  43.331   2.831
14265W        W86525  41.217  27.792  11.965
14266W        W86526  33.382  23.119   3.226
14267W        W86527   3.452  17.374   1.977
14268W        W86528  33.999  43.461  14.038
14269W        W86529  28.236  40.318   1.779
14270W        W86530  34.979   3.794   0.999
14271W        W86531   1.507  11.376   2.181
14272W        W86532  24.920  41.451  13.900
14273W        W86533  17.193   1.904   3.805
14274W        W86534  29.128  39.287   2.630
14275W        W86535  44.265  15.736  12.473
14276W        W86536  42.297  38.000  14.694
14277W        W86537  26.163  42.422  12.882
14278W        W86538  14.761  35.379   2.007
14279W        W86539  42.431  41.395   2.848
14280W        W86540  15.857   5.360  14.897
14281W        W86541  12.556   5.436  11.521
14282W        W86542  23.048  32.454   1.312
14283W        W86543  43.001  36.966  12.028
14284W        W86544  22.303   3.394   4.141
14285W        W86545   3.937   1.901   2.925
14286W        W86546  27.648  22.804  13.405
14287W        W86547  10.791   7.484  14.847
14288W        W86548  27.691  19.034   1.314
14289W        W86549  32.094   0.396  13.530
14290W        W86550   9.428  37.975   2.668
14291W        W86551  36.446  38.131   0.441
14292W        W86552   5.156  36.825   1.425
14293W        W86553  27.628  12.561   0.384
14294W        W86554  22.714  22.816   0.783
14295W        W86555   0.901  21.738  12.486
14296W        W86556  31.695  14.605   2.240
14297W        W86557  26.520  33.317   2.254
14298W        W86558  19.266  40.990   2.694
14299W        W86559  26.158  33.609  12.457
14300W        W86560  44.638  12.994  13.245
14301W        W86561  33.653  26.644  10.587
14302W        W86562  18.542  42.568  13.238
14303W        W86563  16.779  39.356  14.546
14304W        W86564  23.929  18.794   4.781
14305W        W86565  21.881   3.932   2.792
14306W        W86566  28.582  27.697  11.426
14307W        W86567  14.961   1.533   0.237
14308W        W86568  22.313   4.202  14.915
14309W        W86569  27.136  19.204   0.229
14310W        W86570  34.590   2.916   1.271
14311W        W86571  27.867  28.065   0.235
14312W        W86572  10.447  24.121   4.559
14313W        W86573  25.512  42.089   3.691
14314W        W86574  12.457  37.231   0.277
14315W        W86575  15.558   0.481   0.989
14316W        W86576  42.256  43.805  12.566
14317W        W86577   1.206  40.980   4.545
14318W        W86578   4.694  44.160   5.017
14319W        W86579  25.965   4.984   4.758
14320W        W86580   5.173  18.714  14.445
14321W        W86581  14.693  41.069   1.348
14322W        W86582  21.443  27.031  14.043
14323W        W86583  23.650  13.044   3.628
14324W        W86584  32.049  37.885  13.963
14325W        W86585   7.459   5.389  13.767
14326W        W86586  15.178   4.175  12.641
14327W        W86587  32.897  38.544  14.406
14328W        W86588  40.982  40.549  13.466
14329W        W86589  18.288  18.615  14.365
14330W        W86590  35.969  39.603  14.489
14331W        W86591   0.477  30.084  10.759
14332W        W86592   8.648   4.949  14.536
14333W        W86593  23.535  24.927  13.529
14334W        W86594  26.640  43.155  13.943
14335W        W86595  20.092   5.339   3.222
14336W        W86596  39.824  28.195   0.410
14337W        W86597  42.873  27.406  12.849
14338W        W86598  38.826  14.208  13.406
14339W        W86599  24.681  32.133   4.257
14340W        W86600   4.954   8.896   0.435
14341W        W86601  41.794  24.471  12.098
14342W        W86602  13.387  41.010  12.013
14343W        W86603   3.176  32.827   3.727
14344W        W86604  41.654  28.614  10.712
14345W        W86605  43.023  35.487   0.956
14346W        W86606  24.628  41.888   2.725
14347W        W86607   8.228  30.435   4.589
14348W        W86608  44.465  32.474   0.830
14349W        W86609  12.765   7.916  11.636
14350W        W86610  37.892   7.837   4.151
14351W        W86611  13.847   7.729   1.426
14352W        W86612  32.567   1.945  14.721
14353W        W86613  42.277   2.609   0.936
14354W        W86614  29.080  15.088  10.730
14355W        W86615   5.032  27.519  11.226
14356W        W86616   5.211  27.073   5.058
14357W        W86617   5.215   2.321  11.793
14358W        W86618  43.168  24.133   4.121
14359W        W86619  20.227  39.452   2.212
14360W        W86620  11.414  16.593  14.490
14361W        W86621  22.701  36.569  13.794
14362W        W86622   7.173  25.489   2.796
14363W        W86623   8.648   2.401  13.930
14364W        W86624  10.704  12.375  12.043
14365W        W86625  40.520   9.630   3.747
14366W        W86626  21.071  30.643  14.765
14367W        W86627  43.811   3.891   2.354
14368W        W86628  13.297  19.678  10.593
14369W        W86629  36.800  15.677  11.132
14370W        W86630  22.831  27.979  11.649
14371W        W86631  19.516  29.076  10.691
14372W        W86632  32.080  44.353   3.075
14373W        W86633   2.594  14.158  14.874
14374W        W86634  22.519  20.565  10.720
14375W        W86635  14.038  20.227   1.101
14376W        W86636  15.760  27.241   0.824
14377W        W86637  29.686   7.457  11.253
14378W        W86638  36.365  21.622   2.364
14379W        W86639  26.089  11.200   4.652
14380W        W86640   1.798  30.643   1.153
14381W        W86641  35.475  29.055   3.657
14382W        W86642  14.262   5.715   4.613
14383W        W86643   9.635   7.579  14.292
14384W        W86644  15.842   5.381   4.167
14385W        W86645  32.640   0.905  10.597
14386W        W86646  25.535  20.334  14.072
14387W        W86647  14.715  32.298  12.472
14388W        W86648  22.643  35.593   3.354
14389W        W86649   0.786  10.161  11.525
14390W        W86650  17.170  16.784   3.850
14391W        W86651  10.166  22.082  14.154
14392W        W86652  22.483   2.910   4.070
14393W        W86653  32.500  12.237   3.092
14394W        W86654  16.522  13.259  12.948
14395W        W86655  19.338  23.073  11.948
14396W        W86656  10.553  24.617   1.462
14397W        W86657  14.856  42.457   4.639
14398W        W86658  21.694  31.132  14.137
14399W        W86659  23.523  20.258   2.798
14400W        W86660  44.932  10.339   1.735
14401W        W86661   8.217   6.226  10.642
14402W        W86662  20.747  40.813   1.323
14403W        W86663  36.307  10.580   2.686
14404W        W86664  39.036   1.886  11.499
14405W        W86665  13.654  23.151   4.082
14406W        W86666  33.475  18.946  14.218
14407W        W86667   0.073  13.443  11.178
14408W        W86668  24.961  23.969  12.918
14409W        W86669  19.916   5.070  10.259
14410W        W86670  14.550  38.057  12.607
14411W        W86671  15.626   8.643  10.574
14412W        W86672  13.755  39.263   2.218
14413W        W86673  22.002  13.630   0.165
14414W        W86674  23.977  10.681   2.451
14415W        W86675   8.154  40.752  14.764
14416W        W86676  23.093  12.611  13.979
14417W        W86677   0.247  37.053   4.199
14418W        W86678  31.578  33.022  10.513
14419W        W86679  21.545   7.940   3.315
14420W        W86680  15.077  40.471  11.742
14421W        W86681  21.715  17.589  11.079
14422W        W86682   3.771  35.363  12.066
14423W        W86683  32.111  28.482   4.377
14424W        W86684  32.583   7.329  13.519
14425W        W86685  41.041   4.211   4.267
14426W        W86686  12.853  17.025   5.519
14427W        W86687  35.509  26.471   3.119
14428W        W86688  38.787  18.597  13.843
14429W        W86689  29.479  44.897  12.197
14430W        W86690  27.112  35.437  14.625
14431W        W86691   0.436   5.360   2.709
14432W        W86692  27.411  12.766   3.614
14433W        W86693  14.979  33.503  13.077
14434W        W86694   0.514  28.408  13.899
14435W        W86695  38.893  12.426   3.172
14436W        W86696  37.849  38.946   2.594
14437W        W86697   0.966   8.378  13.611
14438W        W86698  29.485  11.801   1.493
14439W        W86699  44.536  30.063   4.421
14440W        W86700  43.322  16.989   2.360
14441W        W86701  41.263  19.249   0.276
14442W        W86702  17.244   8.881  13.388
14443W        W86703  14.239  41.593   0.673
14444W        W86704   4.810  40.101  12.815
14445W        W86705  36.906  20.080   3.118
14446W        W86706   4.461  18.103  12.116
14447W        W86707  17.795  39.081   3.302
14448W        W86708  13.162  17.006   0.932
14449W        W86709  26.785  15.308   4.548
14450W        W86710  24.022  30.715  13.720
14451W        W86711  37.458   7.516   9.713
14452W        W86712  33.916  44.811   2.752
14453W        W86713  18.705  19.678   4.050
14454W        W86714  12.037   0.318  10.912
14455W        W86715  41.977  28.531   4.439
14456W        W86716  31.136  25.127   5.107
14457W        W86717   9.851  20.810   0.116
14458W        W86718  37.124  12.804  14.770
14459W        W86719  35.301  23.544  14.566
14460W        W86720  40.181  32.597   1.133
14461W        W86721  39.345   3.274   4.615
14462W        W86722  30.620  41.025  14.346
14463W        W86723  43.823  34.492  14.122
14464W        W86724  11.409  11.644  12.005
14465W        W86725  44.914   0.441  10.656
14466W        W86726  16.078   5.796   3.901
14467W        W86727   5.949  12.034  11.163
14468W        W86728  23.223  41.003   3.641
14469W        W86729   3.009  14.411  11.075
14470W        W86730   0.923  36.975   0.714
14471W        W86731  36.753  40.912  11.757
14472W        W86732   8.425  22.682  11.598
14473W        W86733  39.398  41.098   0.934
14474W        W86734  37.253   2.176   2.795
14475W        W86735   6.424  40.089  11.818
14476W        W86736  10.271   1.785  12.448
14477W        W86737  13.206   5.417   1.642
14478W        W86738  43.871  44.435   1.709
14479W        W86739  20.963   4.920  12.579
14480W        W86740  35.929   6.444   2.785
14481W        W86741  13.678   5.274   1.841
14482W        W86742  13.056  17.666   4.448
14483W        W86743  28.384  11.721   2.836
14484W        W86744  40.246   9.911   0.299
14485W        W86745   7.861  30.221  11.597
14486W        W86746  32.163   3.565   9.900
14487W        W86747  28.090  33.555   3.905
14488W        W86748  12.897  17.721   2.190
14489W        W86749  24.276  27.727   0.323
14490W        W86750  32.056  29.935   1.489
14491W        W86751   1.785  44.430   1.725
14492W        W86752  10.714  43.976  14.753
14493W        W86753   6.875  15.058   1.322
14494W        W86754   1.460   8.796  11.994
14495W        W86755  35.587   3.694  13.389
14496W        W86756   8.365  40.493  10.834
14497W        W86757  18.282  38.610  12.350
14498W        W86758  10.093  18.602   4.411
14499W        W86759  11.758  15.499   5.220
14500W        W86760  27.462  36.496   1.897
14501W        W86761  37.220  26.642  11.262
14502W        W86762  36.995  20.070   9.804
14503W        W86763  10.090  29.150  12.032
14504W        W86764  34.059  33.450   4.527
14505W        W86765   5.962  31.083  14.656
14506W        W86766  35.392  10.198  12.654
14507W        W86767  20.664  36.731   1.291
14508W        W86768  23.504  20.013  12.853
14509W        W86769  22.616  44.317  13.844
14510W        W86770  40.093  15.529   4.095
14511W        W86771  17.762   8.656   2.133
14512W        W86772  30.555  33.711  14.021
14513W        W86773  22.072  28.108  12.001
14514W        W86774   3.247  15.345  13.523
14515W        W86775  23.664  42.839   0.552
14516W        W86776  20.718   7.097  11.636
14517W        W86777  30.110  43.679  10.719
14518W        W86778  23.513  19.307   2.617
14519W        W86779  32.474  14.553   2.925
14520W        W86780  28.344  12.591  12.046
14521W        W86781  27.054  44.020  11.044
14522W        W86782  41.352  41.875   2.801
14523W        W86783  40.618  44.023   4.928
14524W        W86784  15.239   1.740   0.733
14525W        W86785  38.938  11.600   1.484
14526W        W86786  25.103  40.490   4.619
14527W        W86787   6.225  26.529   4.687
14528W        W86788  26.120  43.758  10.967
14529W        W86789  37.910  37.366  13.982
14530W        W86790  24.957  18.503   2.274
14531W        W86791  22.232  24.353  11.679
14532W        W86792  41.302  38.990  14.743
14533W        W86793  21.517  12.691  13.945
14534W        W86794  44.686  27.588   2.218
14535W        W86795  43.965  20.805  11.634
14536W        W86796   5.766  43.996   0.712
14537W        W86797  18.610  38.834  13.053
14538W        W86798  33.207  42.740   4.155
14539W        W86799   4.198  37.342   4.865
14540W        W86800  31.890  10.105  11.588
14541W        W86801   8.747  19.825  11.197
14542W        W86802  15.827  41.769  10.728
14543W        W86803   2.723  43.739   3.139
14544W        W86804  40.977  27.037   4.818
14545W        W86805  41.884  28.047   1.308
14546W        W86806  19.137  39.931  14.947
14547W        W86807  15.589  11.155   1.935
14548W        W86808   4.551  24.788   1.571
14549W        W86809  24.727   8.330  13.327
14550W        W86810  43.323  20.521   3.167
14551W        W86811  12.911  18.699  14.372
14552W        W86812  40.988   4.140  13.894
14553W        W86813  28.203  32.141   4.637
14554W        W86814  38.501  34.348  12.072
14555W        W86815  27.620  41.781   1.835
14556W        W86816   0.775  19.393  12.243
14557W        W86817  10.315  15.880   0.352
14558W        W86818  20.556  27.381  10.696
14559W        W86819   4.502  34.092   4.131
14560W        W86820  20.994  26.208   1.891
14561W        W86821   7.595  42.569  13.328
14562W        W86822  38.884  32.576   2.085
14563W        W86823  32.090  34.824   2.408
14564W        W86824  40.385  17.140  13.136
14565W        W86825  44.311   0.197  14.750
14566W        W86826  17.196  38.641  13.548
14567W        W86827  27.966  15.025   2.506
14568W        W86828  39.447  33.307  14.438
14569W        W86829  14.203  23.838   4.472
14570W        W86830  24.239  43.757  11.854
14571W        W86831  29.846  26.957  12.074
14572W        W86832  37.653  30.948  13.388
14573W        W86833   3.346   8.267   4.884
14574W        W86834  33.477  32.105   2.723
14575W        W86835  42.836  42.134  12.048
14576W        W86836   5.579  39.366  13.565
14577W        W86837  28.652  11.433   1.410
14578W        W86838  33.789   3.383  10.655
14579W        W86839  43.548   8.162  10.396
14580W        W86840   3.974  31.982  12.129
14581W        W86841   7.226  32.764   0.955
14582W        W86842  19.563  10.167  12.083
14583W        W86843  25.559  15.308  12.933
14584W        W86844  16.218   8.876  14.730
14585W        W86845  15.171  41.988  14.424
14586W        W86846   3.206   3.026  14.955
14587W        W86847  23.156  12.053  12.357
14588W        W86848  41.963  40.119  11.227
14589W        W86849  38.417  44.485   1.509
14590W        W86850  28.366   2.870  12.728
14591W        W86851  29.276  18.753  10.573
14592W        W86852  23.792  15.536  14.500
14593W        W86853   6.535  43.357  12.934
14594W        W86854  22.184  44.252   4.119
14595W        W86855  39.419  34.233   0.330
14596W        W86856  12.284  18.731  12.458
14597W        W86857  27.992  41.831  13.403
14598W        W86858  22.079   3.150   1.422
14599W        W86859  27.586  18.560  12.147
14600W        W86860  36.483  33.940  12.853
14601W        W86861  25.346  32.497   0.966
14602W        W86862  41.615  31.101   4.579
14603W        W86863  30.464  39.825  11.107
14604W        W86864  42.386  36.201  14.708
14605W        W86865  36.016  30.664  10.619
14606W        W86866   4.064  33.509   0.114
14607W        W86867   8.655  36.563   4.431
14608W        W86868   6.598  38.869   3.615
14609W        W86869  19.170  24.178   3.125
14610W        W86870  42.547  25.109  10.554
14611W        W86871  10.303  16.809   0.402
14612W        W86872  21.612  15.213  13.755
14613W        W86873   4.224  38.928   1.393
14614W        W86874  10.308  23.442   4.341
14615W        W86875  36.478  11.450  11.912
14616W        W86876   9.574  31.006   0.333
14617W        W86877  39.330  43.895   0.479
14618W        W86878  11.223  10.127   2.334
14619W        W86879   3.622   8.958   1.841
14620W        W86880  44.164  27.454  13.914
14621W        W86881  28.545  11.299   3.620
14622W        W86882  18.677  24.512   1.442
14623W        W86883  34.292  41.803  12.818
14624W        W86884  28.134   6.868   1.865
14625W        W86885  40.376  17.144  12.276
14626W        W86886   1.472  14.589  12.073
14627W        W86887  39.299   6.258  14.325
14628W        W86888  11.602   2.257  13.935
14629W        W86889   1.439  22.807   2.224
14630W        W86890  27.858  42.839  10.992
14631W        W86891  33.633  42.553   1.810
14632W        W86892  11.421   6.861   0.351
14633W        W86893  32.989  38.031  10.889
14634W        W86894  14.172  12.955   3.688
14635W        W86895   4.741   3.508   0.135
14636W        W86896  22.268   5.208  13.276
14637W        W86897  17.018  18.705   1.794
14638W        W86898  12.556  31.145   4.160
14639W        W86899   1.850  38.484   4.502
14640W        W86900  14.541   6.877  13.584
14641W        W86901  17.820  31.490  14.310
14642W        W86902  35.539  39.753   1.904
14643W        W86903  21.200  24.516   4.182
14644W        W86904   0.737  40.326   2.174
14645W        W86905   2.581  43.471  13.232
14646W        W86906  43.186   4.231  13.781
14647W        W86907  34.846  35.105   2.791
14648W        W86908  21.322  32.946  10.860
14649W        W86909  24.372   7.493   4.071
14650W        W86910  12.253   8.207  11.558
14651W        W86911  35.489  12.922  11.657
14652W        W86912  36.812  19.675   4.641
14653W        W86913  27.162  38.782  13.447
14654W        W86914  40.812  25.851  10.860
14655W        W86915  20.546  15.886  12.295
14656W        W86916  23.003  13.285  12.985
14657W        W86917  17.862  30.496   5.157
14658W        W86918  37.564   9.456   0.944
14659W        W86919   9.686  18.188   3.727
14660W        W86920  27.943  29.466  14.486
14661W        W86921  33.055  13.323   0.876
14662W        W86922  20.999  12.339  14.423
14663W        W86923  41.643  25.644   2.170
14664W        W86924  14.029   1.435   0.790
14665W        W86925  31.241  16.625  11.638
14666W        W86926  37.822  41.032  11.612
14667W        W86927  21.153  20.981  13.529
14668W        W86928  27.308   1.001   3.221
14669W        W86929  17.015  22.902  12.926
14670W        W86930  14.096  14.162  11.523
14671W        W86931  35.305  40.454   1.178
14672W        W86932  18.589   9.977   1.115
14673W        W86933  32.865  15.409  14.872
14674W        W86934  22.247  31.963  12.792
14675W        W86935   7.627  43.445  14.455
14676W        W86936  12.697  15.814  10.213
14677W        W86937  39.198  14.042   2.346
14678W        W86938   6.689  14.842   3.151
14679W        W86939   2.894  22.738  12.535
14680W        W86940  13.774  35.055  12.765
14681W        W86941   1.416  14.850   4.697
14682W        W86942  15.237  13.784   1.403
14683W        W86943  43.682  27.561   1.258
14684W        W86944  21.120  15.791  14.590
14685W        W86945   6.710  29.484   4.636
14686W        W86946  27.733  10.249  12.467
14687W        W86947  36.542  43.356  10.537
14688W        W86948  21.511  34.361   4.031
14689W        W86949   4.518  36.853  14.060
14690W        W86950  23.050  34.127   4.919
14691W        W86951  25.758  21.179  14.509
14692W        W86952   6.558  32.130  12.839
14693W        W86953  16.373  14.668  14.909
14694W        W86954   4.200  36.017  12.842
14695W        W86955  12.166  39.952   0.204
14696W        W86956  12.818  24.927  11.928
14697W        W86957  11.204  21.520  10.854
14698W        W86958  13.612  15.771  11.277
14699W        W86959   2.129  42.671  14.621
14700W        W86960  17.579  32.314  13.968
14701W        W86961  18.800  41.367  14.555
14702W        W86962   8.522   4.328   4.045
14703W        W86963  33.402  23.445   3.688
14704W        W86964  32.871  18.073  11.173
14705W        W86965   0.892   5.653  12.637
14706W        W86966  13.435  43.742   0.168
14707W        W86967  33.349  44.964  11.156
14708W        W86968  13.537  27.551   3.770
14709W        W86969  35.945  42.333  11.722
14710W        W86970   2.380  22.438   1.949
14711W        W86971  17.370  35.718  10.303
14712W        W86972  19.399  41.383   4.299
14713W        W86973  17.733  44.905  10.717
14714W        W86974   6.395  28.920   5.046
14715W        W86975   7.028  42.256   2.866
14716W        W86976  27.863   3.834   3.382
14717W        W86977  26.098   4.438  11.545
14718W        W86978   1.296   8.570   5.010
14719W        W86979  21.516  44.862   0.966
14720W        W86980  14.722  42.059   2.293
14721W        W86981  27.929   2.997  12.435
14722W        W86982  37.872  21.223  13.352
14723W        W86983   7.843  18.201   0.964
14724W        W86984   4.352   8.346  13.044
14725W        W86985  40.571  43.481   1.197
14726W        W86986  27.391  34.617  11.986
14727W        W86987   0.384  42.180   3.190
14728W        W86988  16.066  36.413  13.514
14729W        W86989  31.018  33.807  13.793
14730W        W86990  32.300  38.763   0.844
14731W        W86991  43.006   7.003  11.475
14732W        W86992  13.677  20.635  14.443
14733W        W86993  10.284  30.125   4.762
14734W        W86994  11.122  10.311   3.160
14735W        W86995  21.971  27.040   4.657
14736W        W86996  39.410   4.724  14.886
14737W        W86997   7.504   2.275  12.009
14738W        W86998  10.512  16.265   0.926
14739W        W86999  35.641  43.464   0.027
14740W        W87000   7.931   8.436   4.105
14741W        W87001   1.305  12.420  12.627
14742W        W87002  10.693  17.176   0.236
14743W        W87003  29.874   3.271  10.701
14744W        W87004  13.089  13.335   4.373
14745W        W87005  44.195  12.219  10.816
14746W        W87006  37.098  34.175   0.795
14747W        W87007   8.018   9.798   0.501
14748W        W87008   3.919  35.789   5.130
14749W        W87009  18.310  22.800   5.263
14750W        W87010  17.981  30.676  14.858
14751W        W87011  34.427  29.667  13.880
14752W        W87012  23.958   5.294  14.836
14753W        W87013  38.582  25.244  12.996
14754W        W87014  21.356  28.952   0.361
14755W        W87015   9.638  38.244  14.504
14756W        W87016  12.631  27.695   3.931
14757W        W87017   2.746   0.026  11.454
14758W        W87018   0.538  38.543   4.078
14759W        W87019  37.825   4.142   0.446
14760W        W87020   9.420  35.636   2.756
14761W        W87021  18.541  43.986  10.926
14762W        W87022  13.064   7.873   0.749
14763W        W87023  33.189  18.164  14.375
14764W        W87024  44.077  34.355  13.061
14765W        W87025  23.392  30.096  11.005
14766W        W87026  15.153   4.939  13.293
14767W        W87027  21.811  10.830  11.582
14768W        W87028  23.613  36.067   3.280
14769W        W87029  11.558  24.280  14.520
14770W        W87030  37.876  23.575   2.875
14771W        W87031   8.718  16.632   3.749
14772W        W87032  29.936   3.895  14.013
14773W        W87033  16.556  31.809   0.285
14774W        W87034  42.560  10.871   4.380
14775W        W87035  17.834  22.749   5.065
14776W        W87036  38.019  42.967  12.423
14777W        W87037  42.853  15.311   2.925
14778W        W87038   7.141  41.393  12.361
14779W        W87039  34.445  16.643  12.967
14780W        W87040  25.972  11.099  12.433
14781W        W87041  34.882   3.183  12.879
14782W        W87042  32.840  40.320  12.930
14783W        W87043  20.579   9.306   3.686
14784W        W87044  44.856  14.940  13.621
14785W        W87045   7.743  41.894   4.638
14786W        W87046  39.859  22.439   1.122
14787W        W87047  20.506  23.768  13.453
14788W        W87048  12.242   8.690  14.853
14789W        W87049  12.710  37.497   1.624
14790W        W87050  30.041  27.915   3.656
14791W        W87051  25.800  42.401  12.494
14792W        W87052  16.307  37.413   4.830
14793W        W87053  17.166  28.593   0.444
14794W        W87054  22.607  25.391  14.507
14795W        W87055  37.085  29.488  10.729
14796W        W87056  32.625  37.883   0.285
14797W        W87057  16.031  29.331  10.690
14798W        W87058   4.410  29.184   0.414
14799W        W87059  31.380  32.221  12.956
14800W        W87060   0.014  30.478   5.033
14801W        W87061  25.912  24.694  13.396
14802W        W87062  21.116  24.969  12.639
14803W        W87063  33.309  31.986   4.555
14804W        W87064  27.451  38.452   3.200
14805W        W87065  18.127   1.238  13.363
14806W        W87066  39.941  15.813  11.602
14807W        W87067  18.934  37.000  10.653
14808W        W87068  38.798   4.348   3.834
14809W        W87069  24.474   8.661   3.329
14810W        W87070  27.113  43.014  13.073
14811W        W87071  39.768   7.168   1.435
14812W        W87072  31.294  37.098  11.191
14813W        W87073  10.600  17.470  12.046
14814W        W87074  13.540  28.479  13.574
14815W        W87075  40.530  31.726  11.115
14816W        W87076  24.678   0.415  10.687
14817W        W87077   5.098  26.052  10.262
14818W        W87078  19.332   0.243   3.265
14819W        W87079  11.982  29.640   3.678
14820W        W87080  29.805  29.878   5.488
14821W        W87081  24.153  41.248   0.117
14822W        W87082   3.295  23.162   0.359
14823W        W87083   0.715  20.319   2.371
14824W        W87084  22.331  29.931  14.042
14825W        W87085  43.028  34.965  10.930
14826W        W87086   8.434  33.421   4.032
14827W        W87087  20.292   5.989   1.467
14828W        W87088  11.158  19.685   2.704
14829W        W87089  34.635  10.767   2.756
14830W        W87090   1.067  26.133  13.234
14831W        W87091  19.730   7.988   0.643
14832W        W87092  33.704  25.116  11.928
14833W        W87093  33.107  27.105  12.147
14834W        W87094  42.951  14.328   0.753
14835W        W87095  14.526  28.955   1.945
14836W        W87096  20.299  32.616   2.721
14837W        W87097  33.248  16.592   4.151
14838W        W87098   1.673  33.763  11.647
14839W        W87099  27.661   4.434  12.957
14840W        W87100  31.407  10.056  14.363
14841W        W87101  12.284  28.581  13.383
14842W        W87102  37.019  19.301  10.205
14843W        W87103  34.924   6.578  10.722
14844W        W87104  41.937  17.820   3.781
14845W        W87105   9.806  21.306   1.688
14846W        W87106  42.981  12.381   1.500
14847W        W87107  37.438  25.786   3.234
14848W        W87108   5.199  17.707   0.360
14849W        W87109  33.800   8.422  12.459
14850W        W87110  23.045  19.083  10.225
14851W        W87111  23.685  19.061  14.391
14852W        W87112  41.420  15.534   3.430
14853W        W87113  23.034  33.534  11.981
14854W        W87114  44.299   0.304   2.311
14855W        W87115  27.057   7.114  11.718
14856W        W87116  30.946  27.070  14.371
14857W        W87117  32.159  34.990  12.064
14858W        W87118  41.062  20.044  14.537
14859W        W87119   5.407  19.177  14.310
14860W        W87120  37.476  33.549  10.946
14861W        W87121  29.241  20.806  12.027
14862W        W87122  40.304  28.007   3.714
14863W        W87123  40.903  40.330   0.820
14864W        W87124  26.570  25.120   1.773
14865W        W87125  20.548  35.535   4.672
14866W        W87126  24.508  24.528  12.538
14867W        W87127  21.579  38.057   4.195
14868W        W87128  27.949  33.895   2.408
14869W        W87129  23.883  37.097   2.329
14870W        W87130  14.187  23.263  13.009
14871W        W87131  34.021  35.644  12.435
14872W        W87132  37.839  27.998   3.106
14873W        W87133   9.726  43.748   1.251
14874W        W87134  34.170  27.409   2.720
14875W        W87135  25.573   1.937   4.121
14876W        W87136  28.882  18.573   0.878
14877W        W87137  38.449   9.808  13.433
14878W        W87138   7.563  27.267   2.375
14879W        W87139  11.402  23.220  13.671
14880W        W87140   5.972  14.258   3.119
14881W        W87141   2.195  17.324   4.068
14882W        W87142   7.120  29.424  11.221
14883W        W87143  12.100  28.587   4.980
14884W        W87144  17.989  27.969  14.044
14885W        W87145  24.572  13.532   4.193
14886W        W87146  10.186  31.078  11.620
14887W        W87147  40.857   8.494   2.862
14888W        W87148  36.721  39.183   1.885
14889W        W87149   4.224   2.648   2.403
14890W        W87150  44.365  17.884   3.150
14891W        W87151  17.473   8.628   2.774
14892W        W87152  28.769  13.420  14.806
14893W        W87153  15.111  37.821   2.805
14894W        W87154  23.656  30.396  12.083
14895W        W87155  16.850  32.753   3.381
14896W        W87156  30.965  24.677  13.996
14897W        W87157   7.131  26.522   1.835
14898W        W87158  21.044  22.607  11.035
14899W        W87159  17.239  16.095   5.120
14900W        W87160  44.101  17.643  12.366
14901W        W87161  11.764   1.205  13.014
14902W        W87162  10.267  11.775   3.261
14903W        W87163   5.014  30.898   3.664
14904W        W87164   2.367  38.535   0.278
14905W        W87165   9.316  23.868  11.958
14906W        W87166  14.634  18.711  11.675
14907W        W87167   4.936   2.647  12.644
14908W        W87168   4.396   1.262   0.454
14909W        W87169  39.277  22.293  12.481
14910W        W87170  31.852  12.862   2.135
14911W        W87171  15.523  27.841  13.135
14912W        W87172  25.172  24.075  13.580
14913W        W87173  36.073  11.234   4.565
14914W        W87174  18.021  26.701  13.078
14915W        W87175  37.996  15.511  12.085
14916W        W87176  21.034   3.817  10.461
14917W        W87177  27.504   6.376  11.765
14918W        W87178  36.599  42.532  14.499
14919W        W87179  21.702  14.392   0.326
14920W        W87180  18.635  28.739  14.375
14921W        W87181   2.468  10.712  10.684
14922W        W87182  20.833  27.120   3.658
14923W        W87183  24.497  28.018   4.589
14924W        W87184  22.728  20.760  10.296
14925W        W87185  39.719  40.371   3.343
14926W        W87186  23.986  35.757   0.367
14927W        W87187  15.777   6.178  12.408
14928W        W87188  11.757  36.059  14.916
14929W        W87189  21.812  20.959   0.772
14930W        W87190  11.948  10.301  11.223
14931W        W87191  20.287  18.855  13.413
14932W        W87192  34.341  34.310   3.575
14933W        W87193   1.279  29.966   0.782
14934W        W87194  35.849   7.716  11.611
14935W        W87195   3.254  40.957   4.105
14936W        W87196  28.202  41.467   2.316
14937W        W87197  41.749  12.553  12.531
14938W        W87198  14.272   2.266  12.224
14939W        W87199  35.731  18.271  12.997
14940W        W87200   3.024  22.244   2.740
14941W        W87201  40.859  17.998   3.975
14942W        W87202  14.062  30.699   2.622
14943W        W87203  35.396  37.413   0.200
14944W        W87204  32.008   5.116  14.447
14945W        W87205  33.475  22.193   3.210
14946W        W87206  34.035  42.216  10.729
14947W        W87207  27.557   1.860  14.077
14948W        W87208  35.402   7.275  12.419
14949W        W87209  13.743  36.531   0.344
14950W        W87210  13.215   5.922   0.277
14951W        W87211  29.659  27.929   3.207
14952W        W87212  27.157   1.787  14.417
14953W        W87213  39.411  10.701  14.697
14954W        W87214  29.434  25.021  10.565
14955W        W87215  28.873  17.795   2.292
14956W        W87216  13.232   1.459  11.613
14957W        W87217   1.932  39.140   1.852
14958W        W87218  15.089  17.398   5.033
14959W        W87219  28.888   4.110   1.616
14960W        W87220   6.898  43.168  13.965
14961W        W87221  32.528  29.445   2.795
14962W        W87222  44.759  28.687   3.134
14963W        W87223  15.649  24.995   3.382
14964W        W87224  25.429  27.550  14.018
14965W        W87225  40.087  22.606  11.879
14966W        W87226  28.166  41.213   4.568
14967W        W87227  10.815   5.936   4.345
14968W        W87228  15.347  44.648  12.878
14969W        W87229  32.089  36.880  14.959
14970W        W87230  21.251  17.724   1.929
14971W        W87231  29.854  26.934   3.651
14972W        W87232  15.865  24.516   3.585
14973W        W87233   7.849  21.822   0.033
14974W        W87234  33.565  14.389   1.342
14975W        W87235  14.304  25.686  12.740
14976W        W87236  35.141  16.117  14.785
14977W        W87237  34.043  28.421  10.762
14978W        W87238  15.667  14.741   4.581
14979W        W87239  14.611  31.792  12.626
14980W        W87240   2.188  31.912  11.451
14981W        W87241  18.674  37.060   3.610
14982W        W87242  10.255   4.493  13.908
14983W        W87243  27.091   3.456  14.892
14984W        W87244  23.707   6.231   2.062
14985W        W87245  32.544  10.854   4.926
14986W        W87246  24.779  27.965   5.078
14987W        W87247  30.421  26.116  13.454
14988W        W87248  18.560   6.347   2.604
14989W        W87249  34.724   3.185  10.248
14990W        W87250   3.165  30.467   1.668
14991W        W87251   4.338  35.879   2.944
14992W        W87252  36.571   6.828  10.707
14993W        W87253  34.812  44.878  13.736
14994W        W87254  18.082   1.766   3.241
14995W        W87255  29.114  22.811   2.513
14996W        W87256  43.919  42.903  13.398
14997W        W87257  22.910  42.359  12.574
14998W        W87258  30.121   3.566   2.418
14999W        W87259   7.778   6.315   1.783
15000W        W87260  37.285  34.019  13.877
15001W        W87261  10.897  35.301  13.443
15002W        W87262   0.480  13.795   3.945
15003W        W87263  36.520  11.772  11.516
15004W        W87264  16.957   9.344  12.174
15005W        W87265   6.117  24.713  14.041
15006W        W87266  35.842   9.304  12.403
15007W        W87267  41.625  23.176  12.627
15008W        W87268  30.435  38.299   3.537
15009W        W87269  42.738  21.486   0.900
15010W        W87270   8.351  15.174  13.413
15011W        W87271  28.915  30.152  10.212
15012W        W87272  14.307  25.995   4.884
15013W        W87273  12.840   2.416  13.825
15014W        W87274  22.145   0.956  14.005
15015W        W87275  32.355  19.541   4.374
15016W        W87276  38.111  25.024  12.740
15017W        W87277  27.407  30.976  12.931
15018W        W87278  16.563  32.073  12.531
15019W        W87279  33.018  16.333   4.532
15020W        W87280  38.871  38.393  10.701
15021W        W87281  15.199  23.538   3.769
15022W        W87282  14.209   0.624  12.934
15023W        W87283  24.248   0.852  14.023
15024W        W87284   5.400  27.924   1.309
15025W        W87285  33.138  17.350   0.991
15026W        W87286  14.015  32.659  12.850
15027W        W87287  16.572  25.140  13.032
15028W        W87288  19.077  25.465   1.744
15029W        W87289   1.720  44.271  10.614
15030W        W87290   7.835   8.274   0.895
15031W        W87291  38.796   8.437  11.101
15032W        W87292  39.387  17.575   1.732
15033W        W87293   1.305  13.864   0.996
15034W        W87294  24.685  27.400  14.388
15035W        W87295  10.177  19.054   1.286
15036W        W87296  40.514  21.004  10.676
15037W        W87297  17.089  12.216   0.451
15038W        W87298  18.467  11.912  10.144
15039W        W87299  34.325   6.498  13.108
15040W        W87300   4.311  20.264   2.725
15041W        W87301  44.300   1.956  14.387
15042W        W87302  12.183   0.211   1.862
15043W        W87303  36.514  43.215   4.873
15044W        W87304   6.945  37.612  14.478
15045W        W87305  32.189   6.719   1.181
15046W        W87306  24.529  28.085   2.334
15047W        W87307   9.870  11.682  14.850
15048W        W87308  40.373   5.621  10.758
15049W        W87309  29.727   1.210   4.214
15050W        W87310  10.929   1.300  14.521
15051W        W87311  43.564  16.663  10.719
15052W        W87312  10.888   3.725  12.442
15053W        W87313  26.994  29.161   1.418
15054W        W87314  37.778  44.574   4.689
15055W        W87315   1.407  14.591  13.122
15056W        W87316  23.598  40.900   4.624
15057W        W87317  18.823   5.857  12.200
15058W        W87318  18.747  22.239   1.464
15059W        W87319  21.673  22.590  10.314
15060W        W87320  44.734  29.647  13.156
15061W        W87321  17.528  16.655   2.572
15062W        W87322  26.439  11.328  12.475
15063W        W87323   6.795  11.728   2.657
15064W        W87324  27.082  11.654   4.863
15065W        W87325  23.841  23.836   2.796
15066W        W87326  32.334  32.289   0.234
15067W        W87327  31.152  19.939   1.137
15068W        W87328  16.824  12.283  10.571
15069W        W87329  40.315  41.417   0.832
15070W        W87330   5.479  37.392  12.560
15071W        W87331   0.414  35.506  13.771
15072W        W87332  42.447  36.526  12.586
15073W        W87333   1.164  38.795   0.789
15074W        W87334  36.575  33.088  14.285
15075W        W87335  22.683   3.324   2.104
15076W        W87336  22.436  34.939  10.538
15077W        W87337  27.697  12.672  10.449
15078W        W87338  33.946  30.009   1.297
15079W        W87339  15.799   3.964   0.867
15080W        W87340  43.000  31.583   2.656
15081W        W87341  20.774  32.881  12.846
15082W        W87342  26.406  15.834  12.471
15083W        W87343  20.700  27.618  13.780
15084W        W87344  21.044  43.992  13.098
15085W        W87345  23.612  38.203  14.644
15086W        W87346   8.657  26.237   4.994
15087W        W87347  25.027  25.968   2.824
15088W        W87348   4.683   3.937  13.967
15089W        W87349  11.603  15.676  12.024
15090W        W87350  27.605  10.907   0.885
15091W        W87351  34.497  12.620   2.783
15092W        W87352  30.700  14.236  11.945
15093W        W87353  39.394   0.522  10.580
15094W        W87354  29.963  29.923   3.847
15095W        W87355   6.823  12.501  12.977
15096W        W87356  19.517  12.776  12.627
15097W        W87357  24.445   2.276   3.747
15098W        W87358  10.874  36.123  11.812
15099W        W87359  32.865  15.862   1.949
15100W        W87360  18.487   5.105   4.598
15101W        W87361   4.810   0.393   3.937
15102W        W87362  34.796  31.957   1.814
15103W        W87363  37.773  28.101   0.794
15104W        W87364  35.804   4.973   4.126
15105W        W87365   6.128  13.497  11.929
15106W        W87366  13.930  35.385  11.988
15107W        W87367  30.206   9.828   1.941
15108W        W87368  21.559  27.465  13.120
15109W        W87369  40.213   9.775   4.992
15110W        W87370   1.761  22.772   1.747
15111W        W87371  19.794  24.642  13.543
15112W        W87372  11.127  34.878   1.697
15113W        W87373  11.114  24.926  11.113
15114W        W87374  31.140   4.689   0.923
15115W        W87375  28.863  33.096  12.167
15116W        W87376  28.622   3.918   4.767
15117W        W87377  10.276  40.736   3.219
15118W        W87378  44.719  16.307  12.068
15119W        W87379   2.417  24.721  11.321
15120W        W87380  22.478  35.618  10.992
15121W        W87381   2.344  20.638   2.448
15122W        W87382  14.150  21.126   2.774
15123W        W87383  17.070  19.734   4.004
15124W        W87384  26.407  21.015   0.225
15125W        W87385  32.794   5.942  13.639
15126W        W87386  14.597  30.601  14.861
15127W        W87387  36.429  30.910   4.049
15128W        W87388   6.967  35.582  13.049
15129W        W87389  22.707  31.728   2.229
15130W        W87390   3.910  21.683  11.628
15131W        W87391   8.351  14.527  12.822
15132W        W87392  25.756  42.890   2.980
15133W        W87393  39.086  35.641   1.471
15134W        W87394  24.489   7.193  13.090
15135W        W87395  29.679   1.700  12.943
15136W        W87396  17.670  12.686   2.303
15137W        W87397  18.846  18.154   0.231
15138W        W87398  34.776  17.279  12.537
15139W        W87399  27.759  12.938   2.654
15140W        W87400   4.222  35.986  10.715
15141W        W87401   0.961  22.235   1.918
15142W        W87402  45.000   8.136  14.975
15143W        W87403  15.735  12.313  12.970
15144W        W87404   1.816  10.128  13.261
15145W        W87405  30.109  17.893  11.421
15146W        W87406  37.782  20.945   1.208
15147W        W87407  41.865  31.262  11.839
15148W        W87408  21.721   9.355  14.385
15149W        W87409  16.957  10.675   3.746
15150W        W87410  19.181  26.710  12.563
15151W        W87411  22.523  15.520  10.193
15152W        W87412  39.155  10.182   0.626
15153W        W87413  17.692   1.377  12.505
15154W        W87414  41.016   0.883   3.815
15155W        W87415  30.158  25.930  11.612
15156W        W87416   7.305  17.981   4.222
15157W        W87417  31.375  34.931   3.608
15158W        W87418  15.882   0.875  13.356
15159W        W87419  35.846  11.562  14.288
15160W        W87420  12.042  16.280  13.884
15161W        W87421   9.229  28.068   4.883
15162W        W87422   7.844  27.753  12.866
15163W        W87423  18.534  24.645   0.451
15164W        W87424   6.466  34.079  12.399
15165W        W87425   5.022   7.199  14.615
15166W        W87426   8.797  42.256   4.739
15167W        W87427   7.055  18.552   1.022
15168W        W87428  29.326  11.910  11.064
15169W        W87429   7.849  10.306   2.786
15170W        W87430  31.082   4.125   0.956
15171W        W87431  32.469   1.251   3.311
15172W        W87432   9.250  15.669  11.418
15173W        W87433  30.573  27.445   2.146
15174W        W87434   2.221  25.576  13.406
15175W        W87435  25.549  11.444  10.329
15176W        W87436   0.347   3.975  13.470
15177W        W87437   7.322  40.534   2.280
15178W        W87438  35.548  25.736  13.475
15179W        W87439   3.308  22.208  12.886
15180W        W87440  24.078  12.744   3.712
15181W        W87441   9.254   4.860   3.826
15182W        W87442  36.938  26.048   3.274
15183W        W87443  14.638   2.781   3.281
15184W        W87444  14.355  19.751   5.056
15185W        W87445  31.526  26.499  10.448
15186W        W87446  40.524  34.844  14.963
15187W        W87447   0.702  10.702  13.331
15188W        W87448  32.615  27.104  11.929
15189W        W87449  39.921  34.492   2.623
15190W        W87450  42.468   2.951   4.213
15191W        W87451   7.959   7.434   2.189
15192W        W87452  20.497  11.343  12.508
15193W        W87453  33.430  12.056   3.738
15194W        W87454  23.065  27.532  10.315
15195W        W87455  35.573  44.259  10.554
15196W        W87456  33.888  11.966  12.463
15197W        W87457  33.874   5.708  12.604
15198W        W87458  25.813   6.421  11.369
15199W        W87459   3.694  30.989   4.236
15200W        W87460  22.463   9.824   2.697
15201W        W87461  15.516   4.814   2.751
15202W        W87462  28.702   2.775  12.323
15203W        W87463  14.101  18.641  11.922
15204W        W87464   6.802  25.266   0.333
15205W        W87465  23.041  22.173  13.878
15206W        W87466   0.815  37.916  14.832
15207W        W87467  23.857   5.681   1.091
15208W        W87468  15.767   8.157  10.464
15209W        W87469  14.775  34.113   1.767
15210W        W87470   9.763   3.082  12.588
15211W        W87471  29.139  31.449   3.234
15212W        W87472  41.713  20.780  14.006
15213W        W87473  43.042  38.125   2.344
15214W        W87474  43.502  13.301  12.419
15215W        W87475  34.064   8.082  12.114
15216W        W87476  32.935   2.389  14.632
15217W        W87477  39.531   0.406  12.373
15218W        W87478  33.562  10.316  10.698
15219W        W87479   9.257   6.670  14.899
15220W        W87480  34.071   8.680   4.167
15221W        W87481  33.869  31.547  12.820
15222W        W87482  33.648   9.849  13.964
15223W        W87483   3.380  12.063   4.975
15224W        W87484   1.528  16.951   5.160
15225W        W87485  43.660   3.531   0.010
15226W        W87486  29.982  28.506  11.009
15227W        W87487   7.728  12.094  14.725
15228W        W87488   2.203  18.108  10.693
15229W        W87489  41.139   2.518   0.557
15230W        W87490  18.533  18.608   1.452
15231W        W87491  10.246   8.802   9.827
15232W        W87492  39.496  20.971  13.421
15233W        W87493  41.822  25.630  13.988
15234W        W87494  30.524  16.866  13.102
15235W        W87495  42.442   6.462  11.043
15236W        W87496   1.316  27.941   3.236
15237W        W87497  39.127  10.377  10.558
15238W        W87498  16.786  40.077  13.345
15239W        W87499   0.298  21.532  13.072
15240W        W87500  24.959  40.111  12.580
15241W        W87501  28.861  29.837   9.781
15242W        W87502  34.338  31.660  14.928
15243W        W87503  41.281   6.404   4.803
15244W        W87504  43.976  21.011  10.248
15245W        W87505  35.469   4.968  10.995
15246W        W87506  33.405  39.075   0.940
15247W        W87507  22.499  34.441   2.236
15248W        W87508  19.559   4.000   3.095
15249W        W87509  28.277  40.875  14.104
15250W        W87510  41.886  42.806  10.268
15251W        W87511  23.479  10.739  13.873
15252W        W87512  15.638   3.782  11.133
15253W        W87513  40.597  12.645   0.537
15254W        W87514  30.099   9.875  12.910
15255W        W87515  34.298  33.863  11.443
15256W        W87516  35.415  12.617  13.414
15257W        W87517   8.142  10.680  10.730
15258W        W87518  22.687  31.171  11.184
15259W        W87519  28.886   2.359  14.658
15260W        W87520  14.095  21.774  14.219
15261W        W87521  44.329   4.013  13.833
15262W        W87522  39.011   8.409  14.405
15263W        W87523  36.846  42.951   2.347
15264W        W87524  29.476  29.920   2.269
15265W        W87525  20.755  28.764  12.451
15266W        W87526  24.252  17.148   2.341
15267W        W87527  36.042  35.049  14.904
15268W        W87528   9.431  37.885  12.856
15269W        W87529   7.359  13.171  10.632
15270W        W87530  34.609  17.444  13.064
15271W        W87531  33.575  34.500   3.184
15272W        W87532  23.080  40.415   1.281
15273W        W87533  30.849  19.573   4.754
15274W        W87534   0.103  13.113   3.281
15275W        W87535  43.984  27.473   2.623
15276W        W87536  11.727   3.763  12.954
15277W        W87537  13.319   8.845   1.711
15278W        W87538  10.135  31.062  12.585
15279W        W87539  20.004  14.908   4.195
15280W        W87540   6.999  20.112  13.521
15281W        W87541  41.011  33.682  11.428
15282W        W87542   1.381  28.901  12.561
15283W        W87543  31.361   0.143  14.877
15284W        W87544  34.157  42.744   0.743
15285W        W87545  17.123  31.508  13.813
15286W        W87546  32.509   3.465  10.423
15287W        W87547  29.611  32.624  14.284
15288W        W87548  37.306  22.205   3.102
15289W        W87549  10.662  33.595  13.882
15290W        W87550  12.219   5.404  11.932
15291W        W87551  19.099  36.662  12.250
15292W        W87552  42.828  27.182   1.279
15293W        W87553  33.629  40.884   3.818
15294W        W87554   1.118   7.664  14.300
15295W        W87555   4.687   3.465   2.600
15296W        W87556  32.682  22.497   2.182
15297W        W87557  29.240  28.050   4.902
15298W        W87558  12.148  13.744  13.391
15299W        W87559   3.647   4.783   0.333
15300W        W87560  19.623  10.185   1.139
15301W        W87561  10.624  37.542   3.363
15302W        W87562   2.219   4.493   2.242
15303W        W87563  25.394  38.060   0.006
15304W        W87564  44.556  31.288  10.230
15305W        W87565  31.116  31.991   4.148
15306W        W87566  37.312  12.041  11.133
15307W        W87567   6.484   3.101   1.248
15308W        W87568  44.719  34.091   1.271
15309W        W87569   1.671  44.819   2.082
15310W        W87570   1.866  22.023  10.567
15311W        W87571  20.514   7.058  10.345
15312W        W87572  34.161   9.263   0.416
15313W        W87573   7.118  23.771  12.063
15314W        W87574  29.197  13.878  12.486
15315W        W87575  42.946  27.408  10.967
15316W        W87576  11.103  35.540   4.237
15317W        W87577  34.908  39.415  13.381
15318W        W87578  24.532  43.257  11.099
15319W        W87579  28.805   8.428   2.990
15320W        W87580  16.319  32.995   0.729
15321W        W87581  36.242   8.399  11.104
15322W        W87582   3.774   9.635  11.984
15323W        W87583  43.653   7.825   1.122
15324W        W87584   2.684  17.142  14.593
15325W        W87585  32.629  38.070  12.061
15326W        W87586  18.209   3.253   3.159
15327W        W87587  44.897  43.801  13.022
15328W        W87588  35.801  42.850   4.594
15329W        W87589  18.979  29.023  14.906
15330W        W87590  21.570  17.293  11.660
15331W        W87591  15.222  31.645  10.975
15332W        W87592   2.228  43.727  14.347
15333W        W87593  38.499  11.842  13.768
15334W        W87594  44.256  17.386   0.913
15335W        W87595  12.185  35.639   4.896
15336W        W87596  35.408  10.400   2.270
15337W        W87597   5.709  10.082  12.866
15338W        W87598  28.895  33.810   2.115
15339W        W87599   7.985  44.903  11.634
15340W        W87600   3.445  40.524  11.679
15341W        W87601  43.690   4.323   2.597
15342W        W87602  12.020  28.373   1.865
15343W        W87603  44.839   6.648  14.858
15344W        W87604  21.157  28.198   2.850
15345W        W87605  28.430  44.263  10.235
15346W        W87606  20.666  22.401  14.367
15347W        W87607  40.106  23.748  14.112
15348W        W87608   0.019  20.259  13.053
15349W        W87609   9.598   6.840  10.283
15350W        W87610  13.696  23.983   3.022
15351W        W87611  23.734   7.643   1.510
15352W        W87612  18.069  34.025  14.126
15353W        W87613  39.758  29.003   2.349
15354W        W87614  18.539  39.022  12.578
15355W        W87615   0.543  24.663  12.628
15356W        W87616  41.923  38.497   2.716
15357W        W87617  36.171  37.375   9.690
15358W        W87618  20.952  43.803  12.112
15359W        W87619  29.983  39.048  12.133
15360W        W87620  19.237   6.318   2.008
15361W        W87621  41.092  22.126   0.829
15362W        W87622  23.967  14.025  14.853
15363W        W87623  31.039  42.762  12.069
15364W        W87624  44.338  22.631   1.368
15365W        W87625  37.845  19.043  14.056
15366W        W87626  42.793  18.530   0.946
15367W        W87627  42.114  24.607  11.271
15368W        W87628  17.053  30.579  12.473
15369W        W87629  22.565  41.549  14.878
15370W        W87630  13.230  23.743   1.697
15371W        W87631   7.743  41.881   3.651
15372W        W87632  17.620   1.684   3.543
15373W        W87633  22.574  19.642   4.520
15374W        W87634  18.796  32.133   4.760
15375W        W87635  18.310  13.219  14.287
15376W        W87636  19.188  28.665   0.818
15377W        W87637  19.259   6.752   1.721
15378W        W87638  36.388  23.172   0.666
15379W        W87639  28.810  16.206   2.206
15380W        W87640  36.429  22.978   4.624
15381W        W87641  23.156  17.888   2.625
15382W        W87642  10.266  13.278   2.086
15383W        W87643   0.444  15.555  13.039
15384W        W87644  37.150  35.599  14.616
15385W        W87645  29.056  13.838  14.889
15386W        W87646  39.424  26.682  11.866
15387W        W87647  10.397  17.958  14.861
15388W        W87648  28.616  30.897   3.583
15389W        W87649   7.920  38.617   2.834
15390W        W87650  39.354   1.223   4.281
15391W        W87651   6.946  11.122   0.545
15392W        W87652  25.520  11.844  14.210
15393W        W87653  13.399  28.518  11.605
15394W        W87654   1.375   4.237   4.478
15395W        W87655  20.779   7.080   2.951
15396W        W87656  43.943  14.674  13.364
15397W        W87657   3.136  23.482   2.271
15398W        W87658  32.625  41.651   4.505
15399W        W87659  15.696   9.161   1.683
15400W        W87660  14.036  16.724  12.653
15401W        W87661  31.001  27.532   4.661
15402W        W87662  41.548  35.368   2.946
15403W        W87663  43.148  32.092  13.863
15404W        W87664  15.249  22.340   1.005
15405W        W87665   9.920  27.190   1.317
15406W        W87666   2.492  40.881  11.175
15407W        W87667  17.188  20.053  13.362
15408W        W87668  24.141  27.386   1.278
15409W        W87669  23.975  37.290  10.242
15410W        W87670  44.180  37.085   2.388
15411W        W87671  29.097  38.150   4.472
15412W        W87672  13.415  32.947  11.475
15413W        W87673  26.457   1.555   3.245
15414W        W87674  42.330  32.877  10.623
15415W        W87675  14.866  36.077  13.806
15416W        W87676  10.836  25.721   2.235
15417W        W87677  31.511  21.706   2.770
15418W        W87678  15.897  44.284  10.629
15419W        W87679  25.041   5.384   4.335
15420W        W87680  18.670  19.560   3.540
15421W        W87681  11.141  34.834  10.898
15422W        W87682  36.616  33.121   0.260
15423W        W87683  12.922  33.696  13.026
15424W        W87684  12.936  24.930  13.509
15425W        W87685  16.121  17.793  14.183
15426W        W87686   1.288   1.422   2.284
15427W        W87687   7.198  35.554   2.261
15428W        W87688   1.466  12.775  13.503
15429W        W87689  30.879  33.792  10.353
15430W        W87690  10.711  13.129  11.161
15431W        W87691   1.937  20.577   0.838
15432W        W87692  13.743  29.702   2.396
15433W        W87693  10.062   3.868   0.851
15434W        W87694  39.569  14.260  13.781
15435W        W87695  34.210  41.468   3.409
15436W        W87696  31.640   5.721   3.215
15437W        W87697  28.068  36.256  13.816
15438W        W87698  29.694  29.534  14.348
15439W        W87699  22.050  35.388  11.178
15440W        W87700  26.109  17.223   1.716
15441W        W87701   2.721  10.290   0.531
15442W        W87702  22.515  38.489  14.564
15443W        W87703   2.629  23.559   2.300
15444W        W87704   8.327   8.090  10.684
15445W        W87705   2.406  18.660  14.939
15446W        W87706  22.627  20.798   3.703
15447W        W87707  10.649  32.492  13.881
15448W        W87708   0.344  11.111  11.615
15449W        W87709  24.554  36.781  14.902
15450W        W87710  21.249  21.682   0.382
15451W        W87711   0.394  19.944   2.223
15452W        W87712  18.030  24.927  10.773
15453W        W87713  42.834  35.558   4.189
15454W        W87714  30.786  32.211  13.907
15455W        W87715   4.309  42.096   0.021
15456W        W87716   4.348  30.703  10.963
15457W        W87717  23.746   9.337   2.177
15458W        W87718  27.204  31.701  12.012
15459W        W87719  33.456  25.320  10.165
15460W        W87720   8.746  44.754  10.733
15461W        W87721  26.973   4.338  11.679
15462W        W87722  25.718  25.131  14.859
15463W        W87723   4.700  37.746  14.546
15464W        W87724  32.084  43.651   0.164
15465W        W87725  34.298  18.131   1.118
15466W        W87726  12.886  33.743  11.342
15467W        W87727  36.668  35.630  13.786
15468W        W87728  35.061  18.553   1.700
15469W        W87729   2.374  12.443   2.749
15470W        W87730   3.339   8.306  12.082
15471W        W87731  10.394   4.695   4.114
15472W        W87732  28.867  32.899  13.175
15473W        W87733  33.261  33.972   4.630
15474W        W87734  34.556   5.515  13.981
15475W        W87735  16.736  17.256   1.381
15476W        W87736  44.384  10.078  11.271
15477W        W87737  20.035  33.805   1.984
15478W        W87738  31.703  27.092  11.121
15479W        W87739  32.136  23.152   1.757
15480W        W87740   3.393  15.749  14.412
15481W        W87741  28.561   2.274   3.771
15482W        W87742  31.824  36.242   2.350
15483W        W87743  22.503   9.900   3.772
15484W        W87744   9.694  18.355   2.716
15485W        W87745  33.021   4.889  13.609
15486W        W87746  19.904  33.678   0.272
15487W        W87747  35.854   3.703  13.847
15488W        W87748  30.513  37.331  14.369
15489W        W87749  39.614  20.681   4.846
15490W        W87750  26.380   1.684   0.429
15491W        W87751  17.460  37.392   0.178
15492W        W87752  37.568  10.763  14.614
15493W        W87753  43.903  36.045   4.558
15494W        W87754  31.005  22.726   1.479
15495W        W87755   3.454  34.816  12.494
15496W        W87756  42.009  32.642  13.462
15497W        W87757  22.299  34.689   1.819
15498W        W87758  15.296  33.634   1.198
15499W        W87759   9.889  32.099   3.853
15500W        W87760  17.239   3.642   2.496
15501W        W87761  10.270  34.591  13.864
15502W        W87762   2.416   7.365   0.780
15503W        W87763  27.457  24.146   3.212
15504W        W87764  10.695  44.240   3.344
15505W        W87765  43.907  35.518   4.298
15506W        W87766   8.760  27.048   4.600
15507W        W87767  29.026   6.899  13.738
15508W        W87768  19.670  31.847  11.998
15509W        W87769  18.327  33.640   3.214
15510W        W87770  38.840   5.986   3.439
15511W        W87771  36.890   9.634  13.873
15512W        W87772  19.089  41.892   3.786
15513W        W87773   7.787   7.200  13.923
15514W        W87774  15.153  15.203  10.657
15515W        W87775  42.231  20.525  13.829
15516W        W87776  35.544  15.264  10.866
15517W        W87777   2.892  15.739   0.519
15518W        W87778  31.456  24.507  13.892
15519W        W87779  43.451  34.376  13.447
15520W        W87780  39.852  44.927  11.964
15521W        W87781  39.541  15.051  10.753
15522W        W87782  14.295   9.351  11.693
15523W        W87783  27.140  29.540   4.739
15524W        W87784  14.171  14.342   3.347
15525W        W87785  42.781  16.175  12.345
15526W        W87786  29.835  40.057   0.715
15527W        W87787  24.443  42.400  12.769
15528W        W87788  12.155  41.793   4.324
15529W        W87789   6.780  29.027  12.832
15530W        W87790  40.672  14.626   3.200
15531W        W87791  23.615   8.115  14.474
15532W        W87792  28.545  14.858   1.644
15533W        W87793  11.031  36.519   4.134
15534W        W87794  29.412  30.266   1.011
15535W        W87795   6.939  18.311  11.537
15536W        W87796  22.218  33.146  14.789
15537W        W87797  39.352  37.562  11.531
15538W        W87798  19.362  28.330   2.260
15539W        W87799   6.285  20.442  14.672
15540W        W87800  33.365   2.367   1.011
15541W        W87801  18.366   9.135  11.187
15542W        W87802  31.589  29.422  10.623
15543W        W87803   2.364  22.382   3.943
15544W        W87804  27.585  18.567  10.671
15545W        W87805  36.308   4.789   4.847
15546W        W87806  20.012   6.944  14.364
15547W        W87807   7.223  18.388   3.256
15548W        W87808   4.840  11.594  13.133
15549W        W87809  24.497  23.021   3.681
15550W        W87810  23.531   5.051  11.510
15551W        W87811  14.386   0.214   2.146
15552W        W87812   4.699  15.801  10.489
15553W        W87813  42.893   2.926  13.886
15554W        W87814  32.172  43.174   4.346
15555W        W87815  28.182  18.985   2.619
15556W        W87816  33.577  18.009   3.329
15557W        W87817  24.086  40.682  13.156
15558W        W87818   9.416  42.526  13.557
15559W        W87819  25.630  28.321  10.384
15560W        W87820  10.884  35.515  12.011
15561W        W87821  18.987  34.890  12.083
15562W        W87822  29.047  12.191  12.433
15563W        W87823  10.622   2.739   2.857
15564W        W87824  43.429  41.085   1.080
15565W        W87825  33.819  17.837  12.854
15566W        W87826  10.679   3.641   2.778
15567W        W87827  35.516  12.284   0.462
15568W        W87828  32.035  35.890   4.242
15569W        W87829  38.518   7.815   4.879
15570W        W87830  18.600  16.065  13.489
15571W        W87831  38.526  15.721   0.863
15572W        W87832   1.774  43.110   4.517
15573W        W87833  43.931  29.640   2.145
15574W        W87834   7.180  26.966   2.189
15575W        W87835  28.198  27.972   4.816
15576W        W87836   0.516  22.260  11.947
15577W        W87837  14.324   0.495   4.304
15578W        W87838   3.719  15.144  13.608
15579W        W87839  15.034   9.881  12.436
15580W        W87840  15.855   9.690  10.954
15581W        W87841  38.402  27.298   2.797
15582W        W87842  37.358  15.245  12.979
15583W        W87843  43.335   5.894  11.075
15584W        W87844  41.550   8.692  12.454
15585W        W87845   5.591  14.852   1.779
15586W        W87846   5.696  29.551  14.449
15587W        W87847   3.451  17.214   3.790
15588W        W87848  31.426  38.334  13.358
15589W        W87849  27.904  40.013  10.579
15590W        W87850  27.196   3.798   4.408
15591W        W87851  12.277   7.864  11.949
15592W        W87852  14.534  35.462   3.706
15593W        W87853  15.330  19.613   3.084
15594W        W87854  25.980   2.160   3.885
15595W        W87855  26.232   9.456  11.261
15596W        W87856  41.038  41.738   3.174
15597W        W87857   1.484  15.347   1.963
15598W        W87858  37.211   3.793   1.714
15599W        W87859   8.137  35.335   1.871
15600W        W87860  32.782  42.669   0.835
15601W        W87861  43.507   4.495   3.954
15602W        W87862  26.342  28.318   3.339
15603W        W87863  12.188   8.203  12.534
15604W        W87864   7.434  40.086  14.416
15605W        W87865  16.820  19.588  10.720
15606W        W87866  42.315  40.347  13.847
15607W        W87867  30.338  23.177   1.132
15608W        W87868  36.590  34.657  11.602
15609W        W87869  13.640  31.906   3.532
15610W        W87870  34.453  39.036   2.847
15611W        W87871  41.488  33.959   3.303
15612W        W87872  20.519  34.190   4.028
15613W        W87873  18.781  20.839  12.390
15614W        W87874  13.767  12.647   0.469
15615W        W87875  16.346  15.888  11.710
15616W        W87876  26.526  30.400   1.379
15617W        W87877  21.303  41.221   1.839
15618W        W87878  33.000  17.904  11.642
15619W        W87879   2.295  41.366   4.866
15620W        W87880   9.728  41.971   0.851
15621W        W87881  12.866   6.682   2.648
15622W        W87882  39.382  43.882   1.501
15623W        W87883  10.940  42.510  14.374
15624W        W87884  25.575   6.838   2.819
15625W        W87885  42.399  37.498   1.225
15626W        W87886  17.107  41.683   2.549
15627W        W87887  11.029  11.730   4.450
15628W        W87888  13.226  29.151  12.135
15629W        W87889   9.236  24.537   1.729
15630W        W87890  20.239  16.250  10.373
15631W        W87891  43.735  10.383  11.830
15632W        W87892  20.188  30.050   2.181
15633W        W87893  26.003  37.361  14.726
15634W        W87894  12.566   6.965  14.324
15635W        W87895  44.861  12.800  14.325
15636W        W87896  21.074   1.409  14.808
15637W        W87897  37.155  27.128   2.293
15638W        W87898  15.241  36.624  12.916
15639W        W87899  17.978   7.631   4.919
15640W        W87900  44.293   8.855   9.975
15641W        W87901  34.009  10.346  13.392
15642W        W87902  26.022  36.108   0.917
15643W        W87903   2.928  21.395  14.227
15644W        W87904   3.556  30.063  10.758
15645W        W87905  28.995  32.429   4.303
15646W        W87906  19.509  33.990   3.219
15647W        W87907  12.270  18.030  10.701
15648W        W87908  25.052  24.685   3.236
15649W        W87909  39.573  18.335  13.956
15650W        W87910  16.794  33.370  11.679
15651W        W87911  29.374  20.642   2.618
15652W        W87912  21.324  36.030  12.963
15653W        W87913   1.793   7.396   2.917
15654W        W87914  21.498   7.919  14.774
15655W        W87915   0.854   9.947  14.404
15656W        W87916  42.247  35.000  14.527
15657W        W87917  21.775   2.379  14.250
15658W        W87918  27.641  27.443  10.965
15659W        W87919  28.437   9.130   4.115
15660W        W87920  40.775  28.482   1.656
15661W        W87921  21.557  19.339   1.634
15662W        W87922  37.869  29.355   3.183
15663W        W87923   4.461  12.125   2.506
15664W        W87924  22.608  21.159  12.085
15665W        W87925   9.243  36.452  11.981
15666W        W87926  17.794  21.147   1.506
15667W        W87927   0.215  11.677   3.399
15668W        W87928  33.498   9.312  13.951
15669W        W87929  41.435   7.872  10.723
15670W        W87930   6.642  21.065  13.517
15671W        W87931  22.658  24.623  11.598
15672W        W87932   1.277   6.270   3.837
15673W        W87933  39.851  35.865   4.396
15674W        W87934   2.206  12.275  11.740
15675W        W87935  39.902  25.714  12.039
15676W        W87936  37.395  21.967  12.595
15677W        W87937  28.909  27.624   4.522
15678W        W87938   8.911  41.831  14.454
15679W        W87939   6.516  28.680   0.434
15680W        W87940  31.435   2.413  13.949
15681W        W87941   1.969   0.492  12.566
15682W        W87942  19.499  36.340  11.451
15683W        W87943  13.418  18.657  14.327
15684W        W87944  11.470  30.036   0.824
15685W        W87945  13.192  16.592   0.182
15686W        W87946  10.664  13.223  13.713
15687W        W87947   8.504  28.515  11.525
15688W        W87948  44.614  31.133   3.267
15689W        W87949  23.219  14.175  11.637
15690W        W87950  22.164  41.189  11.986
15691W        W87951  28.032  37.446   4.226
15692W        W87952  31.986  22.646   1.663
15693W        W87953  13.187   6.375   3.382
15694W        W87954  27.394  39.581   1.328
15695W        W87955   9.921   9.560   0.294
15696W        W87956  24.090   8.399  14.003
15697W        W87957  44.543   5.817  13.001
15698W        W87958   4.447  43.946   3.414
15699W        W87959  33.634  11.419  14.057
15700W        W87960  37.365   0.787   1.168
15701W        W87961  36.023  40.039   4.309
15702W        W87962  40.794  24.432  14.531
15703W        W87963  12.391  44.526  12.470
15704W        W87964  36.896  22.094  11.412
15705W        W87965  44.953  44.383  10.306
15706W        W87966   9.381  43.031  11.677
15707W        W87967  42.481  23.730   0.421
15708W        W87968  27.390  28.136  14.483
15709W        W87969  36.160  38.802  13.438
15710W        W87970  40.696  19.553   2.850
15711W        W87971   3.532   5.332  11.631
15712W        W87972  30.143  15.901  13.266
15713W        W87973  11.338  15.698  10.998
15714W        W87974  27.279  24.692  11.100
15715W        W87975  29.694  36.019   0.242
15716W        W87976   2.212  27.842   3.183
15717W        W87977  14.223  20.569   1.458
15718W        W87978  44.732   3.187   3.590
15719W        W87979  32.117   6.604  13.506
15720W        W87980   4.312  35.925  14.289
15721W        W87981   7.876  18.192  10.340
15722W        W87982  32.619  36.965   2.789
15723W        W87983  32.164  39.465   1.655
15724W        W87984   8.768   6.250  14.810
15725W        W87985   5.878  12.226   2.210
15726W        W87986  21.851  24.676   2.381
15727W        W87987  29.708  27.746   0.222
15728W        W87988  43.128  20.629   0.236
15729W        W87989  24.152  23.710   2.398
15730W        W87990  35.592  43.042   0.850
15731W        W87991  18.731  12.881   0.443
15732W        W87992  20.782  26.123   3.630
15733W        W87993  30.737   1.887   0.568
15734W        W87994  29.151  14.225  14.227
15735W        W87995  13.771  30.422   3.845
15736W        W87996  17.460  44.029  13.454
15737W        W87997   2.713  22.031  11.235
15738W        W87998  42.405  36.786   1.828
15739W        W87999  39.240   0.560  14.293
15740W        W88000  10.568  10.319  10.202
15741W        W88001  44.347   5.615   1.526
15742W        W88002  23.864  32.408  13.350
15743W        W88003   4.829  20.929  13.056
15744W        W88004  39.380  33.081   0.283
15745W        W88005   0.498   3.031  14.865
15746W        W88006   9.613   8.383  13.056
15747W        W88007   6.702  40.435  11.436
15748W        W88008  18.264   1.748  11.461
15749W        W88009   1.179   5.785   1.730
15750W        W88010  25.701  12.743   1.915
15751W        W88011  12.214  20.584  12.165
15752W        W88012  16.608  44.127  13.418
15753W        W88013  21.613  39.023   0.461
15754W        W88014  24.709  35.328   1.353
15755W        W88015  37.915  20.019   2.778
15756W        W88016   8.004   1.989  11.278
15757W        W88017  33.146  39.081   2.269
15758W        W88018  32.561   2.200   4.191
15759W        W88019  11.965  13.764   1.505
15760W        W88020  35.134  44.592   0.221
15761W        W88021  26.604  34.944   0.777
15762W        W88022  44.241   3.719  10.378
15763W        W88023  39.262  27.129  11.611
15764W        W88024  36.484  26.517   4.569
15765W        W88025  31.068  23.584   4.503
15766W        W88026  43.954  44.823   1.357
15767W        W88027  42.554  44.024   3.783
15768W        W88028  16.849  35.847   2.333
15769W        W88029  38.246  24.934   1.926
15770W        W88030  29.800   8.356   1.392
15771W        W88031  39.881  19.731   0.046
15772W        W88032  29.039  32.387  13.860
15773W        W88033  44.548  14.675   1.177
15774W        W88034  41.277  16.652   1.422
15775W        W88035  28.433  28.178  12.640
15776W        W88036  27.981   9.293  10.330
15777W        W88037   1.795  24.694   1.206
15778W        W88038   1.808  26.464   2.726
15779W        W88039  26.955  20.104   4.949
15780W        W88040  17.707  23.772   3.639
15781W        W88041  19.216  29.691  14.225
15782W        W88042  27.349  37.214   0.942
15783W        W88043  43.050  41.212  13.871
15784W        W88044  10.547  11.786   4.639
15785W        W88045  18.984  22.683  11.065
15786W        W88046  25.194  42.657  11.625
15787W        W88047  35.114   0.936   3.383
15788W        W88048  28.174  41.842   4.122
15789W        W88049   5.918   5.535  10.613
15790W        W88050  41.063  13.041  10.631
15791W        W88051  32.245  35.916   4.745
15792W        W88052   2.679  38.961   1.159
15793W        W88053  34.512  44.494  12.434
15794W        W88054  38.365  16.852  12.864
15795W        W88055  24.550  27.024   0.622
15796W        W88056  41.456  16.102  12.875
15797W        W88057  30.890  10.200   3.192
15798W        W88058  17.130  12.203   3.873
15799W        W88059  18.197  39.542  11.639
15800W        W88060  28.599  37.224   2.181
15801W        W88061   3.898  17.073  14.898
15802W        W88062   2.673  15.233  14.272
15803W        W88063  37.874   6.720   0.636
15804W        W88064   6.954  11.097  11.220
15805W        W88065  25.708  44.039   4.723
15806W        W88066  20.487   0.775   0.923
15807W        W88067  43.120  17.423  13.976
15808W        W88068  30.079  23.811   2.326
15809W        W88069  20.183  19.194   5.073
15810W        W88070  27.951  27.992   0.764
15811W        W88071  19.073  10.895  10.865
15812W        W88072  25.414  23.916  13.150
15813W        W88073  26.206  13.809   3.672
15814W        W88074  22.602  10.220   2.327
15815W        W88075  40.315  20.991   3.210
15816W        W88076  32.821   4.341  12.366
15817W        W88077  19.673  19.732   4.566
15818W        W88078   0.699  29.051  13.904
15819W        W88079  28.453  42.957  13.158
15820W        W88080   4.550  22.776  11.925
15821W        W88081  26.935  13.345   3.169
15822W        W88082   9.311  20.479   3.095
15823W        W88083  35.056  14.702  14.219
15824W        W88084  26.725  42.726   4.395
15825W        W88085   9.806  29.141  10.669
15826W        W88086   0.764  31.156  11.409
15827W        W88087  10.456  35.023  14.112
15828W        W88088  44.460  10.538   1.940
15829W        W88089  26.883  17.026  11.194
15830W        W88090  40.437  39.508   1.812
15831W        W88091   7.880  21.729  14.130
15832W        W88092  42.372  34.024  14.287
15833W        W88093   4.573  22.941   4.168
15834W        W88094  10.930  14.590   4.661
15835W        W88095  25.965  35.082   2.891
15836W        W88096  11.760  17.550   4.767
15837W        W88097  28.632  17.098  12.963
15838W        W88098  12.651   2.967  14.569
15839W        W88099  35.750  22.736  13.083
15840W        W88100  30.250  34.351  10.803
15841W        W88101  42.290  30.457  10.932
15842W        W88102  25.324  39.842  13.803
15843W        W88103  22.615   8.182  13.991
15844W        W88104  10.055  34.418   4.284
15845W        W88105  32.622  11.122   2.572
15846W        W88106   3.727  15.144   0.062
15847W        W88107  32.680  14.819  12.493
15848W        W88108   6.675   1.317  11.371
15849W        W88109  38.061  14.795  13.321
15850W        W88110  35.565  44.868  12.029
15851W        W88111  20.723  37.584  13.098
15852W        W88112  31.622  31.783   0.794
15853W        W88113  13.314   3.711  13.882
15854W        W88114  23.028  41.031   3.127
15855W        W88115   7.354   1.256   3.349
15856W        W88116  27.603  18.039   4.498
15857W        W88117  24.882  23.471   4.544
15858W        W88118  26.195  13.288  12.845
15859W        W88119  11.100  27.912   1.867
15860W        W88120  10.312   7.465   2.243
15861W        W88121  27.861  11.801  14.392
15862W        W88122  37.719  20.529   3.505
15863W        W88123   4.824  18.622   1.893
15864W        W88124   6.400  38.126   1.281
15865W        W88125  20.031  19.991   5.361
15866W        W88126  28.395  28.711   1.241
15867W        W88127   5.834   6.899  13.484
15868W        W88128   7.794  11.755  14.277
15869W        W88129  12.397  19.537  13.984
15870W        W88130  26.710  30.637   3.077
15871W        W88131  21.890  41.598  11.874
15872W        W88132  31.783  39.243  12.484
15873W        W88133  29.083  27.534   0.996
15874W        W88134  32.625  29.862   4.168
15875W        W88135  27.649  20.105  14.542
15876W        W88136  33.332  18.327   1.136
15877W        W88137  30.090   5.757   0.277
15878W        W88138  29.664  21.437   0.976
15879W        W88139  42.518  27.721   1.796
15880W        W88140  44.000  31.131  13.292
15881W        W88141  38.987  29.351   0.511
15882W        W88142  29.680  31.990   1.321
15883W        W88143  43.997  15.262   0.318
15884W        W88144  23.527  22.753   3.582
15885W        W88145  36.786  12.119  11.188
15886W        W88146  41.983  10.315   3.430
15887W        W88147  42.867  13.085  12.054
15888W        W88148  20.819  34.159   4.453
15889W        W88149   8.319   0.235  13.619
15890W        W88150  35.998  19.583   5.032
15891W        W88151  15.357  30.223  14.427
15892W        W88152   5.860   7.882   0.713
15893W        W88153   2.047   7.721   0.825
15894W        W88154   6.192   6.400  12.362
15895W        W88155  34.832  10.419  14.944
15896W        W88156  25.919  23.633   0.531
15897W        W88157  41.599   3.276   4.639
15898W        W88158  13.216  42.470  10.952
15899W        W88159   8.844  12.536  11.153
15900W        W88160  20.062   6.270   0.375
15901W        W88161   8.330  33.887   3.856
15902W        W88162  34.978  34.867   1.225
15903W        W88163  15.223  11.874  14.406
15904W        W88164  12.825  29.719  13.822
15905W        W88165   9.147  17.594  10.721
15906W        W88166   8.620  41.048  10.325
15907W        W88167  20.091   8.822  12.858
15908W        W88168  19.102  28.663   4.019
15909W        W88169  40.256   0.827  13.911
15910W        W88170  13.785  21.737  11.489
15911W        W88171  24.207   2.262  12.124
15912W        W88172  25.163   9.277   4.346
15913W        W88173  36.323  11.892  13.383
15914W        W88174  22.801  37.875   3.624
15915W        W88175  29.035  39.527  12.154
15916W        W88176  37.883  15.528   1.649
15917W        W88177  21.324   4.725  12.264
15918W        W88178   7.611   3.358   4.601
15919W        W88179  43.572   8.277   0.879
15920W        W88180   0.593  31.650  11.307
15921W        W88181  11.990  24.780   1.794
15922W        W88182  32.941  39.317   2.707
15923W        W88183  21.184  30.083  12.489
15924W        W88184  26.295   3.745  12.469
15925W        W88185   8.159  40.568  10.359
15926W        W88186  33.392  13.191  14.371
15927W        W88187   2.453   4.797  11.137
15928W        W88188  20.482  17.665  13.714
15929W        W88189  35.845   9.784   3.260
15930W        W88190   2.873   2.984   1.714
15931W        W88191  22.141  33.450  13.338
15932W        W88192  12.722  25.107   3.737
15933W        W88193  36.102   0.927  10.984
15934W        W88194  39.514  20.516  13.160
15935W        W88195   7.570  13.668  11.509
15936W        W88196   3.813  39.063  13.088
15937W        W88197  43.729  36.806   4.611
15938W        W88198  20.059  34.687   4.522
15939W        W88199   0.257  31.844  13.875
15940W        W88200  27.092   5.849   2.658
15941W        W88201  12.080  33.615   1.951
15942W        W88202  37.002  30.370   3.656
15943W        W88203  27.594  33.849  11.021
15944W        W88204   0.274  33.168  14.501
15945W        W88205  42.283  33.172   2.746
15946W        W88206  12.807  41.812   1.685
15947W        W88207   4.528   9.851  11.544
15948W        W88208  33.329   5.547  12.470
15949W        W88209  44.803  21.218  12.713
15950W        W88210  13.774  10.825  13.786
15951W        W88211  38.304  23.717  11.083
15952W        W88212   2.668   9.244  10.745
15953W        W88213  37.459  10.326  13.821
15954W        W88214  24.080  29.404   2.944
15955W        W88215  17.857   3.245  14.344
15956W        W88216  33.551  25.719   2.007
15957W        W88217   5.831  32.979   1.347
15958W        W88218  19.161   0.050  10.751
15959W        W88219  11.879  24.745   2.303
15960W        W88220  14.781  16.381  13.888
15961W        W88221  11.285   9.539   0.499
15962W        W88222  31.118  28.053   4.616
15963W        W88223  26.051  37.305   2.111
15964W        W88224  36.599  24.450  11.522
15965W        W88225  33.015  28.238  11.463
15966W        W88226  43.956  31.619  10.996
15967W        W88227  21.143  31.909  14.356
15968W        W88228  19.475  32.520   0.033
15969W        W88229  29.904  12.486   4.164
15970W        W88230  35.400  31.308  12.359
15971W        W88231  10.751  25.655   3.162
15972W        W88232  15.169  33.584  12.017
15973W        W88233   6.925   1.536   0.243
15974W        W88234  42.974  13.044   0.900
15975W        W88235  13.241  44.536  13.026
15976W        W88236  42.823  27.670  11.405
15977W        W88237  40.808   9.189   0.963
15978W        W88238  44.356  25.421  13.983
15979W        W88239  37.328   1.953   1.022
15980W        W88240  33.916  28.666   4.162
15981W        W88241  17.248   0.215  12.352
15982W        W88242   3.870  36.602   3.193
15983W        W88243   5.780  41.529   2.824
15984W        W88244   7.789  35.375   1.483
15985W        W88245  36.864  44.299   2.718
15986W        W88246  13.123   8.680  12.512
15987W        W88247  13.803   8.710   2.299
15988W        W88248  21.377  26.452   0.657
15989W        W88249  15.395  14.525  11.086
15990W        W88250  34.989  15.838  13.425
15991W        W88251   6.078  24.111  14.497
15992W        W88252  24.985   9.624   0.712
15993W        W88253  11.089  43.225   0.885
15994W        W88254  11.299  24.788  12.425
15995W        W88255  41.495   0.274   1.903
15996W        W88256  29.093  40.400  11.580
15997W        W88257  41.587  17.402  11.848
15998W        W88258  22.208   6.865   0.183
15999W        W88259  23.412  13.280   4.018
16000W        W88260  24.720  16.462  13.214
16001W        W88261   1.429  44.508  14.366
16002W        W88262  42.239  16.352   0.181
16003W        W88263   9.844  18.316  10.759
16004W        W88264   8.628  11.227  11.726
16005W        W88265  12.206  36.807   4.639
16006W        W88266  19.831  29.592  12.497
16007W        W88267   7.888   1.976   3.771
16008W        W88268   3.837  14.786   3.885
16009W        W88269   2.787  11.319   0.334
16010W        W88270  34.931  35.571  14.536
16011W        W88271   2.391  25.063  12.059
16012W        W88272  23.957  24.639  11.595
16013W        W88273  35.018  32.534   2.633
16014W        W88274  10.573  12.593   2.870
16015W        W88275  43.803  21.347   4.099
16016W        W88276  23.527  20.132  10.706
16017W        W88277  16.268  24.251  12.033
16018W        W88278   3.521   6.771   4.356
16019W        W88279  43.661  26.194   3.801
16020W        W88280  12.894  39.079  11.502
16021W        W88281  18.503  41.598  11.200
16022W        W88282   4.245   2.280   0.441
16023W        W88283   7.035   2.918   0.431
16024W        W88284  35.442   1.698  13.560
16025W        W88285  35.282  37.109   0.813
16026W        W88286  30.446  19.294  11.967
16027W        W88287  26.560  20.221  13.963
16028W        W88288   5.252   9.136  13.588
16029W        W88289   8.460  26.673   3.974
16030W        W88290  26.673  28.021   2.429
16031W        W88291  21.267  41.767  14.667
16032W        W88292   7.985  35.309  10.952
16033W        W88293  28.093  32.279  10.823
16034W        W88294  27.095  21.991  13.864
16035W        W88295  42.348  44.907  12.596
16036W        W88296  10.241  44.264   5.144
16037W        W88297  16.232  17.975  12.337
16038W        W88298   9.232  17.551  11.633
16039W        W88299  10.907  43.946  13.450
16040W        W88300  29.042  30.147   3.518
16041W        W88301  40.377   1.412   4.327
16042W        W88302  33.491  38.376  14.995
16043W        W88303   9.179  23.190   2.424
16044W        W88304   1.966  33.423  12.538
16045W        W88305  10.270   6.605   1.736
16046W        W88306  21.167  15.265   3.300
16047W        W88307  40.971  14.322  11.878
16048W        W88308  34.900  33.890  13.805
16049W        W88309   9.693  37.005  12.339
16050W        W88310   4.274  11.578   0.471
16051W        W88311  12.117  41.582  11.981
16052W        W88312  29.933  32.999  10.969
16053W        W88313  11.583   7.591   0.932
16054W        W88314   9.291  30.608   2.907
16055W        W88315  44.536  30.541  14.768
16056W        W88316  26.104  28.934  12.025
16057W        W88317  35.469  33.155  13.383
16058W        W88318  21.644  19.441   0.396
16059W        W88319  20.096  20.631   1.380
16060W        W88320  35.194  39.006   4.096
16061W        W88321  17.067  32.122  11.098
16062W        W88322  29.194   9.329   0.687
16063W        W88323   1.256  36.768  14.482
16064W        W88324  22.175  24.150   4.086
16065W        W88325  10.809  12.586   3.712
16066W        W88326   9.192  31.722  12.048
16067W        W88327  34.449   8.623  11.217
16068W        W88328  35.279   3.807   4.707
16069W        W88329  28.432  36.627   3.038
16070W        W88330  28.179  13.602  12.607
16071W        W88331  15.570  16.286  11.452
16072W        W88332  32.377   8.302   2.768
16073W        W88333  34.472  15.146  10.647
16074W        W88334  16.642  34.552  14.446
16075W        W88335  16.157  33.950   4.728
16076W        W88336  32.102  10.190  12.989
16077W        W88337   6.197  20.012   3.160
16078W        W88338  29.977  44.900  12.029
16079W        W88339  29.471  34.938   0.614
16080W        W88340  21.210  27.225   2.712
16081W        W88341  17.142  34.299   0.316
16082W        W88342  12.436  41.080   1.781
16083W        W88343   9.983  13.414  14.947
16084W        W88344   2.055  15.825  13.093
16085W        W88345  24.564  27.865  10.478
16086W        W88346  13.544  31.985   4.563
16087W        W88347  28.642  37.154   4.547
16088W        W88348  26.789  28.130   4.241
16089W        W88349  25.740  24.264   3.638
16090W        W88350  38.438  31.342  10.618
16091W        W88351  23.525  20.816   2.021
16092W        W88352   6.449  25.153   3.766
16093W        W88353  20.982  10.348   0.468
16094W        W88354  32.421  12.357  12.599
16095W        W88355  17.731   4.314   2.308
16096W        W88356   5.319  35.347  14.985
16097W        W88357  16.215   4.461   0.301
16098W        W88358  36.592  29.426   2.615
16099W        W88359  10.587  39.007  13.723
16100W        W88360  27.588  44.813   0.389
16101W        W88361   6.715  32.179  11.186
16102W        W88362  21.046  12.762   1.741
16103W        W88363   4.278   1.512   1.815
16104W        W88364  25.124  43.925  14.028
16105W        W88365  39.309  14.642   2.703
16106W        W88366   3.670  37.542   3.627
16107W        W88367  15.554  41.960  11.120
16108W        W88368  21.261   1.720   0.186
16109W        W88369  23.297  11.880  13.640
16110W        W88370   9.046  15.697  14.912
16111W        W88371  14.313  37.760  13.053
16112W        W88372   4.651  37.909   2.343
16113W        W88373   7.262  41.820  12.038
16114W        W88374  27.546  14.182   3.655
16115W        W88375  23.230  35.516   0.776
16116W        W88376  18.018  26.939   1.696
16117W        W88377  25.385  18.864  13.009
16118W        W88378   9.970  30.028  13.075
16119W        W88379  27.994  39.085  14.009
16120W        W88380  15.672  10.195  13.490
16121W        W88381  21.200  43.831  14.029
16122W        W88382   1.769   5.168  12.466
16123W        W88383  30.729  29.552  10.950
16124W        W88384  38.561  21.996  13.256
16125W        W88385  43.733  35.960   3.006
16126W        W88386  11.332  33.086   1.794
16127W        W88387   4.285  23.541   0.374
16128W        W88388   9.861  34.406  10.605
16129W        W88389  43.800  11.151  13.830
16130W        W88390  10.159  13.306   1.084
16131W        W88391   4.220  23.008  11.121
16132W        W88392  35.920  28.587  12.994
16133W        W88393  10.279   0.923  10.686
16134W        W88394  29.261  30.636  13.002
16135W        W88395  19.495  16.163   3.621
16136W        W88396   3.918  16.243   1.266
16137W        W88397  26.122  43.509  13.051
16138W        W88398  27.222  27.103   2.909
16139W        W88399  42.245  11.211   3.242
16140W        W88400  42.386  35.740   1.671
16141W        W88401  37.126   8.942  13.407
16142W        W88402   7.704  36.138  14.949
16143W        W88403  39.064  36.536   0.337
16144W        W88404  34.988  32.982   1.912
16145W        W88405   9.845   3.890  13.118
16146W        W88406  43.421   5.591  10.661
16147W        W88407  42.368   2.431  11.845
16148W        W88408  17.612  25.601   3.960
16149W        W88409  35.759  31.413  12.706
16150W        W88410  39.577  24.019   3.078
16151W        W88411  42.855   0.980  13.319
16152W        W88412   0.997  16.406   3.915
16153W        W88413   5.247  24.776   1.003
16154W        W88414  43.387  42.372   0.449
16155W        W88415  30.639   3.190  13.081
16156W        W88416   8.203  27.370   9.802
16157W        W88417  15.044  19.616   2.657
16158W        W88418  31.551  25.305   3.766
16159W        W88419  33.845  18.810   2.987
16160W        W88420   5.383   0.421   2.672
16161W        W88421   7.741  17.148   1.940
16162W        W88422  40.110   7.541   1.309
16163W        W88423   5.156  34.916  14.756
16164W        W88424  38.494  25.468  13.470
16165W        W88425  31.028  24.724   2.705
16166W        W88426   2.150  44.250   1.369
16167W        W88427  12.209   3.211  14.541
16168W        W88428  10.875  36.746   4.920
16169W        W88429  14.008  18.221  14.832
16170W        W88430  28.758   6.549   3.225
16171W        W88431  36.016  12.590   0.647
16172W        W88432  43.178  18.620  13.435
16173W        W88433   5.925  13.166   2.372
16174W        W88434   1.373  38.764   1.266
16175W        W88435  14.332  35.846  13.424
16176W        W88436   9.434  12.108  12.455
16177W        W88437  17.986  28.628   2.616
16178W        W88438  15.720  28.063  14.678
16179W        W88439   9.822  10.853   4.115
16180W        W88440  16.010  21.596  14.489
16181W        W88441  25.744   7.107   4.139
16182W        W88442  24.165  35.901  11.339
16183W        W88443   4.390  27.669   0.777
16184W        W88444  16.360   3.505  12.398
16185W        W88445  17.045  15.593  12.892
16186W        W88446  20.147  30.105   0.747
16187W        W88447  29.986  35.498   2.747
16188W        W88448  28.331  34.537  11.985
16189W        W88449  43.888   2.727  11.368
16190W        W88450   3.435  40.255  13.028
16191W        W88451   9.760  38.962  11.482
16192W        W88452  15.551  16.557   2.370
16193W        W88453   0.765  15.594  11.421
16194W        W88454  36.069  13.537   0.827
16195W        W88455  28.003   0.813   1.444
16196W        W88456  26.029   2.237   0.375
16197W        W88457  21.208  26.366   5.388
16198W        W88458  37.994   7.184  11.078
16199W        W88459  23.753  29.844  13.713
16200W        W88460  37.577  16.068   0.803
16201W        W88461   1.038  14.349  10.977
16202W        W88462  12.155  12.782  10.415
16203W        W88463  15.168  17.338   3.836
16204W        W88464  44.280  19.576  12.095
16205W        W88465  29.511  28.269   4.079
16206W        W88466   7.659   1.763  11.858
16207W        W88467  20.674  13.261   4.103
16208W        W88468  11.294  25.151   4.953
16209W        W88469  21.950  36.711  13.403
16210W        W88470  40.834  33.435   2.290
16211W        W88471  12.302  12.281  14.860
16212W        W88472   4.475   6.664   0.280
16213W        W88473  26.490   1.760  11.882
16214W        W88474  31.669  24.666  12.425
16215W        W88475   6.488  34.134   2.780
16216W        W88476   8.993  16.141  14.167
16217W        W88477  15.658  16.610  11.868
16218W        W88478  19.524   3.988  13.020
16219W        W88479   5.355  29.200  13.829
16220W        W88480  42.291   6.973   1.374
16221W        W88481  15.886   2.568   0.867
16222W        W88482  23.918  20.594   1.763
16223W        W88483  43.914  27.203   4.075
16224W        W88484  27.988  26.933  11.403
16225W        W88485  25.138  41.395   4.771
16226W        W88486  38.957  33.429   2.242
16227W        W88487   2.469  26.546  13.453
16228W        W88488   0.818  27.173   1.652
16229W        W88489   2.822   0.681  12.452
16230W        W88490  24.627  16.261  11.426
16231W        W88491  41.852  43.551  13.927
16232W        W88492  44.554  24.284  13.252
16233W        W88493   2.774  31.159   4.618
16234W        W88494  29.162   0.164  14.906
16235W        W88495  35.529  41.589   3.251
16236W        W88496  18.478  35.435   0.934
16237W        W88497  18.049  26.256  10.350
16238W        W88498   1.669  40.537   4.702
16239W        W88499   5.134  41.029  13.286
16240W        W88500  15.383  20.784  13.524
16241W        W88501  41.522   6.150   0.457
16242W        W88502  35.604   4.953   1.159
16243W        W88503  10.798  12.873  13.359
16244W        W88504  38.911  39.593  14.721
16245W        W88505   3.137  23.670  13.501
16246W        W88506   3.855  25.868  12.068
16247W        W88507  18.104   0.988  10.626
16248W        W88508  28.575   8.107  11.439
16249W        W88509  29.579  33.027  12.400
16250W        W88510  11.486  33.101  11.969
16251W        W88511   2.645  44.649   4.123
16252W        W88512  27.683  20.724   4.086
16253W        W88513   2.995  42.501  10.736
16254W        W88514  43.799  10.512  10.978
16255W        W88515  24.405  16.656   2.247
16256W        W88516  37.759  13.521  12.643
16257W        W88517  34.127  16.032   2.287
16258W        W88518  25.818   5.777  12.018
16259W        W88519  12.743  30.194  14.810
16260W        W88520  15.171  25.846   2.694
16261W        W88521  34.330   9.260   2.888
16262W        W88522   3.112  16.586   0.387
16263W        W88523  18.576  37.113   1.923
16264W        W88524  13.271   6.655  10.982
16265W        W88525   8.311   6.366   1.699
16266W        W88526  36.357  11.300  14.267
16267W        W88527  18.984  20.362   1.193
16268W        W88528  20.171  23.190   3.772
16269W        W88529  41.893  30.653   2.662
16270W        W88530  10.209  20.692   3.663
16271W        W88531  20.398   4.356   4.873
16272W        W88532  30.704  12.513   3.719
16273W        W88533  41.579  36.818   3.371
16274W        W88534  34.465  14.252   2.686
16275W        W88535  40.422  16.508   1.909
16276W        W88536  18.281  27.386   1.698
16277W        W88537  15.091  10.449   1.159
16278W        W88538   8.117  35.001  11.336
16279W        W88539   4.910   1.737  10.621
16280W        W88540  34.996  17.865  10.832
16281W        W88541  12.806  13.898  12.399
16282W        W88542  16.801  10.061   0.735
16283W        W88543  15.970  17.271   5.068
16284W        W88544  41.563  15.199  14.312
16285W        W88545  11.358  23.011   3.583
16286W        W88546  18.753  28.199   5.228
16287W        W88547  44.124  27.216  12.883
16288W        W88548  16.128  39.166  12.496
16289W        W88549  27.695   1.734  12.150
16290W        W88550  11.750  20.220  11.027
16291W        W88551  11.184  16.383   1.903
16292W        W88552  29.663  27.770  11.762
16293W        W88553  23.511  11.703  14.933
16294W        W88554   2.510  19.024  11.907
16295W        W88555  27.385   1.367  13.080
16296W        W88556  27.091  15.108   2.773
16297W        W88557  43.848  32.831  12.400
16298W        W88558   9.661   8.672   3.825
16299W        W88559  42.180  32.207  14.944
16300W        W88560  18.805   5.903  10.219
16301W        W88561  31.128  40.216   1.333
16302W        W88562   3.803  18.658   0.405
16303W        W88563  39.312  18.171  14.399
16304W        W88564  18.059   8.153   4.975
16305W        W88565   3.279  21.470   4.913
16306W        W88566  13.208  31.478  13.742
16307W        W88567  36.310  13.180   0.038
16308W        W88568   2.197  31.463  13.056
16309W        W88569  22.536  11.699   1.201
16310W        W88570  27.083   5.673  11.637
16311W        W88571   9.460  14.610   2.746
16312W        W88572  40.750  38.755  13.757
16313W        W88573  21.241  37.081  13.872
16314W        W88574  35.513  33.352   2.616
16315W        W88575  21.770  22.940  13.184
16316W        W88576   8.265  14.143  14.474
16317W        W88577  28.579  43.986  13.779
16318W        W88578  35.113  35.279   1.901
16319W        W88579  28.768   1.486   0.294
16320W        W88580  38.878   0.888  10.667
16321W        W88581  39.099  20.716   4.759
16322W        W88582  42.070  13.298   1.734
16323W        W88583   8.666  44.614  13.951
16324W        W88584  19.594  22.129  11.885
16325W        W88585  32.419  16.773  12.691
16326W        W88586  21.635  15.033  14.769
16327W        W88587   3.252  23.546  11.990
16328W        W88588  35.621   3.883  12.527
16329W        W88589  32.762  13.631  11.507
16330W        W88590   5.332  43.837   0.958
16331W        W88591  22.050  27.559  14.233
16332W        W88592  11.408  44.378   2.771
16333W        W88593  11.393  14.114   2.315
16334W        W88594  36.200  10.185   4.128
16335W        W88595  25.539  15.208  12.031
16336W        W88596  10.786  17.309   2.913
16337W        W88597  11.712  41.270   1.265
16338W        W88598  21.240   3.282   1.922
16339W        W88599  22.856  38.865   1.876
16340W        W88600  27.310   5.866  12.972
16341W        W88601  34.465  17.317  13.838
16342W        W88602   6.850  27.822  12.898
16343W        W88603   4.945  28.981  10.753
16344W        W88604   8.162  23.199   3.600
16345W        W88605  15.172  33.962  12.651
16346W        W88606   5.986  39.419   4.353
16347W        W88607  39.770  18.842  13.982
16348W        W88608  32.329   6.215  11.610
16349W        W88609  38.949   1.799   4.080
16350W        W88610  26.887  26.160   4.547
16351W        W88611  10.568  36.934   2.119
16352W        W88612  44.014  36.404  11.536
16353W        W88613  43.112   9.919  11.998
16354W        W88614  13.672  19.455   4.595
16355W        W88615  11.706  16.257  14.794
16356W        W88616  16.755   8.640  13.340
16357W        W88617  28.315   4.865   1.732
16358W        W88618  36.654  26.679  11.497
16359W        W88619   6.355  12.348  11.140
16360W        W88620  28.886   0.340   2.264
16361W        W88621   6.331   7.530  12.059
16362W        W88622  11.864   5.290   1.880
16363W        W88623  26.718  32.904  13.475
16364W        W88624  26.478  12.824   4.899
16365W        W88625   4.823  17.445   2.785
16366W        W88626  43.421  42.776   2.359
16367W        W88627   4.162   2.324   3.202
16368W        W88628  31.342  22.639   3.792
16369W        W88629  26.025  12.290   1.441
16370W        W88630  35.456  28.009  12.899
16371W        W88631   2.224   8.153   2.062
16372W        W88632   8.730  27.262   4.127
16373W        W88633  25.707  42.990  11.192
16374W        W88634  39.069  42.473  11.520
16375W        W88635  35.315  33.435   3.131
16376W        W88636  20.634  17.267   2.481
16377W        W88637  16.712  25.601   3.168
16378W        W88638  39.793  40.270  12.086
16379W        W88639  40.898  28.072  13.208
16380W        W88640   2.511  35.399   1.685
16381W        W88641   0.208  39.896   2.666
16382W        W88642   8.193  10.354  13.388
16383W        W88643  27.491  37.309   4.064
16384W        W88644  43.837  28.489  12.330
16385W        W88645  44.699   8.937  10.639
16386W        W88646   9.449  42.045  13.388
16387W        W88647  36.895  24.731   2.572
16388W        W88648  43.619  30.019   4.055
16389W        W88649  11.223  36.233  13.599
16390W        W88650  37.366   1.891  14.622
16391W        W88651  24.756  14.481   1.872
16392W        W88652  44.503   2.647  12.490
16393W        W88653  31.073  10.250  13.223
16394W        W88654  26.134  32.546   1.720
16395W        W88655  31.362  39.819  13.051
16396W        W88656   7.790   5.647   2.277
16397W        W88657  22.553  21.494   3.081
16398W        W88658  42.033  28.584   2.498
16399W        W88659  35.458  30.430  14.409
16400W        W88660   4.775  34.817   4.985
16401W        W88661  15.604  42.266  10.714
16402W        W88662  29.688   5.905   2.299
16403W        W88663   0.966  26.431  12.534
16404W        W88664   5.292  23.929   3.591
16405W        W88665  34.924  23.323  13.329
16406W        W88666  13.728  30.629   3.360
16407W        W88667  14.296  35.780   4.053
16408W        W88668  21.809  13.386  11.163
16409W        W88669   8.610  35.303  14.478
16410W        W88670  42.180   2.546  10.568
16411W        W88671  27.367  19.236  14.364
16412W        W88672  29.375   3.830  13.143
16413W        W88673  19.191  21.507   4.442
16414W        W88674   5.834   7.612   1.759
16415W        W88675   8.225  20.641  10.752
16416W        W88676   3.790   9.741   0.999
16417W        W88677  20.110  27.108   4.096
16418W        W88678  13.500  33.514  13.307
16419W        W88679   7.203  38.884   1.255
16420W        W88680   9.999  33.735   0.631
16421W        W88681   4.412   0.315  14.406
16422W        W88682  10.840  39.860  11.567
16423W        W88683  33.447  10.912   1.809
16424W        W88684   2.323   3.894   4.352
16425W        W88685  44.329  18.464  13.101
16426W        W88686  22.744  19.530  12.645
16427W        W88687  24.574   6.578  11.899
16428W        W88688   7.955  39.308   1.369
16429W        W88689  43.818  38.426  13.475
16430W        W88690  32.415  28.252  12.686
16431W        W88691  37.074  23.455   4.094
16432W        W88692  43.992  20.897   0.757
16433W        W88693  39.107  30.802  12.569
16434W        W88694  39.529  29.051  14.996
16435W        W88695  13.942   7.214  12.763
16436W        W88696  37.742  42.855  13.986
16437W        W88697  35.848  25.736   4.610
16438W        W88698   4.277  42.110  10.956
16439W        W88699  10.879   2.889  12.488
16440W        W88700  34.551  38.299   1.358
16441W        W88701  21.968  15.150   1.428
16442W        W88702  21.489  39.811   4.610
16443W        W88703  11.878  25.656   0.814
16444W        W88704   7.764  22.401  12.864
16445W        W88705  25.958  40.289   0.375
16446W        W88706   6.468  22.254  12.054
16447W        W88707  31.555   3.193   4.129
16448W        W88708  22.756  41.227  11.185
16449W        W88709  44.678  21.673   4.955
16450W        W88710   1.194  28.486   1.813
16451W        W88711  13.307  13.114  10.577
16452W        W88712  14.816  37.809   3.239
16453W        W88713   7.413   9.823   0.517
16454W        W88714  30.657  27.217   3.788
16455W        W88715  15.446  40.685  14.895
16456W        W88716  38.175   2.275   1.871
16457W        W88717  33.451  10.199  12.563
16458W        W88718  32.150   3.710   4.487
16459W        W88719  32.598   7.420   0.806
16460W        W88720   6.914  22.279   3.392
16461W        W88721  42.146  16.247  11.470
16462W        W88722   8.239  44.880  10.707
16463W        W88723   4.403   8.166  14.941
16464W        W88724  39.901  43.746   0.486
16465W        W88725  12.707  33.461  14.410
16466W        W88726  29.430  44.171  12.740
16467W        W88727  15.352  16.088   2.414
16468W        W88728  17.532  32.429   1.284
16469W        W88729  18.168   3.548  10.678
16470W        W88730  15.410  33.129  13.101
16471W        W88731  16.585   7.857  10.290
16472W        W88732   0.865  32.079  11.426
16473W        W88733  40.743   4.408   1.906
16474W        W88734  23.147  18.046   1.325
16475W        W88735  42.990  34.461  13.224
16476W        W88736   1.359  33.320   0.853
16477W        W88737  14.849  11.655   2.481
16478W        W88738   4.225   1.933   3.973
16479W        W88739  18.186  12.395  14.951
16480W        W88740  13.783  29.620   3.316
16481W        W88741  21.905  21.651  13.576
16482W        W88742  11.662  26.214   4.115
16483W        W88743   5.287  40.936   3.277
16484W        W88744  27.041   6.383   2.618
16485W        W88745  15.748  24.874  13.338
16486W        W88746  36.986  15.563   1.293
16487W        W88747  33.112  14.132   1.287
16488W        W88748  29.322  33.173  11.426
16489W        W88749   7.391  29.288  14.194
16490W        W88750   8.773   3.391   4.777
16491W        W88751  42.742   6.863  10.627
16492W        W88752  34.159   9.301   3.905
16493W        W88753  18.496   5.845  13.375
16494W        W88754  15.539  36.912   2.807
16495W        W88755   5.474   8.280   3.671
16496W        W88756  14.979  12.320  14.434
16497W        W88757  43.515  29.292   2.900
16498W        W88758   9.628  18.806   1.764
16499W        W88759  36.459  28.919   2.708
16500W        W88760  26.323  14.820   3.764
16501W        W88761  31.020  14.734  13.757
16502W        W88762  15.198  28.674  13.592
16503W        W88763  41.882  16.263  10.762
16504W        W88764  34.385  12.138   1.970
16505W        W88765  10.145  21.017   4.266
16506W        W88766   4.304  11.589   3.623
16507W        W88767  40.727   2.361   4.246
16508W        W88768  33.195  25.816   1.556
16509W        W88769  43.668  16.639   3.706
16510W        W88770  20.189  37.282  12.397
16511W        W88771   2.095  36.404  10.728
16512W        W88772  27.669   5.409  11.652
16513W        W88773  13.786  44.538   2.392
16514W        W88774   1.154  22.009   3.748
16515W        W88775  38.901   4.769   5.013
16516W        W88776   6.621  14.895  10.762
16517W        W88777   1.377  38.705  11.014
16518W        W88778   8.695  37.899   4.136
16519W        W88779  13.112   8.807  10.466
16520W        W88780  28.629  30.652   1.323
16521W        W88781   6.742  11.579  13.269
16522W        W88782  38.561  44.450   2.810
16523W        W88783  22.104  27.076  10.691
16524W        W88784  28.070  35.199  13.730
16525W        W88785  21.993  44.478  13.962
16526W        W88786  37.977  29.090   0.339
16527W        W88787   8.256  42.089   2.124
16528W        W88788  40.796  42.639   1.482
16529W        W88789  21.278  17.834  11.240
16530W        W88790  16.565  32.430   3.681
16531W        W88791  11.468  34.844  11.290
16532W        W88792   2.709  34.069   2.821
16533W        W88793   2.425   2.291   2.344
16534W        W88794  21.861  26.948  12.875
16535W        W88795  18.825   7.746   2.424
16536W        W88796  13.260  17.829  12.445
16537W        W88797  35.487  32.444  10.918
16538W        W88798  11.163  17.387   3.323
16539W        W88799   5.291  31.631  10.626
16540W        W88800   4.509  27.050  14.237
16541W        W88801  20.048  40.981   4.726
16542W        W88802  18.254   6.736  11.043
16543W        W88803   0.805   1.145  13.912
16544W        W88804  21.503  15.123  11.091
16545W        W88805  40.779  13.251   3.236
16546W        W88806  39.944  17.007   2.318
16547W        W88807  15.710  20.710  12.966
16548W        W88808   7.387  22.143   1.040
16549W        W88809   3.364  24.104  13.755
16550W        W88810  14.080  18.428  12.585
16551W        W88811  23.134   5.952   2.326
16552W        W88812  11.667  21.667   3.687
16553W        W88813  18.492  36.161  12.674
16554W        W88814   1.237  40.293  13.712
16555W        W88815  11.859  13.748  10.417
16556W        W88816  28.686  36.187   3.103
16557W        W88817  35.534  15.154  11.357
16558W        W88818  21.177  44.439   1.803
16559W        W88819  16.139  40.766  10.720
16560W        W88820  15.735  37.958  12.690
16561W        W88821  26.661   8.092   2.678
16562W        W88822   3.094  36.940   2.235
16563W        W88823  34.833   0.737   4.184
16564W        W88824  34.076   0.351   1.357
16565W        W88825  39.573  11.817   3.416
16566W        W88826  44.887  14.047  12.371
16567W        W88827  30.374   3.849   0.236
16568W        W88828  35.861  29.090  10.847
16569W        W88829  11.148  43.333   1.821
16570W        W88830  29.293  25.961  10.444
16571W        W88831  39.629   0.742   0.284
16572W        W88832  21.175  33.871  10.672
16573W        W88833  10.532  44.955  12.271
16574W        W88834  18.202   1.236   4.127
16575W        W88835  25.919  17.313  10.772
16576W        W88836  27.295  23.310  11.005
16577W        W88837  41.060  42.455   4.038
16578W        W88838   0.685   1.199  12.459
16579W        W88839  25.287  30.685  13.963
16580W        W88840  39.902   8.604  11.585
16581W        W88841  11.710  16.312  10.807
16582W        W88842  40.539  18.514  12.867
16583W        W88843  20.297  23.437   4.192
16584W        W88844  14.333  18.245  12.982
16585W        W88845  16.038   6.358   3.856
16586W        W88846  13.122  38.493   0.403
16587W        W88847   8.353   1.868  14.313
16588W        W88848  10.668  31.848   0.311
16589W        W88849  18.439   9.887  11.529
16590W        W88850  29.894  32.631  11.492
16591W        W88851  40.352  22.649  14.558
16592W        W88852  16.380  22.122   1.973
16593W        W88853  20.794  13.807  13.397
16594W        W88854  19.260  38.055  13.840
16595W        W88855  20.784  21.032  12.312
16596W        W88856   6.682  19.312   4.752
16597W        W88857  20.665  16.033  10.615
16598W        W88858  20.734   7.857  12.427
16599W        W88859   6.877  25.859   1.423
16600W        W88860  14.091  17.224  11.713
16601W        W88861  24.375  34.545   0.356
16602W        W88862  19.245  22.466  13.981
16603W        W88863  22.379  39.882  11.452
16604W        W88864  10.113   0.478  12.882
16605W        W88865  42.917  32.922  11.448
16606W        W88866   9.121  12.981  11.128
16607W        W88867  26.596  21.673  13.442
16608W        W88868   5.790  39.920  12.496
16609W        W88869  21.821  38.549   0.366
16610W        W88870  15.778  10.848   4.617
16611W        W88871  27.057  41.002  10.472
16612W        W88872  11.438  43.910  11.833
16613W        W88873  30.149  43.328   1.245
16614W        W88874  24.980  15.142  12.010
16615W        W88875  14.567   0.884  14.505
16616W        W88876   9.383   1.463   2.193
16617W        W88877  43.079  18.702   5.425
16618W        W88878  39.491  23.684   1.889
16619W        W88879  33.227   4.928  14.989
16620W        W88880  12.274  38.618   3.266
16621W        W88881  40.571  31.051   4.570
16622W        W88882  39.324  43.011   5.152
16623W        W88883   7.788  37.411  13.990
16624W        W88884  36.404  36.188   3.245
16625W        W88885  33.152   2.255   2.860
16626W        W88886   8.163   4.668   3.287
16627W        W88887  43.495  42.765  14.500
16628W        W88888  22.049  40.718  10.650
16629W        W88889  26.361   8.240   3.603
16630W        W88890  26.379  31.574  11.416
16631W        W88891  11.608  13.377  13.490
16632W        W88892  22.534  23.300  13.121
16633W        W88893  36.495  11.626   3.650
16634W        W88894   9.804  18.542  14.945
16635W        W88895  36.473  17.529   3.730
16636W        W88896   2.742   9.019  11.199
16637W        W88897   4.601  18.829   0.866
16638W        W88898  10.161  31.587   1.866
16639W        W88899  38.477  42.361  14.005
16640W        W88900  20.284  22.512  10.716
16641W        W88901   8.495  11.657  13.155
16642W        W88902   5.798  14.281  12.723
16643W        W88903   6.619   8.418   2.192
16644W        W88904  29.549   3.066  11.608
16645W        W88905  18.136  32.819   1.413
16646W        W88906  16.055  12.225   0.374
16647W        W88907  20.197   8.760   2.633
16648W        W88908  35.512  15.616   1.794
16649W        W88909   0.285  11.172   1.709
16650W        W88910  33.936   3.488  11.504
16651W        W88911  27.758  19.886  13.821
16652W        W88912  21.806  14.985  13.314
16653W        W88913   0.242  17.278  14.772
16654W        W88914  10.634  12.595   1.636
16655W        W88915  23.047  16.653  11.859
16656W        W88916  28.219  35.149   0.266
16657W        W88917  32.564  43.441  13.903
16658W        W88918  32.340  35.785  12.099
16659W        W88919  36.383  25.500   4.629
16660W        W88920  44.059  16.379   1.041
16661W        W88921  29.530  21.551  12.992
16662W        W88922  20.635  23.346  13.081
16663W        W88923  33.917  36.818   0.323
16664W        W88924  36.925  10.947  12.562
16665W        W88925  17.129  28.088   1.900
16666W        W88926  39.034  37.868   1.009
16667W        W88927  37.030  21.246  11.981
16668W        W88928  27.184  26.773   4.203
16669W        W88929  22.165  12.479  13.350
16670W        W88930  44.511  26.231   0.341
16671W        W88931  35.658  21.383  12.027
16672W        W88932  15.019   9.661  11.106
16673W        W88933  32.816  32.136   0.429
16674W        W88934   3.176  12.781  11.641
16675W        W88935  36.630  22.762   3.772
16676W        W88936  17.135  26.732  13.359
16677W        W88937  43.294  44.821  11.050
16678W        W88938  34.968  12.113   4.908
16679W        W88939  36.704   7.864   5.422
16680W        W88940  30.652  14.130  14.910
16681W        W88941   9.217   9.565   2.802
16682W        W88942  21.815  11.835   2.218
16683W        W88943  18.399  24.138   0.214
16684W        W88944  21.565  20.794  11.524
16685W        W88945  17.971   5.388   3.748
16686W        W88946  37.900   4.841   2.911
16687W        W88947  42.081  38.471  13.158
16688W        W88948  11.302  16.117  12.078
16689W        W88949  16.688   5.541   3.148
16690W        W88950   4.913  40.638   3.650
16691W        W88951  32.161  28.228   3.201
16692W        W88952  17.753  17.107   2.703
16693W        W88953  39.345   7.608  10.231
16694W        W88954   9.703  10.439   0.250
16695W        W88955  39.085  22.384   0.635
16696W        W88956  18.031  18.262  10.953
16697W        W88957  21.192  11.948  11.054
16698W        W88958  12.179  21.485  14.956
16699W        W88959   0.291  31.908   2.691
16700W        W88960  32.874   2.402   2.449
16701W        W88961  41.979  24.120  11.177
16702W        W88962   8.380  21.639   4.669
16703W        W88963   2.978  15.839   0.012
16704W        W88964  36.100   2.984   3.064
16705W        W88965  43.392  28.040  13.469
16706W        W88966  36.369  42.912   3.617
16707W        W88967   7.417  12.120   2.708
16708W        W88968  18.033  10.576   3.781
16709W        W88969  28.261  42.283   2.106
16710W        W88970  43.043   8.393  13.016
16711W        W88971  33.687  31.048  12.810
16712W        W88972  16.782  33.894   0.208
16713W        W88973  41.780  44.067   1.331
16714W        W88974  23.007  17.157   3.883
16715W        W88975   7.323  20.739  10.818
16716W        W88976  20.018   1.358   1.369
16717W        W88977  40.613   1.828  11.810
16718W        W88978  21.113   3.558   2.367
16719W        W88979  16.922  43.059  10.725
16720W        W88980  29.485  38.123   2.284
16721W        W88981  19.482  41.561  10.418
16722W        W88982  30.828  37.780  12.349
16723W        W88983  38.858  27.560   3.666
16724W        W88984  44.682   0.670   1.899
16725W        W88985  39.307  38.488  12.798
16726W        W88986  13.231   1.632   1.855
16727W        W88987   5.903  28.016   4.611
16728W        W88988  35.157   0.054   3.242
16729W        W88989  35.267  15.155  14.409
16730W        W88990  15.832  43.011  11.174
16731W        W88991  15.081   3.838  13.914
16732W        W88992  25.418   4.189  14.215
16733W        W88993  22.638   2.246  13.906
16734W        W88994  35.533  41.904   1.385
16735W        W88995  25.786  14.123   3.201
16736W        W88996  32.334  33.446  13.362
16737W        W88997  16.887   1.256   4.187
16738W        W88998  29.660  23.489   1.891
16739W        W88999  21.575  19.491  13.569
16740W        W89000   8.526  10.585  13.046
16741W        W89001  37.373  31.887  13.574
16742W        W89002  43.846   1.739  11.599
16743W        W89003  28.066  41.367   5.043
16744W        W89004  19.795   7.775  13.319
16745W        W89005  14.078   7.601  12.429
16746W        W89006  26.109  30.684   1.239
16747W        W89007  33.461  17.463   1.390
16748W        W89008  28.196  20.652   3.372
16749W        W89009   4.903  32.369  13.435
16750W        W89010  28.630  39.569   4.920
16751W        W89011  18.631  30.557  10.713
16752W        W89012  41.066  27.387  13.840
16753W        W89013  39.242  43.352  10.386
16754W        W89014   7.475  26.103   3.651
16755W        W89015  10.383   4.199  12.998
16756W        W89016  36.114  13.343  12.433
16757W        W89017  13.346  11.141  14.909
16758W        W89018  19.275  17.769   2.864
16759W        W89019   8.870  35.481  12.133
16760W        W89020  20.618  10.873  12.304
16761W        W89021  14.410  44.432  10.546
16762W        W89022  14.068   7.601  11.916
16763W        W89023  30.593  16.186   2.208
16764W        W89024  34.600  21.542  11.207
16765W        W89025  15.736  26.475  11.643
16766W        W89026   9.937  22.573   2.160
16767W        W89027  15.311  19.564  14.853
16768W        W89028  29.868  38.613  11.034
16769W        W89029  21.947   0.224  11.885
16770W        W89030  21.020   7.916  11.712
16771W        W89031   2.375  41.352  12.184
16772W        W89032  39.049  41.530  14.030
16773W        W89033  42.361  25.518   0.721
16774W        W89034  10.800  38.807   2.091
16775W        W89035  16.508   1.819   0.858
16776W        W89036  42.345  34.399   2.402
16777W        W89037  24.030  25.385   0.028
16778W        W89038  28.561   9.039   1.389
16779W        W89039  37.415  14.290   0.314
16780W        W89040  26.459  28.210  10.702
16781W        W89041   0.957  43.770  11.883
16782W        W89042  12.815  34.037  12.626
16783W        W89043  28.576  14.275  12.964
16784W        W89044  26.893  30.668  11.561
16785W        W89045  21.562  38.453  13.541
16786W        W89046  25.981  32.830  13.933
16787W        W89047  30.116  42.277   4.592
16788W        W89048   5.227   5.878  10.408
16789W        W89049  10.542  43.358   4.605
16790W        W89050  29.592  31.147   3.267
16791W        W89051  41.454   7.940   4.611
16792W        W89052  24.039   3.348   2.746
16793W        W89053  23.070  29.230   2.615
16794W        W89054  34.753  38.063  14.451
16795W        W89055  13.493  10.416   0.444
16796W        W89056  21.208  10.642   1.046
16797W        W89057   5.782  24.079   3.712
16798W        W89058  31.900  22.020   4.885
16799W        W89059  22.998  16.285   3.798
16800W        W89060  23.623  40.036   2.198
16801W        W89061   6.868  22.484   4.694
16802W        W89062  37.270   2.207  12.097
16803W        W89063   2.397  23.493  13.099
16804W        W89064  37.735   3.384  12.049
16805W        W89065  12.319   4.232   1.099
16806W        W89066   5.409  23.798  11.606
16807W        W89067  34.390  17.984   0.319
16808W        W89068  32.386  34.632   3.631
16809W        W89069   9.194  14.510   0.955
16810W        W89070  14.920   8.782   1.657
16811W        W89071  31.518  14.891   3.258
16812W        W89072  30.718  37.823   0.197
16813W        W89073  29.665   9.657  13.154
16814W        W89074   4.767  31.403   3.148
16815W        W89075  19.346  35.010   3.522
16816W        W89076  26.446  37.173  14.960
16817W        W89077  18.291  24.564   4.683
16818W        W89078  41.825   2.847   4.866
16819W        W89079  15.053  14.172   1.063
16820W        W89080  39.533   9.428   1.316
16821W        W89081  30.960  23.601   4.006
16822W        W89082  30.735  22.873   1.898
16823W        W89083   2.801  13.053  13.024
16824W        W89084  27.706  33.411  12.528
16825W        W89085  10.704  11.901   2.268
16826W        W89086  13.929  21.825   3.714
16827W        W89087  21.562  26.229  13.544
16828W        W89088  16.012  17.009   3.306
16829W        W89089  43.966  40.451  14.332
16830W        W89090  40.378  13.233   3.618
16831W        W89091  19.692  26.708   9.978
16832W        W89092  44.531  42.401   2.493
16833W        W89093  32.063  23.816  12.177
16834W        W89094  40.791  13.639   2.820
16835W        W89095  13.717  27.654   1.249
16836W        W89096   8.292  34.669   2.862
16837W        W89097  28.389   8.657   4.365
16838W        W89098  17.559  12.106  13.352
16839W        W89099  11.154  26.517  11.852
16840W        W89100  35.991  37.364  11.170
16841W        W89101  15.340  30.035  12.843
16842W        W89102  41.279  42.204  13.889
16843W        W89103  35.961  38.606  12.567
16844W        W89104   2.515  43.335   0.083
16845W        W89105  32.661  28.053  10.281
16846W        W89106   1.767  31.958   2.793
16847W        W89107  42.010  40.408   4.071
16848W        W89108  17.821  31.383   3.230
16849W        W89109  31.066  40.935  10.819
16850W        W89110   1.435  17.709   0.971
16851W        W89111  17.316  27.208  14.858
16852W        W89112  26.507   3.255  13.995
16853W        W89113  20.607  14.919   4.554
16854W        W89114  32.428  42.677   0.431
16855W        W89115  40.723  43.530  10.585
16856W        W89116  32.025  38.674  14.409
16857W        W89117   9.351  34.220  12.570
16858W        W89118  23.196  22.572   1.814
16859W        W89119  41.303  35.963   4.630
16860W        W89120  28.718  27.656   3.639
16861W        W89121   4.436  12.780  14.882
16862W        W89122   0.701  40.927  13.083
16863W        W89123  21.771  18.922   5.385
16864W        W89124  22.454   1.984   3.744
16865W        W89125   0.460  34.687   1.263
16866W        W89126  36.909  38.046   3.193
16867W        W89127  23.908  25.990  11.892
16868W        W89128  41.737   6.917  10.714
16869W        W89129  17.212  21.186  10.488
16870W        W89130  40.630  31.339   4.136
16871W        W89131  13.156  15.588   0.006
16872W        W89132  27.951  16.268  13.609
16873W        W89133   4.857  32.150   1.903
16874W        W89134  41.427  26.426   0.769
16875W        W89135   5.722   4.036   1.837
16876W        W89136  27.154  29.680  14.875
16877W        W89137  28.447   9.871  14.517
16878W        W89138  15.185  30.870  10.551
16879W        W89139  21.296  23.166  12.872
16880W        W89140  17.419  27.969   3.140
16881W        W89141  13.061   5.310   1.153
16882W        W89142  33.845  32.456  12.843
16883W        W89143   0.950  44.086   0.839
16884W        W89144   6.259  23.212   2.646
16885W        W89145  26.173  26.629   4.026
16886W        W89146  42.943  33.872   4.583
16887W        W89147   6.760   2.247  10.742
16888W        W89148  25.185  37.664   4.534
16889W        W89149  40.292  23.483   2.298
16890W        W89150  43.491  35.159   0.920
16891W        W89151   5.808  44.054  12.963
16892W        W89152  29.157  18.622   0.451
16893W        W89153  11.235  10.839  13.896
16894W        W89154  26.049  23.869  12.008
16895W        W89155  31.154   0.275  13.451
16896W        W89156  18.248  21.695  14.847
16897W        W89157  23.072  23.531  14.319
16898W        W89158  22.444   0.937   1.529
16899W        W89159  10.876   7.373  10.785
16900W        W89160  24.147  10.708   0.512
16901W        W89161  34.464  20.320   3.156
16902W        W89162   8.377  10.896   2.222
16903W        W89163  15.324  39.718   1.278
16904W        W89164   6.156  32.902  14.048
16905W        W89165  28.482  32.199   4.187
16906W        W89166  10.672  30.728  13.107
16907W        W89167  37.613  21.158  11.185
16908W        W89168  32.214  10.579   4.663
16909W        W89169  16.278  11.168   0.837
16910W        W89170  27.938   9.603   4.713
16911W        W89171   8.234  23.884   0.841
16912W        W89172  12.151  24.546  14.133
16913W        W89173   1.478  36.558  14.047
16914W        W89174  21.966   9.700   2.687
16915W        W89175  43.862  21.953   2.453
16916W        W89176   6.503   5.318  13.906
16917W        W89177  21.151  28.248  11.950
16918W        W89178  31.934  41.308  11.149
16919W        W89179  25.160  43.329   2.201
16920W        W89180  25.430  34.626   0.195
16921W        W89181  20.167   3.275  11.885
16922W        W89182  16.025  13.225  12.835
16923W        W89183  28.651  42.278   3.758
16924W        W89184   4.389  44.890  14.048
16925W        W89185  32.946  10.326   1.404
16926W        W89186  36.169  34.075   1.761
16927W        W89187   8.840   5.283  13.612
16928W        W89188  35.639  22.892  13.797
16929W        W89189   0.077  15.629   4.193
16930W        W89190  31.933  35.466  12.049
16931W        W89191  35.527  12.335  10.776
16932W        W89192  25.233  26.248   4.210
16933W        W89193  21.903  42.765   2.094
16934W        W89194  18.557  16.739   4.633
16935W        W89195  40.503   6.272   0.899
16936W        W89196   4.642  29.596  12.831
16937W        W89197  39.929   1.363  11.230
16938W        W89198  30.925  34.765   9.784
16939W        W89199  25.181  27.124   4.190
16940W        W89200   7.212  14.158   4.683
16941W        W89201  32.472  35.454  12.913
16942W        W89202  24.199  43.331  13.296
16943W        W89203  44.339  11.653   3.750
16944W        W89204  38.437  34.627   1.361
16945W        W89205  32.772  35.326   3.792
16946W        W89206  28.044   3.807  14.571
16947W        W89207  40.345  35.526  12.560
16948W        W89208  24.877  41.927   0.734
16949W        W89209   8.936  29.877  13.042
16950W        W89210  15.057  42.767  13.100
16951W        W89211  16.523  39.902  12.909
16952W        W89212   6.259   1.788   1.763
16953W        W89213  26.962  10.414   1.344
16954W        W89214  14.338  22.026   3.959
16955W        W89215   1.375   6.370   1.835
16956W        W89216  24.166  32.571  12.379
16957W        W89217  26.417  23.762   1.295
16958W        W89218  29.970  22.196   4.501
16959W        W89219  12.741  12.963   0.442
16960W        W89220  18.592  13.798  14.459
16961W        W89221  18.874   1.427   2.213
16962W        W89222  17.631   7.934   5.163
16963W        W89223  29.232  16.848  13.845
16964W        W89224  40.002  24.636   4.647
16965W        W89225  18.288   5.291   0.978
16966W        W89226   6.729  24.226   2.659
16967W        W89227  29.154  13.620   1.393
16968W        W89228   0.876  37.546  11.682
16969W        W89229  24.174   8.879   2.972
16970W        W89230   1.804  43.457   3.198
16971W        W89231  33.598   6.600   0.855
16972W        W89232  38.355  29.604  12.149
16973W        W89233   1.578   0.079   0.379
16974W        W89234  26.895   4.858   9.896
16975W        W89235  39.485   9.394  12.528
16976W        W89236  17.529  35.602   3.980
16977W        W89237  28.717  29.441  11.297
16978W        W89238   0.376  28.662  12.882
16979W        W89239  40.873  14.282  10.670
16980W        W89240  34.626   7.675   2.391
16981W        W89241   4.616   6.332   1.592
16982W        W89242  17.495  27.109  12.597
16983W        W89243  23.705  13.999   2.538
16984W        W89244  20.732  22.450  12.621
16985W        W89245  39.703  10.140   2.275
16986W        W89246   1.564   6.766   2.204
16987W        W89247  20.808  42.579   1.744
16988W        W89248  42.056  16.097   2.307
16989W        W89249  20.283  20.311   2.220
16990W        W89250   1.271  36.100   0.145
16991W        W89251  37.957   0.502  12.055
16992W        W89252  40.339  29.550  11.539
16993W        W89253  19.222  36.478  14.310
16994W        W89254  28.685  36.397  14.255
16995W        W89255  16.295  40.061  12.455
16996W        W89256  43.694   4.279  13.044
16997W        W89257  31.003   3.954   2.089
16998W        W89258  26.387  44.442   0.424
16999W        W89259  42.216  41.129  14.314
17000W        W89260  24.587  43.514   0.816
17001W        W89261  32.232  44.709  12.286
17002W        W89262  14.178  40.021   3.106
17003W        W89263  27.071  38.273   1.379
17004W        W89264   6.672  26.381   1.219
17005W        W89265   6.237  43.700  11.152
17006W        W89266   6.144  19.979   4.205
17007W        W89267  17.815  41.316  11.873
17008W        W89268  19.299  25.137  14.758
17009W        W89269  33.700  18.568  11.536
17010W        W89270   5.778  27.693  14.352
17011W        W89271  23.413  34.391  13.755
17012W        W89272   2.362  15.316   4.254
17013W        W89273  26.563   7.983   3.186
17014W        W89274  39.502  25.328   4.608
17015W        W89275   8.207   8.363   4.545
17016W        W89276  32.961  30.669  10.778
17017W        W89277  37.518  38.124  14.458
17018W        W89278  44.068  19.123   0.770
17019W        W89279  31.804  11.100   1.248
17020W        W89280  19.927  15.563   2.811
17021W        W89281  20.037  30.423   1.833
17022W        W89282  37.572  29.000  13.513
17023W        W89283  39.856  39.851   4.181
17024W        W89284  19.613  16.090   4.627
17025W        W89285  27.421  13.609  12.977
17026W        W89286  31.079  26.000   4.128
17027W        W89287   9.284  43.941   0.998
17028W        W89288  44.735  10.890  10.437
17029W        W89289  15.339  27.190   0.032
17030W        W89290  40.267  33.370   3.939
17031W        W89291  13.799  42.598   4.121
17032W        W89292   0.321  16.385   2.552
17033W        W89293  30.068  14.691  10.957
17034W        W89294  44.657  21.289  12.237
17035W        W89295   0.038  41.232  12.022
17036W        W89296  35.977  42.218   2.861
17037W        W89297  44.915  18.084  12.616
17038W        W89298   5.069   4.664  12.355
17039W        W89299  41.788  31.367   0.779
17040W        W89300  16.280  42.729   4.678
17041W        W89301  30.405  12.325  11.103
17042W        W89302  23.805  44.020   2.390
17043W        W89303   1.899   3.068  13.133
17044W        W89304   1.726  21.652  11.547
17045W        W89305  25.054  20.541  14.055
17046W        W89306  43.165   7.963   0.978
17047W        W89307  32.332  11.237   4.139
17048W        W89308  38.035  24.242  11.555
17049W        W89309  18.128  29.055  10.966
17050W        W89310   6.450  39.942   1.940
17051W        W89311  17.165  30.738   4.315
17052W        W89312   6.148  33.403   3.617
17053W        W89313  44.700  23.072   1.312
17054W        W89314  13.271   2.412   0.251
17055W        W89315  38.408  35.107   1.585
17056W        W89316  17.467  32.612   2.188
17057W        W89317   9.970   7.231   3.662
17058W        W89318  26.952  42.100   2.400
17059W        W89319  14.115  12.940  11.910
17060W        W89320  12.277  11.853  10.984
17061W        W89321  40.426  18.361   1.182
17062W        W89322  34.485  17.047   0.671
17063W        W89323  23.208  17.868  12.766
17064W        W89324  15.097  41.756  13.233
17065W        W89325   2.652  22.240  14.259
17066W        W89326  40.558  30.843   1.707
17067W        W89327  36.345  38.995   1.469
17068W        W89328   4.411  37.072   3.666
17069W        W89329  22.086  35.737   0.526
17070W        W89330  44.059  20.663  12.571
17071W        W89331  35.515  35.945  14.356
17072W        W89332  18.086   6.016  12.596
17073W        W89333  22.560  20.440   9.920
17074W        W89334   4.440  43.570   3.771
17075W        W89335  35.025  15.619  11.563
17076W        W89336  26.569  20.077   0.235
17077W        W89337  43.616  15.133   2.457
17078W        W89338  10.617  22.923   4.120
17079W        W89339  44.550  36.882  13.216
17080W        W89340  41.977  28.185  12.356
17081W        W89341   5.393  31.906   2.817
17082W        W89342  15.692  33.165   4.718
17083W        W89343  26.580   7.272  14.981
17084W        W89344   4.013  35.812  11.999
17085W        W89345  17.165  44.410   1.388
17086W        W89346  26.459  44.060   4.190
17087W        W89347  19.177  22.316   1.173
17088W        W89348   8.320   5.262  14.280
17089W        W89349  18.131   3.830  12.068
17090W        W89350  33.690  30.213  14.462
17091W        W89351  22.969   0.673   4.589
17092W        W89352  12.696   4.764   2.176
17093W        W89353  37.964  38.851  14.361
17094W        W89354  12.279  14.767  11.198
17095W        W89355  36.259  16.137   1.721
17096W        W89356   2.503  12.218   2.309
17097W        W89357  24.399  40.905   3.288
17098W        W89358  37.022  14.817  12.801
17099W        W89359  42.449  18.155   0.945
17100W        W89360  39.373  42.985   0.396
17101W        W89361  38.345  41.887   0.373
17102W        W89362   6.261  10.804  14.989
17103W        W89363  43.860  19.697  14.364
17104W        W89364  10.259  43.500  13.898
17105W        W89365  18.870  28.016  12.607
17106W        W89366   5.945   2.867   0.827
17107W        W89367  15.735   6.335  11.553
17108W        W89368  10.176  42.214  13.158
17109W        W89369  33.398   1.490  13.329
17110W        W89370  21.365  29.010  14.047
17111W        W89371  24.458  23.837   4.653
17112W        W89372  40.386  38.057  14.970
17113W        W89373  11.169  23.074  12.178
17114W        W89374  33.070   2.501  11.149
17115W        W89375  36.067  26.044  10.512
17116W        W89376  24.274   7.166   1.045
17117W        W89377  13.241   2.680   0.763
17118W        W89378  10.855  31.673  14.288
17119W        W89379  24.718  15.192   0.760
17120W        W89380  20.026  10.430   3.250
17121W        W89381   5.366  36.430   2.318
17122W        W89382  39.602  26.565   1.261
17123W        W89383  11.799  34.017  13.481
17124W        W89384  41.397  21.743  12.053
17125W        W89385   1.333  15.924   1.166
17126W        W89386  20.131  43.714  12.495
17127W        W89387  28.450  44.385  12.030
17128W        W89388  22.168  42.358  14.390
17129W        W89389   9.775  25.232  11.100
17130W        W89390   3.241  34.310   4.554
17131W        W89391  16.563  24.559   3.091
17132W        W89392  27.835  23.741   4.682
17133W        W89393  20.042  18.640   4.241
17134W        W89394  23.738  26.152   5.517
17135W        W89395  36.978   2.779   4.602
17136W        W89396  12.253  26.482   3.769
17137W        W89397   3.027  22.737   0.519
17138W        W89398   5.820  23.029  13.059
17139W        W89399  41.296  20.931   0.310
17140W        W89400  44.744  17.693   4.831
17141W        W89401  35.463  40.271   1.897
17142W        W89402   7.337  25.893  13.824
17143W        W89403  41.115  26.272  10.910
17144W        W89404   9.673  25.623  12.933
17145W        W89405  42.214  36.567   3.957
17146W        W89406   1.449  19.596  11.111
17147W        W89407   4.358  44.985  13.538
17148W        W89408   4.501  34.879   1.682
17149W        W89409  19.680  33.266   0.489
17150W        W89410  39.994  12.338  11.061
17151W        W89411  19.754  15.421  12.853
17152W        W89412  18.233  44.859   1.397
17153W        W89413  29.559  38.913   2.672
17154W        W89414   8.913   8.764   0.385
17155W        W89415   7.051  43.884  13.503
17156W        W89416  23.720   3.534   4.254
17157W        W89417  18.721  26.149   0.213
17158W        W89418  13.330  27.979  11.504
17159W        W89419   5.888  38.391   4.637
17160W        W89420  37.485  41.973   3.653
17161W        W89421   5.550  18.025  12.113
17162W        W89422  17.220  36.965   4.555
17163W        W89423   3.243   2.270  12.087
17164W        W89424  24.606  37.847   4.409
17165W        W89425  14.140  21.252   4.634
17166W        W89426  30.732  42.389   2.380
17167W        W89427  23.357  18.240  13.702
17168W        W89428  23.565  23.583   4.927
17169W        W89429  37.384  10.680  12.600
17170W        W89430  40.072  26.701  12.604
17171W        W89431   6.113  10.815   1.766
17172W        W89432  41.844   7.296   2.067
17173W        W89433  31.412  40.291   4.053
17174W        W89434  30.464  36.477   2.892
17175W        W89435  11.755  25.680  13.422
17176W        W89436   5.683   3.682  14.291
17177W        W89437  16.930  30.008   0.900
17178W        W89438  29.445  32.503   1.320
17179W        W89439  40.511  40.358   2.346
17180W        W89440  38.689  42.645   4.163
17181W        W89441  15.126  16.494  14.808
17182W        W89442  17.537  27.361  11.428
17183W        W89443   8.362  18.896   0.404
17184W        W89444  20.879   6.867  13.663
17185W        W89445  27.399  42.947   3.321
17186W        W89446   1.956   3.477  14.380
17187W        W89447   7.651  36.555   2.995
17188W        W89448   9.797  27.954  11.941
17189W        W89449  18.997   9.067  12.873
17190W        W89450  42.540  42.746   4.540
17191W        W89451   3.635  25.179   3.655
17192W        W89452  27.103  35.375   1.380
17193W        W89453  37.568   7.728   2.425
17194W        W89454   5.382  32.596   1.130
17195W        W89455  19.149   1.528  11.996
17196W        W89456  34.778   8.635   3.316
17197W        W89457  17.549  27.075   1.908
17198W        W89458   2.478  23.808  14.993
17199W        W89459   5.727  44.046  11.555
17200W        W89460  33.608  44.027  11.537
17201W        W89461  32.001  25.260  10.821
17202W        W89462  28.145  30.433  12.013
17203W        W89463  15.998  36.876  11.294
17204W        W89464  44.998  27.858   1.885
17205W        W89465   6.940  25.327   1.552
17206W        W89466  24.120  42.550   3.179
17207W        W89467  30.181  37.523   1.846
17208W        W89468  24.498  37.037   3.763
17209W        W89469  28.921  31.901  13.402
17210W        W89470  37.460  27.620   1.395
17211W        W89471  17.613  24.433   2.935
17212W        W89472  13.933  38.548   1.388
17213W        W89473  37.163  41.235   4.729
17214W        W89474  39.001  27.025   4.977
17215W        W89475  21.742  23.636  12.056
17216W        W89476  28.710  39.529   2.894
17217W        W89477   8.753  17.739  11.570
17218W        W89478  11.224  24.389  11.103
17219W        W89479  42.474  28.303   0.737
17220W        W89480   7.709   6.561  14.101
17221W        W89481   1.451  33.665  14.913
17222W        W89482  42.987   6.899   4.981
17223W        W89483  31.977  16.324   4.358
17224W        W89484  26.976  19.040   1.779
17225W        W89485  40.629  41.889   4.838
17226W        W89486   0.760  17.991  14.428
17227W        W89487  33.722   5.264   3.541
17228W        W89488  38.589   4.937  11.597
17229W        W89489   2.523   9.693   1.400
17230W        W89490   9.644   8.799  13.454
17231W        W89491  33.545  13.366   2.214
17232W        W89492  34.012  33.706  12.406
17233W        W89493  26.673   7.103  10.642
17234W        W89494  34.780  14.421   0.770
17235W        W89495  30.029  44.259   1.685
17236W        W89496  11.992  34.335  11.582
17237W        W89497  33.050  27.966   3.256
17238W        W89498  43.143  17.961   1.827
17239W        W89499  15.210  41.554  11.077
17240W        W89500  15.207  36.137  10.354
17241W        W89501  17.566  25.803  11.353
17242W        W89502  14.026  44.733  13.101
17243W        W89503  32.863  38.982  10.463
17244W        W89504  28.926  15.429  11.088
17245W        W89505  31.590  44.731  11.559
17246W        W89506  28.028  32.175  14.399
17247W        W89507  26.242   7.046  11.864
17248W        W89508  10.672  19.138   1.206
17249W        W89509  31.773   1.540   2.303
17250W        W89510   4.908  27.944  13.900
17251W        W89511   0.879  21.679   3.434
17252W        W89512   5.123  41.720  10.777
17253W        W89513  10.402   4.996  13.839
17254W        W89514   5.964  12.291  11.620
17255W        W89515  29.399   8.905   4.152
17256W        W89516  31.719  26.008  11.567
17257W        W89517  36.499  38.397  13.328
17258W        W89518  18.030  31.641   4.326
17259W        W89519  19.288  36.042   1.955
17260W        W89520   7.470  10.632   4.459
17261W        W89521  14.321  26.495  11.089
17262W        W89522  26.596   6.638   2.824
17263W        W89523   8.096  44.233  12.312
17264W        W89524  12.010  30.073   4.586
17265W        W89525  28.945  44.279   0.891
17266W        W89526  35.491  36.963   2.858
17267W        W89527   5.374  38.011  14.459
17268W        W89528   3.692   6.237   3.199
17269W        W89529  19.004  28.188  11.762
17270W        W89530  21.752   2.367   3.201
17271W        W89531  20.230  11.309  13.913
17272W        W89532  20.265  28.020   1.189
17273W        W89533  12.185  13.143  11.430
17274W        W89534  13.215  11.764   0.311
17275W        W89535  23.975   5.403   2.463
17276W        W89536  22.047  15.690   1.273
17277W        W89537  11.762  28.899   1.411
17278W        W89538   1.840  35.157   3.226
17279W        W89539  13.608  41.354   2.131
17280W        W89540  39.387  41.582   4.834
17281W        W89541  10.820   5.913   1.231
17282W        W89542  40.958  41.621   0.216
17283W        W89543  17.755  23.725   4.686
17284W        W89544  16.166  12.573   2.313
17285W        W89545  16.614   9.887   3.193
17286W        W89546   7.175  23.509   1.347
17287W        W89547  38.411  27.373   0.021
17288W        W89548  14.068  34.826   1.844
17289W        W89549  20.941  36.490  11.604
17290W        W89550  33.684  37.515  12.649
17291W        W89551  15.616   6.850   3.083
17292W        W89552   8.298  22.524  13.862
17293W        W89553  27.382   9.157   0.416
17294W        W89554   4.412  41.290   0.474
17295W        W89555  17.095  20.743   1.633
17296W        W89556   3.149  26.629   2.648
17297W        W89557   8.846  19.966   1.202
17298W        W89558  15.790   3.971  14.953
17299W        W89559  24.596  20.787  13.889
17300W        W89560  25.142  34.995  12.686
17301W        W89561  22.240  11.727  14.313
17302W        W89562  17.270  31.912  10.647
17303W        W89563  17.972  20.258   4.447
17304W        W89564  40.548  19.657   4.019
17305W        W89565  24.988   2.154  14.713
17306W        W89566  32.838   2.752  14.991
17307W        W89567  17.289  12.237   1.424
17308W        W89568   3.274  26.553   3.559
17309W        W89569   5.002  41.305   2.383
17310W        W89570  25.762  38.226  13.074
17311W        W89571  32.893  31.323  14.907
17312W        W89572  29.091  38.811   2.889
17313W        W89573  29.484  40.012   4.575
17314W        W89574  16.327  18.678  11.086
17315W        W89575  27.619  13.189  11.228
17316W        W89576  29.133  38.675   4.571
17317W        W89577  35.994  20.389  14.556
17318W        W89578  18.702  42.948   0.165
17319W        W89579  14.121   1.912  11.424
17320W        W89580   1.839   9.127  11.195
17321W        W89581  28.016  21.210  13.109
17322W        W89582  21.075  41.916   0.814
17323W        W89583  21.236  33.034  14.862
17324W        W89584   1.822  25.193  13.060
17325W        W89585  16.073   6.321  11.129
17326W        W89586  14.826  34.403  14.313
17327W        W89587  32.494  43.942  13.803
17328W        W89588  38.998  22.632  11.582
17329W        W89589  25.785  16.772   0.159
17330W        W89590  28.246  21.782   2.104
17331W        W89591  12.266  39.323   1.871
17332W        W89592   6.890   3.707   3.789
17333W        W89593  25.028  33.984  14.442
17334W        W89594  24.481  27.399  10.112
17335W        W89595  13.730  41.976  11.592
17336W        W89596  27.172  22.985   0.320
17337W        W89597  28.020  30.631  14.972
17338W        W89598   2.951  32.483  12.457
17339W        W89599  11.194  21.275   1.873
17340W        W89600  22.836  35.987   4.932
17341W        W89601  34.387  11.256   2.608
17342W        W89602   3.855   6.482   3.613
17343W        W89603  17.546  34.432  10.660
17344W        W89604  29.145   1.294  13.511
17345W        W89605   7.912  36.573  14.599
17346W        W89606  21.747  24.467   1.284
17347W        W89607  19.639   0.008  11.452
17348W        W89608  24.224  34.638   3.529
17349W        W89609   9.750  15.548  12.955
17350W        W89610  37.673  42.070   1.460
17351W        W89611  18.975   6.109   1.205
17352W        W89612  26.345  39.247  13.022
17353W        W89613  41.369  35.746  11.838
17354W        W89614  20.114  43.920   2.216
17355W        W89615  41.570   4.839   3.775
17356W        W89616  32.096  13.010   4.034
17357W        W89617  34.394  31.801  11.049
17358W        W89618  34.487  31.155   2.823
17359W        W89619   1.958  16.264   1.919
17360W        W89620  23.459  38.474  12.456
17361W        W89621  33.392  19.864  12.015
17362W        W89622   2.548  28.484   1.541
17363W        W89623   9.363  30.372   4.169
17364W        W89624  17.101  27.039   4.178
17365W        W89625  31.133  25.065  12.055
17366W        W89626  40.436  10.829   4.138
17367W        W89627  10.937  44.929   2.258
17368W        W89628   5.144  35.492  10.552
17369W        W89629   0.388  16.113   1.210
17370W        W89630  23.680   8.992  12.339
17371W        W89631  10.109  42.275   3.127
17372W        W89632  26.322  30.711  14.903
17373W        W89633  25.234  23.104  13.420
17374W        W89634   8.408  34.874  12.819
17375W        W89635  33.754  20.130  14.993
17376W        W89636  32.450  13.279  12.050
17377W        W89637  22.653   7.373   3.139
17378W        W89638   9.911  41.909  12.851
17379W        W89639   5.825   3.002   1.699
17380W        W89640   1.338  36.936  13.023
17381W        W89641  35.619  39.880  14.817
17382W        W89642  39.125  42.393  13.682
17383W        W89643   6.159  40.581   4.209
17384W        W89644  10.608   8.340  12.871
17385W        W89645  44.089  28.586   5.198
17386W        W89646  24.541  13.033  10.495
17387W        W89647  24.631  24.773  11.997
17388W        W89648  43.222  25.011  13.423
17389W        W89649  26.168   3.458   4.574
17390W        W89650   0.154  30.049   0.816
17391W        W89651  38.046  15.679   2.134
17392W        W89652   1.029  31.612  11.649
17393W        W89653   8.967  42.798   2.406
17394W        W89654  25.155  43.411   1.658
17395W        W89655   3.732  10.295   0.216
17396W        W89656  30.183  38.071   1.941
17397W        W89657  39.669  25.432   0.928
17398W        W89658  21.230  42.416   4.214
17399W        W89659  42.384  17.986  12.043
17400W        W89660  31.194  43.324   0.233
17401W        W89661  30.055  40.520  14.817
17402W        W89662  38.375  33.047   1.018
17403W        W89663  20.080  39.409   2.749
17404W        W89664  20.488  16.413  11.544
17405W        W89665  14.159   3.871   4.523
17406W        W89666  17.274  14.216   4.002
17407W        W89667  25.164   0.473   2.499
17408W        W89668  21.257  41.191  10.728
17409W        W89669   7.655  10.109   3.241
17410W        W89670  40.292  36.059  11.059
17411W        W89671  33.672  38.116   0.416
17412W        W89672  43.291  25.621  10.853
17413W        W89673   3.015   1.809  12.096
17414W        W89674  26.127  44.193   0.004
17415W        W89675  44.363  37.381   0.209
17416W        W89676  12.914  31.741  11.289
17417W        W89677  13.122   3.615  10.273
17418W        W89678  32.453  40.782  10.823
17419W        W89679  28.904   1.889   3.694
17420W        W89680  21.725  15.605  10.987
17421W        W89681  20.282  20.776   5.033
17422W        W89682  40.907   6.768  10.674
17423W        W89683  14.700   1.964   3.673
17424W        W89684  11.719  14.899  14.949
17425W        W89685  23.632  14.654  12.999
17426W        W89686  24.198   2.232   1.919
17427W        W89687   1.724  22.978   1.250
17428W        W89688  26.631  24.415   4.334
17429W        W89689  43.891  41.049   1.354
17430W        W89690  25.094   5.327   4.882
17431W        W89691  38.996  28.018   2.286
17432W        W89692  37.440  43.955   0.359
17433W        W89693  37.575  10.683   1.998
17434W        W89694  29.470  31.535   1.475
17435W        W89695  18.245  39.212  13.048
17436W        W89696  22.189  30.522  10.755
17437W        W89697   4.156   6.853  14.293
17438W        W89698  18.262  11.781  11.502
17439W        W89699  43.007   0.755   2.607
17440W        W89700  24.132   1.259  11.668
17441W        W89701  28.237  27.078  10.345
17442W        W89702  15.563  35.533   2.641
17443W        W89703   2.464  41.311   0.699
17444W        W89704  41.874  13.052   0.957
17445W        W89705  31.661  22.046   0.337
17446W        W89706   7.310  19.319   1.642
17447W        W89707  14.173   7.775   4.928
17448W        W89708  44.700  18.328   0.138
17449W        W89709   4.363  19.064  14.336
17450W        W89710  34.364   2.518   0.783
17451W        W89711  21.735  14.210  10.977
17452W        W89712   6.415  43.963  14.312
17453W        W89713  19.084  36.158  10.872
17454W        W89714  24.731  10.288  13.622
17455W        W89715  24.354  23.697   2.881
17456W        W89716  43.359  14.074   2.713
17457W        W89717  16.690  11.062  14.991
17458W        W89718  27.058  10.919   0.424
17459W        W89719   5.979  11.140  14.318
17460W        W89720   2.773   9.226   1.291
17461W        W89721  10.935   9.597   3.222
17462W        W89722   6.957  39.330  10.830
17463W        W89723   9.832   5.981  10.808
17464W        W89724   7.250  19.065  10.531
17465W        W89725   4.803  29.822  12.407
17466W        W89726  13.854  16.169  13.030
17467W        W89727  43.515  29.930  14.512
17468W        W89728  10.250  28.144   0.951
17469W        W89729  15.286  32.393  13.862
17470W        W89730  24.499   4.729   2.849
17471W        W89731  40.508  37.560   4.576
17472W        W89732  34.657  23.264  11.600
17473W        W89733   2.674  10.349   1.049
17474W        W89734  38.615   8.467   3.200
17475W        W89735  19.116   9.246  11.521
17476W        W89736  17.567  35.369   2.546
17477W        W89737  11.653  14.267  13.937
17478W        W89738  11.489  44.598  11.590
17479W        W89739  13.173  25.234   0.084
17480W        W89740  21.545  28.515   0.645
17481W        W89741  33.034  34.437   4.642
17482W        W89742  27.941  31.708   1.208
17483W        W89743   7.130   1.482  11.183
17484W        W89744  21.344  24.464   3.327
17485W        W89745  40.345  17.018  11.788
17486W        W89746  10.396  38.398  14.804
17487W        W89747  30.960  28.880   2.929
17488W        W89748  14.355  40.237   4.118
17489W        W89749  12.731   5.003  11.142
17490W        W89750  42.011  34.876   3.102
17491W        W89751  41.883  43.967   1.866
17492W        W89752  34.225   7.803  14.314
17493W        W89753  35.848  42.430  13.150
17494W        W89754   1.708   8.707  13.512
17495W        W89755  33.991  12.808   2.751
17496W        W89756  16.588  26.586   1.244
17497W        W89757  31.030  32.940   1.598
17498W        W89758  33.129  29.152   3.478
17499W        W89759   7.388   2.469  12.924
17500W        W89760  24.589  23.683   0.236
17501W        W89761  20.231   1.334  13.414
17502W        W89762  26.804  42.712  11.270
17503W        W89763  31.502  14.434  10.428
17504W        W89764   3.389  18.555   2.811
17505W        W89765  15.306  11.861  11.585
17506W        W89766  15.625  26.719   4.129
17507W        W89767  27.034   7.187   4.917
17508W        W89768  32.522   7.669   3.847
17509W        W89769  22.789  38.918   4.596
17510W        W89770  14.220  21.518   1.508
17511W        W89771   3.246  10.106  12.434
17512W        W89772  34.411  12.293   1.438
17513W        W89773  11.905  21.264   0.916
17514W        W89774  25.614   7.636   1.237
17515W        W89775  31.612  21.095  11.347
17516W        W89776  30.022  37.563   4.691
17517W        W89777  11.724  18.760   3.900
17518W        W89778  35.243   5.186   0.884
17519W        W89779  40.485   9.530   0.012
17520W        W89780  41.793  25.485   0.782
17521W        W89781   2.327  37.518  12.073
17522W        W89782  28.204   1.729  11.560
17523W        W89783  38.383   4.466  13.345
17524W        W89784  10.589  34.429   4.257
17525W        W89785  15.795  42.382  13.187
17526W        W89786  23.720  38.472  12.003
17527W        W89787  26.908  44.808  13.880
17528W        W89788  34.071   0.264   1.898
17529W        W89789  11.570   6.927   3.284
17530W        W89790   1.239  33.524  11.473
17531W        W89791  44.599  27.399  10.373
17532W        W89792   4.020   6.369  13.172
17533W        W89793  12.451   0.415   1.465
17534W        W89794   3.849  40.719  11.421
17535W        W89795  36.113  24.977  14.111
17536W        W89796  39.091  27.825   1.806
17537W        W89797   2.389  13.319   0.982
17538W        W89798  34.661   3.623   1.760
17539W        W89799  34.381  43.088   1.799
17540W        W89800  34.958  42.578   1.373
17541W        W89801  41.772  28.027  12.800
17542W        W89802  38.402  39.640  14.555
17543W        W89803  25.034  13.216   1.451
17544W        W89804  36.050  12.545  11.744
17545W        W89805  24.165  32.443  14.798
17546W        W89806  25.905  41.490   0.744
17547W        W89807  34.206  17.991  10.292
17548W        W89808   1.450  19.871   4.576
17549W        W89809  44.861  34.990  11.147
17550W        W89810  11.687  44.718   4.980
17551W        W89811  21.203  23.778  13.974
17552W        W89812   2.278   1.473  14.727
17553W        W89813  29.544   4.253   2.790
17554W        W89814   2.142  14.745   3.649
17555W        W89815   0.359  33.366  11.464
17556W        W89816  27.088  37.107   1.376
17557W        W89817  23.171   8.320   3.439
17558W        W89818  25.140  10.743   1.471
17559W        W89819  15.665  17.217  12.403
17560W        W89820  24.432  15.821  11.639
17561W        W89821   9.321  23.772  12.857
17562W        W89822   5.217  23.675   0.963
17563W        W89823  36.634  24.517   0.371
17564W        W89824   8.971  15.757  10.617
17565W        W89825  21.079  23.012   0.079
17566W        W89826   1.861  44.006  13.333
17567W        W89827  40.345  30.534   3.667
17568W        W89828  34.966  28.084   0.809
17569W        W89829  38.886   5.211   1.206
17570W        W89830   5.378   8.692   1.321
17571W        W89831  11.629  22.604   0.661
17572W        W89832  29.654   6.244   2.771
17573W        W89833   9.743  26.100  11.871
17574W        W89834  27.594  17.239   0.477
17575W        W89835  20.574  18.786   3.412
17576W        W89836  15.713   2.752  13.569
17577W        W89837  27.053   4.026   1.715
17578W        W89838   2.960  39.508  13.486
17579W        W89839  32.595   8.337  14.028
17580W        W89840  20.591  40.784   3.444
17581W        W89841  25.160  17.717  13.049
17582W        W89842  40.463   9.411   3.297
17583W        W89843  24.978  21.618   2.729
17584W        W89844   7.256  10.389  12.543
17585W        W89845  41.704   2.540   0.617
17586W        W89846  33.086  37.769   2.799
17587W        W89847  12.374   3.389   5.102
17588W        W89848  23.755  20.657  12.018
17589W        W89849  13.811  42.837   1.844
17590W        W89850  11.820   8.168   1.311
17591W        W89851  22.905  32.722   2.777
17592W        W89852   3.407   0.443   0.761
17593W        W89853  18.852  36.141  14.442
17594W        W89854  38.414  11.077   2.320
17595W        W89855  29.110  32.187  14.878
17596W        W89856  39.909  43.630  12.441
17597W        W89857  35.406  23.059  13.332
17598W        W89858   2.801  30.056  14.036
17599W        W89859  39.004  14.290  10.568
17600W        W89860  31.594   3.813   0.851
17601W        W89861  41.678  32.029   4.654
17602W        W89862  22.562   3.163   1.114
17603W        W89863   6.791   1.402   4.178
17604W        W89864  35.027  23.921   1.824
17605W        W89865  35.916  13.416   0.285
17606W        W89866  19.335  28.640  14.925
17607W        W89867  16.182  43.253  13.529
17608W        W89868  44.978  26.985  13.866
17609W        W89869  41.964  21.266   2.880
17610W        W89870  28.418  20.123   2.204
17611W        W89871  32.070  37.172  11.683
17612W        W89872   4.534   5.186  10.640
17613W        W89873  18.544   2.123  14.333
17614W        W89874  31.863  43.467   3.302
17615W        W89875   0.881  21.024   3.172
17616W        W89876  42.486  39.611  14.469
17617W        W89877  12.475  27.962   5.529
17618W        W89878   4.713  25.368  14.764
17619W        W89879   2.521   6.088  10.207
17620W        W89880  31.412  25.024  11.630
17621W        W89881  30.422  22.587  13.823
17622W        W89882  44.901  36.138   4.543
17623W        W89883  42.042  12.148   3.333
17624W        W89884  17.244  29.536   2.899
17625W        W89885  34.042  26.444   0.862
17626W        W89886   4.546  40.695   1.071
17627W        W89887  12.832  42.321  13.083
17628W        W89888  29.065  32.048   3.316
17629W        W89889  40.766  28.915  10.748
17630W        W89890  29.810  12.752  13.907
17631W        W89891   9.409  11.668   0.047
17632W        W89892   7.222  44.332  14.741
17633W        W89893  35.072  20.574   0.489
17634W        W89894  41.442  13.761  11.006
17635W        W89895  26.234  13.765   4.587
17636W        W89896  22.037   3.831  14.387
17637W        W89897   8.145   8.057  14.987
17638W        W89898  26.405  43.618  11.651
17639W        W89899  21.215   7.463  12.959
17640W        W89900  28.299  12.175   3.640
17641W        W89901  32.444  13.690   2.913
17642W        W89902  26.901  19.479  14.250
17643W        W89903  26.502  13.944  14.722
17644W        W89904  29.077   3.368  13.070
17645W        W89905  13.896  10.725  13.294
17646W        W89906  35.861  38.475   4.490
17647W        W89907  29.049  34.158  12.869
17648W        W89908   0.227  14.570  11.163
17649W        W89909  18.141  38.145  12.061
17650W        W89910  31.099  19.052  13.279
17651W        W89911  33.317  24.005  14.245
17652W        W89912   4.201   5.795  14.854
17653W        W89913  12.749  33.783  13.507
17654W        W89914  23.610  18.063   2.814
17655W        W89915   9.599   1.600  14.406
17656W        W89916  28.177  29.982  10.686
17657W        W89917  23.733   3.026   1.869
17658W        W89918   4.613  38.447   0.775
17659W        W89919  33.072  43.255   1.887
17660W        W89920  22.090   4.793  14.573
17661W        W89921  33.128  28.646   0.809
17662W        W89922  43.749   0.775  14.344
17663W        W89923  20.992  26.412   1.412
17664W        W89924  20.325  38.357  12.989
17665W        W89925  38.879   2.013  10.305
17666W        W89926  15.712  23.455   3.665
17667W        W89927  28.686  18.629  12.532
17668W        W89928   4.268   8.386  11.984
17669W        W89929  35.885  34.920   3.229
17670W        W89930  11.751  14.084   2.713
17671W        W89931  37.042  13.505  11.074
17672W        W89932  17.508  13.581  12.697
17673W        W89933  32.563  27.424  13.033
17674W        W89934  19.048  18.780  11.768
17675W        W89935  22.996  28.233   2.366
17676W        W89936  12.646   8.389  14.229
17677W        W89937  21.269  20.473  14.497
17678W        W89938  14.512   4.888  12.213
17679W        W89939  34.135  26.859   2.611
17680W        W89940  33.574   0.355  14.850
17681W        W89941  18.305  30.602  14.457
17682W        W89942  10.706  40.735  14.839
17683W        W89943  34.792  17.365   1.418
17684W        W89944  13.585   6.229  14.024
17685W        W89945   6.171   1.306  11.385
17686W        W89946  33.191  44.323  11.475
17687W        W89947  10.219  23.490  10.776
17688W        W89948  17.509   4.376  14.795
17689W        W89949  13.309  14.658   0.419
17690W        W89950  44.042  24.662  11.582
17691W        W89951  27.124  16.190  10.585
17692W        W89952  32.586  34.048   0.856
17693W        W89953  34.628  32.700   0.359
17694W        W89954  26.639   4.198  13.952
17695W        W89955   6.340  25.930   0.248
17696W        W89956  12.308  20.972  14.165
17697W        W89957  40.402  34.026  12.067
17698W        W89958   9.443  23.146  13.044
17699W        W89959  33.908  38.773  10.613
17700W        W89960  23.073  30.682   4.701
17701W        W89961  27.490  14.239   4.167
17702W        W89962  28.204  16.941  13.900
17703W        W89963  22.205  17.022   2.174
17704W        W89964  23.154   8.780   4.710
17705W        W89965  23.098  41.480  14.723
17706W        W89966  16.745  39.297   4.299
17707W        W89967   7.708  24.858  13.114
17708W        W89968  29.207   7.329  13.534
17709W        W89969  28.074  21.802   4.590
17710W        W89970   9.338   3.176  14.587
17711W        W89971  44.823   1.716  14.722
17712W        W89972  25.100  19.522  14.040
17713W        W89973  11.670  32.106   4.127
17714W        W89974  37.738  43.554   0.580
17715W        W89975  33.900  38.544   3.915
17716W        W89976  26.777  42.557   3.838
17717W        W89977   4.722  16.593   1.243
17718W        W89978  36.186  36.969  10.852
17719W        W89979   9.781  24.473  14.893
17720W        W89980  13.862  29.431  13.476
17721W        W89981  11.051  26.303  11.086
17722W        W89982  19.769  35.763  14.451
17723W        W89983  30.620  36.897   4.337
17724W        W89984  22.689  12.395  13.079
17725W        W89985  23.160  24.071   1.795
17726W        W89986  36.832   8.254  14.869
17727W        W89987  26.051  38.707   0.379
17728W        W89988  29.240  22.122   2.668
17729W        W89989   7.277  19.964   2.237
17730W        W89990  29.675   1.520   3.740
17731W        W89991  33.822  41.378  10.572
17732W        W89992  20.744  32.530  14.506
17733W        W89993  12.167  16.365   2.685
17734W        W89994  20.758  20.556  14.554
17735W        W89995  42.271  15.229  13.513
17736W        W89996  10.566  17.566   1.235
17737W        W89997   8.762  16.136  14.953
17738W        W89998  34.299  18.445   0.066
17739W        W89999  40.510  24.036   0.837
17740W        W90000  39.879  43.979   1.424
17741W        W90001  41.854   8.625   4.262
17742W        W90002  19.075  34.513   2.502
17743W        W90003  22.087  36.010  12.387
17744W        W90004  42.919  16.624   2.261
17745W        W90005   1.589  17.227  12.873
17746W        W90006  21.064   5.740  11.422
17747W        W90007  25.533  31.694   3.069
17748W        W90008  26.319   8.498  12.008
17749W        W90009   9.973  16.333  12.668
17750W        W90010  14.366  44.701  14.070
17751W        W90011  40.384  40.624   3.686
17752W        W90012  32.410  41.247   0.834
17753W        W90013  37.895  23.845   2.401
17754W        W90014  23.912  40.235  14.352
17755W        W90015   7.350  10.133   3.694
17756W        W90016  21.425   3.182  11.174
17757W        W90017  24.604  15.725  13.827
17758W        W90018  33.908   8.843  11.536
17759W        W90019  14.274  38.033  11.415
17760W        W90020   5.237   1.896   3.539
17761W        W90021  13.987   3.414   3.165
17762W        W90022  24.256   7.514   1.432
17763W        W90023  32.875  38.535   3.994
17764W        W90024  16.754   2.422  14.912
17765W        W90025   3.397  14.545   3.760
17766W        W90026   6.820  41.668  13.861
17767W        W90027  36.136  33.632   3.846
17768W        W90028  42.492   5.284  11.377
17769W        W90029  37.292   2.463  14.821
17770W        W90030  23.069   3.602   1.884
17771W        W90031  41.585  10.127  12.536
17772W        W90032   6.426  15.634   3.542
17773W        W90033  38.648  31.513  14.368
17774W        W90034  39.658  35.240  14.382
17775W        W90035  22.774   0.265  13.350
17776W        W90036  31.170   2.857   4.274
17777W        W90037  30.517   6.712   3.659
17778W        W90038  40.919  20.501   1.865
17779W        W90039   0.398  33.411  12.615
17780W        W90040   7.940   1.844  10.798
17781W        W90041  23.969  31.992  14.040
17782W        W90042  23.080  26.378   0.458
17783W        W90043  44.739  16.179  14.976
17784W        W90044  22.013   2.888  12.594
17785W        W90045  23.987  32.539  10.477
17786W        W90046   3.363  10.546   0.472
17787W        W90047  41.540  22.251  14.880
17788W        W90048   5.267  34.916   1.156
17789W        W90049  17.311  18.226   3.689
17790W        W90050  14.581   3.985   3.755
17791W        W90051   9.668   8.953   4.869
17792W        W90052   1.258  21.209  14.470
17793W        W90053   7.286   5.073   3.180
17794W        W90054  22.993  34.435   3.162
17795W        W90055   6.191   4.085   4.205
17796W        W90056  30.109  44.338  12.977
17797W        W90057  42.524  44.377  13.943
17798W        W90058  23.307  37.888   3.789
17799W        W90059  42.446  13.212  10.753
17800W        W90060  27.087  31.370  11.180
17801W        W90061  36.450  36.648   4.779
17802W        W90062  44.780  24.175  12.363
17803W        W90063  30.543  10.456   0.024
17804W        W90064   5.609  28.163   4.161
17805W        W90065   5.121   7.195   1.581
17806W        W90066  24.617  28.544   0.375
17807W        W90067  35.332  23.977   1.417
17808W        W90068  44.921  40.026  14.787
17809W        W90069  21.314  39.917   3.864
17810W        W90070   5.032   4.412  11.139
17811W        W90071  38.826   9.632   4.573
17812W        W90072   8.462  37.767   2.728
17813W        W90073  15.819  35.433   1.306
17814W        W90074  40.830  13.720  12.645
17815W        W90075  17.946  39.562   3.367
17816W        W90076  11.375  43.412  14.518
17817W        W90077  43.685  16.017  13.247
17818W        W90078  16.481  20.586   1.202
17819W        W90079  10.426  36.293   1.318
17820W        W90080  14.257  39.406  11.452
17821W        W90081  27.841   8.371   3.274
17822W        W90082  39.113  38.836   5.042
17823W        W90083   5.127  39.303  12.459
17824W        W90084  41.457  33.873   4.551
17825W        W90085  22.798  43.296  13.790
17826W        W90086   0.576  14.229   1.724
17827W        W90087  25.188  18.735  12.466
17828W        W90088  21.916  39.882  12.421
17829W        W90089  36.152  26.067   3.654
17830W        W90090  39.706  23.120   2.839
17831W        W90091   3.829  34.620  11.372
17832W        W90092  32.903  31.955  11.091
17833W        W90093  18.567   9.840  10.208
17834W        W90094  21.173  36.642   3.748
17835W        W90095  16.117   5.446  11.109
17836W        W90096  25.206  40.878   1.826
17837W        W90097  41.574  17.789  10.538
17838W        W90098  14.250  28.345  13.245
17839W        W90099  16.005  11.426  10.642
17840W        W90100  32.362  14.994   2.643
17841W        W90101   7.201  43.981   2.591
17842W        W90102  20.739  20.333  13.128
17843W        W90103  17.131   1.010   1.886
17844W        W90104  17.506  39.831  14.103
17845W        W90105  12.809  38.852   2.280
17846W        W90106  37.712  10.036   4.185
17847W        W90107  12.269  31.136  13.852
17848W        W90108  19.178  44.351   1.981
17849W        W90109  25.619  19.730  13.292
17850W        W90110  18.214  37.766   4.135
17851W        W90111  12.275  23.742   4.914
17852W        W90112  44.375  38.481   0.351
17853W        W90113  39.056  40.049   4.567
17854W        W90114  30.414  20.516  11.521
17855W        W90115  44.349   3.742   1.176
17856W        W90116  17.161  41.615  11.591
17857W        W90117  32.891  39.987  10.753
17858W        W90118  33.939   7.280   1.034
17859W        W90119  21.029   3.334  13.911
17860W        W90120  21.270  28.880   1.231
17861W        W90121   7.597  16.261  12.489
17862W        W90122  20.544   7.858   0.676
17863W        W90123  41.454  12.579  12.957
17864W        W90124  28.462  13.749  13.008
17865W        W90125  30.770  37.608   3.151
17866W        W90126  34.437  19.887   4.948
17867W        W90127   4.421  28.657   0.318
17868W        W90128  44.884  14.278   4.933
17869W        W90129  12.440  35.932   4.126
17870W        W90130  32.544  27.886   3.118
17871W        W90131  25.035  21.052  14.034
17872W        W90132  13.167  29.658   0.417
17873W        W90133  33.182  21.653   0.282
17874W        W90134   5.746  22.979   1.784
17875W        W90135  12.598  22.830  14.813
17876W        W90136  35.312  26.952   1.378
17877W        W90137  43.765  28.567  10.558
17878W        W90138  16.835  11.620   1.735
17879W        W90139   8.353  14.224  10.721
17880W        W90140  13.375  31.379  13.243
17881W        W90141  27.402  36.112   3.906
17882W        W90142  32.886  30.078  13.331
17883W        W90143   1.295  11.098  13.906
17884W        W90144  38.006  31.494   2.477
17885W        W90145  37.251  11.672   4.138
17886W        W90146  17.187   7.717   5.354
17887W        W90147  23.705  32.739  12.537
17888W        W90148   1.786  43.369   4.056
17889W        W90149   9.836   5.463  14.888
17890W        W90150   6.161  34.520  12.540
17891W        W90151  21.699  34.572  12.006
17892W        W90152  24.989  37.613   1.304
17893W        W90153  17.632  27.527  11.928
17894W        W90154   6.255  27.475   0.437
17895W        W90155  34.342  34.008  12.807
17896W        W90156   5.700   9.368   2.105
17897W        W90157  43.296  31.392   3.037
17898W        W90158  35.109  20.282  11.051
17899W        W90159   6.242  30.958   1.500
17900W        W90160  43.088  30.848   1.429
17901W        W90161   0.980  34.151  10.713
17902W        W90162  14.082  43.561   0.945
17903W        W90163  26.279  22.430  13.661
17904W        W90164  16.144  30.405   4.522
17905W        W90165  31.192  12.343   2.993
17906W        W90166  19.131  26.093   4.234
17907W        W90167  17.008  38.015   1.820
17908W        W90168  33.227  42.844   3.296
17909W        W90169  41.961   5.957  12.519
17910W        W90170  21.241  22.595   0.781
17911W        W90171   7.701   9.636   1.824
17912W        W90172  38.998  37.921  14.988
17913W        W90173   5.420   3.974   2.256
17914W        W90174  24.233   3.189  12.199
17915W        W90175  39.064   6.359  13.327
17916W        W90176  33.690   7.875  10.897
17917W        W90177  30.189  13.670  14.113
17918W        W90178  27.638  24.146  14.519
17919W        W90179  34.338  27.732   1.801
17920W        W90180   5.399  36.287  11.128
17921W        W90181  40.546  38.025  11.213
17922W        W90182  35.488  28.907   1.677
17923W        W90183   0.763  26.686   3.933
17924W        W90184   3.690  11.290  10.784
17925W        W90185  39.956   4.977   0.775
17926W        W90186  43.306  44.777  13.411
17927W        W90187  42.542  24.931  12.048
17928W        W90188  17.927   8.372  12.431
17929W        W90189  31.922  43.452  13.456
17930W        W90190  12.926  21.998   3.787
17931W        W90191  34.411  30.524  12.410
17932W        W90192   6.811  40.369   0.255
17933W        W90193  15.356  40.991   4.545
17934W        W90194   0.767  44.747   2.305
17935W        W90195  26.118  41.004   9.769
17936W        W90196   2.023  42.177  12.976
17937W        W90197  21.327   1.417  14.351
17938W        W90198  41.913  10.086   4.406
17939W        W90199  32.397  20.766  13.904
17940W        W90200   1.339  13.789  10.749
17941W        W90201  19.761  13.641  11.675
17942W        W90202  36.990  31.571  13.004
17943W        W90203  40.271  28.311   1.793
17944W        W90204  17.405  26.398   2.301
17945W        W90205  24.082  17.788   4.739
17946W        W90206  34.838  39.370  14.881
17947W        W90207  35.851  28.867   2.550
17948W        W90208  37.811  16.117  12.936
17949W        W90209   9.186  17.991  13.857
17950W        W90210   3.442  37.792   4.189
17951W        W90211  20.409  40.509  12.152
17952W        W90212  24.918  40.786   0.028
17953W        W90213  22.002  18.050   1.372
17954W        W90214  38.754  22.298  11.959
17955W        W90215   2.707  32.546  10.976
17956W        W90216  39.786  39.345  10.975
17957W        W90217   3.286  15.348   4.453
17958W        W90218  28.848  33.573   4.791
17959W        W90219  25.812  18.264   2.274
17960W        W90220   6.935   7.429   3.161
17961W        W90221  16.608  11.151   1.745
17962W        W90222  30.964   5.346   2.092
17963W        W90223  30.430  21.345   5.008
17964W        W90224  17.208  16.423   4.704
17965W        W90225  27.587  36.645  12.131
17966W        W90226  31.640   1.943   3.664
17967W        W90227  23.999   8.414   2.130
17968W        W90228  39.866  15.418   2.122
17969W        W90229  21.597  10.149   4.382
17970W        W90230  12.972   3.020  13.112
17971W        W90231   9.721  42.403   3.808
17972W        W90232  32.034  20.859  11.165
17973W        W90233  26.936  33.503  14.902
17974W        W90234  21.183  16.059  13.813
17975W        W90235  34.185  34.091   0.571
17976W        W90236  31.762  19.195  11.203
17977W        W90237  37.854  41.806   4.596
17978W        W90238  35.891  19.428  11.882
17979W        W90239  30.639  14.860  14.645
17980W        W90240  24.027  16.559   1.856
17981W        W90241  29.695  31.136  10.209
17982W        W90242   2.163  35.316  14.805
17983W        W90243  39.787  27.054  11.618
17984W        W90244  21.127   1.948  14.282
17985W        W90245   5.136   7.385   0.596
17986W        W90246  17.532   3.291  12.972
17987W        W90247   1.922   3.443  11.624
17988W        W90248  34.152  21.670   1.331
17989W        W90249  28.657   5.205   3.310
17990W        W90250  29.908   5.327   2.815
17991W        W90251  35.109  15.127  11.638
17992W        W90252  10.671  39.781  14.162
17993W        W90253   3.538   3.668  12.590
17994W        W90254  12.840  37.844   2.387
17995W        W90255  12.547  23.817  13.804
17996W        W90256  26.599  33.901  14.676
17997W        W90257  43.872  11.646  12.209
17998W        W90258   3.896  36.419   2.255
17999W        W90259   4.011   6.231  11.127
18000W        W90260   5.991  34.491  14.661
18001W        W90261   1.967  36.045  13.350
18002W        W90262  25.869  25.092   4.497
18003W        W90263  21.118  33.649  13.212
18004W        W90264  12.811   7.093   4.651
18005W        W90265   6.397  26.611  13.587
18006W        W90266  32.316  38.991   4.122
18007W        W90267  30.145   7.646  14.839
18008W        W90268  31.088  11.873   5.215
18009W        W90269  13.728  43.534   4.102
18010W        W90270  19.107  10.360  13.401
18011W        W90271  28.897  39.051  14.869
18012W        W90272  24.637  32.437   3.717
18013W        W90273  23.555  32.874  11.665
18014W        W90274  38.990   2.184   5.029
18015W        W90275  42.446  12.863   1.745
18016W        W90276   5.597  35.788  14.842
18017W        W90277  18.092  13.133   4.835
18018W        W90278   4.942   1.385   2.453
18019W        W90279   3.908  44.966   2.455
18020W        W90280   5.154  27.528   2.866
18021W        W90281  29.634  26.674   2.843
18022W        W90282  10.830  10.816  12.451
18023W        W90283  37.099  44.765   2.616
18024W        W90284  34.536   1.483  12.773
18025W        W90285   6.674  17.649   2.822
18026W        W90286  15.863  19.290   1.942
18027W        W90287  25.087  44.703   4.221
18028W        W90288  43.246  38.440  13.917
18029W        W90289  44.549   8.367  14.879
18030W        W90290  38.334  37.594   3.586
18031W        W90291  22.490  44.055   1.846
18032W        W90292  19.836  12.233  12.184
18033W        W90293  43.881  41.907  13.373
18034W        W90294  12.574  15.272  12.949
18035W        W90295  11.694  31.131   2.838
18036W        W90296  21.988  34.582   1.416
18037W        W90297   0.786  29.951   2.795
18038W        W90298  39.338  24.674  11.496
18039W        W90299  32.579   3.056  10.828
18040W        W90300   8.384  10.784   1.216
18041W        W90301  39.263   0.968   1.212
18042W        W90302  43.017  43.359   2.447
18043W        W90303  29.021  15.299   4.174
18044W        W90304  25.539  32.450   2.420
18045W        W90305   2.411   3.305  10.667
18046W        W90306  24.572  29.023   2.316
18047W        W90307   4.233  22.141  12.099
18048W        W90308   4.310  34.546  12.354
18049W        W90309   2.434  13.536   0.493
18050W        W90310   5.683  14.049   0.295
18051W        W90311   9.200  31.844   0.320
18052W        W90312  13.710  16.045   2.860
18053W        W90313  40.503  43.886   4.414
18054W        W90314  24.112   8.369   3.100
18055W        W90315  31.445   4.426  11.860
18056W        W90316   7.389   8.738  13.342
18057W        W90317  33.992   2.541  12.938
18058W        W90318  25.723  43.863  12.366
18059W        W90319  26.266  29.085  13.758
18060W        W90320  33.941   9.647   4.760
18061W        W90321  14.236  13.845   1.156
18062W        W90322  17.618  20.283  13.076
18063W        W90323   3.258  23.134   2.629
18064W        W90324  44.527  19.725   2.381
18065W        W90325  18.186   5.677  12.980
18066W        W90326   9.407  37.347   4.134
18067W        W90327  37.348  26.173  11.508
18068W        W90328  28.067  37.406   1.362
18069W        W90329  20.579  34.465   2.915
18070W        W90330  29.947   3.665  11.005
18071W        W90331  30.269  26.415   3.625
18072W        W90332  31.987   7.875  12.195
18073W        W90333  25.563  25.911   1.155
18074W        W90334  30.527   5.952   1.769
18075W        W90335  22.966  29.170  10.202
18076W        W90336   8.233  14.162   2.798
18077W        W90337  13.631  38.074  10.575
18078W        W90338  35.025  19.116   9.996
18079W        W90339  31.946   2.871  13.529
18080W        W90340  38.636  11.100   0.702
18081W        W90341  24.259  29.064  10.548
18082W        W90342  40.667  15.658  14.923
18083W        W90343  33.487   8.320  11.052
18084W        W90344  23.085  37.356   4.612
18085W        W90345  39.621  36.334   3.211
18086W        W90346  22.456  25.211  12.126
18087W        W90347  16.260  11.120  12.059
18088W        W90348  20.714  21.142   4.589
18089W        W90349  31.831  38.911   3.781
18090W        W90350  16.336  44.496   1.665
18091W        W90351  19.307  34.961  14.866
18092W        W90352  27.918   8.227  12.618
18093W        W90353  26.257  36.090  13.390
18094W        W90354  26.158  21.579  10.683
18095W        W90355  42.086   8.359  11.955
18096W        W90356  28.370   5.670  12.904
18097W        W90357   1.005   7.137  14.457
18098W        W90358   8.111  43.275   3.327
18099W        W90359  34.820  42.977  13.949
18100W        W90360  17.115  29.701   4.161
18101W        W90361  26.557  42.422   1.258
18102W        W90362   3.913  40.053   2.299
18103W        W90363  29.101   8.888  12.591
18104W        W90364  15.440  42.638  13.468
18105W        W90365  16.027  41.956  13.332
18106W        W90366  26.708  33.097   2.860
18107W        W90367  26.833   5.650  12.126
18108W        W90368  28.783  29.464   0.835
18109W        W90369  31.009  33.226  12.919
18110W        W90370  21.937  11.273  14.475
18111W        W90371   0.936  26.654  14.880
18112W        W90372   4.818  23.099   4.606
18113W        W90373  19.728  12.983   1.282
18114W        W90374  20.192  32.122   3.566
18115W        W90375  29.554  40.920  13.439
18116W        W90376  36.307  40.386   1.048
18117W        W90377  27.104   9.322  12.373
18118W        W90378  25.115   3.728   3.170
18119W        W90379  27.138  32.784  14.512
18120W        W90380  16.647  15.664   2.515
18121W        W90381  21.747  17.002   2.842
18122W        W90382  15.364  28.032   0.093
18123W        W90383   5.057  28.713  11.662
18124W        W90384  14.542  36.909   4.015
18125W        W90385   2.420  33.170   0.514
18126W        W90386   0.115  11.583   1.398
18127W        W90387  42.848  17.719  14.299
18128W        W90388  29.509  23.416   3.214
18129W        W90389  44.351  25.836  13.030
18130W        W90390  43.996  24.967  13.084
18131W        W90391  25.196   1.869   2.837
18132W        W90392  14.784  32.571  11.584
18133W        W90393  39.506   4.672   3.688
18134W        W90394  27.165   8.779  14.201
18135W        W90395   0.276  12.806  11.145
18136W        W90396  44.121   2.891   0.283
18137W        W90397  33.379   7.425  13.014
18138W        W90398  10.053  21.054   2.916
18139W        W90399  30.043  43.422  11.154
18140W        W90400  32.794  34.265  10.428
18141W        W90401  10.707  28.078   3.724
18142W        W90402   8.810   5.691   2.118
18143W        W90403  16.351  33.427  11.438
18144W        W90404   0.447   9.146  11.096
18145W        W90405   3.095  39.245   5.368
18146W        W90406  16.651  40.947   3.144
18147W        W90407  31.084   6.213   4.099
18148W        W90408  21.120  29.046   2.263
18149W        W90409  33.602  43.077   4.784
18150W        W90410  33.950  12.921  11.136
18151W        W90411  16.968  41.077  10.456
18152W        W90412   6.954  34.029  12.182
18153W        W90413   3.198  14.164   0.945
18154W        W90414  14.568  26.163  14.751
18155W        W90415   3.447   5.368   3.697
18156W        W90416   1.818  25.627   4.236
18157W        W90417   1.711   5.609  13.780
18158W        W90418  12.320  40.930  12.811
18159W        W90419  43.358  38.039  12.437
18160W        W90420  18.709   9.138  13.977
18161W        W90421  34.950  12.366   2.767
18162W        W90422  12.486  42.157   4.120
18163W        W90423   9.600  12.416  13.734
18164W        W90424  37.763   3.065   0.324
18165W        W90425   8.680  26.386  13.556
18166W        W90426  36.791  17.708  11.536
18167W        W90427  12.890  24.959   0.412
18168W        W90428  12.598  19.276  10.754
18169W        W90429  10.694  24.173   3.266
18170W        W90430  26.660  31.885   0.875
18171W        W90431  44.808  31.811   1.398
18172W        W90432  22.521  37.002   1.908
18173W        W90433  39.913  43.269   3.367
18174W        W90434  16.004   5.299   3.670
18175W        W90435  21.548  14.300   3.909
18176W        W90436  27.747  21.784  14.949
18177W        W90437  18.202   6.951  12.365
18178W        W90438  36.438  23.018   2.362
18179W        W90439  34.503   1.558   0.893
18180W        W90440  41.897  29.113   0.441
18181W        W90441   6.676  14.733   0.948
18182W        W90442   2.610  42.428   1.591
18183W        W90443  20.522  41.653   1.442
18184W        W90444  24.722  13.568   1.717
18185W        W90445  13.842   9.824   1.612
18186W        W90446  41.540  36.588  10.762
18187W        W90447   8.895  41.350  13.430
18188W        W90448  42.901  15.676   3.278
18189W        W90449  28.123  15.683   1.461
18190W        W90450  15.373   6.269   2.431
18191W        W90451   4.173  10.887   1.809
18192W        W90452  11.099  17.230   4.623
18193W        W90453  37.322   8.069  11.994
18194W        W90454  30.206  19.979   3.306
18195W        W90455   9.645  30.470  13.678
18196W        W90456   0.261   1.318   0.711
18197W        W90457  23.956  44.435  10.565
18198W        W90458  34.725  18.365   1.353
18199W        W90459   8.683  34.420   3.283
18200W        W90460   4.471  13.846  13.042
18201W        W90461  28.933   7.212   4.356
18202W        W90462  24.102  19.011  11.873
18203W        W90463  26.072  17.837   2.407
18204W        W90464  37.386   0.364  12.057
18205W        W90465   3.316  22.869  10.912
18206W        W90466  32.852  29.414   4.886
18207W        W90467  27.259  41.538  12.913
18208W        W90468  18.308  44.016  12.885
18209W        W90469  33.718  24.429   0.374
18210W        W90470  35.597  31.995   2.270
18211W        W90471  23.752   3.357  12.284
18212W        W90472  41.496   7.369   2.457
18213W        W90473  13.736  22.057   4.705
18214W        W90474  34.903   4.713  14.511
18215W        W90475   9.310   5.939   1.339
18216W        W90476  14.380  39.987  13.694
18217W        W90477  43.163  19.649  12.427
18218W        W90478  37.395  17.095   0.834
18219W        W90479   8.399  38.797   2.778
18220W        W90480  44.238  10.603  14.444
18221W        W90481  40.844  13.323   1.367
18222W        W90482  11.526  43.532   4.579
18223W        W90483  27.948  16.235   2.752
18224W        W90484  13.301  12.080   3.132
18225W        W90485  17.540  14.345  11.666
18226W        W90486  18.033   2.948   1.685
18227W        W90487  31.633   0.972  14.382
18228W        W90488  15.638  40.737  11.566
18229W        W90489  38.638  24.939   2.556
18230W        W90490  23.671  13.334  12.661
18231W        W90491  36.245  21.456   0.452
18232W        W90492  33.340  41.729  12.042
18233W        W90493  10.639  42.387  14.793
18234W        W90494   8.627   6.281   5.188
18235W        W90495  43.655  21.880  13.967
18236W        W90496  37.993  11.400   3.670
18237W        W90497  33.488  15.413   1.313
18238W        W90498  24.195  32.912  14.490
18239W        W90499  11.856  37.472   1.433
18240W        W90500  31.721  10.807  13.434
18241W        W90501  39.803  20.606  13.611
18242W        W90502  38.190  11.156   0.448
18243W        W90503  18.587   6.489  11.524
18244W        W90504   0.942   3.435  12.975
18245W        W90505   9.905  40.787   0.254
18246W        W90506  30.013  43.164  10.716
18247W        W90507   5.595  25.200   1.192
18248W        W90508  24.962   8.309   0.021
18249W        W90509   0.501  33.294   2.728
18250W        W90510  22.312  18.819   5.431
18251W        W90511  38.999  32.900   4.270
18252W        W90512  10.894  17.626   3.737
18253W        W90513  44.470  24.818  13.189
18254W        W90514  33.915  22.193  12.916
18255W        W90515  42.072  37.378   3.358
18256W        W90516  42.288  21.145   0.390
18257W        W90517  32.590  37.046  10.647
18258W        W90518   2.374  38.294  14.788
18259W        W90519   6.500  27.064  10.175
18260W        W90520  23.777   1.888   3.933
18261W        W90521  13.683  30.153  10.744
18262W        W90522   8.930  32.944  12.102
18263W        W90523  33.329  12.714   1.962
18264W        W90524  34.318  34.584  11.165
18265W        W90525   0.799  44.231   2.247
18266W        W90526  23.590  21.590   0.068
18267W        W90527  44.016  11.979  14.884
18268W        W90528  27.413   8.310   1.418
18269W        W90529  28.957  44.260   1.413
18270W        W90530   1.424  30.056  10.591
18271W        W90531  32.756   4.728  13.169
18272W        W90532  28.421  14.870   0.752
18273W        W90533  29.326  17.184   1.488
18274W        W90534  32.934  15.078   3.422
18275W        W90535  21.297  10.691  13.421
18276W        W90536  26.706  38.620   4.039
18277W        W90537   1.397   9.632  12.480
18278W        W90538  13.355  39.438  12.362
18279W        W90539  43.471  29.121   3.399
18280W        W90540  42.429  29.031  13.843
18281W        W90541   1.168  20.587   0.264
18282W        W90542   5.283  16.593   2.374
18283W        W90543   0.053  19.195   0.586
18284W        W90544  13.836  20.104  13.477
18285W        W90545   9.754  31.002  10.781
18286W        W90546  34.908  12.365  11.206
18287W        W90547  34.185   3.308  13.455
18288W        W90548  44.901  41.352   0.427
18289W        W90549  44.973   0.555   0.982
18290W        W90550   6.964   0.896  11.362
18291W        W90551  28.411  19.071  12.684
18292W        W90552  33.934  29.169   4.290
18293W        W90553  36.914  29.773  11.116
18294W        W90554   4.525  35.394   2.809
18295W        W90555  37.460  39.683   4.594
18296W        W90556   7.736  22.292   0.212
18297W        W90557  12.375  42.499  13.330
18298W        W90558  33.200   9.315  14.494
18299W        W90559  16.316  43.950   2.302
18300W        W90560   1.165   6.897   1.895
18301W        W90561   9.015   0.827   2.622
18302W        W90562  36.116  27.501   1.829
18303W        W90563  27.486  18.629  11.659
18304W        W90564  35.954  28.106  12.529
18305W        W90565   9.246  34.509   2.570
18306W        W90566  18.285  37.400   0.698
18307W        W90567  14.025  36.004  14.447
18308W        W90568  12.213  10.763  11.440
18309W        W90569   6.983  24.191  14.694
18310W        W90570  24.698  36.984   0.418
18311W        W90571  31.797   5.414  14.004
18312W        W90572  11.679  10.872   0.342
18313W        W90573  29.461  30.433  12.505
18314W        W90574  24.053  44.425   0.218
18315W        W90575  23.806  33.784  11.553
18316W        W90576  19.285  16.559   1.503
18317W        W90577  15.358  24.800   2.728
18318W        W90578   3.239   5.703   1.949
18319W        W90579   4.731  26.261  14.682
18320W        W90580   7.790  20.614   0.233
18321W        W90581  28.040  32.973   2.636
18322W        W90582   0.303  22.624   0.519
18323W        W90583  13.106  36.242  13.011
18324W        W90584  23.124  29.670   1.897
18325W        W90585  15.137  42.934  12.611
18326W        W90586   7.886  23.243  14.095
18327W        W90587   2.371   5.475  14.976
18328W        W90588   5.503  20.187   3.644
18329W        W90589  29.352   3.855  14.026
18330W        W90590  40.699  37.921  11.678
18331W        W90591  44.711  24.319  10.191
18332W        W90592  26.446  17.059   2.468
18333W        W90593  39.805  10.100  12.984
18334W        W90594  37.249   1.360  10.672
18335W        W90595   3.076  34.314   0.088
18336W        W90596   2.045  23.583  14.783
18337W        W90597  28.857   0.819  12.390
18338W        W90598  44.102  36.799   5.033
18339W        W90599   0.516  19.583  13.072
18340W        W90600  24.096  28.467  11.189
18341W        W90601  39.530  11.839   3.930
18342W        W90602  18.778  35.620  14.437
18343W        W90603  18.925   7.658  12.002
18344W        W90604  34.883  18.551   0.765
18345W        W90605  13.259   7.201   0.722
18346W        W90606  24.979  41.029   2.766
18347W        W90607  25.529  30.315  10.137
18348W        W90608   8.885  13.330  13.378
18349W        W90609  39.557  21.937  10.876
18350W        W90610   8.230   7.138   3.253
18351W        W90611  17.048  10.694  11.824
18352W        W90612  31.132  30.411  13.806
18353W        W90613  44.951  40.316   4.395
18354W        W90614   9.841   0.702   1.445
18355W        W90615  18.797  43.933   1.222
18356W        W90616  21.470  26.823   4.181
18357W        W90617  34.937  24.588   1.015
18358W        W90618  41.181  39.326   2.854
18359W        W90619  40.320   9.621   2.863
18360W        W90620  13.672  21.567   1.472
18361W        W90621  35.317  18.537   3.472
18362W        W90622  22.128  16.593   0.907
18363W        W90623  29.074   4.729   1.434
18364W        W90624  20.122  19.738  11.470
18365W        W90625  38.583   4.214  10.647
18366W        W90626  27.018  40.507  10.609
18367W        W90627  29.077  11.450  11.881
18368W        W90628  19.195  44.789  13.514
18369W        W90629   1.971   8.905  14.407
18370W        W90630  26.309   5.727  12.112
18371W        W90631  37.168  35.152   2.333
18372W        W90632   2.241  41.939  11.541
18373W        W90633  25.333  11.216  13.286
18374W        W90634   4.176  19.740  12.472
18375W        W90635  11.143  25.069  14.953
18376W        W90636   0.819  40.010  11.164
18377W        W90637  15.744  24.376   2.663
18378W        W90638  14.457   2.848  14.601
18379W        W90639  42.824  42.778   4.984
18380W        W90640  26.951  20.590  13.861
18381W        W90641  11.448  18.165   2.911
18382W        W90642  28.659  30.885  12.534
18383W        W90643  29.927  43.263   3.393
18384W        W90644   4.688  36.977  10.761
18385W        W90645  14.567  28.678   4.664
18386W        W90646  40.060  17.788   2.842
18387W        W90647   2.423   4.657   1.778
18388W        W90648   0.048  35.568   2.284
18389W        W90649  28.578   3.192  10.465
18390W        W90650  39.819   0.332   3.129
18391W        W90651  24.514  37.610   2.688
18392W        W90652  18.165  17.086   4.589
18393W        W90653  20.244  20.425  12.474
18394W        W90654  16.838  39.793  14.258
18395W        W90655  38.091  44.965   2.063
18396W        W90656  33.943  25.965  11.487
18397W        W90657   0.239  39.271  14.947
18398W        W90658  39.741   4.897   2.662
18399W        W90659   4.927   4.337  11.664
18400W        W90660  19.410  29.907  11.245
18401W        W90661   7.699  29.038   4.584
18402W        W90662  26.711   9.132   0.927
18403W        W90663  38.229  11.292   4.822
18404W        W90664  18.796  15.747   3.782
18405W        W90665  20.028  22.920  12.436
18406W        W90666  19.136   6.148  13.553
18407W        W90667  44.700  43.782   0.498
18408W        W90668  21.057  11.556   2.695
18409W        W90669  34.112  40.846  11.525
18410W        W90670  23.574  39.801   3.111
18411W        W90671  17.608  22.703  14.908
18412W        W90672   0.203   7.992  13.335
18413W        W90673  15.173  11.745  11.078
18414W        W90674   7.587  35.314   2.534
18415W        W90675  17.263  20.835  12.290
18416W        W90676  19.596   3.448  12.079
18417W        W90677  39.038  29.147   0.048
18418W        W90678  25.101  18.339   0.799
18419W        W90679  21.111  22.307  14.986
18420W        W90680  23.535  19.243  13.450
18421W        W90681  15.297  29.182   1.467
18422W        W90682   6.215  30.650   5.071
18423W        W90683   9.866   1.005   0.457
18424W        W90684   1.973   5.939   4.229
18425W        W90685  27.485  23.733  13.017
18426W        W90686  16.903  31.293  12.891
18427W        W90687  39.539   3.917  10.988
18428W        W90688  29.466  18.874   4.030
18429W        W90689  10.572   6.800  11.357
18430W        W90690  35.844  42.994   5.089
18431W        W90691   3.685  13.679  14.073
18432W        W90692  10.478  44.544  14.210
18433W        W90693   4.225  37.035   1.412
18434W        W90694  44.859   4.451   1.489
18435W        W90695  29.646  30.673   3.061
18436W        W90696  23.527  42.109  11.647
18437W        W90697  12.859  13.756  10.714
18438W        W90698  13.519  25.668  11.590
18439W        W90699  27.040   2.043   3.674
18440W        W90700  37.443  19.132   1.919
18441W        W90701  27.441   0.271   4.178
18442W        W90702  13.171  34.781  11.543
18443W        W90703  38.734   7.284   4.119
18444W        W90704  18.195  22.923  12.204
18445W        W90705  27.708  16.780  13.846
18446W        W90706  22.315  37.535   0.925
18447W        W90707  36.531  14.374   5.056
18448W        W90708  38.422  40.529   4.065
18449W        W90709   2.912  18.065  13.850
18450W        W90710  30.409   3.705  13.013
18451W        W90711  20.107  18.586  12.955
18452W        W90712  34.609  38.787  12.165
18453W        W90713   4.910  10.801   0.344
18454W        W90714  22.059   5.645   0.195
18455W        W90715   9.081  44.440   3.690
18456W        W90716  36.680   5.103  11.376
18457W        W90717  21.057  18.418  10.652
18458W        W90718  30.975  16.577   3.637
18459W        W90719  23.351  36.596  14.604
18460W        W90720  34.043   3.938   3.707
18461W        W90721  39.599  37.375   1.374
18462W        W90722  11.032  28.411  13.005
18463W        W90723   7.400  27.205  12.064
18464W        W90724  27.039   2.436   2.293
18465W        W90725   8.790  20.025  14.747
18466W        W90726  17.467  20.632   1.276
18467W        W90727   2.450  39.273   0.781
18468W        W90728  34.155  38.026  11.141
18469W        W90729  23.077  25.747  10.232
18470W        W90730  29.249   3.393  14.236
18471W        W90731  19.326  15.169   4.229
18472W        W90732   0.285  38.530   3.198
18473W        W90733   0.045  12.156   4.091
18474W        W90734   9.862  35.340  10.726
18475W        W90735  21.012   3.825   0.379
18476W        W90736  37.870  42.689   3.658
18477W        W90737  22.807  40.718  11.153
18478W        W90738  32.117  34.584  13.989
18479W        W90739  22.514  24.931   2.680
18480W        W90740  44.759  28.172   3.248
18481W        W90741   7.942  18.774   1.373
18482W        W90742  13.577  21.223   4.168
18483W        W90743  44.808  32.402  12.351
18484W        W90744  37.483  10.079  10.268
18485W        W90745  27.430   4.169   4.143
18486W        W90746  23.122  27.515   3.377
18487W        W90747   5.370   3.432  12.053
18488W        W90748  13.164  15.861  13.450
18489W        W90749  37.970  29.038  12.589
18490W        W90750  41.746  33.371   4.631
18491W        W90751   3.384  11.807   2.610
18492W        W90752  11.397  30.393  14.971
18493W        W90753  11.863  12.612  14.471
18494W        W90754   3.834  30.453  10.548
18495W        W90755  35.394  26.483   2.229
18496W        W90756   1.089   6.419  11.496
18497W        W90757  44.965  38.133  11.184
18498W        W90758  26.552   8.301  14.770
18499W        W90759   7.110  35.925   0.849
18500W        W90760   8.672  35.080  12.416
18501W        W90761  10.648  17.071   2.452
18502W        W90762  23.500  10.107  11.828
18503W        W90763  24.377  25.024   5.072
18504W        W90764  11.786   1.517   2.261
18505W        W90765  21.549  44.838  13.587
18506W        W90766  23.307  34.478   1.908
18507W        W90767  35.292  25.567   3.621
18508W        W90768  30.828  39.486   3.214
18509W        W90769  17.349  21.051   3.586
18510W        W90770  39.285  30.952   0.715
18511W        W90771  11.811   2.848   1.886
18512W        W90772   3.255  13.255  12.891
18513W        W90773  23.949  22.153  13.786
18514W        W90774   2.496   3.458   4.583
18515W        W90775   7.025  28.953   3.404
18516W        W90776  36.540  10.421   0.804
18517W        W90777  20.810   9.258   4.137
18518W        W90778  20.711  33.697  11.006
18519W        W90779  15.601  41.827   1.249
18520W        W90780  40.424  20.704  12.981
18521W        W90781  20.781  38.051   3.758
18522W        W90782  32.053   1.454   4.340
18523W        W90783  17.193   4.737   3.144
18524W        W90784  43.939  22.723  13.582
18525W        W90785  13.059  34.542  10.760
18526W        W90786  33.431  30.243  10.024
18527W        W90787  33.412   9.815  12.109
18528W        W90788   8.251  39.737  14.755
18529W        W90789  33.225  31.028   4.791
18530W        W90790  15.240  38.022  12.836
18531W        W90791  11.272   3.052   4.004
18532W        W90792   1.242  11.286  11.518
18533W        W90793  31.732  33.421  10.804
18534W        W90794  39.986  14.575  13.407
18535W        W90795  42.570  29.105  14.947
18536W        W90796  36.989  43.217   1.926
18537W        W90797  10.852  37.264  13.458
18538W        W90798  38.923  20.728   1.380
18539W        W90799  37.605  23.436  10.391
18540W        W90800  43.404  43.777  14.323
18541W        W90801   0.765   1.468  11.561
18542W        W90802  10.905  11.913  13.862
18543W        W90803  13.378  26.118  12.441
18544W        W90804  36.075   3.032   0.489
18545W        W90805  12.192  44.826  13.444
18546W        W90806   9.100  29.959  10.409
18547W        W90807  20.184  32.048   2.475
18548W        W90808   3.277  17.345  11.519
18549W        W90809  11.175  40.820   4.933
18550W        W90810  17.549   2.265   3.670
18551W        W90811   4.331  15.020  10.495
18552W        W90812  43.203  35.550   3.435
18553W        W90813   0.493  22.109  10.413
18554W        W90814  24.826  32.405   0.887
18555W        W90815  30.686  30.475  14.063
18556W        W90816  40.655   0.579   2.356
18557W        W90817  34.387   1.386   1.386
18558W        W90818  25.715  21.291  10.589
18559W        W90819   9.652  41.350  11.635
18560W        W90820  17.289  32.394  13.514
18561W        W90821  23.793  41.098  14.479
18562W        W90822  15.645  25.938   4.606
18563W        W90823  21.566  25.434  12.937
18564W        W90824   5.469  20.686   4.511
18565W        W90825  42.100  41.017  14.870
18566W        W90826  30.847  19.505  13.891
18567W        W90827  31.102  18.491   4.161
18568W        W90828  15.382  40.773  12.028
18569W        W90829  21.372  16.058  11.512
18570W        W90830  31.047  39.411   3.684
18571W        W90831   9.126   5.459   0.359
18572W        W90832  18.233  30.152   4.113
18573W        W90833  23.064  27.701  11.229
18574W        W90834  44.230  26.452   3.648
18575W        W90835   1.729  41.457  11.423
18576W        W90836   8.158  31.920   4.120
18577W        W90837  41.189  29.396  11.942
18578W        W90838  17.800  18.174  11.486
18579W        W90839  23.522  30.649   4.129
18580W        W90840  27.617  15.291   4.427
18581W        W90841  44.477  10.494  14.886
18582W        W90842   1.504  10.973   1.853
18583W        W90843  32.298  39.925   1.345
18584W        W90844  20.952  42.861   0.500
18585W        W90845  23.695  37.315   0.231
18586W        W90846  29.141  30.555   1.363
18587W        W90847  20.254   5.363  14.378
18588W        W90848  25.494  14.775  11.495
18589W        W90849  37.802   0.717   4.633
18590W        W90850  16.597  43.004   1.926
18591W        W90851  28.020  31.145   3.681
18592W        W90852  24.738   8.710   4.891
18593W        W90853  14.255  37.273   2.599
18594W        W90854  17.678  15.274  10.712
18595W        W90855   4.383  43.887   1.319
18596W        W90856   9.190  16.145  11.595
18597W        W90857   5.615   5.735   3.288
18598W        W90858  41.398  25.557   2.650
18599W        W90859  40.971  19.138   1.292
18600W        W90860  12.229  12.194   2.628
18601W        W90861  10.339   6.002  14.112
18602W        W90862  30.545  10.225   3.728
18603W        W90863  18.230  24.822  14.395
18604W        W90864  26.451  43.254   0.771
18605W        W90865  24.910  27.149   2.790
18606W        W90866   3.538  25.393  11.615
18607W        W90867  44.907  17.001  14.457
18608W        W90868  24.110  25.140  10.923
18609W        W90869  26.574  19.577   1.291
18610W        W90870  28.193  20.263   0.725
18611W        W90871   6.637  10.813  10.920
18612W        W90872   6.213  32.745  11.161
18613W        W90873  22.239   2.486  13.514
18614W        W90874  26.631  32.403  13.388
18615W        W90875   1.963  42.010   2.661
18616W        W90876  20.567   4.478   3.604
18617W        W90877   6.770  28.006   5.510
18618W        W90878  30.410  26.388  11.517
18619W        W90879  10.707  12.246  14.840
18620W        W90880  19.632   0.648   0.907
18621W        W90881  36.610  40.042   0.805
18622W        W90882  20.815  43.427  13.566
18623W        W90883  38.517  42.875   0.831
18624W        W90884   2.230  18.198  11.590
18625W        W90885  37.352  17.713  10.650
18626W        W90886  43.970  15.620  14.468
18627W        W90887   7.801   3.316   3.692
18628W        W90888   1.478  22.502  12.873
18629W        W90889  10.648  40.407   3.348
18630W        W90890  22.345  25.953  14.896
18631W        W90891  31.581  12.207  11.940
18632W        W90892  22.474  33.590  11.018
18633W        W90893  20.210  21.534   4.315
18634W        W90894  18.928  13.768  13.437
18635W        W90895   2.201  16.281  13.637
18636W        W90896  18.545  20.600  14.413
18637W        W90897  13.536   6.301   2.748
18638W        W90898  10.422  44.952  11.621
18639W        W90899   4.668  25.143  10.619
18640W        W90900  35.495  17.601   5.018
18641W        W90901  36.193   6.569   0.794
18642W        W90902  43.412  40.292   2.417
18643W        W90903   8.568   4.785   0.403
18644W        W90904  19.890  12.967   3.766
18645W        W90905  39.955  23.274   0.520
18646W        W90906  28.455  38.995   0.972
18647W        W90907  26.942  36.515  13.887
18648W        W90908  24.196  14.576   0.982
18649W        W90909  15.792  24.484  13.005
18650W        W90910   8.258  23.872   3.111
18651W        W90911  25.641  31.209  14.974
18652W        W90912  25.382  21.316  14.965
18653W        W90913  30.523  17.950   3.744
18654W        W90914  13.394  39.077  13.062
18655W        W90915   2.910  34.941   0.699
18656W        W90916  27.745   7.012   5.011
18657W        W90917  29.516   5.248   1.676
18658W        W90918  24.628  21.211  12.965
18659W        W90919  18.206  42.543   4.629
18660W        W90920   4.151  11.709  11.659
18661W        W90921   7.821   0.513   3.299
18662W        W90922   1.093  38.153  14.463
18663W        W90923  27.485   0.986  12.587
18664W        W90924  20.032   5.398  11.085
18665W        W90925  44.126  15.182   3.234
18666W        W90926  31.666  13.131   2.562
18667W        W90927  22.769   1.375   1.828
18668W        W90928  15.798  21.061   2.721
18669W        W90929   9.677   5.202   2.380
18670W        W90930  36.192  15.913   3.178
18671W        W90931  21.348  31.946  14.966
18672W        W90932  37.852  12.130   0.072
18673W        W90933  39.734  36.770  13.941
18674W        W90934  11.819   5.865  13.456
18675W        W90935  18.096  37.420   4.513
18676W        W90936  19.585   1.679   4.326
18677W        W90937  13.249  14.207   0.901
18678W        W90938  35.506   5.840  10.497
18679W        W90939   9.177   9.887   0.686
18680W        W90940  19.111  42.261  11.495
18681W        W90941  26.543   4.441   4.573
18682W        W90942   3.246  32.910  12.623
18683W        W90943  19.576   7.229   1.749
18684W        W90944   1.348   8.436  12.968
18685W        W90945  29.454  38.413  14.414
18686W        W90946   8.391   6.896   0.908
18687W        W90947  23.223  24.475   4.655
18688W        W90948  26.234  17.293   0.789
18689W        W90949  41.138  36.037   1.858
18690W        W90950  14.809   8.853  13.289
18691W        W90951   7.923  25.313   2.587
18692W        W90952  14.756  20.442   2.988
18693W        W90953  44.982  17.800  12.163
18694W        W90954  20.028  29.513   2.845
18695W        W90955  35.484   6.903  13.349
18696W        W90956  20.538   3.423  14.848
18697W        W90957  28.112  39.816  11.018
18698W        W90958  19.840   6.433   0.806
18699W        W90959  14.238  33.528   3.755
18700W        W90960  21.464  28.041   5.170
18701W        W90961   0.186  20.931   1.142
18702W        W90962  34.353  23.403   1.546
18703W        W90963  29.470  12.732   1.307
18704W        W90964  13.897  14.985  14.023
18705W        W90965  27.706  28.831   5.081
18706W        W90966  23.798  15.994  13.480
18707W        W90967   9.462   3.916  12.760
18708W        W90968   8.891  14.870  11.911
18709W        W90969  39.635  28.137   1.125
18710W        W90970  18.740  27.574   2.467
18711W        W90971  35.130  23.197   4.374
18712W        W90972   4.715  17.032  11.486
18713W        W90973   4.579  41.098  13.915
18714W        W90974  15.107  40.789  13.531
18715W        W90975  18.060  33.401   3.604
18716W        W90976  25.425  22.900   0.044
18717W        W90977   0.457  14.756   3.774
18718W        W90978  36.415  17.304  13.398
18719W        W90979  33.470  38.798   5.099
18720W        W90980   7.830  28.951   2.036
18721W        W90981  13.676  17.824  11.173
18722W        W90982  36.654  26.801   1.167
18723W        W90983   1.511   2.156  13.200
18724W        W90984  42.317  39.856  11.501
18725W        W90985  20.273  29.655   4.740
18726W        W90986  10.817   2.190   0.036
18727W        W90987  31.588  20.708   3.721
18728W        W90988  11.712  14.130   4.561
18729W        W90989  40.596  39.889  10.870
18730W        W90990   1.527  26.469   3.449
18731W        W90991  32.471  36.982  13.447
18732W        W90992  42.823  39.785   4.658
18733W        W90993   2.440   3.668   0.523
18734W        W90994   7.316  43.246   3.099
18735W        W90995   1.452  43.739   0.974
18736W        W90996  31.873  11.105  13.811
18737W        W90997  26.354  19.744  10.244
18738W        W90998   0.461  14.332  12.475
18739W        W90999   9.938  32.380  14.954
18740W        W91000  12.813  40.263  11.936
18741W        W91001  14.610  33.119  10.396
18742W        W91002   3.898   7.916   0.707
18743W        W91003  22.589  16.168  10.812
18744W        W91004   3.357  10.679   3.543
18745W        W91005  15.961   6.817  14.360
18746W        W91006  22.993  16.615   0.799
18747W        W91007  12.787  19.159  13.350
18748W        W91008  37.918  41.240  10.281
18749W        W91009  27.444   9.815   4.799
18750W        W91010  24.475  21.710   1.457
18751W        W91011  41.726  34.448   3.274
18752W        W91012  14.240   6.606  11.966
18753W        W91013  12.122  35.587   1.358
18754W        W91014  10.167  36.060   3.759
18755W        W91015  17.670   6.355  10.806
18756W        W91016  25.764  33.145   4.123
18757W        W91017   5.737   4.173   2.662
18758W        W91018  35.296  33.013   4.675
18759W        W91019   8.127  15.394  12.267
18760W        W91020  39.170  11.561   4.208
18761W        W91021   4.279   1.607   2.654
18762W        W91022  18.670  29.901   3.299
18763W        W91023  39.391  17.327   1.273
18764W        W91024  14.450  38.918   4.904
18765W        W91025  41.551  26.032   2.839
18766W        W91026  13.223  32.175   4.203
18767W        W91027  23.195   2.162  13.394
18768W        W91028  26.818  15.685   1.802
18769W        W91029  22.263  44.371  11.011
18770W        W91030  22.486  12.723   2.697
18771W        W91031  32.910  12.708  12.647
18772W        W91032  34.617  43.586   0.885
18773W        W91033  26.035  18.553  10.665
18774W        W91034  26.451  19.009   4.014
18775W        W91035  41.467  15.185   0.261
18776W        W91036   3.227  40.711  13.916
18777W        W91037  19.132   5.338  14.364
18778W        W91038   1.414  26.556  13.306
18779W        W91039   1.254   6.913  14.048
18780W        W91040  26.539  29.507  13.596
18781W        W91041  30.562  12.473   4.655
18782W        W91042  25.002   3.948   3.614
18783W        W91043  12.742  26.463  13.482
18784W        W91044  44.332  24.927   1.700
18785W        W91045  30.645  25.473  10.799
18786W        W91046  22.268  19.867  11.143
18787W        W91047  30.115  16.715   1.013
18788W        W91048  27.445  36.656   0.986
18789W        W91049   1.202  12.290   1.831
18790W        W91050   7.192   7.728  13.416
18791W        W91051  43.925  13.382  10.746
18792W        W91052  27.972   9.902  14.229
18793W        W91053  26.222  14.344  10.767
18794W        W91054  41.854  39.066   1.875
18795W        W91055   8.356  44.648  11.147
18796W        W91056  24.127  34.817   0.923
18797W        W91057  34.938   5.114   5.104
18798W        W91058  22.598  11.777   3.639
18799W        W91059  21.377  19.043   9.902
18800W        W91060   5.896   4.289  14.777
18801W        W91061  30.464  18.718   2.910
18802W        W91062  13.739  15.397  12.500
18803W        W91063  20.253  41.501   3.706
18804W        W91064  31.595  44.706   3.714
18805W        W91065  43.571  27.927  11.811
18806W        W91066  18.347   4.110   2.880
18807W        W91067  15.022   6.190  14.627
18808W        W91068  14.264   2.442   2.546
18809W        W91069  14.171  30.475   5.418
18810W        W91070   8.865  36.521   3.452
18811W        W91071   4.004  34.545  11.857
18812W        W91072  24.458  11.237  10.750
18813W        W91073  24.224  23.329   0.191
18814W        W91074  41.975  36.008   1.825
18815W        W91075  40.767   4.734  11.533
18816W        W91076   8.967  44.991  13.081
18817W        W91077   3.870  42.202  11.215
18818W        W91078  26.965  16.363   2.080
18819W        W91079  10.759  24.924  13.619
18820W        W91080  31.211  16.362   3.165
18821W        W91081  20.733  25.515  12.145
18822W        W91082   9.609  30.127   0.416
18823W        W91083  31.108  27.435   3.202
18824W        W91084  27.655  18.743   0.369
18825W        W91085  25.402   0.771  14.283
18826W        W91086  24.103  28.445   1.194
18827W        W91087  35.203   5.639   0.640
18828W        W91088  33.804  10.400  11.135
18829W        W91089   9.438   8.289   0.762
18830W        W91090   6.973   6.285   2.263
18831W        W91091  36.828  21.513   2.770
18832W        W91092   9.656   0.859   4.116
18833W        W91093  14.258  14.575  14.059
18834W        W91094  41.154  21.552  13.356
18835W        W91095  27.608   8.784  13.470
18836W        W91096  42.362   0.106   0.061
18837W        W91097  22.666  14.380  14.348
18838W        W91098  16.300  32.730  11.948
18839W        W91099  25.598  37.504  12.388
18840W        W91100   1.436  32.403  10.733
18841W        W91101  23.414  28.607   0.424
18842W        W91102  15.171  36.791   0.112
18843W        W91103  26.112  33.429   3.069
18844W        W91104  26.097  40.068   0.826
18845W        W91105  44.354  33.888  13.177
18846W        W91106  24.080   5.165  13.011
18847W        W91107  24.866  40.311   3.353
18848W        W91108  33.498  39.283  12.436
18849W        W91109  13.643  25.461  12.988
18850W        W91110  16.719  27.968   4.343
18851W        W91111  42.415  36.242   3.152
18852W        W91112   0.435  15.619  14.514
18853W        W91113  10.562  23.294  14.720
18854W        W91114  16.331   4.558  11.567
18855W        W91115  32.710  33.117  13.460
18856W        W91116  23.219  32.459  12.537
18857W        W91117   7.656  43.481  13.501
18858W        W91118  24.913  11.719   1.628
18859W        W91119  38.832  34.600   1.743
18860W        W91120  10.863  26.988   4.694
18861W        W91121  36.412  40.359   5.050
18862W        W91122   4.238  40.612  14.749
18863W        W91123   3.504  27.727  14.059
18864W        W91124   3.746   9.389   0.570
18865W        W91125  19.729  17.613  14.934
18866W        W91126  12.261   4.850   2.904
18867W        W91127  16.702  15.669   3.049
18868W        W91128  36.529  13.385   4.683
18869W        W91129  32.559  21.193   2.372
18870W        W91130  37.801  31.639  14.338
18871W        W91131  39.387  16.137  10.670
18872W        W91132   9.233  19.255   2.393
18873W        W91133  13.446  35.637   4.337
18874W        W91134  17.931  11.784   2.625
18875W        W91135  43.487  29.403  14.475
18876W        W91136   1.733  17.180   0.118
18877W        W91137   1.424  30.926   0.304
18878W        W91138  21.621  20.029   0.173
18879W        W91139  25.641   2.993  11.495
18880W        W91140   3.473  18.979  11.061
18881W        W91141   0.796  26.968  13.732
18882W        W91142  13.848   9.979  13.780
18883W        W91143  23.611   7.629   2.064
18884W        W91144  23.715   0.052   3.175
18885W        W91145  36.896  42.852  10.807
18886W        W91146   5.500  23.796  14.566
18887W        W91147  18.094  33.248   4.633
18888W        W91148  23.535  22.173   1.726
18889W        W91149  33.635  23.744  10.183
18890W        W91150   2.356  43.883  13.443
18891W        W91151  28.161  43.021   0.333
18892W        W91152  30.012  16.499   3.004
18893W        W91153   0.426  12.263  11.121
18894W        W91154  29.108  44.469  12.433
18895W        W91155   0.268  16.144  12.396
18896W        W91156  20.944  42.832   1.039
18897W        W91157   2.400  18.964   1.318
18898W        W91158  12.300   0.254   0.997
18899W        W91159  43.426  40.712  13.366
18900W        W91160  10.073  25.673   1.314
18901W        W91161  39.930  38.299   0.009
18902W        W91162   5.854  44.972   4.608
18903W        W91163  36.893  19.105   0.256
18904W        W91164  11.833  40.872   3.194
18905W        W91165   6.745  32.941   0.792
18906W        W91166  23.657  23.398   2.520
18907W        W91167  20.204   7.801   5.038
18908W        W91168   5.426   0.362   0.017
18909W        W91169   1.964  17.546  10.424
18910W        W91170  36.812   0.489   4.705
18911W        W91171   7.864  12.077  11.601
18912W        W91172  41.261  16.593  12.944
18913W        W91173  19.692  31.660  14.265
18914W        W91174   6.514  18.023   0.332
18915W        W91175  30.743  42.420   2.900
18916W        W91176  17.169  44.543   4.363
18917W        W91177  37.146  10.231   2.805
18918W        W91178  12.394  25.074   1.289
18919W        W91179  33.057   5.774  14.936
18920W        W91180   8.534  13.749  13.446
18921W        W91181  26.157  40.045   3.579
18922W        W91182  22.252  28.234  12.582
18923W        W91183  28.954  12.211  10.328
18924W        W91184  10.887  26.556   3.103
18925W        W91185   7.220  31.636   0.376
18926W        W91186   1.874  37.864   3.267
18927W        W91187  10.449  42.930   4.011
18928W        W91188  20.084  11.815  13.820
18929W        W91189  33.645  21.635  11.210
18930W        W91190  27.509   3.911  12.916
18931W        W91191  14.745   1.928   4.568
18932W        W91192  15.791   3.602  14.591
18933W        W91193  27.139  25.064  10.730
18934W        W91194  31.222   2.860  12.732
18935W        W91195  36.381  22.465   4.735
18936W        W91196  14.604  13.327   5.081
18937W        W91197  33.518  37.855  14.902
18938W        W91198   2.051   0.842   0.768
18939W        W91199  31.529   5.388  14.434
18940W        W91200  42.996  33.503   1.155
18941W        W91201  25.106  32.747  14.219
18942W        W91202  32.653  18.612  12.209
18943W        W91203  26.754   5.307   4.520
18944W        W91204  22.661  17.120   2.701
18945W        W91205  14.053  14.521   4.646
18946W        W91206   3.885  27.046  10.303
18947W        W91207  30.870  14.482  13.339
18948W        W91208   5.432  17.737  14.897
18949W        W91209  21.989  13.767  14.673
18950W        W91210  36.276   4.695   5.442
18951W        W91211  26.971  42.168   3.305
18952W        W91212  38.009  33.152  14.223
18953W        W91213  21.579   2.220  14.864
18954W        W91214  14.617  22.404  12.433
18955W        W91215  27.461  27.094   2.451
18956W        W91216  14.821  24.524  12.049
18957W        W91217  35.159   6.914   2.579
18958W        W91218  42.053  23.364   2.382
18959W        W91219  30.821  43.935  13.856
18960W        W91220  22.994  18.779   0.877
18961W        W91221  15.288  34.121   1.414
18962W        W91222  16.338  24.125  10.728
18963W        W91223  12.335  16.365   1.396
18964W        W91224   9.667  30.264  11.749
18965W        W91225  20.285   3.150   1.941
18966W        W91226  33.983  30.881   2.906
18967W        W91227  16.716  26.728   1.739
18968W        W91228  37.366  38.865  10.978
18969W        W91229  19.514  13.643   3.660
18970W        W91230  38.309   8.773   4.808
18971W        W91231  38.274   2.278   2.712
18972W        W91232  38.506  38.671   2.208
18973W        W91233  17.840  20.458  10.726
18974W        W91234  21.679   5.996   0.028
18975W        W91235  10.884  43.402  12.063
18976W        W91236  25.181  37.840  10.712
18977W        W91237  13.630  18.292   1.002
18978W        W91238   4.530  34.377   1.398
18979W        W91239  30.398   1.201  12.986
18980W        W91240  35.521  22.682   0.382
18981W        W91241  21.895  23.432  10.760
18982W        W91242   0.988  22.613   4.504
18983W        W91243   7.279  44.331   2.222
18984W        W91244  43.431  17.521   4.087
18985W        W91245  29.101  29.469   1.475
18986W        W91246   7.793  18.056   4.086
18987W        W91247  11.387  24.104  13.848
18988W        W91248  24.598  20.514   0.444
18989W        W91249  10.268  12.144   2.885
18990W        W91250  13.759   0.407   3.172
18991W        W91251   4.384  41.371  12.703
18992W        W91252  27.217  40.946   9.848
18993W        W91253  42.011  33.154   3.183
18994W        W91254  17.557  16.575  14.910
18995W        W91255   4.792  26.770  11.553
18996W        W91256  38.540  16.874  11.069
18997W        W91257   8.320  32.723   4.603
18998W        W91258  17.187  22.681  13.372
18999W        W91259  36.538   4.373  11.734
19000W        W91260  14.813   0.074   0.430
19001W        W91261   9.258  13.393  13.745
19002W        W91262  23.010  15.794   4.646
19003W        W91263  28.913  18.454  11.650
19004W        W91264  13.085   5.136  14.864
19005W        W91265  27.420  25.684   3.777
19006W        W91266   7.217  34.603   2.480
19007W        W91267  43.927  32.529   1.526
19008W        W91268  31.232  44.524  11.052
19009W        W91269  17.249  41.915   3.072
19010W        W91270  19.838  22.996  11.958
19011W        W91271   9.726  34.857  12.562
19012W        W91272   2.705  32.152  13.009
19013W        W91273  11.909   3.811   0.531
19014W        W91274  41.437   9.897   3.252
19015W        W91275  34.216  24.211   0.498
19016W        W91276   4.164  40.001  14.348
19017W        W91277  24.516  38.149  10.968
19018W        W91278  36.342  44.989  14.777
19019W        W91279  29.479   2.378   2.304
19020W        W91280   9.621  29.621   1.330
19021W        W91281   3.829  11.011  11.195
19022W        W91282   4.243  31.622  13.690
19023W        W91283  21.209  19.271  13.301
19024W        W91284  19.492   6.181   1.087
19025W        W91285   9.351   5.348   3.712
19026W        W91286   0.822  10.741   2.146
19027W        W91287   2.857  33.703   5.027
19028W        W91288  12.509  39.533   2.882
19029W        W91289  33.886  19.150   5.122
19030W        W91290  36.542   9.834   3.960
19031W        W91291  38.394  23.597   3.590
19032W        W91292  36.559   1.152   0.768
19033W        W91293  36.453  21.100   0.756
19034W        W91294  37.958   4.343  12.556
19035W        W91295  10.212  14.813  14.437
19036W        W91296   3.494   9.329   3.598
19037W        W91297  32.634  13.088  11.605
19038W        W91298  12.784  18.066   3.358
19039W        W91299  19.212   1.603   2.593
19040W        W91300  33.579  41.582  13.944
19041W        W91301  20.718  14.581   1.534
19042W        W91302  17.291  11.559  11.466
19043W        W91303  39.909  24.398   2.642
19044W        W91304  40.699   7.382   3.108
19045W        W91305  26.728  28.711   0.573
19046W        W91306  38.837  13.086  10.673
19047W        W91307   2.869  32.981  11.179
19048W        W91308   1.151  41.287  14.711
19049W        W91309  39.507   1.716   1.691
19050W        W91310  26.760  21.069  13.799
19051W        W91311  30.735  35.120   0.437
19052W        W91312   2.401  28.137   2.333
19053W        W91313  29.874  40.426   2.385
19054W        W91314  43.732   4.017  11.621
19055W        W91315  27.610  17.978   1.196
19056W        W91316   2.833  32.067   4.374
19057W        W91317  23.044  19.418  14.896
19058W        W91318  22.308  43.289   4.542
19059W        W91319   1.809  13.176   1.590
19060W        W91320   9.675  10.579  11.141
19061W        W91321   0.415  32.239  13.541
19062W        W91322  30.650  39.068   2.138
19063W        W91323  20.829   6.637  11.856
19064W        W91324   2.827  39.956  10.752
19065W        W91325  19.925   5.100  14.107
19066W        W91326  41.885  43.054  13.963
19067W        W91327   2.242  36.816   4.138
19068W        W91328  39.518  32.283   4.024
19069W        W91329  11.166  30.479  13.977
19070W        W91330  26.937  35.848   2.694
19071W        W91331   1.757  33.247  10.398
19072W        W91332  22.984  20.794   2.815
19073W        W91333   1.618   5.765   0.836
19074W        W91334  19.181  21.023   3.684
19075W        W91335  17.704  25.605  13.304
19076W        W91336  20.267   3.343  14.433
19077W        W91337  11.192  16.743   4.784
19078W        W91338  20.931  43.794  11.244
19079W        W91339  18.586  23.030   3.260
19080W        W91340   8.416  20.461   2.365
19081W        W91341  38.087  26.704   3.765
19082W        W91342  30.014  44.863   4.287
19083W        W91343  30.916  31.507   5.378
19084W        W91344  19.468  25.142  14.243
19085W        W91345   4.090  12.297   2.196
19086W        W91346  24.280  43.210   1.130
19087W        W91347  26.427  24.460  12.000
19088W        W91348  38.542  39.837  11.904
19089W        W91349  21.340  43.035  14.405
19090W        W91350   5.770  26.530   3.353
19091W        W91351  29.361  31.388   4.523
19092W        W91352  11.763  37.988   3.695
19093W        W91353  36.304  20.301   1.405
19094W        W91354   9.812  32.532   3.132
19095W        W91355   2.072  13.060  10.785
19096W        W91356  43.505   7.470   2.362
19097W        W91357   6.890  38.667   2.657
19098W        W91358   4.244  10.139  14.726
19099W        W91359  32.805   7.714  11.068
19100W        W91360  11.888  38.280   1.935
19101W        W91361  42.510   4.018  14.626
19102W        W91362  10.061  14.392   3.897
19103W        W91363  41.797  17.257  13.125
19104W        W91364   7.691  39.911   4.630
19105W        W91365  27.686  29.082   0.304
19106W        W91366  32.189  22.602   1.193
19107W        W91367  32.514  36.868   4.571
19108W        W91368   2.904  20.854  14.911
19109W        W91369   0.432  25.320  14.951
19110W        W91370  24.285  17.771  14.429
19111W        W91371  42.004  20.563  11.625
19112W        W91372   2.440  16.582   0.049
19113W        W91373   9.207  16.256   2.158
19114W        W91374   7.409  32.473  12.122
19115W        W91375   4.624  37.989   3.638
19116W        W91376  44.516  11.304  13.733
19117W        W91377  42.771   2.209  14.393
19118W        W91378  18.668  29.891   4.183
19119W        W91379  23.473   7.790  12.068
19120W        W91380   6.018   5.618  11.934
19121W        W91381  32.647  10.431  13.430
19122W        W91382  31.042  28.972   2.419
19123W        W91383  37.478   0.183   3.298
19124W        W91384  24.012  30.588  11.008
19125W        W91385   0.915   5.344   1.272
19126W        W91386  30.943   0.365   2.024
19127W        W91387   2.919  32.987   1.785
19128W        W91388  26.722  43.394   3.687
19129W        W91389  28.843  34.521  12.088
19130W        W91390  18.613  40.364   3.087
19131W        W91391  14.817  23.105   1.701
19132W        W91392  28.558   4.801   2.613
19133W        W91393  37.757  38.974   1.365
19134W        W91394  13.605  27.606  13.244
19135W        W91395  14.277  43.084   0.885
19136W        W91396  20.568  41.262   1.097
19137W        W91397   3.462   5.296  13.851
19138W        W91398  27.631   4.247  10.640
19139W        W91399  20.754  18.960  11.698
19140W        W91400  36.498   3.212  11.703
19141W        W91401  13.526  29.064  11.249
19142W        W91402  37.442   8.637   4.320
19143W        W91403  29.712  33.626  14.526
19144W        W91404   1.060   8.696  11.703
19145W        W91405  29.103  29.711  11.540
19146W        W91406  12.817  37.980   1.871
19147W        W91407   3.884  34.983   0.353
19148W        W91408  42.965   5.405  10.384
19149W        W91409  32.595  17.260  12.678
19150W        W91410   2.837  11.391  10.996
19151W        W91411  27.113  16.561   1.611
19152W        W91412   7.640  34.582  12.559
19153W        W91413  12.904   7.671   2.158
19154W        W91414   9.747  19.954  11.205
19155W        W91415  15.745   1.402   1.235
19156W        W91416   0.896  26.943  12.417
19157W        W91417   7.732   7.492   1.017
19158W        W91418  20.098  35.688  13.587
19159W        W91419  18.903  18.458   2.318
19160W        W91420  18.287  40.549   1.720
19161W        W91421  18.690  30.969   3.289
19162W        W91422  10.085   0.892  14.167
19163W        W91423   5.935   8.741  13.788
19164W        W91424  34.985   3.343  14.751
19165W        W91425  26.179  10.109  14.961
19166W        W91426  44.947  39.382  13.335
19167W        W91427  17.729  23.964  12.854
19168W        W91428  36.509  18.121  14.654
19169W        W91429   7.449  38.087   2.740
19170W        W91430   9.835   5.461   3.656
19171W        W91431  21.190  18.505  12.928
19172W        W91432  23.557  38.077   0.147
19173W        W91433  10.689  10.615  11.285
19174W        W91434  23.972  30.634  14.255
19175W        W91435  36.735  21.585   3.672
19176W        W91436  44.672   5.380   2.057
19177W        W91437  15.579  39.192  13.222
19178W        W91438  33.038   8.877   4.636
19179W        W91439   4.130  29.132  14.940
19180W        W91440   0.212  14.861  11.587
19181W        W91441   6.705  43.835  10.678
19182W        W91442  15.117  35.784  14.552
19183W        W91443   8.371  39.561   3.285
19184W        W91444  15.283  42.941   0.783
19185W        W91445  15.369  19.070  13.100
19186W        W91446  11.687  12.380   3.279
19187W        W91447  27.578   8.675   0.487
19188W        W91448  26.776   4.513  12.648
19189W        W91449  26.684   0.015  11.480
19190W        W91450   3.366  31.962   3.619
19191W        W91451  21.914  32.035   4.894
19192W        W91452  19.015  35.530   2.257
19193W        W91453  39.702   8.480  12.406
19194W        W91454  37.670   3.747   1.932
19195W        W91455  36.755  20.818  12.118
19196W        W91456  16.238  42.234   4.803
19197W        W91457  37.519  16.086  11.629
19198W        W91458  29.628  14.792  13.636
19199W        W91459  18.597  31.628   1.830
19200W        W91460  13.876  42.334   4.573
19201W        W91461   4.319  14.228   1.830
19202W        W91462  30.713   3.450  14.005
19203W        W91463  18.104  15.198  13.782
19204W        W91464   4.707   1.843  13.929
19205W        W91465  22.079  25.807   0.345
19206W        W91466  18.792   5.621   0.527
19207W        W91467  32.783  10.928  13.378
19208W        W91468  26.698  39.011  13.300
19209W        W91469   8.916  21.932   3.995
19210W        W91470  37.766  27.515  11.505
19211W        W91471   7.681  27.646  11.968
19212W        W91472  13.836  44.440  11.888
19213W        W91473  42.029  37.480  10.751
19214W        W91474  37.498  29.192  12.417
19215W        W91475  29.798  19.709   0.776
19216W        W91476   3.327  42.420   4.314
19217W        W91477  39.976   9.289   4.925
19218W        W91478  41.398  17.882  11.039
19219W        W91479  32.658  27.702   2.305
19220W        W91480  26.152  27.780  13.661
19221W        W91481  27.009  40.410   0.301
19222W        W91482   4.808  26.760  10.222
19223W        W91483   2.148   6.299   1.410
19224W        W91484   9.844  32.023   3.348
19225W        W91485  20.248  41.852  11.197
19226W        W91486  12.993  20.605   0.761
19227W        W91487   0.907   4.821   3.748
19228W        W91488  39.081  28.090   4.205
19229W        W91489  25.294  10.453   4.992
19230W        W91490  25.578  12.831  12.431
19231W        W91491   7.249  30.393   2.463
19232W        W91492  29.344  26.187   0.198
19233W        W91493  15.805   6.751   1.196
19234W        W91494   6.762  38.058  13.339
19235W        W91495  17.978  12.781  10.929
19236W        W91496   9.208   9.685  13.321
19237W        W91497   7.679  19.002   0.600
19238W        W91498   6.265  26.394  14.582
19239W        W91499  16.564  28.068   3.833
19240W        W91500  26.148  14.099   0.922
19241W        W91501  40.390  37.575  14.788
19242W        W91502  17.854   0.461  11.176
19243W        W91503  19.455  25.455   4.142
19244W        W91504   6.750   6.317  12.339
19245W        W91505  21.085  23.215   4.579
19246W        W91506   9.205  33.700   5.142
19247W        W91507  41.571  24.100  10.848
19248W        W91508  10.661  10.282  14.007
19249W        W91509  15.393  43.516  11.091
19250W        W91510  14.821  17.731   2.707
19251W        W91511   3.456   0.609  11.985
19252W        W91512  10.216  32.684   2.825
19253W        W91513   7.533   5.513   3.307
19254W        W91514   2.879  10.426   2.406
19255W        W91515  39.009  23.651  12.313
19256W        W91516  28.930  41.415  10.695
19257W        W91517  30.162  32.127   2.320
19258W        W91518  39.015  36.930  14.745
19259W        W91519  20.784  42.072  11.606
19260W        W91520  29.400  18.744   0.910
19261W        W91521  26.894  44.887   4.306
19262W        W91522  36.571  22.280   0.172
19263W        W91523  28.764  22.604  12.026
19264W        W91524  40.494  22.042  13.262
19265W        W91525  34.362   0.267   2.348
19266W        W91526  40.064  30.070   4.534
19267W        W91527  29.629  42.418   0.489
19268W        W91528  24.701  15.186  13.368
19269W        W91529   0.008  22.428  12.041
19270W        W91530   9.586   2.980   3.719
19271W        W91531  32.178  36.363   0.987
19272W        W91532  38.895  18.318   3.663
19273W        W91533  11.952   3.478   1.363
19274W        W91534  28.916  14.356  13.800
19275W        W91535   0.832  29.531   1.851
19276W        W91536   1.546   6.194   0.464
19277W        W91537  24.176   3.406   0.500
19278W        W91538   0.759  35.865   1.816
19279W        W91539  15.625  16.693  10.515
19280W        W91540  10.340  23.664  10.304
19281W        W91541  11.362  33.408  14.943
19282W        W91542  21.049  34.462   2.637
19283W        W91543  22.249  25.610   5.063
19284W        W91544   7.450  24.198  14.980
19285W        W91545  20.792  15.250   1.793
19286W        W91546   3.788  19.818  14.232
19287W        W91547   1.344  12.531  13.978
19288W        W91548  39.872  22.489   1.695
19289W        W91549  20.412  30.900   4.077
19290W        W91550  43.990  21.310  11.561
19291W        W91551  17.191   2.940  11.442
19292W        W91552  14.649   7.353   2.672
19293W        W91553  10.566   1.563  12.025
19294W        W91554   5.201  12.674  14.113
19295W        W91555  38.926  31.591  13.027
19296W        W91556  24.529  36.451   2.160
19297W        W91557  18.435  13.843  13.577
19298W        W91558   0.714  21.786  11.607
19299W        W91559  10.078  35.672   4.181
19300W        W91560   3.833  15.224  11.353
19301W        W91561   4.868  40.323   4.879
19302W        W91562  10.651  32.471   4.631
19303W        W91563  32.075  18.454  10.277
19304W        W91564  28.152  19.712   4.097
19305W        W91565  21.106  19.759  10.735
19306W        W91566  18.253  35.683  12.704
19307W        W91567  44.173  29.066  12.083
19308W        W91568  34.300  11.781   2.633
19309W        W91569  36.101  39.375   1.207
19310W        W91570  29.597   4.441  11.931
19311W        W91571  27.760  28.081   3.219
19312W        W91572  32.840  16.783   2.361
19313W        W91573  17.295  36.821   2.203
19314W        W91574  31.425   3.902  14.812
19315W        W91575  15.967  14.128  13.515
19316W        W91576  12.331   4.876  10.846
19317W        W91577  17.802  31.083  12.525
19318W        W91578  27.188  10.675  14.466
19319W        W91579  27.068  21.763  11.076
19320W        W91580  25.458  42.615   4.607
19321W        W91581  17.578   1.215  13.903
19322W        W91582  40.355   1.830  13.980
19323W        W91583  38.337  30.512   0.824
19324W        W91584  20.118  30.012   2.690
19325W        W91585  34.074  32.934  12.846
19326W        W91586  40.033  26.217   1.361
19327W        W91587   3.717  35.108   2.695
19328W        W91588  32.572  27.596   4.602
19329W        W91589  27.143  26.939  12.286
19330W        W91590  19.520   1.761  11.085
19331W        W91591  22.223  23.029  10.925
19332W        W91592  15.146  37.963  13.332
19333W        W91593  29.019   2.963  14.054
19334W        W91594   0.407  35.951   4.520
19335W        W91595  40.676  34.071   2.819
19336W        W91596  26.743   9.876   4.037
19337W        W91597   6.886   3.044   0.918
19338W        W91598  26.851  27.874  13.720
19339W        W91599  36.486  43.792   4.184
19340W        W91600   2.484  17.173  13.300
19341W        W91601  16.245   2.475  14.844
19342W        W91602  27.392   8.164  12.831
19343W        W91603   3.449  36.436  13.189
19344W        W91604  20.265  43.371  11.986
19345W        W91605  35.039  25.900   0.203
19346W        W91606   8.152  16.358   2.662
19347W        W91607   8.721  23.274  11.620
19348W        W91608  43.809  29.156   3.872
19349W        W91609   4.496  28.579   3.183
19350W        W91610  43.383  16.175   3.872
19351W        W91611   7.830  21.680  13.636
19352W        W91612  19.874  10.120  12.497
19353W        W91613   7.417  36.485   4.699
19354W        W91614  31.399  21.569  13.528
19355W        W91615  10.862  41.071  11.608
19356W        W91616  10.069   1.294  13.806
19357W        W91617  43.899  11.544   4.555
19358W        W91618  25.824  39.453  10.815
19359W        W91619  18.641  37.977  12.048
19360W        W91620  17.365   1.777   1.235
19361W        W91621  29.933  16.192  12.900
19362W        W91622  24.982  29.421   0.264
19363W        W91623   2.771  13.985   4.082
19364W        W91624  30.036  29.385   1.494
19365W        W91625  44.964  41.714   2.684
19366W        W91626  24.603   0.857  13.639
19367W        W91627  22.472   0.261   2.442
19368W        W91628  41.479  34.883   3.148
19369W        W91629  40.503  27.489   0.227
19370W        W91630  29.186  20.179  14.035
19371W        W91631  38.424  32.928  10.745
19372W        W91632  26.496  22.311  11.539
19373W        W91633  22.598  36.536  11.193
19374W        W91634  24.864  27.638  10.894
19375W        W91635  38.351  14.065   3.585
19376W        W91636  20.982  39.606   0.405
19377W        W91637  41.983  14.809   0.781
19378W        W91638   3.728   1.431   2.832
19379W        W91639   3.712  19.320  11.665
19380W        W91640  29.708  30.578  10.235
19381W        W91641  35.528   7.519  13.900
19382W        W91642  42.886  15.618  10.674
19383W        W91643  12.839  11.561   2.018
19384W        W91644  13.841  38.762   2.378
19385W        W91645  44.749  18.716   1.962
19386W        W91646  14.702  33.322   3.872
19387W        W91647  35.489  18.719   1.954
19388W        W91648  25.571  10.466   4.469
19389W        W91649  19.452   0.292   1.851
19390W        W91650  19.204   0.809  11.203
19391W        W91651  25.634   6.898  12.459
19392W        W91652   1.733   8.759   0.449
19393W        W91653  19.720  34.627  12.872
19394W        W91654  35.064  32.572   4.531
19395W        W91655  43.986   0.999  10.876
19396W        W91656  22.007  28.670   3.155
19397W        W91657  22.357  30.606  13.116
19398W        W91658  21.303  12.123  12.084
19399W        W91659   4.284   7.393   0.653
19400W        W91660  41.116  27.578  13.121
19401W        W91661  40.551  26.674   1.671
19402W        W91662   5.010  37.311   1.298
19403W        W91663  13.170  33.977   1.661
19404W        W91664  10.158  31.889   0.357
19405W        W91665  23.181   2.524  13.045
19406W        W91666  25.646  26.561   0.365
19407W        W91667  11.098  25.113  10.643
19408W        W91668  32.900  26.864   2.277
19409W        W91669  38.868  39.686   1.320
19410W        W91670  41.295  13.728  12.439
19411W        W91671   3.489   5.807  12.084
19412W        W91672   9.462  21.446  14.443
19413W        W91673  43.335  39.522   3.346
19414W        W91674   5.907  26.805   2.925
19415W        W91675  39.830  44.476  11.125
19416W        W91676  16.259  44.844   0.476
19417W        W91677   8.424   5.551   3.779
19418W        W91678  12.157  27.656   4.695
19419W        W91679  14.159  17.793   2.379
19420W        W91680  29.055   1.233   0.670
19421W        W91681  12.334   7.301  11.889
19422W        W91682  28.570   8.714   0.484
19423W        W91683   4.340  15.855   0.688
19424W        W91684  21.004  26.529   4.234
19425W        W91685  31.155  44.332  13.010
19426W        W91686  36.461  18.983   9.798
19427W        W91687  21.647  33.034   2.747
19428W        W91688  25.551   4.568   3.252
19429W        W91689   4.094  19.629  11.129
19430W        W91690   9.343  18.351  12.020
19431W        W91691   0.928   0.990  11.720
19432W        W91692  19.603  25.187  13.399
19433W        W91693  33.012  39.312   3.642
19434W        W91694  36.925  13.766   4.557
19435W        W91695  40.796  31.941   0.533
19436W        W91696  14.864   6.347   2.456
19437W        W91697  10.844  24.245  12.398
19438W        W91698  21.738  32.458   0.969
19439W        W91699  41.075  30.125   3.215
19440W        W91700  43.925   1.271   4.113
19441W        W91701  39.910  13.993   4.617
19442W        W91702  39.912   3.217   1.445
19443W        W91703  40.037  34.648   2.143
19444W        W91704  41.548  33.411  12.885
19445W        W91705  15.460   4.046   4.185
19446W        W91706   6.353  29.530   1.747
19447W        W91707  11.643  13.210   2.304
19448W        W91708  31.953  28.037   0.846
19449W        W91709  25.316  43.362   0.305
19450W        W91710   7.445  16.607  10.908
19451W        W91711  11.589  37.790   1.864
19452W        W91712  28.669  20.941  14.898
19453W        W91713   5.958  14.038   2.206
19454W        W91714  13.685  42.403   1.519
19455W        W91715  28.629  32.473  12.615
19456W        W91716  14.393  15.303   3.670
19457W        W91717  29.669  17.254   3.652
19458W        W91718  23.074  34.034   2.323
19459W        W91719  13.711  34.848  14.983
19460W        W91720   3.455   9.669   1.424
19461W        W91721  24.145  40.663  10.264
19462W        W91722   4.420  41.084  11.611
19463W        W91723  39.956   9.311  10.202
19464W        W91724  20.389  19.173  12.472
19465W        W91725  10.314  12.299   3.395
19466W        W91726  16.587   3.605  11.634
19467W        W91727  17.954  40.601   1.324
19468W        W91728   5.454  38.077   1.958
19469W        W91729  22.531  24.471   3.819
19470W        W91730  20.112  21.627   1.159
19471W        W91731  25.183  29.396  13.847
19472W        W91732  23.312   9.118   2.335
19473W        W91733  21.983  18.116   0.482
19474W        W91734  12.703  42.306   1.503
19475W        W91735  41.541  16.374  13.324
19476W        W91736  36.094  31.579  10.790
19477W        W91737  39.270   5.668   1.949
19478W        W91738  13.796   2.030  14.442
19479W        W91739  44.157  26.765   2.229
19480W        W91740   5.281   7.928   4.695
19481W        W91741   7.216  27.185   4.063
19482W        W91742  13.806  37.003  14.452
19483W        W91743  44.797  39.528  14.800
19484W        W91744   8.809   0.498   0.886
19485W        W91745  36.850  14.816  14.805
19486W        W91746  34.396   9.512  13.451
19487W        W91747  33.919  32.181   1.930
19488W        W91748  40.523   1.134   3.921
19489W        W91749  12.576  34.333  10.738
19490W        W91750  31.329  23.944  10.630
19491W        W91751  34.164  44.047  12.790
19492W        W91752  15.430  43.274   1.425
19493W        W91753   3.797   2.523   0.304
19494W        W91754  31.606  35.590   2.965
19495W        W91755   6.779  19.525   1.829
19496W        W91756  31.515  35.682   1.131
19497W        W91757  34.632  23.233  10.756
19498W        W91758  39.263   8.630  10.274
19499W        W91759  27.198  41.346  13.404
19500W        W91760  31.073  10.777   4.180
19501W        W91761  23.759  12.232   1.425
19502W        W91762  15.580  27.604  14.448
19503W        W91763  18.611  40.414  12.367
19504W        W91764  24.387   6.404   1.162
19505W        W91765  32.430  10.775   3.909
19506W        W91766  32.731  36.525  10.681
19507W        W91767  11.794  20.063  14.311
19508W        W91768  41.064  38.829   2.932
19509W        W91769  24.012  26.445  14.915
19510W        W91770  42.526   7.199  11.554
19511W        W91771  21.990  35.111   1.815
19512W        W91772  44.226  35.530   1.864
19513W        W91773   0.871  36.145  10.741
19514W        W91774  13.349  44.569  14.039
19515W        W91775  23.751  17.289   1.639
19516W        W91776  30.497  16.694  14.098
19517W        W91777   8.288  24.622   3.609
19518W        W91778   9.181  29.970  12.572
19519W        W91779   4.831  29.669  14.779
19520W        W91780   4.925  43.016   2.168
19521W        W91781  42.849  16.109  10.503
19522W        W91782  22.463  33.414  13.762
19523W        W91783  12.131  40.363  14.046
19524W        W91784   7.113  28.435  10.925
19525W        W91785  42.452  31.886   3.028
19526W        W91786  10.767   2.202  13.560
19527W        W91787  24.615  32.651   3.081
19528W        W91788   8.980  20.116  14.222
19529W        W91789  26.463  42.759   0.873
19530W        W91790  29.383  34.909  12.505
19531W        W91791  27.681  24.546  12.892
19532W        W91792  19.339  22.565   3.705
19533W        W91793  19.996  20.595   4.656
19534W        W91794  30.110  36.516  12.434
19535W        W91795  12.327  10.380   3.754
19536W        W91796   7.449  39.044  13.347
19537W        W91797  37.486  33.504  10.442
19538W        W91798  21.272  12.373   3.727
19539W        W91799  30.378  39.268   3.352
19540W        W91800  36.904   1.888  10.745
19541W        W91801  26.223   3.968  14.773
19542W        W91802  30.079  25.260  13.006
19543W        W91803   3.331  28.685  11.476
19544W        W91804  11.670  28.210  10.729
19545W        W91805  18.731  30.542   0.455
19546W        W91806  42.431   3.170   2.160
19547W        W91807  40.028  14.122   1.716
19548W        W91808  15.160  29.599  10.135
19549W        W91809   8.329   5.056   1.262
19550W        W91810   7.266  31.591   3.202
19551W        W91811   4.273  41.517  13.657
19552W        W91812  20.384  30.466   4.365
19553W        W91813  11.626  22.244  11.997
19554W        W91814  12.622  26.946  13.600
19555W        W91815   1.197  19.279  10.752
19556W        W91816   4.327  44.439   3.200
19557W        W91817  17.384  29.764   3.712
19558W        W91818   2.970  26.069  13.532
19559W        W91819  28.698  31.888  10.199
19560W        W91820  15.398  40.250   3.264
19561W        W91821  44.147  18.055   1.882
19562W        W91822  31.442  18.547  11.617
19563W        W91823  31.881  23.561   1.282
19564W        W91824  44.038  21.978   0.310
19565W        W91825   6.154  44.572   1.323
19566W        W91826  40.320  32.418  13.402
19567W        W91827  28.477  30.649   4.916
19568W        W91828  28.641  31.159  11.155
19569W        W91829  40.832  17.352   4.689
19570W        W91830   0.586  13.220  11.147
19571W        W91831  27.991   1.165   1.825
19572W        W91832  27.064  24.629   0.466
19573W        W91833  31.848  34.164  14.451
19574W        W91834  38.944  37.923   4.646
19575W        W91835  19.489   1.818   1.663
19576W        W91836  14.677   3.623  11.539
19577W        W91837  32.524   7.864  12.787
19578W        W91838  34.031  42.999  14.896
19579W        W91839   8.423  19.802   0.063
19580W        W91840  34.955  25.935   2.618
19581W        W91841   6.364  30.646   3.308
19582W        W91842  33.111  38.304  13.995
19583W        W91843   0.258  33.687  14.434
19584W        W91844  29.622   0.384  14.849
19585W        W91845   8.165   1.538  13.881
19586W        W91846  37.648  29.054   9.861
19587W        W91847  18.864  43.254   2.504
19588W        W91848   4.874  22.922  13.067
19589W        W91849  23.959  13.582   2.388
19590W        W91850  30.491  27.684   1.649
19591W        W91851  10.982  40.371   2.537
19592W        W91852  15.315  23.550  12.014
19593W        W91853  15.235  24.715  13.413
19594W        W91854  43.529  10.240  13.595
19595W        W91855  21.693  30.903  11.587
19596W        W91856  44.594   7.951  11.572
19597W        W91857   6.409  39.452   0.347
19598W        W91858  41.914  10.230  12.931
19599W        W91859  30.810   6.996   2.592
19600W        W91860   3.356  11.966  14.940
19601W        W91861  40.356  17.900   5.241
19602W        W91862  41.980  38.402  14.713
19603W        W91863  32.392  33.769  10.492
19604W        W91864  22.738   5.381  14.364
19605W        W91865  25.436   1.554  13.932
19606W        W91866  43.970  38.612   2.352
19607W        W91867  20.603  29.557  13.969
19608W        W91868  38.024   1.236   3.787
19609W        W91869  14.761  42.806   0.805
19610W        W91870   2.232  12.844  12.521
19611W        W91871  21.168  34.468   9.722
19612W        W91872  21.207  13.159   4.098
19613W        W91873  37.480  42.274  12.052
19614W        W91874  18.991   7.115   2.653
19615W        W91875  26.398  11.291  14.253
19616W        W91876  16.031  38.365   0.343
19617W        W91877   6.113   8.931   1.687
19618W        W91878  17.731  26.564   4.067
19619W        W91879  23.962   4.925   2.676
19620W        W91880  26.732  26.007  14.263
19621W        W91881  18.977  11.698   2.841
19622W        W91882  44.337   2.870   3.732
19623W        W91883  32.353  14.596  10.727
19624W        W91884  42.331  18.333  14.069
19625W        W91885  11.097  36.590  11.685
19626W        W91886  25.452  25.416  14.451
19627W        W91887  34.665  21.943  13.324
19628W        W91888   0.873   9.526  12.319
19629W        W91889  40.853  34.777   1.285
19630W        W91890   4.321  18.480  13.465
19631W        W91891  29.827  19.029   3.295
19632W        W91892  27.428  17.136  11.402
19633W        W91893   0.006   2.679   0.865
19634W        W91894   5.587   4.950  10.588
19635W        W91895  27.131  25.074   1.369
19636W        W91896  32.866  16.171  13.421
19637W        W91897  19.276  19.082  14.785
19638W        W91898   5.953   0.353   2.809
19639W        W91899  39.922   1.981   1.801
19640W        W91900   8.941   6.753  11.833
19641W        W91901  16.046  37.708  11.562
19642W        W91902  37.001   0.936  14.444
19643W        W91903  35.216  27.768  13.490
19644W        W91904  36.401  29.303   3.094
19645W        W91905  44.423  33.485   4.238
19646W        W91906   5.633  25.583  13.625
19647W        W91907  22.071  10.900   4.555
19648W        W91908  13.618  15.939  14.406
19649W        W91909  29.481  39.364  13.806
19650W        W91910  28.868  34.521   3.704
19651W        W91911  12.270  44.433  10.883
19652W        W91912   6.749  32.964  12.616
19653W        W91913  11.419  32.558   4.181
19654W        W91914   9.202  22.179  13.961
19655W        W91915  11.563   1.749  14.095
19656W        W91916  29.999  35.119  11.055
19657W        W91917  36.120  25.336  14.480
19658W        W91918   4.332  23.595  13.238
19659W        W91919  36.174   4.515  12.668
19660W        W91920  17.058  14.129  10.554
19661W        W91921  39.348  25.047   0.621
19662W        W91922  41.000  29.625  14.283
19663W        W91923   4.437  17.557   1.011
19664W        W91924  42.616   2.321   2.313
19665W        W91925   5.998  19.620  12.127
19666W        W91926  25.082  17.638   4.702
19667W        W91927   6.753  10.337   1.397
19668W        W91928  34.386   8.796   0.272
19669W        W91929  36.015  23.311  12.059
19670W        W91930  27.038  22.342  12.470
19671W        W91931  37.453  36.383  12.920
19672W        W91932  15.603  14.685  13.098
19673W        W91933   1.202  13.890   3.135
19674W        W91934  22.705   8.327   2.667
19675W        W91935  27.048  13.299   2.229
19676W        W91936  17.076  25.378   4.545
19677W        W91937  30.423  10.897  13.824
19678W        W91938  21.761  34.061   1.845
19679W        W91939  16.125  42.797  13.798
19680W        W91940  17.602   9.145   1.937
19681W        W91941  44.883  44.900   4.542
19682W        W91942  34.265   3.290  11.868
19683W        W91943  25.653  29.640  10.378
19684W        W91944   3.379   7.783  14.033
19685W        W91945  29.219  31.127  10.407
19686W        W91946   2.167  43.977   0.190
19687W        W91947  15.891  19.734  12.894
19688W        W91948  43.198   7.885  14.643
19689W        W91949  37.462  24.154  14.015
19690W        W91950   4.609  41.332   4.846
19691W        W91951  19.582  32.219  11.087
19692W        W91952  39.930  39.687   3.700
19693W        W91953  43.585  18.729   2.757
19694W        W91954  33.541  14.251  11.965
19695W        W91955  32.960  25.855   4.589
19696W        W91956  36.417  39.505  14.950
19697W        W91957  11.619   0.786   4.578
19698W        W91958  31.810  11.328   4.401
19699W        W91959  22.963  44.912  14.421
19700W        W91960  33.788  36.355  14.403
19701W        W91961  28.943  22.686  13.358
19702W        W91962  28.424  31.049   1.619
19703W        W91963  29.895   1.319  14.445
19704W        W91964  30.607  10.714   1.854
19705W        W91965  44.947  11.272   3.572
19706W        W91966  42.892  26.975   2.213
19707W        W91967  32.668  16.855  13.539
19708W        W91968   8.907  14.311  12.010
19709W        W91969  25.105  30.926  12.611
19710W        W91970  30.331  31.696   2.623
19711W        W91971  23.121   2.876   0.749
19712W        W91972   7.024  15.161  12.969
19713W        W91973  27.111  21.777   1.679
19714W        W91974  25.648  38.122   2.830
19715W        W91975   1.800  25.206   1.388
19716W        W91976  37.953  31.176  13.840
19717W        W91977   7.498  26.121   4.544
19718W        W91978  31.144  38.406   2.763
19719W        W91979  37.282  32.682  11.116
19720W        W91980  14.687  42.523   0.208
19721W        W91981  35.621   6.903   4.882
19722W        W91982  25.735  11.059  13.012
19723W        W91983  22.489   6.148  13.088
19724W        W91984  20.211  41.306   3.232
19725W        W91985  41.237  33.098  12.593
19726W        W91986   3.941  31.110   0.951
19727W        W91987   8.886  29.089  13.813
19728W        W91988  29.449  22.118  12.116
19729W        W91989   6.279  39.554  11.928
19730W        W91990  27.925  41.797   3.275
19731W        W91991   8.194  36.340  14.975
19732W        W91992  21.657  38.560  11.407
19733W        W91993  17.450   7.399   4.066
19734W        W91994  12.444  41.349   4.660
19735W        W91995  24.137  14.049   2.231
19736W        W91996  27.896  15.749  13.483
19737W        W91997  20.201   4.754   4.261
19738W        W91998  41.728  26.655  11.551
19739W        W91999  37.667  26.720   1.173
19740W        W92000  19.990  12.114  14.358
19741W        W92001   1.438   5.613  11.574
19742W        W92002   2.735  43.312   1.424
19743W        W92003   1.398   4.018  13.873
19744W        W92004  42.865   0.527   3.670
19745W        W92005  36.939  44.495  11.173
19746W        W92006  30.502  13.053  10.645
19747W        W92007   1.425  18.157   1.315
19748W        W92008   9.797  24.134   1.384
19749W        W92009   7.766   0.591  13.887
19750W        W92010  27.479  27.488  11.869
19751W        W92011  41.922  20.910   1.419
19752W        W92012  25.099   6.721  14.080
19753W        W92013  43.875   9.903   2.860
19754W        W92014   5.396   6.346   1.397
19755W        W92015  22.904  29.356   5.056
19756W        W92016  24.013  37.970   1.452
19757W        W92017   3.177  36.308   0.942
19758W        W92018  37.220  23.156  13.948
19759W        W92019  36.124   3.111   4.010
19760W        W92020  30.896  22.320   1.121
19761W        W92021  11.652   2.845  11.562
19762W        W92022  19.270   0.939  12.922
19763W        W92023  35.605  18.867  11.029
19764W        W92024   8.336  13.355   0.354
19765W        W92025   6.449   6.819   4.010
19766W        W92026   5.259  15.377  11.192
19767W        W92027  21.639  18.993  13.427
19768W        W92028  26.213  28.090  11.919
19769W        W92029  26.236   6.789  12.861
19770W        W92030   4.791  22.981  11.480
19771W        W92031  22.938  36.028   3.372
19772W        W92032  43.180   5.258  12.558
19773W        W92033  15.103  23.582  12.463
19774W        W92034  25.995   1.374   3.344
19775W        W92035  36.889  39.849   4.122
19776W        W92036  17.025  32.970  10.868
19777W        W92037  44.787  21.172   4.289
19778W        W92038  31.648  23.109  10.655
19779W        W92039  15.687  24.002   9.520
19780W        W92040  10.038  20.558   2.066
19781W        W92041  13.617  37.779   0.925
19782W        W92042  28.527  22.421  14.840
19783W        W92043  39.464  32.910   0.803
19784W        W92044  15.378  42.901  10.286
19785W        W92045  22.338  17.246   0.681
19786W        W92046   9.715  34.547  14.308
19787W        W92047  29.486   4.444   1.265
19788W        W92048  16.346  44.062  11.644
19789W        W92049  31.159   6.163  13.130
19790W        W92050  32.972  39.850   4.966
19791W        W92051  11.863  25.037   1.322
19792W        W92052  31.474  19.692   1.448
19793W        W92053  37.293   1.475   1.974
19794W        W92054  36.393  21.894   3.398
19795W        W92055  43.833  35.586   0.066
19796W        W92056  28.121  41.622  12.960
19797W        W92057  27.313  41.558   9.685
19798W        W92058   3.925  37.929  11.235
19799W        W92059  28.626  35.947   2.228
19800W        W92060  22.613  22.070  11.565
19801W        W92061  40.780   9.672   1.146
19802W        W92062  37.077  35.357   0.074
19803W        W92063  32.189  29.504   1.747
19804W        W92064  23.776  40.942  13.554
19805W        W92065   5.314  39.200  10.499
19806W        W92066  27.712   5.996  12.079
19807W        W92067   0.712   5.849   1.371
19808W        W92068   6.393   0.195  14.884
19809W        W92069   6.714   3.003  12.990
19810W        W92070   1.222  21.057  13.918
19811W        W92071  42.195  33.977   2.650
19812W        W92072  25.545  36.056  13.338
19813W        W92073  34.022  26.234  14.002
19814W        W92074   1.217  23.249  13.568
19815W        W92075  28.863  13.560  11.535
19816W        W92076  13.167  37.831  10.601
19817W        W92077  29.001   4.674  12.484
19818W        W92078  13.350   4.894  11.479
19819W        W92079  13.276  28.149   4.452
19820W        W92080  20.545   7.823  11.930
19821W        W92081  18.977  11.356   3.284
19822W        W92082   2.258  28.109  11.197
19823W        W92083  40.326  18.591  12.401
19824W        W92084  15.757  16.638   1.911
19825W        W92085  37.599  37.549  11.069
19826W        W92086  36.947  44.258  14.798
19827W        W92087  15.306  30.574  14.046
19828W        W92088  43.280  27.260   0.362
19829W        W92089  26.466  40.265  11.962
19830W        W92090   8.070   4.650   0.315
19831W        W92091   7.212  40.792   0.928
19832W        W92092  37.458  27.102  11.457
19833W        W92093  38.557   6.435   3.503
19834W        W92094  34.845  12.604   0.442
19835W        W92095  34.535  26.011   0.115
19836W        W92096  32.550  27.489  11.544
19837W        W92097  34.564  40.772  13.565
19838W        W92098  38.861   1.927   3.570
19839W        W92099  26.081  32.878   0.532
19840W        W92100  44.647  15.274   3.528
19841W        W92101   8.790  36.973  11.823
19842W        W92102  17.005  27.161   1.885
19843W        W92103   6.264  11.586  10.737
19844W        W92104   6.268  26.410   0.411
19845W        W92105  27.305  34.665  14.578
19846W        W92106  20.127  41.357   1.880
19847W        W92107  19.095  24.244   1.246
19848W        W92108  26.164  11.030   0.709
19849W        W92109  44.145  20.590   4.509
19850W        W92110  16.590   5.587   2.248
19851W        W92111  43.349  40.443  12.778
19852W        W92112   5.108  38.480  14.474
19853W        W92113   0.485  40.000   4.872
19854W        W92114   6.461   4.975  11.081
19855W        W92115  26.558   2.273   2.619
19856W        W92116  23.798   7.114   0.843
19857W        W92117  12.387   0.270  13.565
19858W        W92118  17.514  10.183   4.365
19859W        W92119   8.144  32.546   3.171
19860W        W92120  37.853   0.233  13.096
19861W        W92121   2.883   2.344  14.383
19862W        W92122   4.375  44.546  12.910
19863W        W92123  41.789  28.638   2.940
19864W        W92124  28.901  43.779   4.197
19865W        W92125  21.236  37.878  11.527
19866W        W92126  42.878  39.795  10.456
19867W        W92127  26.523  10.214  13.110
19868W        W92128  28.169  10.357   5.030
19869W        W92129  39.446   3.373  14.333
19870W        W92130   4.578   7.528   1.470
19871W        W92131  11.057  16.835   2.732
19872W        W92132   1.832   8.777   4.530
19873W        W92133  36.515   9.816  10.099
19874W        W92134   6.076   2.736   1.307
19875W        W92135   3.777  25.441   0.857
19876W        W92136   7.424  27.173   4.544
19877W        W92137   2.754  18.181   1.866
19878W        W92138  27.152   9.822  10.110
19879W        W92139  22.727  12.620   1.189
19880W        W92140  31.332  24.597  14.892
19881W        W92141  19.460  10.759   2.779
19882W        W92142  25.112  27.119  13.421
19883W        W92143   2.353  24.153  13.640
19884W        W92144  19.230  41.534   4.774
19885W        W92145  33.640  19.617  12.399
19886W        W92146  35.460  12.194   4.532
19887W        W92147   7.287  21.493  13.029
19888W        W92148   8.455  32.013   1.934
19889W        W92149  19.709  36.525  13.073
19890W        W92150  30.637  29.811  11.505
19891W        W92151  33.908  19.787  10.989
19892W        W92152   1.496  16.147   2.181
19893W        W92153   8.409  29.879  11.939
19894W        W92154  20.830  14.217   4.663
19895W        W92155  37.655   2.278  13.592
19896W        W92156   5.163  41.597  13.492
19897W        W92157  15.156  23.775   1.727
19898W        W92158  33.689   6.757  11.983
19899W        W92159  18.129  11.646   2.178
19900W        W92160  21.612   2.923  10.756
19901W        W92161  22.654  30.118   1.969
19902W        W92162  10.252  19.478  14.920
19903W        W92163  24.961  30.575   1.813
19904W        W92164  20.604   5.100   1.942
19905W        W92165   1.833   1.486   1.521
19906W        W92166  43.047  23.668   3.316
19907W        W92167  13.613  11.201   1.833
19908W        W92168  10.741   3.849  14.814
19909W        W92169  29.954  33.132  12.895
19910W        W92170   0.423  41.634  13.612
19911W        W92171  22.941   4.558  11.089
19912W        W92172  43.041   0.858   3.107
19913W        W92173   1.596   7.755   4.619
19914W        W92174  42.748   9.120   4.509
19915W        W92175  44.322  32.057   2.781
19916W        W92176  26.551   6.239   1.703
19917W        W92177  12.084   4.035   4.422
19918W        W92178   6.894  23.391   2.682
19919W        W92179  33.672   6.810   4.272
19920W        W92180  15.733  34.531   3.647
19921W        W92181  15.761  25.364   3.824
19922W        W92182   4.313  28.709   2.705
19923W        W92183   6.164  42.268   2.280
19924W        W92184  16.193  33.808   1.072
19925W        W92185  34.816  11.089  11.620
19926W        W92186  15.745  29.252  13.154
19927W        W92187  12.698   4.930   2.674
19928W        W92188  28.692  44.392  14.541
19929W        W92189  29.162  34.131   3.368
19930W        W92190  36.283  19.507  12.256
19931W        W92191  35.553  12.800   2.808
19932W        W92192  13.685   0.915  12.160
19933W        W92193  16.779   1.262  13.778
19934W        W92194  43.596  13.719  11.022
19935W        W92195  27.591  35.049   1.733
19936W        W92196   3.220  44.527  14.031
19937W        W92197  21.230  30.405  13.941
19938W        W92198  12.268  24.648  12.865
19939W        W92199  31.602  27.594  12.561
19940W        W92200  34.639  16.132   3.255
19941W        W92201  13.814  15.458   3.628
19942W        W92202  42.569  26.251   2.823
19943W        W92203  34.047  30.149  12.404
19944W        W92204  10.324  10.711   1.107
19945W        W92205  15.802  33.858  13.249
19946W        W92206  30.264  17.051   2.200
19947W        W92207  15.201  39.842  13.937
19948W        W92208  12.241   3.853  12.896
19949W        W92209  26.473   9.755  10.888
19950W        W92210  11.594  17.806  13.947
19951W        W92211   3.506  26.812  13.466
19952W        W92212  12.721  24.689  14.963
19953W        W92213  38.257   9.620  14.265
19954W        W92214  20.892  19.798   5.025
19955W        W92215  35.975  43.785   2.752
19956W        W92216   3.188  16.315   0.872
19957W        W92217   4.145   6.210  11.703
19958W        W92218  10.673  26.251  14.038
19959W        W92219  33.039  25.799  14.381
19960W        W92220  17.990  18.686   2.135
19961W        W92221  14.666  34.572   0.234
19962W        W92222   9.410  35.395  10.488
19963W        W92223  38.910  29.869  12.363
19964W        W92224  25.210   3.202  11.963
19965W        W92225  27.126   2.799   4.711
19966W        W92226  30.427  24.456  10.733
19967W        W92227   2.181  43.318   1.463
19968W        W92228  42.683  11.758  13.473
19969W        W92229  30.670  15.630   3.700
19970W        W92230   7.693  30.545   4.081
19971W        W92231  42.548  17.868   1.376
19972W        W92232  20.303  30.581   2.288
19973W        W92233   7.681  41.903  10.943
19974W        W92234  18.226  30.160  12.521
19975W        W92235  30.704   0.042  13.528
19976W        W92236  29.971  16.294   4.022
19977W        W92237   5.505  40.018   4.082
19978W        W92238  39.955  31.631   3.671
19979W        W92239  41.486  41.105   3.185
19980W        W92240  14.567  26.211  13.862
19981W        W92241  19.735  24.405   2.853
19982W        W92242  19.528   8.320  13.519
19983W        W92243  17.257  35.358   0.400
19984W        W92244   3.569   0.974  12.335
19985W        W92245  24.960  42.750   4.673
19986W        W92246  21.152   6.206   1.468
19987W        W92247  17.310  26.701  10.662
19988W        W92248   2.686  18.592  11.162
19989W        W92249  31.414  44.709   0.328
19990W        W92250  10.816  16.938   4.236
19991W        W92251  37.060  36.936   1.751
19992W        W92252  27.203  41.081   0.995
19993W        W92253  39.773  30.058   1.841
19994W        W92254  34.388  44.567   4.427
19995W        W92255  39.798  25.138  10.698
19996W        W92256  30.592  43.428  14.420
19997W        W92257  14.345  19.114   2.810
19998W        W92258  34.179  12.315   2.522
19999W        W92259  44.312  34.110   2.913
20000W        W92260   1.010  24.023   3.329
20001W        W92261  14.829   9.874   4.549
20002W        W92262   2.847  21.033  11.441
20003W        W92263  32.997  34.934   2.436
20004W        W92264  36.886  31.048   0.270
20005W        W92265  39.216  41.754   4.340
20006W        W92266  38.060   9.167  14.423
20007W        W92267  12.777  15.624   4.558
20008W        W92268  37.015  30.639   1.367
20009W        W92269  10.745  25.964   2.689
20010W        W92270   6.383  39.766   2.423
20011W        W92271  28.799  32.415  10.231
20012W        W92272  30.911   1.307  14.327
20013W        W92273  13.634  21.273   2.912
20014W        W92274  19.761  41.205   2.632
20015W        W92275  10.741   4.877   1.360
20016W        W92276  35.421  11.610  11.440
20017W        W92277   6.306  32.282  10.376
20018W        W92278  33.536   2.439  11.939
20019W        W92279   9.294  20.055  14.904
20020W        W92280  17.933  15.706   0.856
20021W        W92281   5.653   4.563   1.787
20022W        W92282  26.488  28.682   2.651
20023W        W92283   8.258  43.787   4.076
20024W        W92284   6.125  44.833   2.845
20025W        W92285  38.851  43.004   2.456
20026W        W92286  14.375   4.832  11.509
20027W        W92287  11.719  44.722   1.619
20028W        W92288  34.601  34.070  11.791
20029W        W92289  28.502  37.941  11.090
20030W        W92290  38.370   1.378  13.230
20031W        W92291  23.123  31.405   4.205
20032W        W92292  36.033  24.669   2.133
20033W        W92293  40.028  11.066   4.391
20034W        W92294   2.742   6.999  11.903
20035W        W92295  20.216  25.381  12.291
20036W        W92296   5.251   1.751  13.976
20037W        W92297  20.474  15.662   1.824
20038W        W92298   9.331  27.220   1.868
20039W        W92299  23.588  43.958   1.790
20040W        W92300  37.296  34.770   5.064
20041W        W92301  32.872  14.797  14.010
20042W        W92302  22.041  29.113   0.907
20043W        W92303  25.070   6.414  11.145
20044W        W92304  14.898   5.380   2.616
20045W        W92305  44.995  34.124   3.150
20046W        W92306  30.972  18.341   5.087
20047W        W92307  14.577  17.038   3.162
20048W        W92308  34.074  44.323   2.101
20049W        W92309  22.693  15.624   5.046
20050W        W92310  32.710  32.292  13.811
20051W        W92311  44.022  43.414  12.639
20052W        W92312  35.391  21.036   2.138
20053W        W92313   3.163  29.642   1.494
20054W        W92314   7.327  22.605   3.496
20055W        W92315  20.883  43.697   4.984
20056W        W92316  25.454  35.516   3.393
20057W        W92317  23.116  31.694  11.951
20058W        W92318  33.652   0.766   3.846
20059W        W92319  23.457  44.549   3.093
20060W        W92320  42.872   3.699  12.953
20061W        W92321  44.093  14.226   4.774
20062W        W92322  18.197   7.885   3.651
20063W        W92323   6.653  43.007  12.548
20064W        W92324  29.296  39.935  11.534
20065W        W92325   6.436   9.297  14.416
20066W        W92326  13.793   6.918   1.811
20067W        W92327  12.403  39.123   3.170
20068W        W92328   0.975   1.023   3.172
20069W        W92329  29.360   1.307  13.051
20070W        W92330  15.176  20.924  13.979
20071W        W92331  22.880  13.821   0.188
20072W        W92332  15.177  10.218  13.675
20073W        W92333   5.522   8.046   3.181
20074W        W92334  35.427  22.075   4.312
20075W        W92335  21.356  43.030   0.812
20076W        W92336  21.519  16.640   4.605
20077W        W92337  37.062  26.973  11.952
20078W        W92338  40.393  23.672  11.676
20079W        W92339  27.534   3.743  10.429
20080W        W92340  32.862   8.337   0.874
20081W        W92341  40.553  20.761  14.355
20082W        W92342  27.681  17.747   0.312
20083W        W92343  31.449  15.912   3.283
20084W        W92344   0.340  28.812  10.482
20085W        W92345  30.932   4.763  10.429
20086W        W92346   6.517  43.293  12.001
20087W        W92347  17.663  12.808   4.554
20088W        W92348  37.405  40.728   2.091
20089W        W92349   8.691  40.317   2.352
20090W        W92350   1.249  11.498   0.759
20091W        W92351  35.281  13.329  14.690
20092W        W92352  15.610  39.329   0.490
20093W        W92353  40.590  39.114   3.780
20094W        W92354   5.535  12.863   4.092
20095W        W92355  14.699  35.275   2.502
20096W        W92356  20.641  35.414  10.711
20097W        W92357  40.031   7.350   4.744
20098W        W92358  15.562   2.733  12.716
20099W        W92359  32.462  23.499  13.736
20100W        W92360  18.311  24.296  10.741
20101W        W92361  29.542  27.897   3.724
20102W        W92362   1.415  10.273   4.039
20103W        W92363  18.688  17.576   2.250
20104W        W92364  30.931  12.128   0.812
20105W        W92365  12.558  15.301  11.204
20106W        W92366  41.024   0.362   4.646
20107W        W92367  22.999  22.077   1.799
20108W        W92368  44.323  28.557   0.434
20109W        W92369  36.771  23.991   2.363
20110W        W92370  23.684   5.850  14.322
20111W        W92371   8.965  33.478   0.266
20112W        W92372  16.612  28.693  10.389
20113W        W92373  28.236  28.163  14.861
20114W        W92374  16.501   7.703   4.725
20115W        W92375  34.927  38.216  11.949
20116W        W92376   2.960  20.336  14.980
20117W        W92377  12.898  37.063  14.316
20118W        W92378  21.061  29.171   0.764
20119W        W92379  25.683   5.555   2.374
20120W        W92380   6.593  32.608  13.928
20121W        W92381   1.437   2.815  11.174
20122W        W92382  13.242  36.604  11.108
20123W        W92383  26.927  37.813   2.735
20124W        W92384   9.720  29.062  11.162
20125W        W92385   2.030  37.816   4.154
20126W        W92386   4.045  42.679   2.420
20127W        W92387  40.945  23.075   2.338
20128W        W92388  28.182  39.583  10.566
20129W        W92389  19.716  42.592  13.731
20130W        W92390   6.157  31.608   2.321
20131W        W92391  17.634  22.184  11.128
20132W        W92392   8.270   8.402  11.473
20133W        W92393  31.713  43.808   1.869
20134W        W92394  31.376  23.986  12.941
20135W        W92395  12.780  23.737  12.961
20136W        W92396   0.893  32.588   4.243
20137W        W92397   0.373  25.212  10.458
20138W        W92398  18.219  27.524  10.873
20139W        W92399   7.335  16.219   0.701
20140W        W92400  33.864  26.049   4.448
20141W        W92401  35.570  40.424  14.456
20142W        W92402  23.942  44.473   3.298
20143W        W92403  31.629  19.728   0.946
20144W        W92404  44.792  39.948  11.163
20145W        W92405  20.059  12.327  11.559
20146W        W92406  27.705  20.300   2.897
20147W        W92407  30.796  19.256  11.123
20148W        W92408  24.470  34.251  14.951
20149W        W92409  37.407  10.844   0.975
20150W        W92410   4.781  28.032  12.800
20151W        W92411  19.837   9.133   2.219
20152W        W92412   4.512  18.117   1.384
20153W        W92413  25.310  38.244  14.523
20154W        W92414  37.504  39.765   0.797
20155W        W92415  41.305   1.445   4.655
20156W        W92416  42.869   4.347   3.214
20157W        W92417  36.352  40.101   0.356
20158W        W92418  28.563  37.467   4.121
20159W        W92419  20.613  18.092  11.986
20160W        W92420  36.580  32.049   1.322
20161W        W92421   4.985  43.400  11.933
20162W        W92422   8.893  18.651   3.314
20163W        W92423  28.925  29.689   0.372
20164W        W92424  41.522  35.057   0.956
20165W        W92425   3.225   8.687   0.570
20166W        W92426  30.608  36.919   2.609
20167W        W92427  10.911  30.083   4.314
20168W        W92428   6.758  26.197   0.462
20169W        W92429  13.086  19.665   2.643
20170W        W92430  38.602  12.253  11.451
20171W        W92431   3.025  26.727  10.982
20172W        W92432   5.806  27.537  10.741
20173W        W92433  10.394  29.325   4.129
20174W        W92434  14.055  29.366  10.707
20175W        W92435  15.060   2.916  12.928
20176W        W92436  25.117   8.192   3.370
20177W        W92437  38.327  37.053  14.189
20178W        W92438  43.362  13.557  11.446
20179W        W92439  32.916  29.543   0.537
20180W        W92440   4.667   1.904  12.787
20181W        W92441  25.961  44.309  12.468
20182W        W92442  20.392  24.471  14.091
20183W        W92443   0.929  12.638  10.190
20184W        W92444  12.573  22.990   1.509
20185W        W92445   6.703  33.121   3.125
20186W        W92446   1.637  32.185  12.833
20187W        W92447  33.473   6.252  13.448
20188W        W92448  33.598  15.272  12.861
20189W        W92449  36.874  14.324  12.904
20190W        W92450   0.463   2.797  13.390
20191W        W92451   1.539   2.734  14.007
20192W        W92452  41.657  32.494  11.087
20193W        W92453  12.371   8.887   4.468
20194W        W92454  23.604  32.397  12.889
20195W        W92455  33.579  13.806  11.107
20196W        W92456  31.110  21.137  13.527
20197W        W92457   4.407   6.358   0.725
20198W        W92458  41.006  18.099  13.749
20199W        W92459  13.256  34.698  14.236
20200W        W92460  38.585   3.244  14.404
20201W        W92461  23.531  39.299  13.134
20202W        W92462  22.812  38.607   3.232
20203W        W92463  15.681  16.581   5.067
20204W        W92464  20.287  39.955  11.538
20205W        W92465  19.545  26.721  11.166
20206W        W92466  32.653  10.519  14.709
20207W        W92467  42.303   6.258  10.600
20208W        W92468   1.845  43.725   3.639
20209W        W92469  21.648   9.361  12.490
20210W        W92470  24.256  34.200   3.789
20211W        W92471  27.130  17.363   4.144
20212W        W92472  41.933  31.904  13.083
20213W        W92473  40.517  13.270   1.800
20214W        W92474  28.673  16.868  11.140
20215W        W92475  35.089  27.983   0.292
20216W        W92476  17.629   6.136   4.621
20217W        W92477  26.739   5.862   4.623
20218W        W92478  12.385  31.826  11.231
20219W        W92479  12.226  31.886  14.258
20220W        W92480  33.865  20.033   1.848
20221W        W92481  26.711   0.306  13.761
20222W        W92482  25.168   4.503   1.754
20223W        W92483  32.641  15.976   4.519
20224W        W92484  18.569   8.296  13.036
20225W        W92485  14.134  37.167   3.105
20226W        W92486  23.703   2.023   2.006
20227W        W92487  32.544  38.330  12.500
20228W        W92488   8.236  27.166   4.247
20229W        W92489  39.273  38.762   1.446
20230W        W92490  20.650  32.038   3.822
20231W        W92491   6.808  15.736   0.702
20232W        W92492  28.317  41.279  12.628
20233W        W92493  29.464  37.436   2.612
20234W        W92494  17.608   2.770  12.292
20235W        W92495   5.854  33.393  11.941
20236W        W92496  25.234  29.899  13.529
20237W        W92497  38.452  16.183   4.420
20238W        W92498  29.082   6.447   1.747
20239W        W92499   6.960   8.331   3.972
20240W        W92500   5.456  28.404  12.544
20241W        W92501   5.841  44.096   1.219
20242W        W92502   3.682  16.172   0.797
20243W        W92503  38.502  17.072   4.424
20244W        W92504  36.323  26.164  13.016
20245W        W92505  15.674  11.533  11.167
20246W        W92506  11.072  42.724  13.925
20247W        W92507  43.343  20.082   0.267
20248W        W92508  20.331  19.235   1.249
20249W        W92509  44.528  30.816  11.122
20250W        W92510  16.436  15.036  11.579
20251W        W92511  44.964  37.664  11.014
20252W        W92512  39.932   5.385   4.664
20253W        W92513  18.566  13.590  10.686
20254W        W92514  18.661  44.338   2.865
20255W        W92515  14.350  18.262   2.204
20256W        W92516  12.162  32.751   1.179
20257W        W92517  14.254   2.045   4.417
20258W        W92518  31.873  18.598  10.744
20259W        W92519  25.802   6.439  10.301
20260W        W92520  22.631   9.574  11.584
20261W        W92521  36.470  40.924  12.618
20262W        W92522  17.143   2.860   5.070
20263W        W92523   5.392  24.748  12.943
20264W        W92524  24.647  28.237  12.102
20265W        W92525  39.942  41.528   2.782
20266W        W92526   5.149  20.234   4.446
20267W        W92527   3.989   8.671  11.029
20268W        W92528  20.363   2.286  11.430
20269W        W92529   6.167  33.091   2.243
20270W        W92530  23.083  12.615   4.588
20271W        W92531  18.272   8.497   1.465
20272W        W92532  19.969   1.471  12.372
20273W        W92533   9.336   6.744   0.839
20274W        W92534  14.315  21.772   0.076
20275W        W92535  42.316  32.129   0.745
20276W        W92536  37.435   7.769  10.158
20277W        W92537  11.863  33.499  11.213
20278W        W92538   8.629  32.621  10.876
20279W        W92539   8.682  30.336  13.143
20280W        W92540  41.823  24.062   1.403
20281W        W92541  16.767   1.081   1.422
20282W        W92542  12.918  37.559   4.703
20283W        W92543  12.347  38.432  12.785
20284W        W92544  43.843   2.431  10.505
20285W        W92545  17.784  18.077   0.706
20286W        W92546  40.846  12.670   4.048
20287W        W92547  19.565  17.440   3.198
20288W        W92548  29.648  43.801   0.735
20289W        W92549  34.170  16.558  11.482
20290W        W92550  15.372  13.812   5.525
20291W        W92551   1.304  39.200  11.072
20292W        W92552  44.737  30.636   2.263
20293W        W92553  21.694  23.406   3.174
20294W        W92554   1.560   0.834  12.098
20295W        W92555   6.877  14.166  14.658
20296W        W92556  37.492  13.821   3.866
20297W        W92557  20.621  13.719   4.460
20298W        W92558   4.736   3.701   3.355
20299W        W92559   9.256  33.605  13.409
20300W        W92560  42.913  43.538   0.970
20301W        W92561   7.349  20.501  13.777
20302W        W92562  42.433  30.246  13.453
20303W        W92563  33.184  31.911   0.725
20304W        W92564  38.964  44.195  11.511
20305W        W92565   9.467   6.882  11.820
20306W        W92566   8.371   5.676   4.565
20307W        W92567  35.562   0.045   3.954
20308W        W92568  29.470  28.650   1.709
20309W        W92569   6.309   2.563  14.854
20310W        W92570  22.243  21.703   4.790
20311W        W92571  34.746   7.478   1.255
20312W        W92572  19.513  34.552   3.726
20313W        W92573  35.579  26.539  13.104
20314W        W92574  42.462  15.260  13.036
20315W        W92575  35.750  42.121   0.510
20316W        W92576   4.561  39.909   4.683
20317W        W92577  26.350   0.555  14.048
20318W        W92578  28.386   4.912  14.351
20319W        W92579  10.143   8.356  14.324
20320W        W92580  23.652  11.752  11.420
20321W        W92581  10.283  27.006   0.963
20322W        W92582  38.839  30.583  11.165
20323W        W92583  31.044  32.511  12.162
20324W        W92584   4.318   2.826  13.238
20325W        W92585  43.270  31.747  14.740
20326W        W92586  44.261   7.286   1.915
20327W        W92587  13.655  18.805  13.892
20328W        W92588  38.781  24.081   0.271
20329W        W92589   3.015  41.940  11.145
20330W        W92590  28.166  44.232  13.502
20331W        W92591   5.843  31.675   4.107
20332W        W92592  21.740  35.765   4.746
20333W        W92593  34.356  21.820  11.587
20334W        W92594  22.482  15.805   4.604
20335W        W92595  15.828  18.450  13.621
20336W        W92596  23.000  31.615   3.757
20337W        W92597  30.942   4.914   4.995
20338W        W92598  16.536  17.779   4.734
20339W        W92599  10.705  21.837  11.655
20340W        W92600  19.988  33.725   2.534
20341W        W92601  21.348   5.326   0.911
20342W        W92602  32.041  40.306  11.889
20343W        W92603  16.147  14.596   2.561
20344W        W92604  12.037  23.554  12.535
20345W        W92605  35.090  21.330  13.872
20346W        W92606  34.380  30.053  12.002
20347W        W92607  14.197  38.820   0.357
20348W        W92608  28.914  28.098  11.547
20349W        W92609  26.374  42.819   4.781
20350W        W92610   1.904  16.700   0.244
20351W        W92611  36.863  44.080   3.397
20352W        W92612   6.498  10.900  11.412
20353W        W92613  36.494  44.581  11.416
20354W        W92614  30.730  16.825  11.693
20355W        W92615  22.889  19.441  13.997
20356W        W92616  13.774  42.931  13.815
20357W        W92617  17.772  27.178  13.018
20358W        W92618  17.029  28.390   2.310
20359W        W92619  20.087  18.017  12.463
20360W        W92620  30.676  25.367   1.751
20361W        W92621   9.465  36.913  13.770
20362W        W92622   5.901  10.366   1.876
20363W        W92623   4.991  39.367   3.862
20364W        W92624   6.683  23.941  12.262
20365W        W92625  31.241  26.283  13.080
20366W        W92626  34.992  21.423   0.725
20367W        W92627   5.662   0.699   2.186
20368W        W92628  35.129   4.883  13.662
20369W        W92629  23.078  41.332   4.056
20370W        W92630  38.142  43.993   2.448
20371W        W92631  39.459  30.891   0.220
20372W        W92632  27.388  32.509   4.562
20373W        W92633  25.852  20.516  13.700
20374W        W92634  37.892  37.372   3.680
20375W        W92635  35.942  19.942   1.337
20376W        W92636   8.760  19.291   2.666
20377W        W92637  31.543  44.918   0.780
20378W        W92638  14.462   8.892  14.224
20379W        W92639  22.354  38.383   4.512
20380W        W92640  43.261  29.942   2.749
20381W        W92641   6.511  15.221  12.921
20382W        W92642  25.490  17.196  10.502
20383W        W92643  32.342  32.153  10.169
20384W        W92644  20.482  30.552  12.815
20385W        W92645  18.298  26.500   4.063
20386W        W92646  22.096  20.557  13.386
20387W        W92647  28.860  40.814  12.873
20388W        W92648  12.342  15.550  14.849
20389W        W92649  35.969  42.013  14.462
20390W        W92650  17.732   6.175   1.715
20391W        W92651  29.513  19.266   0.883
20392W        W92652  35.844  11.677   4.728
20393W        W92653  12.692  40.255   0.827
20394W        W92654  37.619  40.150  13.509
20395W        W92655  18.178   1.292   1.534
20396W        W92656  38.022   7.870   1.650
20397W        W92657  29.419  11.608  12.932
20398W        W92658  28.672  11.542   2.431
20399W        W92659   7.933   4.227  13.544
20400W        W92660  21.562  35.089  12.842
20401W        W92661  14.781  11.714   1.471
20402W        W92662  33.102  21.158   4.539
20403W        W92663  16.658  37.341  14.548
20404W        W92664  41.066   9.862   4.414
20405W        W92665  11.880  24.291   1.751
20406W        W92666  33.324  15.411   3.479
20407W        W92667  14.143  17.322   3.071
20408W        W92668  30.870  29.558  13.745
20409W        W92669  14.711  31.504   5.602
20410W        W92670  44.450  39.577   4.075
20411W        W92671  19.822   1.773  10.640
20412W        W92672   6.007   2.411   2.723
20413W        W92673  25.253  31.945   4.941
20414W        W92674  43.282   8.367   1.307
20415W        W92675  22.174  21.278   2.460
20416W        W92676  40.573  15.538   0.898
20417W        W92677  34.302  25.535  11.572
20418W        W92678  29.674  19.034  14.349
20419W        W92679  20.233   5.689  13.413
20420W        W92680   7.162  32.963  12.947
20421W        W92681  34.804  20.528   2.291
20422W        W92682   2.352  13.684   1.822
20423W        W92683  30.162  13.629   4.210
20424W        W92684  44.409  23.627   4.682
20425W        W92685  21.700  11.899   4.075
20426W        W92686  12.211  40.533  12.499
20427W        W92687  41.970  40.634  10.031
20428W        W92688  22.542   2.906  13.465
20429W        W92689  38.295  39.797   4.241
20430W        W92690  34.488   9.139  14.883
20431W        W92691   5.432  17.381   3.170
20432W        W92692  32.715   9.694  10.618
20433W        W92693  22.677  11.834  13.014
20434W        W92694   0.737  28.885  13.410
20435W        W92695  16.072  30.344  10.678
20436W        W92696  34.431  23.784   1.908
20437W        W92697  28.157  10.479   1.450
20438W        W92698  14.948  26.924   0.259
20439W        W92699  19.545  36.907   4.891
20440W        W92700  43.955  31.238  12.372
20441W        W92701  12.373  10.286   2.918
20442W        W92702   6.974  13.674   3.889
20443W        W92703  17.196  39.322  12.985
20444W        W92704   7.308  33.051  14.749
20445W        W92705  33.699  12.178   4.484
20446W        W92706   9.267  39.441   2.374
20447W        W92707  22.991  18.115  11.452
20448W        W92708  19.113   1.279  14.951
20449W        W92709   0.859   6.199   1.751
20450W        W92710  33.632  33.969  12.067
20451W        W92711  17.571   5.358   3.420
20452W        W92712  20.531  17.052  10.769
20453W        W92713  27.596  43.262  11.112
20454W        W92714  16.161  22.280  10.940
20455W        W92715  29.040  17.795  12.533
20456W        W92716  20.143   4.675   0.263
20457W        W92717  12.227  23.860   3.881
20458W        W92718  37.431   5.314  11.859
20459W        W92719  10.840   8.193  13.745
20460W        W92720  41.769  44.430   2.129
20461W        W92721  40.689   9.293  13.464
20462W        W92722   5.909   1.823   1.305
20463W        W92723  41.948  29.390   0.014
20464W        W92724  11.944   6.374  12.814
20465W        W92725  32.902  22.776  11.567
20466W        W92726  26.184  35.369  10.741
20467W        W92727  11.698   7.410  14.726
20468W        W92728  17.084  37.096   2.840
20469W        W92729  41.326  23.413   2.972
20470W        W92730  20.877  17.424   1.511
20471W        W92731   7.358  26.897  13.881
20472W        W92732  40.288  20.580  13.481
20473W        W92733  11.955   6.691   1.273
20474W        W92734  44.229  39.808   3.635
20475W        W92735  24.229   2.201  14.230
20476W        W92736   0.472  32.333   1.720
20477W        W92737  10.099  37.646  12.670
20478W        W92738  31.053   1.253  10.972
20479W        W92739  38.403  42.316   0.930
20480W        W92740  14.972  16.543   4.465
20481W        W92741  14.814  26.399   1.347
20482W        W92742  42.874  43.426   0.439
20483W        W92743  10.383  18.687  13.113
20484W        W92744  35.420  24.714   3.846
20485W        W92745  23.092   6.587   0.297
20486W        W92746  17.081   9.102   4.334
20487W        W92747   8.610  28.633   4.433
20488W        W92748  10.080  31.995  11.051
20489W        W92749   8.325  35.397  14.918
20490W        W92750  19.908  20.314  13.304
20491W        W92751  42.855  30.026   4.563
20492W        W92752  33.525   2.466  11.397
20493W        W92753  43.233   2.728  12.089
20494W        W92754  16.062  31.900   4.678
20495W        W92755  20.060  42.932  11.193
20496W        W92756   9.871   0.198   4.621
20497W        W92757  36.862   7.105   4.969
20498W        W92758  33.098  16.980  11.989
20499W        W92759  32.019   9.024  12.509
20500W        W92760   6.719  18.325  14.929
20501W        W92761  17.654  27.864  11.538
20502W        W92762  44.212   6.252   3.802
20503W        W92763  24.834  21.888   2.238
20504W        W92764  33.340   1.921  11.209
20505W        W92765  28.767  43.089   2.718
20506W        W92766   9.978  39.666   1.760
20507W        W92767  15.054  16.627   2.186
20508W        W92768   2.831  41.457  10.755
20509W        W92769   2.636  10.099   3.734
20510W        W92770  44.730  41.757   3.604
20511W        W92771  25.651  17.124  12.483
20512W        W92772  17.367  22.700   3.017
20513W        W92773   2.970  13.878  11.135
20514W        W92774  36.355  43.210  11.518
20515W        W92775  28.205  40.772  12.048
20516W        W92776  22.619  21.158  13.010
20517W        W92777  31.569   4.695  13.977
20518W        W92778  17.783   2.735  13.941
20519W        W92779  29.231   0.084  11.210
20520W        W92780  35.471   5.941  11.874
20521W        W92781  23.681  27.951  10.239
20522W        W92782  10.850  19.998  14.345
20523W        W92783  22.500  42.364  10.783
20524W        W92784  30.752  23.423   1.820
20525W        W92785  22.399  26.525   1.620
20526W        W92786  15.409  25.024  10.775
20527W        W92787  26.598   8.021   4.034
20528W        W92788   8.229  41.466   2.442
20529W        W92789  33.351  12.903   0.366
20530W        W92790   9.454  34.002   2.743
20531W        W92791  25.507   1.752  11.110
20532W        W92792  36.121  40.813   2.360
20533W        W92793  32.375  20.047   0.336
20534W        W92794   7.764  39.911  11.913
20535W        W92795  39.592  31.509  11.616
20536W        W92796   1.911  29.332   3.368
20537W        W92797  44.069   2.391   0.860
20538W        W92798  30.867  16.774   3.191
20539W        W92799  20.347  43.290  13.407
20540W        W92800  23.559  39.334  12.078
20541W        W92801  15.551  12.875   3.825
20542W        W92802  22.339   3.937  12.640
20543W        W92803  13.719  12.359  10.673
20544W        W92804   6.405  12.094   1.821
20545W        W92805   8.145  21.703   1.346
20546W        W92806   7.364  15.737  14.231
20547W        W92807  19.559   1.317  13.151
20548W        W92808  11.055  37.530   2.263
20549W        W92809  37.596  25.662  13.005
20550W        W92810  15.197  32.650  14.342
20551W        W92811   7.821   5.216   1.976
20552W        W92812  26.583  38.534  14.639
20553W        W92813  16.055  27.689   1.212
20554W        W92814  43.512  39.868  11.028
20555W        W92815  37.541  25.460   2.297
20556W        W92816  29.412  21.295  12.147
20557W        W92817   7.412   7.757   4.526
20558W        W92818   7.776  15.546   2.675
20559W        W92819  25.026  27.779  14.313
20560W        W92820  36.089  39.929  10.680
20561W        W92821   3.226  28.390   5.315
20562W        W92822   5.513  34.422  14.830
20563W        W92823  18.768  21.760  11.970
20564W        W92824   9.960  10.335   5.106
20565W        W92825  39.459   4.201   4.517
20566W        W92826   5.913  15.001  13.349
20567W        W92827  25.956   7.858   2.249
20568W        W92828  18.940   0.761  12.527
20569W        W92829  34.181  26.550  10.647
20570W        W92830  32.639  39.509   1.876
20571W        W92831  17.499   7.457   5.012
20572W        W92832  42.410  40.054   3.235
20573W        W92833  32.041  25.004  13.719
20574W        W92834   9.645  38.516  11.676
20575W        W92835   4.948  38.893   0.725
20576W        W92836   2.536  14.952  13.374
20577W        W92837  11.275  32.846  12.366
20578W        W92838  15.911  17.918  12.908
20579W        W92839  13.778   3.608  11.342
20580W        W92840  22.829   3.278  13.234
20581W        W92841  21.285  25.157  11.134
20582W        W92842  18.875  28.099   1.126
20583W        W92843  38.506  24.481  14.705
20584W        W92844  44.583  11.722  12.944
20585W        W92845  41.776   4.412  11.539
20586W        W92846   5.248  34.871  12.628
20587W        W92847  42.585  16.620   4.894
20588W        W92848  28.072  39.459   4.948
20589W        W92849  20.093  25.321   0.376
20590W        W92850  15.173  32.674   2.922
20591W        W92851   1.695  18.617   1.315
20592W        W92852  27.452  35.441   3.395
20593W        W92853   0.196  27.450  13.941
20594W        W92854  13.060  19.315  11.658
20595W        W92855  32.591   9.436  13.400
20596W        W92856  33.630  34.334  11.510
20597W        W92857  13.779  14.867   0.434
20598W        W92858   6.964   4.020  13.912
20599W        W92859   1.351  34.421   2.690
20600W        W92860  31.610  31.583   3.289
20601W        W92861  26.987  12.364   1.306
20602W        W92862  23.299   8.563   5.202
20603W        W92863  31.396   8.176   2.876
20604W        W92864  31.158  38.494  12.951
20605W        W92865  25.060  12.924  13.942
20606W        W92866  18.835  33.632  14.415
20607W        W92867  14.154   6.809  13.981
20608W        W92868  44.309  24.945  14.951
20609W        W92869  20.226  11.714   0.681
20610W        W92870  17.830  31.671  12.986
20611W        W92871  31.698  36.122  11.071
20612W        W92872  30.244   9.679  10.932
20613W        W92873  33.691  35.971   4.544
20614W        W92874  38.637  33.877  12.243
20615W        W92875  26.359  26.978   0.774
20616W        W92876  22.070  41.227  13.547
20617W        W92877  28.252   5.778  14.263
20618W        W92878  19.334  27.160   4.500
20619W        W92879  32.164  29.661   4.171
20620W        W92880   6.847  23.318   3.231
20621W        W92881  12.389  42.575  11.088
20622W        W92882  13.847   1.036  14.175
20623W        W92883  28.873   9.341  13.207
20624W        W92884  23.069   4.863  11.478
20625W        W92885  42.676  44.008   1.157
20626W        W92886  28.585   2.786  10.813
20627W        W92887  13.166  30.471  14.789
20628W        W92888   4.771  16.025  14.562
20629W        W92889   9.198   9.191   4.953
20630W        W92890  26.881  39.936   4.071
20631W        W92891  16.854  39.464  12.016
20632W        W92892  32.131  30.046   3.328
20633W        W92893  39.846  16.271  10.381
20634W        W92894  14.193   5.945   0.225
20635W        W92895  43.509  21.291  12.945
20636W        W92896  21.974  43.345  14.863
20637W        W92897  25.744  11.609   0.383
20638W        W92898  21.202  29.393   1.406
20639W        W92899  32.324  16.228   0.856
20640W        W92900   8.939  38.875  13.480
20641W        W92901  38.835   9.066  14.776
20642W        W92902   6.240  33.644  12.191
20643W        W92903  27.514  38.681  12.919
20644W        W92904  38.979  22.649  14.878
20645W        W92905  36.422  14.410   3.196
20646W        W92906   5.688  12.344  10.834
20647W        W92907  22.633  13.184  10.701
20648W        W92908  25.167   9.825  10.717
20649W        W92909  12.399  32.463  11.446
20650W        W92910   0.966  31.162   0.345
20651W        W92911  10.392  28.434  10.894
20652W        W92912  43.381  27.025   2.381
20653W        W92913  40.280  19.725  14.727
20654W        W92914  37.351  33.171  14.834
20655W        W92915   0.472  28.235  12.605
20656W        W92916  20.695   2.724   4.218
20657W        W92917   6.608   8.660   1.720
20658W        W92918  10.204  42.739  11.980
20659W        W92919  22.655  24.179  11.915
20660W        W92920  34.678  18.049  10.474
20661W        W92921  21.158  20.319   0.228
20662W        W92922   6.225   0.171  11.636
20663W        W92923  26.951  14.328  14.799
20664W        W92924   9.806  13.839  13.131
20665W        W92925  27.693   2.904   0.777
20666W        W92926  32.441  18.198   4.671
20667W        W92927  37.045   8.260   0.392
20668W        W92928  41.576  11.061   1.362
20669W        W92929  17.173   8.366  13.381
20670W        W92930  19.598  19.117  11.138
20671W        W92931  24.013  20.050  14.192
20672W        W92932  44.375  13.614  14.251
20673W        W92933  41.899   7.596   3.352
20674W        W92934  39.048   5.285   0.269
20675W        W92935  29.358  24.984   1.838
20676W        W92936  39.066   8.684   0.728
20677W        W92937  11.961  30.549  11.908
20678W        W92938   6.896  42.504   2.437
20679W        W92939  22.666  24.462  11.115
20680W        W92940  27.262   4.362   2.805
20681W        W92941  31.321   7.251   3.403
20682W        W92942  19.617  34.890  13.960
20683W        W92943   6.402   8.671   1.233
20684W        W92944   9.734  42.535   2.305
20685W        W92945  34.336  11.300   1.230
20686W        W92946  27.235  30.467  12.969
20687W        W92947   4.906  18.532   1.346
20688W        W92948  30.747  41.961  12.502
20689W        W92949  15.778  26.503  11.137
20690W        W92950  41.786  21.146   1.883
20691W        W92951  18.184   9.265   0.753
20692W        W92952  15.958  22.262   9.950
20693W        W92953   1.941  23.336  12.427
20694W        W92954  42.982  21.038   1.051
20695W        W92955  35.917  41.860  11.884
20696W        W92956  21.673  16.465  11.312
20697W        W92957  30.759  29.986  10.646
20698W        W92958  43.505  25.790   0.233
20699W        W92959  35.882   6.736   3.972
20700W        W92960  15.562  37.036  13.003
20701W        W92961  31.112  43.895   3.464
20702W        W92962  22.910  10.154  10.835
20703W        W92963   7.985  14.410   3.616
20704W        W92964  16.962  36.450   3.674
20705W        W92965  26.427  38.387  13.654
20706W        W92966   1.738  28.620   3.634
20707W        W92967   4.176  18.560  12.118
20708W        W92968  19.019  40.536  13.104
20709W        W92969  23.482  36.432   1.429
20710W        W92970  27.431  24.948   1.826
20711W        W92971   4.677  24.745  11.224
20712W        W92972  31.666  16.721  14.785
20713W        W92973  15.320   7.686   0.373
20714W        W92974  37.888  11.218  12.088
20715W        W92975  41.157  41.966  13.396
20716W        W92976  33.207  28.182   0.521
20717W        W92977  14.185  10.360  12.075
20718W        W92978  15.209   9.093   4.538
20719W        W92979  11.156   8.125  14.528
20720W        W92980  18.721  15.699  10.941
20721W        W92981   9.882   0.318  13.336
20722W        W92982  14.549  29.904   1.509
20723W        W92983   7.312   3.666  12.010
20724W        W92984  35.372  20.971   3.274
20725W        W92985  23.300  44.913  12.988
20726W        W92986  13.797  10.858   0.071
20727W        W92987  18.501  20.245   0.225
20728W        W92988  32.860   7.684   3.463
20729W        W92989  35.526  44.371   2.334
20730W        W92990  22.459   7.300  11.054
20731W        W92991  44.833   6.302   3.773
20732W        W92992  42.298  38.135  13.511
20733W        W92993  19.229  29.182   0.855
20734W        W92994  11.278  40.303  10.758
20735W        W92995   5.924  29.754  12.087
20736W        W92996  38.268  30.294  12.896
20737W        W92997   9.565  42.284  13.988
20738W        W92998  13.867  17.370  13.966
20739W        W92999  39.888  25.078   4.378
20740W        W93000   0.396  22.116  13.943
20741W        W93001  29.061  22.061  14.383
20742W        W93002  19.592  27.165  11.875
20743W        W93003  23.811  31.058  10.894
20744W        W93004  19.671  39.370  13.882
20745W        W93005  13.188  18.359  11.599
20746W        W93006  30.724   8.342  14.988
20747W        W93007   2.729  20.638   0.367
20748W        W93008  15.714  37.011  14.246
20749W        W93009  13.135  28.756  13.438
20750W        W93010  12.112   6.007   2.433
20751W        W93011  27.681  26.746   2.774
20752W        W93012  10.135  41.930   4.502
20753W        W93013   6.207   6.417   2.766
20754W        W93014  21.454  28.131  14.294
20755W        W93015  37.635  35.944  10.624
20756W        W93016  25.804  27.436  11.411
20757W        W93017  38.893  34.951  12.655
20758W        W93018   5.193  41.199  10.637
20759W        W93019  17.544  15.527  12.958
20760W        W93020   1.706  37.541  13.397
20761W        W93021  42.277   6.943   1.933
20762W        W93022  32.487   5.258   0.879
20763W        W93023  36.345  19.568  10.473
20764W        W93024   2.371  18.862  14.044
20765W        W93025   4.935  19.032   1.538
20766W        W93026  33.555  14.092  13.898
20767W        W93027  18.212  17.564   4.410
20768W        W93028  39.830  28.588  13.824
20769W        W93029   3.845  20.606   4.533
20770W        W93030  21.060  32.555  14.926
20771W        W93031   2.000  33.509  13.437
20772W        W93032  29.787  41.297   3.302
20773W        W93033  25.199  37.110   0.410
20774W        W93034  17.599  29.379   3.273
20775W        W93035  20.341  16.453   4.505
20776W        W93036  11.757  15.583   1.702
20777W        W93037  38.897  19.352  10.857
20778W        W93038  42.638  25.456   1.202
20779W        W93039   9.925  33.128   4.244
20780W        W93040   6.892  21.364   1.619
20781W        W93041  14.911   9.988  10.112
20782W        W93042  16.277  18.810  12.040
20783W        W93043  43.761   9.314  13.623
20784W        W93044  11.274  16.886  14.907
20785W        W93045   0.427  15.107   1.464
20786W        W93046  38.228  10.223  14.423
20787W        W93047  42.731  19.337  12.486
20788W        W93048  11.420  28.521  11.079
20789W        W93049  19.441  38.930   2.354
20790W        W93050  24.453  18.050  10.567
20791W        W93051   6.242  33.619  11.667
20792W        W93052  15.654   0.840   4.715
20793W        W93053   4.805  20.775  13.547
20794W        W93054  25.959  43.771  11.453
20795W        W93055  18.598  29.427   0.919
20796W        W93056  27.774  33.070  10.670
20797W        W93057   4.483  18.718  11.730
20798W        W93058  10.780  24.748  12.252
20799W        W93059  38.064  26.169   3.791
20800W        W93060  27.564   1.371   4.624
20801W        W93061   3.146  24.089   0.766
20802W        W93062  38.149  16.389   1.289
20803W        W93063  41.234  35.324   1.549
20804W        W93064  39.533   6.943   9.770
20805W        W93065  37.233  14.740   0.554
20806W        W93066  31.807  28.221  14.084
20807W        W93067  20.254  24.288   0.238
20808W        W93068  16.309  19.110  13.110
20809W        W93069  22.185  28.643   3.662
20810W        W93070  39.375  25.555   0.481
20811W        W93071  40.384   9.741  10.429
20812W        W93072  18.408  13.518   5.061
20813W        W93073  32.081  34.635   4.893
20814W        W93074  20.099   9.400   3.832
20815W        W93075   4.138  17.033  10.632
20816W        W93076   9.357  23.192   4.678
20817W        W93077  18.755  42.736  10.050
20818W        W93078  43.358   7.689   4.195
20819W        W93079  26.512  15.476  12.140
20820W        W93080   8.027  23.569   1.734
20821W        W93081  43.275   0.859  14.808
20822W        W93082  15.027  19.695  11.192
20823W        W93083   1.542  28.539   1.412
20824W        W93084  31.822   8.349  14.773
20825W        W93085  11.941  31.663  14.996
20826W        W93086  20.004   9.455   3.295
20827W        W93087  24.085  28.544   4.634
20828W        W93088  19.793   0.933   3.628
20829W        W93089  33.518  16.990   1.178
20830W        W93090  44.836  23.416   4.525
20831W        W93091   0.659  29.033  12.114
20832W        W93092  29.518  29.997  11.523
20833W        W93093   4.336  26.205  12.072
20834W        W93094  11.265  26.701   2.772
20835W        W93095   4.802   9.035  10.390
20836W        W93096  19.152  42.085   4.680
20837W        W93097  15.618  40.458   1.979
20838W        W93098   7.878   4.793   2.874
20839W        W93099  16.187  25.358  14.441
20840W        W93100  36.585  32.355  11.706
20841W        W93101  12.809  10.873  10.546
20842W        W93102   3.297   2.808   1.461
20843W        W93103  22.827   5.834  14.038
20844W        W93104  27.036  34.084   2.146
20845W        W93105  11.735  15.184   1.352
20846W        W93106  38.935  21.339   1.727
20847W        W93107  28.631  12.221   3.202
20848W        W93108  42.950   5.360   4.201
20849W        W93109  23.561  15.151  13.251
20850W        W93110  34.551  34.622   1.400
20851W        W93111  15.982  23.336   5.031
20852W        W93112  18.103   2.902  12.197
20853W        W93113  13.198   4.692   4.105
20854W        W93114  20.819  17.205  13.036
20855W        W93115  40.936   6.006   0.907
20856W        W93116  36.424  34.582   2.373
20857W        W93117   7.873   4.669  14.830
20858W        W93118  24.561  15.139  14.797
20859W        W93119   3.414  16.895   1.710
20860W        W93120  12.844   3.746  11.522
20861W        W93121   5.205   2.411  12.291
20862W        W93122  20.466   7.819  14.743
20863W        W93123  42.432  40.913   0.680
20864W        W93124  14.569  14.316   9.823
20865W        W93125  16.608  17.195   2.811
20866W        W93126  36.797  44.515  12.058
20867W        W93127  12.339  27.732   9.829
20868W        W93128   5.608  28.941   0.686
20869W        W93129  31.075  23.865  11.087
20870W        W93130  22.616  20.668  13.930
20871W        W93131  44.403  21.702  13.203
20872W        W93132  19.544  22.565   0.387
20873W        W93133  33.386  35.638   0.350
20874W        W93134  32.929   1.278  14.733
20875W        W93135  12.293  38.272   1.563
20876W        W93136  16.255  20.784   3.790
20877W        W93137  36.720  35.510  10.637
20878W        W93138  38.850  21.509   0.822
20879W        W93139   1.430  28.829  14.020
20880W        W93140  21.119  27.452  11.525
20881W        W93141   9.896  28.871   3.188
20882W        W93142  16.301  17.054   2.410
20883W        W93143  22.149  25.746   1.802
20884W        W93144   4.394  39.027   2.892
20885W        W93145  26.227  40.342  14.933
20886W        W93146  32.547   9.972   3.297
20887W        W93147   7.317  11.919  14.996
20888W        W93148  11.456  18.997  11.161
20889W        W93149  43.025  44.838  11.966
20890W        W93150  38.584   2.036  10.727
20891W        W93151  11.362   3.474   4.269
20892W        W93152  32.230  20.388  11.153
20893W        W93153  29.252  19.341   4.046
20894W        W93154  40.957   1.553  10.687
20895W        W93155  41.552  31.433  14.377
20896W        W93156  16.789   2.580   2.601
20897W        W93157  35.126  16.598   1.036
20898W        W93158   9.408  44.579  13.499
20899W        W93159  12.689  41.832   1.174
20900W        W93160   4.630   6.994   1.488
20901W        W93161   4.352  43.328   2.906
20902W        W93162  42.469   1.947   4.189
20903W        W93163  22.467  42.037   2.553
20904W        W93164  11.198  24.961  13.375
20905W        W93165  12.031  34.596  14.689
20906W        W93166   4.270  20.248   4.595
20907W        W93167  19.176  25.399  13.864
20908W        W93168  41.501  39.818  14.481
20909W        W93169   7.624  13.910   0.709
20910W        W93170  12.219  15.560   0.929
20911W        W93171   6.444  26.451  11.545
20912W        W93172  15.633  22.518   3.231
20913W        W93173  40.517  37.982  12.150
20914W        W93174  42.954   6.593  12.300
20915W        W93175  40.898   3.035  11.570
20916W        W93176   2.846  27.058   1.852
20917W        W93177  20.183   6.574   4.539
20918W        W93178  36.045  10.450   1.055
20919W        W93179  28.370  27.624   4.480
20920W        W93180  44.015  28.627  11.448
20921W        W93181   0.877  42.343  10.603
20922W        W93182  43.408  43.223   2.131
20923W        W93183  43.725  11.842   3.091
20924W        W93184  34.055  30.882   0.472
20925W        W93185   3.975  10.773  10.764
20926W        W93186   5.303  21.797  10.600
20927W        W93187   9.409  27.608   4.625
20928W        W93188  41.976  11.804  14.047
20929W        W93189  43.920   5.196   3.773
20930W        W93190  22.310   6.561  13.425
20931W        W93191  23.178  42.192   4.158
20932W        W93192  32.001  16.776  12.974
20933W        W93193  43.483   5.918   4.541
20934W        W93194  35.060   0.666  14.769
20935W        W93195  44.314  12.494   5.010
20936W        W93196   2.217   9.041   3.101
20937W        W93197  29.383   8.372   4.161
20938W        W93198  42.203  18.176   2.703
20939W        W93199  24.036  35.561   2.443
20940W        W93200  23.246   1.010   3.285
20941W        W93201   5.866  14.314  14.887
20942W        W93202  29.894  17.779   2.854
20943W        W93203  25.447  14.753   2.327
20944W        W93204  44.518  38.978  10.414
20945W        W93205  37.440  36.578   1.444
20946W        W93206  15.707   6.407   0.782
20947W        W93207  21.344  20.457  10.136
20948W        W93208  38.404  27.927   3.546
20949W        W93209   0.497  39.777  12.136
20950W        W93210   1.951   9.241   0.711
20951W        W93211   2.061  17.521  12.554
20952W        W93212  43.477  31.443  11.053
20953W        W93213   5.938  36.262   4.499
20954W        W93214  21.207  16.875   4.265
20955W        W93215   7.391  24.980   4.710
20956W        W93216   7.424  36.384  14.560
20957W        W93217   6.683  33.553  10.910
20958W        W93218  21.209  18.868   2.749
20959W        W93219  26.405  27.750   3.643
20960W        W93220   7.206  19.810   1.729
20961W        W93221  10.932  33.705  12.582
20962W        W93222  32.386   6.816  12.455
20963W        W93223   7.770  26.912   3.663
20964W        W93224  12.352  27.042  10.564
20965W        W93225  15.665  18.445   4.182
20966W        W93226  14.810  32.589  11.072
20967W        W93227  31.700  31.331  14.456
20968W        W93228  35.482  28.149  14.947
20969W        W93229  29.651   8.714   2.777
20970W        W93230  12.847  25.612  12.347
20971W        W93231  32.062   0.773   0.819
20972W        W93232   8.447  17.262   0.579
20973W        W93233  44.768  10.228   3.625
20974W        W93234  27.743  29.509   2.450
20975W        W93235  36.361  12.757   2.201
20976W        W93236  31.138  24.179  14.162
20977W        W93237  31.434  36.558  12.906
20978W        W93238  43.732  19.955  11.189
20979W        W93239  22.223  14.622   0.272
20980W        W93240  27.014  28.022   0.276
20981W        W93241  25.427   2.789   2.307
20982W        W93242  43.636  32.928   3.385
20983W        W93243  32.914   8.625  12.410
20984W        W93244  32.025  13.313   1.801
20985W        W93245  26.207  32.748  13.455
20986W        W93246  42.941   6.612  12.842
20987W        W93247  42.991  23.501  12.328
20988W        W93248   2.336  39.614  12.988
20989W        W93249  21.161   0.522  11.656
20990W        W93250  23.609  12.728   2.758
20991W        W93251   8.635  31.699   4.033
20992W        W93252  34.368  17.602  12.650
20993W        W93253  22.613  18.447  13.944
20994W        W93254  12.434  16.147   3.117
20995W        W93255  30.473  17.248   0.273
20996W        W93256  25.406  24.660  13.509
20997W        W93257  31.837  34.102   4.630
20998W        W93258  27.244  16.664   2.856
20999W        W93259  40.492  30.889  10.423
21000W        W93260  21.227  21.046   4.635
21001W        W93261  11.567  43.080  12.519
21002W        W93262  14.125  23.623   0.183
21003W        W93263  26.652  27.702  11.577
21004W        W93264  37.365  29.943   0.248
21005W        W93265  44.794  31.073  14.444
21006W        W93266  21.660  18.336  10.201
21007W        W93267  22.924  44.559  12.834
21008W        W93268  10.339  41.380  13.470
21009W        W93269  10.022  44.567  10.760
21010W        W93270  17.974  39.364  10.770
21011W        W93271   0.411   4.018   4.140
21012W        W93272  33.818  26.129  10.607
21013W        W93273  22.296  29.381   4.386
21014W        W93274  22.469  40.412   2.136
21015W        W93275  44.875  19.609   0.853
21016W        W93276  32.366   9.211  10.762
21017W        W93277   9.293  21.455   4.618
21018W        W93278  16.243  30.667   1.932
21019W        W93279  35.836  12.102   1.767
21020W        W93280   6.138  23.232   0.739
21021W        W93281  23.340   0.925   4.317
21022W        W93282  19.555  30.048  14.322
21023W        W93283  13.403   8.428  12.136
21024W        W93284  26.912  17.458  11.985
21025W        W93285  36.358   6.690  13.406
21026W        W93286   9.438  11.488  11.117
21027W        W93287  24.041  16.769   0.986
21028W        W93288  27.469  22.230  14.887
21029W        W93289  31.589  43.765  13.740
21030W        W93290  36.513   3.943  10.996
21031W        W93291  44.318   2.775   2.754
21032W        W93292  30.610  23.250  11.415
21033W        W93293  20.084  41.915   0.820
21034W        W93294  19.559  30.357  12.952
21035W        W93295  12.727   3.721  10.611
21036W        W93296  24.126  25.851   1.149
21037W        W93297  34.717  43.872   1.398
21038W        W93298  28.444  10.844   4.600
21039W        W93299  41.809  29.996   0.654
21040W        W93300  44.438  28.280  11.433
21041W        W93301  32.069   4.732  11.084
21042W        W93302   5.180   3.441   4.012
21043W        W93303   7.931   6.329   3.970
21044W        W93304   7.520   7.909  13.010
21045W        W93305  31.554  42.849  10.465
21046W        W93306  41.019  19.237  13.322
21047W        W93307   4.673  41.378  14.366
21048W        W93308  41.465  30.873  10.777
21049W        W93309  31.309   2.382  12.949
21050W        W93310   9.873   4.391  12.114
21051W        W93311  39.555  43.146  14.421
21052W        W93312   8.408   1.374   0.268
21053W        W93313  15.639  12.292   1.252
21054W        W93314   4.974  43.887   3.359
21055W        W93315  28.554  15.352   2.253
21056W        W93316  31.043  39.093   0.353
21057W        W93317  34.060  37.889  13.958
21058W        W93318  40.132  32.143  11.502
21059W        W93319   4.936  20.118  10.524
21060W        W93320   5.517  41.407   2.393
21061W        W93321  29.191  36.267   3.014
21062W        W93322  26.979  22.489  11.495
21063W        W93323  24.564  22.565   4.888
21064W        W93324  13.045  32.051   1.979
21065W        W93325   3.875  41.583   4.190
21066W        W93326   2.831   2.671  14.794
21067W        W93327  26.675  41.054  11.018
21068W        W93328  34.998  35.877   0.397
21069W        W93329   4.323  16.874   1.022
21070W        W93330  35.953  27.199   0.308
21071W        W93331  37.145   0.350  13.633
21072W        W93332   8.288  28.103   5.207
21073W        W93333  13.755  27.650   2.489
21074W        W93334   9.841  28.705  14.547
21075W        W93335   5.276  38.409   4.023
21076W        W93336   4.460  10.593   2.139
21077W        W93337  29.140  36.467   0.823
21078W        W93338  32.585   4.016   4.983
21079W        W93339   4.307  11.813  11.183
21080W        W93340  23.155  43.171   4.148
21081W        W93341  29.998   3.391   1.273
21082W        W93342  25.726  28.500   0.919
21083W        W93343  31.925  30.834   1.073
21084W        W93344  41.530  19.332  13.464
21085W        W93345   9.636   2.814  11.768
21086W        W93346   1.339  39.514  10.671
21087W        W93347  17.034  15.339  14.454
21088W        W93348  28.900  17.049   2.076
21089W        W93349   5.076  39.843   4.703
21090W        W93350  31.699  24.173  11.933
21091W        W93351  16.618  28.021  13.770
21092W        W93352   0.852  39.872   3.148
21093W        W93353   1.456   4.300   1.473
21094W        W93354  10.225  39.806  10.049
21095W        W93355  17.668  23.506   3.183
21096W        W93356  33.444  28.163   5.125
21097W        W93357  12.743  27.214   4.073
21098W        W93358   5.265  38.452   1.658
21099W        W93359  31.871  10.214  13.895
21100W        W93360  26.575  39.827  13.742
21101W        W93361  32.571   9.208   2.267
21102W        W93362  19.628   9.900   4.128
21103W        W93363  30.638  22.170   0.324
21104W        W93364   9.034  38.613   1.904
21105W        W93365  32.475  32.607  10.481
21106W        W93366  14.332  40.489  12.096
21107W        W93367  17.853  16.803   4.313
21108W        W93368  11.090  12.582  13.051
21109W        W93369  14.875   9.787  10.620
21110W        W93370   4.034  15.204   1.710
21111W        W93371   9.349  10.244  12.063
21112W        W93372  28.024  28.951  11.634
21113W        W93373  23.328   9.154   0.129
21114W        W93374   5.238  11.603   2.694
21115W        W93375   6.381   7.477   4.579
21116W        W93376  23.002  31.390  12.331
21117W        W93377   7.905  33.891   4.147
21118W        W93378  44.346  19.288   3.708
21119W        W93379   3.732  35.119   4.551
21120W        W93380  26.638  36.590   2.009
21121W        W93381  43.607   8.740  14.216
21122W        W93382  38.924  33.667  14.175
21123W        W93383  22.074  19.724   4.421
21124W        W93384  24.191  33.078  13.983
21125W        W93385  30.574  13.539   0.737
21126W        W93386  11.240  13.679  13.782
21127W        W93387   9.943  21.560  12.059
21128W        W93388  39.490  22.676   2.059
21129W        W93389   3.163   4.845  13.761
21130W        W93390  13.241  32.762   0.291
21131W        W93391   5.299  29.961   1.450
21132W        W93392  14.166   3.693  14.386
21133W        W93393   4.804  27.269  11.620
21134W        W93394  10.855  22.158   1.933
21135W        W93395  25.761   8.705   2.121
21136W        W93396  19.017   9.252   9.776
21137W        W93397  11.655   4.720   5.066
21138W        W93398  39.895  30.548  14.269
21139W        W93399  10.901  34.766  11.357
21140W        W93400  27.957  40.516  10.699
21141W        W93401  17.988  28.303  13.322
21142W        W93402  27.103  25.782   1.921
21143W        W93403  22.591  29.603   4.014
21144W        W93404  14.589  43.582  11.582
21145W        W93405   8.865  26.013   2.276
21146W        W93406   8.707   7.429   2.633
21147W        W93407  35.444  37.402   3.226
21148W        W93408   4.991  39.364   1.313
21149W        W93409  19.733  26.697   2.801
21150W        W93410  30.070  20.487   3.259
21151W        W93411  30.526   6.798  14.984
21152W        W93412  16.073  36.076   1.887
21153W        W93413  12.433  28.078   1.899
21154W        W93414  12.142  42.924  14.430
21155W        W93415  40.933  12.089   4.779
21156W        W93416  28.919  26.566  10.726
21157W        W93417  27.530  27.175   4.185
21158W        W93418  38.919   0.854  13.450
21159W        W93419  11.831  14.608   4.338
21160W        W93420  36.088  40.626   1.470
21161W        W93421  34.708   5.478  12.567
21162W        W93422  42.401  42.472  12.629
21163W        W93423  10.750  38.299  14.457
21164W        W93424  25.359  37.612  14.768
21165W        W93425  38.060  35.518   3.260
21166W        W93426  15.248  38.836  12.962
21167W        W93427  37.565  25.530  11.294
21168W        W93428  19.077  43.691   3.281
21169W        W93429  24.651  37.704  10.755
21170W        W93430  42.887  32.516  14.024
21171W        W93431   3.208  42.176  13.239
21172W        W93432   3.280  32.027   3.109
21173W        W93433   2.359  22.780   4.316
21174W        W93434  20.109   8.723   0.725
21175W        W93435  40.332  14.657  14.065
21176W        W93436  38.946  10.137   4.557
21177W        W93437   8.725   4.095  11.726
21178W        W93438   5.300  16.280  14.403
21179W        W93439  40.079   2.519   0.942
21180W        W93440  42.392   3.456  12.034
21181W        W93441  32.418  35.934   1.735
21182W        W93442  18.095  25.036   4.565
21183W        W93443   6.923   0.137  11.136
21184W        W93444  39.801   8.724  10.298
21185W        W93445  11.119   6.343   2.667
21186W        W93446  31.443  31.550  12.679
21187W        W93447  37.857   1.310  13.030
21188W        W93448  24.760  27.111  12.809
21189W        W93449  13.340  42.982   0.933
21190W        W93450   7.487  43.045  14.758
21191W        W93451   8.697  21.288  14.040
21192W        W93452   0.554  17.655  12.409
21193W        W93453  10.839  29.190  12.573
21194W        W93454  13.821  23.752  13.583
21195W        W93455   3.845  29.966  14.344
21196W        W93456  14.181  36.702   2.875
21197W        W93457   5.912  26.524  11.428
21198W        W93458   8.221   7.205  10.424
21199W        W93459  21.047  40.096  11.099
21200W        W93460  37.899  23.254   1.206
21201W        W93461   2.899  10.480  14.234
21202W        W93462   4.771   5.964   4.588
21203W        W93463  20.499  35.074  10.349
21204W        W93464  30.327  39.675  14.848
21205W        W93465  14.607  19.561   3.686
21206W        W93466  23.364  40.009  11.644
21207W        W93467   9.203  24.597  13.554
21208W        W93468   6.463  27.241   4.992
21209W        W93469   2.728  29.968   3.949
21210W        W93470   3.824  25.530   2.218
21211W        W93471   5.454  13.024   1.383
21212W        W93472  24.008  27.123  13.902
21213W        W93473  12.122  41.578   1.268
21214W        W93474  18.882  15.262   0.270
21215W        W93475   6.677  20.228  10.728
21216W        W93476  18.460   5.166  10.084
21217W        W93477  22.602  21.747   1.637
21218W        W93478   9.089  20.538   0.749
21219W        W93479  42.142   5.661  12.108
21220W        W93480   6.360  18.990  11.153
21221W        W93481  26.187   7.685  14.351
21222W        W93482  10.542  42.129   4.142
21223W        W93483  41.397  38.991   2.135
21224W        W93484  34.889  19.325   3.167
21225W        W93485  16.971  40.891   3.671
21226W        W93486  32.493   3.729  12.989
21227W        W93487  43.062  22.380  11.612
21228W        W93488  35.108  12.228   2.294
21229W        W93489   1.240  10.084  12.203
21230W        W93490   7.565   2.663  11.626
21231W        W93491   1.610   3.718   0.749
21232W        W93492   1.252   0.348  13.918
21233W        W93493  39.857  22.265  13.084
21234W        W93494  35.181  25.030   1.840
21235W        W93495  37.423  25.475   0.757
21236W        W93496   2.572  30.363   0.301
21237W        W93497  13.638  26.489  13.035
21238W        W93498  24.664  12.461  13.203
21239W        W93499  14.808  33.858   1.319
21240W        W93500   8.917  23.142  13.110
21241W        W93501  18.653  11.175   1.394
21242W        W93502  27.062   9.857   1.479
21243W        W93503   7.958  19.604  11.507
21244W        W93504  11.952   8.847   4.780
21245W        W93505  20.255  20.253  14.924
21246W        W93506  32.922  43.797   0.503
21247W        W93507  16.249   5.887  12.442
21248W        W93508  37.094  24.193  14.994
21249W        W93509  20.666   7.881   3.595
21250W        W93510  27.210  37.606  11.391
21251W        W93511  30.671  32.875   3.631
21252W        W93512  18.603  29.245  11.075
21253W        W93513  37.223  11.729   2.596
21254W        W93514  13.421   5.327  11.207
21255W        W93515  28.855  31.112   1.313
21256W        W93516  41.434  14.736  14.535
21257W        W93517  35.517  31.653  11.515
21258W        W93518  17.209  35.166  11.113
21259W        W93519  34.265   4.837   4.091
21260W        W93520   2.253  11.792   1.476
21261W        W93521  23.770  31.053  14.024
21262W        W93522  29.006  27.824  11.108
21263W        W93523  18.330  12.120   2.437
21264W        W93524  41.019  16.382   0.967
21265W        W93525  43.300  42.558   1.344
21266W        W93526  34.336   5.424   0.928
21267W        W93527   6.279  21.796   2.034
21268W        W93528  21.546  30.377  10.405
21269W        W93529   4.151  38.909   3.851
21270W        W93530  19.589  30.598   0.041
21271W        W93531   0.012  13.243   1.440
21272W        W93532  44.227  25.584   1.696
21273W        W93533  15.072  29.152  12.937
21274W        W93534  33.067  25.333   1.404
21275W        W93535  39.646  40.074  14.879
21276W        W93536  36.090  20.780  10.053
21277W        W93537  22.256  32.750  11.215
21278W        W93538  11.403  35.991  14.033
21279W        W93539   4.032   0.770  10.640
21280W        W93540  33.556  44.963  14.518
21281W        W93541  42.409  19.786   0.988
21282W        W93542   2.794  41.989  10.691
21283W        W93543  27.116  29.077  14.890
21284W        W93544  44.703  17.490  11.543
21285W        W93545  13.370  21.025  14.295
21286W        W93546  36.847  35.454  12.373
21287W        W93547  34.054  39.584  14.016
21288W        W93548   7.334   6.732  12.266
21289W        W93549  19.751   5.385  14.501
21290W        W93550   4.949  12.660  14.689
21291W        W93551  25.267  11.884   4.577
21292W        W93552   9.777  22.091  11.499
21293W        W93553   4.271  32.838   2.868
21294W        W93554  35.594  38.500   3.331
21295W        W93555   5.016  27.161  14.281
21296W        W93556  39.655  42.433  13.640
21297W        W93557  13.143  14.041  11.614
21298W        W93558  25.130   5.891   4.193
21299W        W93559  14.342  23.978   1.020
21300W        W93560  28.554   2.951  14.300
21301W        W93561  15.141  11.713   4.698
21302W        W93562  24.711  40.038  13.059
21303W        W93563  38.878  14.985   5.040
21304W        W93564  12.294  28.337   4.098
21305W        W93565  33.871   5.285  13.348
21306W        W93566  34.466  40.586   1.833
21307W        W93567  11.762  24.026  13.483
21308W        W93568  40.305  24.902   1.369
21309W        W93569  32.653  39.111  13.867
21310W        W93570  40.611  43.293  12.899
21311W        W93571  31.477  29.938  14.207
21312W        W93572  28.360  43.787   3.326
21313W        W93573  30.230  18.607   4.501
21314W        W93574  21.207  20.472  13.402
21315W        W93575   0.693  17.192  10.247
21316W        W93576  22.684  24.991  11.184
21317W        W93577   8.680  14.250   4.750
21318W        W93578  40.527  13.126  10.805
21319W        W93579  21.660  21.070  12.101
21320W        W93580  22.072  34.436   0.022
21321W        W93581  23.866  44.967  12.180
21322W        W93582  41.673  11.131  11.073
21323W        W93583  39.518  44.917   4.727
21324W        W93584  23.059   4.000   3.306
21325W        W93585  33.095  23.606  14.973
21326W        W93586  31.642   9.291   0.461
21327W        W93587  32.045  11.290  10.292
21328W        W93588  43.434  43.200   3.228
21329W        W93589  20.613  40.146   4.301
21330W        W93590  36.409  32.532   1.349
21331W        W93591  21.179  35.927   1.262
21332W        W93592  38.137  43.616   2.092
21333W        W93593  22.341  43.525  13.660
21334W        W93594  15.942  15.671  10.504
21335W        W93595  10.336   2.878   0.614
21336W        W93596  28.947  29.045   2.715
21337W        W93597  33.444  21.621  11.712
21338W        W93598  31.717   1.395  13.340
21339W        W93599  42.377  26.428   1.206
21340W        W93600  31.183  44.470   2.200
21341W        W93601  44.705  31.050  14.955
21342W        W93602  44.772  10.929   2.820
21343W        W93603  18.737   4.936  12.093
21344W        W93604  16.653  16.101  14.868
21345W        W93605  12.704  31.716  10.420
21346W        W93606   0.010  35.604  11.868
21347W        W93607  21.781  37.308   0.852
21348W        W93608  35.624  20.995   9.862
21349W        W93609  25.521   1.466  11.531
21350W        W93610   3.438  39.291  13.383
21351W        W93611   4.915   4.706   4.778
21352W        W93612   6.921  42.514  14.889
21353W        W93613   6.890  27.472  13.299
21354W        W93614  29.617  17.045  11.551
21355W        W93615  31.120  42.463   4.873
21356W        W93616  24.749  19.008   0.923
21357W        W93617   9.297  36.537  14.540
21358W        W93618   4.303  12.602   0.374
21359W        W93619  30.874   9.264  13.003
21360W        W93620  32.390  40.563   3.221
21361W        W93621  36.942  31.846   5.153
21362W        W93622  19.593  27.004  10.411
21363W        W93623  27.978  22.819  12.288
21364W        W93624  23.058  11.373   3.318
21365W        W93625  38.314  22.033  14.294
21366W        W93626   1.972  23.733   2.873
21367W        W93627  10.346  35.332   1.410
21368W        W93628  35.887  38.893  10.656
21369W        W93629  25.565  29.520  13.467
21370W        W93630  37.555  35.860  12.825
21371W        W93631   4.727   7.780  14.827
21372W        W93632  29.671  10.658  12.450
21373W        W93633   4.962  42.257   3.753
21374W        W93634  13.514  21.590  11.080
21375W        W93635  17.696  26.698  14.425
21376W        W93636  40.787  10.320  11.944
21377W        W93637   3.664  16.974  13.860
21378W        W93638  34.521  29.892  11.513
21379W        W93639   7.764   1.569   4.529
21380W        W93640  17.291  23.395   3.669
21381W        W93641  24.080  12.912  11.588
21382W        W93642   3.661  25.143   1.272
21383W        W93643  10.185   6.403  13.769
21384W        W93644   3.744  29.867  11.835
21385W        W93645  39.355  17.723  14.032
21386W        W93646  44.408  14.418  13.402
21387W        W93647  20.641  13.176  14.571
21388W        W93648  32.479   6.921  12.979
21389W        W93649  27.818  26.636  13.106
21390W        W93650  10.776  21.041   4.213
21391W        W93651  11.265  14.739   4.213
21392W        W93652  19.782  37.536   1.852
21393W        W93653  39.949  24.049   0.742
21394W        W93654   2.357   1.447   4.817
21395W        W93655  34.662  31.648   4.560
21396W        W93656  13.104   4.143  12.999
21397W        W93657  29.635  10.948   3.273
21398W        W93658  28.296  32.172   2.352
21399W        W93659   3.881  31.510  11.914
21400W        W93660  37.372  26.647   2.183
21401W        W93661   5.700  10.751   3.881
21402W        W93662  42.212  18.605  13.234
21403W        W93663  26.702  40.852   3.180
21404W        W93664   0.140  32.879  14.077
21405W        W93665  33.006  39.575   2.256
21406W        W93666  18.756  27.431  13.970
21407W        W93667  33.296  16.210   0.581
21408W        W93668  31.512   4.623   4.180
21409W        W93669  32.706  42.839  13.634
21410W        W93670   3.691  26.890   2.683
21411W        W93671  16.960  12.220   0.992
21412W        W93672  31.192   1.043  14.685
21413W        W93673  16.737   0.878  12.352
21414W        W93674   6.600   4.845  11.727
21415W        W93675   4.752  10.792  13.967
21416W        W93676   8.636  15.144   4.580
21417W        W93677   0.864  30.940   2.630
21418W        W93678  18.270   2.815  14.925
21419W        W93679  35.035  24.797   3.066
21420W        W93680   7.189  34.628  11.228
21421W        W93681  31.556  25.767   3.544
21422W        W93682  30.338  19.564  13.937
21423W        W93683  31.736  41.656  12.959
21424W        W93684  25.771  37.148  12.031
21425W        W93685  22.785   5.477  11.991
21426W        W93686  35.080  33.102  12.011
21427W        W93687  42.555  40.327   4.099
21428W        W93688  15.389   0.782  13.454
21429W        W93689  20.712  35.498   4.177
21430W        W93690   2.740  29.053  11.118
21431W        W93691  26.671  34.086  11.525
21432W        W93692  39.765  19.740  12.034
21433W        W93693  26.658   0.888  13.764
21434W        W93694  38.933  25.539  12.130
21435W        W93695  27.422  27.919  14.953
21436W        W93696  29.100  25.489   0.521
21437W        W93697  13.254   2.810  13.936
21438W        W93698   9.286  13.209   4.604
21439W        W93699  36.124  26.673  14.013
21440W        W93700  16.563  30.284  13.654
21441W        W93701  17.503  44.802  14.705
21442W        W93702  11.619  39.771  11.191
21443W        W93703   6.651  20.154  14.959
21444W        W93704  15.056  10.397  12.485
21445W        W93705  27.976   9.358   4.222
21446W        W93706  40.985  20.595   2.797
21447W        W93707  25.522   8.617  12.886
21448W        W93708  37.863  41.971   2.494
21449W        W93709  38.923   8.164   1.318
21450W        W93710  13.357  26.695  11.215
21451W        W93711  44.409  18.017  12.822
21452W        W93712   3.556  16.084   3.789
21453W        W93713  17.631  41.012  13.104
21454W        W93714   6.725  10.700  11.834
21455W        W93715  38.410  18.075   4.433
21456W        W93716  30.658  32.507  14.350
21457W        W93717  18.530  28.204   1.878
21458W        W93718  43.817   4.606  10.946
21459W        W93719  37.074  31.923   0.234
21460W        W93720  30.667  25.931  14.490
21461W        W93721  36.508   4.458   2.629
21462W        W93722  28.682   7.794   4.605
21463W        W93723  21.404  14.235   4.753
21464W        W93724  16.750   6.760   2.903
21465W        W93725  13.136  11.217   2.986
21466W        W93726  39.903  18.817  12.599
21467W        W93727  26.200  17.295  14.405
21468W        W93728  27.906   0.661   1.926
21469W        W93729  31.909  12.035   0.434
21470W        W93730  36.719  28.349   3.444
21471W        W93731  19.265  27.942   0.289
21472W        W93732  18.135  44.970  12.953
21473W        W93733  39.252  29.532   3.214
21474W        W93734  13.247  42.933  10.712
21475W        W93735  14.679  17.730   5.109
21476W        W93736  14.792   0.999   2.819
21477W        W93737  12.636  36.420  14.057
21478W        W93738  30.382  23.116   1.639
21479W        W93739  18.833  24.546   3.281
21480W        W93740  29.911   7.890  11.539
21481W        W93741   3.995  18.037   1.671
21482W        W93742   1.956  14.718  14.956
21483W        W93743  14.643  34.765  11.458
21484W        W93744  35.854  17.620   2.180
21485W        W93745   5.203   2.155   0.934
21486W        W93746   1.125   9.483   1.720
21487W        W93747  19.393  35.839  11.926
21488W        W93748  20.735  10.237  13.942
21489W        W93749  42.964   2.485   0.311
21490W        W93750  29.640  22.742   0.258
21491W        W93751  37.180  21.718  12.173
21492W        W93752  39.423  44.890   3.719
21493W        W93753   6.263  21.024   0.386
21494W        W93754  14.713  33.105  13.900
21495W        W93755  22.618   5.192   4.026
21496W        W93756  31.464  44.542   1.730
21497W        W93757   6.332  12.365  12.971
21498W        W93758   9.903  26.560  12.037
21499W        W93759  22.668  26.997  11.468
21500W        W93760   0.064  24.724  12.420
21501W        W93761  39.429  13.133   3.569
21502W        W93762  14.276  34.969  12.702
21503W        W93763  42.533   4.745   1.622
21504W        W93764   3.878  16.841   4.596
21505W        W93765  30.600   4.608  11.531
21506W        W93766  12.152  17.733   4.440
21507W        W93767   2.733  14.111  10.747
21508W        W93768  34.059  26.659   4.070
21509W        W93769  26.768  28.687   2.227
21510W        W93770   1.806   9.067  11.694
21511W        W93771  14.075  18.196   3.678
21512W        W93772   1.015  21.977  12.018
21513W        W93773  25.283   5.745   4.649
21514W        W93774  25.481   7.687   2.125
21515W        W93775  14.667  19.976  10.661
21516W        W93776   6.136  39.339  14.319
21517W        W93777  41.335   5.987  13.051
21518W        W93778  13.824   6.756  10.246
21519W        W93779  18.555  22.728  11.817
21520W        W93780  25.074  32.295   3.984
21521W        W93781  38.470  40.205  11.535
21522W        W93782  43.234  37.893   0.052
21523W        W93783   2.255  23.654  11.654
21524W        W93784  11.379  21.830   0.559
21525W        W93785   2.453   9.156  14.337
21526W        W93786  42.987   1.968   4.389
21527W        W93787   1.456  41.566  11.935
21528W        W93788  37.960   1.773   0.229
21529W        W93789  28.231  25.288   3.674
21530W        W93790  25.677  35.813   2.324
21531W        W93791   2.174  34.428   2.294
21532W        W93792  32.355  19.651  12.818
21533W        W93793  17.367  18.677  10.879
21534W        W93794  31.413   7.815   0.270
21535W        W93795   2.271  32.570  10.693
21536W        W93796  35.574  30.799  12.319
21537W        W93797  18.186  36.944   3.723
21538W        W93798  15.592   2.203  12.051
21539W        W93799  25.278  26.957   3.194
21540W        W93800  44.966  11.507  13.934
21541W        W93801  43.801  35.582   3.767
21542W        W93802  34.095  36.770  12.813
21543W        W93803   2.238  35.510  12.873
21544W        W93804  29.494  31.113  13.030
21545W        W93805  34.332  44.757   2.263
21546W        W93806  43.687  20.515   0.950
21547W        W93807   6.717  40.493   5.026
21548W        W93808  37.977  43.343  14.195
21549W        W93809   2.392   3.188  12.951
21550W        W93810  25.876  40.502  14.139
21551W        W93811  42.968  34.028  14.947
21552W        W93812   4.036  24.790   4.505
21553W        W93813  15.562  38.388   4.157
21554W        W93814  40.189   8.857  11.229
21555W        W93815  31.582  28.420  12.128
21556W        W93816  43.304   1.030  14.317
21557W        W93817  42.902   9.970   3.637
21558W        W93818  33.200  34.029  14.409
21559W        W93819  31.093  28.699  12.911
21560W        W93820  24.565  18.615  14.369
21561W        W93821  38.934  12.466  12.266
21562W        W93822   2.558  23.278  10.842
21563W        W93823  30.388   4.408   2.233
21564W        W93824  37.366  15.971   4.741
21565W        W93825   6.204  16.635   4.524
21566W        W93826   2.769  26.992   0.940
21567W        W93827  32.253  25.182   1.771
21568W        W93828   6.470  19.087  13.462
21569W        W93829  27.894  32.059  13.019
21570W        W93830   7.745  11.592  14.825
21571W        W93831  13.740  21.826  13.831
21572W        W93832  16.281  36.995   3.283
21573W        W93833   0.831  29.433   2.774
21574W        W93834  25.293  19.183  13.714
21575W        W93835  43.288  39.478   4.708
21576W        W93836  44.404  40.018   0.491
21577W        W93837  20.548  14.723  14.800
21578W        W93838   7.638  15.222  12.125
21579W        W93839  29.529   9.814  10.723
21580W        W93840  12.106  21.604  10.668
21581W        W93841  18.680  37.730  12.892
21582W        W93842  35.011  20.062   2.157
21583W        W93843  31.655   7.860   1.649
21584W        W93844  38.035  30.943   0.956
21585W        W93845  40.097  43.299  12.897
21586W        W93846  25.726  11.350   2.105
21587W        W93847   0.996   1.223  12.893
21588W        W93848  44.990   5.766   4.302
21589W        W93849  30.572  21.835   3.224
21590W        W93850  17.236   5.466  12.931
21591W        W93851  20.614  41.779   4.356
21592W        W93852  41.135   6.148   1.411
21593W        W93853  24.030  39.507  11.293
21594W        W93854  42.483  17.507   2.281
21595W        W93855  36.381  17.660   0.249
21596W        W93856   0.286  35.031  14.108
21597W        W93857  15.141  20.302  11.985
21598W        W93858  29.726  34.642   4.682
21599W        W93859  11.252  20.978   2.334
21600W        W93860   7.776  43.087   1.136
21601W        W93861  21.527  22.029   0.030
21602W        W93862   2.961  39.389   2.926
21603W        W93863   7.386  42.322  11.099
21604W        W93864  15.436  28.006  12.553
21605W        W93865  23.114   9.915  10.416
21606W        W93866  20.814   1.540  14.341
21607W        W93867  17.821  15.878  12.112
21608W        W93868  22.616  39.918   1.871
21609W        W93869  23.042  15.909  14.782
21610W        W93870   7.696  42.302  10.608
21611W        W93871   5.119  18.070   2.308
21612W        W93872   8.901  27.435  12.602
21613W        W93873  34.335  11.821  10.766
21614W        W93874  24.697  25.441  13.379
21615W        W93875  10.120   5.869  13.683
21616W        W93876  38.439  32.208   2.178
21617W        W93877  23.249  38.331   2.734
21618W        W93878  14.791  37.102  14.915
21619W        W93879   2.787   6.709  14.353
21620W        W93880  32.027  27.929   2.214
21621W        W93881   0.919  32.385   3.013
21622W        W93882  29.915  25.059   4.629
21623W        W93883  37.031  29.160   2.725
21624W        W93884  25.515  21.325  12.578
21625W        W93885  16.204  41.425   3.741
21626W        W93886  20.806  36.162  11.146
21627W        W93887  22.608   0.793   1.059
21628W        W93888  25.074  24.589  12.721
21629W        W93889  41.953  42.101   1.388
21630W        W93890  16.091  24.727   0.382
21631W        W93891  30.364  35.483  12.159
21632W        W93892   9.370   8.544  12.425
21633W        W93893  43.442   1.835   5.066
21634W        W93894   0.764  30.385  10.276
21635W        W93895   3.496  32.092  11.974
21636W        W93896  11.666  35.915   3.032
21637W        W93897  23.242   6.942  14.843
21638W        W93898  38.848  26.081  13.361
21639W        W93899   0.918  17.648   0.985
21640W        W93900   7.282  31.236   4.514
21641W        W93901   4.752  20.905  11.654
21642W        W93902  31.075  26.747  10.554
21643W        W93903  30.515  39.676  12.735
21644W        W93904  32.795  10.915  11.889
21645W        W93905  36.326  41.883   1.673
21646W        W93906  32.189  11.375   3.468
21647W        W93907  22.096  22.637   0.381
21648W        W93908   6.867   5.312  11.720
21649W        W93909  41.786  20.100   0.491
21650W        W93910   9.823  40.959   3.312
21651W        W93911  22.137  30.639  11.719
21652W        W93912  41.898  39.761   2.379
21653W        W93913  18.735  13.837   2.279
21654W        W93914   2.401  41.431  11.672
21655W        W93915  39.950  33.648  12.903
21656W        W93916  13.321  15.499  10.860
21657W        W93917  13.231   9.746  12.624
21658W        W93918  13.233   1.966  12.843
21659W        W93919  17.297  29.595   0.777
21660W        W93920   9.439   3.553  13.116
21661W        W93921  38.912  39.989  13.924
21662W        W93922  40.017  32.117   0.948
21663W        W93923  12.594  20.189  11.724
21664W        W93924   8.304  19.956   2.287
21665W        W93925   6.379  30.953  12.973
21666W        W93926  35.016  24.698  10.637
21667W        W93927  26.508   9.720   3.224
21668W        W93928  11.719  18.056   4.661
21669W        W93929  28.277  13.160   3.313
21670W        W93930  22.183  23.413  11.277
21671W        W93931  43.639  43.419  10.807
21672W        W93932  12.591  29.272  13.117
21673W        W93933  11.998  33.944  11.904
21674W        W93934  17.327  31.775   4.540
21675W        W93935  14.325  29.471   0.766
21676W        W93936   3.942  22.242   1.837
21677W        W93937   3.784  34.872   0.842
21678W        W93938  17.652  41.882   4.456
21679W        W93939  38.116   7.461   4.955
21680W        W93940  24.492  30.728   3.371
21681W        W93941   0.992  11.661   1.246
21682W        W93942   7.831  27.675   2.190
21683W        W93943  27.079  17.666  10.616
21684W        W93944  40.703  40.765  11.310
21685W        W93945  37.328  14.205   3.306
21686W        W93946   4.926  15.168  12.155
21687W        W93947  38.382  20.592   1.351
21688W        W93948  37.911  36.529   4.682
21689W        W93949   4.008  24.306   0.261
21690W        W93950  37.974  29.586   2.701
21691W        W93951  15.362  23.218   0.474
21692W        W93952  42.363   4.859   4.509
21693W        W93953  40.891   0.189   1.695
21694W        W93954   9.272  12.412   4.136
21695W        W93955   8.230  15.653  14.478
21696W        W93956  37.135   7.490  12.594
21697W        W93957  17.020  34.967  12.421
21698W        W93958  38.500  35.387  12.047
21699W        W93959  28.904  34.853   1.363
21700W        W93960  38.943  29.631  14.355
21701W        W93961  35.031  10.440   0.808
21702W        W93962  23.944  39.435  10.285
21703W        W93963  16.378  10.892  12.959
21704W        W93964  28.073  42.379  10.886
21705W        W93965  35.461  10.384   0.500
21706W        W93966  24.953  42.956  14.315
21707W        W93967   8.831   5.647  13.241
21708W        W93968   6.459   8.190  13.590
21709W        W93969   7.839   8.292  12.260
21710W        W93970  20.996  31.436  14.233
21711W        W93971  38.300  29.760  12.990
21712W        W93972   1.967  23.269  13.286
21713W        W93973  36.097  16.233   1.225
21714W        W93974  38.451  16.748  12.363
21715W        W93975  18.316  31.081  12.359
21716W        W93976   6.401  23.552  12.529
21717W        W93977  34.827  12.131   1.166
21718W        W93978  39.849  24.299   3.880
21719W        W93979  12.897  16.872   0.494
21720W        W93980   8.698  14.596   0.830
21721W        W93981   6.939  23.820   0.530
21722W        W93982  14.518  41.957   0.378
21723W        W93983  14.131  44.903  12.630
21724W        W93984  10.457  14.022  11.236
21725W        W93985   0.902  41.908  10.864
21726W        W93986   4.802  42.006   1.258
21727W        W93987   0.171  35.890  13.438
21728W        W93988  14.105   3.916   1.870
21729W        W93989   3.740  44.800  14.745
21730W        W93990  36.408  44.327  10.153
21731W        W93991  19.021  43.363   1.900
21732W        W93992   7.751  20.535   0.750
21733W        W93993  42.891  14.595   3.368
21734W        W93994  37.349  28.000  10.690
21735W        W93995  11.717   2.864   0.731
21736W        W93996  40.095  36.302  12.411
21737W        W93997   7.193  37.506   4.513
21738W        W93998  42.949  29.569   1.921
21739W        W93999  30.481  29.447   0.682
21740W        W94000  36.035  13.632   4.611
21741W        W94001   2.038  42.920   3.206
21742W        W94002  20.580   7.095   0.266
21743W        W94003  17.870  37.872  14.989
21744W        W94004  41.339  27.029   1.444
21745W        W94005  44.844  36.541   1.655
21746W        W94006  34.080  34.422   0.148
21747W        W94007  27.889  43.014  14.464
21748W        W94008   1.339  10.439   0.974
21749W        W94009   0.698  21.324   2.360
21750W        W94010  18.079  38.879   1.878
21751W        W94011  25.691   6.328   3.659
21752W        W94012  31.347  32.102  10.179
21753W        W94013   5.266   8.257   4.285
21754W        W94014  19.315  33.085  12.002
21755W        W94015   6.930  36.575   4.500
21756W        W94016  14.464  37.245   1.707
21757W        W94017  20.309   9.967  10.080
21758W        W94018  22.578  17.348  14.149
21759W        W94019  17.775   3.098   4.771
21760W        W94020  12.677  26.128  10.517
21761W        W94021  23.434  40.003   1.263
21762W        W94022  32.884  43.076  10.801
21763W        W94023  24.567  24.234   1.231
21764W        W94024  15.333  14.212  11.930
21765W        W94025   5.758  10.518  11.081
21766W        W94026  10.256  16.843  10.075
21767W        W94027  31.677  15.749  13.220
21768W        W94028  22.697  26.132   4.595
21769W        W94029  26.461  14.606   3.302
21770W        W94030  28.732  23.612  12.857
21771W        W94031  41.344  39.851  12.091
21772W        W94032   5.736  29.681   1.193
21773W        W94033  20.000   7.198  11.052
21774W        W94034  23.285  12.769  10.608
21775W        W94035  43.173  43.402  10.992
21776W        W94036  19.219  22.881   1.177
21777W        W94037   7.733  16.043  13.384
21778W        W94038   6.758  41.093   3.837
21779W        W94039  12.752  23.907  10.507
21780W        W94040  20.485  35.123  11.968
21781W        W94041  10.318  33.530  10.396
21782W        W94042  24.687   1.963   4.067
21783W        W94043  21.160  19.082  12.010
21784W        W94044  28.612   8.822  14.439
21785W        W94045  32.576  23.026   1.555
21786W        W94046   0.912   4.729   2.346
21787W        W94047  15.368   1.417  13.898
21788W        W94048   9.133  40.167  12.512
21789W        W94049  13.641  18.658   4.270
21790W        W94050  39.076  33.885  14.972
21791W        W94051  37.405  42.466   3.822
21792W        W94052  24.947  32.182  10.727
21793W        W94053  33.962  12.448  13.376
21794W        W94054  25.832  24.940   1.356
21795W        W94055  10.739  28.723   2.096
21796W        W94056  22.989  32.970   1.203
21797W        W94057   2.068  44.694  12.891
21798W        W94058  18.537  28.451  11.733
21799W        W94059  11.780  41.158   3.613
21800W        W94060  44.753  31.405  11.850
21801W        W94061  13.206   8.564  11.679
21802W        W94062  16.708  17.718  12.130
21803W        W94063  35.410  21.740  14.914
21804W        W94064  37.427  21.957  10.601
21805W        W94065  20.206  44.202  14.995
21806W        W94066  30.947  26.545   0.301
21807W        W94067  24.674  26.321  13.907
21808W        W94068  28.694  24.729  14.910
21809W        W94069  27.082   9.776  12.684
21810W        W94070  40.404  28.134  11.937
21811W        W94071  35.626  17.140   1.259
21812W        W94072   0.765  10.663   3.633
21813W        W94073   6.669   6.514  10.691
21814W        W94074  36.171  23.929  12.581
21815W        W94075  22.352  24.292  10.040
21816W        W94076   0.106  30.371  12.448
21817W        W94077  21.218   0.832  12.071
21818W        W94078  33.579   1.382  13.813
21819W        W94079  19.822  25.294  13.852
21820W        W94080  41.743  10.284   1.792
21821W        W94081  30.962   9.358  11.865
21822W        W94082  44.868  27.512   3.774
21823W        W94083  20.115   2.265  13.831
21824W        W94084  23.507  29.510  11.576
21825W        W94085  34.470  35.670  14.776
21826W        W94086  41.528  44.313   1.695
21827W        W94087  13.118  34.434   2.822
21828W        W94088  11.776   5.620  11.092
21829W        W94089  26.043  26.173  12.995
21830W        W94090  21.455  27.970  10.647
21831W        W94091  35.300  15.226   3.148
21832W        W94092  21.747  26.588   4.575
21833W        W94093  30.501  18.826  11.094
21834W        W94094  13.281   6.382   2.306
21835W        W94095   1.662  21.192  12.510
21836W        W94096  20.519  12.184   2.249
21837W        W94097  15.759   0.377  11.069
21838W        W94098  36.012  11.014   2.707
21839W        W94099  38.879  23.289  13.105
21840W        W94100  29.097  21.244   3.278
21841W        W94101  26.662  13.285   4.670
21842W        W94102   0.636  31.467   4.381
21843W        W94103   3.566   3.381  12.014
21844W        W94104  31.029  20.522   1.746
21845W        W94105  12.595   3.865  11.938
21846W        W94106  41.800  40.083   3.683
21847W        W94107  14.683  38.888   0.546
21848W        W94108  39.108  43.151  11.721
21849W        W94109   3.379  33.605   5.073
21850W        W94110  30.660  28.068  13.457
21851W        W94111  38.342  29.586   3.052
21852W        W94112  22.707  42.354   0.459
21853W        W94113   0.278  13.609   3.248
21854W        W94114  26.376   5.329   1.910
21855W        W94115  23.818  40.021   5.054
21856W        W94116  43.320  44.586  14.730
21857W        W94117  36.863   8.481   4.742
21858W        W94118   6.892  23.807   3.037
21859W        W94119   7.423  29.652   0.729
21860W        W94120  30.043  13.364  11.186
21861W        W94121   6.767  24.972  13.055
21862W        W94122   5.426   3.401  14.922
21863W        W94123  26.988  33.039   2.131
21864W        W94124  19.167  33.390   1.686
21865W        W94125  14.703  17.593   3.713
21866W        W94126  28.154  22.682   0.976
21867W        W94127   5.664  10.281   2.336
21868W        W94128  20.265  12.640   2.216
21869W        W94129  28.257  33.404  11.526
21870W        W94130  35.335  34.856   2.858
21871W        W94131  43.928   9.575   1.989
21872W        W94132  26.400  10.891  14.667
21873W        W94133  31.180  40.844   2.433
21874W        W94134   7.073  44.727  14.006
21875W        W94135  18.272  34.108   2.778
21876W        W94136  30.437  29.115   4.080
21877W        W94137  33.024   6.623  14.396
21878W        W94138  41.766  29.442   1.961
21879W        W94139   0.249   1.653  13.972
21880W        W94140  31.078   4.694   3.700
21881W        W94141  33.465  41.435   2.852
21882W        W94142  38.230  19.555   3.258
21883W        W94143  22.039  38.407   1.758
21884W        W94144  18.450  30.125   0.354
21885W        W94145  11.423  34.414  10.724
21886W        W94146  29.384  11.014  11.541
21887W        W94147  40.606  44.885  13.422
21888W        W94148  17.724  22.292   3.786
21889W        W94149  10.075  10.960  12.030
21890W        W94150   2.150   7.669  13.990
21891W        W94151  32.708  16.376  12.570
21892W        W94152   0.467  20.731   3.367
21893W        W94153  39.951  26.695   2.310
21894W        W94154  26.508  35.508   3.399
21895W        W94155  18.957   3.769  14.324
21896W        W94156  23.166  42.554  13.850
21897W        W94157   2.831  22.866  12.012
21898W        W94158  36.925  10.832   3.151
21899W        W94159  17.621   7.836   1.079
21900W        W94160   7.560  30.039   2.724
21901W        W94161  25.853  32.904   2.948
21902W        W94162  37.778  14.162  13.269
21903W        W94163  23.158  12.671   1.963
21904W        W94164  12.717  14.045  12.939
21905W        W94165  31.572   4.883  11.114
21906W        W94166  37.001   8.951   1.639
21907W        W94167  36.325  26.651  12.339
21908W        W94168  31.722  27.996  11.188
21909W        W94169  14.608  35.944  11.256
21910W        W94170  23.739  14.638  12.059
21911W        W94171   4.825  21.987   3.896
21912W        W94172  35.379  17.908   4.615
21913W        W94173   5.063  21.911  12.943
21914W        W94174  17.986   4.177   0.725
21915W        W94175  31.574   2.855  13.132
21916W        W94176  23.822  38.560   1.376
21917W        W94177  29.591   3.390   4.619
21918W        W94178   9.425  28.439  11.655
21919W        W94179  32.827  31.838   4.579
21920W        W94180  20.962  17.336   5.095
21921W        W94181  14.563  22.608   0.837
21922W        W94182   4.449  13.576  11.681
21923W        W94183  26.960  40.653  13.888
21924W        W94184   4.921  37.883  14.995
21925W        W94185  39.412  43.465  11.401
21926W        W94186  31.540  28.148  12.600
21927W        W94187  27.718  37.073   3.662
21928W        W94188  33.959  27.200  14.324
21929W        W94189   9.991   6.837  12.752
21930W        W94190  29.238  33.000   1.303
21931W        W94191  24.589  30.136  12.548
21932W        W94192  40.360   0.971   2.540
21933W        W94193  19.089  23.128   2.404
21934W        W94194  36.920  41.618   0.459
21935W        W94195  38.821  43.473   4.591
21936W        W94196   0.963  28.044  13.913
21937W        W94197   2.686  16.152  13.770
21938W        W94198   5.188  38.850   4.290
21939W        W94199  39.363  12.316   2.309
21940W        W94200  18.648  18.047   4.008
21941W        W94201   5.323  15.063  12.668
21942W        W94202  36.614  34.011  12.139
21943W        W94203  23.386   6.034   4.223
21944W        W94204  22.502   0.824  10.301
21945W        W94205  33.903   6.932  14.555
21946W        W94206  30.569  17.083  10.341
21947W        W94207  23.645   3.644  14.782
21948W        W94208   5.749  33.952  12.927
21949W        W94209  24.666  13.348  12.366
21950W        W94210  29.049   9.662   3.401
21951W        W94211  21.187   7.149   1.455
21952W        W94212  35.421  43.008   3.774
21953W        W94213  21.750  42.962  12.695
21954W        W94214  30.372   4.354  13.371
21955W        W94215  23.030  17.199   3.184
21956W        W94216  42.116   3.153   4.536
21957W        W94217   5.486   5.767   1.836
21958W        W94218  35.169  32.048  13.877
21959W        W94219   2.838  12.374  14.255
21960W        W94220  28.665  22.107   4.226
21961W        W94221  28.629  24.738   4.306
21962W        W94222  36.112  11.677   1.610
21963W        W94223   4.372  39.097  14.477
21964W        W94224  39.977   0.013   1.167
21965W        W94225  40.082  14.783  11.547
21966W        W94226  18.290  26.186  11.738
21967W        W94227  34.108   5.743   1.276
21968W        W94228  29.674   3.431  13.953
21969W        W94229  35.373   1.181   2.215
21970W        W94230   3.873  17.456  13.841
21971W        W94231  30.297  11.365  14.971
21972W        W94232  12.860   8.730   3.762
21973W        W94233  12.929  13.654  11.955
21974W        W94234   2.758  22.441  13.382
21975W        W94235  14.782  35.505   4.138
21976W        W94236  13.141   4.879   2.438
21977W        W94237  44.194   4.115  10.738
21978W        W94238  18.807  20.052  11.995
21979W        W94239  30.988   0.794   2.958
21980W        W94240  41.771  16.541  12.854
21981W        W94241  25.501   4.967   0.863
21982W        W94242  24.056  43.189   4.976
21983W        W94243  17.273  31.394   0.882
21984W        W94244   9.759  22.120   4.591
21985W        W94245  40.850  32.415   4.686
21986W        W94246   9.000  17.975  10.389
21987W        W94247   7.600  41.516   4.280
21988W        W94248  40.580  11.658  12.101
21989W        W94249  40.478  35.401   3.334
21990W        W94250  13.647  35.562   3.263
21991W        W94251   1.338  13.836  11.626
21992W        W94252  40.014   1.823   2.291
21993W        W94253  21.745  21.113   4.652
21994W        W94254   1.906  30.756  11.066
21995W        W94255  14.068  29.054   1.001
21996W        W94256  27.047  10.277  10.407
21997W        W94257   2.011   1.669  13.785
21998W        W94258  18.188  23.661   4.394
21999W        W94259  34.333  12.893   3.192
22000W        W94260  23.544   8.265  12.386
22001W        W94261  38.013   3.914   2.868
22002W        W94262  36.031  13.731  11.198
22003W        W94263   7.760  18.592   1.928
22004W        W94264  31.535  41.651  11.013
22005W        W94265  34.159  22.019   2.682
22006W        W94266  13.901  26.801   1.222
22007W        W94267  40.900  39.573  12.082
22008W        W94268  13.210  34.406  11.894
22009W        W94269  10.312  21.878  12.222
22010W        W94270  23.233  21.485   9.707
22011W        W94271   4.720  27.296   5.011
22012W        W94272  31.121   0.416  11.673
22013W        W94273  20.091  44.786   4.335
22014W        W94274  41.784  39.925  14.889
22015W        W94275   4.894  25.173  10.120
22016W        W94276  37.137  37.085  13.526
22017W        W94277   3.386   0.382  11.233
22018W        W94278  13.844   2.556  12.456
22019W        W94279   7.930  41.090   3.574
22020W        W94280  25.215  15.130  14.263
22021W        W94281  27.959  34.411   2.689
22022W        W94282  15.537   4.412   0.836
22023W        W94283   6.596   8.839   3.260
22024W        W94284  30.410  32.501   3.338
22025W        W94285  17.202  11.719  12.336
22026W        W94286  21.154  29.582  12.655
22027W        W94287   6.151  35.430  12.594
22028W        W94288   0.927  44.454  14.495
22029W        W94289  43.728   3.884  14.323
22030W        W94290  12.633   7.404  12.505
22031W        W94291  35.042  37.561  12.885
22032W        W94292   4.520  21.354  13.864
22033W        W94293  16.926  31.244   0.113
22034W        W94294  27.005  24.336   0.904
22035W        W94295  43.748  31.061   0.788
22036W        W94296   7.936   8.891  12.599
22037W        W94297  14.843   1.427  11.154
22038W        W94298  11.408  30.922  13.969
22039W        W94299   7.421  42.487   2.553
22040W        W94300  11.626  24.177   0.918
22041W        W94301  23.962  32.602  11.898
22042W        W94302  42.071  22.212   4.605
22043W        W94303  16.333   0.271  12.039
22044W        W94304  18.977  21.341   4.879
22045W        W94305   8.172  20.228   4.410
22046W        W94306   2.778  41.917   3.707
22047W        W94307  13.306  33.173   3.223
22048W        W94308  41.989  32.655  11.506
22049W        W94309   2.984  44.879   1.874
22050W        W94310  26.626  38.999  11.638
22051W        W94311  15.528  22.831  13.815
22052W        W94312   8.902  30.688  12.426
22053W        W94313  42.237  30.328  14.353
22054W        W94314  23.387  20.193   4.576
22055W        W94315   5.676  44.863  14.906
22056W        W94316   3.420   5.717   1.485
22057W        W94317  41.500  20.277  13.476
22058W        W94318  36.631  41.560  12.494
22059W        W94319   0.107  28.148  13.369
22060W        W94320  12.156  15.869   3.696
22061W        W94321  31.277  38.003   3.819
22062W        W94322  38.550   1.025  12.433
22063W        W94323  41.420  32.487  12.633
22064W        W94324  11.574  17.792   1.153
22065W        W94325  32.124  37.606   1.875
22066W        W94326  19.678  39.314   3.856
22067W        W94327  13.644  32.539   4.146
22068W        W94328  40.873  29.191   2.803
22069W        W94329  26.507   3.935   3.143
22070W        W94330  39.466   3.308  14.840
22071W        W94331   9.617  43.767   4.061
22072W        W94332  15.769  27.575  13.949
22073W        W94333  24.793   7.551  11.610
22074W        W94334  12.732  43.339   3.198
22075W        W94335  34.378   9.780  12.104
22076W        W94336  21.797  34.574   1.889
22077W        W94337  24.705  24.706   0.310
22078W        W94338  28.671  12.236   1.260
22079W        W94339  19.603  26.716  13.415
22080W        W94340   2.463  42.077  13.819
22081W        W94341  43.115  39.349   4.236
22082W        W94342  38.570  12.622   0.772
22083W        W94343  30.952  38.070   4.816
22084W        W94344   0.742   0.221  13.905
22085W        W94345  31.632  15.836  11.101
22086W        W94346  12.326   1.794  13.435
22087W        W94347  11.388  33.583   4.238
22088W        W94348  37.809  22.536   2.782
22089W        W94349  42.348  42.859  13.819
22090W        W94350   3.258   3.826  13.013
22091W        W94351   9.122  14.260  14.115
22092W        W94352  18.128  24.133  12.478
22093W        W94353   5.952   7.201  14.509
22094W        W94354   5.744  17.882   3.844
22095W        W94355   6.047  15.758  11.350
22096W        W94356  13.751   3.698   3.684
22097W        W94357  16.861  20.304  10.673
22098W        W94358  23.675  33.880   0.216
22099W        W94359  37.586  26.001   3.674
22100W        W94360  44.447  38.524   4.086
22101W        W94361  27.508  29.778  14.504
22102W        W94362  22.232  39.056   2.409
22103W        W94363  18.206   3.159   0.810
22104W        W94364  20.258  34.836   1.512
22105W        W94365  26.406  18.580   0.578
22106W        W94366   8.164   3.175  14.808
22107W        W94367  34.611  38.607   0.386
22108W        W94368  34.635   8.865   4.566
22109W        W94369  16.040  36.869  12.288
22110W        W94370  34.123   2.221  12.504
22111W        W94371  17.760  14.305  13.592
22112W        W94372  22.682  17.490   4.181
22113W        W94373   8.802   6.551   1.548
22114W        W94374  29.818  37.722   9.867
22115W        W94375   7.815  14.218   4.071
22116W        W94376   3.715  41.419  10.980
22117W        W94377   8.687   6.453  12.898
22118W        W94378  18.501  13.470   2.916
22119W        W94379  39.039  16.016   0.593
22120W        W94380  38.602   1.861   2.721
22121W        W94381  19.644   3.624  12.655
22122W        W94382   2.464  40.724  13.563
22123W        W94383  21.453  27.717   2.691
22124W        W94384  15.364  43.842   0.122
22125W        W94385  26.173   8.940  11.339
22126W        W94386  33.908   2.373   0.994
22127W        W94387  37.029   1.379   4.545
22128W        W94388  35.099  29.370   3.811
22129W        W94389  41.108  44.370   2.849
22130W        W94390  37.813   5.812   0.026
22131W        W94391   0.277  10.227  11.382
22132W        W94392  12.711  30.721  14.812
22133W        W94393  20.079  40.978  10.698
22134W        W94394  16.986  24.946   0.353
22135W        W94395  26.291   5.797   3.214
22136W        W94396  41.746  29.366  12.868
22137W        W94397  19.262  14.878  11.596
22138W        W94398   6.288  37.835  14.019
22139W        W94399  10.290  41.940   2.264
22140W        W94400  18.563  22.521   3.269
22141W        W94401  17.421  32.944  13.444
22142W        W94402  43.226  18.919   4.036
22143W        W94403  41.336  35.274   3.457
22144W        W94404   9.377  15.218  11.184
22145W        W94405   9.111  29.542   1.416
22146W        W94406  31.150  40.060   4.418
22147W        W94407  17.720  32.957  11.868
22148W        W94408  13.458  22.565   2.341
22149W        W94409   7.788  43.627  13.978
22150W        W94410   6.464  35.387  11.690
22151W        W94411  42.351  13.215  13.921
22152W        W94412  41.369  18.140   2.620
22153W        W94413  42.984  36.917   3.082
22154W        W94414  33.321  23.425   2.794
22155W        W94415  31.206  37.356  13.614
22156W        W94416  30.001  23.053   0.493
22157W        W94417  30.438  35.730   3.594
22158W        W94418  16.612  42.375   2.647
22159W        W94419  31.547  22.776   2.839
22160W        W94420   4.366  11.746   4.139
22161W        W94421  16.572   9.354  13.857
22162W        W94422  10.095  20.640  13.080
22163W        W94423   7.867   3.821   4.576
22164W        W94424  27.127  20.087  13.221
22165W        W94425  22.735   2.413  13.387
22166W        W94426   7.152  19.248   4.527
22167W        W94427   6.843  31.022   0.977
22168W        W94428  29.917   0.828  11.951
22169W        W94429   5.839  11.107   3.161
22170W        W94430  15.882   1.521  12.394
22171W        W94431  30.421  38.823   3.097
22172W        W94432   7.598  30.860   0.344
22173W        W94433  32.381   0.656   1.203
22174W        W94434   5.191  34.333   0.376
22175W        W94435   4.954   2.299   3.675
22176W        W94436  12.348  42.879   3.153
22177W        W94437  20.634  23.934   0.310
22178W        W94438  15.770  24.686   1.233
22179W        W94439  15.111  33.545  10.960
22180W        W94440  31.658  41.911   4.201
22181W        W94441  14.123   1.731   1.780
22182W        W94442   7.852   3.481  11.745
22183W        W94443  12.982  43.731  11.215
22184W        W94444  18.566  30.964  11.404
22185W        W94445  10.404  36.037   0.794
22186W        W94446  41.907  34.613  11.571
22187W        W94447   8.382  22.525  14.385
22188W        W94448   8.228  25.466  10.540
22189W        W94449  34.369   7.939   1.991
22190W        W94450   5.810  31.185   1.335
22191W        W94451  11.211  22.817   0.916
22192W        W94452  42.560  37.610   3.363
22193W        W94453  44.456   9.282   3.082
22194W        W94454  42.061  24.949   1.741
22195W        W94455  23.676   9.749   4.635
22196W        W94456   7.064   9.338  11.567
22197W        W94457  21.283   2.209  12.908
22198W        W94458  33.449   8.492   5.223
22199W        W94459  15.805  16.385  12.343
22200W        W94460  29.896   6.374  10.752
22201W        W94461  40.852  26.663   2.122
22202W        W94462  15.844  44.808   0.807
22203W        W94463   9.701  28.506   4.192
22204W        W94464   9.242   3.446  11.241
22205W        W94465  15.599  44.873  14.330
22206W        W94466  31.372  27.390   1.727
22207W        W94467   5.930  38.328  12.495
22208W        W94468  38.879  11.099   1.381
22209W        W94469  21.797   3.436  13.437
22210W        W94470  18.615   9.346  14.968
22211W        W94471  28.842  24.655  12.622
22212W        W94472  24.677   4.142   0.554
22213W        W94473  28.738  16.786   0.810
22214W        W94474  41.765  34.084   1.736
22215W        W94475  40.923  10.094  11.478
22216W        W94476  20.620   9.433  11.893
22217W        W94477   2.385  27.735   2.708
22218W        W94478  37.751   9.185  10.224
22219W        W94479  40.922  29.086   2.298
22220W        W94480  16.643  35.356   2.282
22221W        W94481  35.812  14.872   2.349
22222W        W94482  30.856  17.851  12.901
22223W        W94483  35.632  25.205   1.087
22224W        W94484  25.985  34.590  11.225
22225W        W94485  18.564  30.752  12.890
22226W        W94486  19.745   7.680  11.075
22227W        W94487   7.236  27.875   0.401
22228W        W94488  33.161  13.723   3.711
22229W        W94489  38.336  41.315  13.396
22230W        W94490  43.986  36.118   0.256
22231W        W94491  43.029  19.871   4.103
22232W        W94492  18.631  25.498   3.230
22233W        W94493   4.380  33.466  13.023
22234W        W94494   7.535   2.921   2.199
22235W        W94495  37.900  17.665  13.964
22236W        W94496  37.593  40.654  13.413
22237W        W94497  23.166   0.891  10.757
22238W        W94498  26.449  37.044   2.282
22239W        W94499  44.523  31.105   1.436
22240W        W94500  25.508  31.488   2.609
22241W        W94501   9.971  27.042   2.446
22242W        W94502  30.373  36.432  11.989
22243W        W94503  35.929  43.402  13.121
22244W        W94504  25.090   4.242   3.183
22245W        W94505  10.424  18.229   4.178
22246W        W94506  15.317   3.603  13.470
22247W        W94507  22.750  12.814   2.246
22248W        W94508  31.276  39.283  14.804
22249W        W94509  34.914  40.875   3.216
22250W        W94510   2.043  28.424   3.245
22251W        W94511  25.039   1.446  14.686
22252W        W94512  10.066   1.355   0.864
22253W        W94513  34.719  15.058  14.364
22254W        W94514  41.812  17.290   0.975
22255W        W94515   3.979  18.770  10.858
22256W        W94516  21.583   9.219   2.704
22257W        W94517  44.349  41.795   1.402
22258W        W94518  37.572  42.315   2.209
22259W        W94519  20.261  32.553  12.240
22260W        W94520  19.945  20.345   1.816
22261W        W94521  12.541  28.579   1.815
22262W        W94522  44.329   2.105  12.833
22263W        W94523   6.160  44.197  11.315
22264W        W94524   2.004  43.779  13.872
22265W        W94525  30.619   8.683  10.727
22266W        W94526  14.110  10.430   5.213
22267W        W94527  42.047  19.680   0.389
22268W        W94528  27.478  11.593   0.141
22269W        W94529  35.579  21.035   1.182
22270W        W94530  42.520  12.394   3.610
22271W        W94531   3.138   7.722   2.310
22272W        W94532  21.743  12.177   3.584
22273W        W94533   5.752  10.659   3.383
22274W        W94534  22.913  40.612   2.259
22275W        W94535  15.826  11.891   4.089
22276W        W94536   6.484  25.788  10.223
22277W        W94537   2.371  28.105  12.573
22278W        W94538  12.102  30.398  12.592
22279W        W94539  13.988  23.630   1.198
22280W        W94540  41.146  39.263   4.184
22281W        W94541  31.800   0.986   1.844
22282W        W94542  36.616  43.935   1.155
22283W        W94543   5.814  41.449  12.940
22284W        W94544  10.492  29.565  14.786
22285W        W94545  19.895  31.682   3.649
22286W        W94546   1.085  20.256   3.704
22287W        W94547   2.315   0.683  11.168
22288W        W94548  30.732  24.637  12.705
22289W        W94549  23.644   1.789   1.557
22290W        W94550   3.221  33.839  12.456
22291W        W94551   4.848  43.854   3.829
22292W        W94552  16.800  14.903   4.114
22293W        W94553  30.836  25.896  13.084
22294W        W94554  13.753  34.676  13.130
22295W        W94555  20.440   3.354   4.562
22296W        W94556   6.787  36.518   3.215
22297W        W94557  18.738  27.658  13.500
22298W        W94558  14.617  17.842  11.182
22299W        W94559  27.358  35.121  12.151
22300W        W94560  15.060  43.659   1.278
22301W        W94561  28.036   0.066   2.739
22302W        W94562  37.568  17.358   3.925
22303W        W94563  28.255  11.062  12.568
22304W        W94564  35.964  43.270  12.614
22305W        W94565  40.027  10.374  13.374
22306W        W94566   3.253   5.466  14.907
22307W        W94567  39.758  28.503  13.315
22308W        W94568  32.258  38.529  12.989
22309W        W94569  31.560   8.180  13.992
22310W        W94570  38.620  30.953  12.557
22311W        W94571  35.699   2.453   1.893
22312W        W94572  28.877  36.561   2.720
22313W        W94573  28.402  33.642  13.434
22314W        W94574  11.908  38.451  10.274
22315W        W94575  34.951  30.357   0.500
22316W        W94576   0.840  24.993   1.179
22317W        W94577   4.714  21.725  13.258
22318W        W94578  11.764  19.649   3.805
22319W        W94579  17.786  22.896  10.596
22320W        W94580   4.839   0.891  11.937
22321W        W94581  34.041  38.339   4.401
22322W        W94582  20.185   2.223   4.745
22323W        W94583   2.570  19.758   2.355
22324W        W94584  31.165  25.121  10.069
22325W        W94585   6.815  31.146  13.807
22326W        W94586  13.749   3.528   4.543
22327W        W94587   0.980  35.593   2.331
22328W        W94588  14.130  13.379  12.786
22329W        W94589  44.306   7.413  14.887
22330W        W94590  33.724   8.683  10.693
22331W        W94591  20.843   4.258  11.190
22332W        W94592  36.573  44.024  14.363
22333W        W94593  23.365  23.136   4.769
22334W        W94594   5.952  25.110   3.717
22335W        W94595   1.718  42.428   4.266
22336W        W94596  33.489  14.394   3.150
22337W        W94597  22.117   0.461   4.866
22338W        W94598  31.137  25.097  14.825
22339W        W94599  34.865  33.934  12.635
22340W        W94600   8.611   2.817  13.309
22341W        W94601  12.067   6.909  14.035
22342W        W94602  32.553  16.551  13.126
22343W        W94603  24.097  15.563   0.454
22344W        W94604  11.322   2.271   1.220
22345W        W94605  13.065   3.586  13.068
22346W        W94606  15.667  18.002  13.386
22347W        W94607  28.013  10.255   2.782
22348W        W94608   8.304  15.852  12.090
22349W        W94609   0.457  40.237   3.736
22350W        W94610  17.132  42.539   4.579
22351W        W94611   7.855  30.624   2.367
22352W        W94612   5.036   9.894  10.097
22353W        W94613  32.038  43.673   4.289
22354W        W94614   1.129   2.908   2.248
22355W        W94615  12.037   0.275  13.962
22356W        W94616  24.119  18.558  13.553
22357W        W94617   9.827   7.747   0.324
22358W        W94618  10.701  27.953   2.620
22359W        W94619  39.418  36.346  11.725
22360W        W94620  15.495  30.573  12.337
22361W        W94621  29.495  20.631   3.559
22362W        W94622  10.813   3.478   1.176
22363W        W94623  22.157  11.907   0.036
22364W        W94624  36.603  36.594   2.443
22365W        W94625  27.225   1.576   3.804
22366W        W94626  21.617  39.438  11.394
22367W        W94627  32.332  42.058   4.674
22368W        W94628  22.483  38.610  12.213
22369W        W94629  20.262  29.069   1.163
22370W        W94630  32.982  25.034   4.548
22371W        W94631  38.258  37.343   4.045
22372W        W94632  26.454  19.261  11.918
22373W        W94633  26.513   7.961  13.556
22374W        W94634  26.667  16.910   0.043
22375W        W94635   3.010  40.248  11.530
22376W        W94636  38.065  31.349  12.505
22377W        W94637  40.750  13.730   4.292
22378W        W94638   7.782  15.049  13.529
22379W        W94639  35.993   8.198   3.140
22380W        W94640  40.085  15.741   0.795
22381W        W94641  31.695  22.552   4.212
22382W        W94642  38.432   2.136  13.850
22383W        W94643  27.633  21.572   3.673
22384W        W94644  22.630  34.011  14.429
22385W        W94645  41.323   1.751  12.932
22386W        W94646  17.277  13.572   4.294
22387W        W94647  18.861  27.056  13.038
22388W        W94648  11.814  19.261  13.862
22389W        W94649  29.451  22.203  14.719
22390W        W94650  40.991  39.605  13.905
22391W        W94651  15.369   0.423  13.803
22392W        W94652   4.352  21.749  11.323
22393W        W94653  34.515  13.789   4.555
22394W        W94654  25.685  35.387  10.652
22395W        W94655  42.842  33.654   0.277
22396W        W94656   1.888  11.113   4.419
22397W        W94657  30.914   4.893   2.306
22398W        W94658  30.619  24.065   2.945
22399W        W94659  34.025   4.412   1.786
22400W        W94660  15.087  14.126   0.561
22401W        W94661  10.389   0.863  11.585
22402W        W94662  30.889  34.857  11.148
22403W        W94663  15.764  36.748   3.258
22404W        W94664  35.382  21.126  13.467
22405W        W94665  29.210  16.248   4.036
22406W        W94666  35.126   4.995   2.791
22407W        W94667   4.349  24.220   3.709
22408W        W94668  16.825  11.702   0.866
22409W        W94669  31.549  12.195   3.606
22410W        W94670   0.201  38.760   0.815
22411W        W94671  30.333   9.728   1.272
22412W        W94672  29.540   9.674   3.674
22413W        W94673  20.293   6.725   3.606
22414W        W94674  35.524   2.451  13.955
22415W        W94675  15.928  22.510   2.650
22416W        W94676  42.980  27.493   1.692
22417W        W94677  15.725  42.390  14.754
22418W        W94678   3.785  29.619  12.283
22419W        W94679   7.867  40.892  13.465
22420W        W94680  14.598  39.801  11.154
22421W        W94681  28.060   9.188  14.903
22422W        W94682   9.105  44.343  12.568
22423W        W94683  20.511  31.579  14.137
22424W        W94684   5.157  32.989  12.874
22425W        W94685  41.615  26.067   4.839
22426W        W94686  21.574  14.064   5.204
22427W        W94687  30.218  11.435   3.010
22428W        W94688  31.108  33.889  10.804
22429W        W94689  15.060  40.527   3.632
22430W        W94690  22.690   0.427  14.739
22431W        W94691  10.681  20.070  12.935
22432W        W94692  28.350  31.695   4.910
22433W        W94693  36.023  31.026  14.847
22434W        W94694  30.598  34.756   3.333
22435W        W94695  33.020   7.551   1.638
22436W        W94696  33.458  15.113   4.343
22437W        W94697  24.884  30.893  11.212
22438W        W94698  20.111  21.556   2.645
22439W        W94699  42.481  41.330   1.421
22440W        W94700  44.603  25.300   3.155
22441W        W94701   4.799  37.955   0.767
22442W        W94702  24.699  16.027   2.001
22443W        W94703  19.773   4.443  12.148
22444W        W94704  39.403   8.904   3.275
22445W        W94705   0.412  26.080   0.686
22446W        W94706   6.206   4.973   3.747
22447W        W94707   7.201  17.621   2.821
22448W        W94708  37.061  25.446  14.339
22449W        W94709  21.801  13.323  12.640
22450W        W94710  29.931  16.940  11.131
22451W        W94711  26.843   1.662   1.907
22452W        W94712  19.976  25.815  13.829
22453W        W94713  18.835  28.529  14.820
22454W        W94714  41.228   8.180  13.854
22455W        W94715   5.459  42.938  14.000
22456W        W94716   7.777  36.869  13.280
22457W        W94717   8.671  24.176   4.295
22458W        W94718   9.841  39.582  10.370
22459W        W94719  24.511   0.907   1.343
22460W        W94720  24.998  17.138  11.232
22461W        W94721  41.354  40.941  12.555
22462W        W94722   3.610   1.710   1.918
22463W        W94723  31.423  30.399  11.455
22464W        W94724  13.807  23.081   3.126
22465W        W94725  21.983  42.316  14.866
22466W        W94726  42.575   8.504  11.960
22467W        W94727  24.913   8.297  14.499
22468W        W94728  39.256   9.379   1.758
22469W        W94729   5.792  21.926   2.938
22470W        W94730   3.030  22.588  14.431
22471W        W94731  35.510  26.798   2.707
22472W        W94732   4.239   9.382   0.394
22473W        W94733  32.791  20.381  11.251
22474W        W94734  39.662  34.113   2.856
22475W        W94735   3.292  36.723   1.736
22476W        W94736  41.609  19.558  11.752
22477W        W94737   5.649   2.404  12.550
22478W        W94738  16.788  16.680  11.972
22479W        W94739  37.536  18.001  14.131
22480W        W94740  12.141   3.631   2.706
22481W        W94741  41.402  13.212   0.077
22482W        W94742  11.145   1.476  13.868
22483W        W94743  21.113  13.266  12.807
22484W        W94744  20.176  28.916  13.803
22485W        W94745   7.398  37.744   4.107
22486W        W94746  37.375  34.065  10.740
22487W        W94747   8.488  42.981   2.474
22488W        W94748  44.893  17.297  11.031
22489W        W94749   0.800  34.573   1.888
22490W        W94750  44.485  23.998  12.754
22491W        W94751  38.916  35.397  11.103
22492W        W94752  35.672  30.359  12.095
22493W        W94753   4.526   0.369   3.032
22494W        W94754  11.086  26.055  12.892
22495W        W94755  25.531   5.587  11.116
22496W        W94756  22.536  43.531  12.814
22497W        W94757  42.979  22.705   1.785
22498W        W94758  19.533  25.563   3.631
22499W        W94759   6.116  39.921   0.523
22500W        W94760  15.920  39.918  14.724
22501W        W94761  44.272  32.987   0.819
22502W        W94762  39.402  16.505   3.791
22503W        W94763   2.991  37.483   2.118
22504W        W94764  24.023  34.747  12.892
22505W        W94765   9.633  40.117   3.612
22506W        W94766  44.057  15.822  11.156
22507W        W94767  33.720  18.586   2.207
22508W        W94768   2.511  33.250   1.602
22509W        W94769  22.899   0.043   2.667
22510W        W94770  30.429   4.185  12.483
22511W        W94771  18.235  33.342   1.441
22512W        W94772  36.829  35.993   3.443
22513W        W94773  11.667   6.188  12.427
22514W        W94774   6.680  21.965  10.939
22515W        W94775  43.521  22.512   0.954
22516W        W94776  44.533  29.986  10.995
22517W        W94777  37.847  10.310   1.781
22518W        W94778  37.862  36.855   1.384
22519W        W94779  10.282  35.908   2.763
22520W        W94780  35.063  18.161  11.254
22521W        W94781  24.805  11.758   4.281
22522W        W94782  16.033  18.101  11.484
22523W        W94783  44.885  40.473  10.469
22524W        W94784  23.895  27.514   0.838
22525W        W94785  37.078  43.081   0.834
22526W        W94786  28.016  25.691  13.974
22527W        W94787  43.065  39.425  10.764
22528W        W94788  10.585  29.180  12.113
22529W        W94789   3.842   1.153  14.492
22530W        W94790  26.579  10.292  10.677
22531W        W94791  34.794   9.211  13.302
22532W        W94792  29.661  12.445  13.067
22533W        W94793   5.575   7.362  13.385
22534W        W94794  40.695  16.306  12.448
22535W        W94795  13.191  10.495   2.284
22536W        W94796   5.661  23.713   0.405
22537W        W94797  33.119  13.677   2.133
22538W        W94798  10.731  27.220   0.819
22539W        W94799  17.118  39.134  13.453
22540W        W94800  23.277  21.470   4.237
22541W        W94801  12.392  19.015  14.910
22542W        W94802   8.706  10.893  14.905
22543W        W94803  12.408   2.809  11.051
22544W        W94804  31.989  23.049  14.293
22545W        W94805  37.471  27.627   2.946
22546W        W94806  44.111  39.629  13.119
22547W        W94807  40.251  19.368   3.693
22548W        W94808  42.912  31.374   4.588
22549W        W94809  13.792  37.437  11.952
22550W        W94810  12.120  28.905  11.398
22551W        W94811  35.860   3.348   0.844
22552W        W94812  42.810  33.918   4.087
22553W        W94813  18.513  20.513  12.035
22554W        W94814  21.727  44.387   1.764
22555W        W94815   0.794   4.593   1.843
22556W        W94816  10.674  15.535  14.416
22557W        W94817  16.269  16.660  11.694
22558W        W94818   4.827  33.998   3.702
22559W        W94819  18.141  19.282  13.872
22560W        W94820  31.203  36.173  11.088
22561W        W94821  44.984  12.197  12.424
22562W        W94822   5.789  25.736  12.231
22563W        W94823  27.737   4.591   4.120
22564W        W94824  22.285  34.488  14.482
22565W        W94825  43.687  30.509  12.819
22566W        W94826   2.384   5.782  12.895
22567W        W94827  12.803  25.383  11.005
22568W        W94828  30.320  15.082   1.832
22569W        W94829  38.093  25.478   4.274
22570W        W94830  26.525  42.928   3.513
22571W        W94831   3.840   7.774  14.288
22572W        W94832  11.623  14.084  10.768
22573W        W94833  13.697   1.358   3.185
22574W        W94834  38.022  22.187   3.654
22575W        W94835  43.577  11.115  11.623
22576W        W94836  33.081  14.654   4.189
22577W        W94837  34.493  10.658  10.752
22578W        W94838  22.068  14.286  12.846
22579W        W94839   9.190  43.942   3.839
22580W        W94840  36.949  22.264  10.548
22581W        W94841  10.900  16.620  11.611
22582W        W94842  42.682   8.177   4.611
22583W        W94843  30.977   7.964   1.854
22584W        W94844  17.109   7.292   3.664
22585W        W94845  12.006   1.960  13.827
22586W        W94846  38.571  34.047  12.720
22587W        W94847  29.465  32.172   4.265
22588W        W94848  28.816   3.422   4.095
22589W        W94849  12.646  41.557   2.145
22590W        W94850   9.160  33.341  14.292
22591W        W94851  22.895  14.693  14.688
22592W        W94852  14.278  20.321   3.340
22593W        W94853  26.458  32.232   4.934
22594W        W94854   0.830  30.529  10.759
22595W        W94855  36.377  31.617  13.467
22596W        W94856  27.550  13.732   4.349
22597W        W94857  29.942  41.398  10.730
22598W        W94858  23.723  19.178  10.765
22599W        W94859  23.734  32.995   1.933
22600W        W94860  17.721  32.101  10.449
22601W        W94861  42.467   6.366  12.896
22602W        W94862   8.622  38.642   1.001
22603W        W94863  27.710  38.004  13.482
22604W        W94864  26.443  20.728  14.036
22605W        W94865  23.613  12.724   2.225
22606W        W94866  11.503  20.578  14.361
22607W        W94867  15.144   5.936  13.239
22608W        W94868   7.898  30.569  14.799
22609W        W94869  22.472  42.351   0.951
22610W        W94870   6.449  14.346   4.030
22611W        W94871  35.636  25.183   3.749
22612W        W94872  17.663   3.257  10.576
22613W        W94873  41.870  23.956   4.101
22614W        W94874  20.806  20.146  10.623
22615W        W94875  40.758   8.255   4.564
22616W        W94876  26.919  38.309   3.696
22617W        W94877   3.865  20.779  10.666
22618W        W94878   2.010  34.849  14.542
22619W        W94879  15.480  21.662   1.403
22620W        W94880  38.929  32.025   0.835
22621W        W94881  14.307  27.132   1.281
22622W        W94882  39.818  25.420   1.843
22623W        W94883  39.444  26.482  10.486
22624W        W94884  31.481   1.442   4.224
22625W        W94885  44.143  22.065  13.948
22626W        W94886  34.034  20.137  11.931
22627W        W94887  31.391  13.207   0.850
22628W        W94888  34.473   6.945  12.806
22629W        W94889   5.208  39.606   2.695
22630W        W94890  14.571  37.793  12.149
22631W        W94891   3.337  37.047   0.348
22632W        W94892  31.080  15.015   0.857
22633W        W94893   4.443  21.156  13.354
22634W        W94894  29.504  44.276   1.895
22635W        W94895  24.686  11.951  13.166
22636W        W94896  26.102  30.457   1.737
22637W        W94897  41.009   3.347   3.657
22638W        W94898  40.931   9.493   4.071
22639W        W94899  34.132  31.927  11.938
22640W        W94900  13.125  44.094   4.608
22641W        W94901  39.127  12.916  14.987
22642W        W94902  33.705  24.552  10.720
22643W        W94903   3.333  19.157  14.360
22644W        W94904  40.981  32.429   0.538
22645W        W94905   1.675  44.277  11.976
22646W        W94906  39.338  44.815   1.307
22647W        W94907  18.158  42.345   1.708
22648W        W94908   7.672   7.777   1.891
22649W        W94909  40.470  29.005  13.278
22650W        W94910  23.023   1.142  13.486
22651W        W94911   5.264  34.859   2.369
22652W        W94912  25.146  16.636  12.958
22653W        W94913  22.507  34.941   2.722
22654W        W94914  22.546  29.449  14.711
22655W        W94915   9.389  31.426   0.636
22656W        W94916  23.283  28.177   3.290
22657W        W94917  25.423  31.659  14.786
22658W        W94918   9.116   2.821   3.598
22659W        W94919   5.820  24.153  13.787
22660W        W94920  18.748  18.562  12.305
22661W        W94921  12.120  12.320  11.104
22662W        W94922  17.164  33.711  11.525
22663W        W94923  25.782  13.237   3.271
22664W        W94924  32.642  19.794   3.409
22665W        W94925  15.038  26.456  13.933
22666W        W94926   8.146  34.403   3.289
22667W        W94927  12.265  25.145  11.544
22668W        W94928  14.516   1.978  12.623
22669W        W94929  15.819  32.870  12.122
22670W        W94930   6.092  36.981   4.107
22671W        W94931  35.087  20.798  11.060
22672W        W94932  42.060   7.227  13.854
22673W        W94933  14.100  36.447   1.350
22674W        W94934  40.901  10.769   4.383
22675W        W94935  35.728   4.747  12.793
22676W        W94936  28.730  41.495   2.214
22677W        W94937  23.965   1.437   1.328
22678W        W94938  23.920  32.098  11.110
22679W        W94939  22.093  28.698  12.728
22680W        W94940  15.560  43.806   1.345
22681W        W94941   4.243  31.874  14.985
22682W        W94942  23.204  30.385  14.336
22683W        W94943   6.906  31.681  13.693
22684W        W94944   5.701  39.115   0.039
22685W        W94945   5.944  31.105  10.242
22686W        W94946   8.590  25.525   1.407
22687W        W94947   0.924   0.345  11.657
22688W        W94948   4.198   4.759   1.326
22689W        W94949  28.852  33.061   3.696
22690W        W94950  11.664  12.070   3.701
22691W        W94951  21.025  20.575  12.325
22692W        W94952  27.410   0.436   0.001
22693W        W94953  22.077  38.211   4.088
22694W        W94954  35.513  29.610  13.841
22695W        W94955  21.711  38.558  13.051
22696W        W94956  21.123   3.040  10.756
22697W        W94957  28.212  13.210   2.772
22698W        W94958  26.350  25.179   2.267
22699W        W94959  24.287  29.809  13.619
22700W        W94960  28.765  18.692   1.789
22701W        W94961  20.656  22.752   3.178
22702W        W94962  12.994  32.055  13.736
22703W        W94963  34.507  25.944   1.444
22704W        W94964   6.232  23.787   4.014
22705W        W94965  33.830  43.011   0.390
22706W        W94966  13.727  34.155  13.122
22707W        W94967  23.598  37.974   4.231
22708W        W94968   9.320  31.590   1.148
22709W        W94969  28.451  20.035   1.300
22710W        W94970  35.065  28.411   1.302
22711W        W94971  40.983  20.061   0.929
22712W        W94972  44.918   4.201   4.702
22713W        W94973  44.987  13.345  13.437
22714W        W94974   8.845  29.410   2.431
22715W        W94975   8.872  33.605   1.769
22716W        W94976  11.721  10.360  13.553
22717W        W94977  18.094  20.679  11.108
22718W        W94978  16.199  12.277   3.808
22719W        W94979  13.710  16.012   2.340
22720W        W94980   8.785  39.125   4.946
22721W        W94981  34.508  32.516  11.595
22722W        W94982  15.164   8.105   1.246
22723W        W94983  18.693  39.181   0.753
22724W        W94984  26.230  10.528   0.835
22725W        W94985  31.034  19.962   1.657
22726W        W94986  39.293   9.890  12.782
22727W        W94987  42.006  17.029   3.964
22728W        W94988   0.478  22.216  11.433
22729W        W94989  28.914   9.371  13.810
22730W        W94990  43.003  41.930  14.927
22731W        W94991   0.548  30.688  12.511
22732W        W94992  21.647   4.295   4.479
22733W        W94993  28.096  34.930  11.084
22734W        W94994  17.122  20.543  13.212
22735W        W94995  25.968  27.637   3.926
22736W        W94996  19.924   2.531   0.728
22737W        W94997  25.244   9.261   1.839
22738W        W94998  33.511  40.500  11.582
22739W        W94999   7.293   8.211   0.946
22740W        W95000  11.412  43.344  11.164
22741W        W95001  23.427   8.664  11.957
22742W        W95002  24.751   5.649   1.462
22743W        W95003  25.415  35.912   0.799
22744W        W95004  40.989   5.503   3.279
22745W        W95005  22.232  41.988  11.997
22746W        W95006  20.540  38.418  14.964
22747W        W95007  34.328  10.227   4.782
22748W        W95008  22.625   9.757   1.184
22749W        W95009  35.451   6.222   1.156
22750W        W95010  28.366  15.940  13.488
22751W        W95011  37.151  34.785   3.657
22752W        W95012  36.920  20.482  13.088
22753W        W95013   0.872  25.614  14.397
22754W        W95014  17.343  11.840   4.535
22755W        W95015  17.607  18.711   2.932
22756W        W95016   5.808  43.254   0.187
22757W        W95017   9.273   3.870  10.952
22758W        W95018  25.436  26.163  12.287
22759W        W95019  26.475  11.602   1.439
22760W        W95020   2.985  23.706   2.708
22761W        W95021   8.467   1.122  13.879
22762W        W95022  15.628  31.384  11.131
22763W        W95023  34.626  41.820  14.763
22764W        W95024  40.311  40.486   0.397
22765W        W95025   6.256  18.981   1.289
22766W        W95026  39.963  26.571  10.535
22767W        W95027  22.152   9.959   1.257
22768W        W95028  32.488  25.483  14.955
22769W        W95029  43.331  41.384   4.088
22770W        W95030  22.728  41.292   0.391
22771W        W95031  20.726  27.046   2.678
22772W        W95032   2.458  33.902   4.181
22773W        W95033   1.283  35.524   3.181
22774W        W95034   6.915  29.641  14.966
22775W        W95035  43.419  23.424   3.616
22776W        W95036  23.232  36.217  13.372
22777W        W95037  32.083  37.542   3.622
22778W        W95038  18.215  42.537   2.206
22779W        W95039   3.875  14.780  10.550
22780W        W95040   4.816  29.987  10.665
22781W        W95041  35.568  13.828   4.373
22782W        W95042  31.689  23.265   0.880
22783W        W95043  12.821  27.850   2.154
22784W        W95044  34.856  27.086   4.231
22785W        W95045  36.591  24.583  14.479
22786W        W95046  27.982  24.556   4.413
22787W        W95047   5.165  36.969  10.607
22788W        W95048  40.987  31.094   1.887
22789W        W95049  35.415   8.778   0.614
22790W        W95050  37.536   8.367   0.731
22791W        W95051   6.723  30.689  11.976
22792W        W95052  18.613  25.243   1.823
22793W        W95053   4.349  31.508   1.722
22794W        W95054  36.548   1.269  13.657
22795W        W95055  35.348  22.264   3.837
22796W        W95056  31.425  32.447   9.803
22797W        W95057  39.827  20.679  11.650
22798W        W95058  37.935  41.037  14.317
22799W        W95059  20.464  17.555  13.216
22800W        W95060   7.591  26.335   0.096
22801W        W95061  10.086   2.807   2.038
22802W        W95062  29.048  19.757   2.709
22803W        W95063   2.394  28.332   4.698
22804W        W95064   9.590  27.103   0.459
22805W        W95065  39.109  29.192   0.986
22806W        W95066  32.550   2.296   3.328
22807W        W95067  25.280   6.860   0.503
22808W        W95068  18.560   7.893   0.921
22809W        W95069  37.630  44.406   3.584
22810W        W95070  25.973   0.581  12.964
22811W        W95071  26.692  25.877   3.432
22812W        W95072  20.506   9.785   4.597
22813W        W95073  20.638  29.963  13.536
22814W        W95074  32.960   5.371  11.586
22815W        W95075  38.802  25.027  13.423
22816W        W95076  25.546  27.099   0.515
22817W        W95077  17.698  17.284   4.440
22818W        W95078  41.861  12.882  12.011
22819W        W95079  33.754  21.507   5.647
22820W        W95080   5.013  28.129   2.280
22821W        W95081  10.314  38.108   4.780
22822W        W95082  44.599  11.291   0.453
22823W        W95083  35.286  34.653   3.641
22824W        W95084   3.849  33.614   4.864
22825W        W95085  25.628  22.381  12.570
22826W        W95086  39.421  18.110   1.768
22827W        W95087  22.387  28.558  10.568
22828W        W95088  17.277   9.908  13.540
22829W        W95089  13.993  26.302   1.006
22830W        W95090  42.211  30.559   0.325
22831W        W95091  18.795  19.498   0.931
22832W        W95092  11.430  29.453   0.034
22833W        W95093  16.563  35.621   2.721
22834W        W95094  17.782   6.366   2.226
22835W        W95095  19.271  22.154  14.429
22836W        W95096  37.907  32.798   0.996
22837W        W95097  17.354  34.546  12.295
22838W        W95098  43.781  44.396   2.263
22839W        W95099  19.982  42.010  14.223
22840W        W95100  43.959   8.009  10.706
22841W        W95101  19.755  26.086  13.385
22842W        W95102  30.825  23.196   1.361
22843W        W95103  24.068  27.507   9.802
22844W        W95104  44.967  29.488  11.888
22845W        W95105  18.966  12.694  11.106
22846W        W95106  28.903   8.455  12.393
22847W        W95107   1.574  40.477   3.335
22848W        W95108  34.894  23.750  14.813
22849W        W95109  22.042  19.818   2.722
22850W        W95110  30.576  43.141   5.197
22851W        W95111  37.929  40.430   2.867
22852W        W95112  12.581  41.413   1.435
22853W        W95113  43.881   2.507   2.638
22854W        W95114  10.593  21.713  14.025
22855W        W95115  19.449  14.698  12.445
22856W        W95116  11.703   3.208  11.932
22857W        W95117   9.192  18.960   1.489
22858W        W95118   3.805  40.393  12.306
22859W        W95119  38.438  20.317  11.747
22860W        W95120   3.029  42.849   4.162
22861W        W95121  13.029  33.366  13.439
22862W        W95122  23.767  21.693   4.346
22863W        W95123   1.453  23.156  12.088
22864W        W95124  18.834   2.569  12.354
22865W        W95125  23.143  18.315   3.889
22866W        W95126   7.882   6.459   2.925
22867W        W95127  41.919  38.559  14.213
22868W        W95128  11.886  36.030  12.459
22869W        W95129  32.023  22.828  14.764
22870W        W95130  10.337  20.926  11.523
22871W        W95131  25.950  23.689  10.446
22872W        W95132  33.534  37.955   4.521
22873W        W95133  25.123  42.276  10.220
22874W        W95134   5.722  30.546   2.808
22875W        W95135  23.243  38.601   0.891
22876W        W95136  21.976  25.562   2.262
22877W        W95137  27.812  14.785  10.517
22878W        W95138  18.552  11.322  12.520
22879W        W95139   9.349  23.680   4.498
22880W        W95140   4.187   2.587  12.024
22881W        W95141  11.176  28.003  13.537
22882W        W95142  21.728  17.668   2.250
22883W        W95143  11.195   9.183   4.155
22884W        W95144   5.760  22.711  13.837
22885W        W95145  32.023  24.743  10.672
22886W        W95146  41.312   9.639   3.687
22887W        W95147  10.578  23.152   2.425
22888W        W95148   0.463  12.661   0.975
22889W        W95149  35.433  32.321  10.423
22890W        W95150  21.954  35.544   2.760
22891W        W95151  10.854   0.473  13.465
22892W        W95152   6.885  25.936   4.976
22893W        W95153  42.812  19.293  11.234
22894W        W95154  27.596  11.129  14.354
22895W        W95155  44.162  19.836   3.322
22896W        W95156  41.558  19.138  14.867
22897W        W95157   1.393  38.949  12.479
22898W        W95158  31.968  18.198   3.335
22899W        W95159  22.748  21.127  14.468
22900W        W95160  29.640   6.602   4.428
22901W        W95161  28.939  41.958  13.104
22902W        W95162  32.007  18.157   2.365
22903W        W95163  41.774  17.253   2.598
22904W        W95164  23.214  42.538   2.252
22905W        W95165  21.066  10.779   4.587
22906W        W95166   3.739  10.130  11.987
22907W        W95167  32.147  27.011   1.987
22908W        W95168  17.600  29.589   1.253
22909W        W95169  14.722  24.060   1.842
22910W        W95170  28.369  12.242   2.749
22911W        W95171   0.435  20.047  13.321
22912W        W95172  15.065   1.395   2.498
22913W        W95173  36.612  24.419  10.618
22914W        W95174  21.503  21.299  14.486
22915W        W95175  34.107  19.892  11.474
22916W        W95176  32.851   5.209   2.806
22917W        W95177  33.048  14.456   1.976
22918W        W95178  18.487  21.093  14.849
22919W        W95179  12.102  29.033  14.483
22920W        W95180  24.633   7.637   0.436
22921W        W95181  27.567  31.553  10.579
22922W        W95182   5.827  22.739   3.251
22923W        W95183   2.371  10.742  11.192
22924W        W95184  33.616  19.418  14.061
22925W        W95185   6.830  28.181   5.029
22926W        W95186  40.384  13.987  13.455
22927W        W95187  13.716  35.570  14.328
22928W        W95188  16.770  25.348   3.640
22929W        W95189  35.402  15.648   1.230
22930W        W95190  23.386  44.964   2.784
22931W        W95191  25.522  27.909   3.843
22932W        W95192  11.863  11.887   4.158
22933W        W95193  12.425  32.099  13.801
22934W        W95194   2.314  35.481   2.693
22935W        W95195  28.013  34.496   0.004
22936W        W95196  39.753  28.431  11.460
22937W        W95197  31.612  12.058  10.621
22938W        W95198  34.343  24.653  12.436
22939W        W95199  26.072  43.209   2.217
22940W        W95200   2.008  21.976   3.113
22941W        W95201   6.397  43.844  12.075
22942W        W95202  34.237  32.959   4.648
22943W        W95203  40.953   6.324  14.022
22944W        W95204   0.773  43.545  13.109
22945W        W95205  12.146  20.678  11.135
22946W        W95206   3.374  19.119   1.435
22947W        W95207   3.052  43.917   2.768
22948W        W95208   7.352   3.125   2.664
22949W        W95209   8.705  39.028   1.839
22950W        W95210  34.096  35.067  11.082
22951W        W95211  37.597  28.014   2.631
22952W        W95212  36.973  14.130  12.431
22953W        W95213  38.388  12.686   4.596
22954W        W95214  27.389  43.749   4.185
22955W        W95215  26.451   7.874   0.824
22956W        W95216  13.106  10.787   4.691
22957W        W95217  15.548   9.080  13.155
22958W        W95218   6.975  14.813  12.572
22959W        W95219  11.391  16.204   3.214
22960W        W95220  39.344  35.343  11.379
22961W        W95221   0.836  28.878  10.305
22962W        W95222  17.531  28.119  13.872
22963W        W95223  14.476  10.288  11.653
22964W        W95224   2.797   4.746  14.670
22965W        W95225  33.357  27.171   4.293
22966W        W95226   2.258  37.819  13.945
22967W        W95227  36.636  39.993  11.556
22968W        W95228  18.104  36.438  13.428
22969W        W95229  19.131   5.992   0.735
22970W        W95230  16.120  21.674  12.567
22971W        W95231  33.588  28.798  12.585
22972W        W95232  16.648  10.394   3.092
22973W        W95233  24.809  13.370   2.214
22974W        W95234  30.292  43.988   4.530
22975W        W95235  15.828  12.787   3.086
22976W        W95236  10.447   3.292   3.793
22977W        W95237   9.218   2.024  11.569
22978W        W95238  44.753  32.546  12.881
22979W        W95239   9.152  29.231  14.742
22980W        W95240  35.531  29.076  13.795
22981W        W95241  18.072  43.304  13.364
22982W        W95242  35.005  14.447  10.914
22983W        W95243  29.028   8.282   3.810
22984W        W95244  12.585  25.564   1.393
22985W        W95245  33.166   2.106  13.305
22986W        W95246   3.835   7.437  10.346
22987W        W95247  27.244   1.873   2.235
22988W        W95248   3.341   1.501   0.770
22989W        W95249  33.785  44.491  14.543
22990W        W95250  27.502  30.456   3.288
22991W        W95251  38.986  14.776  10.725
22992W        W95252   5.412  19.014   2.374
22993W        W95253  14.364  34.415  13.798
22994W        W95254  14.263  29.932   4.592
22995W        W95255  41.265   3.341  12.491
22996W        W95256  15.626   2.280  13.355
22997W        W95257  13.612  41.324  14.735
22998W        W95258   6.461  31.127  11.991
22999W        W95259  22.394   3.798   3.662
23000W        W95260  22.139  16.551   3.649
23001W        W95261  31.035  21.608   1.004
23002W        W95262  42.825  44.613  11.122
23003W        W95263  17.785  44.988   2.795
23004W        W95264  29.187  25.367   2.396
23005W        W95265  35.458  21.807  10.287
23006W        W95266  14.233  14.275  14.495
23007W        W95267  18.354  14.118   4.149
23008W        W95268  17.782  39.787   1.655
23009W        W95269  13.845  35.108   1.479
23010W        W95270  31.692  29.190  12.014
23011W        W95271  18.115  25.891  12.781
23012W        W95272  34.893  42.527  13.061
23013W        W95273  31.211   9.934  10.602
23014W        W95274  15.873  12.322  14.768
23015W        W95275   2.317  42.341  14.271
23016W        W95276  31.525  17.016   0.343
23017W        W95277   8.400   0.700   3.747
23018W        W95278  14.782  42.300  13.006
23019W        W95279  21.583  36.776  14.718
23020W        W95280  39.282  39.918  12.690
23021W        W95281   7.880   2.281  13.526
23022W        W95282  17.258  35.987  13.523
23023W        W95283  20.069  39.892  14.384
23024W        W95284  13.244   1.027  13.067
23025W        W95285  22.681   1.036  10.735
23026W        W95286   1.308  38.959  13.013
23027W        W95287  38.607  30.979  10.926
23028W        W95288  20.201   3.443   3.413
23029W        W95289   9.466  22.794  10.996
23030W        W95290  38.436  44.947   1.219
23031W        W95291   0.304  20.782  11.930
23032W        W95292  41.926   7.087   3.248
23033W        W95293  26.514   0.017  14.730
23034W        W95294  44.432  36.139  11.458
23035W        W95295  39.171  11.167   3.248
23036W        W95296   5.973  24.227  12.251
23037W        W95297  29.237  23.000   3.079
23038W        W95298  28.343  30.032   1.802
23039W        W95299  27.150  44.660  11.188
23040W        W95300   4.870   2.782  12.160
23041W        W95301  16.240  26.109   4.265
23042W        W95302  15.679  12.626   0.832
23043W        W95303  27.681  22.938   0.320
23044W        W95304  19.569  19.782  12.500
23045W        W95305  18.129   1.499   2.769
23046W        W95306  36.174  32.080  10.941
23047W        W95307  16.830  36.939  14.926
23048W        W95308  27.747  16.311  14.465
23049W        W95309  43.889  31.512   3.273
23050W        W95310  43.167   2.802   1.321
23051W        W95311  26.385  23.823   0.406
23052W        W95312  34.209  17.690   3.665
23053W        W95313  44.188   4.911  11.120
23054W        W95314  10.229  16.826  14.527
23055W        W95315  43.698   8.317  13.606
23056W        W95316  44.249   0.397  13.726
23057W        W95317   2.392  25.323   0.682
23058W        W95318  43.395  10.198   4.764
23059W        W95319  36.477   7.346   4.339
23060W        W95320   3.671  35.384  13.749
23061W        W95321  31.940  19.626   2.204
23062W        W95322  36.024   1.198  14.063
23063W        W95323  13.583  31.079  11.863
23064W        W95324   5.388  29.217  10.921
23065W        W95325  37.358  11.978  14.948
23066W        W95326  15.814  41.203  11.672
23067W        W95327  34.444  26.293   0.544
23068W        W95328   4.898  10.184  14.518
23069W        W95329   5.402   5.950  14.319
23070W        W95330  10.769  29.936   4.793
23071W        W95331  38.477   3.193  12.407
23072W        W95332  32.400   3.223   2.204
23073W        W95333  30.707   0.425  12.019
23074W        W95334  40.603   3.805  13.771
23075W        W95335  12.775  21.335   4.549
23076W        W95336  19.621   2.179   4.074
23077W        W95337  43.869  22.098   4.618
23078W        W95338  27.044  44.545   2.682
23079W        W95339  36.617   8.932  14.432
23080W        W95340  28.185  35.403   1.298
23081W        W95341  10.717  35.138  11.665
23082W        W95342  21.573   3.230   2.343
23083W        W95343   9.415  40.939   0.171
23084W        W95344  36.888  31.142   4.089
23085W        W95345  19.225  32.177  10.701
23086W        W95346  31.815  33.395  12.366
23087W        W95347   7.202  11.426  11.528
23088W        W95348  35.144   1.685  14.277
23089W        W95349  30.077  19.668  13.225
23090W        W95350  35.826   4.860   5.062
23091W        W95351  17.884  28.008  12.475
23092W        W95352  32.982  21.195  14.016
23093W        W95353  17.659   1.521  13.495
23094W        W95354  31.457  33.644  12.049
23095W        W95355   4.235  16.275  12.496
23096W        W95356  40.032  35.624  11.113
23097W        W95357  29.036   1.933   0.550
23098W        W95358  14.132  44.208   2.201
23099W        W95359  16.199  18.585  14.750
23100W        W95360  22.080  16.074  14.811
23101W        W95361  43.895  34.907   4.568
23102W        W95362  35.556  19.018   3.730
23103W        W95363  29.208  32.997   3.279
23104W        W95364   6.538  40.785   2.663
23105W        W95365   4.983  14.943   2.649
23106W        W95366  38.039  42.505  11.621
23107W        W95367  41.447   0.076   4.740
23108W        W95368  26.922  34.668   3.713
23109W        W95369  26.966  12.665   4.796
23110W        W95370  34.539   7.844  12.372
23111W        W95371  21.353  32.818  10.336
23112W        W95372  42.547  20.294   0.854
23113W        W95373  13.895  31.729  11.202
23114W        W95374  36.818  18.585  14.396
23115W        W95375  23.881  21.225  13.282
23116W        W95376  28.152  20.570   3.900
23117W        W95377  20.896  32.751   0.387
23118W        W95378   3.371  21.760  13.417
23119W        W95379  33.589  23.487  12.035
23120W        W95380  34.495  33.932  12.290
23121W        W95381  30.842  44.542  11.374
23122W        W95382  43.804  21.084  13.325
23123W        W95383  20.388  26.189   0.602
23124W        W95384  14.269   3.916   1.375
23125W        W95385   8.035  14.939  13.074
23126W        W95386  10.653  15.565   3.424
23127W        W95387  17.235   8.248  14.497
23128W        W95388   5.841  39.850  10.752
23129W        W95389  38.883  32.313  12.415
23130W        W95390   0.855  35.816  14.029
23131W        W95391   0.683   0.849  14.322
23132W        W95392  27.048  39.107  14.950
23133W        W95393  28.172  34.713  13.588
23134W        W95394  42.056  12.647   3.757
23135W        W95395  32.092  17.693   2.593
23136W        W95396  16.725   9.888  12.912
23137W        W95397  22.853  33.463   1.318
23138W        W95398   5.306  16.064   3.220
23139W        W95399  28.191  21.496  12.407
23140W        W95400   6.694   3.560   0.984
23141W        W95401  21.625   2.699  11.221
23142W        W95402  29.651  29.201  11.974
23143W        W95403  30.639  43.858   1.670
23144W        W95404   7.092  44.369  10.168
23145W        W95405  33.981   6.777   1.200
23146W        W95406   0.787  42.909  14.344
23147W        W95407   3.324  28.419   1.081
23148W        W95408  44.924  41.346  14.229
23149W        W95409   3.808  12.147   1.165
23150W        W95410  31.944  22.454  12.479
23151W        W95411   8.916  33.160   2.036
23152W        W95412  16.109  17.291   2.878
23153W        W95413   6.356   1.831  10.175
23154W        W95414   3.294  22.650   2.425
23155W        W95415   9.929  18.111   0.806
23156W        W95416   6.979  42.412   3.771
23157W        W95417  24.432   6.854   1.412
23158W        W95418  13.717   0.019  12.366
23159W        W95419  18.852   3.038  13.314
23160W        W95420   6.726  32.452  12.472
23161W        W95421  33.906  29.878  11.968
23162W        W95422  27.657  12.731  10.959
23163W        W95423  34.101  38.591   1.290
23164W        W95424  40.063  28.168  13.633
23165W        W95425   8.951  43.858   4.675
23166W        W95426   2.457  31.022  13.533
23167W        W95427  44.992  26.096   1.069
23168W        W95428  14.395  15.701   0.820
23169W        W95429  35.873  22.571   5.009
23170W        W95430  40.214   6.655  14.075
23171W        W95431  25.097  22.589  13.434
23172W        W95432   1.505   3.120  11.586
23173W        W95433   2.297   1.511   0.247
23174W        W95434  31.947   6.939   4.049
23175W        W95435  23.423   2.359   0.459
23176W        W95436  11.895  30.858  14.076
23177W        W95437  11.911  28.589  11.027
23178W        W95438  13.356  18.658  12.963
23179W        W95439  25.323  36.090   4.747
23180W        W95440  22.176  14.836   1.816
23181W        W95441  13.188  15.156  13.889
23182W        W95442  15.850  13.966  14.449
23183W        W95443  33.997   3.334   0.906
23184W        W95444  39.874   7.565  10.807
23185W        W95445  28.038   3.503  12.427
23186W        W95446   3.728  13.574   2.039
23187W        W95447  24.595  14.287   2.842
23188W        W95448  39.816  19.374   2.638
23189W        W95449  42.931   7.156  14.056
23190W        W95450  10.871  20.303  10.519
23191W        W95451  44.905   7.170  11.616
23192W        W95452   3.698  22.688   4.242
23193W        W95453  31.618  20.639   2.793
23194W        W95454  18.038  29.902   2.840
23195W        W95455  11.082  42.700   5.367
23196W        W95456  10.691   3.637   2.236
23197W        W95457  31.036  13.179   3.326
23198W        W95458   7.923  11.247  12.444
23199W        W95459   0.865  28.094   4.039
23200W        W95460  42.744  42.053   0.349
23201W        W95461   1.526   0.303   4.659
23202W        W95462  42.552  10.203  12.699
23203W        W95463  24.310   7.599  12.822
23204W        W95464  35.892   3.955   4.214
23205W        W95465  19.236  44.754  11.186
23206W        W95466   3.748  12.272  14.263
23207W        W95467  42.782  19.670   3.675
23208W        W95468  42.823   4.893  13.448
23209W        W95469  41.397  17.315  14.262
23210W        W95470  40.980  23.408  14.412
23211W        W95471   3.279   4.916  10.432
23212W        W95472  36.296  37.447  10.593
23213W        W95473   0.963   2.399   2.337
23214W        W95474  44.746  37.384   0.635
23215W        W95475   3.126  29.201   4.229
23216W        W95476  30.337  35.915   1.629
23217W        W95477  32.358  15.830   2.233
23218W        W95478  31.273   6.236   0.937
23219W        W95479  27.514  11.257  12.499
23220W        W95480  43.431  33.744   3.270
23221W        W95481  27.063   4.492  14.984
23222W        W95482  41.928  35.479   3.278
23223W        W95483  20.535  44.522  11.594
23224W        W95484  15.748  14.860   1.334
23225W        W95485  27.993  18.313   1.848
23226W        W95486  19.722  24.305  13.949
23227W        W95487   3.025  21.683   0.939
23228W        W95488  34.721  20.785  12.860
23229W        W95489  15.097  28.157   9.825
23230W        W95490  14.478  24.905  13.753
23231W        W95491  14.742  18.243   4.636
23232W        W95492  29.429  20.435  12.877
23233W        W95493  13.513  33.678   3.184
23234W        W95494   4.946  25.709   0.980
23235W        W95495   4.762  36.893  12.140
23236W        W95496  32.946  15.183   1.385
23237W        W95497   3.432  22.126   1.761
23238W        W95498  11.977  41.906  11.087
23239W        W95499  16.391  15.371  13.938
23240W        W95500  42.275   9.852   3.479
23241W        W95501   0.927  32.358  10.667
23242W        W95502  29.478   3.744   4.250
23243W        W95503  35.671  35.841   4.717
23244W        W95504  17.551  15.878  12.551
23245W        W95505   4.548  31.175  11.291
23246W        W95506  37.762  15.401   0.127
23247W        W95507  18.724  34.504  10.489
23248W        W95508  20.938  22.592   0.353
23249W        W95509  36.548  37.529   2.345
23250W        W95510   6.116  22.982  14.360
23251W        W95511  15.241   7.291   4.701
23252W        W95512   4.690   8.395   0.317
23253W        W95513  23.977  30.330  10.561
23254W        W95514  35.564  32.478   3.465
23255W        W95515  24.067  34.995  14.070
23256W        W95516  38.383   1.706   4.954
23257W        W95517   9.180  18.564   5.065
23258W        W95518  32.120  10.968   0.308
23259W        W95519  17.126  14.712  13.191
23260W        W95520  13.855  15.007  14.551
23261W        W95521   1.025  42.329  12.918
23262W        W95522  40.490   8.909   3.282
23263W        W95523  26.453   5.104   3.638
23264W        W95524  12.300  42.016  14.244
23265W        W95525  18.233  12.951   1.486
23266W        W95526  25.001   1.266   4.080
23267W        W95527  34.363  38.932   4.560
23268W        W95528  36.972   0.669  14.882
23269W        W95529  14.108  10.706   3.737
23270W        W95530  32.916   4.681   1.280
23271W        W95531  36.645  39.807   2.888
23272W        W95532   8.154  44.955   2.145
23273W        W95533  25.255  29.527  10.675
23274W        W95534   6.500  17.678   0.764
23275W        W95535   7.469   4.942   2.495
23276W        W95536  30.103  21.056   1.045
23277W        W95537  17.604   1.725  14.957
23278W        W95538  39.721  30.221   3.549
23279W        W95539   8.358  20.845  12.128
23280W        W95540  33.202  18.342   2.296
23281W        W95541  15.158  27.092   0.926
23282W        W95542   4.872  15.551   4.030
23283W        W95543  37.775   9.728  10.052
23284W        W95544  12.409  41.551  11.131
23285W        W95545  24.030  10.632   3.779
23286W        W95546  14.684   6.094   2.007
23287W        W95547  39.743  20.581  12.680
23288W        W95548  24.406  41.102   4.610
23289W        W95549  29.533   7.033   3.596
23290W        W95550   3.006  13.195  13.837
23291W        W95551  26.800  26.059  10.648
23292W        W95552   9.000   2.977  12.399
23293W        W95553  31.309  30.203   3.773
23294W        W95554  21.662  34.132  12.934
23295W        W95555   0.769  10.857  14.120
23296W        W95556   0.929  28.574   4.747
23297W        W95557  35.876  28.689  13.857
23298W        W95558  17.626   1.268  10.590
23299W        W95559  25.817  22.725  12.907
23300W        W95560  33.967  22.370  14.327
23301W        W95561  12.075   3.518  12.086
23302W        W95562   9.732  22.447   0.789
23303W        W95563  40.051  14.265   2.587
23304W        W95564   5.260  28.348   2.697
23305W        W95565  21.789  42.492   4.113
23306W        W95566  37.356  37.371  10.637
23307W        W95567  21.700   0.956   3.947
23308W        W95568  25.175  31.446   0.858
23309W        W95569  29.732  40.300   4.209
23310W        W95570  28.472  35.581  12.820
23311W        W95571  39.928  31.168  12.527
23312W        W95572  28.123  44.546   3.631
23313W        W95573  10.910  13.167  11.657
23314W        W95574  43.723  35.260  12.527
23315W        W95575   3.796  44.721   4.865
23316W        W95576  38.401  32.461   1.303
23317W        W95577  27.482  19.578  14.781
23318W        W95578   9.871  21.569   2.186
23319W        W95579  19.084  33.597   3.601
23320W        W95580  42.049  31.305  12.619
23321W        W95581  25.327  18.014   2.407
23322W        W95582  28.481  13.342  10.707
23323W        W95583  44.942  36.038   0.410
23324W        W95584  21.912  32.275  10.108
23325W        W95585   6.750  38.366   4.397
23326W        W95586  23.636  18.823  11.712
23327W        W95587  39.342  27.355  10.675
23328W        W95588   7.718  16.147  11.053
23329W        W95589   2.814  37.782   0.841
23330W        W95590  37.485  12.680   3.162
23331W        W95591   0.882  40.959  11.407
23332W        W95592  36.230  30.767   3.595
23333W        W95593  10.370   9.216   3.907
23334W        W95594   2.344  22.174   3.445
23335W        W95595  23.744  20.538  10.919
23336W        W95596  35.139  17.112  13.991
23337W        W95597  14.161  19.498   4.085
23338W        W95598   8.781   4.759  12.786
23339W        W95599  29.691  31.186  14.127
23340W        W95600  23.928  34.910   4.922
23341W        W95601  10.207  26.623   1.703
23342W        W95602  25.156  32.659   4.369
23343W        W95603  12.518  26.377  11.139
23344W        W95604  35.427   6.589  14.783
23345W        W95605  17.939  23.151   0.796
23346W        W95606   1.288   2.000  12.604
23347W        W95607  22.557  21.406   5.201
23348W        W95608  28.944   1.904  13.807
23349W        W95609   2.091   8.766   2.644
23350W        W95610  23.197   0.255  14.788
23351W        W95611  28.596  14.268  10.472
23352W        W95612  39.459  31.739  12.089
23353W        W95613  29.640  36.877  14.353
23354W        W95614  10.700  18.738  11.523
23355W        W95615  26.777   0.577  11.468
23356W        W95616  17.146  44.480  14.928
23357W        W95617   8.645   2.404  14.987
23358W        W95618   2.004  20.158  13.621
23359W        W95619  43.171  32.354  12.516
23360W        W95620  17.280  25.064  14.039
23361W        W95621  13.210   5.130   0.699
23362W        W95622  10.455   4.879   2.858
23363W        W95623   6.292  27.862  11.914
23364W        W95624  21.057  19.064   3.693
23365W        W95625  10.180  19.166   3.287
23366W        W95626  33.906   5.410   1.743
23367W        W95627  32.395  30.290   2.343
23368W        W95628  12.244  28.691   4.497
23369W        W95629  21.047  31.496  11.890
23370W        W95630   8.839   7.696  12.310
23371W        W95631   9.736  32.125  11.407
23372W        W95632  23.808  16.187   4.725
23373W        W95633   7.469  13.560   3.943
23374W        W95634  30.368  41.354  13.403
23375W        W95635  36.853  21.208   2.338
23376W        W95636  31.631  20.978   2.267
23377W        W95637   9.506  43.537  12.063
23378W        W95638  13.082  29.787   5.096
23379W        W95639   3.394  25.781  14.266
23380W        W95640  35.054  37.844   4.764
23381W        W95641   5.975  28.512  13.067
23382W        W95642  41.960   5.162   4.535
23383W        W95643  30.488   9.883   4.143
23384W        W95644  28.026  18.490  10.054
23385W        W95645   6.055  18.401  11.399
23386W        W95646   8.214   7.281   1.740
23387W        W95647   8.824  39.093   2.770
23388W        W95648  16.175   4.934  10.863
23389W        W95649   9.575  35.961   0.375
23390W        W95650  43.864  13.863   2.853
23391W        W95651  17.677  28.354   3.405
23392W        W95652  30.334   2.791  12.907
23393W        W95653  34.502  37.906  10.775
23394W        W95654  17.174  31.342  13.313
23395W        W95655  43.928  36.415   1.785
23396W        W95656  41.952  43.796   4.541
23397W        W95657  35.993  29.640  14.049
23398W        W95658   7.388  14.219  14.749
23399W        W95659  38.521  17.159   4.928
23400W        W95660  38.494  43.638  11.108
23401W        W95661  25.549  12.022  11.080
23402W        W95662  34.052  12.433   4.760
23403W        W95663   6.664  31.691   2.270
23404W        W95664  10.292  19.827  12.388
23405W        W95665  23.690  18.595   3.452
23406W        W95666  21.517  26.472   3.228
23407W        W95667   1.611  11.776   5.084
23408W        W95668  40.971   5.379  13.398
23409W        W95669  42.000  21.020  14.908
23410W        W95670  43.661  38.903   3.651
23411W        W95671  35.243  15.266   5.076
23412W        W95672   3.790  17.399  12.864
23413W        W95673  25.975  20.718   0.241
23414W        W95674   6.647   7.941  11.899
23415W        W95675  26.086  19.654   1.486
23416W        W95676   6.190  24.141   1.753
23417W        W95677  32.203   4.243  14.616
23418W        W95678   6.473  22.238  14.823
23419W        W95679  34.425   3.722  11.164
23420W        W95680  20.013  21.435  12.596
23421W        W95681  19.985   7.291  13.492
23422W        W95682  33.802   8.904   3.124
23423W        W95683  23.314  30.095   2.441
23424W        W95684  11.527  34.477   4.142
23425W        W95685  33.561  17.381  12.967
23426W        W95686  42.958   3.256   1.226
23427W        W95687  15.347  26.191   0.753
23428W        W95688  44.828   8.333  13.120
23429W        W95689  37.126   1.734   4.154
23430W        W95690  35.880   7.692   0.497
23431W        W95691  23.438  24.111   3.746
23432W        W95692  20.524  35.344   1.023
23433W        W95693  24.242   4.429  13.312
23434W        W95694  28.310  25.251   0.685
23435W        W95695  18.017  21.763   3.178
23436W        W95696   2.407   3.881   3.313
23437W        W95697  28.320  31.946  11.157
23438W        W95698   9.227  39.302  11.057
23439W        W95699  27.102   5.938  11.098
23440W        W95700  36.449  26.944  13.716
23441W        W95701  16.789  41.952   3.809
23442W        W95702  17.133  13.633   1.388
23443W        W95703  33.610  19.051   1.992
23444W        W95704  24.199  20.903   3.325
23445W        W95705  20.991  16.614   4.663
23446W        W95706  13.520   3.945  12.191
23447W        W95707  25.855  19.801   0.202
23448W        W95708  23.621  28.352   2.939
23449W        W95709  19.548   3.247  11.586
23450W        W95710  27.487   6.024   1.856
23451W        W95711  29.594  33.502  13.113
23452W        W95712  34.019  34.867  10.636
23453W        W95713  32.365  13.247  13.145
23454W        W95714  25.677  18.962  11.034
23455W        W95715  37.228  18.828  10.264
23456W        W95716  15.412  39.250   0.991
23457W        W95717   0.657  33.453   3.398
23458W        W95718   9.566  38.157   0.040
23459W        W95719  36.037  32.574   3.719
23460W        W95720  41.919  39.791   3.254
23461W        W95721  16.521  42.440  11.542
23462W        W95722   5.899  25.079   0.282
23463W        W95723   6.620   3.160   4.375
23464W        W95724   7.788  12.593   3.271
23465W        W95725  40.410  26.904   4.074
23466W        W95726  28.897  12.731  13.648
23467W        W95727  30.686   4.009   0.646
23468W        W95728  20.311   5.756   0.483
23469W        W95729  16.331  43.105  11.259
23470W        W95730  33.300  44.615   2.239
23471W        W95731   7.419  38.358   0.513
23472W        W95732   9.801  25.589  13.835
23473W        W95733   6.293  36.041  10.652
23474W        W95734  18.631  26.680   0.194
23475W        W95735  14.196  40.748   2.209
23476W        W95736  28.997  37.990   2.184
23477W        W95737  30.792  31.501  14.407
23478W        W95738  12.264  21.558  12.205
23479W        W95739  44.625  10.380   4.111
23480W        W95740  24.557  44.849  12.776
23481W        W95741  22.684  42.274  13.788
23482W        W95742  10.873  18.252   0.953
23483W        W95743  40.721   6.169  14.504
23484W        W95744  18.933   5.389  11.960
23485W        W95745   7.688  26.748  12.081
23486W        W95746   3.848  26.573  10.494
23487W        W95747   9.654   8.974  10.664
23488W        W95748  12.983  44.955  13.951
23489W        W95749  35.629  29.555   3.722
23490W        W95750  39.852  29.385   0.851
23491W        W95751  42.557  38.519   4.403
23492W        W95752   8.140  16.593   1.193
23493W        W95753  23.517  25.920  14.193
23494W        W95754  30.473  30.419  10.487
23495W        W95755  36.409   3.442   0.479
23496W        W95756  23.697   4.731  14.887
23497W        W95757  36.472  18.999  14.478
23498W        W95758   0.213  21.273  13.677
23499W        W95759  33.462  12.315   3.264
23500W        W95760  18.225  38.900   3.704
23501W        W95761   0.941   1.687  11.132
23502W        W95762  39.422  33.580  14.013
23503W        W95763   0.474  18.936  13.871
23504W        W95764  21.758   8.319   2.745
23505W        W95765  22.874   5.810  10.084
23506W        W95766  44.254  37.562   1.696
23507W        W95767  33.096  32.345   1.967
23508W        W95768  34.471  19.542   4.042
23509W        W95769  41.065  39.854   1.200
23510W        W95770  44.298   3.751  13.395
23511W        W95771  14.286  12.631   2.651
23512W        W95772  21.070  26.128   0.916
23513W        W95773  39.413  27.640  13.347
23514W        W95774  38.050   1.077  12.141
23515W        W95775  17.154  18.865   2.743
23516W        W95776   6.071  12.448  13.868
23517W        W95777  44.928  31.971   0.405
23518W        W95778   0.958   8.822  10.759
23519W        W95779  23.045   1.734  11.119
23520W        W95780  25.272  16.570   1.322
23521W        W95781  18.061  22.594  11.765
23522W        W95782  23.724   9.298  10.969
23523W        W95783  20.216  11.767   1.207
23524W        W95784   9.391  41.451   4.210
23525W        W95785  44.176   6.009   5.098
23526W        W95786  13.377  44.268   9.979
23527W        W95787  38.860  30.465  12.085
23528W        W95788  26.515  27.423   3.254
23529W        W95789  37.191   7.920   4.864
23530W        W95790  31.186  18.209   1.893
23531W        W95791  30.233  44.316  14.455
23532W        W95792  30.529  31.645   1.725
23533W        W95793   8.510  15.658  14.972
23534W        W95794   5.627   1.251  13.962
23535W        W95795  32.988  17.585  11.024
23536W        W95796  12.944   3.432  13.556
23537W        W95797  27.620  31.406  13.383
23538W        W95798   6.653  35.559  12.601
23539W        W95799  14.984  38.477   3.279
23540W        W95800   7.767   5.121   0.007
23541W        W95801  36.475  29.765   1.164
23542W        W95802   1.226  40.007  10.763
23543W        W95803   8.446  20.106  14.294
23544W        W95804   0.835  40.883  14.587
23545W        W95805   5.724  31.146   2.767
23546W        W95806  20.797  15.237  13.423
23547W        W95807  31.477  33.581  13.220
23548W        W95808   9.346  27.979   0.434
23549W        W95809  28.213  14.532   0.398
23550W        W95810  31.502  21.095  10.833
23551W        W95811  19.124  25.243   3.651
23552W        W95812   5.529   1.783   3.126
23553W        W95813  28.999  20.014  12.591
23554W        W95814  34.222  38.047  14.463
23555W        W95815   6.428  26.230  12.825
23556W        W95816  10.572   1.220   4.512
23557W        W95817  44.327  29.654  14.465
23558W        W95818  10.301  38.893  14.920
23559W        W95819   3.894  36.654  14.828
23560W        W95820  15.280  28.084   0.996
23561W        W95821  35.921  14.392   0.580
23562W        W95822  25.053  44.320  10.261
23563W        W95823  15.795  12.843  14.800
23564W        W95824  10.724  34.518   1.681
23565W        W95825  34.366  34.601   2.708
23566W        W95826  18.666  34.551   2.190
23567W        W95827  37.134  35.546  12.822
23568W        W95828   7.024  31.161  12.865
23569W        W95829   9.533   5.653   3.260
23570W        W95830  39.096  36.913   1.642
23571W        W95831  13.499  41.624   4.200
23572W        W95832  16.114  15.448   4.456
23573W        W95833  23.155  40.729   2.695
23574W        W95834  36.547  13.169  10.393
23575W        W95835   8.564  24.604   0.382
23576W        W95836  27.354   8.735  10.514
23577W        W95837  37.980  25.209  11.217
23578W        W95838  16.326  31.510   1.645
23579W        W95839   3.747  28.180  12.696
23580W        W95840  30.977  13.191  14.963
23581W        W95841  30.188  24.723  12.860
23582W        W95842  26.172   8.590   1.271
23583W        W95843  33.924  18.742  14.042
23584W        W95844  38.006   6.390   3.247
23585W        W95845  17.130  43.294   3.438
23586W        W95846  26.505  12.686  12.940
23587W        W95847   5.759  41.011   3.511
23588W        W95848  21.735   9.496  14.904
23589W        W95849  41.926  32.908   1.103
23590W        W95850  13.036  14.429   2.701
23591W        W95851   1.383  42.838   0.926
23592W        W95852  37.783  35.883   1.856
23593W        W95853  40.737  10.915  11.206
23594W        W95854  37.391   0.867  12.904
23595W        W95855  29.495  21.517   1.464
23596W        W95856  23.597  18.811   1.483
23597W        W95857  43.890  35.834  10.841
23598W        W95858  24.599  24.994   3.595
23599W        W95859  21.418   1.318   3.219
23600W        W95860  11.565   0.734   1.827
23601W        W95861  34.112   3.910  12.463
23602W        W95862   5.989  26.998   4.848
23603W        W95863   0.045  19.210  14.669
23604W        W95864   1.438  19.443   2.786
23605W        W95865  18.167  33.478  12.760
23606W        W95866  17.173  35.544  14.925
23607W        W95867  36.874  22.435   4.086
23608W        W95868  28.209  27.001  13.203
23609W        W95869  39.429  13.744  11.243
23610W        W95870   6.919  23.180   2.191
23611W        W95871  36.064  37.838   2.802
23612W        W95872  42.822  35.921   3.287
23613W        W95873  34.361  40.357   0.771
23614W        W95874  26.955  17.091   4.582
23615W        W95875  12.781   3.943  12.662
23616W        W95876   1.945  33.902  11.177
23617W        W95877   6.880  27.105  13.795
23618W        W95878  40.261   8.733  11.987
23619W        W95879   7.211  25.560   0.473
23620W        W95880   7.802  10.795   1.896
23621W        W95881   3.965  10.056  11.523
23622W        W95882   0.154  13.664  12.005
23623W        W95883  23.986  43.494  14.797
23624W        W95884  22.664  14.815   4.539
23625W        W95885  33.899  10.264   2.376
23626W        W95886  41.740  26.193  11.915
23627W        W95887  13.368  16.270  13.196
23628W        W95888  16.210  27.109   4.724
23629W        W95889  10.670  23.979  12.853
23630W        W95890  43.699  35.395   3.285
23631W        W95891  21.608  40.021  11.998
23632W        W95892  42.792   0.378   0.503
23633W        W95893   3.885  28.157  11.249
23634W        W95894  16.829  32.234   3.272
23635W        W95895   0.411  33.046  11.914
23636W        W95896  20.818  26.884  13.267
23637W        W95897   0.060  35.781   0.863
23638W        W95898  25.510  16.816   0.940
23639W        W95899  27.211  19.610  12.968
23640W        W95900  16.017   6.265  11.982
23641W        W95901  38.230  19.517  12.379
23642W        W95902  38.835   9.859  13.055
23643W        W95903  37.573  24.499  11.639
23644W        W95904  29.084  13.754  13.428
23645W        W95905  22.952  10.439  13.039
23646W        W95906   9.656  19.679   2.819
23647W        W95907  17.332  33.738  12.956
23648W        W95908  30.477  30.136  13.298
23649W        W95909  42.862  30.658   3.284
23650W        W95910   2.615   3.377  10.178
23651W        W95911  36.041  37.083   4.143
23652W        W95912  23.447  36.422  11.066
23653W        W95913   9.717  42.740  11.428
23654W        W95914  20.763   9.582   2.277
23655W        W95915  35.148  17.998   5.148
23656W        W95916  36.066  16.757   3.656
23657W        W95917  26.634   1.942  14.246
23658W        W95918  25.236  36.181   3.850
23659W        W95919  43.026  24.996   4.659
23660W        W95920  16.343   0.834  10.124
23661W        W95921  26.463  44.817   0.765
23662W        W95922  41.859   3.298  11.104
23663W        W95923   7.053  14.147   0.162
23664W        W95924   0.521  15.744   0.905
23665W        W95925  31.753  22.490   5.079
23666W        W95926   2.438   9.618  12.595
23667W        W95927  25.187   5.913  14.440
23668W        W95928  20.732  16.776  11.807
23669W        W95929  43.898  24.953   0.401
23670W        W95930  36.032  14.525   5.045
23671W        W95931  15.139  23.007   0.077
23672W        W95932   1.824  21.668   0.053
23673W        W95933  23.995  18.082   1.439
23674W        W95934  14.968  39.931   4.729
23675W        W95935  39.966  37.813   2.159
23676W        W95936  27.381  23.442  14.087
23677W        W95937  41.750  22.940   4.145
23678W        W95938   0.496  25.384   3.402
23679W        W95939  21.158  33.184   4.574
23680W        W95940  30.335  20.556   2.162
23681W        W95941  31.735  41.267   3.170
23682W        W95942  32.878  25.201   2.703
23683W        W95943  27.420   0.247   4.687
23684W        W95944  37.550  39.022   0.035
23685W        W95945  10.187  30.896  13.060
23686W        W95946   4.364  43.807  12.877
23687W        W95947  39.885  30.187   0.455
23688W        W95948  35.001  19.099  14.842
23689W        W95949  26.534  39.081  14.722
23690W        W95950  17.617  17.718  12.708
23691W        W95951   5.365   9.906   4.161
23692W        W95952  13.278  38.992   3.238
23693W        W95953  26.146  30.080  13.906
23694W        W95954  39.763  23.632   2.325
23695W        W95955  21.108  36.531  13.107
23696W        W95956  42.777  40.045  14.717
23697W        W95957   7.328  36.726  12.071
23698W        W95958  10.136  38.901  13.962
23699W        W95959   4.695  18.707   3.252
23700W        W95960   0.312  40.784  14.840
23701W        W95961  25.712   3.214   4.691
23702W        W95962  20.463  19.754   1.299
23703W        W95963  34.549  29.012  10.553
23704W        W95964  36.056   5.477  11.471
23705W        W95965  23.096  13.848  10.415
23706W        W95966  16.321  20.225   0.867
23707W        W95967  28.532   8.558  13.274
23708W        W95968   1.881  31.016   4.108
23709W        W95969  33.004   5.691   2.870
23710W        W95970  22.185  37.007  14.316
23711W        W95971  39.275  28.507   0.385
23712W        W95972  35.277  40.529  11.058
23713W        W95973   7.677  28.460  10.246
23714W        W95974  21.934   5.972  10.406
23715W        W95975  44.701  41.863  11.022
23716W        W95976   8.650  42.777  14.105
23717W        W95977  38.365  20.801  11.927
23718W        W95978   4.832  35.032  12.344
23719W        W95979  17.110  39.916  12.049
23720W        W95980  11.367  38.400  14.818
23721W        W95981   5.860  33.509   4.551
23722W        W95982   7.122  16.728   1.391
23723W        W95983  24.502   3.835  14.458
23724W        W95984  24.954  44.182   4.300
23725W        W95985  13.916  27.241  11.653
23726W        W95986  10.901   9.285  14.456
23727W        W95987  11.709  37.758  13.061
23728W        W95988  29.091   2.703  13.332
23729W        W95989  32.949   6.115  14.549
23730W        W95990   9.865  15.726   2.276
23731W        W95991   6.472   4.191  13.050
23732W        W95992  11.299  39.807  12.888
23733W        W95993  26.213   9.356   1.692
23734W        W95994  10.976  31.320  10.770
23735W        W95995  42.491  14.336  14.081
23736W        W95996  18.468   0.402  12.929
23737W        W95997  21.650  26.983   1.392
23738W        W95998   1.997  28.377   4.368
23739W        W95999  28.902   3.860  12.931
23740W        W96000  36.772  29.041   2.270
23741W        W96001  25.674  31.008  14.015
23742W        W96002  36.946   7.775   1.737
23743W        W96003  21.529  25.715   0.310
23744W        W96004  21.446  21.893   4.666
23745W        W96005  42.751  40.949   1.784
23746W        W96006  19.252  13.107  12.023
23747W        W96007  19.909  34.425  14.195
23748W        W96008  38.886  12.467   4.560
23749W        W96009  35.600  42.039  13.441
23750W        W96010   5.791  27.099   3.898
23751W        W96011  38.962   7.143  14.832
23752W        W96012   7.124  39.975   0.293
23753W        W96013  31.884  15.506   0.435
23754W        W96014  38.353  14.536  14.491
23755W        W96015  36.043  33.797   2.681
23756W        W96016  36.643  34.857   3.634
23757W        W96017  40.950  21.009  11.352
23758W        W96018  30.628  11.941  13.964
23759W        W96019  33.747  27.558  10.752
23760W        W96020  26.103  18.026  11.457
23761W        W96021  24.786   1.011  11.468
23762W        W96022  37.711  38.437  10.172
23763W        W96023  27.035  20.998   1.413
23764W        W96024  40.391   8.610  13.810
23765W        W96025  28.578  28.154  11.166
23766W        W96026  23.214  27.173  12.833
23767W        W96027   8.700   9.894  10.852
23768W        W96028  37.938  44.959   2.559
23769W        W96029  25.016  10.422   0.437
23770W        W96030   5.275  34.613  13.937
23771W        W96031  32.177  19.721   3.607
23772W        W96032  28.466   0.424   3.557
23773W        W96033  26.341  36.788  14.567
23774W        W96034  24.939   9.411   2.874
23775W        W96035  10.022   2.635   0.263
23776W        W96036  23.551  14.061  13.939
23777W        W96037  35.954  40.427  10.699
23778W        W96038  34.610  37.077   4.218
23779W        W96039   6.356  21.589   2.863
23780W        W96040  34.557  10.643   0.499
23781W        W96041  21.681   7.453   5.163
23782W        W96042  30.951   6.774  13.883
23783W        W96043  36.785  14.881   0.774
23784W        W96044   2.786  41.936  13.415
23785W        W96045  43.807  38.772   2.824
23786W        W96046  39.285   1.196  11.791
23787W        W96047  11.203  41.745  13.657
23788W        W96048  21.246  22.630  13.786
23789W        W96049  12.268  37.559  11.055
23790W        W96050  18.274  22.683  12.666
23791W        W96051   8.756  14.172  13.050
23792W        W96052   5.734  18.176  14.842
23793W        W96053  39.154  12.978  12.149
23794W        W96054  31.660  33.896   1.865
23795W        W96055  13.806  43.286  11.918
23796W        W96056  39.180  29.701  12.941
23797W        W96057  12.238  23.030  11.652
23798W        W96058  10.317   9.672   0.006
23799W        W96059  44.521   2.257   3.807
23800W        W96060  12.828  36.860   4.093
23801W        W96061  13.033  31.849   2.852
23802W        W96062  19.678  23.938  11.615
23803W        W96063  33.026  17.362   4.584
23804W        W96064  22.757  26.208   5.491
23805W        W96065  26.629   7.630   0.377
23806W        W96066  18.828   0.760   1.456
23807W        W96067  16.089  31.507  12.497
23808W        W96068  38.775   6.629  12.923
23809W        W96069  33.013  39.381   0.048
23810W        W96070  33.790   5.780   4.135
23811W        W96071   8.759  10.542   0.316
23812W        W96072  42.157  13.375   0.646
23813W        W96073  34.534  37.589   4.325
23814W        W96074  26.107  26.073   4.122
23815W        W96075  21.188  19.552  12.822
23816W        W96076   0.250  38.389  14.511
23817W        W96077  17.782  30.580  13.438
23818W        W96078  33.015  31.922  14.277
23819W        W96079  16.025  28.582   1.335
23820W        W96080  16.786   7.295   1.337
23821W        W96081  21.224   4.572   2.179
23822W        W96082   7.629  31.554   2.404
23823W        W96083  31.076   4.014   2.616
23824W        W96084  22.179   9.359  12.535
23825W        W96085  40.357  30.077  10.889
23826W        W96086  36.394  30.723   4.833
23827W        W96087  39.238   2.762  13.869
23828W        W96088  38.836   0.533   4.941
23829W        W96089  13.361  33.464  13.840
23830W        W96090   9.338  36.521  11.117
23831W        W96091  23.814  27.571   1.670
23832W        W96092  24.087  35.968  13.722
23833W        W96093   1.441  41.757   2.835
23834W        W96094   2.472  17.027   2.222
23835W        W96095  39.196  31.310   0.363
23836W        W96096  32.489   1.714  11.214
23837W        W96097  13.656   6.905  14.107
23838W        W96098  31.438   2.846  13.634
23839W        W96099   0.310  41.037   0.358
23840W        W96100  11.510   6.667  10.265
23841W        W96101  44.856  17.315  12.076
23842W        W96102   8.169  32.856  10.705
23843W        W96103  31.758  31.009   0.211
23844W        W96104   3.596  11.242  14.328
23845W        W96105  40.795  39.874  14.818
23846W        W96106  17.603  21.218  11.587
23847W        W96107  10.906   3.135  12.026
23848W        W96108  33.135  11.443  11.044
23849W        W96109  23.629  40.543   2.691
23850W        W96110  18.531  14.633   4.077
23851W        W96111  23.494  29.509  14.010
23852W        W96112   6.879  41.534   2.239
23853W        W96113   5.181  14.253   2.001
23854W        W96114  33.612  20.179   1.317
23855W        W96115   8.415  30.419  12.313
23856W        W96116  14.701  44.103  11.547
23857W        W96117  20.551   5.735  14.543
23858W        W96118  27.989  26.663   1.249
23859W        W96119  31.019  28.137  10.268
23860W        W96120  41.950  24.245  13.354
23861W        W96121   5.753  30.827   2.373
23862W        W96122  41.758  30.889  12.634
23863W        W96123   9.424  40.981  14.234
23864W        W96124  13.450  36.801  11.608
23865W        W96125  21.819  19.103   3.126
23866W        W96126  15.089  28.396  12.507
23867W        W96127   1.862  21.082   0.914
23868W        W96128  27.486  44.004   2.412
23869W        W96129  17.702   8.766   3.881
23870W        W96130  28.208  30.512  11.137
23871W        W96131  25.035  40.592  13.989
23872W        W96132  11.569   1.828   1.851
23873W        W96133  11.145   1.219  11.202
23874W        W96134  20.053  44.486   0.489
23875W        W96135  27.612  14.915   2.920
23876W        W96136   3.864  19.254  12.518
23877W        W96137   1.869   2.705   3.720
23878W        W96138  16.165  26.564  10.205
23879W        W96139  43.392   9.080   2.765
23880W        W96140   0.321   6.745  10.362
23881W        W96141  39.524   2.336  13.705
23882W        W96142  28.957  32.418  11.707
23883W        W96143  30.142  27.127  13.803
23884W        W96144  35.978   3.745  12.184
23885W        W96145  37.442   6.858   0.869
23886W        W96146  25.002  13.732  12.053
23887W        W96147  19.509  12.664  10.987
23888W        W96148  29.699  23.127  13.521
23889W        W96149   2.361  27.456   4.073
23890W        W96150  39.967  20.105  13.765
23891W        W96151   2.238  43.840   2.331
23892W        W96152  22.231   9.225   2.400
23893W        W96153  20.681   9.790  10.434
23894W        W96154  33.184  44.779   1.764
23895W        W96155  17.145   6.118  11.171
23896W        W96156  20.524  14.131   1.644
23897W        W96157  39.031  37.298   0.530
23898W        W96158  12.659  16.883   2.210
23899W        W96159  16.778   7.989   3.581
23900W        W96160  25.179  21.745   0.711
23901W        W96161  28.103   5.148  11.437
23902W        W96162  11.420  33.937  11.022
23903W        W96163  38.571  20.450   3.679
23904W        W96164  43.863  29.672   1.262
23905W        W96165   6.066   6.753  11.073
23906W        W96166  38.854  44.767   1.534
23907W        W96167  12.252  17.473  11.003
23908W        W96168  25.948   0.557   2.527
23909W        W96169  44.240   2.286   2.943
23910W        W96170  20.479  16.666   3.783
23911W        W96171  10.255  43.798  14.363
23912W        W96172  25.696   4.400   2.783
23913W        W96173   8.585  41.367   1.755
23914W        W96174  29.222  30.559  11.075
23915W        W96175  26.123  25.554   1.957
23916W        W96176  18.268  30.445  12.089
23917W        W96177  20.058  28.687  14.378
23918W        W96178  29.913   5.897   3.148
23919W        W96179   8.649  43.704  12.083
23920W        W96180   9.392  15.680  10.925
23921W        W96181  30.723  30.495   1.341
23922W        W96182   7.289  22.784  14.846
23923W        W96183  20.470  40.610   1.748
23924W        W96184   9.859  43.257  14.096
23925W        W96185   6.907  22.039  11.912
23926W        W96186   2.788  17.197   1.836
23927W        W96187  14.144   6.617   4.700
23928W        W96188  22.654   5.393   1.384
23929W        W96189  12.255  29.419  11.509
23930W        W96190  20.811  44.259   0.637
23931W        W96191  17.604  41.436   4.203
23932W        W96192  10.219  21.592  11.631
23933W        W96193   1.337  37.327   3.745
23934W        W96194  42.840  33.312   0.670
23935W        W96195  15.204  22.081   1.448
23936W        W96196   5.335  12.331  12.767
23937W        W96197  21.876   3.947   3.610
23938W        W96198  33.914   9.894  11.169
23939W        W96199  28.934  23.568  14.378
23940W        W96200  21.563  14.144  12.866
23941W        W96201   3.976  27.373   0.267
23942W        W96202   4.887   4.904   2.808
23943W        W96203  33.609   0.872  14.556
23944W        W96204   5.955   0.461  14.304
23945W        W96205   4.260  29.958  12.830
23946W        W96206   9.287  40.911   2.098
23947W        W96207  37.365   9.670   3.921
23948W        W96208   1.267  11.138  10.524
23949W        W96209   1.287  36.146  12.534
23950W        W96210  22.601  17.181  11.709
23951W        W96211  32.390  30.125  14.618
23952W        W96212   8.520  29.030   3.325
23953W        W96213  28.158  21.195   3.058
23954W        W96214   6.230  15.672   3.071
23955W        W96215   6.258   7.203   3.202
23956W        W96216  36.942  43.569   0.969
23957W        W96217  43.140  40.425   0.566
23958W        W96218   1.276  43.258   4.897
23959W        W96219  21.685  16.584  12.203
23960W        W96220  30.697   7.915  13.547
23961W        W96221  21.068  26.596  10.219
23962W        W96222  14.807  13.201  10.554
23963W        W96223  27.898  11.293  11.215
23964W        W96224   7.752  39.610  14.019
23965W        W96225  42.363  37.282   0.756
23966W        W96226  34.988  25.478  12.655
23967W        W96227  33.497  10.893  14.532
23968W        W96228  32.549   9.672   4.469
23969W        W96229  43.795  41.472   2.419
23970W        W96230  44.074  38.645  11.097
23971W        W96231  42.400  15.303  11.641
23972W        W96232  37.592  24.012  14.945
23973W        W96233  44.856   0.432  13.023
23974W        W96234   8.206   5.213   0.801
23975W        W96235   0.162  18.275  14.926
23976W        W96236  38.306   8.363  11.178
23977W        W96237  40.390   4.897  12.320
23978W        W96238  32.523  25.683  14.459
23979W        W96239  30.981  42.267  11.981
23980W        W96240  21.858  11.061   1.790
23981W        W96241  36.968   2.647  12.086
23982W        W96242  38.130  32.060  12.083
23983W        W96243   8.511  32.522  13.992
23984W        W96244  34.826   5.601   4.038
23985W        W96245  25.716  36.895   0.391
23986W        W96246  12.403  10.851  12.338
23987W        W96247  13.200  43.923  10.783
23988W        W96248  15.302  39.882  10.662
23989W        W96249  34.290  19.629  13.596
23990W        W96250  42.855  30.836   3.832
23991W        W96251  15.783  17.732  12.446
23992W        W96252  36.583   9.746   1.759
23993W        W96253  21.072  34.446  13.314
23994W        W96254  10.360  13.817  14.267
23995W        W96255  17.228  27.974   4.452
23996W        W96256  39.459  28.177  10.923
23997W        W96257   6.518  30.927   3.700
23998W        W96258  21.899  14.785  12.243
23999W        W96259  40.619  33.924  14.921
24000W        W96260  41.885   4.294   2.945
24001W        W96261  18.255  39.961   2.596
24002W        W96262  21.666  29.892  10.718
24003W        W96263  22.219   3.208   2.345
24004W        W96264  35.646  11.906  11.781
24005W        W96265  21.941  44.314  13.074
24006W        W96266   5.763  38.053   3.269
24007W        W96267  35.286   5.913  11.369
24008W        W96268  31.784  30.910  10.316
24009W        W96269  24.513  25.226   4.610
24010W        W96270  13.375   1.189   2.800
24011W        W96271  23.506  16.879  11.941
24012W        W96272  10.058  39.851   3.736
24013W        W96273  10.484  40.196  13.056
24014W        W96274   6.727  43.976   2.778
24015W        W96275   8.429  31.817  14.987
24016W        W96276  37.877  39.934  12.464
24017W        W96277   7.836  18.283   1.489
24018W        W96278  40.448   1.448  12.445
24019W        W96279  18.571  16.659  10.748
24020W        W96280  32.178  42.984  12.366
24021W        W96281  21.167  37.605  11.950
24022W        W96282  10.593   9.730  10.893
24023W        W96283   3.125   9.272   3.233
24024W        W96284  27.930  19.020  11.019
24025W        W96285  44.360  27.036  10.881
24026W        W96286  34.508  42.374   1.209
24027W        W96287  39.921  15.942   2.333
24028W        W96288  11.389  36.771   2.685
24029W        W96289   7.350  31.148   2.166
24030W        W96290  33.033  28.162   1.012
24031W        W96291   5.278  31.368   3.933
24032W        W96292  18.515  31.166   3.728
24033W        W96293  26.407  25.629  14.456
24034W        W96294  34.888   0.753  13.822
24035W        W96295   9.604  28.669  12.553
24036W        W96296  42.106   9.803  12.049
24037W        W96297  43.268  14.846  14.725
24038W        W96298   1.400  16.675   4.076
24039W        W96299  26.033  23.253  10.687
24040W        W96300   1.508  33.226   2.967
24041W        W96301  31.747  38.492  12.918
24042W        W96302  43.636  20.641   4.553
24043W        W96303  13.622  25.004  11.146
24044W        W96304  14.376  13.387  11.846
24045W        W96305  10.292  15.081   4.533
24046W        W96306  38.307  38.070   0.407
24047W        W96307  18.636   3.250  10.693
24048W        W96308  38.558  44.707   4.841
24049W        W96309  17.264  25.429  14.449
24050W        W96310  41.483  29.143  11.598
24051W        W96311   9.705  22.306  14.381
24052W        W96312   9.666  22.455   4.196
24053W        W96313  25.007  28.620  13.234
24054W        W96314  41.349  19.503  13.921
24055W        W96315  20.969  14.297  11.497
24056W        W96316   0.547  36.547   0.081
24057W        W96317  16.113  19.942   4.977
24058W        W96318  10.727  31.121  13.453
24059W        W96319  30.083  24.753  13.373
24060W        W96320  37.870  13.650   0.521
24061W        W96321   4.370  38.100  14.324
24062W        W96322  41.395   5.429  12.120
24063W        W96323  42.699  16.243   0.952
24064W        W96324  19.658  36.821   1.378
24065W        W96325   6.328  35.600   4.511
24066W        W96326  22.967  40.937   1.338
24067W        W96327  36.272  36.349   3.739
24068W        W96328  26.082   5.876   1.166
24069W        W96329  23.563   6.402   4.529
24070W        W96330  15.277  21.191   2.744
24071W        W96331  31.493  38.465  14.220
24072W        W96332  18.341  16.783  12.065
24073W        W96333  17.103  29.814  12.889
24074W        W96334  30.606  28.189   4.963
24075W        W96335  43.444  12.042  11.584
24076W        W96336  28.597  14.524  13.432
24077W        W96337   2.485  29.483  11.123
24078W        W96338   1.779  20.310   1.746
24079W        W96339  10.507  28.577   0.786
24080W        W96340  17.316  30.365  13.437
24081W        W96341  28.775  39.521  12.630
24082W        W96342  18.300  31.101  14.994
24083W        W96343   8.450  22.118   1.138
24084W        W96344   3.463  42.290  11.540
24085W        W96345   5.136  40.143  11.644
24086W        W96346  20.813   0.863  14.979
24087W        W96347  18.061  39.093   2.878
24088W        W96348   8.134  23.042   4.085
24089W        W96349  30.455  42.033   2.662
24090W        W96350  10.366  36.080  14.802
24091W        W96351  37.323  39.185  11.561
24092W        W96352  30.580  15.332  14.360
24093W        W96353  28.182  13.189  14.451
24094W        W96354  27.253  26.957   0.007
24095W        W96355  25.424  19.975  11.099
24096W        W96356  41.861  40.516  14.087
24097W        W96357  27.005  38.575  14.912
24098W        W96358   3.088  13.634   1.373
24099W        W96359  13.990  39.491   1.301
24100W        W96360  43.689  24.275  11.572
24101W        W96361  44.696  13.956  10.463
24102W        W96362   6.707  31.524   0.757
24103W        W96363  14.088  21.013   4.176
24104W        W96364  21.592  42.555  14.344
24105W        W96365  19.735  28.413   3.268
24106W        W96366  34.817  27.676  14.962
24107W        W96367   6.766  33.837   0.245
24108W        W96368  36.602  31.890  13.870
24109W        W96369   6.687   9.604   2.742
24110W        W96370  40.098  44.787  14.798
24111W        W96371  42.116  11.855  11.311
24112W        W96372  34.146  37.561   1.256
24113W        W96373   5.680  29.166   1.132
24114W        W96374  14.147  20.767   1.934
24115W        W96375  11.661  26.020   3.228
24116W        W96376   5.295  42.254   0.824
24117W        W96377  20.679   7.681   2.212
24118W        W96378  24.653  11.756  14.567
24119W        W96379  17.708  44.464  14.332
24120W        W96380  37.807  43.857   3.330
24121W        W96381  32.216  32.428  10.899
24122W        W96382   0.394   2.747   3.951
24123W        W96383  32.733  38.388   3.514
24124W        W96384  36.999  10.197   1.366
24125W        W96385  40.358  18.817   2.908
24126W        W96386  37.766  42.512   1.744
24127W        W96387  21.263  15.745   3.154
24128W        W96388   1.056  42.100   2.784
24129W        W96389  31.556   0.935  13.119
24130W        W96390  31.360  23.500   3.234
24131W        W96391  42.444  28.189  13.305
24132W        W96392  21.873  43.571   2.287
24133W        W96393  37.465  31.630   0.008
24134W        W96394  34.355   5.840  12.737
24135W        W96395  34.811  21.755  13.791
24136W        W96396  29.699   6.251  12.872
24137W        W96397  23.531  42.455   0.876
24138W        W96398  29.557  20.795  10.744
24139W        W96399   6.303   4.436  13.468
24140W        W96400  26.521   5.301  11.871
24141W        W96401  36.997   7.420  11.246
24142W        W96402  20.190  29.941   1.673
24143W        W96403  34.490   3.938   4.514
24144W        W96404  10.072  44.118   1.111
24145W        W96405  26.788  26.079   0.771
24146W        W96406  39.799  12.229   3.176
24147W        W96407  13.150  40.302  12.554
24148W        W96408  27.266  32.047   2.342
24149W        W96409   8.237   7.390   0.755
24150W        W96410  25.008  29.866  12.680
24151W        W96411  32.030   7.963   2.603
24152W        W96412   4.761   4.618   3.732
24153W        W96413  16.896  35.826  10.547
24154W        W96414   5.360  22.261  13.184
24155W        W96415  28.053  11.939   4.033
24156W        W96416  36.915  28.549   2.108
24157W        W96417  22.025  33.719   1.563
24158W        W96418  33.046  44.939  14.431
24159W        W96419  29.308  33.062   0.418
24160W        W96420  11.581  42.629  13.940
24161W        W96421   5.527  27.165  11.949
24162W        W96422  34.564  27.053   2.839
24163W        W96423   4.488  43.003  11.398
24164W        W96424  33.747  32.335  10.967
24165W        W96425  38.001  36.320  12.557
24166W        W96426  18.269  30.947   1.494
24167W        W96427  40.262  44.701   3.607
24168W        W96428  10.663  43.760   3.772
24169W        W96429   8.821  24.416  13.280
24170W        W96430  15.602   7.040   4.986
24171W        W96431  41.433  41.965   1.384
24172W        W96432  34.757  36.044  11.524
24173W        W96433  37.450  25.352  12.118
24174W        W96434  43.294  26.796  14.390
24175W        W96435  32.206  12.793   4.895
24176W        W96436  14.142  29.887   0.070
24177W        W96437  21.129  35.149   1.756
24178W        W96438  16.553  32.949   3.759
24179W        W96439  40.450   3.825  14.278
24180W        W96440   6.789  27.753  12.302
24181W        W96441  24.054  34.384  11.069
24182W        W96442  14.119  12.068  13.933
24183W        W96443   2.293  28.041  14.792
24184W        W96444  27.095  11.778   3.776
24185W        W96445  42.819  40.294   4.541
24186W        W96446   5.188  36.153  13.056
24187W        W96447  44.164  42.502  11.154
24188W        W96448  41.499  40.924   2.607
24189W        W96449  14.854  17.647   0.033
24190W        W96450  39.773  27.016  10.734
24191W        W96451   8.772  32.576   4.152
24192W        W96452   3.211   8.646   1.823
24193W        W96453   3.019  27.292  11.574
24194W        W96454  19.996  17.585   3.574
24195W        W96455  24.784  39.698  12.183
24196W        W96456   7.112  42.650  13.054
24197W        W96457  30.020  22.836   1.416
24198W        W96458  12.040  28.047   5.015
24199W        W96459  28.920  44.779   0.194
24200W        W96460  15.135   3.835  11.317
24201W        W96461  21.833  40.790   0.724
24202W        W96462  40.909  42.585  14.033
24203W        W96463  44.790  38.166  12.598
24204W        W96464  44.061   9.681  11.424
24205W        W96465  26.090   9.507   3.000
24206W        W96466  21.601  16.571  14.548
24207W        W96467  30.014  13.016   3.187
24208W        W96468  44.938  12.197   0.662
24209W        W96469  12.203  21.001   3.214
24210W        W96470  42.289  15.317   1.894
24211W        W96471  22.387  15.016   2.825
24212W        W96472   4.737  37.055  13.611
24213W        W96473  16.231  44.457   3.880
24214W        W96474   7.993  29.002   3.290
24215W        W96475   4.091   3.291  11.288
24216W        W96476  14.745  35.020   3.899
24217W        W96477   1.905  39.422  13.727
24218W        W96478  42.301   0.053   4.380
24219W        W96479  36.376  17.125   4.761
24220W        W96480   6.986   5.467  14.009
24221W        W96481  14.254  32.211  12.722
24222W        W96482  17.861  44.503  10.129
24223W        W96483  32.076  15.803   1.398
24224W        W96484  35.414  20.573  10.644
24225W        W96485   4.563  11.604  13.583
24226W        W96486  31.792  17.665   4.861
24227W        W96487   6.944  21.105   0.729
24228W        W96488  36.849   2.063   0.878
24229W        W96489  35.742  17.411  11.099
24230W        W96490  39.810  39.366  14.187
24231W        W96491  40.502  40.701  13.388
24232W        W96492   1.004  39.839  12.152
24233W        W96493   1.399  19.226  13.517
24234W        W96494   1.237  20.171   3.003
24235W        W96495  36.403  27.081   2.816
24236W        W96496  18.046  12.191   4.364
24237W        W96497  32.152  15.727  14.077
24238W        W96498  26.391  44.616  12.429
24239W        W96499  34.395  27.454  14.494
24240W        W96500  22.637  16.698  12.995
24241W        W96501   4.511   9.890   3.760
24242W        W96502  40.470  27.661  12.520
24243W        W96503  30.983  30.788   3.207
24244W        W96504  39.538  30.559   1.712
24245W        W96505  15.469   0.940  12.091
24246W        W96506   3.258  34.325  12.288
24247W        W96507  19.172  22.135  12.187
24248W        W96508   6.807  34.006  11.183
24249W        W96509   9.935  30.567   3.581
24250W        W96510  35.779  25.759  11.582
24251W        W96511  22.601  28.831  10.183
24252W        W96512   3.597  32.340  11.504
24253W        W96513   4.875  20.089   1.794
24254W        W96514  32.435  43.467   4.017
24255W        W96515  21.203   9.275   2.343
24256W        W96516  12.225   3.180   3.653
24257W        W96517  34.481  43.571   4.758
24258W        W96518  14.189  15.499   4.674
24259W        W96519  17.739  24.456  12.475
24260W        W96520   1.338  44.167  12.842
24261W        W96521   8.658  44.477   3.965
24262W        W96522  38.492  12.229   4.852
24263W        W96523   0.036  14.039   4.453
24264W        W96524  23.236  26.011   5.509
24265W        W96525  39.507  12.170   0.813
24266W        W96526  30.211  18.395   2.584
24267W        W96527  21.092   6.678   1.296
24268W        W96528   4.810   6.725   1.886
24269W        W96529  34.010   3.738  11.975
24270W        W96530  31.075  26.748  13.967
24271W        W96531  34.346  30.368  11.205
24272W        W96532   0.947  38.949  10.168
24273W        W96533   4.191  40.986   3.202
24274W        W96534  42.027  37.854  13.858
24275W        W96535   5.006  19.566  12.036
24276W        W96536  23.497  31.466   4.550
24277W        W96537  21.613  12.289  12.566
24278W        W96538   5.830  38.354  13.395
24279W        W96539  12.449  36.030   0.652
24280W        W96540  27.871   6.108   2.267
24281W        W96541  36.827  13.165   0.004
24282W        W96542  41.019   9.792  13.745
24283W        W96543  11.623  23.117   2.305
24284W        W96544  24.945  35.849   0.566
24285W        W96545  26.077  16.135   2.674
24286W        W96546  35.943   6.925  13.585
24287W        W96547  17.944   0.345   3.670
24288W        W96548   0.668  33.335  13.095
24289W        W96549   1.010  43.347   0.318
24290W        W96550  11.214  17.159  11.569
24291W        W96551  19.156  10.965   2.387
24292W        W96552  36.305  29.140  13.302
24293W        W96553   6.862  18.657  11.153
24294W        W96554  20.607  20.585  11.483
24295W        W96555   0.192  13.515   0.282
24296W        W96556  15.705  33.609   0.416
24297W        W96557  10.600  43.456  11.630
24298W        W96558  29.894  30.741  11.520
24299W        W96559  40.357   5.591   2.752
24300W        W96560  16.477  16.602   0.826
24301W        W96561  41.298  29.934   0.533
24302W        W96562  24.508  40.088   4.558
24303W        W96563   3.650  44.557   2.254
24304W        W96564  23.984   5.390   2.992
24305W        W96565  14.557  10.482   2.439
24306W        W96566  11.716  37.346  13.438
24307W        W96567  29.078   7.243   3.448
24308W        W96568  23.268  11.943  11.078
24309W        W96569  23.662   6.675   2.460
24310W        W96570  11.791  29.395   0.414
24311W        W96571  42.594  24.029  12.247
24312W        W96572  12.058   3.644   4.087
24313W        W96573  31.063  33.950   2.659
24314W        W96574   0.060   4.239  12.497
24315W        W96575  12.878  40.847  12.016
24316W        W96576  36.519  33.035   1.399
24317W        W96577  11.565   4.889  12.047
24318W        W96578  10.671  10.168  13.477
24319W        W96579  43.301  16.650  11.157
24320W        W96580  20.208   8.002  10.225
24321W        W96581   0.183  26.536  11.377
24322W        W96582  12.591  36.541  13.536
24323W        W96583   7.140  34.588  12.703
24324W        W96584  20.779  20.148  14.877
24325W        W96585  43.816  42.147   0.300
24326W        W96586   2.532  15.161  11.922
24327W        W96587  13.773  36.919  12.048
24328W        W96588   3.783  42.270   1.325
24329W        W96589   5.953  31.368  13.872
24330W        W96590  39.059  10.225   3.118
24331W        W96591   6.809  14.854   0.176
24332W        W96592  18.284  29.459  10.667
24333W        W96593   9.726  25.475  14.964
24334W        W96594  38.896   7.682  10.918
24335W        W96595  29.273  12.870  10.963
24336W        W96596  41.603  42.547   4.087
24337W        W96597  37.467  34.353  13.362
24338W        W96598  41.955   3.380  14.350
24339W        W96599  16.342   8.178  13.982
24340W        W96600  26.272  11.799   4.838
24341W        W96601  29.643  29.701  12.858
24342W        W96602   1.513  20.038   1.377
24343W        W96603  39.476  41.968   1.460
24344W        W96604   1.503  16.642  12.130
24345W        W96605   0.031  15.754   0.733
24346W        W96606  23.578  36.909  10.947
24347W        W96607   0.316  14.176  14.296
24348W        W96608   6.369  23.045   1.216
24349W        W96609   1.873  44.242   2.236
24350W        W96610  37.946  27.138   1.879
24351W        W96611  15.522  10.654   1.316
24352W        W96612   7.791  14.400   0.747
24353W        W96613  10.136  16.781   3.762
24354W        W96614  25.058  13.339   0.327
24355W        W96615  44.269  16.222  12.629
24356W        W96616  36.964  12.388  12.431
24357W        W96617  28.186   7.040  14.009
24358W        W96618  35.997   6.273  10.971
24359W        W96619  39.977  10.463   3.754
24360W        W96620   9.049  41.241  12.177
24361W        W96621  31.833  24.528  14.982
24362W        W96622  26.220  37.401   3.753
24363W        W96623  33.542  38.439  12.723
24364W        W96624  15.034  29.363   0.239
24365W        W96625   5.134   6.749   2.284
24366W        W96626  10.275  34.940  14.937
24367W        W96627  12.198  27.473   3.785
24368W        W96628   7.138  10.731  12.142
24369W        W96629  44.892  11.387   3.081
24370W        W96630  38.453  16.181  11.649
24371W        W96631  32.164   8.147  13.500
24372W        W96632  28.696  21.256  12.565
24373W        W96633  20.455  32.966   0.647
24374W        W96634   3.869  44.378  11.796
24375W        W96635  39.992   0.512   1.363
24376W        W96636  27.700  26.132  14.029
24377W        W96637  10.466  12.851  10.769
24378W        W96638  19.170  33.649   3.087
24379W        W96639  25.890  28.476  12.032
24380W        W96640  41.069   3.294   4.586
24381W        W96641   9.155   1.414  12.139
24382W        W96642  35.378  41.749  14.042
24383W        W96643  37.566  24.860  12.023
24384W        W96644  34.407   7.856   4.551
24385W        W96645  44.880  42.449   4.181
24386W        W96646  38.304  41.374   1.792
24387W        W96647  34.449  22.612  14.472
24388W        W96648  35.749   0.203  14.251
24389W        W96649  40.936  15.610   3.660
24390W        W96650  33.576  26.649  13.359
24391W        W96651  38.013  31.929   2.203
24392W        W96652   3.697  19.115  13.974
24393W        W96653   3.477  15.971  14.911
24394W        W96654  40.804  30.506  12.028
24395W        W96655  10.279  30.592  12.421
24396W        W96656  44.158   6.264  14.300
24397W        W96657  20.773  11.396   4.614
24398W        W96658   3.369  22.704   2.920
24399W        W96659  18.207  28.048  11.039
24400W        W96660  36.114   3.629   3.873
24401W        W96661   8.804  18.793  13.024
24402W        W96662  36.317  36.516   2.849
24403W        W96663  28.519  31.980  14.387
24404W        W96664  17.629  30.171  14.752
24405W        W96665   0.900  13.576   4.197
24406W        W96666   4.228  10.942  14.308
24407W        W96667  18.110   3.777   0.372
24408W        W96668   1.049  33.677   3.678
24409W        W96669   1.296  43.460  10.782
24410W        W96670  33.031   2.527   3.317
24411W        W96671  40.552  39.447  13.104
24412W        W96672  23.278  37.418   1.708
24413W        W96673  19.125  27.235   3.186
24414W        W96674  34.099  20.898  14.028
24415W        W96675  41.421  27.838   4.338
24416W        W96676  20.847  27.410  11.099
24417W        W96677  28.520  17.755   3.732
24418W        W96678   7.214   4.710   3.702
24419W        W96679   7.652   0.072   1.266
24420W        W96680  34.169  15.697   1.857
24421W        W96681  41.907  14.800  14.307
24422W        W96682  42.900   0.932  13.851
24423W        W96683  24.929  17.692   3.329
24424W        W96684  18.252  30.402   3.668
24425W        W96685  23.630  36.046   1.756
24426W        W96686  11.746  42.311   0.868
24427W        W96687  24.582   1.276  11.889
24428W        W96688  43.030  32.452  11.193
24429W        W96689   5.829  25.953   5.652
24430W        W96690  12.771  26.944   1.365
24431W        W96691  41.457  32.458   0.947
24432W        W96692   6.208  16.160  12.481
24433W        W96693  23.586  25.438  11.448
24434W        W96694  33.833  34.467   0.584
24435W        W96695  29.141  13.365   2.815
24436W        W96696  10.149  34.483  11.015
24437W        W96697  43.365  25.632  14.288
24438W        W96698  42.873  22.081   4.735
24439W        W96699   5.615  10.844  12.503
24440W        W96700  38.937  16.157  14.579
24441W        W96701  34.488   6.269   2.829
24442W        W96702  24.104   6.795  11.619
24443W        W96703  15.331   8.903   3.667
24444W        W96704  36.709  42.016  12.835
24445W        W96705  13.207   6.031   3.766
24446W        W96706  31.932  34.008   4.132
24447W        W96707  36.001   9.255  13.933
24448W        W96708  18.328  42.251   4.157
24449W        W96709  44.911   5.216   1.056
24450W        W96710  37.597   9.260   4.655
24451W        W96711  19.335   2.972  13.475
24452W        W96712   4.832  24.451  13.817
24453W        W96713  38.607  42.772  14.915
24454W        W96714  11.586  27.402   1.589
24455W        W96715  17.374   6.641   2.126
24456W        W96716  20.288  38.922   2.801
24457W        W96717  40.723   0.406  13.394
24458W        W96718  38.528  14.837   2.278
24459W        W96719  44.498  41.346  14.580
24460W        W96720  43.519  32.738  14.621
24461W        W96721  35.195  11.745   1.053
24462W        W96722  24.554  25.826   2.942
24463W        W96723  32.519  38.105  13.903
24464W        W96724  22.215  35.497   1.523
24465W        W96725   8.410  20.588   4.129
24466W        W96726  11.153   2.154  12.141
24467W        W96727  31.359  40.941   4.809
24468W        W96728  28.515  42.556   4.769
24469W        W96729  22.318  18.276   4.115
24470W        W96730  29.015  25.616   4.534
24471W        W96731   1.500  30.515  12.377
24472W        W96732   9.118  37.318  13.878
24473W        W96733  26.369  30.574   4.281
24474W        W96734   6.784   3.450  10.758
24475W        W96735  14.125  27.961  13.980
24476W        W96736  13.470  30.045   4.202
24477W        W96737   7.272  32.628   0.439
24478W        W96738  32.827   7.256   3.142
24479W        W96739   8.380  18.147   0.922
24480W        W96740  18.440  23.274  13.500
24481W        W96741   9.440   8.124   2.805
24482W        W96742  23.293   9.656   2.310
24483W        W96743  25.979   2.455  11.578
24484W        W96744  44.233  18.707   0.469
24485W        W96745   1.837   9.343   2.376
24486W        W96746  38.155  17.706   0.779
24487W        W96747  41.700  25.255  12.340
24488W        W96748  36.121  44.291  14.260
24489W        W96749  10.600  36.886   3.825
24490W        W96750  37.973  38.328  14.317
24491W        W96751  18.171  44.010   3.328
24492W        W96752  44.071   0.528   1.041
24493W        W96753  29.421  41.252   4.945
24494W        W96754   8.548  33.674   2.827
24495W        W96755  23.246  42.017  12.376
24496W        W96756  31.791  31.565  12.255
24497W        W96757   8.179  31.470  11.131
24498W        W96758  17.044  33.976  12.548
24499W        W96759  30.860  31.326  12.104
24500W        W96760  36.882  17.141  13.647
24501W        W96761  43.974   6.536  11.582
24502W        W96762  28.482  17.101  11.537
24503W        W96763  23.516   3.849  14.318
24504W        W96764  32.872  32.516   3.792
24505W        W96765  17.989   2.243  12.884
24506W        W96766  27.535   6.513   3.849
24507W        W96767   5.859  34.431   4.952
24508W        W96768  13.678  14.253  12.801
24509W        W96769  15.086  21.483   2.330
24510W        W96770  36.533  31.383  13.921
24511W        W96771  18.114  39.108   4.501
24512W        W96772   9.674  11.364   4.046
24513W        W96773  28.587  11.715  13.602
24514W        W96774  43.520   7.230   4.094
24515W        W96775  44.809   2.390  10.702
24516W        W96776  22.792   2.810   3.629
24517W        W96777  42.811  31.583  11.640
24518W        W96778  33.445  20.959   3.334
24519W        W96779  25.996  12.628   4.952
24520W        W96780  19.732   6.766  12.286
24521W        W96781  21.680  24.094   2.413
24522W        W96782  10.456  27.414  13.990
24523W        W96783  12.244  41.297   4.177
24524W        W96784  43.547  42.563  12.096
24525W        W96785  15.936  40.539   5.196
24526W        W96786  18.305  12.446  13.725
24527W        W96787  30.812  34.725  13.803
24528W        W96788  13.357  10.309   2.752
24529W        W96789  12.380  28.264   9.747
24530W        W96790  32.619  39.211   2.297
24531W        W96791  24.477  26.675   3.149
24532W        W96792  11.587  20.548   0.223
24533W        W96793   0.747  39.386   0.039
24534W        W96794  20.300   1.765  12.610
24535W        W96795   5.237  13.194   0.927
24536W        W96796  44.968  22.634   4.666
24537W        W96797  17.156  22.683  10.727
24538W        W96798  40.412  13.204  13.941
24539W        W96799   5.697   5.269   2.993
24540W        W96800  12.122   8.702   2.000
24541W        W96801   1.122  41.327   1.894
24542W        W96802  38.856  20.696  12.051
24543W        W96803  34.292  15.302  12.033
24544W        W96804   1.737  31.728  13.038
24545W        W96805  28.754  20.585  10.996
24546W        W96806  35.975  43.265  13.618
24547W        W96807   5.949  20.580  11.039
24548W        W96808  19.137   3.740  12.055
24549W        W96809  18.762  18.046   3.184
24550W        W96810  41.200  31.571  12.983
24551W        W96811  14.651  11.406  13.058
24552W        W96812  23.751  12.239   2.409
24553W        W96813   9.397  17.045   0.501
24554W        W96814  41.846  21.655   2.384
24555W        W96815   8.963   8.061   2.605
24556W        W96816  44.268  31.452   0.048
24557W        W96817  39.240  10.589  11.863
24558W        W96818   9.424  18.544  11.538
24559W        W96819  25.917  22.805   3.757
24560W        W96820   5.413  40.387  12.053
24561W        W96821  11.681  33.992  10.543
24562W        W96822  12.634  32.267  12.162
24563W        W96823   1.257  23.776   2.471
24564W        W96824  30.771  44.857   4.874
24565W        W96825   0.503  44.358  11.045
24566W        W96826  42.362  11.075  12.983
24567W        W96827  23.423   5.463   1.814
24568W        W96828  38.933  28.585   1.391
24569W        W96829  42.227  36.930  14.005
24570W        W96830  21.500  28.660  12.083
24571W        W96831  40.885  13.855  12.142
24572W        W96832  39.533   6.828   4.545
24573W        W96833   5.335   4.917   4.596
24574W        W96834  44.227  43.580   1.183
24575W        W96835   8.048   9.593   2.198
24576W        W96836  44.761  29.197  13.938
24577W        W96837  23.708   5.148   3.361
24578W        W96838  21.017  24.101  14.338
24579W        W96839   3.993  17.876  12.870
24580W        W96840  21.790  23.930  12.934
24581W        W96841  18.265  24.313  14.384
24582W        W96842  13.508  20.659   3.356
24583W        W96843  26.534  11.354  10.702
24584W        W96844  43.547  26.029  13.402
24585W        W96845  26.944   6.729  14.458
24586W        W96846  23.686  20.805   0.584
24587W        W96847   6.840  20.616   0.895
24588W        W96848   1.051  35.730   0.456
24589W        W96849   2.693  41.355   2.251
24590W        W96850  27.661  15.827   2.878
24591W        W96851  30.021  39.852  12.769
24592W        W96852  14.127  33.694   3.250
24593W        W96853  40.869  26.575  11.595
24594W        W96854  32.974  14.617   3.123
24595W        W96855  19.528  42.132   3.676
24596W        W96856  36.038  42.718   2.791
24597W        W96857   3.022  43.939   1.896
24598W        W96858  27.993  33.064   4.022
24599W        W96859  15.613  30.974  14.907
24600W        W96860  12.705  33.849   0.333
24601W        W96861  42.013  31.045   3.375
24602W        W96862  28.548  43.396   4.022
24603W        W96863  10.762  38.842  11.505
24604W        W96864  13.439  42.741   0.057
24605W        W96865  19.590  37.291  12.514
24606W        W96866  31.203  25.971  11.652
24607W        W96867   5.743  14.731   2.251
24608W        W96868  12.225  35.924  14.685
24609W        W96869  15.658  29.424   1.075
24610W        W96870  25.884  22.831   0.241
24611W        W96871  35.950  12.076   0.649
24612W        W96872  33.023  12.829   2.751
24613W        W96873   5.721  26.072  13.480
24614W        W96874  14.028  23.246  12.147
24615W        W96875  13.318  14.073   1.426
24616W        W96876  20.505  12.768   3.070
24617W        W96877  17.296  37.452  11.090
24618W        W96878   8.885   5.803   0.041
24619W        W96879   5.899   1.716   2.196
24620W        W96880  36.314  42.801   4.547
24621W        W96881  32.118  18.110  11.591
24622W        W96882  43.873   5.828   1.728
24623W        W96883  19.667  31.042   1.914
24624W        W96884  34.482  32.016   3.171
24625W        W96885   2.980  35.823   0.812
24626W        W96886  27.458  43.384  12.445
24627W        W96887  20.269   8.484   3.360
24628W        W96888   0.978  19.769   9.773
24629W        W96889  30.146  17.758  13.284
24630W        W96890  33.188  19.145  13.307
24631W        W96891  36.007  14.626  12.952
24632W        W96892  16.310  30.110   0.040
24633W        W96893  17.043  23.766   0.753
24634W        W96894  37.411  27.562   2.446
24635W        W96895   2.204  27.645   1.291
24636W        W96896   2.849  37.198   2.613
24637W        W96897  28.561  21.627   2.474
24638W        W96898  28.381  11.149   1.751
24639W        W96899  32.219  28.221  10.542
24640W        W96900  30.937  21.334   1.407
24641W        W96901  25.246  14.228  10.657
24642W        W96902  27.428  15.911  14.370
24643W        W96903  36.494  44.435   1.305
24644W        W96904  25.300  33.161  12.657
24645W        W96905  23.004  11.700  14.880
24646W        W96906  23.489  20.802   2.805
24647W        W96907  12.693  14.209  14.873
24648W        W96908  32.468   6.002  14.014
24649W        W96909  43.865   3.465   2.634
24650W        W96910  22.981   4.609  10.119
24651W        W96911  37.424  23.017   1.160
24652W        W96912  29.106  36.864   0.418
24653W        W96913  13.605  14.766   4.708
24654W        W96914   4.383  32.440   0.773
24655W        W96915   9.858  19.985   0.435
24656W        W96916  33.357  23.490  14.104
24657W        W96917   8.209  43.936   2.293
24658W        W96918  24.560  39.829  10.739
24659W        W96919  27.488  33.091   3.882
24660W        W96920  41.845  44.039  13.806
24661W        W96921  26.994  28.638   1.444
24662W        W96922   6.651  11.619   4.552
24663W        W96923  39.698  10.410  12.024
24664W        W96924  28.638  35.922  14.513
24665W        W96925  13.603  12.176   1.331
24666W        W96926  22.134  35.678   1.033
24667W        W96927  15.172  10.914  11.568
24668W        W96928  35.363  14.491  11.951
24669W        W96929  28.147  26.453   4.958
24670W        W96930  23.113  22.006  11.512
24671W        W96931  12.130  36.438  11.578
24672W        W96932  15.432  26.990   0.498
24673W        W96933  13.330  40.605   2.258
24674W        W96934  38.480   1.921   3.208
24675W        W96935   9.972  38.039  13.422
24676W        W96936  19.595  44.870   4.191
24677W        W96937  25.072  30.474  11.467
24678W        W96938  35.036  35.489  13.940
24679W        W96939   8.628  37.887   3.205
24680W        W96940  37.292  24.747   1.834
24681W        W96941  37.966  34.362   0.023
24682W        W96942   6.485  25.520   1.461
24683W        W96943  12.030   6.010  10.804
24684W        W96944  18.478  44.353  10.023
24685W        W96945  27.107   1.647   4.588
24686W        W96946   3.885  18.610  13.873
24687W        W96947  32.767  39.776   3.634
24688W        W96948  42.374  16.157   4.126
24689W        W96949  25.043  39.530  11.210
24690W        W96950  34.257   3.392  10.437
24691W        W96951   9.302  11.786  14.026
24692W        W96952   5.263  13.619  14.908
24693W        W96953   0.940  37.493   1.583
24694W        W96954   5.738  17.690   0.399
24695W        W96955  18.280  21.975  14.403
24696W        W96956  15.560   1.394   2.585
24697W        W96957  33.340   9.305  12.267
24698W        W96958  34.805  16.109   1.139
24699W        W96959  41.479  34.874   0.459
24700W        W96960  43.208  18.839  10.286
24701W        W96961   7.869   9.230  11.233
24702W        W96962  20.043  27.621  11.053
24703W        W96963  41.868   8.087   0.037
24704W        W96964  31.182  15.261  11.589
24705W        W96965  13.513  12.332   3.997
24706W        W96966  18.337  34.642   4.592
24707W        W96967  18.961  24.480  10.803
24708W        W96968  42.979  25.960  14.409
24709W        W96969   3.830   3.664   4.106
24710W        W96970  31.566  15.498   1.995
24711W        W96971  19.791  20.482   2.328
24712W        W96972  22.769  33.471  11.535
24713W        W96973  19.336  18.694  10.793
24714W        W96974  15.712  22.538   3.772
24715W        W96975  44.206  42.867   2.775
24716W        W96976  24.614  27.532   1.389
24717W        W96977   5.811   4.476  10.662
24718W        W96978  19.002  22.669   2.189
24719W        W96979  44.732   2.832   4.634
24720W        W96980  33.644  17.431   0.852
24721W        W96981  32.857  44.332   4.108
24722W        W96982   6.359  18.485  11.017
24723W        W96983   9.746  30.872  13.366
24724W        W96984  34.085  25.434  12.415
24725W        W96985  40.228  40.813   4.276
24726W        W96986  31.049   6.812   3.547
24727W        W96987  30.449   2.500   3.869
24728W        W96988  17.416  27.444   0.951
24729W        W96989  18.036   7.169  11.244
24730W        W96990  33.513   5.700   3.704
24731W        W96991  28.938  21.282   2.461
24732W        W96992  22.951  23.498   3.509
24733W        W96993  20.844  39.352   3.418
24734W        W96994   7.035   2.321   1.820
24735W        W96995  29.528  18.677   2.505
24736W        W96996  24.946  24.479  12.256
24737W        W96997   0.968  22.278  11.583
24738W        W96998  24.821  19.193   1.469
24739W        W96999  39.944  26.989   5.012
24740W        W97000  34.165  10.820   1.319
24741W        W97001  37.767  23.041   2.913
24742W        W97002   4.365  34.872   2.307
24743W        W97003  27.684  38.901  10.909
24744W        W97004  13.608   8.281   0.219
24745W        W97005  32.613   2.436  14.232
24746W        W97006   8.251  42.437  14.450
24747W        W97007  26.197   8.990   3.025
24748W        W97008   4.225  27.972   9.991
24749W        W97009  37.650  15.673  11.372
24750W        W97010  43.176   9.114  10.691
24751W        W97011   5.716  13.175  12.054
24752W        W97012  18.629   5.853   2.915
24753W        W97013  44.014  36.572   2.279
24754W        W97014  19.619  38.345  14.539
24755W        W97015   8.226   7.920  14.497
24756W        W97016   9.446  35.079   0.378
24757W        W97017  32.080   9.300   3.736
24758W        W97018  31.121   8.437   3.258
24759W        W97019  43.267  39.007  12.532
24760W        W97020  37.889   7.708  14.638
24761W        W97021   7.844  31.613  13.438
24762W        W97022  21.187   0.097  14.261
24763W        W97023  44.876  20.743  10.595
24764W        W97024  14.196  26.922  10.852
24765W        W97025  20.579  25.641  12.633
24766W        W97026   0.912  12.185  10.924
24767W        W97027  17.779  25.823   2.932
24768W        W97028  24.041  29.755  14.158
24769W        W97029  27.992   5.418  13.995
24770W        W97030  21.510  20.015   0.675
24771W        W97031  41.120   1.566  11.605
24772W        W97032  17.278  44.199  14.495
24773W        W97033  19.763   0.031  13.057
24774W        W97034  23.494  31.436   3.646
24775W        W97035  26.176  10.957   4.175
24776W        W97036  15.638  13.887   2.168
24777W        W97037  39.492  29.415   3.990
24778W        W97038  28.567  44.510   1.656
24779W        W97039  13.447  25.787   3.643
24780W        W97040  28.912  22.297  12.984
24781W        W97041   1.024   8.116  14.974
24782W        W97042  21.079  28.026   3.843
24783W        W97043  39.366   3.176   0.754
24784W        W97044  14.427   3.785  10.576
24785W        W97045  16.147  44.523  11.581
24786W        W97046  41.178   1.850   0.205
24787W        W97047   1.495   5.731   1.339
24788W        W97048  16.264  10.229   3.379
24789W        W97049  13.877  12.688  11.079
24790W        W97050   5.678  17.819   2.851
24791W        W97051  31.056  10.012  11.102
24792W        W97052  30.878  21.624  14.679
24793W        W97053  16.126  14.935   4.477
24794W        W97054   3.934  19.963   0.185
24795W        W97055   7.255  44.793  10.938
24796W        W97056  26.186   6.915  11.357
24797W        W97057  42.266  40.343   2.804
24798W        W97058  21.276  21.032  12.515
24799W        W97059  34.139  14.647   1.016
24800W        W97060  20.507  15.378   1.384
24801W        W97061   4.738  12.776  11.555
24802W        W97062   4.903  31.162   2.659
24803W        W97063  36.437  33.504   1.640
24804W        W97064   1.900  17.964   0.404
24805W        W97065   1.984   3.241   0.757
24806W        W97066  35.123  16.716   1.867
24807W        W97067   1.168  33.098  13.375
24808W        W97068   9.017  36.585   2.904
24809W        W97069  29.084  41.783   0.120
24810W        W97070   0.203  11.630  12.135
24811W        W97071  37.103  19.630  14.463
24812W        W97072  35.916   1.084   0.477
24813W        W97073   3.188  17.655  11.109
24814W        W97074  26.108  10.008  11.182
24815W        W97075  11.743  14.324   0.294
24816W        W97076  30.684   3.823  14.354
24817W        W97077  36.864   8.662  13.039
24818W        W97078   6.895  21.648   2.812
24819W        W97079  13.314  35.174   3.265
24820W        W97080  29.629   2.400  11.603
24821W        W97081  39.010  18.746   0.247
24822W        W97082  23.703  43.756  13.911
24823W        W97083   4.176  25.162   2.848
24824W        W97084   0.166  25.853   2.584
24825W        W97085  22.609  42.231  11.264
24826W        W97086  14.813   7.869  11.249
24827W        W97087  17.659  43.459  12.779
24828W        W97088  14.377  23.497  13.941
24829W        W97089  38.784   7.904  13.949
24830W        W97090   9.944  38.779   0.531
24831W        W97091   0.400  16.003   2.238
24832W        W97092  22.951   3.819  10.723
24833W        W97093  29.579  12.212   0.138
24834W        W97094  29.994  16.193   0.907
24835W        W97095  20.120  18.349  14.873
24836W        W97096   9.179   5.954   0.461
24837W        W97097  42.987  36.631  14.723
24838W        W97098  21.789  25.208  11.114
24839W        W97099  30.335  22.553  10.719
24840W        W97100  39.528  26.053   1.275
24841W        W97101  30.999  15.151   4.660
24842W        W97102   9.775  17.045  11.833
24843W        W97103  42.277   2.031  10.641
24844W        W97104  16.609  36.381   1.079
24845W        W97105   4.921  11.514   0.781
24846W        W97106   2.998   9.890   1.257
24847W        W97107  26.227  33.474  12.961
24848W        W97108  38.838  19.328   0.773
24849W        W97109  27.753  15.392   1.669
24850W        W97110   4.705  19.526   2.877
24851W        W97111  12.546  29.729  12.853
24852W        W97112   0.553   3.460   5.111
24853W        W97113  25.004  17.687  13.859
24854W        W97114  13.749  29.408   2.828
24855W        W97115  36.437  14.639   2.295
24856W        W97116   2.874  15.811   2.569
24857W        W97117  10.673  13.351  13.175
24858W        W97118  30.869  37.227   4.916
24859W        W97119  38.701  35.416   0.758
24860W        W97120  33.171   6.788  11.387
24861W        W97121  26.530  42.926  14.912
24862W        W97122   2.957  41.888  13.938
24863W        W97123  31.075  31.801  12.965
24864W        W97124   9.906  40.348  12.019
24865W        W97125  24.571  32.888  11.020
24866W        W97126  26.805  34.326  11.002
24867W        W97127  42.761  34.671  13.628
24868W        W97128  11.236  42.441   3.700
24869W        W97129  43.677   8.900   2.366
24870W        W97130  17.961  32.543   4.167
24871W        W97131  42.100  30.955  12.185
24872W        W97132  43.303  40.521   4.634
24873W        W97133  20.028  35.900   3.588
24874W        W97134  14.779  44.494   4.472
24875W        W97135  19.115   7.197  11.888
24876W        W97136  13.861  33.999  10.746
24877W        W97137  33.341   3.373  11.484
24878W        W97138  38.941  39.169   4.378
24879W        W97139  11.769   5.662   2.687
24880W        W97140  23.124  43.419   4.601
24881W        W97141  35.463  28.260  12.443
24882W        W97142  16.190  24.216   3.202
24883W        W97143  32.419  13.257   3.218
24884W        W97144  35.654   1.779  11.224
24885W        W97145  33.950  24.107  10.435
24886W        W97146  41.111  28.929   0.876
24887W        W97147   8.290  27.151   4.808
24888W        W97148  12.130  21.733   4.066
24889W        W97149   2.943  34.958   4.168
24890W        W97150   9.210   5.378  14.488
24891W        W97151  11.214  41.090   4.316
24892W        W97152  13.123  37.557   1.932
24893W        W97153  42.856   9.848   4.171
24894W        W97154   0.556   6.255  13.785
24895W        W97155  36.236  37.082   3.291
24896W        W97156  38.083  35.043   4.591
24897W        W97157   3.710  34.561   4.150
24898W        W97158  13.589   7.778  11.940
24899W        W97159  39.799  36.041   1.449
24900W        W97160  27.088  39.987   5.358
24901W        W97161  22.504  33.541   1.729
24902W        W97162   9.681  42.517   1.739
24903W        W97163  23.458   0.038   4.166
24904W        W97164  14.870   3.120   0.288
24905W        W97165  42.809  19.067   4.277
24906W        W97166   4.550  28.525  12.943
24907W        W97167  28.905  27.142  13.438
24908W        W97168  32.333  30.912   1.415
24909W        W97169  23.049  21.718  13.574
24910W        W97170  36.433   1.703  10.789
24911W        W97171   2.969  21.530  11.591
24912W        W97172  37.773  31.988   1.745
24913W        W97173  19.251  25.337  11.062
24914W        W97174  10.408  32.598  12.522
24915W        W97175  13.130  29.505   0.903
24916W        W97176  27.614  37.166  12.175
24917W        W97177  36.389   8.592   3.750
24918W        W97178  44.937  18.935   1.540
24919W        W97179   9.239  15.430   2.423
24920W        W97180  40.451   7.982  10.643
24921W        W97181  34.567  28.439   4.275
24922W        W97182  26.526  14.464  12.548
24923W        W97183   8.702  29.492  14.554
24924W        W97184  10.749  29.535   3.154
24925W        W97185   2.040  44.233   2.766
24926W        W97186  44.740  26.515  12.381
24927W        W97187  25.109  37.447  13.508
24928W        W97188  20.824  24.618  13.816
24929W        W97189  14.931  10.959   4.894
24930W        W97190  42.805  35.454  11.750
24931W        W97191  44.356  43.752  12.463
24932W        W97192   3.726  24.733   0.320
24933W        W97193  32.194  22.649  10.268
24934W        W97194  20.808   6.898   1.705
24935W        W97195  35.953  31.111   1.954
24936W        W97196  31.066  21.446   2.753
24937W        W97197  14.498  24.812   5.376
24938W        W97198  22.562  25.456   4.060
24939W        W97199   6.306  15.271  12.439
24940W        W97200   0.817   3.755  12.001
24941W        W97201  40.376  32.958   3.653
24942W        W97202  42.828  25.304   4.315
24943W        W97203  37.668  24.170   1.308
24944W        W97204  26.678  16.008   4.075
24945W        W97205  33.578  34.808   1.435
24946W        W97206  18.103   1.536   0.039
24947W        W97207  13.963  26.788  14.427
24948W        W97208  13.756  28.142   2.307
24949W        W97209  29.767  18.789   5.054
24950W        W97210  12.670  27.684  13.772
24951W        W97211  22.147   8.316   4.436
24952W        W97212  41.903   1.655  10.640
24953W        W97213  35.953  12.926  11.410
24954W        W97214   2.332   2.875   3.580
24955W        W97215  24.163  16.317  14.272
24956W        W97216  10.286  11.407   0.031
24957W        W97217  22.222  14.808  13.635
24958W        W97218  43.275  41.916   2.835
24959W        W97219   1.017  15.253   2.156
24960W        W97220  15.120   5.436   0.435
24961W        W97221  21.686  35.506  11.916
24962W        W97222  16.187  32.509   1.417
24963W        W97223  43.760   4.420   1.332
24964W        W97224  35.126  24.433   1.815
24965W        W97225  39.520  19.591  12.742
24966W        W97226  33.011   8.685  13.321
24967W        W97227   5.001  33.551  11.602
24968W        W97228  38.974  14.236   2.787
24969W        W97229   0.840  21.475  11.164
24970W        W97230   7.961   0.745   2.278
24971W        W97231  26.470   9.011   1.375
24972W        W97232  30.356  10.404  13.723
24973W        W97233  13.568  36.355  13.240
24974W        W97234  20.184  39.473   4.643
24975W        W97235  21.733  36.387   4.454
24976W        W97236  28.064   8.882   1.324
24977W        W97237   9.371  10.515  14.469
24978W        W97238  20.946  29.070  13.093
24979W        W97239   8.409  31.736  12.520
24980W        W97240  27.147  13.737   1.792
24981W        W97241  24.425   2.766  11.948
24982W        W97242  39.317   2.975  10.666
24983W        W97243  38.403   0.862  13.355
24984W        W97244  30.923  38.870   2.840
24985W        W97245  33.432  42.613   4.624
24986W        W97246  38.604   9.454   1.156
24987W        W97247  26.100  29.079  14.255
24988W        W97248  20.603  23.354  10.819
24989W        W97249  33.357   8.184   4.121
24990W        W97250  42.859  15.279   0.844
24991W        W97251  43.381  41.795  13.247
24992W        W97252   1.016  10.619   3.163
24993W        W97253  24.254  23.033  13.384
24994W        W97254  11.633  40.281  11.150
24995W        W97255  13.098   6.426   1.816
24996W        W97256  33.084  32.731  12.023
24997W        W97257  29.223   1.439   4.471
24998W        W97258  38.931  10.976   2.795
24999W        W97259   7.737  24.059   0.856
25000W        W97260  20.540  44.430  10.719
25001W        W97261   4.187  38.151   2.328
25002W        W97262  43.849  19.349  11.914
25003W        W97263  32.583  29.183  14.496
25004W        W97264  17.237  24.428   3.748
25005W        W97265   1.299  14.890   0.987
25006W        W97266  11.244  44.298   2.281
25007W        W97267   5.743  19.714   4.015
25008W        W97268  31.112  40.801  14.525
25009W        W97269  25.532  24.446   4.050
25010W        W97270  29.626  39.915  11.132
25011W        W97271  29.654  19.261   3.737
25012W        W97272   9.440  29.491   1.806
25013W        W97273   4.554  13.742   1.750
25014W        W97274  16.433  37.460  10.780
25015W        W97275  31.007  18.865   1.000
25016W        W97276   9.082   3.898  10.465
25017W        W97277  31.568  12.137   2.696
25018W        W97278  42.050   4.730   1.774
25019W        W97279  21.111  16.813  14.307
25020W        W97280   4.546  13.680  11.185
25021W        W97281  39.628   3.145  11.627
25022W        W97282  27.969  12.926  14.887
25023W        W97283   9.734   7.482  14.822
25024W        W97284  39.418  14.081  12.483
25025W        W97285   1.930  24.760  12.030
25026W        W97286  42.758   4.922   0.682
25027W        W97287  11.957  15.075  14.280
25028W        W97288  42.338  41.939  10.478
25029W        W97289   7.412  35.783  13.344
25030W        W97290  31.600   7.823   1.127
25031W        W97291  20.017  39.560  11.661
25032W        W97292  39.877  25.201   1.367
25033W        W97293  37.134   5.209  14.550
25034W        W97294  14.111  36.505  11.049
25035W        W97295  44.325  17.541   1.861
25036W        W97296  43.577   1.389   3.714
25037W        W97297   2.681   3.163  13.383
25038W        W97298  42.544  26.996   3.299
25039W        W97299   1.836  30.219  12.747
25040W        W97300  31.494  22.839  14.715
25041W        W97301  43.846  17.043   2.269
25042W        W97302   3.341   2.341   1.272
25043W        W97303  22.528  19.351   2.303
25044W        W97304  30.466  26.580  12.586
25045W        W97305  39.960   3.830  12.134
25046W        W97306  32.079  33.023  12.615
25047W        W97307  43.767  17.596  11.519
25048W        W97308  14.608  22.203   2.138
25049W        W97309  32.963   0.109  13.535
25050W        W97310   4.338  35.768   2.223
25051W        W97311  24.575  20.258  10.738
25052W        W97312  12.095  26.430  11.950
25053W        W97313  17.849  35.790  12.034
25054W        W97314  44.284   2.768   1.174
25055W        W97315  14.346  20.697   0.083
25056W        W97316   9.772  27.191  12.918
25057W        W97317  38.499  21.040   1.705
25058W        W97318  11.238  41.754   3.163
25059W        W97319  14.715  41.395   4.576
25060W        W97320   7.674  36.310   1.122
25061W        W97321   8.774  22.160   2.626
25062W        W97322   9.168  33.008   3.625
25063W        W97323  40.938   9.582  10.597
25064W        W97324  13.816   3.354   4.074
25065W        W97325  33.233  36.294  14.264
25066W        W97326  39.949  16.640  14.836
25067W        W97327  23.763  10.894  12.879
25068W        W97328  18.521  36.768  11.453
25069W        W97329   7.202  13.361   1.270
25070W        W97330   3.525  10.375  11.536
25071W        W97331  15.396  42.018  14.912
25072W        W97332  22.222  33.866   2.072
25073W        W97333  38.830  20.240   1.254
25074W        W97334  36.655  18.136   2.167
25075W        W97335   2.950  18.847   2.816
25076W        W97336  15.439  40.047  14.847
25077W        W97337  30.110  35.051  14.284
25078W        W97338   1.711  24.628   4.353
25079W        W97339  10.301   4.053   4.697
25080W        W97340   4.892  34.544  10.693
25081W        W97341  40.282  18.124  13.084
25082W        W97342  27.924  42.050  12.389
25083W        W97343  15.510   9.629  11.306
25084W        W97344   0.541   4.361  14.227
25085W        W97345  23.018   3.993   2.217
25086W        W97346  40.343  43.849  10.703
25087W        W97347  19.584  20.856  10.585
25088W        W97348  12.026  17.307   0.404
25089W        W97349  15.037  37.081   4.133
25090W        W97350  11.643  35.378   0.356
25091W        W97351   8.676  36.973   3.636
25092W        W97352   4.727  35.238  14.254
25093W        W97353  24.924   7.726   3.256
25094W        W97354   2.744  20.103   1.846
25095W        W97355   8.575  29.064  13.428
25096W        W97356   1.863  15.358  12.372
25097W        W97357  28.383  14.639  14.471
25098W        W97358  44.325  33.512   3.268
25099W        W97359  18.074  33.617   2.772
25100W        W97360   7.912  40.371  11.733
25101W        W97361  25.519  33.524  12.371
25102W        W97362  27.594  32.556  14.305
25103W        W97363  38.053   7.601   0.161
25104W        W97364  40.867  28.068  10.768
25105W        W97365  10.759  23.555   1.537
25106W        W97366  19.708  24.588   0.658
25107W        W97367   9.194   6.825  14.387
25108W        W97368   2.334  33.093   4.682
25109W        W97369   8.657  11.778   2.296
25110W        W97370  10.064  35.816  12.896
25111W        W97371   1.243  23.550   3.410
25112W        W97372  19.084  44.431   0.097
25113W        W97373  24.733  12.563   4.487
25114W        W97374  33.137  25.543  12.447
25115W        W97375  30.388   2.682  11.883
25116W        W97376  33.665   3.443   3.560
25117W        W97377  25.028  22.953  14.688
25118W        W97378  28.418  20.940   1.216
25119W        W97379  23.735  34.116   0.710
25120W        W97380   4.018  22.105   0.999
25121W        W97381  22.178   3.477   1.907
25122W        W97382  22.305  20.475   2.161
25123W        W97383  36.747   7.618   4.947
25124W        W97384   7.104  21.701   0.892
25125W        W97385  44.524  35.353  12.891
25126W        W97386  33.051  11.840  13.441
25127W        W97387  26.281   9.876  12.705
25128W        W97388  38.816  14.646   0.407
25129W        W97389   5.861   8.106  10.776
25130W        W97390  18.833   4.900  10.311
25131W        W97391   3.162   4.867   1.358
25132W        W97392  21.274  14.610  14.058
25133W        W97393  42.442  23.256  14.130
25134W        W97394  11.366  21.175  13.174
25135W        W97395  22.262  14.072  12.412
25136W        W97396   6.821  12.573  10.390
25137W        W97397  21.477  42.391  13.524
25138W        W97398  40.757  14.419   0.412
25139W        W97399   2.807  34.339  11.272
25140W        W97400  11.559  32.986  13.926
25141W        W97401  37.337  23.933  12.898
25142W        W97402  33.066  20.112   3.368
25143W        W97403  20.972  40.946  11.246
25144W        W97404  31.426  29.073   2.769
25145W        W97405  37.040  28.573   0.234
25146W        W97406  22.383  39.583   4.267
25147W        W97407  17.028  13.311   0.023
25148W        W97408  42.954   4.802   1.927
25149W        W97409  14.392  19.518   0.704
25150W        W97410  17.231   6.765  12.289
25151W        W97411  44.416   6.084   1.310
25152W        W97412   7.033  43.176  12.085
25153W        W97413  40.342   5.825   4.105
25154W        W97414  17.625  30.492   0.250
25155W        W97415  14.352  29.977  10.029
25156W        W97416   5.220  23.447   4.563
25157W        W97417  42.469  29.885  10.656
25158W        W97418  34.465  20.200  12.475
25159W        W97419  44.961  20.450   1.010
25160W        W97420   2.559   0.814   0.635
25161W        W97421  37.908  32.998  12.901
25162W        W97422  44.990  36.497   2.660
25163W        W97423  33.025  27.807  13.807
25164W        W97424  11.673   7.710  11.129
25165W        W97425  34.320  35.546   3.705
25166W        W97426  12.842  28.330   4.714
25167W        W97427  14.833  35.075  13.703
25168W        W97428   7.613  34.065  10.763
25169W        W97429   9.671  44.859   0.749
25170W        W97430   2.954  37.326   4.219
25171W        W97431  39.274  13.776   4.349
25172W        W97432  15.579  39.933  14.313
25173W        W97433  39.332   1.887   1.243
25174W        W97434  26.138  23.444   0.967
25175W        W97435  15.359  16.059   3.258
25176W        W97436  11.022  35.832  12.482
25177W        W97437  42.354  28.304  11.058
25178W        W97438  26.050  42.359   5.551
25179W        W97439   0.989   1.405   2.749
25180W        W97440  29.613  20.652   1.667
25181W        W97441  43.983  39.900   4.265
25182W        W97442  10.694   8.420   1.314
25183W        W97443  38.436  15.386  11.138
25184W        W97444  43.081  34.949   5.004
25185W        W97445  35.668  41.085   2.368
25186W        W97446  41.454  40.969   2.064
25187W        W97447  41.764  22.834   5.120
25188W        W97448  26.491  23.035   0.867
25189W        W97449  29.743  16.653  12.971
25190W        W97450  14.982  41.972  13.902
25191W        W97451  36.966   1.130  12.774
25192W        W97452   1.939   8.250  13.559
25193W        W97453  28.633  14.001  13.554
25194W        W97454   0.744  36.415  12.828
25195W        W97455  37.869   4.830  11.220
25196W        W97456  34.196   6.766   2.241
25197W        W97457  13.823  15.552   5.049
25198W        W97458  33.886  31.125   4.277
25199W        W97459  33.604  42.476   1.220
25200W        W97460   5.337  19.219   3.794
25201W        W97461   9.838  26.136   4.594
25202W        W97462  12.745  36.317   0.352
25203W        W97463  11.621  24.578   1.415
25204W        W97464  39.279   2.193   4.041
25205W        W97465  12.183  13.231  11.954
25206W        W97466  12.349  14.661  11.696
25207W        W97467  25.610  31.260  13.527
25208W        W97468  43.242  39.912   3.688
25209W        W97469   5.143  12.783   2.352
25210W        W97470  30.338  20.141   1.340
25211W        W97471  27.419  41.308   0.235
25212W        W97472  39.539  33.884  11.191
25213W        W97473  30.159   3.888  13.467
25214W        W97474   7.221   6.219   2.722
25215W        W97475  32.991   9.381   4.428
25216W        W97476  42.470  14.554  11.476
25217W        W97477  12.287  42.446   1.805
25218W        W97478  24.418  36.333  11.129
25219W        W97479  19.838  32.618   3.872
25220W        W97480  27.749   1.890   2.195
25221W        W97481  39.298   8.319   3.619
25222W        W97482  11.662  30.637   2.734
25223W        W97483  27.482  44.289  11.045
25224W        W97484  21.423  14.364   1.836
25225W        W97485  14.340  17.035   0.717
25226W        W97486  12.863  29.123   3.619
25227W        W97487  42.338  14.584  14.506
25228W        W97488  42.001  24.004   3.185
25229W        W97489   8.961   8.957   1.239
25230W        W97490  34.867  30.839   0.735
25231W        W97491   0.895  22.350  10.688
25232W        W97492  20.523  16.687   4.923
25233W        W97493   6.652   9.394   1.407
25234W        W97494  39.938  40.921  12.526
25235W        W97495  14.477   1.229  13.533
25236W        W97496  28.682   7.406   1.829
25237W        W97497  18.694   8.291  14.063
25238W        W97498  39.057  26.597   5.284
25239W        W97499   1.373  31.922   3.153
25240W        W97500  33.244  28.972   1.256
25241W        W97501  28.638  23.456   1.482
25242W        W97502  31.070  22.646   2.978
25243W        W97503  21.392  41.714   4.885
25244W        W97504  43.224  22.345  10.524
25245W        W97505   8.941   0.163   2.263
25246W        W97506  43.788   5.101  13.376
25247W        W97507  36.574  37.901  14.889
25248W        W97508  31.558   5.513  11.423
25249W        W97509  44.235   3.904  14.332
25250W        W97510  20.927   0.542   1.003
25251W        W97511  41.797  21.994  12.872
25252W        W97512  16.531   3.861  11.204
25253W        W97513  10.037  14.126  13.982
25254W        W97514  28.436  33.454   1.456
25255W        W97515  25.272  15.859  14.773
25256W        W97516  27.917  31.962  10.456
25257W        W97517  41.563  31.356   2.741
25258W        W97518   7.993  21.054  14.398
25259W        W97519  14.749  16.139  14.759
25260W        W97520   3.240   9.375  14.962
25261W        W97521  42.854  31.954  12.581
25262W        W97522  39.849   2.996   3.464
25263W        W97523  14.310  22.121   0.519
25264W        W97524  10.704  11.365   2.393
25265W        W97525  35.867  38.954   1.018
25266W        W97526  25.990  36.629   0.774
25267W        W97527  39.028  30.904   1.948
25268W        W97528  23.735  21.481  12.394
25269W        W97529  31.454   0.725  13.964
25270W        W97530  41.960  16.053  12.914
25271W        W97531  30.599   3.139   1.166
25272W        W97532   6.327  38.122   4.627
25273W        W97533  32.529  16.681   0.682
25274W        W97534  33.073   8.950  11.173
25275W        W97535  30.101  36.829   4.236
25276W        W97536  17.270  34.068   3.589
25277W        W97537   1.218  39.418  14.767
25278W        W97538  40.288  44.337  14.959
25279W        W97539  15.985   7.684   4.641
25280W        W97540  42.749  35.440  13.137
25281W        W97541  18.828  28.355  11.311
25282W        W97542   2.105   6.957  11.692
25283W        W97543  25.704  23.977  14.279
25284W        W97544   8.816  19.191  14.241
25285W        W97545  44.880   9.342   1.865
25286W        W97546  35.585  20.484  14.867
25287W        W97547  30.602  17.532   3.423
25288W        W97548  11.526  10.560  14.926
25289W        W97549   5.933  12.124   0.828
25290W        W97550  25.473  35.877  11.553
25291W        W97551  34.125   9.168  11.948
25292W        W97552  38.343  37.455  11.524
25293W        W97553  18.290  34.815  14.865
25294W        W97554   5.466  44.865  12.389
25295W        W97555  44.849  25.276  12.850
25296W        W97556  26.669  37.436   1.476
25297W        W97557  36.705   9.204  10.234
25298W        W97558  37.003  26.715  14.931
25299W        W97559  43.886  37.602  12.985
25300W        W97560  12.157  16.162  10.547
25301W        W97561   1.451  34.526  11.532
25302W        W97562  14.415   6.949   1.217
25303W        W97563  25.443  39.489   2.156
25304W        W97564  37.799   1.321   2.734
25305W        W97565   7.184  40.930  12.049
25306W        W97566  32.232   5.081   1.710
25307W        W97567  24.978   0.631   1.509
25308W        W97568  36.317  32.019  12.524
25309W        W97569  40.992  40.782   1.197
25310W        W97570  13.282  27.582   0.924
25311W        W97571  30.052  13.024  14.494
25312W        W97572  28.282  18.033  10.221
25313W        W97573  25.393   7.639  11.673
25314W        W97574  44.780   8.956   0.329
25315W        W97575  17.979  21.986  12.232
25316W        W97576  28.613   2.122   3.247
25317W        W97577   5.079  32.657   2.776
25318W        W97578  28.908  25.615   2.806
25319W        W97579  39.350   5.922   1.042
25320W        W97580  12.633   9.423  11.539
25321W        W97581  17.579   2.263  11.454
25322W        W97582  19.542  17.107   2.363
25323W        W97583  31.322  22.498   4.733
25324W        W97584   6.417  11.655   3.682
25325W        W97585   7.206  26.342  10.108
25326W        W97586  10.425  41.457   2.083
25327W        W97587  42.967  26.968  13.535
25328W        W97588  36.348  23.355  12.631
25329W        W97589  22.177   0.832  10.711
25330W        W97590  41.848   2.410  10.950
25331W        W97591  35.492  43.512   3.803
25332W        W97592  30.615  26.957  13.888
25333W        W97593  41.442  33.642  10.723
25334W        W97594  21.133  38.034   1.227
25335W        W97595  21.235  15.867   2.226
25336W        W97596  15.576  23.495   0.828
25337W        W97597  10.376  22.976   4.577
25338W        W97598  37.020  35.056  12.654
25339W        W97599  41.213  43.855   3.331
25340W        W97600  35.128  11.210  12.084
25341W        W97601  39.519  29.596   1.748
25342W        W97602  18.179  29.618   4.128
25343W        W97603  19.850   0.724  13.891
25344W        W97604  36.575   7.623  11.504
25345W        W97605  36.631  27.672   1.725
25346W        W97606  42.720  29.678   3.170
25347W        W97607   2.534   7.327  13.143
25348W        W97608  32.057  23.500  14.569
25349W        W97609  25.172  30.991  11.656
25350W        W97610  25.515  28.515  13.284
25351W        W97611   9.788  32.920   1.131
25352W        W97612   6.640  11.260   0.158
25353W        W97613  26.632  18.815  12.912
25354W        W97614  24.787  21.907  11.125
25355W        W97615  32.080  39.491  13.687
25356W        W97616  15.173  40.412  13.157
25357W        W97617  42.878   4.303   2.118
25358W        W97618  15.793   5.616  10.229
25359W        W97619  42.890  13.311   5.004
25360W        W97620   1.152  21.229  12.490
25361W        W97621  11.261  15.829   2.815
25362W        W97622   0.974  19.227   2.705
25363W        W97623  38.757  40.054   4.151
25364W        W97624  39.877  13.572   2.841
25365W        W97625  43.862  13.588   0.408
25366W        W97626   0.842  31.172  13.843
25367W        W97627  25.162  19.317   0.940
25368W        W97628  13.741  28.585  11.214
25369W        W97629  17.685  43.272   2.089
25370W        W97630   5.330  41.975   3.125
25371W        W97631  16.990  20.549  14.394
25372W        W97632  15.146   0.687   1.291
25373W        W97633  16.799  29.366  14.924
25374W        W97634   9.344  43.031  13.530
25375W        W97635  10.380  41.742  12.130
25376W        W97636  12.802  19.307   1.266
25377W        W97637  25.764  38.230   0.731
25378W        W97638   0.422  36.995  14.535
25379W        W97639  12.192  34.865  13.691
25380W        W97640   6.414  28.942  10.675
25381W        W97641  13.249  15.595  12.536
25382W        W97642   0.021  41.292  11.081
25383W        W97643   7.773  11.078   1.156
25384W        W97644   2.011  20.618  13.951
25385W        W97645  36.348  34.370   4.502
25386W        W97646  41.996  32.752   2.844
25387W        W97647  18.155  25.527  13.980
25388W        W97648  23.523  18.204  12.418
25389W        W97649   2.197  44.297  13.731
25390W        W97650  33.595   3.953  12.197
25391W        W97651  22.647  19.353   1.456
25392W        W97652  26.188  29.164   0.325
25393W        W97653  29.435  23.818  14.023
25394W        W97654   7.299  11.550   0.962
25395W        W97655  33.660  30.928  10.602
25396W        W97656   4.727  34.492   0.935
25397W        W97657  26.956  13.036   2.718
25398W        W97658  12.585  18.296  14.174
25399W        W97659   2.439  25.462   3.014
25400W        W97660  19.999  15.277   1.349
25401W        W97661  23.754  23.691   3.704
25402W        W97662  31.911  28.176   3.653
25403W        W97663  26.993  20.995  10.614
25404W        W97664  16.182   9.995  11.200
25405W        W97665  44.917  44.556   0.684
25406W        W97666   7.014  27.663  11.433
25407W        W97667  42.717   5.239   3.328
25408W        W97668  32.128  14.999  13.037
25409W        W97669  40.720  25.681   1.924
25410W        W97670  13.122  42.562   2.335
25411W        W97671  23.171  42.470  11.559
25412W        W97672  16.109  36.572  10.499
25413W        W97673  44.480   2.429   1.974
25414W        W97674  25.140  27.184  10.883
25415W        W97675  41.797   5.831   1.801
25416W        W97676  28.141  23.289  13.660
25417W        W97677  16.600   3.894   3.717
25418W        W97678  25.505  16.410   4.354
25419W        W97679  34.409  29.703  14.814
25420W        W97680  14.184  28.422  14.249
25421W        W97681  11.272  30.456   2.994
25422W        W97682  39.465  23.252   0.247
25423W        W97683   9.218  34.017   0.941
25424W        W97684  43.858   0.977  10.379
25425W        W97685  18.025  38.924  12.662
25426W        W97686  25.991  20.441   4.483
25427W        W97687  41.582   6.868   0.327
25428W        W97688   5.372  24.003  11.141
25429W        W97689  39.317  14.336  13.354
25430W        W97690  29.488   7.291   3.113
25431W        W97691  36.903  34.682  13.022
25432W        W97692  19.093  27.662   1.680
25433W        W97693  17.699  30.047   1.477
25434W        W97694  13.122  42.873  12.553
25435W        W97695  26.049  10.443  11.499
25436W        W97696  37.989  19.590   0.977
25437W        W97697  21.264  36.991   4.615
25438W        W97698  16.233  31.469  14.419
25439W        W97699  10.964  42.576   2.825
25440W        W97700  11.144  31.351  14.023
25441W        W97701  33.950  34.823  11.538
25442W        W97702  34.582   4.209  13.457
25443W        W97703  25.482  44.330  13.864
25444W        W97704  37.413  11.379   4.537
25445W        W97705  10.589   9.323  11.488
25446W        W97706  36.558  25.669  13.079
25447W        W97707  21.363  32.195  10.375
25448W        W97708   9.651  17.712   0.976
25449W        W97709  13.128   4.261   3.823
25450W        W97710  43.891   0.754  12.376
25451W        W97711  21.030   4.943  14.471
25452W        W97712  25.207  26.419   0.615
25453W        W97713  16.810  27.501   4.142
25454W        W97714   4.242   8.017   1.471
25455W        W97715  20.897  40.642  11.956
25456W        W97716  38.761  12.370   0.330
25457W        W97717   4.748   7.320   1.915
25458W        W97718  11.248  31.180  13.538
25459W        W97719  37.407  38.350   4.543
25460W        W97720   0.737  33.425  14.469
25461W        W97721  30.154  30.965   0.093
25462W        W97722  31.214  15.925   3.728
25463W        W97723   1.920  27.613   0.765
25464W        W97724  42.097   1.951  11.148
25465W        W97725  30.475  17.509  14.183
25466W        W97726  25.371  41.904   0.863
25467W        W97727  20.616  17.552  14.724
25468W        W97728  17.385  39.498   0.895
25469W        W97729   4.738  18.254   9.993
25470W        W97730  37.426   1.662  14.119
25471W        W97731  12.148   7.948  11.128
25472W        W97732   1.667  27.569   0.279
25473W        W97733  38.594  27.872   4.587
25474W        W97734  42.437  26.118   2.195
25475W        W97735  20.802  35.896  11.582
25476W        W97736  38.073  12.376   4.126
25477W        W97737  36.091  17.846  13.090
25478W        W97738  31.205  43.838   4.494
25479W        W97739  16.652  20.044   3.994
25480W        W97740   3.995  31.730   2.752
25481W        W97741  34.966   6.706   0.784
25482W        W97742   7.135   3.219  12.209
25483W        W97743  12.263   2.186   0.974
25484W        W97744   0.503   1.330  14.305
25485W        W97745  18.217  11.730  12.457
25486W        W97746  24.977  36.592   1.890
25487W        W97747  12.865   9.333  14.321
25488W        W97748  40.396  31.116  14.820
25489W        W97749  30.542  13.630  12.870
25490W        W97750  16.345   3.139  11.720
25491W        W97751  41.126  32.112  12.403
25492W        W97752  13.841   2.632   2.829
25493W        W97753  42.367   1.146   0.179
25494W        W97754  25.943   8.669  10.411
25495W        W97755  30.168  32.809  14.310
25496W        W97756  10.658  13.266   0.986
25497W        W97757  17.660  25.266  12.923
25498W        W97758   4.510  28.767  10.135
25499W        W97759  41.457  34.090   2.173
25500W        W97760   6.416  33.291  12.957
25501W        W97761  13.579   4.478   0.730
25502W        W97762  20.757  23.002   1.546
25503W        W97763  13.242  36.436   1.973
25504W        W97764  26.961  12.849   1.975
25505W        W97765   5.384  10.322   1.884
25506W        W97766  26.165   2.779  14.346
25507W        W97767  34.048  38.456   3.285
25508W        W97768  38.916  27.666  10.654
25509W        W97769   6.237  40.079  10.521
25510W        W97770   4.544   0.849  12.734
25511W        W97771  28.917  21.190  12.082
25512W        W97772  43.201  42.465  11.259
25513W        W97773   2.979  33.957  12.012
25514W        W97774  22.060  15.994   3.754
25515W        W97775  11.641  30.419   4.727
25516W        W97776  26.003  22.554   1.978
25517W        W97777   0.727  27.178   4.171
25518W        W97778  35.324  26.893   3.387
25519W        W97779  43.554  36.067   0.515
25520W        W97780  13.143  28.130  11.051
25521W        W97781  16.051  43.400  14.535
25522W        W97782   2.962  33.953   3.251
25523W        W97783   1.985  20.221   1.234
25524W        W97784  44.942  20.741  12.869
25525W        W97785  13.783  37.825  13.121
25526W        W97786  18.295   5.881  12.139
25527W        W97787  39.489  11.895   4.431
25528W        W97788  32.732  26.500  13.462
25529W        W97789  19.420   8.217  12.591
25530W        W97790  41.774   3.186   4.144
25531W        W97791  35.063  17.608   1.774
25532W        W97792  29.482  16.165  14.824
25533W        W97793  15.665  36.933   0.730
25534W        W97794  11.194   6.817  14.265
25535W        W97795  41.458  43.892  13.013
25536W        W97796  38.839  21.083  14.298
25537W        W97797   1.325  35.491  10.388
25538W        W97798  21.993  15.601   4.592
25539W        W97799  31.495  16.845  12.943
25540W        W97800   3.246   1.985   1.647
25541W        W97801  37.966  42.957   2.834
25542W        W97802   3.231  39.256  13.851
25543W        W97803   5.194   2.708  13.772
25544W        W97804   1.822  17.539   4.440
25545W        W97805   9.884   2.695  13.993
25546W        W97806  38.321  18.996   4.520
25547W        W97807  39.222   7.214  11.978
25548W        W97808  24.201  16.235  10.695
25549W        W97809  22.977  14.634   0.585
25550W        W97810   1.835  20.140  14.105
25551W        W97811  22.470  23.291   0.749
25552W        W97812  40.480  28.639  11.995
25553W        W97813  15.824  28.132   4.410
25554W        W97814  24.481   5.617  12.982
25555W        W97815  20.013   9.567  13.442
25556W        W97816  22.625  21.734   5.597
25557W        W97817  43.726  41.028  12.971
25558W        W97818  13.692  36.885   3.013
25559W        W97819  35.064  15.321   3.642
25560W        W97820  19.653  44.998   3.635
25561W        W97821  15.726  34.578  13.909
25562W        W97822  35.807  11.370   1.305
25563W        W97823  19.978  13.581  11.092
25564W        W97824  31.023  15.176   1.333
25565W        W97825   4.474   9.949  14.311
25566W        W97826  12.592  36.059   2.279
25567W        W97827  37.676  31.736   0.856
25568W        W97828   4.022  19.028   2.402
25569W        W97829  36.932  16.127   2.941
25570W        W97830   5.612  18.427   4.565
25571W        W97831  22.458  41.046   0.016
25572W        W97832  22.025  18.424  11.511
25573W        W97833   8.858  21.254   2.119
25574W        W97834  13.313  24.250   1.783
25575W        W97835  15.213  23.310   1.969
25576W        W97836  20.647  43.330   1.876
25577W        W97837  36.464  41.379  11.220
25578W        W97838  44.102  16.724   4.491
25579W        W97839  34.611  28.338   0.522
25580W        W97840  16.728  39.566   2.373
25581W        W97841  38.158  33.142  11.134
25582W        W97842  15.147  34.883   0.910
25583W        W97843   3.934  24.632  12.975
25584W        W97844   2.097  17.210  12.960
25585W        W97845  43.898  24.937  14.505
25586W        W97846  34.432  13.129   2.708
25587W        W97847  17.620  11.275   2.685
25588W        W97848  43.310  25.184  11.566
25589W        W97849  42.083  19.588  11.547
25590W        W97850  12.888   2.566   3.173
25591W        W97851   2.902  35.935  13.953
25592W        W97852  26.651  41.816   1.601
25593W        W97853  39.034  13.432   3.407
25594W        W97854  37.391  44.712  14.234
25595W        W97855  21.163  41.412  13.013
25596W        W97856  13.444  28.000  10.644
25597W        W97857  29.131  30.611   2.181
25598W        W97858  24.257  30.201   4.546
25599W        W97859   1.808   5.310   1.389
25600W        W97860  44.926  31.670  11.032
25601W        W97861  29.653  10.152  12.988
25602W        W97862  35.175  33.440  11.422
25603W        W97863  17.279  33.836  11.035
25604W        W97864   3.662  44.782   2.913
25605W        W97865  36.839  12.672   1.776
25606W        W97866  23.113   4.717  12.521
25607W        W97867  32.797  11.304   1.340
25608W        W97868  41.101  15.218   2.675
25609W        W97869  16.763  34.532  11.181
25610W        W97870  44.851  31.396  13.310
25611W        W97871   7.229  34.418  10.729
25612W        W97872  25.501   1.434   4.137
25613W        W97873  34.650   8.305   0.675
25614W        W97874  13.648  12.220   3.505
25615W        W97875  42.409   1.427  11.950
25616W        W97876  10.364  14.992  13.735
25617W        W97877  34.290  13.641  14.483
25618W        W97878   1.269  31.046   0.790
25619W        W97879  17.582  43.873  10.572
25620W        W97880  30.044  20.800  10.617
25621W        W97881  15.628  14.217   4.625
25622W        W97882  38.263   9.945  11.989
25623W        W97883   7.348  21.776  13.441
25624W        W97884  31.138   6.889   3.057
25625W        W97885  14.080  29.906  13.372
25626W        W97886  44.865  41.795  11.894
25627W        W97887  39.833  42.846  12.859
25628W        W97888  39.840   7.563   2.199
25629W        W97889  13.352  20.205  14.515
25630W        W97890   0.015   2.781  14.929
25631W        W97891  41.317  42.445   4.499
25632W        W97892  43.765  31.777  14.629
25633W        W97893  18.674  14.831  10.860
25634W        W97894  34.866  26.607  14.425
25635W        W97895   5.377  26.003  12.058
25636W        W97896  10.599  14.313  12.831
25637W        W97897   8.648   0.140  14.014
25638W        W97898  29.406  25.196   2.827
25639W        W97899  26.150  44.807  14.422
25640W        W97900   3.705  28.925   3.451
25641W        W97901  42.378  14.065  12.533
25642W        W97902   3.721  35.472   4.165
25643W        W97903  11.624   2.660   1.449
25644W        W97904  14.236  24.043  14.261
25645W        W97905   6.691  16.952  13.460
25646W        W97906  19.840  40.551  10.497
25647W        W97907  35.895  15.719   4.405
25648W        W97908  34.805  34.487   3.715
25649W        W97909   4.455  36.540   3.638
25650W        W97910  19.259  26.253  13.476
25651W        W97911  29.489   7.815   2.790
25652W        W97912   4.278  21.753   1.488
25653W        W97913   0.874  22.388  13.906
25654W        W97914  36.453  33.152  13.329
25655W        W97915  28.214   5.894   3.666
25656W        W97916  32.631  10.238  12.932
25657W        W97917   4.474  42.507  13.349
25658W        W97918  24.214   4.617  11.025
25659W        W97919   6.979  22.795  13.999
25660W        W97920  37.827   8.924   5.043
25661W        W97921   2.168  37.026   2.806
25662W        W97922  41.295  25.131   1.336
25663W        W97923  40.086  31.008   1.821
25664W        W97924   7.457  19.767  14.759
25665W        W97925  36.914  15.759   2.583
25666W        W97926  17.614  44.216   0.809
25667W        W97927  10.706  24.790  14.999
25668W        W97928  32.484  23.985  10.629
25669W        W97929   8.115  35.041  11.822
25670W        W97930  16.825  21.114   3.550
25671W        W97931  17.001  33.980   4.037
25672W        W97932  42.452  21.816  10.590
25673W        W97933  26.593  22.185  13.287
25674W        W97934   5.307  35.877   3.229
25675W        W97935  23.579  37.088   4.315
25676W        W97936  35.852  27.954   5.452
25677W        W97937  23.782  39.323   3.153
25678W        W97938  10.751  27.830  13.902
25679W        W97939  35.274  30.187   3.223
25680W        W97940  14.183  22.492  14.040
25681W        W97941   6.772   4.245  14.351
25682W        W97942   3.079  12.351  11.912
25683W        W97943  18.377  37.097   1.461
25684W        W97944  28.123  13.118   2.256
25685W        W97945  16.177  34.522  11.903
25686W        W97946  25.611  36.138  12.029
25687W        W97947  24.123   0.618  14.788
25688W        W97948   9.377  22.574  14.782
25689W        W97949   0.424  44.525  14.339
25690W        W97950  10.669   1.191   0.968
25691W        W97951  18.292   0.809   1.409
25692W        W97952  12.383  25.583   0.886
25693W        W97953  18.211   3.240   4.495
25694W        W97954  31.907   7.767  11.215
25695W        W97955  43.435   9.181   1.491
25696W        W97956  13.710  32.507  11.874
25697W        W97957   8.787  32.645   1.945
25698W        W97958   5.257  43.260   1.841
25699W        W97959  26.734  31.298  13.306
25700W        W97960  19.292  37.148  12.111
25701W        W97961  10.082  27.966  13.020
25702W        W97962  26.546  27.939   0.050
25703W        W97963  12.238   6.163   3.277
25704W        W97964  27.650   2.672  13.300
25705W        W97965  30.028   9.344  12.681
25706W        W97966  18.214  41.850  12.900
25707W        W97967  25.209  39.470  14.817
25708W        W97968  41.683  40.945  10.873
25709W        W97969  24.440  13.890  13.073
25710W        W97970   2.589  29.600  12.473
25711W        W97971  16.660  13.564  13.744
25712W        W97972  29.373  20.585   1.187
25713W        W97973   1.817  12.818   0.277
25714W        W97974   4.853  24.326   0.431
25715W        W97975   4.834  17.388  12.872
25716W        W97976  26.162  34.133   2.696
25717W        W97977  20.868  34.531   4.814
25718W        W97978  41.852  23.093   1.343
25719W        W97979  25.705  39.463  14.948
25720W        W97980  18.994  22.268  10.708
25721W        W97981  38.332  37.745   1.160
25722W        W97982  43.953   6.115  14.852
25723W        W97983  31.164  30.638  14.311
25724W        W97984  33.665  24.731   2.401
25725W        W97985  22.573  14.102   0.817
25726W        W97986   5.389   6.951   3.608
25727W        W97987  19.530  14.322  14.123
25728W        W97988  23.585  33.630  10.662
25729W        W97989  29.933  23.556   0.387
25730W        W97990  17.696  37.025  14.478
25731W        W97991  16.815   3.802  12.433
25732W        W97992   7.279   4.511   2.213
25733W        W97993  44.559  43.399   0.832
25734W        W97994  33.990  22.167  13.834
25735W        W97995   1.383  19.051   4.033
25736W        W97996  11.339  28.199  11.543
25737W        W97997   2.216  31.228  12.136
25738W        W97998  42.989  35.997   0.882
25739W        W97999  10.224  28.223  12.231
25740W        W98000  24.618  42.801   5.171
25741W        W98001  40.338  13.730  13.896
25742W        W98002  38.918   5.258   4.113
25743W        W98003   6.868  32.900  14.270
25744W        W98004  26.233   0.017   1.694
25745W        W98005  43.275  42.931   0.360
25746W        W98006  39.298   7.743   4.546
25747W        W98007   1.368  43.626  13.963
25748W        W98008  39.505   9.083   5.446
25749W        W98009  34.381  33.065   1.322
25750W        W98010  24.872  11.844   0.450
25751W        W98011  16.414  38.975   3.238
25752W        W98012  21.219  42.752   3.820
25753W        W98013  24.029  17.233  11.658
25754W        W98014  31.057  36.314  11.538
25755W        W98015  14.105  40.754  12.458
25756W        W98016  18.049  42.081  10.628
25757W        W98017  31.027  30.374   4.176
25758W        W98018  38.269   3.219   0.343
25759W        W98019  24.762  44.881   3.544
25760W        W98020  40.590  14.859   4.753
25761W        W98021  30.185  24.199  14.378
25762W        W98022  39.837  31.282   1.085
25763W        W98023  18.523  26.807   1.790
25764W        W98024   5.339  22.749  12.961
25765W        W98025  20.500  28.329  12.495
25766W        W98026  30.911  15.156   0.021
25767W        W98027  15.816  35.496  10.924
25768W        W98028   2.521   2.684  12.878
25769W        W98029  20.374  39.028   0.860
25770W        W98030   8.125  42.504   1.843
25771W        W98031  33.622  13.871   2.171
25772W        W98032   4.911  38.083   1.932
25773W        W98033   9.269  23.498  10.338
25774W        W98034  39.154  41.025  14.861
25775W        W98035  23.926   0.401   2.252
25776W        W98036  37.987   8.360   1.432
25777W        W98037  13.805  13.382  14.826
25778W        W98038  27.481  29.944  10.238
25779W        W98039  19.350  28.692   3.025
25780W        W98040  24.900   3.172   2.435
25781W        W98041   4.478  24.019  13.476
25782W        W98042  29.278  32.126   3.784
25783W        W98043  34.615   7.754   0.850
25784W        W98044  28.024  20.354   4.738
25785W        W98045  39.348  39.278   4.076
25786W        W98046  13.664  14.156   3.464
25787W        W98047  11.218  36.253   3.309
25788W        W98048  18.638  34.525  11.909
25789W        W98049  15.734  13.322  13.281
25790W        W98050  23.723  20.548   2.417
25791W        W98051  23.558   5.597   3.190
25792W        W98052  22.209  13.027  11.941
25793W        W98053  16.582  34.999   0.444
25794W        W98054   7.258  18.252  13.346
25795W        W98055  15.050  24.342  12.483
25796W        W98056  14.175  39.554   2.880
25797W        W98057  33.362  32.446   0.978
25798W        W98058   9.440  21.647  12.153
25799W        W98059  39.916  41.512  11.694
25800W        W98060  16.742  23.459  12.159
25801W        W98061   2.007  37.380   3.150
25802W        W98062   2.987  33.366  12.490
25803W        W98063  39.846  33.730  14.290
25804W        W98064  33.642   2.406   3.749
25805W        W98065   7.744  28.572  12.030
25806W        W98066  12.120  17.070  10.222
25807W        W98067  29.395  17.310  13.640
25808W        W98068  38.371  37.605  12.391
25809W        W98069  38.777  39.789   4.995
25810W        W98070   4.387  29.573   0.085
25811W        W98071   5.541  43.144   4.707
25812W        W98072   7.474  25.417   2.371
25813W        W98073  27.305  12.033   1.615
25814W        W98074  32.494   7.392   1.811
25815W        W98075  38.624   8.945   1.269
25816W        W98076  24.551  39.610   1.835
25817W        W98077  30.389   2.243   2.416
25818W        W98078  11.755   6.937   2.790
25819W        W98079  29.625   3.444   2.221
25820W        W98080  25.700  32.098  14.968
25821W        W98081  34.603  38.068   0.361
25822W        W98082  24.656   4.520   2.396
25823W        W98083  34.878  38.300   2.805
25824W        W98084   6.850  44.170  13.915
25825W        W98085  29.953  36.153   1.908
25826W        W98086  31.450  14.062  11.457
25827W        W98087  43.002  28.374  12.497
25828W        W98088  23.248  15.514   1.625
25829W        W98089  44.331  21.399  10.135
25830W        W98090  34.829  12.443  14.422
25831W        W98091  31.438  10.157   2.239
25832W        W98092  37.063  18.121  14.514
25833W        W98093   7.997  36.552  12.630
25834W        W98094  19.923  13.759  10.605
25835W        W98095  15.112  28.144  13.510
25836W        W98096   0.783  14.805  10.999
25837W        W98097  11.824  39.594  13.778
25838W        W98098  10.078   1.564  11.913
25839W        W98099  42.332  42.262   4.495
25840W        W98100  27.623  40.787   1.013
25841W        W98101  21.301   3.366   4.211
25842W        W98102   5.223  35.607   0.420
25843W        W98103  27.660  42.032  14.877
25844W        W98104  22.996  23.256  12.316
25845W        W98105   6.277   0.460  13.883
25846W        W98106  13.266  25.555  10.814
25847W        W98107  28.269   1.911   2.167
25848W        W98108   0.757   1.483   1.787
25849W        W98109  37.823   5.871   3.841
25850W        W98110  32.146  13.336  13.734
25851W        W98111  42.857  29.457   4.574
25852W        W98112  15.132  38.302  14.812
25853W        W98113  19.768   4.458  13.575
25854W        W98114   6.454  10.079   2.817
25855W        W98115  17.624  13.854   4.627
25856W        W98116  30.120   3.032   2.478
25857W        W98117  22.150  21.090   3.022
25858W        W98118   9.797  43.502   2.096
25859W        W98119   8.864  33.976  11.809
25860W        W98120  20.015  35.519  12.625
25861W        W98121  26.408  24.525  13.270
25862W        W98122   4.481  22.114  13.610
25863W        W98123  26.736  44.286   3.713
25864W        W98124  31.364  13.787   4.685
25865W        W98125   5.271   9.387   3.305
25866W        W98126  40.307  12.489  12.290
25867W        W98127  12.231   6.853   0.856
25868W        W98128  43.566  16.502   0.894
25869W        W98129  24.790   2.964   1.220
25870W        W98130   5.249  29.450  13.381
25871W        W98131  20.606  21.797  12.003
25872W        W98132   6.452   8.900   0.316
25873W        W98133   4.436  26.155   0.631
25874W        W98134  36.674  18.197  12.422
25875W        W98135  41.447  43.977   4.650
25876W        W98136  11.636  43.970  12.292
25877W        W98137  44.499   6.950  10.052
25878W        W98138  35.202   4.245  10.855
25879W        W98139  37.788  22.886   1.607
25880W        W98140  29.904  37.305   4.263
25881W        W98141  33.169   4.827  11.105
25882W        W98142   0.430   7.577  13.565
25883W        W98143   8.812  33.418  10.305
25884W        W98144   2.494  31.386   2.747
25885W        W98145   3.411  11.786   3.622
25886W        W98146  24.592  25.752   0.887
25887W        W98147  21.533  29.934   4.291
25888W        W98148  14.760  29.203  10.203
25889W        W98149  11.299  21.505   1.407
25890W        W98150  21.815  20.193  13.760
25891W        W98151  21.085  30.083   4.531
25892W        W98152  13.585  33.910   1.971
25893W        W98153  44.538  17.690   1.296
25894W        W98154   4.468  31.611   1.212
25895W        W98155  27.082  25.145  13.106
25896W        W98156  40.740  32.028  10.212
25897W        W98157  38.067   4.097  10.677
25898W        W98158  15.506  28.665   1.268
25899W        W98159  43.329  25.147   1.416
25900W        W98160  24.137  43.241  11.912
25901W        W98161   5.746  31.430   3.673
25902W        W98162  40.571   4.857  10.198
25903W        W98163  17.836  39.188   0.808
25904W        W98164  31.411  31.141   2.210
25905W        W98165  13.497  36.489  12.746
25906W        W98166  17.036  17.070   1.832
25907W        W98167  16.051   0.298  10.655
25908W        W98168   1.092  41.577   0.713
25909W        W98169  28.845  16.165  13.487
25910W        W98170  44.222  38.656  13.756
25911W        W98171  35.629  44.362  14.048
25912W        W98172  16.831  34.182   0.747
25913W        W98173  30.130  21.345  12.454
25914W        W98174  40.337  25.657  10.694
25915W        W98175  17.181  25.596   0.884
25916W        W98176  20.187  36.189  13.747
25917W        W98177  25.404  41.841   4.953
25918W        W98178  17.570  10.964   1.771
25919W        W98179  28.613   6.266   2.803
25920W        W98180  39.401  42.987  12.599
25921W        W98181  39.838  29.475  14.921
25922W        W98182  34.898  29.875   2.421
25923W        W98183  29.240  16.808   0.716
25924W        W98184  17.342  43.751  14.252
25925W        W98185  25.680  14.270   2.308
25926W        W98186   1.754  18.405  13.502
25927W        W98187  40.233  32.546   1.650
25928W        W98188  24.946  14.459  11.050
25929W        W98189   6.465  29.723  12.364
25930W        W98190  20.485  38.507   0.853
25931W        W98191  11.898  21.212   3.802
25932W        W98192  10.542   5.202   4.142
25933W        W98193  10.311  37.084  13.491
25934W        W98194  44.882   7.805   1.782
25935W        W98195  43.323  32.444   4.036
25936W        W98196  17.114  40.010   0.119
25937W        W98197  26.137   3.246  13.583
25938W        W98198   9.095  36.503   0.886
25939W        W98199  25.436  37.521  11.898
25940W        W98200   0.892  12.136  10.387
25941W        W98201  34.470  44.074   4.611
25942W        W98202   1.424  28.154  10.769
25943W        W98203   7.285  24.534   4.441
25944W        W98204   2.938  43.369   0.387
25945W        W98205  26.033  19.335   3.690
25946W        W98206  21.233  31.416   0.240
25947W        W98207  14.291  13.374   1.963
25948W        W98208  14.718  41.435  13.537
25949W        W98209  28.581  39.355  14.012
25950W        W98210  33.225   5.202   3.632
25951W        W98211  28.766  27.064   2.868
25952W        W98212   5.703  42.381  14.858
25953W        W98213  19.330   0.251  12.579
25954W        W98214  44.511  10.173  14.474
25955W        W98215  36.068  21.741  13.376
25956W        W98216  25.248   5.901  10.747
25957W        W98217  13.261  32.679  14.534
25958W        W98218  27.336   6.268  13.391
25959W        W98219  38.164  36.329   4.284
25960W        W98220  44.440  37.795   0.524
25961W        W98221   1.784  19.701   1.083
25962W        W98222  21.954  14.397   1.608
25963W        W98223   8.990  43.440   0.820
25964W        W98224  12.579  23.554  11.680
25965W        W98225  43.420  25.608  12.848
25966W        W98226  11.882   1.421  14.362
25967W        W98227   5.354  10.370   0.748
25968W        W98228   9.110   9.769  14.817
25969W        W98229   7.354   4.756  11.565
25970W        W98230   9.444   0.402   2.224
25971W        W98231  22.663  40.862   2.749
25972W        W98232  41.476  43.577   1.180
25973W        W98233  27.902  29.217  13.134
25974W        W98234  20.635   0.896  10.415
25975W        W98235  23.645  16.848  11.065
25976W        W98236  24.334  12.712   4.163
25977W        W98237   9.123   1.165  11.267
25978W        W98238  18.130  40.463  13.156
25979W        W98239  30.626  25.084  12.015
25980W        W98240  16.504  36.835  12.537
25981W        W98241   1.671  34.276   2.323
25982W        W98242  31.882   2.359  10.808
25983W        W98243  19.121   8.557  12.944
25984W        W98244  24.084   4.255   3.929
25985W        W98245  28.850  39.093   4.888
25986W        W98246  21.691  28.092   5.629
25987W        W98247  20.744  16.079  11.133
25988W        W98248  16.842  16.685   0.461
25989W        W98249   7.686   1.237   0.944
25990W        W98250  13.789  43.731   2.824
25991W        W98251  18.154  15.660  11.508
25992W        W98252  36.524  31.668   4.552
25993W        W98253  26.205  23.235   3.589
25994W        W98254  13.476  10.910   4.363
25995W        W98255   8.579  39.544   1.898
25996W        W98256  43.090  43.270  12.519
25997W        W98257  22.563  31.689  12.495
25998W        W98258   7.975  24.864  14.401
25999W        W98259  30.802   6.461  10.535
26000W        W98260  32.538  19.268  13.162
26001W        W98261   7.399  39.618  11.644
26002W        W98262  44.184   1.028  14.363
26003W        W98263  37.835  40.399  12.149
26004W        W98264  13.874   3.157  11.119
26005W        W98265  28.320   5.241   4.714
26006W        W98266  31.029   3.794  11.441
26007W        W98267   3.929  21.731   1.916
26008W        W98268   3.756  35.399   0.725
26009W        W98269  12.364  18.059   3.068
26010W        W98270   5.496  19.652  12.139
26011W        W98271  10.869   7.734  12.458
26012W        W98272  44.761  40.566  13.111
26013W        W98273  38.745  11.316  11.732
26014W        W98274  32.009   6.331  13.049
26015W        W98275  27.978  23.506   3.676
26016W        W98276   5.358   1.767   1.279
26017W        W98277  38.333  23.717   0.764
26018W        W98278   4.874  10.691   2.891
26019W        W98279  25.928  43.975   1.054
26020W        W98280  10.364  23.798  11.164
26021W        W98281   3.647  16.127  11.494
26022W        W98282  18.953   2.839  10.695
26023W        W98283  12.366   0.828  11.374
26024W        W98284  34.930  13.090   1.372
26025W        W98285   5.640  21.925  11.975
26026W        W98286  20.771  37.427  11.612
26027W        W98287  30.223   9.475   4.356
26028W        W98288   6.164  27.954   3.027
26029W        W98289  35.152  33.581  10.915
26030W        W98290  40.333  12.661   2.756
26031W        W98291   6.555  31.459  14.697
26032W        W98292   6.787  17.539   0.340
26033W        W98293  22.189  34.033  14.722
26034W        W98294  25.912  30.765  11.280
26035W        W98295  16.258  20.842   2.594
26036W        W98296  39.735  37.892  11.637
26037W        W98297  27.202  15.249  10.952
26038W        W98298  24.231   6.259   5.130
26039W        W98299  17.119  18.226  10.689
26040W        W98300   8.064  13.681   2.765
26041W        W98301  42.059   3.213  14.819
26042W        W98302  43.357   8.709   1.691
26043W        W98303  22.070  41.314   2.244
26044W        W98304  10.589  10.721  14.832
26045W        W98305  42.433  37.365  10.433
26046W        W98306   8.913  35.312  11.640
26047W        W98307  26.720  17.806   4.647
26048W        W98308   7.234  29.236  13.452
26049W        W98309   0.884  38.022  13.035
26050W        W98310  38.312  15.754  13.005
26051W        W98311  35.868   9.622   2.737
26052W        W98312  20.777  15.008   0.470
26053W        W98313  43.838  19.104   3.699
26054W        W98314   2.586  11.572   0.767
26055W        W98315  43.916   3.693  10.773
26056W        W98316   6.952  39.515   2.929
26057W        W98317  14.565  27.588   0.144
26058W        W98318  21.614  14.729   4.588
26059W        W98319   0.760  16.670  13.782
26060W        W98320  44.965  31.635   3.306
26061W        W98321  28.506  21.184   2.143
26062W        W98322  43.942   4.137  11.175
26063W        W98323  19.595  42.932  10.399
26064W        W98324  14.144   2.858  11.484
26065W        W98325  41.900  37.496   2.645
26066W        W98326   6.278  26.514   1.874
26067W        W98327  44.110  32.644   4.102
26068W        W98328  10.529  24.640  14.548
26069W        W98329   7.958  20.246   2.563
26070W        W98330  28.185  12.532  10.285
26071W        W98331  41.934  14.199   4.493
26072W        W98332   9.052   4.960   4.590
26073W        W98333  27.459  30.997   0.916
26074W        W98334   2.761  23.064   1.354
26075W        W98335  27.896   4.855   1.250
26076W        W98336  34.010   4.287   0.373
26077W        W98337  10.665   4.287   2.067
26078W        W98338  27.490  32.944  12.414
26079W        W98339  40.752  32.024   3.754
26080W        W98340  19.674  22.588  12.692
26081W        W98341  29.646  25.463   4.240
26082W        W98342  26.179   2.473  12.411
26083W        W98343   3.156  13.676  12.580
26084W        W98344  34.776  12.617   2.276
26085W        W98345  40.819  29.416  10.585
26086W        W98346   4.893   8.240   2.429
26087W        W98347  13.259  23.188   3.166
26088W        W98348  11.677   0.970   3.143
26089W        W98349  22.155  12.073   1.854
26090W        W98350  19.853  32.984  10.650
26091W        W98351  35.867   7.715   4.796
26092W        W98352  29.948  27.363  14.958
26093W        W98353  33.142  34.031   2.750
26094W        W98354  42.836  34.061  12.923
26095W        W98355  11.331   7.972   4.740
26096W        W98356  44.330   3.267  10.164
26097W        W98357  25.775  15.650  10.240
26098W        W98358  36.138  31.768   3.586
26099W        W98359  34.141   0.285   2.833
26100W        W98360  21.490  31.976   0.971
26101W        W98361  20.116   5.782   5.040
26102W        W98362  35.850   5.706   1.842
26103W        W98363  41.318   8.728  13.818
26104W        W98364   8.924  37.040   2.642
26105W        W98365  29.924   6.400  11.527
26106W        W98366  22.057  21.454   0.724
26107W        W98367  24.096  25.701   3.113
26108W        W98368  11.623  31.189   4.339
26109W        W98369  25.080   8.523  10.719
26110W        W98370  42.097  17.063  14.552
26111W        W98371  27.576  40.612  11.026
26112W        W98372   3.333  31.202   1.853
26113W        W98373  29.364  15.692   3.363
26114W        W98374  44.941   4.005   0.531
26115W        W98375   7.261  37.894  14.912
26116W        W98376  43.784  15.805   4.494
26117W        W98377  43.974  23.835  10.679
26118W        W98378   8.655  22.588  11.139
26119W        W98379   0.235  11.367  11.153
26120W        W98380  44.551  19.720  11.466
26121W        W98381  10.283  20.285  12.607
26122W        W98382  16.739  10.865   1.294
26123W        W98383  34.397   4.015  13.024
26124W        W98384  16.017  38.685  10.217
26125W        W98385   3.949  25.322   4.055
26126W        W98386  20.361   6.499  13.058
26127W        W98387  34.415  28.504  14.341
26128W        W98388   9.282   2.999   3.129
26129W        W98389   9.281  17.214   0.965
26130W        W98390  12.242  13.181   0.392
26131W        W98391  10.710  30.450   4.703
26132W        W98392  14.499  12.154  14.447
26133W        W98393  21.205  32.341   2.640
26134W        W98394   9.242   3.948   3.319
26135W        W98395  21.651  17.154   2.354
26136W        W98396   6.675  37.314   0.839
26137W        W98397  36.897  30.117  13.037
26138W        W98398  40.111  17.085  13.575
26139W        W98399  28.658  23.175   0.332
26140W        W98400  43.208  16.849  12.014
26141W        W98401  40.575  42.716   0.785
26142W        W98402  44.408  22.505   2.660
26143W        W98403  20.137  40.571   1.352
26144W        W98404  28.427  39.846   1.251
26145W        W98405   3.321  40.045   3.837
26146W        W98406  37.947  44.027   0.530
26147W        W98407  20.155  12.658   4.524
26148W        W98408  30.406  22.491   3.783
26149W        W98409  15.770  36.652   1.830
26150W        W98410  36.515  21.287   4.048
26151W        W98411  33.919   2.250   2.386
26152W        W98412  16.714   7.639   3.161
26153W        W98413  43.698  23.188   4.125
26154W        W98414  10.162  32.520   2.329
26155W        W98415  15.504  10.726   4.159
26156W        W98416  21.737  25.630  12.456
26157W        W98417  14.683   6.191  13.237
26158W        W98418  22.957  18.438   3.372
26159W        W98419   2.789  37.057  12.935
26160W        W98420  18.796  24.478   2.371
26161W        W98421   2.015   7.334  14.384
26162W        W98422   7.203  35.860  10.703
26163W        W98423   5.403  20.273  11.584
26164W        W98424  16.848  36.896   1.293
26165W        W98425  27.622  24.229   4.673
26166W        W98426  10.557  16.245  11.478
26167W        W98427  13.155  43.080   1.428
26168W        W98428  29.566  27.293  11.659
26169W        W98429  29.606   2.413   1.778
26170W        W98430  44.897  42.276  12.169
26171W        W98431  23.738   7.701  11.638
26172W        W98432  41.033  44.524  14.901
26173W        W98433  26.809   2.286  11.929
26174W        W98434  29.718  39.995   3.614
26175W        W98435  34.428   3.983   3.139
26176W        W98436   4.447  22.695  12.890
26177W        W98437   5.299  11.439   4.137
26178W        W98438  26.013  30.197   1.148
26179W        W98439  42.201  10.754  14.329
26180W        W98440  11.829   2.716  13.850
26181W        W98441  31.068  41.780  12.120
26182W        W98442   3.806  17.209  14.388
26183W        W98443  16.901  26.103   3.195
26184W        W98444  22.111   0.917   0.359
26185W        W98445  27.568  12.206   2.405
26186W        W98446  29.396  28.544   4.508
26187W        W98447  31.462  42.101  13.054
26188W        W98448  36.120  43.845  14.546
26189W        W98449  21.845  19.690   1.861
26190W        W98450  22.772  39.763   3.553
26191W        W98451  19.007  26.033  14.788
26192W        W98452  23.466  33.046   2.372
26193W        W98453  23.956   7.969   1.838
26194W        W98454  19.065  32.902  14.424
26195W        W98455  21.771  17.217   4.643
26196W        W98456   9.388  32.845   3.099
26197W        W98457  35.494  14.740   1.430
26198W        W98458  29.819   7.452   1.343
26199W        W98459   7.440   7.418   2.197
26200W        W98460  27.566  29.226   4.080
26201W        W98461  24.854  36.383   3.165
26202W        W98462  15.240  42.873   1.800
26203W        W98463  15.364  39.702   0.767
26204W        W98464   8.843   4.400   3.225
26205W        W98465   3.960  11.328   1.019
26206W        W98466  41.960  13.176  10.584
26207W        W98467   2.921   3.455   2.645
26208W        W98468   4.383  25.177  14.092
26209W        W98469  38.976  27.116   0.845
26210W        W98470  15.184  25.710   3.185
26211W        W98471  32.144  43.902  11.652
26212W        W98472  21.273  25.980   1.435
26213W        W98473  39.832  38.007  14.462
26214W        W98474  35.269  42.796   1.738
26215W        W98475  11.655  37.328  14.501
26216W        W98476  25.408  11.362   2.887
26217W        W98477  23.440   9.357  13.809
26218W        W98478  24.633  35.939   3.332
26219W        W98479   9.660   2.223  13.861
26220W        W98480  40.348   7.503   0.465
26221W        W98481  34.631   7.878  10.499
26222W        W98482  44.271   2.419  13.537
26223W        W98483  26.541   2.226  10.665
26224W        W98484  43.475  26.147   2.169
26225W        W98485  35.924  43.086  10.713
26226W        W98486  34.078  22.237   0.261
26227W        W98487  44.376  42.790   1.684
26228W        W98488  35.063   8.707   1.950
26229W        W98489  28.533  12.254  10.666
26230W        W98490   4.664   1.408   1.448
26231W        W98491  26.790  18.135  10.651
26232W        W98492  38.412  14.053   4.124
26233W        W98493  39.334  32.481   2.289
26234W        W98494   5.727  11.146   1.289
26235W        W98495  41.952  30.621  10.575
26236W        W98496  11.694  25.486  11.744
26237W        W98497  43.875  40.089   2.385
26238W        W98498  19.305  13.603  13.001
26239W        W98499  26.587  23.261   2.306
26240W        W98500  10.482  16.341   3.732
26241W        W98501  35.595  26.925   3.845
26242W        W98502  32.989  19.284  11.474
26243W        W98503  43.024  15.619  12.066
26244W        W98504  43.067  20.669   3.678
26245W        W98505  36.640   5.639  11.261
26246W        W98506   9.915  23.133  11.950
26247W        W98507  32.604  34.602  13.823
26248W        W98508  42.562  30.068  11.577
26249W        W98509  38.416  21.633   2.918
26250W        W98510  11.724  19.033   2.576
26251W        W98511  42.424  12.509   4.113
26252W        W98512   0.599   3.405   1.132
26253W        W98513   8.621  27.448  12.123
26254W        W98514  44.038  35.226   2.383
26255W        W98515  13.275   9.242   4.614
26256W        W98516  11.399  36.610   1.341
26257W        W98517  25.262   7.706   2.839
26258W        W98518  22.452   4.784   0.710
26259W        W98519   6.281   8.238  11.659
26260W        W98520  15.153  25.206  11.179
26261W        W98521  21.747  20.495  11.064
26262W        W98522   7.583  29.974   0.303
26263W        W98523  44.029  41.305  11.299
26264W        W98524  21.617  21.209  13.567
26265W        W98525  30.664  22.244   2.751
26266W        W98526   9.278  33.178  11.051
26267W        W98527   9.102  16.641   0.413
26268W        W98528   0.977   0.640  12.129
26269W        W98529   5.367  10.496   1.397
26270W        W98530  18.739  27.563  10.681
26271W        W98531  21.461  42.904  13.493
26272W        W98532  26.636  39.763   9.791
26273W        W98533   8.964  15.630   1.761
26274W        W98534   2.487  34.895  11.884
26275W        W98535  32.437  27.711  12.599
26276W        W98536  13.654  38.917   2.878
26277W        W98537  14.733  39.473   4.702
26278W        W98538  22.873  20.588   4.095
26279W        W98539   2.291  31.954  10.623
26280W        W98540   8.245  37.927  10.743
26281W        W98541  14.753  27.401   9.969
26282W        W98542  29.640  44.974   1.327
26283W        W98543  23.015  32.421  13.021
26284W        W98544   1.069   2.586   0.382
26285W        W98545  36.142  41.354  12.536
26286W        W98546  27.938   2.639   1.353
26287W        W98547  39.310  39.509  10.729
26288W        W98548  35.403   9.914   1.330
26289W        W98549  32.414  16.631  13.925
26290W        W98550   1.733  25.641  13.623
26291W        W98551  17.857  20.130   2.378
26292W        W98552  24.920  29.833  13.924
26293W        W98553   2.519  43.273   3.866
26294W        W98554  30.237  22.048   3.559
26295W        W98555  40.332   3.459  13.414
26296W        W98556  22.110  36.442  11.024
26297W        W98557  19.853  32.373  11.500
26298W        W98558  23.590  26.615   0.377
26299W        W98559  30.137  12.156  11.614
26300W        W98560  33.463  26.925  12.935
26301W        W98561  25.417  36.209  12.869
26302W        W98562  16.235  15.604   3.303
26303W        W98563   0.030  23.787   1.611
26304W        W98564  30.685   6.288  12.032
26305W        W98565  19.714  44.396   1.978
26306W        W98566  32.544  20.413   4.597
26307W        W98567  36.947  41.097  11.290
26308W        W98568  26.771   7.659  12.079
26309W        W98569  27.140   0.309   1.317
26310W        W98570  16.831  17.342  13.963
26311W        W98571  41.246  28.864   2.655
26312W        W98572  32.852  10.912   2.124
26313W        W98573  13.525   4.003   2.428
26314W        W98574  15.338  18.709  12.022
26315W        W98575  42.889  33.428  11.648
26316W        W98576  27.065  31.641  10.737
26317W        W98577  26.653  39.289  12.047
26318W        W98578   3.089  37.885  11.506
26319W        W98579  25.683  42.000   5.402
26320W        W98580  35.300  30.218   2.358
26321W        W98581  42.095  20.843  11.205
26322W        W98582   5.205  40.227  12.516
26323W        W98583   0.520  41.348   4.512
26324W        W98584  33.853  19.616  14.554
26325W        W98585  40.284  43.911  14.488
26326W        W98586  34.771  11.009  12.485
26327W        W98587  43.848   4.908  10.508
26328W        W98588  24.550  31.922  10.426
26329W        W98589   1.655  33.626   4.186
26330W        W98590   5.743  11.034  12.002
26331W        W98591  24.061  10.266   1.820
26332W        W98592  34.572   0.244  11.202
26333W        W98593  30.649  30.019   4.213
26334W        W98594  14.656  33.977   0.006
26335W        W98595  19.073   8.152   4.185
26336W        W98596   2.212  34.369  11.194
26337W        W98597   5.003   2.082  14.326
26338W        W98598   7.188  43.945  10.464
26339W        W98599  28.427   2.496  13.090
26340W        W98600  38.148   2.704   0.231
26341W        W98601   8.732  12.723  14.575
26342W        W98602  21.050  16.590  10.708
26343W        W98603  22.198  38.988  12.455
26344W        W98604  22.813  41.727  12.504
26345W        W98605  32.200   4.227   2.974
26346W        W98606  17.625  27.033   4.321
26347W        W98607  42.091   3.624  13.932
26348W        W98608  38.811  18.998   4.357
26349W        W98609   7.861  32.015  13.763
26350W        W98610  33.492  35.225   5.038
26351W        W98611  31.976  34.864   3.405
26352W        W98612  41.486   3.848   0.455
26353W        W98613  38.770  21.310  13.822
26354W        W98614  40.827  13.540  13.968
26355W        W98615   0.014  34.256   4.117
26356W        W98616   8.402  29.951   4.517
26357W        W98617   7.238   1.822  11.561
26358W        W98618  26.081  15.127  12.031
26359W        W98619  13.270  38.278  11.459
26360W        W98620  10.893  30.078   2.814
26361W        W98621   1.169   4.467   0.514
26362W        W98622  22.713   4.867   4.469
26363W        W98623   9.348   4.673   4.282
26364W        W98624  28.958  30.425  12.620
26365W        W98625   5.511   1.943  14.403
26366W        W98626   8.617   8.110  12.066
26367W        W98627   2.399  44.824  13.876
26368W        W98628  38.427  10.473  11.134
26369W        W98629  34.508   3.988  14.717
26370W        W98630   7.518  34.842  13.015
26371W        W98631  10.341  31.405   0.406
26372W        W98632  35.758  10.150   1.948
26373W        W98633   3.532   5.250  12.537
26374W        W98634  30.700  42.829  10.733
26375W        W98635  23.781   2.492   2.764
26376W        W98636  11.771  12.076   2.864
26377W        W98637  16.563  25.991  13.379
26378W        W98638  20.696   3.398   1.170
26379W        W98639  43.774  28.485   1.181
26380W        W98640  28.495  10.256   3.481
26381W        W98641  32.602   2.477  10.780
26382W        W98642  10.398  35.082   2.219
26383W        W98643  27.745  24.500  11.054
26384W        W98644  42.494  21.467   3.528
26385W        W98645  12.264  29.182  11.983
26386W        W98646  33.130   2.745   4.852
26387W        W98647  35.861  41.937  13.932
26388W        W98648  16.123  12.650  10.941
26389W        W98649  11.339  20.130   0.077
26390W        W98650  24.138  30.852  10.558
26391W        W98651  26.494  35.530   3.955
26392W        W98652  23.202  27.553  13.673
26393W        W98653   3.378  44.411  14.825
26394W        W98654   3.349  11.627  14.042
26395W        W98655   0.053  31.428   2.662
26396W        W98656  33.536  32.639   4.406
26397W        W98657   0.281   2.307  11.128
26398W        W98658  17.566  38.309   3.605
26399W        W98659   6.189   5.903  10.350
26400W        W98660  20.221  14.208  12.394
26401W        W98661   4.379  38.762  11.239
26402W        W98662   6.169  12.728   2.194
26403W        W98663  44.276  32.071  11.542
26404W        W98664  44.791  12.257  12.903
26405W        W98665  19.503   5.334  13.979
26406W        W98666   3.925  39.806   2.768
26407W        W98667  27.313   1.711  11.445
26408W        W98668  27.431  39.781  10.719
26409W        W98669  20.800   7.749   1.721
26410W        W98670  15.075  26.462   2.095
26411W        W98671  36.057   2.005   4.893
26412W        W98672  37.465  10.778  14.102
26413W        W98673  44.110   9.246  10.761
26414W        W98674  44.110  42.358   0.670
26415W        W98675  23.166  13.807   2.207
26416W        W98676  25.800  13.566   4.859
26417W        W98677   2.365  13.229   0.082
26418W        W98678  20.657  17.000   1.993
26419W        W98679   5.528  14.628  12.465
26420W        W98680  32.483  35.023   4.515
26421W        W98681  36.756  10.102  11.836
26422W        W98682  29.244  43.238  11.079
26423W        W98683  32.681  44.075   1.779
26424W        W98684   6.350  20.762  10.741
26425W        W98685  24.817  44.783  14.245
26426W        W98686  37.988  38.016  13.434
26427W        W98687  10.561   4.961  12.126
26428W        W98688  42.993  34.379   1.581
26429W        W98689  42.623  37.214   2.173
26430W        W98690  12.594  25.379  11.881
26431W        W98691  15.510  13.155  12.841
26432W        W98692  23.234  40.126   4.218
26433W        W98693  16.486  23.095  12.470
26434W        W98694  29.288  29.831   5.389
26435W        W98695   7.393   3.981  12.443
26436W        W98696  37.868  24.005  11.097
26437W        W98697  23.150  27.936   0.498
26438W        W98698  22.060  36.255   0.485
26439W        W98699  39.315  44.421   1.651
26440W        W98700  22.466  21.544  14.423
26441W        W98701  13.897   5.180   2.692
26442W        W98702  40.940  21.785   1.991
26443W        W98703  41.627  25.368  14.933
26444W        W98704  23.544   4.189   1.452
26445W        W98705  25.636  41.853  12.040
26446W        W98706  14.652  26.791  13.038
26447W        W98707  27.963   4.251   2.216
26448W        W98708  24.280  22.023  13.373
26449W        W98709  38.889  35.430  14.307
26450W        W98710  40.786  12.639   3.173
26451W        W98711  39.122  28.106  13.263
26452W        W98712  38.040   1.745   3.738
26453W        W98713  29.841  23.279   4.397
26454W        W98714  18.244  21.003   3.689
26455W        W98715  17.107   6.864   4.631
26456W        W98716  36.296  38.314   2.773
26457W        W98717   7.330   9.374  13.795
26458W        W98718  18.771  40.305   0.008
26459W        W98719  37.905  31.152  12.963
26460W        W98720  10.597  10.352   1.352
26461W        W98721  44.789  25.844   4.749
26462W        W98722  33.365  13.667   2.656
26463W        W98723  22.118  31.586  12.117
26464W        W98724  34.456  20.567  14.736
26465W        W98725  31.893  21.715  10.591
26466W        W98726  10.246   7.104  10.599
26467W        W98727  13.826  41.988  14.878
26468W        W98728  41.539  34.308   1.325
26469W        W98729  36.649  43.471   2.376
26470W        W98730  13.552  18.198  13.442
26471W        W98731  25.510  33.590   4.194
26472W        W98732  36.098   7.466   0.998
26473W        W98733  40.959  18.542   2.130
26474W        W98734   5.763   5.751   4.720
26475W        W98735   3.413  26.311  13.400
26476W        W98736  11.300  12.411  10.725
26477W        W98737  20.591  29.912   2.474
26478W        W98738   8.279  19.320  12.499
26479W        W98739  23.488  15.242   1.229
26480W        W98740  35.973  32.835   4.181
26481W        W98741   5.934   5.496   4.302
26482W        W98742  43.815  28.265   4.532
26483W        W98743  34.640  44.002  12.589
26484W        W98744  44.847  33.414   0.773
26485W        W98745  28.191  23.245  14.514
26486W        W98746  30.913  37.066   3.898
26487W        W98747  31.139  44.489   0.757
26488W        W98748  38.558   6.275   2.645
26489W        W98749  23.612   5.335   3.819
26490W        W98750  38.877   4.287   1.395
26491W        W98751  19.184  42.857   0.369
26492W        W98752  38.936  13.647  11.333
26493W        W98753  42.962  19.317   2.716
26494W        W98754   5.158   7.202  11.047
26495W        W98755   3.468  20.193  14.501
26496W        W98756   7.914  30.029  11.124
26497W        W98757   8.752  29.131  10.695
26498W        W98758   3.898   0.090   4.509
26499W        W98759   1.253  38.956  13.532
26500W        W98760  12.373  34.054   1.737
26501W        W98761  44.367   4.929  12.046
26502W        W98762   5.834   5.729   2.800
26503W        W98763  42.594  43.999   2.918
26504W        W98764  36.615  33.075   3.190
26505W        W98765  26.711  35.901   3.674
26506W        W98766  23.256  30.172  12.883
26507W        W98767  12.617  10.350  13.478
26508W        W98768   8.196  28.493  13.867
26509W        W98769  42.484  43.321   1.674
26510W        W98770  38.327  37.500   2.798
26511W        W98771   9.218  40.313  11.249
26512W        W98772   2.226  12.357   1.892
26513W        W98773  36.971  26.203  13.628
26514W        W98774  21.971  30.626   1.808
26515W        W98775  17.258  29.300  10.703
26516W        W98776  26.419  12.843   2.612
26517W        W98777  44.243  19.521   1.536
26518W        W98778   1.168  20.252   0.679
26519W        W98779  31.851  26.703  11.413
26520W        W98780  33.240  26.749   4.533
26521W        W98781  16.927  25.698   1.329
26522W        W98782  33.535  13.314   3.172
26523W        W98783   1.363  42.089  13.380
26524W        W98784   4.979  19.316   2.423
26525W        W98785  26.685  10.644  12.836
26526W        W98786   3.587  33.640  11.569
26527W        W98787  36.638   1.939   4.111
26528W        W98788  21.480  44.172  12.886
26529W        W98789  18.074  35.821   1.845
26530W        W98790   9.837  29.551   0.862
26531W        W98791  20.092  25.776   0.585
26532W        W98792  12.101  24.311  13.209
26533W        W98793  16.953  32.694   2.135
26534W        W98794  24.023  38.029  14.932
26535W        W98795   6.994  33.009   1.788
26536W        W98796  15.150  34.012  14.046
26537W        W98797  28.516  43.998  13.039
26538W        W98798  44.492  20.964  13.083
26539W        W98799  29.026   4.424  11.973
26540W        W98800  31.443  37.523   1.254
26541W        W98801  17.962  14.632   1.188
26542W        W98802  32.906   4.764  12.690
26543W        W98803  44.738  34.419  14.269
26544W        W98804   1.791   7.711  10.768
26545W        W98805   3.130  31.354  10.753
26546W        W98806  10.487  20.670   5.071
26547W        W98807  13.829  27.209   1.546
26548W        W98808  25.952  19.701  14.357
26549W        W98809  18.602  29.923  12.268
26550W        W98810  11.637  40.919  13.355
26551W        W98811  22.608  30.977   4.503
26552W        W98812  37.425  13.765   0.282
26553W        W98813  36.947  20.585   2.928
26554W        W98814  20.228  17.143   3.783
26555W        W98815  38.056  29.541  12.582
26556W        W98816  21.155  42.379  10.418
26557W        W98817  24.381  30.841  12.187
26558W        W98818   7.277  11.393   4.086
26559W        W98819  14.360   9.807  10.582
26560W        W98820  41.057  20.728  12.917
26561W        W98821  14.367  14.768   1.277
26562W        W98822   1.316  17.556   4.204
26563W        W98823   5.906  42.577   3.442
26564W        W98824  16.149  33.374  14.802
26565W        W98825  22.590  28.172  12.106
26566W        W98826   8.931  10.924   4.043
26567W        W98827  32.184  23.160   2.906
26568W        W98828   6.233  44.277  11.823
26569W        W98829  33.791  36.749   0.815
26570W        W98830  43.941  25.495  13.286
26571W        W98831  14.712  42.184   4.158
26572W        W98832   2.932  39.001  12.784
26573W        W98833  22.012  34.942  14.489
26574W        W98834  37.818   1.328   0.434
26575W        W98835  29.603  26.219  12.440
26576W        W98836  35.085  27.992  10.330
26577W        W98837  36.791  21.615  11.226
26578W        W98838  25.110  24.260   5.093
26579W        W98839   2.872   4.259  14.825
26580W        W98840  13.784   1.166  12.583
26581W        W98841   6.013  43.799   3.272
26582W        W98842  18.814  17.315  10.178
26583W        W98843  29.854  23.150  14.989
26584W        W98844  14.408  29.958   5.476
26585W        W98845   7.750  31.990   4.442
26586W        W98846  17.035   3.883  10.931
26587W        W98847  27.342  24.171   1.467
26588W        W98848  20.502  11.155  11.594
26589W        W98849  22.633  23.818   3.206
26590W        W98850   7.344   8.324   3.148
26591W        W98851  22.331   8.726   1.777
26592W        W98852   3.963   2.729   0.757
26593W        W98853   5.193  23.459   0.310
26594W        W98854  15.123  20.602   1.707
26595W        W98855  30.251   1.577  12.088
26596W        W98856   8.414  26.054  14.174
26597W        W98857  42.113   2.160   0.716
26598W        W98858  22.048  30.554  12.699
26599W        W98859  36.306   2.046  11.137
26600W        W98860   4.903  12.207  14.955
26601W        W98861  23.177   5.582  10.946
26602W        W98862  40.034  16.720   0.744
26603W        W98863   4.754   2.711  13.492
26604W        W98864  43.126  29.498  11.987
26605W        W98865  12.906   9.447   1.154
26606W        W98866  15.966  36.558   3.721
26607W        W98867  14.501  15.633   3.198
26608W        W98868  38.548  15.095   0.417
26609W        W98869  10.413  29.638  11.954
26610W        W98870  35.035  44.135  12.929
26611W        W98871  44.969  42.307  11.648
26612W        W98872  42.393  11.401   1.825
26613W        W98873  14.609  14.104   0.744
26614W        W98874  31.033  44.256  10.642
26615W        W98875  12.511   4.984   3.686
26616W        W98876  23.947  41.847   3.745
26617W        W98877   8.196   3.709   0.714
26618W        W98878   3.811   6.432  13.639
26619W        W98879  17.082  18.619   1.259
26620W        W98880  41.830  34.392   2.358
26621W        W98881  24.907  30.992  12.112
26622W        W98882  19.208  10.218   4.486
26623W        W98883  25.277  10.727  10.759
26624W        W98884  30.994  24.547  14.509
26625W        W98885  15.675  13.346   2.184
26626W        W98886   8.988   3.069  10.999
26627W        W98887  38.045   0.753  11.208
26628W        W98888  15.044  35.389   0.758
26629W        W98889  19.573  13.603   4.573
26630W        W98890   4.680  43.840   2.121
26631W        W98891  37.900   3.596   0.457
26632W        W98892  14.800  11.469  13.761
26633W        W98893   3.324  28.777   4.472
26634W        W98894  36.267  30.156   1.433
26635W        W98895  43.133   4.143  10.642
26636W        W98896  39.626  23.557  12.912
26637W        W98897  36.131  37.830   3.727
26638W        W98898  11.741  39.089  13.827
26639W        W98899  15.561  21.807   4.366
26640W        W98900  12.320  17.735  11.437
26641W        W98901  41.351  13.369   2.371
26642W        W98902  42.978  25.977   2.631
26643W        W98903   7.763  26.660  13.598
26644W        W98904  24.550  14.761  13.104
26645W        W98905  27.061   4.717  11.353
26646W        W98906  43.864  15.403  14.006
26647W        W98907  13.790   6.445   3.182
26648W        W98908  24.146  28.041   0.803
26649W        W98909  37.432  24.280   1.758
26650W        W98910   2.283   0.276  14.951
26651W        W98911  23.944   5.737  13.801
26652W        W98912   9.636   7.181  13.468
26653W        W98913  39.488  41.763   2.865
26654W        W98914  41.429   7.262  13.305
26655W        W98915   6.886  33.166  11.203
26656W        W98916   6.102   7.328  13.338
26657W        W98917  20.063   3.724   2.224
26658W        W98918  44.114   1.454  11.952
26659W        W98919  20.472   2.802  11.379
26660W        W98920  21.344  25.769  13.690
26661W        W98921  44.569   8.237   1.738
26662W        W98922  41.077  24.593   0.429
26663W        W98923  23.687  38.336  10.758
26664W        W98924  28.336   0.506  11.197
26665W        W98925   3.289  40.566   3.713
26666W        W98926  30.246  30.997  13.457
26667W        W98927  14.094   2.934   4.163
26668W        W98928  10.133   9.566   3.616
26669W        W98929  19.980   6.366   1.310
26670W        W98930  33.147  38.740  11.540
26671W        W98931  28.180  13.262   3.794
26672W        W98932  23.132  28.484   2.803
26673W        W98933  14.227  29.895   3.172
26674W        W98934  40.074  12.809   2.318
26675W        W98935   3.102  22.052  10.882
26676W        W98936  19.413  29.211  14.078
26677W        W98937  28.832  11.566   3.057
26678W        W98938  14.382  36.376  14.532
26679W        W98939   8.422  25.381   3.117
26680W        W98940  16.725   1.788  10.918
26681W        W98941  17.990  36.081   1.391
26682W        W98942  16.062  15.202  11.276
26683W        W98943  41.932  31.123  10.778
26684W        W98944   0.385  31.104  12.129
26685W        W98945  22.471  38.191  12.496
26686W        W98946   6.490  18.327  14.455
26687W        W98947   7.473   6.191   3.708
26688W        W98948  41.793   1.965  12.506
26689W        W98949   5.610  23.440  14.946
26690W        W98950  22.915   5.156   1.830
26691W        W98951  30.130   6.301  14.992
26692W        W98952  44.058  15.185   1.654
26693W        W98953  40.527  41.877   0.770
26694W        W98954  39.566   0.941  12.586
26695W        W98955  24.334  10.901   4.136
26696W        W98956  26.486   2.481  11.537
26697W        W98957  30.192  40.032  11.916
26698W        W98958  40.278  14.291   3.057
26699W        W98959  36.487  10.362   1.385
26700W        W98960  12.136  42.646  11.916
26701W        W98961  10.400  29.218  14.357
26702W        W98962  37.874   6.951  13.953
26703W        W98963   8.227  44.065   4.792
26704W        W98964  32.248  41.762   5.092
26705W        W98965  31.550  10.020  12.013
26706W        W98966  32.651  43.377  14.407
26707W        W98967  41.971  23.222   3.737
26708W        W98968  16.738   8.257  13.674
26709W        W98969  20.011   7.317   2.795
26710W        W98970  15.342  25.344   1.767
26711W        W98971   9.692  40.807  14.736
26712W        W98972  30.716   1.028  13.347
26713W        W98973   0.992  31.580   3.370
26714W        W98974  10.347  17.927   1.593
26715W        W98975  36.010  32.410  13.370
26716W        W98976  35.400   8.458  13.783
26717W        W98977  19.690  44.503  11.313
26718W        W98978   3.153  17.740   0.264
26719W        W98979   3.004  11.539   3.822
26720W        W98980  29.906  32.411   0.619
26721W        W98981  24.735  23.105  11.599
26722W        W98982   3.937  15.210   2.217
26723W        W98983   1.583   9.532  11.581
26724W        W98984  21.974  15.296   2.926
26725W        W98985  10.270  23.712   1.290
26726W        W98986  23.647  34.191  14.208
26727W        W98987  23.703  16.757   0.574
26728W        W98988  29.674  25.212   0.899
26729W        W98989  15.992  32.338  12.051
26730W        W98990  18.816  13.327  14.220
26731W        W98991  29.059   1.828  11.325
26732W        W98992  21.106   6.096   3.731
26733W        W98993   5.393  26.873  13.393
26734W        W98994  25.412  40.927   0.024
26735W        W98995  41.430  37.478   1.339
26736W        W98996  30.579  29.070  14.066
26737W        W98997  38.484   7.652   2.824
26738W        W98998   0.951   9.166   3.362
26739W        W98999  15.109   3.739   4.434
26740W        W99000  16.166   2.991   1.085
26741W        W99001   8.243   2.337  10.719
26742W        W99002  34.938  40.003   0.562
26743W        W99003   0.446  40.991  13.729
26744W        W99004  21.611  32.035  13.360
26745W        W99005   6.258   2.363   3.162
26746W        W99006  20.513  31.811  12.924
26747W        W99007   6.776  22.684   0.502
26748W        W99008  24.518  39.223   4.985
26749W        W99009  36.374  12.607   4.965
26750W        W99010  43.648  15.872  10.221
26751W        W99011  40.097  33.869   4.007
26752W        W99012  23.035  23.657   4.900
26753W        W99013   6.502  17.682  14.908
26754W        W99014  39.444  22.899  14.861
26755W        W99015  21.104  41.023  12.661
26756W        W99016  25.485  15.200   3.773
26757W        W99017  10.741  21.987  12.511
26758W        W99018   6.741   9.331  10.599
26759W        W99019  32.396  20.801   4.272
26760W        W99020  11.623   3.255  12.908
26761W        W99021  41.753  35.149  14.540
26762W        W99022  42.094  10.330   2.781
26763W        W99023  15.228   5.945   0.447
26764W        W99024  16.297  25.583  14.895
26765W        W99025  37.339  37.397   1.824
26766W        W99026  30.416  42.889   0.150
26767W        W99027  31.597  17.183   3.681
26768W        W99028  31.882   1.334  11.590
26769W        W99029  21.828  36.058  12.830
26770W        W99030  38.889  39.034  13.393
26771W        W99031  32.026  37.940  12.937
26772W        W99032  23.160   6.745  14.362
26773W        W99033  24.538  29.078  12.667
26774W        W99034  42.949  37.358  12.543
26775W        W99035  21.622  10.270  13.245
26776W        W99036  44.697  14.530  11.223
26777W        W99037  17.493  24.640   4.174
26778W        W99038  15.240  34.751  12.279
26779W        W99039  18.162   2.198   1.037
26780W        W99040  36.106  25.131   3.463
26781W        W99041  38.430   1.166  14.149
26782W        W99042  44.577  26.678  10.592
26783W        W99043  10.574  34.516  14.246
26784W        W99044   6.250   6.685  14.915
26785W        W99045  43.002  39.482   2.332
26786W        W99046   5.847  30.408  14.861
26787W        W99047  15.118  21.564   0.515
26788W        W99048  27.156  29.070   0.426
26789W        W99049  41.104  34.321  12.072
26790W        W99050  13.527  43.829  13.038
26791W        W99051  30.281  42.513   2.160
26792W        W99052   7.387  43.766   4.543
26793W        W99053   9.122  43.452  12.380
26794W        W99054   2.748  43.922   2.339
26795W        W99055  44.297  28.976   2.318
26796W        W99056  40.533  27.697  14.419
26797W        W99057  29.685  29.929   0.697
26798W        W99058  33.933  12.263   3.488
26799W        W99059  27.894  27.628  14.949
26800W        W99060  28.376  13.176   1.194
26801W        W99061   9.792  17.309   0.707
26802W        W99062   2.688  37.170  14.439
26803W        W99063  44.501   1.088   3.407
26804W        W99064   2.788  27.777  12.511
26805W        W99065  44.189  32.551  11.618
26806W        W99066   5.999  14.112   4.003
26807W        W99067  44.975  33.295   2.706
26808W        W99068   1.889  10.898   0.596
26809W        W99069  43.682  12.186   3.996
26810W        W99070  34.520  17.583   1.861
26811W        W99071  19.665  12.310   4.148
26812W        W99072   5.204  40.026   0.004
26813W        W99073   7.186  21.529   0.364
26814W        W99074  27.125  21.567  13.539
26815W        W99075  34.542  14.548  12.460
26816W        W99076  13.733  42.078  12.596
26817W        W99077  42.746  43.098  10.842
26818W        W99078  27.458  23.760  10.823
26819W        W99079  40.184   7.887  11.078
26820W        W99080  18.531  13.773  12.089
26821W        W99081  41.513  38.456   1.217
26822W        W99082  37.077  37.454  11.074
26823W        W99083  21.007  31.128   1.843
26824W        W99084  36.930  35.852   2.907
26825W        W99085  13.006  29.578  12.988
26826W        W99086  14.443  21.112   0.743
26827W        W99087   7.472   8.423   0.514
26828W        W99088   1.371   3.913   2.339
26829W        W99089  18.174   7.860  12.436
26830W        W99090  25.431  31.045   1.874
26831W        W99091  23.659  38.393   3.573
26832W        W99092  37.815   0.734   0.049
26833W        W99093  41.939  16.064  11.976
26834W        W99094  17.840  40.280  11.792
26835W        W99095   8.663  13.163   4.203
26836W        W99096  14.137  38.520   4.700
26837W        W99097   3.317  30.462  13.031
26838W        W99098  11.290  28.385   3.260
26839W        W99099  13.405   9.357   1.043
26840W        W99100  17.072  31.832   0.262
26841W        W99101  25.731  12.214   3.167
26842W        W99102  43.325   3.326  10.723
26843W        W99103   3.911  44.713   3.381
26844W        W99104  31.565  26.604   4.662
26845W        W99105  17.512  12.389   1.895
26846W        W99106  44.296  15.430  13.148
26847W        W99107  19.556  32.371  12.970
26848W        W99108   6.216   3.015  14.552
26849W        W99109  32.557  43.756   2.222
26850W        W99110  28.921  37.440  12.357
26851W        W99111  27.941  23.933   3.269
26852W        W99112   1.907   9.862   2.328
26853W        W99113   8.599   7.841   2.907
26854W        W99114  12.791  39.830  10.380
26855W        W99115   0.047  15.196   2.162
26856W        W99116  19.013   7.663   3.331
26857W        W99117   9.896  13.137  11.547
26858W        W99118  38.826  29.797  11.487
26859W        W99119  17.144  12.096  12.001
26860W        W99120   8.957  15.682  13.921
26861W        W99121  28.190  44.908  12.869
26862W        W99122   1.648   7.540   1.299
26863W        W99123   8.738  32.979  14.646
26864W        W99124  28.155  33.383   4.410
26865W        W99125   3.548  11.715  13.582
26866W        W99126   2.298  19.326   2.374
26867W        W99127   0.782  31.483   1.259
26868W        W99128   3.947  32.131  11.140
26869W        W99129   9.715  22.888  13.515
26870W        W99130   7.279  15.922  11.597
26871W        W99131  37.893   5.061   4.711
26872W        W99132  16.637  28.059   2.180
26873W        W99133  44.349  12.735  14.439
26874W        W99134  19.491  33.404  12.926
26875W        W99135   5.170   4.048   0.988
26876W        W99136  40.763  40.711   4.353
26877W        W99137  31.994  18.042  13.278
26878W        W99138  38.488  12.749   3.250
26879W        W99139  20.832  24.821   2.570
26880W        W99140  34.075  14.293  10.698
26881W        W99141  17.628   3.609   0.138
26882W        W99142   4.259  37.542  12.496
26883W        W99143  34.483  30.018   2.133
26884W        W99144  23.233   4.380  11.529
26885W        W99145  22.246  27.698  14.680
26886W        W99146  34.538  14.887  14.843
26887W        W99147   4.477   3.847  14.436
26888W        W99148  23.463  22.258   3.732
26889W        W99149  30.407  42.486   3.315
26890W        W99150   3.668  35.144  14.911
26891W        W99151  32.889   9.240   0.895
26892W        W99152  32.559  43.731  11.426
26893W        W99153  17.831  39.913   3.742
26894W        W99154  16.256  33.368   3.670
26895W        W99155  10.341  43.857   1.664
26896W        W99156  19.719  44.223  12.765
26897W        W99157  23.778  28.288  14.712
26898W        W99158   8.510   9.810   1.418
26899W        W99159  23.255   4.394  10.728
26900W        W99160  28.891  43.800   2.240
26901W        W99161  38.785  23.463   3.197
26902W        W99162  30.699  25.231   0.833
26903W        W99163  37.138  42.054   4.040
26904W        W99164  29.621  24.799   3.060
26905W        W99165  15.190  20.544  10.841
26906W        W99166  36.442  23.196  14.152
26907W        W99167  14.663  37.947   4.814
26908W        W99168  34.648  32.760  11.139
26909W        W99169  13.197   2.286   4.336
26910W        W99170  24.222  14.455   1.903
26911W        W99171  16.055  39.168   0.737
26912W        W99172  40.300   9.270   0.891
26913W        W99173  31.362  11.382   4.149
26914W        W99174  22.773  30.495   0.798
26915W        W99175   4.412  43.353   0.714
26916W        W99176  33.138   6.394  12.474
26917W        W99177   3.962  31.523   1.364
26918W        W99178  17.876  28.630  14.704
26919W        W99179  27.973  18.183  13.069
26920W        W99180  15.543  27.709  10.344
26921W        W99181  38.154  15.402  12.642
26922W        W99182  13.386  14.599   3.878
26923W        W99183  39.659   8.867  11.195
26924W        W99184  14.578  12.313   0.408
26925W        W99185  35.072  15.598   0.345
26926W        W99186  29.004  42.626  13.748
26927W        W99187  39.034  23.631  13.446
26928W        W99188  21.814  31.022   3.652
26929W        W99189  25.624  12.293  10.657
26930W        W99190   4.290  31.585   3.150
26931W        W99191  34.666  28.056  12.100
26932W        W99192  23.400  27.062   3.256
26933W        W99193   0.146  42.894  11.076
26934W        W99194  31.375  23.255  11.529
26935W        W99195  41.945  35.110   0.544
26936W        W99196  33.492  39.184   3.468
26937W        W99197   4.906  43.740  14.921
26938W        W99198  43.187  10.236   4.002
26939W        W99199  18.307   9.415  10.379
26940W        W99200   6.383  12.604   1.732
26941W        W99201  15.510  19.667  14.244
26942W        W99202   8.080  44.387  11.501
26943W        W99203   2.707   1.640  14.942
26944W        W99204   4.313  17.291   2.854
26945W        W99205  30.494  24.151  13.952
26946W        W99206  12.074  35.488   4.331
26947W        W99207  26.332   4.614   3.608
26948W        W99208  42.443  37.578   2.485
26949W        W99209   2.889   0.447  10.610
26950W        W99210  27.938   0.111  13.870
26951W        W99211   5.617  34.506   3.099
26952W        W99212  43.186  12.764   2.296
26953W        W99213  36.093  32.456   2.608
26954W        W99214  35.633  10.054   3.697
26955W        W99215  10.465  16.578   2.404
26956W        W99216  22.738  39.974  11.995
26957W        W99217  26.256  11.808  11.654
26958W        W99218   4.972  13.815   4.654
26959W        W99219  44.311   9.922   4.131
26960W        W99220   5.927  38.345  10.967
26961W        W99221  29.398  25.817   2.176
26962W        W99222  26.132  41.953   0.658
26963W        W99223  24.470  42.365   1.906
26964W        W99224  12.263  26.718  14.879
26965W        W99225  26.916  22.104  12.022
26966W        W99226   1.194  13.127   3.679
26967W        W99227  19.123  41.237   3.144
26968W        W99228  41.532  34.854  12.853
26969W        W99229  40.085  19.034   1.193
26970W        W99230   3.690  27.143  14.849
26971W        W99231   7.470  32.550  12.930
26972W        W99232  21.176  10.230  13.646
26973W        W99233  10.383   5.881   2.967
26974W        W99234  41.977   3.284   1.969
26975W        W99235  19.218  31.150  10.746
26976W        W99236  31.832   6.368  11.600
26977W        W99237  22.518  11.382  11.275
26978W        W99238  41.372  15.351   4.463
26979W        W99239  34.015   2.915   2.929
26980W        W99240   2.694  28.466   2.026
26981W        W99241   0.910  44.222  14.967
26982W        W99242  34.053   7.910   2.380
26983W        W99243   3.496  31.583   2.747
26984W        W99244  30.971  37.392  13.147
26985W        W99245  42.845  44.803  14.701
26986W        W99246  21.730  37.572   4.241
26987W        W99247   0.189   0.877  14.467
26988W        W99248  24.646  36.881   4.238
26989W        W99249  26.455   1.531   4.101
26990W        W99250  32.291  24.306   3.856
26991W        W99251  43.484  34.722   2.827
26992W        W99252   3.354  41.007  14.337
26993W        W99253  27.996  21.965  14.276
26994W        W99254  43.539   8.665  11.146
26995W        W99255  14.556  19.892   1.728
26996W        W99256  36.912  10.173   0.033
26997W        W99257  24.942  37.426  10.430
26998W        W99258  19.707  32.176  14.362
26999W        W99259  35.089  34.892   0.693
27000W        W99260  21.605  28.633  12.575
27001W        W99261   1.247  11.138  12.956
27002W        W99262  13.263  34.663   2.366
27003W        W99263  32.481  27.459  14.533
27004W        W99264  44.176  34.398   0.336
27005W        W99265  33.477  31.474  11.333
27006W        W99266  21.196  44.554  14.338
27007W        W99267   6.862   8.301  10.970
27008W        W99268  30.914   7.758  12.173
27009W        W99269   9.287  38.237  11.469
27010W        W99270   3.471   4.814  12.802
27011W        W99271  23.368  32.572  14.296
27012W        W99272  22.938   3.903   4.532
27013W        W99273   8.720  20.670   2.747
27014W        W99274  26.463  23.455  11.196
27015W        W99275  17.242  14.191  13.985
27016W        W99276  26.121  20.656   1.217
27017W        W99277   0.134   2.395   2.668
27018W        W99278   3.410   6.458   1.100
27019W        W99279  20.140  24.028  12.511
27020W        W99280  32.136   2.279  14.270
27021W        W99281   5.877  11.073  12.890
27022W        W99282  32.596   1.521   1.032
27023W        W99283   2.484  41.020   0.275
27024W        W99284  43.256  34.953  12.608
27025W        W99285  28.780  29.322   2.110
27026W        W99286  12.811  39.596  11.513
27027W        W99287  27.628   5.818  13.415
27028W        W99288  11.458  31.393  12.304
27029W        W99289  44.426   2.163  12.321
27030W        W99290   4.171  12.422   3.408
27031W        W99291  22.184  39.737  13.425
27032W        W99292  39.791  19.346   1.995
27033W        W99293  25.878  29.956  11.124
27034W        W99294  33.106  43.759   1.849
27035W        W99295  26.629  37.468   4.915
27036W        W99296  38.765  19.022  14.126
27037W        W99297   4.304  15.423  11.562
27038W        W99298   8.442  18.346   2.645
27039W        W99299   9.604  22.836   1.719
27040W        W99300  42.522  19.815  12.538
27041W        W99301  10.640  34.166   2.366
27042W        W99302  37.123   9.922  11.512
27043W        W99303  35.279  42.878   4.603
27044W        W99304  12.193  33.052  10.603
27045W        W99305   4.726  35.993  11.610
27046W        W99306   9.207  43.913  14.538
27047W        W99307   8.398  19.071   3.904
27048W        W99308   6.456  39.410  13.919
27049W        W99309  19.734  19.791   0.484
27050W        W99310  43.567  33.088  13.847
27051W        W99311  14.534   4.395  14.739
27052W        W99312   8.717  22.632   4.999
27053W        W99313  27.378  23.636  14.594
27054W        W99314   7.801   7.191   4.571
27055W        W99315   3.319   8.770  10.342
27056W        W99316  24.580  18.538   3.608
27057W        W99317  11.838  35.032  14.487
27058W        W99318  19.458  22.518   1.986
27059W        W99319  21.797  29.023  12.299
27060W        W99320  12.519  30.059  12.463
27061W        W99321   8.152  27.543  10.629
27062W        W99322   4.252  20.431  12.871
27063W        W99323  27.710  39.345  10.592
27064W        W99324   7.242  34.128   2.283
27065W        W99325  10.673  26.233   3.993
27066W        W99326  43.732   6.653   3.196
27067W        W99327   0.943  13.072   2.669
27068W        W99328  15.661  40.103   0.879
27069W        W99329  33.087  41.227   4.141
27070W        W99330  38.494   9.487   0.646
27071W        W99331   9.270  22.107   4.355
27072W        W99332   1.662  22.996  13.647
27073W        W99333  15.199  38.321   0.997
27074W        W99334  35.145  30.802   3.394
27075W        W99335  27.256  27.899  14.057
27076W        W99336  35.353   8.170   1.270
27077W        W99337  19.234  28.221   3.219
27078W        W99338  12.539  17.067   1.750
27079W        W99339  10.421  44.025  12.537
27080W        W99340  10.193  28.227  13.444
27081W        W99341  34.385  42.528  14.290
27082W        W99342  41.842  43.302   3.672
27083W        W99343  15.334   9.228   0.782
27084W        W99344  35.041   7.551  10.473
27085W        W99345  13.312  39.532   2.315
27086W        W99346  24.799  41.980  11.318
27087W        W99347   3.424  31.156  13.389
27088W        W99348  33.761  19.554  13.565
27089W        W99349  40.596  20.117   3.275
27090W        W99350  41.773  21.490   0.747
27091W        W99351  13.073  12.270   0.270
27092W        W99352  36.559  33.816   2.691
27093W        W99353  36.884  11.236  13.133
27094W        W99354  41.039  16.699   3.721
27095W        W99355  32.527  16.288  10.996
27096W        W99356  11.777  44.374  11.976
27097W        W99357   1.206   8.962  12.902
27098W        W99358   9.169  33.554   4.119
27099W        W99359  44.175   7.355  12.288
27100W        W99360  35.001   1.760  13.302
27101W        W99361  34.108  13.189  11.562
27102W        W99362   9.899  40.478  10.683
27103W        W99363  18.081  37.087   4.953
27104W        W99364  34.478   0.961  12.919
27105W        W99365  43.788  32.227   3.888
27106W        W99366   3.820   8.313  11.342
27107W        W99367  18.785  11.722  14.873
27108W        W99368  44.359  33.921   2.439
27109W        W99369   9.075   5.264   0.832
27110W        W99370  15.429  43.955  11.998
27111W        W99371  12.908  39.365   0.412
27112W        W99372  26.316   5.038  11.444
27113W        W99373   9.103  26.568  12.075
27114W        W99374  11.161  29.614   2.714
27115W        W99375  26.325  40.363  14.435
27116W        W99376   2.067  34.719  11.597
27117W        W99377  11.311  22.004  10.757
27118W        W99378  39.313  22.669   2.946
27119W        W99379  27.484   3.919   3.028
27120W        W99380   5.720  12.351   1.293
27121W        W99381  30.528  21.023  11.547
27122W        W99382   1.707  32.974  12.459
27123W        W99383  43.101   4.706   0.336
27124W        W99384  30.881  29.933  13.017
27125W        W99385  42.568  24.945   1.713
27126W        W99386  28.728  16.589  12.884
27127W        W99387  24.590   4.765   3.851
27128W        W99388  22.962  19.306   1.865
27129W        W99389  28.718  32.593  12.118
27130W        W99390   6.294  34.941  13.288
27131W        W99391  22.830   4.897   1.302
27132W        W99392  17.322  12.220  10.713
27133W        W99393  25.568  27.275   2.430
27134W        W99394  18.882  42.736  12.881
27135W        W99395  43.827  31.973   2.974
27136W        W99396   7.704   7.431   4.129
27137W        W99397  39.890  33.907   4.468
27138W        W99398  15.701   2.283   2.900
27139W        W99399  44.975  15.734  14.767
27140W        W99400  17.183   0.390  13.882
27141W        W99401  31.644   4.466   2.885
27142W        W99402  14.578  27.565  14.546
27143W        W99403  15.729   9.818   4.449
27144W        W99404  41.448   4.638  13.102
27145W        W99405  31.384  33.616  11.138
27146W        W99406   5.456  18.275  14.388
27147W        W99407  16.656  35.803  12.821
27148W        W99408  24.952   9.774  11.171
27149W        W99409   5.465   8.253   0.828
27150W        W99410  18.519   6.126   4.640
27151W        W99411  17.636   5.759  13.903
27152W        W99412  34.076  21.542  10.401
27153W        W99413  35.517   2.371   0.381
27154W        W99414  18.677   5.514  13.023
27155W        W99415  33.115  35.936  10.959
27156W        W99416   1.422  25.193   2.304
27157W        W99417  29.864  24.918  11.769
27158W        W99418  26.106  26.176   2.310
27159W        W99419  35.942  28.419   2.290
27160W        W99420  42.546  28.121  12.339
27161W        W99421  10.683  30.061   1.896
27162W        W99422  36.611  29.957  12.118
27163W        W99423   4.293  11.262  13.339
27164W        W99424   8.624  26.671  13.089
27165W        W99425   0.090  10.461   0.216
27166W        W99426  31.518  34.778   0.198
27167W        W99427  16.353  38.799  13.573
27168W        W99428  16.201  22.823  14.418
27169W        W99429  43.063  34.078  12.448
27170W        W99430  24.673  39.574   3.709
27171W        W99431  17.128  16.307  14.839
27172W        W99432  25.724  10.119   0.239
27173W        W99433   9.991  18.738  14.523
27174W        W99434  25.523  42.853   5.090
27175W        W99435  25.790  34.046   4.214
27176W        W99436  13.617  10.701   4.845
27177W        W99437   5.427  24.227  12.915
27178W        W99438  28.432   0.902   1.739
27179W        W99439   5.435  19.681   3.595
27180W        W99440   9.649  10.849  10.242
27181W        W99441  24.044  21.473  14.857
27182W        W99442  28.809  35.648  13.213
27183W        W99443  15.232  32.340   1.969
27184W        W99444  14.663  19.639  12.947
27185W        W99445  28.464  10.192  14.930
27186W        W99446  19.945  31.513  13.437
27187W        W99447  24.432  38.750   4.058
27188W        W99448  10.137  39.122  14.473
27189W        W99449  30.054  27.181   4.269
27190W        W99450  41.833   1.862   1.437
27191W        W99451  22.575  34.852   0.438
27192W        W99452  42.578   4.815   3.611
27193W        W99453  36.096  13.207   2.344
27194W        W99454  38.101   1.931  11.639
27195W        W99455  13.669   1.442   0.235
27196W        W99456  38.239  29.272   1.298
27197W        W99457  31.420  42.946   3.330
27198W        W99458   3.543  13.245   5.126
27199W        W99459  34.844  15.452   4.151
27200W        W99460  33.587  40.439   2.396
27201W        W99461  10.365  16.530   4.188
27202W        W99462  44.348  35.813  12.768
27203W        W99463  24.217   9.918  12.830
27204W        W99464  10.627  25.080  12.605
27205W        W99465  21.129  27.530   4.079
27206W        W99466   6.200  11.650   0.978
27207W        W99467  30.173  25.654  13.369
27208W        W99468   7.318   0.312  14.572
27209W        W99469   6.174  34.540   2.395
27210W        W99470  27.965  27.956   1.736
27211W        W99471  11.217   9.758   1.901
27212W        W99472  23.673  32.843  13.633
27213W        W99473  11.340  21.201  10.188
27214W        W99474  21.325  34.106  11.530
27215W        W99475  36.451  33.496   4.427
27216W        W99476  22.500  11.364  13.153
27217W        W99477   5.880   3.968  10.713
27218W        W99478  16.488  14.409   4.944
27219W        W99479  25.624  31.738   0.742
27220W        W99480  23.532  37.527  11.946
27221W        W99481  43.535  39.628   4.278
27222W        W99482  41.479  26.988   0.002
27223W        W99483  17.455   8.981   2.408
27224W        W99484   0.893   8.831  11.250
27225W        W99485   5.821  35.064  13.436
27226W        W99486   4.331  33.888   1.344
27227W        W99487  25.050  25.718   2.054
27228W        W99488  12.089  14.740   3.312
27229W        W99489  26.010  24.658   4.010
27230W        W99490  32.080  18.758   4.088
27231W        W99491   0.007  18.127   1.975
27232W        W99492  21.208  27.806   0.005
27233W        W99493  27.165  16.539  12.410
27234W        W99494  24.683  28.001   1.542
27235W        W99495  15.238   9.257   1.965
27236W        W99496  33.195  30.721   2.608
27237W        W99497  28.283   5.794  12.039
27238W        W99498  38.816  32.391   3.190
27239W        W99499  19.599  15.270  13.715
27240W        W99500  12.816  20.775   3.813
27241W        W99501  21.087  19.237   1.789
27242W        W99502  12.971  12.821   0.889
27243W        W99503   8.280  34.537  13.471
27244W        W99504  10.862  10.172   0.917
27245W        W99505  10.694  34.551   3.275
27246W        W99506   8.714  34.074  10.438
27247W        W99507  23.463  21.764   5.708
27248W        W99508  10.785  22.098   1.013
27249W        W99509  26.967  32.383   2.585
27250W        W99510  39.308  19.576   1.219
27251W        W99511  31.930   6.324   2.653
27252W        W99512  23.599  43.249   4.689
27253W        W99513  14.874   7.855   1.807
27254W        W99514  10.800  32.956   4.396
27255W        W99515  13.342  34.408   3.661
27256W        W99516  34.164  29.970   3.636
27257W        W99517  17.616   3.221  13.905
27258W        W99518  19.419   9.401   1.048
27259W        W99519  34.144  36.273   4.521
27260W        W99520  12.610  40.449  13.874
27261W        W99521  24.455  23.633  14.723
27262W        W99522  15.552  32.950  14.641
27263W        W99523  37.581  17.275   1.947
27264W        W99524  36.653  28.388  11.054
27265W        W99525  22.426  35.830  10.466
27266W        W99526  12.077  10.724  11.944
27267W        W99527  21.201  41.516   3.131
27268W        W99528  19.117  21.292  11.556
27269W        W99529  12.600   6.408  12.459
27270W        W99530   2.303   7.101  12.159
27271W        W99531  21.045   8.750  14.519
27272W        W99532  36.646  40.324   3.641
27273W        W99533  44.398  31.571  11.517
27274W        W99534  37.479  12.276   4.629
27275W        W99535  30.416  12.577  14.718
27276W        W99536  36.381   7.655   3.663
27277W        W99537  19.183  30.364  12.434
27278W        W99538  22.215  35.328   0.251
27279W        W99539  25.362  37.353  13.964
27280W        W99540  13.575   4.914   1.008
27281W        W99541  23.047  18.517   2.259
27282W        W99542  11.568   3.325   0.348
27283W        W99543  19.258   7.818   0.599
27284W        W99544  17.055  17.862   0.735
27285W        W99545  15.882   4.395   4.280
27286W        W99546  38.812  41.519  12.395
27287W        W99547  10.473  41.509   0.745
27288W        W99548  40.294  11.549   4.615
27289W        W99549   9.668   0.698  13.050
27290W        W99550  17.811  34.605  12.526
27291W        W99551  29.615   7.961  11.972
27292W        W99552  12.838  17.663  11.448
27293W        W99553   3.561   9.221  12.194
27294W        W99554  24.802  22.653  12.162
27295W        W99555  23.123   6.951   2.082
27296W        W99556  22.222   6.665   0.661
27297W        W99557  19.165  17.436   2.334
27298W        W99558  31.936  33.864  13.119
27299W        W99559  24.548  33.401  13.795
27300W        W99560   4.330   8.977   3.289
27301W        W99561  20.056  14.997  13.875
27302W        W99562  44.061  21.633   2.069
27303W        W99563  13.692  12.326  14.009
27304W        W99564  22.540  34.700   3.189
27305W        W99565   9.801  13.613  11.664
27306W        W99566  21.222  21.547   2.263
27307W        W99567  29.539  17.521   3.209
27308W        W99568  24.637  31.121  14.876
27309W        W99569  22.032  32.481  14.036
27310W        W99570  44.723  39.066   4.951
27311W        W99571  43.913  14.186  11.560
27312W        W99572  33.470  25.905  10.249
27313W        W99573  38.589   3.436  11.077
27314W        W99574  24.568  35.639   4.656
27315W        W99575  26.575  23.720  13.522
27316W        W99576  15.867  21.063   0.681
27317W        W99577  37.974  23.746  10.665
27318W        W99578   1.277  11.173   3.685
27319W        W99579  20.049  43.950   0.878
27320W        W99580  14.050  31.906   4.505
27321W        W99581  37.979  27.914  11.761
27322W        W99582  37.999  21.380  11.992
27323W        W99583   0.852  28.232  12.993
27324W        W99584  23.643  30.655   3.186
27325W        W99585  17.138  39.607   0.428
27326W        W99586   4.289  42.242   1.229
27327W        W99587  40.220  19.143   0.338
27328W        W99588  13.514  14.861   0.924
27329W        W99589  41.587  39.552   4.249
27330W        W99590  22.625  40.445  11.556
27331W        W99591  12.339  43.521   1.666
27332W        W99592  16.846   8.909   0.167
27333W        W99593  29.119  26.615  14.998
27334W        W99594   5.371  10.871   3.094
27335W        W99595  26.959   3.162   3.262
27336W        W99596  15.061  43.801  10.786
27337W        W99597  37.993  35.012   1.276
27338W        W99598  37.400  10.941   2.398
27339W        W99599  39.091   6.875   2.277
27340W        W99600  35.981  20.316  11.209
27341W        W99601  37.046  20.049  13.508
27342W        W99602  27.459  19.262   1.753
27343W        W99603  38.829   1.986  13.532
27344W        W99604  21.646  14.826   1.702
27345W        W99605  38.496  29.215   0.387
27346W        W99606   3.673  37.082  13.535
27347W        W99607  21.284  18.570   4.726
27348W        W99608   0.396  23.710   0.834
27349W        W99609  40.518   8.988  11.629
27350W        W99610  23.103  28.890  13.316
27351W        W99611  39.893  43.115   1.903
27352W        W99612  28.420  36.390   3.515
27353W        W99613  30.817   7.102  13.050
27354W        W99614   4.948  26.694   0.850
27355W        W99615   2.958  36.332   3.300
27356W        W99616  28.632  44.981  14.817
27357W        W99617  28.644  28.544  12.308
27358W        W99618  41.456  14.571  13.371
27359W        W99619  30.807  24.655   3.629
27360W        W99620  35.351  35.933   5.122
27361W        W99621  13.176  18.096   0.797
27362W        W99622  14.577   1.242   2.417
27363W        W99623  32.880  27.584  14.851
27364W        W99624   8.299  22.959   2.698
27365W        W99625  26.538  36.525   5.209
27366W        W99626  13.234  39.963  14.199
27367W        W99627  15.727  11.275   2.432
27368W        W99628  28.731  11.362  12.414
27369W        W99629  17.099  11.059   4.746
27370W        W99630  17.944   8.157   1.295
27371W        W99631  27.059   1.078   3.695
27372W        W99632  21.194  43.397  11.477
27373W        W99633  17.701   3.057   3.368
27374W        W99634  35.592  38.073  14.033
27375W        W99635  21.104  34.033   4.878
27376W        W99636  44.623  20.591  13.858
27377W        W99637  10.425  30.117  13.394
27378W        W99638  36.818  11.864  14.420
27379W        W99639  41.808  34.682   4.256
27380W        W99640   1.326  35.828   2.678
27381W        W99641  11.172  15.256   4.194
27382W        W99642   4.548  44.959  12.618
27383W        W99643   2.328  30.592  11.338
27384W        W99644  28.082  35.045  13.184
27385W        W99645  20.357  40.915  13.825
27386W        W99646  27.538   5.654  14.859
27387W        W99647  30.624  26.553   4.211
27388W        W99648  26.483  38.939   3.104
27389W        W99649  18.546  15.357   2.962
27390W        W99650  15.565  39.027   2.802
27391W        W99651  20.476   3.226  12.595
27392W        W99652  37.152  27.075  10.983
27393W        W99653  14.144  14.270  12.587
27394W        W99654   8.132  14.441  14.076
27395W        W99655  19.693  41.747   2.183
27396W        W99656  11.840  34.021   1.717
27397W        W99657  39.917   9.318  11.132
27398W        W99658  24.319  23.447  12.464
27399W        W99659  24.699  23.197   0.462
27400W        W99660  28.453  12.031  11.140
27401W        W99661  38.333   0.513  12.957
27402W        W99662  34.109  20.091  14.611
27403W        W99663  32.971  25.062  10.656
27404W        W99664  16.313  11.594   1.666
27405W        W99665  36.774  25.779   4.851
27406W        W99666  35.620  25.542  11.156
27407W        W99667  18.281  18.137   1.479
27408W        W99668  44.247   0.404   4.115
27409W        W99669  28.461   6.682   1.467
27410W        W99670   7.650  13.356  14.990
27411W        W99671  40.049  34.961   4.310
27412W        W99672   0.411  33.914   3.457
27413W        W99673   2.563  40.300  13.301
27414W        W99674  18.620  36.383  12.225
27415W        W99675  24.693  24.016  12.466
27416W        W99676   1.187  22.640   0.935
27417W        W99677  12.597  41.161  14.481
27418W        W99678  28.554  26.009  12.141
27419W        W99679   3.635  13.605  12.744
27420W        W99680  12.213  13.299  14.876
27421W        W99681  35.576  40.923  14.896
27422W        W99682  24.574  32.512  14.504
27423W        W99683  39.309  27.543   0.229
27424W        W99684  23.219   7.426   4.394
27425W        W99685  16.800  20.163   1.104
27426W        W99686  26.049   7.309   4.873
27427W        W99687   9.198   8.898   1.881
27428W        W99688  11.265   7.255   4.887
27429W        W99689  41.872  30.228  11.164
27430W        W99690  43.452  30.140  12.523
27431W        W99691   5.771  39.131   1.879
27432W        W99692  21.486   9.361  11.084
27433W        W99693  44.069   2.234  13.995
27434W        W99694  30.174  43.319   0.358
27435W        W99695  42.274  17.739  11.609
27436W        W99696  34.387  29.622   3.202
27437W        W99697  43.964   8.249  14.585
27438W        W99698  33.897  17.407  12.571
27439W        W99699  26.056  17.119   2.797
27440W        W99700   6.834  11.855  13.708
27441W        W99701  33.389   2.851   0.822
27442W        W99702   5.074   6.598  13.077
27443W        W99703  26.456  34.333   2.296
27444W        W99704  19.982  32.651  13.099
27445W        W99705  43.980  17.669  12.859
27446W        W99706   0.848   7.489   1.303
27447W        W99707   0.834  24.389   2.584
27448W        W99708  26.223   2.759   4.548
27449W        W99709  25.661  32.147  13.373
27450W        W99710  19.582  16.194   1.234
27451W        W99711  35.155  34.232   4.232
27452W        W99712  35.109  33.093   2.392
27453W        W99713  14.661  32.524   2.875
27454W        W99714  33.416  41.576   0.887
27455W        W99715   5.945   6.684   3.129
27456W        W99716  10.280   7.657   1.135
27457W        W99717  29.986  38.740  11.675
27458W        W99718   8.294  37.414  12.856
27459W        W99719  18.655   4.214  11.615
27460W        W99720   1.742   9.110   2.825
27461W        W99721   8.949   9.680   4.863
27462W        W99722  35.396  10.767  11.966
27463W        W99723  31.022   1.578  12.503
27464W        W99724   7.281  34.596  14.409
27465W        W99725  36.859   6.850  13.968
27466W        W99726  24.440  14.534  11.025
27467W        W99727  15.804   6.763   4.134
27468W        W99728  11.737  14.155   1.839
27469W        W99729  11.599  43.418  12.935
27470W        W99730   9.698  40.610   2.268
27471W        W99731  41.857  16.186   1.002
27472W        W99732   5.213   0.048  14.657
27473W        W99733   7.970  14.738   4.789
27474W        W99734   3.822  12.085  14.765
27475W        W99735   9.417  25.070   9.742
27476W        W99736   1.260   7.686  13.393
27477W        W99737  10.805  23.646  13.383
27478W        W99738  17.508  44.816  12.174
27479W        W99739   0.754  25.399  10.742
27480W        W99740  22.938  12.421   0.281
27481W        W99741  40.471  34.941  12.970
27482W        W99742  36.317   6.740   3.679
27483W        W99743   0.454   2.724  10.781
27484W        W99744   6.510   2.188   0.950
27485W        W99745  13.789  16.327   4.695
27486W        W99746  23.493  17.314  10.548
27487W        W99747  23.238  41.364  10.456
27488W        W99748  21.850  23.305  13.602
27489W        W99749  43.719  40.516   2.072
27490W        W99750  39.626  40.804  12.085
27491W        W99751   3.982   7.141  14.708
27492W        W99752  13.663  23.393   0.772
27493W        W99753  32.631  19.304   1.368
27494W        W99754  20.892   6.215   3.272
27495W        W99755  38.791  20.839   2.715
27496W        W99756  42.114   4.216  14.929
27497W        W99757  35.008  41.444  11.093
27498W        W99758   4.489   5.439  14.285
27499W        W99759  23.712  23.532   0.249
27500W        W99760   0.039  15.552   3.341
27501W        W99761  18.852   1.142   3.238
27502W        W99762   8.152  23.496  11.265
27503W        W99763  35.626   2.571   3.770
27504W        W99764  23.024  13.302  11.963
27505W        W99765  21.649  12.247   2.527
27506W        W99766  10.717  33.592  12.128
27507W        W99767  21.982  42.347  13.503
27508W        W99768  28.952  42.283   3.276
27509W        W99769  13.700   7.783  14.071
27510W        W99770  23.204  24.989   2.322
27511W        W99771  10.768  25.293  11.028
27512W        W99772   6.150  32.441   2.852
27513W        W99773  10.595  30.208  12.507
27514W        W99774  22.015   4.872   0.989
27515W        W99775  10.604  34.028  12.379
27516W        W99776  39.064  32.851   3.458
27517W        W99777   1.724  24.706   2.262
27518W        W99778   9.466  16.318  11.192
27519W        W99779  36.838  10.057   0.550
27520W        W99780  37.365  27.112   1.313
27521W        W99781  22.247   5.465   3.718
27522W        W99782   8.518  34.144   0.289
27523W        W99783  24.187   9.658  11.639
27524W        W99784   8.816   2.401   3.578
27525W        W99785   7.297  23.195  12.957
27526W        W99786   9.572  10.785   2.758
27527W        W99787  19.054  20.193   1.679
27528W        W99788  26.564  23.942  12.003
27529W        W99789   5.896   4.142   3.608
27530W        W99790  32.332  21.195  10.907
27531W        W99791   9.795   0.594  14.503
27532W        W99792  18.718  22.710  10.628
27533W        W99793  31.711  37.361   0.281
27534W        W99794  25.110   4.632  10.777
27535W        W99795  11.312  30.020  10.288
27536W        W99796  19.215  34.968   0.948
27537W        W99797  27.249  16.406   0.803
27538W        W99798  40.019   0.353  13.964
27539W        W99799  43.227  14.471  13.102
27540W        W99800   3.887  21.334   0.347
27541W        W99801  38.802   2.357   2.656
27542W        W99802  11.183  14.097   4.629
27543W        W99803  12.475   9.880   1.754
27544W        W99804   0.668  42.351  11.095
27545W        W99805  40.064  30.483   1.755
27546W        W99806   7.411  27.401  10.183
27547W        W99807  26.825  15.162  13.491
27548W        W99808  25.001  30.410  12.693
27549W        W99809   7.303  12.847  11.791
27550W        W99810  31.670  11.798   4.203
27551W        W99811   9.187   1.675   1.711
27552W        W99812  36.357  13.369   1.457
27553W        W99813  30.204  32.186   3.742
27554W        W99814  31.896  32.115  11.140
27555W        W99815  19.049  36.640  11.510
27556W        W99816  12.288   8.366  12.054
27557W        W99817  36.687   7.244  12.615
27558W        W99818  17.851  17.668  14.598
27559W        W99819   5.968  25.583   1.384
27560W        W99820  27.115  44.752  14.981
27561W        W99821  38.034   2.371   4.582
27562W        W99822   4.131  29.092   2.123
27563W        W99823  32.163  12.783  10.176
27564W        W99824  44.079   0.339  12.604
27565W        W99825   6.841  36.741  10.789
27566W        W99826  16.602  20.831   4.218
27567W        W99827   7.502  37.816  11.420
27568W        W99828  25.228  21.735  11.357
27569W        W99829   9.213   8.382  14.267
27570W        W99830  44.479  12.627  10.963
27571W        W99831  38.512  17.254   0.073
27572W        W99832  28.916  36.195  13.428
27573W        W99833  13.747   8.456   4.254
27574W        W99834   8.665  37.747  13.733
27575W        W99835  40.118  16.256   0.955
27576W        W99836   4.916  12.896   2.813
27577W        W99837   0.794  34.664   3.716
27578W        W99838  19.467  28.022   1.841
27579W        W99839  17.260   7.521  10.813
27580W        W99840  17.707  10.777   1.305
27581W        W99841  35.610  37.447  12.008
27582W        W99842  15.195  22.367  10.660
27583W        W99843  12.201  37.073  11.940
27584W        W99844  39.172  35.443  12.046
27585W        W99845   5.914  16.457  13.609
27586W        W99846  21.060  20.800  11.505
27587W        W99847  18.091  16.076  13.444
27588W        W99848   3.880  23.742  13.898
27589W        W99849  30.422  43.357  14.904
27590W        W99850  12.744   0.259   2.103
27591W        W99851  37.954  41.063   0.784
27592W        W99852  42.373  37.410  13.863
27593W        W99853  43.816   4.812  13.819
27594W        W99854   2.207  32.058   2.245
27595W        W99855  23.288  42.044   0.244
27596W        W99856  42.545  34.593  12.987
27597W        W99857  17.243  12.801  12.638
27598W        W99858  37.310  43.751  12.939
27599W        W99859   3.376  21.308   2.814
27600W        W99860  21.765   4.809  12.532
27601W        W99861  15.644  22.065  11.042
27602W        W99862  34.164  22.107  11.186
27603W        W99863  42.593   7.940  14.639
27604W        W99864  17.691   5.280   2.903
27605W        W99865   7.622  40.329   4.121
27606W        W99866  16.061  17.579  10.763
27607W        W99867  15.546  18.272  14.597
27608W        W99868   2.438   9.892   0.343
27609W        W99869  42.453  38.901   1.547
27610W        W99870   8.666  40.930  10.819
27611W        W99871  19.504  31.266   2.826
27612W        W99872  17.089  43.810  10.716
27613W        W99873  20.893  11.054   1.076
27614W        W99874  24.703  31.928  13.814
27615W        W99875  34.785   4.177  12.201
27616W        W99876  33.700  26.949   3.344
27617W        W99877   7.848  11.524   2.105
27618W        W99878  43.834  30.643  10.638
27619W        W99879  39.625   6.276  12.341
27620W        W99880  23.781  17.264   9.721
27621W        W99881   4.480  42.987  14.861
27622W        W99882  25.628  14.112  13.404
27623W        W99883  35.657   4.482   2.837
27624W        W99884  35.041  35.910   3.275
27625W        W99885   2.234  17.386   2.536
27626W        W99886  30.089  33.087   2.349
27627W        W99887  19.209  37.485  10.728
27628W        W99888   5.663   0.052  14.392
27629W        W99889  44.076   2.972   3.278
27630W        W99890  14.594   0.912  13.998
27631W        W99891   4.637  26.056   3.339
27632W        W99892  44.317  28.859  13.432
27633W        W99893  38.753  11.856   2.915
27634W        W99894  25.536  19.244  10.607
27635W        W99895  35.917  14.180  10.921
27636W        W99896  42.315  38.839   2.026
27637W        W99897  39.803  33.533   3.743
27638W        W99898  37.331  14.650   1.981
27639W        W99899   8.430  38.954  13.566
27640W        W99900   9.407   1.489   1.247
27641W        W99901  11.234  12.325   3.569
27642W        W99902  14.675   5.310  12.487
27643W        W99903   8.739  23.662  14.486
27644W        W99904  14.919   4.792   1.455
27645W        W99905  23.895  26.492   0.793
27646W        W99906  22.324   3.840   0.330
27647W        W99907   7.314  22.744   4.510
27648W        W99908  36.174  12.365   3.988
27649W        W99909   5.596  31.149   0.399
27650W        W99910  25.988   4.758   2.506
27651W        W99911  20.605  33.701  11.949
27652W        W99912  31.399  10.226   4.078
27653W        W99913   5.808  31.959  11.649
27654W        W99914   2.311   3.837   4.892
27655W        W99915  20.673  31.581   0.154
27656W        W99916  18.077  41.486   4.541
27657W        W99917  36.161   2.743   0.052
27658W        W99918  44.824  25.437   2.666
27659W        W99919  39.811   2.488  14.483
27660W        W99920  27.467  34.173  14.649
27661W        W99921  17.172   7.871  13.325
27662W        W99922   2.446  43.772   1.450
27663W        W99923   5.435  27.982  11.985
27664W        W99924   0.789  13.112  13.976
27665W        W99925  34.918  36.162  12.399
27666W        W99926  14.556  22.097   4.455
27667W        W99927  23.213   7.704  11.607
27668W        W99928  30.536  39.340   3.843
27669W        W99929  40.459  23.756  12.564
27670W        W99930  18.336  15.419   2.473
27671W        W99931  36.532  20.842  14.759
27672W        W99932  14.722  24.602   1.885
27673W        W99933  11.884  36.019  13.826
27674W        W99934  14.582   1.774  12.162
27675W        W99935  21.754  13.093  12.178
27676W        W99936  32.677  35.866  11.209
27677W        W99937  10.310  42.641  12.897
27678W        W99938   1.806  37.554   3.689
27679W        W99939  37.483  12.512   4.154
27680W        W99940  16.675  17.864  12.633
27681W        W99941  43.370   3.474  14.356
27682W        W99942  24.014  39.764   9.856
27683W        W99943  35.820  23.965   4.064
27684W        W99944  18.935  15.596   1.866
27685W        W99945  19.225  25.796   1.362
27686W        W99946  43.551  23.720   1.187
27687W        W99947  30.116  23.377  11.405
27688W        W99948   1.682  44.945   4.155
27689W        W99949  27.603  34.936   3.521
27690W        W99950  31.709  41.601   0.185
27691W        W99951  34.086  35.109  13.311
27692W        W99952  42.243  20.707  12.400
27693W        W99953  26.617  38.298   0.911
27694W        W99954   2.466  27.451   1.723
27695W        W99955  30.110   0.160   1.435
27696W        W99956  16.565  41.455   3.337
27697W        W99957  10.990  17.274   1.503
27698W        W99958   2.286  38.642   2.394
27699W        W99959  28.508  31.716   4.016
27700W        W99960   1.390  44.833  13.503
27701W        W99961  44.064   4.375   0.182
27702W        W99962  22.250  19.970   3.560
27703W        W99963   4.350  12.088  13.650
27704W        W99964  25.181   2.762  11.428
27705W        W99965   2.074  18.817  13.525
27706W        W99966  27.980  30.139   5.508
27707W        W99967   6.426  25.466   2.363
27708W        W99968  18.749  11.181  11.153
27709W        W99969  16.365  26.320   1.657
27710W        W99970   8.181  41.893   0.655
27711W        W99971  38.875  14.644   3.650
27712W        W99972  17.770   3.310  12.328
27713W        W99973   6.002  15.721  13.947
27714W        W99974  27.129  28.969  11.609
27715W        W99975  37.459  28.711  14.265
27716W        W99976  10.275  15.668   5.406
27717W        W99977   0.162  17.151   0.825
27718W        W99978  43.701  24.969   2.860
27719W        W99979   5.893  26.161   1.490
27720W        W99980  27.945  32.948   3.210
27721W        W99981  33.521  22.191   4.285
27722W        W99982   7.417  18.857  12.527
27723W        W99983  22.452  21.848   0.767
27724W        W99984  40.444  31.914  10.622
27725W        W99985  44.912  23.150   3.145
27726W        W99986  21.611   8.133   0.229
27727W        W99987   0.987  26.608   3.446
27728W        W99988   5.177  38.865   1.360
27729W        W99989  32.953  29.144   0.861
27730W        W99990  38.295  21.559  13.404
27731W        W99991  37.964  26.940  13.086
27732W        W99992  16.086  23.659   3.939
27733W        W99993   7.117  21.571   2.349
27734W        W99994  10.836   6.350   3.184
27735W        W99995   4.713  34.198  12.354
27736W        W99996   0.781  29.006   3.892
27737W        W99997  33.826   7.593  13.434
27738W        W99998  26.714   9.251   3.876
27739W        W99999   4.195   8.838   4.542
27740W        W    0  26.038  20.131  14.016
27741W        W    1   3.270  39.337   2.262
27742W        W    2  23.482   3.155  14.928
27743W        W    3  13.182  10.439  12.546
27744W        W    4  31.140  34.417   4.492
27745W        W    5  41.791   4.686  11.972
27746W        W    6  22.227  43.207   0.915
27747W        W    7  26.872   5.173   2.877
27748W        W    8  19.323  12.983   2.327
27749W        W    9  34.286  11.060   0.313
27750W        W   10  37.062  32.622  13.000
27751W        W   11  13.597   5.466   3.158
27752W        W   12  27.167  10.796  13.758
27753W        W   13  16.595  40.511   3.801
27754W        W   14  18.441  16.745  12.958
27755W        W   15   4.586  18.756  10.852
27756W        W   16   0.743   1.841   2.583
27757W        W   17  40.472  10.615   2.774
27758W        W   18   9.241  40.663  12.442
27759W        W   19   7.124  26.915   3.119
27760W        W   20   8.695  31.593   3.208
27761W        W   21  26.708  23.321  10.301
27762W        W   22  28.942  32.896   1.739
27763W        W   23  40.646  22.742   2.663
27764W        W   24  23.526  44.044  14.317
27765W        W   25  39.581  11.873   2.173
27766W        W   26  42.927   1.876  11.409
27767W        W   27  35.605   6.190  13.866
27768W        W   28  27.074  27.090   3.423
27769W        W   29  16.066  33.458  13.531
27770W        W   30   8.914  15.376   1.273
27771W        W   31  23.180  41.549  13.420
27772W        W   32   9.441  38.290   1.902
27773W        W   33  32.951  22.703  14.789
27774W        W   34  27.999  37.009   2.384
27775W        W   35  37.829  10.214  11.866
27776W        W   36  44.762  29.631   4.782
27777W        W   37  14.753  21.059   1.692
27778W        W   38  32.942   5.847  10.883
27779W        W   39  19.210  14.243  12.442
27780W        W   40  16.037  37.786  10.783
27781W        W   41  31.342   0.793   0.200
27782W        W   42  25.572   2.440   1.456
27783W        W   43  31.293  22.559  14.320
27784W        W   44  10.121   7.168   4.156
27785W        W   45  32.842  40.377  11.899
27786W        W   46  11.602  25.883   3.733
27787W        W   47  11.937  40.351   5.313
27788W        W   48  12.140   7.169  14.565
27789W        W   49  27.143  33.421   4.070
27790W        W   50  41.839   7.259  11.446
27791W        W   51  26.572   7.455   3.217
27792W        W   52  38.252  40.843   1.789
27793W        W   53  20.504  36.778   3.322
27794W        W   54  16.297  43.713  13.330
27795W        W   55  10.388  21.041   0.861
27796W        W   56  32.213  37.864   2.326
27797W        W   57   3.251  33.713   1.279
27798W        W   58  20.730   1.740   0.010
27799W        W   59  33.226  28.960   2.190
27800W        W   60   9.774   6.188   1.247
27801W        W   61  39.390  40.595   3.706
27802W        W   62  11.813   1.594   1.422
27803W        W   63  33.067  11.844   3.121
27804W        W   64  40.509   8.824   4.136
27805W        W   65  17.175  35.614   1.719
27806W        W   66  26.412  19.230  10.357
27807W        W   67   0.624   5.331  11.904
27808W        W   68  36.307  24.596  12.483
27809W        W   69  19.226   4.255  14.350
27810W        W   70  33.368   9.746   0.280
27811W        W   71  18.042  12.812   3.681
27812W        W   72  20.142  40.850  11.183
27813W        W   73  40.033  44.498   0.781
27814W        W   74   7.705  39.095   2.712
27815W        W   75  23.361  37.423   2.226
27816W        W   76  11.049   3.860   0.824
27817W        W   77   8.835  24.153   2.896
27818W        W   78  28.180  28.616  10.926
27819W        W   79  17.609  32.984  11.358
27820W        W   80  10.758   6.234  12.100
27821W        W   81   8.897  28.406   2.183
27822W        W   82  24.780  26.689  11.077
27823W        W   83   6.949  25.509   3.281
27824W        W   84  37.310  17.581  12.464
27825W        W   85   3.217  24.488   2.221
27826W        W   86  17.128  20.353  11.150
27827W        W   87  42.857  44.507  13.284
27828W        W   88  35.779  24.209   1.350
27829W        W   89   3.649  28.008  14.471
27830W        W   90  13.586  10.124  12.598
27831W        W   91  17.830  34.645   2.402
27832W        W   92  12.229   6.463   0.471
27833W        W   93  22.086  10.662   3.732
27834W        W   94  10.245  40.479  14.979
27835W        W   95   8.767  36.179   3.863
27836W        W   96  24.919  34.590   0.341
27837W        W   97  40.023  26.925  13.442
27838W        W   98   6.623  25.399  11.380
27839W        W   99  39.329   3.850   3.141
27840W        W  100   8.304  21.123  10.975
27841W        W  101  25.655  13.221   2.181
27842W        W  102   8.621   7.309   1.225
27843W        W  103  36.514  30.388   9.995
27844W        W  104  20.131  26.649   3.832
27845W        W  105  42.106  40.897  13.797
27846W        W  106  12.642  31.538  10.905
27847W        W  107  38.433  38.392  11.346
27848W        W  108  43.730  25.482   2.204
27849W        W  109  24.772  44.020  12.740
27850W        W  110  32.474  37.082  13.945
27851W        W  111  32.482   9.667  11.959
27852W        W  112  14.009  23.520   4.139
27853W        W  113  42.499  12.218  13.601
27854W        W  114  17.021   7.239   5.053
27855W        W  115   9.777  39.757   2.725
27856W        W  116   7.894   0.548  12.474
27857W        W  117  18.735  14.331   4.479
27858W        W  118  14.299  10.537   4.199
27859W        W  119   9.088  13.569   1.788
27860W        W  120  22.897   0.967  14.359
27861W        W  121  25.843  29.477  14.466
27862W        W  122  31.906  38.500   0.623
27863W        W  123  13.219   3.385   1.929
27864W        W  124  28.796  28.112  10.697
27865W        W  125  29.415   9.237   1.126
27866W        W  126  42.742   1.698   0.902
27867W        W  127  35.094   1.915  14.742
27868W        W  128  12.071  28.464   3.644
27869W        W  129  10.642  26.675  12.682
27870W        W  130  18.032   9.446   1.899
27871W        W  131  42.844  30.543   4.771
27872W        W  132  41.276  44.937   0.869
27873W        W  133  25.822  23.889   0.974
27874W        W  134  38.813   6.161  11.440
27875W        W  135  29.497  20.841  13.482
27876W        W  136  21.090  17.547  11.645
27877W        W  137  12.884  34.911   3.390
27878W        W  138   6.235  36.945   3.623
27879W        W  139   2.175  17.534   0.442
27880W        W  140  29.627   4.861   4.955
27881W        W  141  10.228  41.575  10.451
27882W        W  142  41.670  34.923   2.673
27883W        W  143   2.737  13.054   4.439
27884W        W  144  19.694  44.386  12.267
27885W        W  145   0.494  44.295   0.696
27886W        W  146  19.659  44.921  12.295
27887W        W  147  11.611  20.359  12.057
27888W        W  148  38.188  25.980   2.928
27889W        W  149  22.123  22.915  11.428
27890W        W  150  13.335  16.323  14.223
27891W        W  151  25.034   5.080   1.683
27892W        W  152   6.004  41.983  13.791
27893W        W  153   4.517  40.809   5.053
27894W        W  154   5.186  26.614  13.967
27895W        W  155   7.200  30.112   1.993
27896W        W  156  28.470  23.691   2.413
27897W        W  157  34.475  38.625  12.624
27898W        W  158  40.358  43.040   2.136
27899W        W  159  27.506  39.372  11.071
27900W        W  160  16.306   9.803   3.687
27901W        W  161  14.057  29.935   1.282
27902W        W  162   1.482  43.895   4.556
27903W        W  163  41.917   7.909   2.938
27904W        W  164  12.766   2.320  12.007
27905W        W  165  23.722  27.183   2.287
27906W        W  166   4.315  10.409   3.358
27907W        W  167   7.495  23.655   1.805
27908W        W  168  15.778   1.734  10.984
27909W        W  169  25.700  12.940  14.290
27910W        W  170  31.027   5.831   1.882
27911W        W  171  37.170  11.279   0.780
27912W        W  172  30.111  42.538  11.565
27913W        W  173  26.490   0.490   2.427
27914W        W  174  10.803  35.879   3.615
27915W        W  175  36.204  42.317  12.648
27916W        W  176  28.543  44.347   3.977
27917W        W  177  43.622  15.136   1.368
27918W        W  178  11.548   9.500  13.967
27919W        W  179  40.914  23.568  12.698
27920W        W  180  33.486  43.517  13.835
27921W        W  181  20.480  23.122  13.950
27922W        W  182  12.562  13.109  14.449
27923W        W  183  20.575  25.507   0.574
27924W        W  184  39.806   3.026  12.511
27925W        W  185  17.222  15.253  11.080
27926W        W  186  14.047  43.790   1.396
27927W        W  187   1.159  30.216  12.073
27928W        W  188  12.302   5.928   0.470
27929W        W  189  41.349  15.642  11.627
27930W        W  190  25.511  34.867   2.859
27931W        W  191  12.568  15.967   5.480
27932W        W  192  15.489  35.062  13.295
27933W        W  193  14.215  35.590  12.960
27934W        W  194  18.682  42.950   2.118
27935W        W  195  36.363  12.058   1.872
27936W        W  196  23.538  37.033   1.904
27937W        W  197  37.895   3.909  11.141
27938W        W  198  37.405  38.727   4.190
27939W        W  199  31.173  42.288   2.635
27940W        W  200  43.979  14.259  13.688
27941W        W  201   0.108   3.017   4.275
27942W        W  202  22.592  12.222   2.899
27943W        W  203  40.957  25.455  13.770
27944W        W  204   8.394  27.945   4.743
27945W        W  205  39.562   3.199   2.221
27946W        W  206  18.617   4.516   3.357
27947W        W  207  21.472   1.759  14.695
27948W        W  208  43.508  39.864  14.929
27949W        W  209  36.873  15.686  13.342
27950W        W  210  15.769   8.140  10.985
27951W        W  211  31.697   8.413  13.573
27952W        W  212  11.713  30.582  10.739
27953W        W  213  19.142   5.186  12.369
27954W        W  214  40.816  27.172   2.307
27955W        W  215  29.599  34.855  11.151
27956W        W  216   1.903   7.522   1.788
27957W        W  217  44.303  11.201   2.866
27958W        W  218  16.257  22.732  12.084
27959W        W  219  10.822  11.960   0.733
27960W        W  220   9.194  14.632  10.948
27961W        W  221   3.415  40.579  12.583
27962W        W  222  23.780  32.831  14.136
27963W        W  223   1.981   2.700   2.796
27964W        W  224  28.172  21.679  14.685
27965W        W  225  43.935  39.130   2.390
27966W        W  226   1.686  43.122  12.943
27967W        W  227  29.626  36.483   3.142
27968W        W  228  18.236  33.900   3.669
27969W        W  229  30.399   7.610   3.122
27970W        W  230  37.689  30.210  11.930
27971W        W  231  34.561  20.001  12.012
27972W        W  232   8.225  13.699  14.824
27973W        W  233  27.001   0.732  14.917
27974W        W  234  25.616  32.407   1.882
27975W        W  235  24.706  29.891   4.497
27976W        W  236   9.177  41.498   4.691
27977W        W  237  41.001  21.613   3.404
27978W        W  238  15.274   3.244   4.577
27979W        W  239   9.383   2.450   1.319
27980W        W  240  12.110   8.673   0.361
27981W        W  241  42.663  13.703   2.103
27982W        W  242   8.664   1.956  13.301
27983W        W  243  43.184  11.636   0.914
27984W        W  244  10.680  29.304   4.873
27985W        W  245  43.552   6.547   2.707
27986W        W  246   9.230  33.510   4.634
27987W        W  247  41.698  27.645   3.668
27988W        W  248   8.139  41.797  13.827
27989W        W  249  13.490  39.630   1.426
27990W        W  250  20.302  32.105  11.463
27991W        W  251  36.039  16.816  13.546
27992W        W  252  37.976  28.521   1.899
27993W        W  253  32.692  42.987   3.979
27994W        W  254  32.993  28.410  11.964
27995W        W  255   0.760  24.110  11.202
27996W        W  256  44.543   3.778   3.636
27997W        W  257  41.782  17.290  10.670
27998W        W  258  42.438  25.809  11.047
27999W        W  259   8.458  33.602  11.635
28000W        W  260  41.076  31.493   0.294
28001W        W  261   3.353  24.016   4.412
28002W        W  262  13.906  28.643  11.698
28003W        W  263  12.246   3.498   4.575
28004W        W  264  16.091  20.533   1.598
28005W        W  265  33.377  22.626   3.476
28006W        W  266  18.077  19.127  11.055
28007W        W  267  21.174  11.338  13.842
28008W        W  268   1.339  27.636  10.843
28009W        W  269  20.729  38.925  14.927
28010W        W  270  18.483  35.098   0.307
28011W        W  271  25.127  30.136   1.148
28012W        W  272  11.069  25.487   4.238
28013W        W  273  34.327  42.067  11.130
28014W        W  274  13.304  14.664   5.264
28015W        W  275  25.049  38.921  10.507
28016W        W  276  24.189   8.926   2.340
28017W        W  277  31.134  19.237  11.895
28018W        W  278  23.299  35.742   5.042
28019W        W  279  14.635  16.627   4.083
28020W        W  280   0.795  26.945   2.653
28021W        W  281  29.646  39.559   4.901
28022W        W  282  44.617  19.955  12.885
28023W        W  283   8.070  12.808   2.901
28024W        W  284   4.687  37.439   0.909
28025W        W  285  28.386   3.465   2.827
28026W        W  286  44.402  18.005  10.609
28027W        W  287  41.840  35.827  12.814
28028W        W  288  15.184  38.653   4.406
28029W        W  289  16.731   6.118   5.028
28030W        W  290  37.972  25.694  11.030
28031W        W  291   7.646  32.063   4.928
28032W        W  292  25.758  29.447   1.435
28033W        W  293  38.855   5.792   0.356
28034W        W  294   1.909  15.202   4.544
28035W        W  295   0.163  44.959  14.340
28036W        W  296  16.383   1.302   1.153
28037W        W  297  32.534   6.756   4.853
28038W        W  298   7.358  37.542   0.285
28039W        W  299  44.663  13.885  12.809
28040W        W  300   0.633  44.956   0.305
28041W        W  301  21.688  19.348  10.266
28042W        W  302  20.818  22.283   0.782
28043W        W  303  32.948  42.555   3.746
28044W        W  304   5.264  28.162   0.489
28045W        W  305  27.186   6.693  11.430
28046W        W  306  25.271  14.139   3.145
28047W        W  307  39.895  32.525  13.702
28048W        W  308  14.555  27.457   2.844
28049W        W  309  16.517  28.036  14.283
28050W        W  310  42.626  34.375   1.964
28051W        W  311  36.953  10.305   3.306
28052W        W  312  32.427  42.551   3.746
28053W        W  313  23.981   3.234  13.068
28054W        W  314  23.653  26.585   2.631
28055W        W  315  17.310  19.783  13.781
28056W        W  316  44.383  25.320  13.097
28057W        W  317   3.502  25.148  12.071
28058W        W  318   3.266  22.801  14.963
28059W        W  319  38.475   9.932  11.139
28060W        W  320  41.323  22.699   4.382
28061W        W  321  31.774   7.797   2.155
28062W        W  322  14.444  44.531  11.356
28063W        W  323  15.596  38.708  13.686
28064W        W  324  28.889  40.355   0.552
28065W        W  325  39.803  41.784  13.884
28066W        W  326  28.951  39.001  13.948
28067W        W  327  20.232  12.282   1.828
28068W        W  328  16.592  30.705   3.197
28069W        W  329  37.525  17.108  12.530
28070W        W  330   2.964  19.022   0.485
28071W        W  331  14.233  15.205  12.544
28072W        W  332  17.058  22.035   1.249
28073W        W  333  40.003  28.465  11.903
28074W        W  334   8.772  19.803  13.862
28075W        W  335  14.156  43.372   0.457
28076W        W  336  24.807  43.455   0.347
28077W        W  337   4.897   8.166   0.764
28078W        W  338  29.056  29.602  14.883
28079W        W  339  16.829  18.328  11.744
28080W        W  340  43.855  16.847   1.468
28081W        W  341  10.510  22.815  12.558
28082W        W  342   6.966  10.762   2.484
28083W        W  343  13.562   6.536  14.437
28084W        W  344  29.123  28.101  14.574
28085W        W  345  36.539  19.399   1.549
28086W        W  346  23.867  32.584  11.378
28087W        W  347  43.597  26.810   0.955
28088W        W  348  27.917  36.743  13.948
28089W        W  349  20.237  10.217  13.757
28090W        W  350  43.817  43.463   1.453
28091W        W  351  38.928  31.153   1.056
28092W        W  352  32.594  32.916  12.566
28093W        W  353  30.249   1.852   0.737
28094W        W  354  24.395  39.832  10.247
28095W        W  355  32.773  32.757   4.232
28096W        W  356  40.539   6.301  12.421
28097W        W  357  17.448  14.783   1.798
28098W        W  358   5.383  35.813   1.464
28099W        W  359  19.643  25.769  10.722
28100W        W  360  11.907  34.636   1.281
28101W        W  361   7.582   0.473   0.000
28102W        W  362   6.153  10.955   1.014
28103W        W  363  33.865   2.192  14.280
28104W        W  364  41.147  12.535  10.666
28105W        W  365  24.460   9.938   1.841
28106W        W  366  24.145   0.497  12.739
28107W        W  367  19.366  35.361  13.531
28108W        W  368  41.165  42.505   1.871
28109W        W  369  39.815  32.461   3.192
28110W        W  370  35.060  39.380  10.538
28111W        W  371  13.616  42.807  11.047
28112W        W  372   1.656  35.451   0.833
28113W        W  373   9.766   8.707   1.608
28114W        W  374  43.739  13.279  11.198
28115W        W  375  14.104  43.514   3.213
28116W        W  376  37.441  32.024   3.287
28117W        W  377  39.905   2.902   4.389
28118W        W  378   2.217  12.245   0.956
28119W        W  379  42.799  41.541   0.436
28120W        W  380  36.127   3.270  11.282
28121W        W  381  43.818  11.325   4.066
28122W        W  382   4.894  40.941  11.695
28123W        W  383  18.445  33.027   3.801
28124W        W  384   0.012  20.815   1.809
28125W        W  385  29.289  42.334   2.300
28126W        W  386  41.667  19.815  13.525
28127W        W  387  29.455  34.054  11.586
28128W        W  388  22.110  17.598   3.419
28129W        W  389  30.551  19.717  10.169
28130W        W  390   2.203  18.670   4.351
28131W        W  391  23.524  36.590  14.102
28132W        W  392  33.949  43.060  12.915
28133W        W  393   7.730  16.374  10.568
28134W        W  394  11.246  26.944  13.148
28135W        W  395  13.584   8.899  12.367
28136W        W  396  33.220  42.325   3.350
28137W        W  397  14.221  36.070  10.340
28138W        W  398  24.597  18.963   3.285
28139W        W  399  43.928  39.261   0.222
28140W        W  400  37.041  41.078  13.804
28141W        W  401  11.787   0.704  10.629
28142W        W  402   3.070  44.647  10.936
28143W        W  403  36.148   4.009  12.580
28144W        W  404  24.078   6.905  12.592
28145W        W  405  20.443  38.965   2.238
28146W        W  406  36.089   8.342  14.063
28147W        W  407  23.045   7.080   1.587
28148W        W  408   4.978  32.170   2.683
28149W        W  409   5.013  20.306   3.765
28150W        W  410  13.228  16.031  14.720
28151W        W  411   9.076  25.605  14.304
28152W        W  412  33.263  37.240  10.694
28153W        W  413  41.828  38.745   2.290
28154W        W  414  27.687   3.388  12.087
28155W        W  415  36.981   7.930  11.403
28156W        W  416  37.372  29.627   1.919
28157W        W  417  44.179  25.915  13.982
28158W        W  418  24.111  43.562  12.313
28159W        W  419  16.322  21.204   1.769
28160W        W  420  27.187  18.505   2.648
28161W        W  421  29.929  19.581   1.697
28162W        W  422  39.445  20.172   2.474
28163W        W  423  40.208  19.524  12.090
28164W        W  424  20.249  18.327  11.065
28165W        W  425  12.638  43.877  13.616
28166W        W  426  16.793  44.480  11.629
28167W        W  427   5.427  25.928  14.723
28168W        W  428  24.555  29.863   1.794
28169W        W  429  33.661  26.594  13.887
28170W        W  430  39.483  24.545   2.885
28171W        W  431  35.359   9.614   2.874
28172W        W  432  42.105  29.591   0.551
28173W        W  433  29.624  12.246   1.297
28174W        W  434  33.472  23.515   1.824
28175W        W  435  23.032  43.328  11.155
28176W        W  436   1.479  44.911  14.069
28177W        W  437  27.961  36.085   2.744
28178W        W  438  27.260  33.082  13.605
28179W        W  439  20.977  41.774   2.706
28180W        W  440  13.207  11.635  10.810
28181W        W  441   4.926  36.600  13.392
28182W        W  442  27.348  40.478   5.363
28183W        W  443  13.096  30.637   0.702
28184W        W  444   5.743  12.840  11.600
28185W        W  445  16.694   2.054   3.830
28186W        W  446  39.849  33.166   4.766
28187W        W  447   8.654  29.333   1.551
28188W        W  448  34.590  36.516   2.128
28189W        W  449  27.734  36.875  14.930
28190W        W  450  12.099  24.051  12.123
28191W        W  451   8.233   7.402  14.378
28192W        W  452   4.678  13.116  14.549
28193W        W  453  25.660  27.236   2.998
28194W        W  454  43.765  38.492   3.364
28195W        W  455  42.576  36.559  13.960
28196W        W  456  34.003   5.171  11.984
28197W        W  457  34.895  11.218   2.750
28198W        W  458  29.591  26.279   2.263
28199W        W  459  37.698  30.066  10.823
28200W        W  460  39.753  26.541   2.840
28201W        W  461   7.579  33.273   3.678
28202W        W  462  34.578   1.493  13.444
28203W        W  463  31.435   3.188   3.137
28204W        W  464  42.292  41.757  11.930
28205W        W  465  21.532   3.098  14.756
28206W        W  466  23.493   8.174  12.921
28207W        W  467  16.509   2.709  11.479
28208W        W  468   6.389  44.350  12.319
28209W        W  469   5.072  29.787  13.035
28210W        W  470  40.376  21.498   3.285
28211W        W  471   3.358  21.622   1.524
28212W        W  472  10.213  37.590   2.001
28213W        W  473  24.537  13.851  13.578
28214W        W  474  34.524  39.787  11.096
28215W        W  475  10.324  12.880   2.399
28216W        W  476  25.155  31.579   4.551
28217W        W  477  40.977  29.073  13.447
28218W        W  478  16.841  34.615   2.775
28219W        W  479  29.615   8.176  14.072
28220W        W  480  31.137  39.585  10.546
28221W        W  481  15.849  16.321  13.913
28222W        W  482   8.259   1.312  14.329
28223W        W  483   1.369  27.917  12.915
28224W        W  484  19.337  41.422   3.783
28225W        W  485  43.345  37.357  11.860
28226W        W  486  26.114  22.972   1.670
28227W        W  487  35.585   4.709   0.133
28228W        W  488  20.124   8.124  12.011
28229W        W  489  14.426  39.759   1.081
28230W        W  490   6.428  18.153  13.517
28231W        W  491  31.929  25.754   0.793
28232W        W  492  28.002  34.179  12.163
28233W        W  493  21.580  41.070   3.213
28234W        W  494  13.865  10.137  14.962
28235W        W  495  41.062  31.991   3.308
28236W        W  496  17.621  40.343   3.346
28237W        W  497  15.058  44.669   1.374
28238W        W  498   0.302  32.871   0.861
28239W        W  499  22.515  30.049   0.793
28240W        W  500  14.089   9.371  13.085
28241W        W  501  41.422  25.536  13.491
28242W        W  502   5.305  26.378  13.498
28243W        W  503  11.793  15.536   2.667
28244W        W  504  25.191  33.199  12.160
28245W        W  505  31.816  18.336  11.187
28246W        W  506   2.870  25.585   4.169
28247W        W  507  33.874  43.579  13.008
28248W        W  508   5.676  20.068   0.865
28249W        W  509   7.928  15.130   1.205
28250W        W  510   1.552   1.711  13.494
28251W        W  511  12.342   1.247  13.482
28252W        W  512  18.100   2.187   0.528
28253W        W  513  23.784  30.969  11.390
28254W        W  514  36.920  40.065   3.254
28255W        W  515  14.609  20.525  14.335
28256W        W  516  32.603   0.834   2.405
28257W        W  517  31.657  37.872   0.285
28258W        W  518  38.404  27.431   3.435
28259W        W  519   5.924   4.460   2.255
28260W        W  520   0.008  27.314   4.871
28261W        W  521   7.004  14.226   3.244
28262W        W  522  14.267  44.795  13.564
28263W        W  523  38.929   8.829  10.715
28264W        W  524   6.697  41.406  11.446
28265W        W  525  26.947  33.306  13.935
28266W        W  526  40.477   5.201  13.511
28267W        W  527  19.137   0.183   2.315
28268W        W  528  43.855  36.909   1.686
28269W        W  529   3.890   9.868  10.837
28270W        W  530  43.238  12.111  12.880
28271W        W  531   1.496  35.984  12.073
28272W        W  532  20.695   7.336  14.807
28273W        W  533  33.794  11.665   9.843
28274W        W  534  32.423  42.229   2.180
28275W        W  535  36.163  37.414  13.468
28276W        W  536  26.710   3.293  10.545
28277W        W  537  18.605  35.060  11.704
28278W        W  538   2.606  31.912  14.512
28279W        W  539  40.738   9.145   4.484
28280W        W  540  20.738  44.964   1.401
28281W        W  541  37.016  23.471   3.240
28282W        W  542  25.992  41.375  12.578
28283W        W  543  36.952   0.818   2.567
28284W        W  544  28.847   5.177   4.574
28285W        W  545  22.288  39.506  12.564
28286W        W  546   3.264  34.495   0.551
28287W        W  547  10.571  19.669   1.907
28288W        W  548  17.651  37.698  14.215
28289W        W  549  13.146  23.000   3.702
28290W        W  550  42.911  15.715   2.154
28291W        W  551  18.092  38.893   0.000
28292W        W  552  42.553   7.364   2.577
28293W        W  553  15.256  22.076  13.150
28294W        W  554  14.989  32.016   1.650
28295W        W  555   0.974  43.177  13.888
28296W        W  556  43.754   1.271  14.131
28297W        W  557  16.861  38.064  13.962
28298W        W  558  11.362  19.735   0.743
28299W        W  559  34.687  39.255  11.099
28300W        W  560  11.290  39.926  14.098
28301W        W  561  10.477  21.689   5.085
28302W        W  562  15.659  18.873  13.889
28303W        W  563  11.101  43.250  13.409
28304W        W  564   4.394  19.496  10.678
28305W        W  565  13.065  13.748   0.621
28306W        W  566   1.420  31.419  10.803
28307W        W  567   6.450  27.689  10.044
28308W        W  568   8.752  40.527   0.903
28309W        W  569  27.162  13.750  12.324
28310W        W  570  26.435  20.058   3.591
28311W        W  571  21.578  26.689   3.686
28312W        W  572  20.765  28.161   1.897
28313W        W  573  32.213   0.029   1.826
28314W        W  574   7.906  14.851  11.175
28315W        W  575  22.025  38.882   4.696
28316W        W  576  21.240  18.830   5.182
28317W        W  577  41.269  27.413   2.283
28318W        W  578   1.395  34.972   4.461
28319W        W  579  34.443  26.367  14.269
28320W        W  580  41.081  13.348  11.437
28321W        W  581  21.019  24.637  11.869
28322W        W  582  20.009  23.064   3.318
28323W        W  583  10.279  24.087   2.679
28324W        W  584   6.704  25.282   2.868
28325W        W  585  24.179   5.818  14.258
28326W        W  586  33.357  16.162  14.680
28327W        W  587   9.232  33.893   0.052
28328W        W  588  30.954  33.337  11.131
28329W        W  589  34.017  42.529   0.292
28330W        W  590  30.375  35.040   1.776
28331W        W  591  17.212  10.218  13.086
28332W        W  592   9.376  26.487  10.337
28333W        W  593  35.558  32.630  13.456
28334W        W  594  27.537  19.214   0.562
28335W        W  595  30.704  20.789  11.979
28336W        W  596   9.632  17.328   4.931
28337W        W  597  19.488  28.124   3.659
28338W        W  598  19.808   2.664   4.181
28339W        W  599  43.862   8.431  12.124
28340W        W  600  12.150  26.715  10.944
28341W        W  601  21.747  22.266   0.416
28342W        W  602  29.132  25.140   3.642
28343W        W  603  26.513   4.718   0.811
28344W        W  604   7.712  25.526  13.845
28345W        W  605   4.802   0.471   1.676
28346W        W  606  16.705   9.841  11.059
28347W        W  607  11.089  25.590   0.182
28348W        W  608   5.729  44.719  13.994
28349W        W  609  25.210  19.359  13.224
28350W        W  610  35.351  41.552   2.338
28351W        W  611  26.742   4.869  11.727
28352W        W  612   9.981  36.633  10.672
28353W        W  613  15.131  14.078  14.568
28354W        W  614  33.085  20.511  12.129
28355W        W  615  19.802  27.604  12.607
28356W        W  616  37.851  23.926  11.942
28357W        W  617  43.746  41.868  14.442
28358W        W  618  13.140  44.569   1.837
28359W        W  619  21.951   2.731  10.411
28360W        W  620  42.322  17.259  13.176
28361W        W  621  13.321  13.668  14.015
28362W        W  622  44.163   7.839   1.244
28363W        W  623  39.284  40.562   4.625
28364W        W  624  24.034   3.269   3.542
28365W        W  625   6.675  18.744   1.480
28366W        W  626   8.146  26.230   4.113
28367W        W  627   5.827  15.269   2.131
28368W        W  628  16.464  37.993   1.842
28369W        W  629  36.125   2.899   2.274
28370W        W  630  17.142  33.679   0.676
28371W        W  631   4.170  25.491   4.523
28372W        W  632  32.360  30.018  12.755
28373W        W  633   6.394  34.531  10.582
28374W        W  634  15.102  25.488  11.595
28375W        W  635   8.719  18.533   4.834
28376W        W  636  10.876  22.156  10.515
28377W        W  637   7.083  37.981   0.407
28378W        W  638   1.349  17.722   0.150
28379W        W  639  21.010  36.863  10.752
28380W        W  640   6.053  32.967   2.747
28381W        W  641  19.072  27.123  14.273
28382W        W  642  34.228  37.048   1.253
28383W        W  643   8.895  26.288   1.829
28384W        W  644  33.821  39.812  11.548
28385W        W  645  11.364  38.250   1.742
28386W        W  646  28.382   5.210   2.885
28387W        W  647  17.268   7.679   2.363
28388W        W  648  19.962  43.432   0.331
28389W        W  649  40.245  14.595   1.787
28390W        W  650   1.195  37.181  12.579
28391W        W  651  22.165  20.024  13.343
28392W        W  652   3.005   6.222  14.581
28393W        W  653   7.967  25.745   2.313
28394W        W  654   0.348  44.282   1.600
28395W        W  655   7.474  30.106  12.388
28396W        W  656  33.409  32.348  13.625
28397W        W  657  27.230  41.081  12.117
28398W        W  658   8.287  18.281   1.763
28399W        W  659  44.391  27.557  10.820
28400W        W  660  24.533   3.781   1.857
28401W        W  661  32.095  13.632  12.938
28402W        W  662   2.190  41.042  14.843
28403W        W  663  32.835  33.648  13.516
28404W        W  664  32.326  18.241   3.741
28405W        W  665  28.531  40.823   3.454
28406W        W  666   3.904  28.672  12.636
28407W        W  667   7.467  33.963  12.072
28408W        W  668   7.195  18.496   1.983
28409W        W  669  26.043  16.077  11.275
28410W        W  670  16.518   4.858   2.841
28411W        W  671  32.569  39.405  14.297
28412W        W  672  12.271  17.119  13.106
28413W        W  673  14.728  41.776   0.852
28414W        W  674  14.751  37.353  11.397
28415W        W  675  26.602  31.540  10.522
28416W        W  676  43.582   1.242   1.431
28417W        W  677  14.667  32.156   0.795
28418W        W  678   2.515   7.161  11.008
28419W        W  679  44.434  15.748  11.474
28420W        W  680  27.001  34.405  13.295
28421W        W  681  27.150  31.618  13.349
28422W        W  682   9.679  27.712  12.836
28423W        W  683  33.906  28.672  11.655
28424W        W  684  29.060  34.876  13.405
28425W        W  685   4.953  10.262  11.226
28426W        W  686  44.442  20.978   0.341
28427W        W  687   9.286  27.134   3.831
28428W        W  688  21.174  38.837  13.230
28429W        W  689  39.507  37.922  14.078
28430W        W  690  31.622  35.817  14.442
28431W        W  691  20.219  10.345  13.261
28432W        W  692  18.015  19.630  14.304
28433W        W  693   5.335  21.278   1.466
28434W        W  694  35.280  14.258   0.852
28435W        W  695  10.839  36.940   0.781
28436W        W  696  37.362  39.578  11.888
28437W        W  697  25.738  29.084   3.608
28438W        W  698  34.547   5.780   4.501
28439W        W  699  21.777  19.144   1.223
28440W        W  700  33.903  12.349  14.343
28441W        W  701   0.712   0.635   1.030
28442W        W  702  22.826  39.433  14.297
28443W        W  703  24.479  37.980   1.137
28444W        W  704   5.936  19.082  13.358
28445W        W  705  37.790  25.650   4.660
28446W        W  706  24.758   5.223  14.330
28447W        W  707   3.876  11.745   3.850
28448W        W  708  38.302  44.054  12.866
28449W        W  709  17.767  29.669  14.880
28450W        W  710  42.959   6.396  14.956
28451W        W  711  44.656  22.812  14.244
28452W        W  712  24.683  19.549   0.948
28453W        W  713  34.577   9.770  10.447
28454W        W  714  27.535  28.146   3.716
28455W        W  715  32.273  30.960  13.438
28456W        W  716  41.346  24.972  11.461
28457W        W  717   0.038  22.515  11.538
28458W        W  718   5.104  24.557   4.502
28459W        W  719   6.317  41.564   2.862
28460W        W  720  23.981  29.381   1.343
28461W        W  721  19.140  15.413   1.413
28462W        W  722  43.425  26.117  10.934
28463W        W  723  15.166  10.334   3.288
28464W        W  724  17.094  16.800   0.005
28465W        W  725  39.053   9.159  13.487
28466W        W  726   6.471  36.488  12.435
28467W        W  727  41.357  44.700  11.413
28468W        W  728  36.324  11.338   0.341
28469W        W  729  11.405  19.949   1.462
28470W        W  730  15.489  21.891  13.565
28471W        W  731  11.870   2.857  11.106
28472W        W  732  22.640  24.443   0.307
28473W        W  733  19.171  18.687  13.940
28474W        W  734  29.636  42.371  14.975
28475W        W  735  44.436  19.075   1.752
28476W        W  736  18.529  32.221  10.177
28477W        W  737   7.907  35.664  10.586
28478W        W  738  24.102  19.153   0.335
28479W        W  739   5.911  41.703  11.945
28480W        W  740  14.048   4.674  13.940
28481W        W  741  14.100  22.253   2.084
28482W        W  742  13.103  42.299   3.673
28483W        W  743  30.118  35.862  11.528
28484W        W  744   8.657  27.487   1.381
28485W        W  745  32.310   9.257  12.174
28486W        W  746  16.173  16.948   1.912
28487W        W  747   3.238  16.911  14.225
28488W        W  748   0.561   4.210  12.545
28489W        W  749  40.169  25.700   2.630
28490W        W  750  34.482  19.478  12.073
28491W        W  751  11.391  43.931  10.559
28492W        W  752   1.275  23.083   3.666
28493W        W  753  39.344  33.285   4.117
28494W        W  754   4.830   1.245  11.521
28495W        W  755  32.612  19.597  14.456
28496W        W  756  38.758  29.525   3.376
28497W        W  757  24.527   7.179  12.559
28498W        W  758  27.881  41.106  12.931
28499W        W  759   0.766   7.668   4.086
28500W        W  760  18.312  11.563   4.873
28501W        W  761  40.728  42.551   0.069
28502W        W  762  36.904  33.125   3.893
28503W        W  763  41.498  38.420   4.382
28504W        W  764   8.182   0.140  11.183
28505W        W  765  31.394  41.779   3.720
28506W        W  766  15.899  21.324  10.647
28507W        W  767  36.949   3.446  11.609
28508W        W  768  35.516  13.323   3.694
28509W        W  769  16.014  42.971  12.798
28510W        W  770  41.505  31.116   1.829
28511W        W  771   2.729   8.190   0.046
28512W        W  772  17.265  40.795   4.090
28513W        W  773  33.648   8.289   0.460
28514W        W  774  12.761  44.910  12.399
28515W        W  775  31.076  38.762   4.924
28516W        W  776  15.633  31.870   0.490
28517W        W  777   1.302   5.736   0.417
28518W        W  778  17.267   5.698   5.175
28519W        W  779  17.324  17.177   0.409
28520W        W  780  38.866  34.718   2.828
28521W        W  781  39.331  34.325  14.787
28522W        W  782  29.413   7.632   1.001
28523W        W  783   1.378   0.399  11.913
28524W        W  784   4.980  33.732  12.461
28525W        W  785   4.674  18.285  12.555
28526W        W  786  17.559   8.673  14.443
28527W        W  787   1.012  44.544  13.052
28528W        W  788   5.763  43.553  10.768
28529W        W  789  22.319  19.053   3.229
28530W        W  790  31.216  38.945  14.379
28531W        W  791   2.827  15.834   4.744
28532W        W  792  38.882  28.950   2.653
28533W        W  793  21.099  22.967   5.037
28534W        W  794   2.905  40.175   0.725
28535W        W  795  44.202  16.029   4.156
28536W        W  796  13.861  25.649   2.376
28537W        W  797  31.440  21.759   0.711
28538W        W  798   4.678  38.260  14.716
28539W        W  799  40.635  40.177  13.378
28540W        W  800   0.352  31.730   4.719
28541W        W  801  25.170  10.638  14.971
28542W        W  802  18.433  37.277   0.195
28543W        W  803   4.374  23.947   4.187
28544W        W  804  28.112  30.581   0.498
28545W        W  805  35.651   3.489   1.883
28546W        W  806   2.560  35.574  11.145
28547W        W  807  23.536   7.278  11.867
28548W        W  808   4.493  40.489   0.605
28549W        W  809  12.612  11.240   1.679
28550W        W  810   2.459   0.297  13.344
28551W        W  811  15.343  37.534  13.094
28552W        W  812  11.272   8.312   1.404
28553W        W  813  32.396  24.976   4.452
28554W        W  814  34.065  21.158   5.426
28555W        W  815  44.833  30.368   2.709
28556W        W  816  33.667  34.039   2.582
28557W        W  817   9.194  10.729   0.130
28558W        W  818  32.000   3.704  13.912
28559W        W  819  31.385  34.059   2.281
28560W        W  820   7.579  39.070   3.691
28561W        W  821  14.471  16.555  12.880
28562W        W  822  44.317  19.625  14.989
28563W        W  823  38.165  18.507   4.570
28564W        W  824  21.201  33.229   0.343
28565W        W  825  43.517  13.903  11.788
28566W        W  826   0.502   9.700  10.690
28567W        W  827  11.226  36.064   4.336
28568W        W  828   0.259  17.245  13.338
28569W        W  829  20.513   3.665   0.306
28570W        W  830  19.198  34.526  11.150
28571W        W  831  22.901  41.249  13.730
28572W        W  832  14.254   5.080   3.826
28573W        W  833  34.307  32.057   4.543
28574W        W  834   1.816  41.813   3.175
28575W        W  835  14.727  17.347   1.809
28576W        W  836   0.482  10.700   3.196
28577W        W  837  40.374  12.921   4.058
28578W        W  838  40.779  35.833   4.572
28579W        W  839  44.912  42.822   1.941
28580W        W  840  33.432  17.350  11.160
28581W        W  841  14.970   0.373  11.659
28582W        W  842  42.402   1.649  11.468
28583W        W  843  11.520  34.587   2.650
28584W        W  844  20.784  12.007   2.663
28585W        W  845  33.086  16.285   0.115
28586W        W  846  23.691  12.664  10.941
28587W        W  847  40.288  22.212   1.526
28588W        W  848  37.588  12.525  13.018
28589W        W  849  14.735  16.080   3.279
28590W        W  850   0.186  37.626  11.889
28591W        W  851  17.132  10.159   0.290
28592W        W  852  22.792  25.620   5.044
28593W        W  853   8.121   5.554   3.316
28594W        W  854   0.240  31.073  10.670
28595W        W  855  15.620  15.333  14.342
28596W        W  856   6.923  34.846   2.112
28597W        W  857  32.954  35.932   1.865
28598W        W  858  29.036  29.665   2.412
28599W        W  859  35.469  44.475  11.517
28600W        W  860  26.705  40.933   2.650
28601W        W  861  29.606  17.785  11.293
28602W        W  862   6.121  38.913   4.023
28603W        W  863  15.657  24.920  12.045
28604W        W  864   1.125  12.860  10.908
28605W        W  865  16.153  19.812   0.625
28606W        W  866  38.424  37.354   1.893
28607W        W  867  36.992  41.498   4.184
28608W        W  868  12.764  29.486   3.270
28609W        W  869  41.824  29.541   3.472
28610W        W  870  27.484  42.283   1.772
28611W        W  871  25.075  30.373  10.966
28612W        W  872  12.144  18.963  11.233
28613W        W  873  12.155  44.585   0.299
28614W        W  874  22.095  30.055  12.659
28615W        W  875   8.686  43.766   2.431
28616W        W  876  33.138  22.024   2.683
28617W        W  877   7.923  26.412  12.516
28618W        W  878  18.577   4.994  12.985
28619W        W  879  23.733  37.298   3.167
28620W        W  880  16.299  32.647  12.958
28621W        W  881   3.385  38.335  10.708
28622W        W  882  28.647   0.401  13.523
28623W        W  883  33.142  19.064   0.910
28624W        W  884  42.694  12.529   4.613
28625W        W  885  25.482   4.969   4.212
28626W        W  886  25.706   2.506  10.747
28627W        W  887  15.814  21.224  14.196
28628W        W  888   9.175  32.652   4.964
28629W        W  889  16.752  43.723   4.131
28630W        W  890  23.741  35.928   4.608
28631W        W  891  12.757   0.947  13.553
28632W        W  892  44.093  14.411   2.011
28633W        W  893  37.995   0.877  14.586
28634W        W  894  29.432  23.080   1.670
28635W        W  895   8.734   1.657   3.363
28636W        W  896  23.935  37.512  13.825
28637W        W  897  39.263   2.315   2.411
28638W        W  898  32.346  23.970  14.485
28639W        W  899  22.232  41.488   1.760
28640W        W  900  24.177  41.972   4.598
28641W        W  901  41.934   5.294   2.612
28642W        W  902  35.110  34.584  14.800
28643W        W  903  40.070  15.826   1.845
28644W        W  904  32.887  44.945  13.039
28645W        W  905  18.566  39.737  11.332
28646W        W  906  22.119   2.290   4.828
28647W        W  907  38.283  12.518  11.137
28648W        W  908  37.824  31.830  11.110
28649W        W  909  19.115   1.029  12.116
28650W        W  910  26.032   2.012  13.014
28651W        W  911  12.283  32.370   3.906
28652W        W  912   1.682  13.203   2.130
28653W        W  913  13.773  20.774   2.918
28654W        W  914  19.167  26.154   0.957
28655W        W  915   9.294  32.834   1.884
28656W        W  916  26.834   8.854   3.578
28657W        W  917  39.490  13.765   4.835
28658W        W  918  15.365  25.585  12.045
28659W        W  919  24.454  29.501  14.972
28660W        W  920   5.424  19.262  12.467
28661W        W  921  31.565  34.634   1.412
28662W        W  922  20.732  34.211  12.062
28663W        W  923  28.948  40.239   2.378
28664W        W  924   9.812   7.548  13.787
28665W        W  925  22.094  13.228   0.490
28666W        W  926  23.413  27.167   1.837
28667W        W  927  18.086  44.537   3.359
28668W        W  928  18.222  17.216   3.545
28669W        W  929   5.463  28.349  13.242
28670W        W  930  11.072  15.167  13.103
28671W        W  931  10.271  21.320  12.420
28672W        W  932  33.075  27.017   3.867
28673W        W  933   1.474   8.368   3.172
28674W        W  934  31.966  42.363  14.542
28675W        W  935  20.688  17.743   4.246
28676W        W  936  24.256  24.626   2.872
28677W        W  937  26.867  24.203   1.797
28678W        W  938  30.858   3.715   0.256
28679W        W  939   3.778  43.426  13.474
28680W        W  940  16.133   9.634  14.039
28681W        W  941  22.852  14.158   5.280
28682W        W  942  44.255  10.241   3.731
28683W        W  943  17.664  41.485  12.920
28684W        W  944   1.020  29.693  11.246
28685W        W  945  41.045  11.779  11.948
28686W        W  946  22.016  21.627  10.204
28687W        W  947  41.821   9.673  12.466
28688W        W  948  23.399   9.640  12.027
28689W        W  949   1.859   7.374   2.372
28690W        W  950  34.446  35.842   4.140
28691W        W  951  31.437   4.979   2.895
28692W        W  952  26.049  43.157  14.848
28693W        W  953   2.485   1.940   3.183
28694W        W  954  23.320  32.025   3.706
28695W        W  955  25.673   4.889  11.895
28696W        W  956  21.612  13.680  13.145
28697W        W  957  19.562  24.791   0.126
28698W        W  958   3.967  20.202   2.329
28699W        W  959  24.142  39.396  12.815
28700W        W  960  29.913   2.220   0.785
28701W        W  961   9.423  41.744  12.958
28702W        W  962  26.624  13.912   0.969
28703W        W  963  16.869   5.328   3.990
28704W        W  964   6.091   2.333  12.824
28705W        W  965  15.096  33.551   3.636
28706W        W  966   2.313  18.823   2.432
28707W        W  967  42.836  38.976   1.180
28708W        W  968  13.496  23.948   1.271
28709W        W  969   9.208  35.882  10.592
28710W        W  970  23.301  13.616  11.637
28711W        W  971  41.183  42.823  14.407
28712W        W  972  24.078   8.086   0.796
28713W        W  973   0.303  13.916   2.445
28714W        W  974  27.745  10.707  10.530
28715W        W  975  24.243  32.936   4.165
28716W        W  976   9.178  19.299   4.890
28717W        W  977   8.885  33.971  11.278
28718W        W  978   8.352  43.427   2.253
28719W        W  979  14.364   6.466   0.302
28720W        W  980  18.714  44.951  12.983
28721W        W  981  12.564  13.763   0.805
28722W        W  982   5.263  27.918   3.590
28723W        W  983  31.012  27.660   3.679
28724W        W  984   2.727  32.820   1.306
28725W        W  985   8.824  17.516   0.807
28726W        W  986  33.110  44.442  10.960
28727W        W  987   0.331  17.970  12.882
28728W        W  988  20.569  37.329   3.370
28729W        W  989  13.348  40.968   1.861
28730W        W  990  32.610  24.681  13.045
28731W        W  991   7.613   7.095  11.629
28732W        W  992  20.379   5.261  13.882
28733W        W  993  37.038  29.535  14.507
28734W        W  994  17.295  37.860  10.776
28735W        W  995  26.937   0.461  13.063
28736W        W  996  21.499  27.699   1.812
28737W        W  997   2.554  32.209   3.981
28738W        W  998  41.431   3.492  10.733
28739W        W  999  17.728  10.618   4.194
28740W        W 1000  24.613  12.161  10.860
28741W        W 1001  18.005  29.898  10.672
28742W        W 1002  27.768  17.710  11.288
28743W        W 1003  39.817  31.653  13.974
28744W        W 1004  43.866   1.334   1.879
28745W        W 1005  40.164  26.543  11.078
28746W        W 1006  35.748   4.446   4.103
28747W        W 1007  38.732   2.207   4.310
28748W        W 1008  39.109   4.463  12.081
28749W        W 1009  16.757  44.308  12.104
28750W        W 1010   4.737  30.784  14.784
28751W        W 1011   5.479  33.870  12.457
28752W        W 1012  22.230  21.721  13.982
28753W        W 1013  27.238   7.029  14.132
28754W        W 1014  17.861  38.411  14.877
28755W        W 1015  34.915  16.272  14.330
28756W        W 1016  12.216  26.235  10.748
28757W        W 1017   7.097   1.999  14.996
28758W        W 1018  33.552  23.958  13.784
28759W        W 1019  29.635   0.833  12.864
28760W        W 1020   1.237  40.748  11.732
28761W        W 1021   9.697  18.977  12.542
28762W        W 1022  35.862  23.021   3.630
28763W        W 1023  42.532   8.735  11.501
28764W        W 1024  43.456   8.151  11.998
28765W        W 1025  23.527  26.338  13.400
28766W        W 1026  11.254  44.910   0.963
28767W        W 1027  32.445  12.568   1.715
28768W        W 1028  17.840  10.416  14.501
28769W        W 1029  28.183  29.051  10.645
28770W        W 1030  24.932  37.089   0.910
28771W        W 1031   3.519  35.853   0.901
28772W        W 1032  21.058  36.200   5.036
28773W        W 1033  17.228  11.273  10.675
28774W        W 1034  43.124   3.371  13.905
28775W        W 1035   0.486  30.820   4.342
28776W        W 1036  21.941  32.051   1.882
28777W        W 1037   7.335  26.176  12.876
28778W        W 1038   2.958   2.962  12.994
28779W        W 1039  19.268  37.626  14.905
28780W        W 1040  17.184  13.115   3.987
28781W        W 1041  39.105  15.120   2.795
28782W        W 1042   2.374  38.533   1.294
28783W        W 1043  22.133  29.628  11.601
28784W        W 1044  21.266  33.919   0.057
28785W        W 1045  44.490  15.143  10.694
28786W        W 1046  37.384   7.615   3.913
28787W        W 1047   9.626  38.627   2.359
28788W        W 1048  21.937   9.165   3.390
28789W        W 1049  41.021  41.772  11.133
28790W        W 1050  12.185  41.542  14.463
28791W        W 1051  29.598  43.715  12.304
28792W        W 1052  14.580  17.551  13.081
28793W        W 1053  22.922   6.287   4.555
28794W        W 1054  24.616  30.424  11.254
28795W        W 1055   4.733   8.814   4.532
28796W        W 1056  38.516   4.760   3.661
28797W        W 1057  35.205  44.255  14.373
28798W        W 1058   8.150  21.272  12.404
28799W        W 1059  43.543  28.783   1.742
28800W        W 1060   3.461  24.228   3.949
28801W        W 1061  11.849  33.685  14.355
28802W        W 1062  27.279   9.386  10.399
28803W        W 1063   4.365   0.862  13.224
28804W        W 1064  37.169  10.929   4.642
28805W        W 1065  40.971  38.966  11.012
28806W        W 1066  16.559  23.658   3.586
28807W        W 1067  43.973  20.220   0.260
28808W        W 1068  39.565  35.971  14.765
28809W        W 1069  21.539  33.299  11.205
28810W        W 1070  19.151  14.905  12.966
28811W        W 1071  30.838  14.390   2.820
28812W        W 1072   8.162  10.799  12.598
28813W        W 1073  19.031  35.421  14.886
28814W        W 1074   6.217  17.520  12.736
28815W        W 1075  27.149  34.956  11.386
28816W        W 1076  24.415  41.513  13.936
28817W        W 1077   8.197  34.952  12.299
28818W        W 1078   1.845  37.878   2.345
28819W        W 1079  40.491  35.319   1.477
28820W        W 1080  32.895  43.158   0.973
28821W        W 1081  33.327  30.461   3.470
28822W        W 1082  42.511   7.834  10.740
28823W        W 1083  37.941  42.033  13.921
28824W        W 1084  16.270  12.638   3.296
28825W        W 1085   8.773  24.765   2.837
28826W        W 1086  10.053  21.591   2.809
28827W        W 1087  44.567   8.761  11.106
28828W        W 1088  29.180  38.378   3.227
28829W        W 1089  13.752  39.877   3.899
28830W        W 1090  31.867  36.888  12.759
28831W        W 1091  32.272  40.877   0.092
28832W        W 1092  27.052   7.412   3.461
28833W        W 1093  15.315  12.600   4.175
28834W        W 1094  10.731  35.499  13.902
28835W        W 1095   7.669   6.112  14.920
28836W        W 1096  35.109   0.704   2.372
28837W        W 1097  17.774  22.015   4.233
28838W        W 1098   6.157  26.115  13.775
28839W        W 1099  22.154  21.652   3.739
28840W        W 1100   5.634  37.055  11.576
28841W        W 1101   0.501  30.331   4.504
28842W        W 1102   8.237  22.275  13.358
28843W        W 1103   1.405   8.218   1.658
28844W        W 1104  25.618  31.519  13.990
28845W        W 1105  38.476   6.872   9.868
28846W        W 1106  42.016  10.705  12.122
28847W        W 1107  23.464  42.545   2.702
28848W        W 1108  19.535  22.244  13.060
28849W        W 1109   7.397  16.052   0.208
28850W        W 1110   7.272  15.304   4.502
28851W        W 1111   9.841  15.622   4.166
28852W        W 1112  24.645   5.900   0.631
28853W        W 1113   1.188  12.184  13.077
28854W        W 1114   2.344  23.163   4.666
28855W        W 1115  25.517   6.866   2.294
28856W        W 1116   9.789  37.321   1.832
28857W        W 1117  24.269   2.421  11.145
28858W        W 1118  23.655  14.071   4.245
28859W        W 1119   0.997  18.670   3.993
28860W        W 1120  24.203   1.499   3.277
28861W        W 1121  29.078   7.876  12.818
28862W        W 1122  14.283  22.682   5.107
28863W        W 1123  16.177  23.025  13.419
28864W        W 1124  32.730  28.997   1.308
28865W        W 1125  33.888  39.259   2.423
28866W        W 1126  24.734  19.476   1.933
28867W        W 1127   6.827  29.557  13.542
28868W        W 1128  20.447  22.428   0.266
28869W        W 1129  14.995  37.912  12.395
28870W        W 1130  40.649  40.275  11.653
28871W        W 1131  30.460  28.862  14.988
28872W        W 1132  18.982   3.817   4.059
28873W        W 1133  30.981   7.826  11.169
28874W        W 1134  15.171   4.504   4.148
28875W        W 1135  29.078  18.736   1.336
28876W        W 1136  34.940   3.755   0.489
28877W        W 1137   1.003  41.402   4.708
28878W        W 1138  27.424   2.974  12.322
28879W        W 1139  41.004  28.063  14.901
28880W        W 1140  19.730  16.548   1.787
28881W        W 1141  27.003   0.838  10.860
28882W        W 1142  41.985   5.462   0.509
28883W        W 1143   3.246   2.416   3.299
28884W        W 1144  29.549   1.038   0.584
28885W        W 1145  34.778   4.177   4.088
28886W        W 1146  22.698  33.769   0.467
28887W        W 1147   1.173   3.903  14.311
28888W        W 1148  17.549  11.385   4.699
28889W        W 1149  27.985   0.240  10.223
28890W        W 1150   6.776  12.515   4.855
28891W        W 1151   0.095  42.234  13.087
28892W        W 1152  20.465  14.454  10.752
28893W        W 1153  28.975  37.744  11.116
28894W        W 1154  43.323  28.591  12.171
28895W        W 1155   9.801  39.414  12.708
28896W        W 1156  18.059  34.034  13.613
28897W        W 1157   8.775   2.267   4.127
28898W        W 1158   1.516  29.873   2.214
28899W        W 1159  28.025  44.432   4.122
28900W        W 1160  20.038  21.925   4.040
28901W        W 1161  29.707  40.486   3.357
28902W        W 1162   3.862   0.169   5.070
28903W        W 1163  36.297  31.514  12.591
28904W        W 1164  20.265  33.598   5.130
28905W        W 1165  37.375   0.394   3.762
28906W        W 1166  31.455  33.330   0.948
28907W        W 1167   1.438  21.764  10.698
28908W        W 1168  17.059  19.219   3.161
28909W        W 1169  26.953   2.713   0.407
28910W        W 1170  34.341  14.697   2.428
28911W        W 1171   3.049  33.586  11.634
28912W        W 1172   4.411   9.497  13.606
28913W        W 1173  44.906  43.875   0.003
28914W        W 1174  21.218  26.410  14.181
28915W        W 1175  44.193  33.210  12.205
28916W        W 1176  22.106  12.612   1.724
28917W        W 1177  31.474  33.026   2.425
28918W        W 1178   9.801  22.485  10.747
28919W        W 1179  10.636  15.027  11.658
28920W        W 1180  10.689  27.442   2.639
28921W        W 1181  44.582  44.823  11.790
28922W        W 1182  19.270   3.037  12.071
28923W        W 1183   7.372  24.746  11.147
28924W        W 1184  32.881  31.705  13.341
28925W        W 1185  33.337  30.037  13.048
28926W        W 1186  24.158  42.783  10.662
28927W        W 1187   8.162  13.604  13.868
28928W        W 1188   7.833  19.358   3.740
28929W        W 1189   4.745  35.591   3.239
28930W        W 1190  35.422  27.369  12.672
28931W        W 1191  30.672   2.745   4.252
28932W        W 1192  12.112  16.768   1.729
28933W        W 1193  24.656   7.456   3.635
28934W        W 1194   9.515  16.557  11.649
28935W        W 1195  30.997  37.420   2.738
28936W        W 1196   9.338  16.434   4.660
28937W        W 1197   9.708  42.359  13.072
28938W        W 1198  24.950   8.975  10.512
28939W        W 1199  30.510  25.181   4.362
28940W        W 1200  29.465   0.883  13.370
28941W        W 1201   9.282  18.982   0.946
28942W        W 1202  15.610  42.807   4.250
28943W        W 1203  37.783  20.063   0.897
28944W        W 1204  15.135  44.922  13.661
28945W        W 1205  34.241  20.261   0.119
28946W        W 1206  19.306  23.122  11.049
28947W        W 1207   7.107  30.136   4.958
28948W        W 1208  23.850  39.056  11.483
28949W        W 1209  17.041  20.107   0.444
28950W        W 1210  26.045  11.728  14.907
28951W        W 1211  44.563   2.921   3.189
28952W        W 1212  19.813  10.410  11.215
28953W        W 1213  19.322  33.169  10.798
28954W        W 1214  17.016  30.039   2.790
28955W        W 1215  34.383   8.219  13.797
28956W        W 1216  44.985  33.993   4.577
28957W        W 1217   6.319  39.821   3.828
28958W        W 1218  29.001  30.929  13.388
28959W        W 1219  42.042  23.141   1.876
28960W        W 1220  13.235  27.246  13.902
28961W        W 1221  20.115  42.863  12.074
28962W        W 1222  33.967  42.414  13.983
28963W        W 1223  23.293  33.352  11.556
28964W        W 1224   7.153  43.551  10.793
28965W        W 1225  27.010  15.337  13.038
28966W        W 1226  27.637   2.010  12.571
28967W        W 1227  41.085  14.827   0.394
28968W        W 1228  25.414  33.280  14.396
28969W        W 1229   0.250   5.997   3.891
28970W        W 1230  33.502  12.581   3.699
28971W        W 1231   6.739   4.394   0.582
28972W        W 1232   6.777  44.352   2.397
28973W        W 1233   0.786  36.289   1.297
28974W        W 1234   8.348  43.833   0.502
28975W        W 1235  29.207  31.853  11.007
28976W        W 1236  30.612  33.311   2.279
28977W        W 1237  39.955  37.397  10.521
28978W        W 1238  38.997  12.811   0.494
28979W        W 1239  34.922  33.523  12.325
28980W        W 1240  20.333   3.866   2.685
28981W        W 1241   2.208   1.726  11.454
28982W        W 1242  16.937  43.025  12.577
28983W        W 1243  32.213   7.304  12.241
28984W        W 1244  44.555  12.594  11.470
28985W        W 1245  32.029  19.551  11.496
28986W        W 1246  37.892  26.688  14.719
28987W        W 1247  40.375  17.054  10.814
28988W        W 1248   8.911   7.961  13.942
28989W        W 1249  33.102   3.916   3.330
28990W        W 1250  27.051   4.856   0.738
28991W        W 1251  15.301   0.929  10.695
28992W        W 1252  35.499  35.487   3.091
28993W        W 1253  32.332  23.440  11.327
28994W        W 1254  20.755  43.060   1.458
28995W        W 1255  12.508  12.521  13.048
28996W        W 1256  11.868  30.613   0.022
28997W        W 1257  37.321  30.149   1.825
28998W        W 1258  31.156  41.078   4.361
28999W        W 1259  36.407  21.580  11.577
29000W        W 1260  20.291  40.076   2.654
29001W        W 1261  41.395  16.159   0.178
29002W        W 1262  25.351   1.771   0.419
29003W        W 1263  13.270   6.921  12.103
29004W        W 1264  16.189   6.381  13.334
29005W        W 1265   7.289  13.327   4.380
29006W        W 1266  30.153  41.724   3.256
29007W        W 1267   0.474   8.367   1.710
29008W        W 1268   9.102  19.656   3.690
29009W        W 1269  27.141  24.727   4.865
29010W        W 1270  22.646  41.593  13.344
29011W        W 1271  12.681  41.114  11.518
29012W        W 1272  31.050  39.886   4.890
29013W        W 1273  13.628  26.920   3.255
29014W        W 1274  21.236  21.732   3.666
29015W        W 1275   7.089   7.151  11.688
29016W        W 1276  26.034  21.739   2.666
29017W        W 1277  37.012  37.970   4.668
29018W        W 1278  22.267  38.562  14.100
29019W        W 1279  34.588  25.028   3.115
29020W        W 1280  16.281  16.394  13.089
29021W        W 1281   9.779  34.661  14.813
29022W        W 1282  44.905  18.178  10.783
29023W        W 1283  39.279  37.835  13.637
29024W        W 1284  40.435  33.433  14.567
29025W        W 1285  36.455   8.781   1.306
29026W        W 1286  40.204   3.999  12.586
29027W        W 1287   5.484  25.630   0.887
29028W        W 1288  27.979  34.744   0.494
29029W        W 1289  43.765  16.913   4.143
29030W        W 1290  18.793  42.931   0.684
29031W        W 1291   9.739  32.922  12.600
29032W        W 1292  27.336  15.600   1.893
29033W        W 1293  15.313  14.572   0.284
29034W        W 1294  32.209  33.900  13.549
29035W        W 1295   6.660  26.503   3.599
29036W        W 1296  11.132   3.468   3.009
29037W        W 1297  12.584   8.278   3.745
29038W        W 1298   6.769  30.457  10.680
29039W        W 1299   1.527  16.846  13.907
29040W        W 1300   3.376   4.571   4.964
29041W        W 1301   5.727  22.911  14.940
29042W        W 1302   4.732  26.523   3.516
29043W        W 1303  14.005  35.226   0.240
29044W        W 1304   6.171  23.981  11.599
29045W        W 1305   7.529  15.495  10.298
29046W        W 1306  11.691   5.238  14.875
29047W        W 1307  32.210  37.302   4.614
29048W        W 1308   8.364   5.836   1.932
29049W        W 1309  18.289  32.930   4.283
29050W        W 1310  41.454   3.921   4.073
29051W        W 1311  25.094  34.350   0.768
29052W        W 1312  22.597  16.359   1.075
29053W        W 1313  34.156   0.433   4.909
29054W        W 1314  19.272  25.465   3.169
29055W        W 1315  38.936  34.160  14.422
29056W        W 1316  32.443  15.750   4.111
29057W        W 1317  26.399  36.077  10.403
29058W        W 1318  36.939  29.679  13.522
29059W        W 1319  14.519  39.629  10.188
29060W        W 1320  25.201  12.017   0.810
29061W        W 1321  14.548  35.802   1.787
29062W        W 1322   1.287  41.248   2.396
29063W        W 1323  10.702  20.990  12.395
29064W        W 1324  17.848  42.349   4.303
29065W        W 1325   0.355   8.286  10.711
29066W        W 1326  22.085  32.163   0.218
29067W        W 1327   7.687  37.133   2.402
29068W        W 1328  27.201   3.399  13.576
29069W        W 1329  33.189   0.600  13.615
29070W        W 1330  15.848  12.336  12.105
29071W        W 1331  40.919  29.577  12.363
29072W        W 1332  36.588  20.069   0.264
29073W        W 1333   1.338  17.773   4.673
29074W        W 1334  18.219   4.837  14.696
29075W        W 1335  27.187  40.861   4.113
29076W        W 1336   5.739  16.713   2.144
29077W        W 1337   0.320   4.391  14.682
29078W        W 1338  11.382  22.990   2.736
29079W        W 1339  33.895   2.045   3.390
29080W        W 1340   7.489   6.612  11.783
29081W        W 1341   6.686  27.228   0.202
29082W        W 1342  31.171  34.808  10.729
29083W        W 1343  35.345  38.544  13.889
29084W        W 1344  27.511  31.440   1.197
29085W        W 1345  36.868  31.612  11.474
29086W        W 1346  35.883  39.150  11.111
29087W        W 1347   6.590   8.663   5.057
29088W        W 1348   1.262  32.445  12.067
29089W        W 1349  42.774  11.597  14.384
29090W        W 1350  28.519  20.604   1.994
29091W        W 1351  24.998  25.438   0.814
29092W        W 1352  18.860   8.218   5.459
29093W        W 1353   2.859  15.675  14.515
29094W        W 1354  12.246  32.333  10.503
29095W        W 1355  37.467  36.596  14.464
29096W        W 1356   5.972  17.086  12.860
29097W        W 1357  34.555  22.987   0.779
29098W        W 1358  42.913  41.672  11.210
29099W        W 1359  30.118  24.586  13.977
29100W        W 1360  31.074  28.276   0.966
29101W        W 1361  17.630  31.633  14.803
29102W        W 1362  31.220  27.974   3.320
29103W        W 1363   9.640  10.816  14.874
29104W        W 1364  30.211  40.579  13.080
29105W        W 1365  40.904  20.053  11.209
29106W        W 1366   4.751   5.473   3.331
29107W        W 1367  31.903  39.900   0.819
29108W        W 1368  26.651  44.877  10.965
29109W        W 1369  28.089  18.813   0.027
29110W        W 1370  26.992  39.937   1.749
29111W        W 1371  21.149   7.409  11.647
29112W        W 1372  14.341   6.174   2.392
29113W        W 1373   2.737  14.704  13.913
29114W        W 1374  28.952  20.273  10.584
29115W        W 1375  42.421   1.137  11.524
29116W        W 1376  34.120   4.842  13.493
29117W        W 1377   1.390  14.626   3.666
29118W        W 1378  20.464  20.582   3.250
29119W        W 1379  10.608  40.599  11.709
29120W        W 1380  29.964  22.679   3.556
29121W        W 1381   7.486  42.828  10.265
29122W        W 1382  25.758   6.651   0.396
29123W        W 1383   5.888   6.984  14.039
29124W        W 1384  22.704  18.335   1.246
29125W        W 1385   8.208  31.154   3.496
29126W        W 1386  15.268  13.145  11.377
29127W        W 1387  25.080  35.627  13.390
29128W        W 1388  16.178   7.314  14.526
29129W        W 1389  41.803  35.846   4.591
29130W        W 1390   5.234   5.881  10.925
29131W        W 1391  10.759  19.773   4.644
29132W        W 1392  28.739  31.838  14.969
29133W        W 1393   3.789   1.468  10.731
29134W        W 1394  38.572  42.029  12.491
29135W        W 1395  13.682   2.665  11.672
29136W        W 1396  30.047  43.895  12.060
29137W        W 1397  15.555   1.915   9.753
29138W        W 1398  44.725  19.602  13.790
29139W        W 1399  23.056  37.092   4.167
29140W        W 1400  13.236  36.626   2.885
29141W        W 1401  25.267  44.816  13.973
29142W        W 1402  29.880  23.560   4.949
29143W        W 1403  22.327   3.399  13.433
29144W        W 1404  17.249   9.389  13.463
29145W        W 1405  30.208  26.680  10.414
29146W        W 1406  38.222  34.517  13.861
29147W        W 1407  39.349  30.313  12.182
29148W        W 1408  18.128  43.535   3.702
29149W        W 1409  36.353  32.798  11.575
29150W        W 1410  41.442  26.090  14.415
29151W        W 1411  28.834  38.433  11.480
29152W        W 1412  24.007   6.110   1.320
29153W        W 1413  30.907   8.254  10.873
29154W        W 1414   7.232  28.101  11.638
29155W        W 1415  26.107  32.243  11.136
29156W        W 1416   7.595   7.997   2.795
29157W        W 1417   5.984  36.429   1.260
29158W        W 1418  27.969  43.695   1.783
29159W        W 1419  25.790  28.250   4.153
29160W        W 1420  12.570  20.608   3.031
29161W        W 1421  23.574   0.855   2.907
29162W        W 1422  16.792  25.739  14.963
29163W        W 1423   6.355  15.341  11.912
29164W        W 1424   6.205  35.431  13.478
29165W        W 1425   7.671  38.749  10.360
29166W        W 1426  44.490  38.731  11.403
29167W        W 1427  13.881  10.252   3.733
29168W        W 1428  10.626  13.801  10.595
29169W        W 1429  32.668  19.276  14.051
29170W        W 1430  13.118   4.705  13.919
29171W        W 1431  32.435  40.050  14.956
29172W        W 1432  28.484   7.329   2.332
29173W        W 1433  12.383  29.358  14.846
29174W        W 1434  38.892  18.177  14.716
29175W        W 1435  43.086  31.978  13.366
29176W        W 1436  26.231   8.323   1.707
29177W        W 1437  21.517   4.950  14.934
29178W        W 1438  39.905  44.653  12.396
29179W        W 1439   4.273  34.678  11.101
29180W        W 1440  25.147  27.448   3.148
29181W        W 1441  20.766  20.353  11.922
29182W        W 1442  39.497  26.923   2.113
29183W        W 1443  21.812  10.681   3.283
29184W        W 1444  28.617  25.533   0.369
29185W        W 1445   4.312  26.053  12.944
29186W        W 1446   1.358  32.713   1.767
29187W        W 1447  24.471  29.237  13.575
29188W        W 1448  30.486  26.075   1.886
29189W        W 1449  36.818  22.204  13.369
29190W        W 1450  38.140  23.617   4.155
29191W        W 1451  11.795   3.258   2.836
29192W        W 1452  14.667   3.724   1.626
29193W        W 1453   4.910  26.268  11.572
29194W        W 1454   0.282   9.910   4.718
29195W        W 1455  23.170   4.459  13.852
29196W        W 1456  34.691  21.113  10.597
29197W        W 1457  15.272  12.399   1.941
29198W        W 1458  27.201  28.817  13.939
29199W        W 1459  12.322   5.402   0.376
29200W        W 1460   3.461  18.865  11.600
29201W        W 1461  33.897  12.317   0.639
29202W        W 1462  11.497  40.284  12.890
29203W        W 1463  43.467   8.740   0.697
29204W        W 1464  25.505   9.678  12.331
29205W        W 1465   1.368  36.912  13.541
29206W        W 1466  23.074  24.477   0.973
29207W        W 1467  10.900  40.527   0.304
29208W        W 1468  21.587  29.614  13.745
29209W        W 1469  17.834  28.905   3.860
29210W        W 1470  32.977   1.739  13.920
29211W        W 1471  43.900  43.518   4.748
29212W        W 1472  27.031   1.510  14.842
29213W        W 1473  22.026  39.446  13.015
29214W        W 1474  25.960  32.316  12.020
29215W        W 1475   3.701  37.054  10.978
29216W        W 1476  37.058  25.815   3.794
29217W        W 1477  31.611  41.793   0.668
29218W        W 1478  27.607  23.750  11.665
29219W        W 1479   4.016  42.660   1.911
29220W        W 1480  25.240  29.991   4.516
29221W        W 1481  20.299  12.724   3.537
29222W        W 1482  17.185  28.917  13.347
29223W        W 1483  13.021  12.356  12.485
29224W        W 1484  42.934  14.508  11.709
29225W        W 1485  14.209  17.739   3.406
29226W        W 1486  32.022  18.655  13.988
29227W        W 1487  33.186  22.527   1.199
29228W        W 1488   3.293   8.143  11.166
29229W        W 1489  21.199  11.665   0.472
29230W        W 1490   7.468  14.604  13.448
29231W        W 1491  33.010  35.382   3.352
29232W        W 1492  21.826  30.405   0.317
29233W        W 1493  15.236  32.418   2.478
29234W        W 1494  36.045  22.157  11.975
29235W        W 1495  23.587  41.455  10.815
29236W        W 1496   7.722  42.793  10.728
29237W        W 1497  24.863   6.424   0.522
29238W        W 1498   8.819  15.840   0.370
29239W        W 1499  38.987  20.858   1.866
29240W        W 1500  18.720   3.766  10.691
29241W        W 1501  37.998  16.550   1.758
29242W        W 1502   4.855   9.334  12.298
29243W        W 1503  40.097  44.054  11.092
29244W        W 1504  19.497   8.976   3.023
29245W        W 1505  41.513  28.031  14.784
29246W        W 1506  18.047  32.686   3.660
29247W        W 1507  30.338  19.832   5.151
29248W        W 1508   0.501  19.556  11.837
29249W        W 1509  37.358  21.455  12.576
29250W        W 1510  28.107   0.787  12.908
29251W        W 1511  23.120  41.611  10.998
29252W        W 1512  18.288   8.949   1.193
29253W        W 1513  29.159  13.706  11.126
29254W        W 1514   8.156   7.893  12.123
29255W        W 1515   9.357  24.016   2.762
29256W        W 1516   9.829  22.340  13.501
29257W        W 1517  14.298  24.105  10.697
29258W        W 1518  29.633  44.433   9.973
29259W        W 1519  32.897   2.235   0.131
29260W        W 1520   3.762   5.897   1.870
29261W        W 1521  13.773  12.428   2.586
29262W        W 1522  24.265  16.641  13.057
29263W        W 1523  34.514  11.579  11.199
29264W        W 1524   5.351  27.366   2.428
29265W        W 1525  19.128  32.423   0.451
29266W        W 1526  42.697   9.232  10.601
29267W        W 1527  19.966   9.315  12.991
29268W        W 1528  14.962  28.710   3.728
29269W        W 1529  44.765  26.482   3.764
29270W        W 1530  36.482  20.360   2.854
29271W        W 1531   1.586  36.491  10.840
29272W        W 1532  27.258  16.057  12.616
29273W        W 1533  30.647  24.089  12.031
29274W        W 1534  33.455  34.367   1.174
29275W        W 1535  24.453  31.250   3.377
29276W        W 1536   0.396   1.412  13.385
29277W        W 1537  26.886  26.139   2.718
29278W        W 1538  38.038  37.773  12.975
29279W        W 1539  30.615  14.646  12.573
29280W        W 1540  19.609  33.548   1.460
29281W        W 1541  28.726  43.721  12.662
29282W        W 1542  41.366  23.858  12.822
29283W        W 1543  35.235   2.040  12.488
29284W        W 1544   4.342  41.740  14.106
29285W        W 1545   5.840  41.932   1.127
29286W        W 1546  10.553  31.251   4.933
29287W        W 1547   1.238  15.584  11.101
29288W        W 1548   4.385  27.690  12.854
29289W        W 1549  27.171   9.775   2.496
29290W        W 1550  15.798  42.482  11.146
29291W        W 1551  29.408  10.345  10.333
29292W        W 1552  19.184  34.095  12.817
29293W        W 1553  14.788  42.802   3.049
29294W        W 1554  35.740  27.699   0.861
29295W        W 1555  30.423  11.378  12.190
29296W        W 1556   0.296  43.870   3.812
29297W        W 1557  19.661  38.858  13.770
29298W        W 1558  18.692  24.072  14.237
29299W        W 1559  41.301  14.173   5.063
29300W        W 1560  33.538  39.066  11.492
29301W        W 1561  17.669  13.093   4.116
29302W        W 1562  10.916  29.158   2.836
29303W        W 1563  32.952  12.828   4.187
29304W        W 1564   4.507   5.218  11.558
29305W        W 1565   8.330   1.775   1.668
29306W        W 1566   2.468  32.465  12.647
29307W        W 1567  31.087  40.927   0.516
29308W        W 1568  13.267   8.551   4.033
29309W        W 1569   4.344  13.108   0.435
29310W        W 1570   7.382  37.347   3.229
29311W        W 1571  28.703  19.790  13.039
29312W        W 1572  23.531   6.710  10.671
29313W        W 1573  20.364  31.176  14.912
29314W        W 1574  12.954  38.521   3.640
29315W        W 1575  23.042  21.749   1.352
29316W        W 1576  31.404  15.538  14.264
29317W        W 1577  42.692  35.593   2.164
29318W        W 1578  40.002   3.731   0.256
29319W        W 1579   9.865  35.498  11.219
29320W        W 1580   5.661  42.425   1.303
29321W        W 1581  13.330   2.318   3.362
29322W        W 1582  11.612  10.071  10.852
29323W        W 1583  38.352   1.964   2.295
29324W        W 1584  21.036  12.059   1.313
29325W        W 1585  13.940  15.724  10.294
29326W        W 1586  12.684  15.217  14.176
29327W        W 1587  38.118  30.138   2.822
29328W        W 1588  25.007  14.083   2.619
29329W        W 1589   2.792  28.095  13.855
29330W        W 1590  39.508  17.826   0.407
29331W        W 1591  21.229  29.716   0.014
29332W        W 1592  31.545  15.336  13.515
29333W        W 1593  23.065   0.458  14.321
29334W        W 1594  27.869   8.894   2.798
29335W        W 1595   9.462  25.784  12.491
29336W        W 1596  15.125  17.279  11.545
29337W        W 1597  41.520  38.317   3.859
29338W        W 1598  14.834  21.434   2.804
29339W        W 1599   3.273  23.639   3.122
29340W        W 1600  31.096  10.283   3.655
29341W        W 1601  35.063  36.091  14.867
29342W        W 1602  24.565  17.285   1.501
29343W        W 1603   3.128  37.439  11.123
29344W        W 1604   2.969  40.803   0.221
29345W        W 1605  41.919  19.497  14.421
29346W        W 1606  39.336  28.581  13.659
29347W        W 1607  44.709   5.186  13.352
29348W        W 1608  30.444   8.613   4.604
29349W        W 1609  36.179   4.948  11.499
29350W        W 1610  40.478  40.775  12.499
29351W        W 1611  27.121  21.454   4.628
29352W        W 1612  40.821  28.536   4.134
29353W        W 1613  36.368  15.790  13.459
29354W        W 1614  36.495   3.617  11.401
29355W        W 1615  18.635  29.382   3.286
29356W        W 1616  23.203  17.767  11.767
29357W        W 1617  39.884  42.467   4.633
29358W        W 1618  29.934  37.988  12.123
29359W        W 1619  32.939  13.418  14.961
29360W        W 1620  44.983   6.674   9.933
29361W        W 1621  25.401  33.446   5.156
29362W        W 1622  15.125  35.088   1.786
29363W        W 1623  41.070   2.246   1.876
29364W        W 1624  44.314  34.914   3.171
29365W        W 1625  33.220   7.562  14.028
29366W        W 1626  25.050  41.275   0.206
29367W        W 1627   2.449   8.634  14.338
29368W        W 1628  44.755   7.687  14.931
29369W        W 1629  21.335  29.521   2.339
29370W        W 1630  35.087  31.016   4.229
29371W        W 1631  39.990  31.836  11.118
29372W        W 1632   5.428  20.206   0.421
29373W        W 1633  24.684  38.471   0.298
29374W        W 1634  25.536  38.206   4.267
29375W        W 1635  36.008  44.302   1.414
29376W        W 1636   8.623  12.775   1.975
29377W        W 1637  40.080  37.418   1.243
29378W        W 1638   9.341  31.148  13.494
29379W        W 1639   1.426   0.487   2.391
29380W        W 1640   1.925  44.016   0.972
29381W        W 1641  21.182  23.673  12.728
29382W        W 1642  27.230   7.905   4.609
29383W        W 1643   4.838  15.607   3.191
29384W        W 1644  34.616  36.192   3.212
29385W        W 1645  23.065  43.443  12.934
29386W        W 1646  21.218  27.990   3.315
29387W        W 1647  44.258  14.632  12.921
29388W        W 1648  27.843  27.671  13.899
29389W        W 1649  34.766  36.244   1.193
29390W        W 1650  25.292  13.721   4.664
29391W        W 1651  43.042  28.145  12.032
29392W        W 1652  37.996  20.558  11.569
29393W        W 1653  35.372  36.009   3.720
29394W        W 1654  41.130  15.829  11.131
29395W        W 1655   7.965  33.187   1.352
29396W        W 1656  25.244  33.955  13.301
29397W        W 1657  27.087  31.861  14.309
29398W        W 1658  40.114  42.345   2.393
29399W        W 1659  28.099  34.419   1.379
29400W        W 1660  13.841   1.339   2.635
29401W        W 1661  15.023  42.029   1.188
29402W        W 1662   3.073  27.206  13.404
29403W        W 1663  44.423  10.882  14.019
29404W        W 1664   5.771  38.910  13.307
29405W        W 1665  10.180  15.794  11.460
29406W        W 1666  16.536  26.302  11.709
29407W        W 1667  37.983  28.316  11.400
29408W        W 1668   2.269  34.574  13.040
29409W        W 1669  28.116  43.055   1.172
29410W        W 1670  42.272  27.764   0.354
29411W        W 1671   5.756   7.147   4.323
29412W        W 1672  26.067  39.425   5.405
29413W        W 1673  25.907   6.805  14.614
29414W        W 1674  19.534  27.634  11.659
29415W        W 1675  22.896   0.691  11.152
29416W        W 1676  44.954   3.978  11.214
29417W        W 1677  24.051  12.318  14.469
29418W        W 1678  38.891  38.518  13.542
29419W        W 1679  18.363   4.957   3.388
29420W        W 1680  36.838  43.763  13.992
29421W        W 1681   1.793  11.875  13.312
29422W        W 1682  44.785   3.937   1.406
29423W        W 1683  12.427   1.869   3.112
29424W        W 1684  17.224  25.389  10.495
29425W        W 1685  20.321  10.085  14.261
29426W        W 1686  24.606  38.623  11.139
29427W        W 1687  25.642   2.748  14.436
29428W        W 1688   0.519  35.075  10.622
29429W        W 1689  13.768  28.479  13.074
29430W        W 1690   1.728  36.976  10.930
29431W        W 1691  43.384  23.041  14.724
29432W        W 1692  36.830  23.213   0.938
29433W        W 1693  41.043  16.246   2.507
29434W        W 1694  13.080   2.346  14.764
29435W        W 1695  28.618  23.699   0.379
29436W        W 1696   2.646  24.165   0.913
29437W        W 1697  34.824  35.556  13.460
29438W        W 1698  25.684  16.424   3.387
29439W        W 1699   9.054  28.554   4.725
29440W        W 1700  13.347   2.865   3.598
29441W        W 1701   5.251  18.061  11.709
29442W        W 1702  33.458   7.889  13.678
29443W        W 1703  44.306  41.712  10.711
29444W        W 1704  17.697  31.151   2.553
29445W        W 1705  10.090  37.127  12.620
29446W        W 1706   0.877  25.113  12.941
29447W        W 1707  38.842  39.557  13.355
29448W        W 1708  17.730  43.936   2.253
29449W        W 1709  15.340  35.413   3.272
29450W        W 1710  27.824  37.407  12.551
29451W        W 1711  29.235  36.259   1.366
29452W        W 1712  38.855  17.698  11.416
29453W        W 1713  10.063   8.824  14.726
29454W        W 1714  10.574  43.219   0.777
29455W        W 1715  36.118   4.170   2.863
29456W        W 1716  39.313  40.843  12.994
29457W        W 1717   6.798  31.063  14.985
29458W        W 1718  11.372  18.640  11.505
29459W        W 1719  36.861  35.851  11.913
29460W        W 1720  26.635  24.282   0.436
29461W        W 1721   4.978  39.044   4.709
29462W        W 1722  43.515  35.827  11.229
29463W        W 1723  33.473  21.250  12.365
29464W        W 1724   2.493  36.207  13.194
29465W        W 1725  17.480   9.299  12.037
29466W        W 1726  25.912  41.476   9.720
29467W        W 1727  41.384  27.431   3.149
29468W        W 1728  16.367   7.637   0.404
29469W        W 1729  44.366  18.632  13.991
29470W        W 1730  17.795   7.960  11.011
29471W        W 1731  21.156  17.097   0.713
29472W        W 1732  21.151   7.688  13.829
29473W        W 1733  24.508  13.251  11.884
29474W        W 1734  35.976  14.062  14.457
29475W        W 1735  41.254  20.709  13.428
29476W        W 1736  39.885  30.570   3.874
29477W        W 1737  41.986  36.560  14.432
29478W        W 1738   7.190  22.045   4.659
29479W        W 1739  32.938  29.658   2.332
29480W        W 1740  23.255  36.857   4.653
29481W        W 1741  17.050  17.797   4.793
29482W        W 1742  18.296  11.724   1.690
29483W        W 1743  27.869  34.528  11.781
29484W        W 1744   0.790  17.645  13.793
29485W        W 1745   6.852   2.791  14.044
29486W        W 1746   9.738  34.458   4.691
29487W        W 1747   8.610  35.815   0.505
29488W        W 1748   6.890   8.515  14.743
29489W        W 1749  18.671  37.929  13.447
29490W        W 1750  33.704   4.836   3.814
29491W        W 1751   4.287  43.414   4.649
29492W        W 1752  16.544  16.137   3.626
29493W        W 1753   1.732  29.558   0.025
29494W        W 1754  16.993  28.972  11.911
29495W        W 1755   8.609  22.038   2.150
29496W        W 1756   3.301  38.999   1.828
29497W        W 1757  19.930   2.729   3.197
29498W        W 1758  16.118  22.715   3.171
29499W        W 1759   4.961  44.474   0.355
29500W        W 1760  27.212  17.787   1.669
29501W        W 1761  16.628  32.177  10.807
29502W        W 1762  37.475  41.046   3.547
29503W        W 1763  25.749   3.596   1.357
29504W        W 1764  16.230  13.695  11.530
29505W        W 1765  43.318  27.629   3.084
29506W        W 1766  33.500   9.599  13.510
29507W        W 1767  41.892  19.735  12.699
29508W        W 1768  37.124  38.555  10.644
29509W        W 1769  29.340  41.290   4.066
29510W        W 1770   0.908  16.762   0.202
29511W        W 1771   2.937  12.291   1.231
29512W        W 1772  19.711   2.610  12.305
29513W        W 1773  21.574  24.161  13.451
29514W        W 1774  44.942  35.440   2.769
29515W        W 1775  40.915  31.600   1.721
29516W        W 1776   9.214  18.492  13.966
29517W        W 1777  44.546  43.261   1.766
29518W        W 1778  25.778  32.368   2.860
29519W        W 1779  17.294  41.297  11.983
29520W        W 1780   2.445  42.434  11.536
29521W        W 1781  23.494   1.440   2.184
29522W        W 1782  32.188  34.642  12.538
29523W        W 1783  34.925  43.858   3.372
29524W        W 1784  12.121  27.310   4.268
29525W        W 1785  18.674  42.461   0.909
29526W        W 1786  26.510  16.653  13.077
29527W        W 1787  11.320  41.710  12.732
29528W        W 1788  43.263  42.280   4.066
29529W        W 1789   1.911  42.538  11.526
29530W        W 1790  27.836  13.367  13.893
29531W        W 1791  43.290  25.449   4.708
29532W        W 1792  30.380  17.069  14.443
29533W        W 1793  18.020   5.714  13.495
29534W        W 1794  36.843  37.519  10.610
29535W        W 1795  11.163  40.427  14.825
29536W        W 1796   9.593   1.754  14.914
29537W        W 1797  35.699   6.372   3.265
29538W        W 1798  24.264  33.942  11.241
29539W        W 1799  35.867  41.012   4.567
29540W        W 1800   2.318  21.802  10.646
29541W        W 1801   5.879  33.320  11.423
29542W        W 1802  19.349  29.471  13.370
29543W        W 1803  33.416   4.900  13.967
29544W        W 1804  26.458   7.654   1.740
29545W        W 1805  42.829  15.643  11.589
29546W        W 1806  42.944  34.072  10.537
29547W        W 1807  29.415  24.420  12.005
29548W        W 1808  22.399   2.497   3.729
29549W        W 1809   4.467  39.895   4.098
29550W        W 1810   6.164   9.405  13.975
29551W        W 1811  40.377  43.827  12.514
29552W        W 1812  42.058  34.163  13.385
29553W        W 1813  39.799  15.701   0.334
29554W        W 1814  25.246  24.476   2.784
29555W        W 1815  14.372  43.449  14.251
29556W        W 1816  41.763  12.953  14.786
29557W        W 1817   8.770   4.661   1.307
29558W        W 1818  31.385  44.749  12.404
29559W        W 1819  27.319  39.592   5.628
29560W        W 1820  32.718   0.492  10.886
29561W        W 1821   3.267  43.896  12.937
29562W        W 1822  15.845  11.667   2.750
29563W        W 1823  41.362  18.830  10.716
29564W        W 1824  14.796  12.695   2.486
29565W        W 1825  33.829  23.518   2.766
29566W        W 1826  20.238   7.848   1.387
29567W        W 1827  10.303   2.831  11.139
29568W        W 1828  17.113  36.088  11.542
29569W        W 1829  26.219  29.060   4.646
29570W        W 1830   8.221  12.054  10.722
29571W        W 1831  25.547  13.032  11.114
29572W        W 1832  41.826  23.017  14.434
29573W        W 1833  30.571   4.992   0.501
29574W        W 1834  36.105   6.236  11.980
29575W        W 1835   6.701  28.238   4.159
29576W        W 1836   5.159  11.804   3.210
29577W        W 1837  27.502  30.898   2.768
29578W        W 1838  17.070  23.732   2.870
29579W        W 1839  22.128  26.498  12.812
29580W        W 1840  24.174  14.534  11.446
29581W        W 1841   2.457  14.132   3.097
29582W        W 1842  33.561  35.513  12.643
29583W        W 1843  20.516   0.536   2.811
29584W        W 1844  39.391  11.704  13.987
29585W        W 1845   6.724   7.745  14.240
29586W        W 1846  27.533   1.495   2.467
29587W        W 1847   1.337  18.967   3.500
29588W        W 1848  36.378  12.855   1.584
29589W        W 1849  13.136   3.523  11.943
29590W        W 1850  22.267   9.646   3.159
29591W        W 1851  30.927   8.357   2.783
29592W        W 1852  21.697  17.723   0.267
29593W        W 1853  40.387  36.086  14.217
29594W        W 1854   2.403  29.481  12.968
29595W        W 1855   6.137   8.810   2.550
29596W        W 1856  22.300  15.844  14.385
29597W        W 1857  10.334   2.334  14.368
29598W        W 1858  11.700   8.751  13.463
29599W        W 1859  39.275  20.994  11.988
29600W        W 1860  17.587  32.055  12.777
29601W        W 1861  29.995   1.348   3.111
29602W        W 1862  41.951  29.872   4.835
29603W        W 1863  28.993  41.890   2.478
29604W        W 1864  39.647  41.941  14.888
29605W        W 1865  14.737  11.583  10.863
29606W        W 1866  37.804  25.192  10.726
29607W        W 1867  34.413  15.387  14.832
29608W        W 1868   2.692  12.570  11.604
29609W        W 1869  43.218  31.561  13.908
29610W        W 1870   6.689  42.664   4.111
29611W        W 1871  15.293  31.453  13.409
29612W        W 1872  19.992  36.099  13.268
29613W        W 1873   7.253   2.735  12.040
29614W        W 1874  14.114  38.984  11.848
29615W        W 1875  11.227  33.369  13.984
29616W        W 1876  30.161  39.410  10.819
29617W        W 1877  19.212   3.761   1.875
29618W        W 1878  19.200  17.528  12.542
29619W        W 1879  26.992  34.929  11.866
29620W        W 1880  22.746   0.881   5.037
29621W        W 1881  33.848   0.334   0.321
29622W        W 1882  32.361  30.652   4.396
29623W        W 1883  11.561  17.763  13.078
29624W        W 1884  22.182  20.083   1.847
29625W        W 1885  23.422  18.229  10.460
29626W        W 1886  34.834  27.162  11.005
29627W        W 1887  31.897  18.632   1.281
29628W        W 1888  22.798  12.809  14.372
29629W        W 1889  24.631   5.168  13.827
29630W        W 1890   1.310  11.923   4.360
29631W        W 1891  12.771   4.073   1.732
29632W        W 1892   9.903  14.373   2.873
29633W        W 1893  31.613  41.018  14.534
29634W        W 1894  18.126  42.718  12.678
29635W        W 1895  14.150   0.644  14.329
29636W        W 1896  36.860  31.861   1.751
29637W        W 1897  29.556  16.851   1.141
29638W        W 1898   9.841  43.074   2.400
29639W        W 1899  18.823  31.748  11.502
29640W        W 1900  15.634  29.222   4.298
29641W        W 1901  35.283  19.150  12.366
29642W        W 1902  14.105  20.513  12.006
29643W        W 1903   5.716  31.293   4.690
29644W        W 1904  16.195  13.364  13.859
29645W        W 1905  35.511  10.520   3.529
29646W        W 1906  34.811  18.090  13.848
29647W        W 1907  39.735  21.029   0.266
29648W        W 1908  12.666  20.258  13.547
29649W        W 1909  25.285  43.452   1.170
29650W        W 1910   5.456  24.713   2.753
29651W        W 1911  42.912  18.219  14.198
29652W        W 1912  31.895  19.152   0.055
29653W        W 1913  16.130  24.155   4.782
29654W        W 1914  12.613  26.004  14.706
29655W        W 1915  40.243   2.702  11.021
29656W        W 1916  24.958  24.183   3.172
29657W        W 1917   7.212  14.632  12.990
29658W        W 1918  22.577  28.859  11.059
29659W        W 1919  36.095  37.960  12.876
29660W        W 1920  12.514  29.172  11.165
29661W        W 1921  18.435  38.132  12.507
29662W        W 1922  29.021  40.068   1.516
29663W        W 1923  34.482  16.181  11.659
29664W        W 1924  42.837   1.436  11.660
29665W        W 1925   9.588   7.967  14.940
29666W        W 1926  36.408  15.647   4.497
29667W        W 1927  36.503  26.722   1.697
29668W        W 1928  14.716  20.286  11.577
29669W        W 1929  17.752  10.664  14.959
29670W        W 1930  25.485   3.269   1.651
29671W        W 1931  44.592   9.999  14.959
29672W        W 1932  43.288  31.892   2.287
29673W        W 1933  38.803  36.645  13.013
29674W        W 1934   5.019  20.499   1.499
29675W        W 1935  29.430   6.787  14.045
29676W        W 1936  34.149  16.292   3.288
29677W        W 1937   0.343  36.485  14.624
29678W        W 1938   8.058  28.620   2.627
29679W        W 1939  11.659  23.252  14.559
29680W        W 1940  14.112  37.453  14.420
29681W        W 1941  39.542  12.870  11.729
29682W        W 1942   6.145  42.415   1.743
29683W        W 1943  35.673  31.536   3.463
29684W        W 1944   7.381  17.340   3.278
29685W        W 1945  18.269  39.142  14.006
29686W        W 1946  32.355  31.578  10.471
29687W        W 1947  15.842   2.382  11.173
29688W        W 1948  38.483  24.731  12.139
29689W        W 1949  17.062  42.239   1.833
29690W        W 1950   1.403  30.275   1.260
29691W        W 1951  35.072  38.441  10.654
29692W        W 1952  32.886  12.808   2.246
29693W        W 1953   5.225   2.465   2.334
29694W        W 1954  43.752  23.606  12.815
29695W        W 1955   8.187   6.826   4.566
29696W        W 1956   2.420  21.194   3.155
29697W        W 1957  23.747  13.052  13.996
29698W        W 1958   3.838   9.315   2.153
29699W        W 1959  30.056   8.994  14.959
29700W        W 1960  14.077   0.777   4.694
29701W        W 1961  23.068  34.910   4.236
29702W        W 1962  35.859  22.636  11.087
29703W        W 1963  43.442  31.129   1.727
29704W        W 1964  25.952   9.611  10.864
29705W        W 1965  26.700  20.126   0.772
29706W        W 1966   0.978  15.986   5.009
29707W        W 1967  26.331   6.896   3.311
29708W        W 1968   0.264  43.693  13.851
29709W        W 1969  20.281  39.170   0.060
29710W        W 1970  33.773  38.353  14.544
29711W        W 1971  20.576  42.246  12.482
29712W        W 1972  23.571  10.902  13.388
29713W        W 1973   4.299  13.460  14.467
29714W        W 1974  15.745   3.809   3.841
29715W        W 1975  32.018  14.936   1.426
29716W        W 1976  38.912  35.945  14.462
29717W        W 1977   2.085  36.604   1.194
29718W        W 1978  23.128  25.635  14.547
29719W        W 1979  24.365  26.151  14.691
29720W        W 1980  33.963   9.730   3.252
29721W        W 1981   2.005  33.100   0.187
29722W        W 1982  36.835  28.047  10.711
29723W        W 1983  24.020  25.727   3.774
29724W        W 1984  37.364  37.786  11.637
29725W        W 1985  24.417  34.178   3.304
29726W        W 1986  28.048   6.341   4.159
29727W        W 1987  12.170  33.224  13.134
29728W        W 1988  29.845  41.257   4.113
29729W        W 1989  42.781  19.626   4.697
29730W        W 1990  39.918  35.043  13.424
29731W        W 1991  18.356  16.312   2.076
29732W        W 1992  25.724  24.975   0.844
29733W        W 1993  18.401  40.892  12.440
29734W        W 1994  41.908   4.616  13.817
29735W        W 1995   8.613   1.372  12.172
29736W        W 1996  21.696  33.512  13.633
29737W        W 1997  36.993  11.465  12.584
29738W        W 1998  42.387  27.232  12.937
29739W        W 1999  31.059  15.679   1.962
29740W        W 2000  36.733   8.079  13.395
29741W        W 2001  15.836  41.376  14.441
29742W        W 2002  40.916  18.825   1.705
29743W        W 2003  30.963   4.294  11.711
29744W        W 2004  22.531  32.062   3.239
29745W        W 2005   8.724  24.365   3.779
29746W        W 2006   9.382   8.531   0.276
29747W        W 2007   0.776  23.667  10.271
29748W        W 2008  12.139  19.819   1.831
29749W        W 2009  37.387   3.882   4.344
29750W        W 2010  34.505  11.010   3.193
29751W        W 2011   1.360  19.121   0.450
29752W        W 2012  33.104  29.654   3.227
29753W        W 2013   3.837  10.829   1.218
29754W        W 2014  25.517  22.439   0.256
29755W        W 2015  37.000  36.200   2.471
29756W        W 2016  32.515  25.991  14.884
29757W        W 2017  33.194  36.946  11.961
29758W        W 2018   8.597  33.709   0.787
29759W        W 2019  28.700  42.535   0.773
29760W        W 2020  38.568  27.416   0.780
29761W        W 2021   9.191  15.832   1.109
29762W        W 2022  13.681   5.973  12.899
29763W        W 2023  31.971  14.676  14.509
29764W        W 2024  13.618  24.168   2.208
29765W        W 2025  25.477   6.854   1.781
29766W        W 2026   8.060  29.493  11.129
29767W        W 2027   6.288  29.066  12.995
29768W        W 2028   1.198  14.822   1.959
29769W        W 2029  15.227  21.753   2.741
29770W        W 2030  37.368   4.766   1.608
29771W        W 2031  17.381  33.119   4.147
29772W        W 2032  35.123   7.663   3.259
29773W        W 2033  26.667  31.134  11.496
29774W        W 2034  31.022  28.730   0.723
29775W        W 2035  39.032  33.326  13.775
29776W        W 2036  40.304  17.791  11.084
29777W        W 2037  39.430  12.559  12.119
29778W        W 2038   6.796   5.073  12.149
29779W        W 2039  20.783  32.416   4.214
29780W        W 2040  36.122  42.925  11.164
29781W        W 2041  29.868  33.442   1.732
29782W        W 2042  15.623  25.075  14.703
29783W        W 2043  16.538  16.083  11.055
29784W        W 2044  24.696  25.597   0.398
29785W        W 2045  42.868  32.993  10.631
29786W        W 2046   4.333   9.128   1.356
29787W        W 2047   4.285  24.698   1.123
29788W        W 2048  38.015  23.502   1.629
29789W        W 2049  18.312  24.511   3.324
29790W        W 2050  13.519  19.338  12.395
29791W        W 2051  44.849  43.559  12.576
29792W        W 2052  30.533  37.387   4.514
29793W        W 2053  17.076  34.432  10.391
29794W        W 2054  39.568  25.679  13.025
29795W        W 2055  19.302  25.569   0.880
29796W        W 2056  39.305  10.873   1.207
29797W        W 2057  14.382  35.533  11.056
29798W        W 2058   3.799   2.914  13.628
29799W        W 2059  36.191  13.082   0.563
29800W        W 2060   4.621  28.898   2.167
29801W        W 2061  11.134  39.510   3.301
29802W        W 2062  40.044  43.857   2.363
29803W        W 2063  20.660  30.091   0.781
29804W        W 2064  20.973  15.735  12.598
29805W        W 2065  33.857   1.693   2.999
29806W        W 2066  33.309   0.412  14.391
29807W        W 2067  11.593  34.430  14.892
29808W        W 2068  22.011  32.493  12.120
29809W        W 2069  22.087   4.270   3.242
29810W        W 2070   3.548  42.563   2.321
29811W        W 2071  31.652   3.655  12.101
29812W        W 2072   0.300  32.109   2.205
29813W        W 2073  35.625  24.114   0.828
29814W        W 2074  18.167   7.000   1.791
29815W        W 2075  17.967  10.730   4.631
29816W        W 2076  26.191  38.577   1.782
29817W        W 2077  29.229   3.740   2.389
29818W        W 2078  12.709   8.873   0.034
29819W        W 2079  30.077  18.813   1.460
29820W        W 2080   8.236  14.165   4.417
29821W        W 2081  39.791  26.216  11.992
29822W        W 2082   4.473   1.569   0.917
29823W        W 2083   7.202  40.111   4.578
29824W        W 2084  10.578  11.270   1.249
29825W        W 2085  27.207  32.289  14.566
29826W        W 2086   8.354  40.884   1.637
29827W        W 2087  29.007  33.695   2.599
29828W        W 2088  40.945  32.097  10.694
29829W        W 2089   6.005   5.109  14.696
29830W        W 2090  15.553  41.704   3.195
29831W        W 2091  27.121   6.000   0.725
29832W        W 2092  12.220   2.361  14.121
29833W        W 2093  20.618   5.682   0.060
29834W        W 2094  11.387   6.431   3.623
29835W        W 2095  26.746  12.401   1.766
29836W        W 2096  36.354  14.794   0.485
29837W        W 2097   7.796  14.841  14.008
29838W        W 2098  33.167   6.330   3.200
29839W        W 2099  13.327  41.353  12.440
29840W        W 2100   6.171  26.212  10.225
29841W        W 2101  11.221   5.566  12.930
29842W        W 2102  37.529  38.327   0.750
29843W        W 2103  26.659  41.128  10.161
29844W        W 2104  40.780  25.693  12.198
29845W        W 2105  41.560  17.065   2.160
29846W        W 2106  35.491  25.253   2.778
29847W        W 2107  15.200  34.913   3.145
29848W        W 2108   8.184  35.085  13.659
29849W        W 2109  39.417  37.915  13.151
29850W        W 2110  10.773  27.781   1.126
29851W        W 2111  30.456   0.902   3.526
29852W        W 2112  43.552  31.119  13.052
29853W        W 2113  31.883  38.952  10.981
29854W        W 2114  22.495   1.481   3.582
29855W        W 2115  24.017  13.470   2.892
29856W        W 2116  33.843   7.173   4.801
29857W        W 2117  26.933  24.259   3.102
29858W        W 2118  27.388  31.563  11.543
29859W        W 2119  28.417  29.058  12.567
29860W        W 2120  19.538  16.729  10.505
29861W        W 2121  13.049  13.692   0.075
29862W        W 2122  14.269  41.093   0.797
29863W        W 2123  38.108  20.293   1.717
29864W        W 2124  29.091   9.676  10.983
29865W        W 2125  38.870  42.879   0.448
29866W        W 2126  17.779   6.930   2.264
29867W        W 2127  44.856  28.104   1.465
29868W        W 2128   2.963  42.301   1.241
29869W        W 2129  10.521  37.905  14.800
29870W        W 2130  15.757  28.957   2.783
29871W        W 2131  38.424  22.417   4.152
29872W        W 2132  12.377  19.239   4.348
29873W        W 2133  36.552  33.875   3.629
29874W        W 2134  19.788   7.919   2.171
29875W        W 2135   8.734  12.577  12.578
29876W        W 2136  37.389  13.577   2.863
29877W        W 2137   8.676   8.646  12.132
29878W        W 2138  23.974  27.127  11.484
29879W        W 2139  25.465  25.264  12.754
29880W        W 2140  29.304  37.503  12.734
29881W        W 2141  35.988  33.349   4.252
29882W        W 2142   2.726   1.203   1.680
29883W        W 2143  26.721  41.358   5.533
29884W        W 2144  26.046  40.369   2.589
29885W        W 2145  19.659   3.248   1.177
29886W        W 2146  20.827  24.345  11.131
29887W        W 2147  15.575  13.999   5.088
29888W        W 2148  43.029   2.076   4.883
29889W        W 2149  37.452  16.262   1.909
29890W        W 2150  10.824  29.578   2.150
29891W        W 2151  41.807   1.454   3.825
29892W        W 2152  29.407  17.043   1.985
29893W        W 2153  23.296  42.517  14.348
29894W        W 2154  32.129  41.046  14.601
29895W        W 2155  20.686  10.634   2.408
29896W        W 2156  32.084  34.762   2.930
29897W        W 2157  27.949  16.160  10.739
29898W        W 2158  13.362  25.647  12.164
29899W        W 2159  23.076  26.173   0.930
29900W        W 2160  17.017  36.035  11.030
29901W        W 2161  28.373  44.384   2.633
29902W        W 2162  40.211  40.029  13.664
29903W        W 2163  24.008  15.755   4.534
29904W        W 2164  39.202  30.495  14.927
29905W        W 2165  25.637  32.667  13.551
29906W        W 2166   6.837  16.320  10.392
29907W        W 2167  43.051  17.747   1.370
29908W        W 2168  36.061  41.459   3.230
29909W        W 2169   5.934  43.860  13.539
29910W        W 2170  31.052  37.828   0.860
29911W        W 2171   3.336  38.377  13.869
29912W        W 2172  15.044   1.096  10.244
29913W        W 2173   5.130   4.742  12.926
29914W        W 2174  33.110  12.346  14.918
29915W        W 2175  27.174  22.238   4.208
29916W        W 2176   8.195  40.501   0.907
29917W        W 2177  35.896  41.282  10.602
29918W        W 2178   2.111  26.262  14.521
29919W        W 2179  12.286  40.324  11.581
29920W        W 2180  26.512  42.414   3.400
29921W        W 2181  41.901  18.711   2.093
29922W        W 2182  20.289  22.424   0.781
29923W        W 2183  15.344  11.462  10.375
29924W        W 2184   9.296   9.211   4.451
29925W        W 2185   2.258  13.596  13.645
29926W        W 2186  18.008  29.082  10.456
29927W        W 2187  19.137  27.663  14.367
29928W        W 2188   8.176  44.918   1.320
29929W        W 2189  26.708  39.313   2.795
29930W        W 2190  12.912  25.617   4.566
29931W        W 2191  18.640   3.937  12.062
29932W        W 2192  29.515  20.212  10.694
29933W        W 2193  10.688  30.893   0.834
29934W        W 2194  30.924  28.193   3.715
29935W        W 2195   1.895  26.252   1.400
29936W        W 2196  32.476  15.249  12.177
29937W        W 2197  37.759   9.228  11.129
29938W        W 2198  20.045  37.885   4.577
29939W        W 2199   1.351  37.653  12.373
29940W        W 2200   7.909  22.939   2.352
29941W        W 2201  15.866  14.615   5.452
29942W        W 2202  22.776  21.471  10.600
29943W        W 2203  43.442  31.834   3.291
29944W        W 2204  13.318  18.853  12.455
29945W        W 2205  30.082  19.699  10.407
29946W        W 2206  37.666  33.506   1.788
29947W        W 2207  22.770  30.353  12.933
29948W        W 2208  33.158  19.172  10.612
29949W        W 2209  27.014   8.072  13.483
29950W        W 2210  30.451   8.389   2.951
29951W        W 2211  33.604  32.000  14.034
29952W        W 2212  40.784  30.062  10.591
29953W        W 2213  28.629  35.929  10.359
29954W        W 2214  25.484  19.197   3.286
29955W        W 2215   4.867  31.445   2.229
29956W        W 2216  15.525   4.941   0.852
29957W        W 2217   6.759  13.271   0.710
29958W        W 2218  34.493  21.013   5.102
29959W        W 2219  42.367  42.675  11.585
29960W        W 2220   2.519  34.419   3.297
29961W        W 2221  21.165  18.032  11.971
29962W        W 2222  44.397  35.921   4.653
29963W        W 2223   4.993  20.735   4.268
29964W        W 2224  25.231   9.183   3.826
29965W        W 2225  15.071  29.367  13.861
29966W        W 2226  29.963  42.831   0.406
29967W        W 2227  34.388   8.833  13.977
29968W        W 2228  18.826  38.754  11.619
29969W        W 2229  11.387  37.422   1.230
29970W        W 2230  11.111  26.860   4.232
29971W        W 2231  22.453  31.645  14.538
29972W        W 2232  32.427  30.209   0.986
29973W        W 2233  20.243  15.493  13.031
29974W        W 2234  15.294  38.096   0.275
29975W        W 2235  16.815  39.982  12.475
29976W        W 2236   5.003   9.677  11.546
29977W        W 2237   1.770   1.486  11.566
29978W        W 2238  21.213  13.979   2.409
29979W        W 2239  34.305  27.760  14.918
29980W        W 2240  27.439   7.491   4.147
29981W        W 2241  17.386  38.450  12.586
29982W        W 2242  18.242  42.021   2.141
29983W        W 2243  42.562  24.775  11.102
29984W        W 2244  11.955   0.722  13.060
29985W        W 2245  41.309  32.611   1.876
29986W        W 2246  15.352   2.263   2.477
29987W        W 2247  14.030   6.149   2.814
29988W        W 2248  39.014  30.122  14.182
29989W        W 2249   0.426   3.795   4.624
29990W        W 2250  25.004  21.483  10.970
29991W        W 2251  34.077  13.958  11.104
29992W        W 2252  14.293   2.207   1.624
29993W        W 2253   6.423  18.386  13.028
29994W        W 2254   6.155  14.768   4.070
29995W        W 2255  33.563  36.819  10.786
29996W        W 2256   5.431   8.243  14.983
29997W        W 2257   3.935   9.867   0.029
29998W        W 2258  10.116  30.557  11.490
29999W        W 2259  31.739  12.566   4.690
30000W        W 2260  13.279   0.366   1.237
30001W        W 2261  40.938  42.964  10.167
30002W        W 2262   2.262   6.053   3.806
30003W        W 2263  29.542  18.065  12.611
30004W        W 2264  30.300  16.867  14.962
30005W        W 2265  42.417  25.782   2.672
30006W        W 2266  17.304  34.471   2.928
30007W        W 2267  31.398   2.559  14.894
30008W        W 2268  18.023  14.220  11.552
30009W        W 2269  13.304  24.463  14.400
30010W        W 2270   2.813  38.003  12.854
30011W        W 2271  34.905  31.607  14.619
30012W        W 2272  18.203  14.252  13.826
30013W        W 2273  29.312   8.065   2.344
30014W        W 2274  38.490   1.937   3.911
30015W        W 2275  16.717  27.011   0.279
30016W        W 2276  19.662  41.643  13.997
30017W        W 2277  15.849   9.181  14.385
30018W        W 2278   7.961  17.568  12.155
30019W        W 2279  31.974  31.386   3.642
30020W        W 2280  33.516  27.329   0.420
30021W        W 2281  41.072  24.000  12.423
30022W        W 2282  17.870  22.236   1.732
30023W        W 2283   2.883  38.609   2.711
30024W        W 2284  40.705  42.849   4.179
30025W        W 2285  22.634  15.132  14.802
30026W        W 2286   3.652  40.573   4.096
30027W        W 2287  19.763   3.706  14.804
30028W        W 2288  13.591  19.805  11.018
30029W        W 2289   1.099  32.115  14.196
30030W        W 2290  15.183  20.094   2.455
30031W        W 2291  38.097   8.830  13.471
30032W        W 2292   3.485  31.653  14.424
30033W        W 2293   4.686  25.789   1.832
30034W        W 2294  40.375  33.505   0.078
30035W        W 2295  27.019  39.655  14.005
30036W        W 2296  44.153  12.928  13.432
30037W        W 2297  26.242   2.732   1.202
30038W        W 2298   9.628  32.479   4.666
30039W        W 2299  44.254  31.752  13.810
30040W        W 2300  20.292  31.552   2.366
30041W        W 2301  38.829   3.910  11.562
30042W        W 2302  35.985   6.199  12.991
30043W        W 2303  17.286  17.865   2.928
30044W        W 2304  27.617  11.549  14.032
30045W        W 2305   5.760  32.557   3.317
30046W        W 2306  32.566  12.832   1.270
30047W        W 2307  10.898  16.464   4.013
30048W        W 2308  44.009  30.147  13.053
30049W        W 2309  19.007  35.105   0.297
30050W        W 2310  29.945  40.605  12.135
30051W        W 2311  29.877  13.077   1.278
30052W        W 2312  39.950  41.950   4.586
30053W        W 2313   4.897  19.644  10.733
30054W        W 2314  11.263  17.718  11.549
30055W        W 2315  14.724  36.573  13.032
30056W        W 2316  22.031  30.130   2.848
30057W        W 2317  16.625  11.635  12.208
30058W        W 2318  17.857   1.208   2.370
30059W        W 2319  11.990  27.706  13.589
30060W        W 2320  39.812  19.123   0.747
30061W        W 2321   1.505  24.110  12.123
30062W        W 2322   6.832  30.649  11.158
30063W        W 2323  10.435   7.444  12.376
30064W        W 2324   1.362  28.957   2.285
30065W        W 2325  10.902  25.163   0.422
30066W        W 2326  36.601  11.318   0.812
30067W        W 2327  18.978  36.788  13.141
30068W        W 2328  26.872  37.527  10.574
30069W        W 2329   5.319  38.731  10.269
30070W        W 2330  12.645   7.830  13.340
30071W        W 2331  43.518  38.966  12.041
30072W        W 2332  22.571  43.858   1.318
30073W        W 2333  14.789  26.894   1.226
30074W        W 2334  44.582  29.917   2.343
30075W        W 2335  23.838  42.434  13.574
30076W        W 2336   2.546  31.116   1.382
30077W        W 2337  18.762  41.763   4.869
30078W        W 2338  35.345  38.912   1.743
30079W        W 2339   1.514   2.385   2.383
30080W        W 2340  19.121  22.698  14.428
30081W        W 2341  35.045  17.261  14.503
30082W        W 2342  27.926  25.748   3.691
30083W        W 2343  39.518  16.741   0.789
30084W        W 2344  41.345  39.314  12.071
30085W        W 2345  33.436  32.899   3.507
30086W        W 2346   5.032  42.985   3.258
30087W        W 2347  27.059  10.254  10.919
30088W        W 2348  31.217  42.886  12.541
30089W        W 2349  42.754   0.827  12.819
30090W        W 2350   7.265  20.376  11.646
30091W        W 2351  35.182  25.568   0.814
30092W        W 2352  26.614  11.793   2.191
30093W        W 2353  37.489  25.225   4.570
30094W        W 2354  16.621  11.166   2.817
30095W        W 2355  41.337  20.009  13.899
30096W        W 2356  43.690  15.702   0.265
30097W        W 2357   3.983  10.769   2.295
30098W        W 2358  27.816   3.449   4.907
30099W        W 2359   0.016   5.309  13.772
30100W        W 2360   7.899  20.693   4.292
30101W        W 2361  27.524   3.181  13.967
30102W        W 2362  44.782  41.413   2.252
30103W        W 2363  40.084   3.452   0.985
30104W        W 2364  28.007  37.789  11.160
30105W        W 2365   3.362  29.017  13.790
30106W        W 2366  10.530   2.522   0.285
30107W        W 2367  37.821   1.866   1.157
30108W        W 2368  12.042  17.240   3.712
30109W        W 2369   1.369  12.962   1.339
30110W        W 2370  13.402   6.164  14.752
30111W        W 2371  19.529  24.434   3.932
30112W        W 2372  26.211   3.968   4.614
30113W        W 2373  38.575  38.471   2.678
30114W        W 2374   5.427   9.312   4.802
30115W        W 2375   8.859  20.477   3.825
30116W        W 2376  38.072  26.527  11.491
30117W        W 2377   9.161  43.473  12.880
30118W        W 2378   2.715  14.223   0.783
30119W        W 2379  30.622   0.832  14.526
30120W        W 2380  27.686  32.542  10.630
30121W        W 2381   8.869  19.634  13.360
30122W        W 2382  22.132  14.711   3.638
30123W        W 2383  20.989  38.391   0.878
30124W        W 2384  25.515  13.675  11.855
30125W        W 2385   3.353  34.287   3.245
30126W        W 2386  17.195   0.483   1.928
30127W        W 2387  41.842  41.048  11.340
30128W        W 2388  43.916   3.263   3.653
30129W        W 2389   5.276   5.974   4.681
30130W        W 2390  26.707   9.815   2.738
30131W        W 2391  37.319  18.037   0.838
30132W        W 2392  22.529   8.603   0.477
30133W        W 2393   7.545  19.545  13.016
30134W        W 2394  36.045  32.643  12.025
30135W        W 2395  37.056  44.219  12.475
30136W        W 2396   8.293  15.400   2.342
30137W        W 2397   7.932   0.509   3.849
30138W        W 2398   1.257   3.994   3.994
30139W        W 2399   5.887  32.439  14.914
30140W        W 2400  35.644   8.326   1.782
30141W        W 2401  17.886  21.925   0.381
30142W        W 2402   4.264  34.359   0.356
30143W        W 2403   4.205   0.038  13.037
30144W        W 2404  10.401  31.543  12.500
30145W        W 2405  36.932   8.409   3.395
30146W        W 2406  33.502  29.026   4.567
30147W        W 2407  20.527  42.026   4.807
30148W        W 2408  27.576   6.762   0.564
30149W        W 2409  39.576   8.355  10.653
30150W        W 2410  25.630   1.302   0.472
30151W        W 2411   9.119  42.445   2.970
30152W        W 2412  15.778  22.511  12.007
30153W        W 2413  42.968  29.918  12.417
30154W        W 2414   5.054  12.170   4.515
30155W        W 2415  35.698   2.858  14.870
30156W        W 2416  30.018   0.888  10.607
30157W        W 2417   7.526  10.110  14.788
30158W        W 2418  37.389   0.372   4.652
30159W        W 2419  15.644  33.842   4.151
30160W        W 2420  18.859  31.651  13.072
30161W        W 2421  38.392  28.535  13.661
30162W        W 2422  24.794  28.553   2.377
30163W        W 2423   5.120  36.048   2.774
30164W        W 2424  27.047  23.368  12.419
30165W        W 2425  26.064   1.391   2.168
30166W        W 2426  22.747  10.941  11.874
30167W        W 2427  27.067  19.597  11.946
30168W        W 2428   1.901  22.538  11.718
30169W        W 2429   0.336  13.233   4.626
30170W        W 2430  13.589  32.196   1.037
30171W        W 2431  22.601  17.510   3.286
30172W        W 2432  16.586  19.326   1.460
30173W        W 2433  10.679  16.229  10.719
30174W        W 2434  39.571   3.444   1.143
30175W        W 2435  33.668   0.787   3.332
30176W        W 2436   4.410  25.148   2.376
30177W        W 2437  22.271  27.998  13.483
30178W        W 2438   8.655  40.910  14.744
30179W        W 2439  12.552   9.901   1.237
30180W        W 2440  28.157  13.071  12.559
30181W        W 2441  35.809  34.633   2.748
30182W        W 2442  42.996  15.471   4.224
30183W        W 2443   1.833   3.672  13.882
30184W        W 2444  24.437  15.086  11.860
30185W        W 2445  36.174  22.499  12.885
30186W        W 2446  43.285   0.316   3.422
30187W        W 2447   9.926  41.238   2.874
30188W        W 2448  27.900  19.721   1.768
30189W        W 2449  25.302   1.333  12.540
30190W        W 2450  20.717   6.362   2.370
30191W        W 2451  11.051  40.326  11.654
30192W        W 2452  23.351  34.869  11.512
30193W        W 2453   0.614   5.960   0.853
30194W        W 2454   4.997   2.316  14.882
30195W        W 2455  31.970  14.893   0.913
30196W        W 2456  24.953  17.604  11.014
30197W        W 2457  20.502  24.015  14.353
30198W        W 2458   7.639  41.528   1.179
30199W        W 2459   1.940  18.940  10.836
30200W        W 2460  13.842  26.302  14.352
30201W        W 2461  22.063  34.900  13.979
30202W        W 2462  14.152   6.881   0.525
30203W        W 2463  12.326  17.601   3.425
30204W        W 2464   7.038  39.839  10.708
30205W        W 2465  18.738   3.771  13.749
30206W        W 2466  42.787  10.249   2.260
30207W        W 2467  32.842  13.682   2.566
30208W        W 2468  33.699  28.758   1.230
30209W        W 2469  26.483  17.336   3.740
30210W        W 2470  14.650  23.984   3.867
30211W        W 2471  25.683  19.807  11.540
30212W        W 2472  27.271   0.595  11.270
30213W        W 2473  13.362  20.622  11.511
30214W        W 2474   7.924  42.967  13.379
30215W        W 2475  35.574   7.836  12.450
30216W        W 2476  32.021   5.982  14.931
30217W        W 2477   6.141   7.448   0.944
30218W        W 2478  15.081  42.331   3.801
30219W        W 2479  28.586  38.800  10.678
30220W        W 2480  10.209  39.917  13.947
30221W        W 2481   3.996  38.758  13.865
30222W        W 2482  36.768  22.764  14.781
30223W        W 2483   8.388  26.664   4.971
30224W        W 2484  31.564   9.287   1.388
30225W        W 2485  31.442  33.633   0.086
30226W        W 2486   1.450  39.823  13.451
30227W        W 2487  44.003   7.640   0.780
30228W        W 2488  32.353  26.783  13.785
30229W        W 2489  43.939  29.162  11.640
30230W        W 2490   0.667  27.265   0.932
30231W        W 2491   2.540  27.037   1.407
30232W        W 2492   8.829  10.490  13.962
30233W        W 2493   4.239  44.450   4.872
30234W        W 2494  39.337  10.129  11.053
30235W        W 2495  28.862  20.761  12.832
30236W        W 2496  37.866  27.910   1.262
30237W        W 2497  40.808  22.536  14.332
30238W        W 2498   9.227  21.772  13.140
30239W        W 2499  22.952  29.879  12.446
30240W        W 2500  13.349  10.545   0.958
30241W        W 2501  44.320  44.833  12.287
30242W        W 2502  40.314  13.427   3.086
30243W        W 2503  10.847  30.177  13.691
30244W        W 2504  39.753  37.614  13.514
30245W        W 2505  44.346  33.563  12.551
30246W        W 2506   4.965  12.824  11.078
30247W        W 2507   2.994  32.350   3.728
30248W        W 2508  18.385  27.908   4.981
30249W        W 2509  19.497   7.772  12.890
30250W        W 2510  11.358  24.637   0.978
30251W        W 2511  34.945   3.105   2.441
30252W        W 2512  42.828   7.311   0.420
30253W        W 2513  24.255  17.523  12.982
30254W        W 2514   5.851  38.151  14.819
30255W        W 2515  23.583   5.287  12.999
30256W        W 2516  32.357  17.220   2.546
30257W        W 2517  40.257   5.137  14.505
30258W        W 2518  41.811  41.841   4.300
30259W        W 2519   1.984  29.679   2.416
30260W        W 2520  11.933  22.117   2.805
30261W        W 2521  42.529  20.035   4.338
30262W        W 2522   2.367  27.220  14.235
30263W        W 2523  12.736  40.106  11.441
30264W        W 2524  14.588  44.733  12.813
30265W        W 2525  36.416  17.662   2.192
30266W        W 2526  28.077  43.337   4.228
30267W        W 2527   8.145  19.466   2.469
30268W        W 2528   0.390  12.684   1.857
30269W        W 2529  31.653  35.032  12.069
30270W        W 2530  16.688  16.888  11.519
30271W        W 2531  20.505  35.090  12.879
30272W        W 2532  43.435   6.423   2.167
30273W        W 2533  32.557  14.117  10.604
30274W        W 2534  39.046  44.819  14.465
30275W        W 2535  15.193  17.076  13.522
30276W        W 2536   0.797  18.193  11.639
30277W        W 2537  10.616   4.270   4.334
30278W        W 2538  42.946  37.622  10.799
30279W        W 2539  13.338   1.815   4.131
30280W        W 2540  19.962  37.397   3.673
30281W        W 2541   1.263  37.711  10.930
30282W        W 2542  18.621   2.670   2.253
30283W        W 2543  13.691  38.857  13.495
30284W        W 2544  16.823  14.292  14.352
30285W        W 2545  21.300  18.130  13.761
30286W        W 2546  34.854  20.563   5.466
30287W        W 2547  23.326  32.589  11.298
30288W        W 2548  21.317  32.365  14.531
30289W        W 2549  26.139  36.035  12.096
30290W        W 2550  31.648  31.505   1.898
30291W        W 2551  14.195  24.331   4.590
30292W        W 2552  30.532  36.658   0.277
30293W        W 2553  24.536  19.498   2.432
30294W        W 2554  25.400  12.728   2.318
30295W        W 2555  15.560  28.386  13.345
30296W        W 2556  11.550  19.470   4.247
30297W        W 2557   5.648  16.271  10.835
30298W        W 2558  33.981  29.158  11.574
30299W        W 2559  14.316  30.145  12.955
30300W        W 2560  24.403   1.819  13.872
30301W        W 2561  24.428  29.622  12.001
30302W        W 2562  11.295  19.329   3.276
30303W        W 2563  11.710  36.580   0.086
30304W        W 2564  28.992  25.575  10.668
30305W        W 2565  42.534  14.108  11.710
30306W        W 2566  26.042  38.401   5.599
30307W        W 2567   8.744   2.957   1.797
30308W        W 2568   6.642   2.243   0.063
30309W        W 2569  18.305  42.468  14.516
30310W        W 2570  35.423  24.190  13.991
30311W        W 2571   9.867   9.404   1.183
30312W        W 2572  27.805  39.478   2.199
30313W        W 2573  33.405  14.605   0.901
30314W        W 2574   5.938  17.391  14.475
30315W        W 2575   7.950  31.191  13.167
30316W        W 2576  16.676   3.422  14.485
30317W        W 2577   0.928  43.763   4.558
30318W        W 2578   4.331  11.695   2.757
30319W        W 2579  23.667  40.451  11.193
30320W        W 2580  43.979  26.951   2.710
30321W        W 2581  39.813  42.732   0.425
30322W        W 2582  42.335   8.352   2.046
30323W        W 2583  29.587  34.126  13.525
30324W        W 2584  34.434  28.153   4.861
30325W        W 2585  41.232  23.445  13.660
30326W        W 2586  42.033   1.193  14.375
30327W        W 2587   2.745   7.751  11.103
30328W        W 2588  29.079  41.251   0.831
30329W        W 2589  28.900  11.138   1.760
30330W        W 2590  23.283  23.536  13.067
30331W        W 2591  36.210  15.636   1.846
30332W        W 2592  39.767  12.785   3.671
30333W        W 2593  13.294  15.305   3.415
30334W        W 2594   4.336  19.155  11.046
30335W        W 2595  15.943  34.812  13.288
30336W        W 2596  23.565  14.233  13.433
30337W        W 2597  23.456  12.356   0.330
30338W        W 2598  38.928  17.873   1.811
30339W        W 2599  22.525  40.407  12.147
30340W        W 2600  17.573  39.693   4.131
30341W        W 2601  31.157  20.728  14.978
30342W        W 2602  21.222  34.394  11.964
30343W        W 2603  18.377  25.304  10.763
30344W        W 2604  21.204  34.899   5.004
30345W        W 2605   6.139   6.953   0.373
30346W        W 2606  15.043  43.815  12.294
30347W        W 2607   1.659   5.571   1.818
30348W        W 2608  38.029  17.089  10.217
30349W        W 2609  39.592  32.399  11.151
30350W        W 2610   3.978  28.906   0.435
30351W        W 2611  34.617  24.088   0.908
30352W        W 2612  36.880   3.158  10.792
30353W        W 2613  33.364   3.374  10.962
30354W        W 2614  25.216  15.051   0.691
30355W        W 2615  43.769   8.193   4.706
30356W        W 2616  20.011  42.890  13.390
30357W        W 2617  10.350  37.789  10.946
30358W        W 2618  10.181  39.364   4.593
30359W        W 2619  17.019  16.887   4.681
30360W        W 2620  32.622  38.657  11.627
30361W        W 2621  40.881  20.947   1.601
30362W        W 2622  21.027  10.457  11.410
30363W        W 2623  35.160  41.392  10.263
30364W        W 2624  16.513  44.365  12.564
30365W        W 2625  32.335   0.707  12.110
30366W        W 2626  18.928  43.092   4.546
30367W        W 2627  19.716   4.060   4.497
30368W        W 2628  13.242  18.351  12.522
30369W        W 2629  30.039   9.460  14.391
30370W        W 2630   2.765  17.691   1.270
30371W        W 2631  21.249  18.263   1.853
30372W        W 2632   5.352  14.376   0.583
30373W        W 2633   7.178  34.751   3.265
30374W        W 2634   7.415  42.301   4.594
30375W        W 2635  33.157  41.813  13.725
30376W        W 2636  14.254  39.901   1.541
30377W        W 2637  27.400  44.858   0.890
30378W        W 2638  28.518  39.490  12.175
30379W        W 2639  32.125  25.624   2.821
30380W        W 2640  41.313   6.954   1.582
30381W        W 2641  35.122  12.866  13.047
30382W        W 2642   5.212  25.394  13.400
30383W        W 2643  15.503  37.258  10.305
30384W        W 2644  34.578  21.125   2.371
30385W        W 2645  22.192   0.876   4.128
30386W        W 2646   6.685  21.325   0.340
30387W        W 2647  35.515  21.860   4.799
30388W        W 2648  37.451  38.287  11.718
30389W        W 2649  22.874  14.637  10.688
30390W        W 2650  37.356  13.217  11.876
30391W        W 2651  29.869  20.227  14.956
30392W        W 2652   3.154  31.213  12.018
30393W        W 2653  23.535  29.095   0.262
30394W        W 2654  44.422  16.098   0.770
30395W        W 2655  39.020  31.075  13.006
30396W        W 2656  44.705  37.970   2.745
30397W        W 2657  14.971   9.745  11.958
30398W        W 2658   9.284  27.623   4.020
30399W        W 2659  17.142  36.096   1.985
30400W        W 2660  10.250  35.339   4.574
30401W        W 2661  37.904  34.866   1.760
30402W        W 2662  23.445  29.725   1.491
30403W        W 2663   5.833   2.041   1.771
30404W        W 2664  34.433  35.851   1.733
30405W        W 2665  13.215  12.625  11.742
30406W        W 2666  34.183  37.345   1.717
30407W        W 2667   6.872   0.516  14.753
30408W        W 2668   5.701  42.194  11.966
30409W        W 2669  44.364   6.180  11.594
30410W        W 2670  22.416  28.666   9.736
30411W        W 2671  24.681  26.634   1.347
30412W        W 2672  37.075  13.408   2.466
30413W        W 2673  11.801   0.248   3.745
30414W        W 2674  34.561  31.398   0.892
30415W        W 2675   4.254  14.094  10.446
30416W        W 2676  26.651  41.385  14.267
30417W        W 2677  13.975   2.071   2.765
30418W        W 2678  35.395  26.754   0.893
30419W        W 2679  44.934  20.134   3.399
30420W        W 2680  41.544  14.277  11.627
30421W        W 2681  12.410  44.381   0.698
30422W        W 2682  15.693   4.476   2.337
30423W        W 2683  23.332   7.932   1.740
30424W        W 2684   1.602  11.535   2.978
30425W        W 2685  21.981  44.084   4.600
30426W        W 2686   9.635  39.845  12.983
30427W        W 2687  34.576  31.421  10.759
30428W        W 2688  13.522   8.745   3.163
30429W        W 2689  12.207  31.581   0.420
30430W        W 2690  14.606  42.325  11.165
30431W        W 2691   3.906  22.259   0.468
30432W        W 2692  13.857  24.177   1.758
30433W        W 2693   2.904  19.660   3.350
30434W        W 2694  30.639   8.422   4.170
30435W        W 2695   5.206  23.012  11.178
30436W        W 2696  21.496  10.143  10.608
30437W        W 2697  26.595   5.796  11.694
30438W        W 2698   0.785  14.447  14.238
30439W        W 2699  37.434  44.279  12.882
30440W        W 2700   9.972   4.957  14.766
30441W        W 2701  41.249  26.547   3.575
30442W        W 2702  34.319   6.857  10.399
30443W        W 2703  33.617   5.736  13.429
30444W        W 2704  23.024  25.089   5.088
30445W        W 2705   0.407  15.753  13.508
30446W        W 2706  13.779  41.570   0.193
30447W        W 2707  40.427  41.977   4.359
30448W        W 2708   4.212  30.874   4.277
30449W        W 2709   0.869  39.409  10.431
30450W        W 2710  38.842   1.217   1.869
30451W        W 2711  41.227  32.859  13.057
30452W        W 2712  40.428  24.444  11.976
30453W        W 2713   9.856   8.377   4.202
30454W        W 2714  31.767  38.556   1.959
30455W        W 2715  13.447  38.549   3.703
30456W        W 2716  40.260  30.873   4.127
30457W        W 2717  33.399  38.547   4.123
30458W        W 2718  27.262  19.683  13.930
30459W        W 2719   1.012   0.285   3.675
30460W        W 2720   9.526  24.884  14.369
30461W        W 2721   2.532   1.013  14.773
30462W        W 2722  30.273  30.585  13.137
30463W        W 2723  42.845  40.412  13.514
30464W        W 2724   3.484   9.807   3.808
30465W        W 2725  33.714  31.946   3.680
30466W        W 2726  43.120  39.400  12.911
30467W        W 2727  33.462  11.108   0.010
30468W        W 2728  25.316  33.520  11.411
30469W        W 2729  27.128   5.208  10.487
30470W        W 2730   0.453  44.318   0.182
30471W        W 2731   0.213  33.212   3.202
30472W        W 2732  21.392  41.545  11.995
30473W        W 2733  31.126   9.383  13.453
30474W        W 2734  21.702  21.215  13.059
30475W        W 2735   1.346  18.426   4.263
30476W        W 2736  29.429   9.181  10.440
30477W        W 2737  22.119  21.228  13.810
30478W        W 2738  17.742  20.758   4.531
30479W        W 2739  15.106  14.223  14.075
30480W        W 2740  10.097   1.998   4.559
30481W        W 2741  29.416  32.679   1.803
30482W        W 2742   3.694  41.228   0.970
30483W        W 2743  20.737   1.484  11.616
30484W        W 2744  26.491  13.448  14.340
30485W        W 2745  38.160   0.676  12.490
30486W        W 2746  31.933   4.249   1.534
30487W        W 2747   1.735  23.220  14.516
30488W        W 2748  39.015  10.199  13.415
30489W        W 2749  14.178  37.074   0.755
30490W        W 2750  42.049   7.119  10.356
30491W        W 2751  38.597  10.993   4.579
30492W        W 2752  26.723   4.003  12.555
30493W        W 2753  34.829  44.800  11.026
30494W        W 2754  40.989  34.340  13.877
30495W        W 2755  23.596   8.699   1.439
30496W        W 2756  35.373  44.473   2.814
30497W        W 2757  35.253   3.507   3.800
30498W        W 2758   9.911   2.515  14.614
30499W        W 2759  36.265  42.417   1.944
30500W        W 2760  20.780  27.132   0.960
30501W        W 2761  16.852  40.762  14.810
30502W        W 2762  28.595  34.984  12.028
30503W        W 2763  40.591  11.870  11.624
30504W        W 2764  37.494  33.128  12.537
30505W        W 2765   0.329  26.544  13.208
30506W        W 2766  10.775  28.163  14.779
30507W        W 2767  22.274  25.228  11.024
30508W        W 2768  31.342   8.429  13.206
30509W        W 2769  37.191   7.425  10.625
30510W        W 2770  35.395   3.189   3.188
30511W        W 2771   2.392  41.533   4.396
30512W        W 2772   3.047  29.280  14.483
30513W        W 2773  40.555  20.095  14.968
30514W        W 2774  13.962  32.541   3.727
30515W        W 2775  44.383  44.086   3.529
30516W        W 2776  41.232  31.971   0.249
30517W        W 2777   7.510  41.063   4.951
30518W        W 2778  29.455  16.705   0.244
30519W        W 2779   3.659  26.173  11.254
30520W        W 2780   8.234  40.915  11.122
30521W        W 2781  13.047  27.117  11.894
30522W        W 2782  42.579   3.348  13.912
30523W        W 2783  39.616  36.948   1.657
30524W        W 2784   7.730   3.478   2.719
30525W        W 2785  40.788  38.503  12.930
30526W        W 2786  29.944   3.223  14.358
30527W        W 2787  29.348  44.018   3.247
30528W        W 2788   8.640  29.014   0.744
30529W        W 2789   3.813  26.622   9.984
30530W        W 2790   4.623  13.713  12.548
30531W        W 2791  13.578  39.812  14.691
30532W        W 2792  28.662  34.635   2.328
30533W        W 2793  14.580  34.944   1.796
30534W        W 2794   4.225  43.540   1.655
30535W        W 2795  32.951  23.082   1.230
30536W        W 2796  21.762  22.598   0.798
30537W        W 2797  10.630  19.846   1.109
30538W        W 2798  25.297  17.071   2.299
30539W        W 2799  25.674  23.123   1.428
30540W        W 2800   6.424  13.655   1.886
30541W        W 2801   1.709   9.774  12.012
30542W        W 2802   7.415  14.746   4.652
30543W        W 2803  13.591  13.206   1.188
30544W        W 2804   7.650  38.746   0.291
30545W        W 2805   6.955  11.648   3.573
30546W        W 2806  35.821   5.964  11.483
30547W        W 2807  31.963  38.555  10.649
30548W        W 2808  13.129  21.215  12.887
30549W        W 2809   9.753   0.903   0.954
30550W        W 2810  42.495  15.073  14.458
30551W        W 2811  14.706  27.375   1.022
30552W        W 2812  36.114  22.544   1.333
30553W        W 2813  13.600  25.953   2.777
30554W        W 2814  11.377   7.704  14.281
30555W        W 2815  43.046   4.524   4.399
30556W        W 2816  44.415  17.139  14.461
30557W        W 2817  33.208  26.441  13.641
30558W        W 2818  30.606  30.018   1.223
30559W        W 2819  26.295  35.805   2.277
30560W        W 2820  25.133  11.348  11.174
30561W        W 2821  33.014  22.766   1.624
30562W        W 2822  42.279  38.768  12.182
30563W        W 2823  18.809   2.319   4.562
30564W        W 2824  10.838  27.542   3.619
30565W        W 2825  28.080  18.530  11.025
30566W        W 2826  18.201   5.897   3.714
30567W        W 2827  30.952  37.088  14.358
30568W        W 2828  13.716   2.375  14.923
30569W        W 2829  22.964  13.323   2.234
30570W        W 2830   1.669   9.688   4.784
30571W        W 2831   4.443  25.575  12.627
30572W        W 2832  23.271  40.886  11.359
30573W        W 2833  23.749   8.582  10.148
30574W        W 2834  29.162  29.313  13.630
30575W        W 2835  31.217  39.089  13.515
30576W        W 2836  43.886  20.290   1.386
30577W        W 2837  16.156  27.577   0.710
30578W        W 2838  38.552   1.814   0.886
30579W        W 2839  19.012  28.205   3.805
30580W        W 2840  14.282  13.196  13.510
30581W        W 2841  43.909  20.065   2.849
30582W        W 2842  28.902  41.971  11.256
30583W        W 2843  15.161   4.631   2.402
30584W        W 2844  37.888   3.468   3.684
30585W        W 2845  11.936  44.893  12.598
30586W        W 2846   6.404   1.655   0.361
30587W        W 2847  29.579  17.133  12.954
30588W        W 2848  10.812  20.287  11.021
30589W        W 2849  26.037   6.954   0.089
30590W        W 2850   0.889   2.345  11.940
30591W        W 2851  14.577  33.649   4.599
30592W        W 2852  28.296  22.252   2.834
30593W        W 2853  32.549   3.357  12.547
30594W        W 2854  33.860  14.748   0.556
30595W        W 2855  25.651  44.267  12.026
30596W        W 2856   7.323  15.038   3.685
30597W        W 2857  17.572  23.033  13.571
30598W        W 2858  43.691  14.395  14.122
30599W        W 2859  18.967  42.369  12.038
30600W        W 2860  41.005   3.895  11.402
30601W        W 2861  21.708  18.723  12.464
30602W        W 2862  20.283  37.320  11.537
30603W        W 2863  32.864  20.600  13.455
30604W        W 2864  23.092  29.636  12.010
30605W        W 2865  19.153  14.101  11.132
30606W        W 2866  37.154   8.234   4.429
30607W        W 2867  27.228  39.398  14.457
30608W        W 2868  19.491  35.531  12.697
30609W        W 2869  39.465   1.440  13.360
30610W        W 2870   3.391  34.979  13.537
30611W        W 2871   0.010   7.211   4.151
30612W        W 2872   4.475   2.906  14.347
30613W        W 2873  12.108  34.473   0.790
30614W        W 2874  23.254  11.750   4.171
30615W        W 2875  21.986  37.574  12.939
30616W        W 2876   4.396  40.204  13.866
30617W        W 2877  31.734  28.766  14.284
30618W        W 2878  14.858  36.441  10.572
30619W        W 2879  29.173  29.442   5.047
30620W        W 2880   3.137  19.535   0.473
30621W        W 2881   9.844   4.994   5.080
30622W        W 2882  19.457  11.327   0.068
30623W        W 2883  16.292  20.268   3.659
30624W        W 2884  34.912   9.170  11.578
30625W        W 2885  24.283  41.202  14.510
30626W        W 2886  43.825   9.238  11.218
30627W        W 2887  44.183   5.429  12.007
30628W        W 2888  18.511  20.224  10.330
30629W        W 2889  20.648   6.003  13.488
30630W        W 2890  10.155  44.138  12.098
30631W        W 2891  24.616  24.242  10.727
30632W        W 2892  18.514   2.908   2.887
30633W        W 2893  26.016  27.402  10.592
30634W        W 2894  29.144  10.336   2.338
30635W        W 2895  28.671   4.521  12.857
30636W        W 2896  19.243   2.444  14.351
30637W        W 2897   4.448  28.130  14.096
30638W        W 2898  41.456  35.570   1.133
30639W        W 2899  41.444  32.937  11.317
30640W        W 2900  23.968  35.364   3.952
30641W        W 2901  35.681  23.684  11.660
30642W        W 2902  25.256  20.266   0.761
30643W        W 2903  25.528  33.645   0.161
30644W        W 2904   5.110  18.588   4.558
30645W        W 2905   5.343  40.514  12.970
30646W        W 2906  29.615   4.947   1.247
30647W        W 2907  29.091   4.885   0.452
30648W        W 2908   6.874   5.071  10.789
30649W        W 2909  43.192  26.527   2.394
30650W        W 2910   5.925  20.030  14.545
30651W        W 2911  31.415  35.913  10.690
30652W        W 2912   2.918  15.209   1.802
30653W        W 2913  19.576   3.554   4.592
30654W        W 2914   0.286  41.504   0.099
30655W        W 2915  38.566  19.858  11.506
30656W        W 2916  20.961   1.054   4.638
30657W        W 2917  28.142  24.626  13.702
30658W        W 2918  28.601  15.724  12.877
30659W        W 2919  20.093  41.476  14.934
30660W        W 2920  34.432  10.213   2.420
30661W        W 2921  13.321  21.597  13.209
30662W        W 2922  11.567  16.031   4.521
30663W        W 2923   9.959  11.197  11.153
30664W        W 2924   0.692  37.246  12.577
30665W        W 2925  38.342  30.042  11.533
30666W        W 2926  30.188  37.018   1.802
30667W        W 2927  10.899  34.887   0.530
30668W        W 2928  20.857  26.115  14.387
30669W        W 2929  18.218   7.086   4.279
30670W        W 2930   4.974  36.553  10.893
30671W        W 2931  11.324   5.779  11.557
30672W        W 2932  15.636   5.700   0.233
30673W        W 2933  16.583  14.185  14.904
30674W        W 2934   3.755   3.231   3.180
30675W        W 2935  34.594  25.633  13.491
30676W        W 2936  31.567  27.162  11.617
30677W        W 2937  28.743  14.247   3.308
30678W        W 2938   6.221  13.724  13.984
30679W        W 2939  13.036  16.561  12.924
30680W        W 2940  16.383  26.022  12.889
30681W        W 2941  38.103   2.254  12.702
30682W        W 2942  37.188  34.218   2.517
30683W        W 2943  21.636  24.795   4.276
30684W        W 2944  28.080  30.061  13.337
30685W        W 2945  24.099  12.454   2.731
30686W        W 2946  30.706  41.052   2.383
30687W        W 2947  18.317   2.456  12.344
30688W        W 2948  14.195  38.965   4.482
30689W        W 2949  22.119  35.515  14.359
30690W        W 2950  41.517  39.653  10.729
30691W        W 2951  35.594  25.332   2.101
30692W        W 2952  31.247  39.241   4.130
30693W        W 2953  39.099  43.848   1.927
30694W        W 2954   6.653  10.782   0.842
30695W        W 2955  18.293  26.271   1.268
30696W        W 2956  31.896  25.168   2.777
30697W        W 2957  30.653  17.705  13.363
30698W        W 2958  24.244  28.023  11.424
30699W        W 2959  37.760  27.139  13.514
30700W        W 2960   8.430  31.877   2.420
30701W        W 2961  31.174  16.584  10.843
30702W        W 2962  38.098  17.550  13.478
30703W        W 2963  15.553  21.810  11.477
30704W        W 2964  13.180  32.926   3.754
30705W        W 2965   9.283   5.133  14.974
30706W        W 2966  18.695  10.153   1.710
30707W        W 2967  40.469  15.263  10.952
30708W        W 2968  42.265  31.465   3.226
30709W        W 2969  17.231  29.075   0.160
30710W        W 2970   5.850  24.529  13.129
30711W        W 2971  18.756   0.861  14.935
30712W        W 2972  35.982  24.666  13.551
30713W        W 2973  20.316   6.308   5.031
30714W        W 2974  30.603  17.647  14.653
30715W        W 2975  33.004  39.049  14.259
30716W        W 2976  31.128   1.919  13.112
30717W        W 2977  12.371  44.344  13.433
30718W        W 2978  44.833   7.485  10.661
30719W        W 2979   7.205   4.692  10.649
30720W        W 2980  44.298  37.616   3.635
30721W        W 2981  35.186   0.086  10.700
30722W        W 2982  33.402  24.491   1.455
30723W        W 2983   2.018  32.457  14.081
30724W        W 2984  26.560  15.428   0.891
30725W        W 2985  15.743  23.821  13.545
30726W        W 2986  21.178  23.509  14.925
30727W        W 2987   7.229  28.913  13.865
30728W        W 2988  16.115  15.414  11.752
30729W        W 2989   1.900  23.006   2.384
30730W        W 2990  36.381  35.076   3.210
30731W        W 2991  38.355   8.669  13.892
30732W        W 2992  12.862   0.335  14.341
30733W        W 2993  19.489   4.934  12.921
30734W        W 2994  40.556  18.802  11.548
30735W        W 2995  19.319   1.913   0.376
30736W        W 2996   6.867  34.521   2.880
30737W        W 2997   3.917  20.313  14.232
30738W        W 2998  14.050  34.096  11.631
30739W        W 2999  39.466  26.928   5.209
30740W        W 3000  28.215  19.363  11.896
30741W        W 3001   9.086   1.904   4.731
30742W        W 3002  29.614   7.976  11.111
30743W        W 3003  40.442  22.764  14.035
30744W        W 3004  23.594  35.447   2.120
30745W        W 3005  18.841  40.855  12.085
30746W        W 3006  15.524   8.409  11.344
30747W        W 3007   0.256  18.207  14.427
30748W        W 3008  30.673   8.126  14.058
30749W        W 3009  10.177  27.729   0.299
30750W        W 3010  14.801   2.267   2.390
30751W        W 3011   1.361  44.074   2.306
30752W        W 3012  17.181  16.503  10.302
30753W        W 3013  22.744   5.724   2.641
30754W        W 3014  13.286  29.437   2.407
30755W        W 3015   2.148  41.890  14.982
30756W        W 3016  32.043  34.856  10.562
30757W        W 3017  12.099  11.775  14.744
30758W        W 3018  38.065  44.748   4.284
30759W        W 3019  17.695  29.189  11.221
30760W        W 3020  19.817  28.642   2.798
30761W        W 3021   7.265  28.609  11.802
30762W        W 3022  17.057  19.358  11.621
30763W        W 3023  41.812  15.037  11.198
30764W        W 3024  10.741  20.527   2.542
30765W        W 3025  37.962  30.634   2.797
30766W        W 3026  33.362  17.059   0.628
30767W        W 3027   0.397  36.559   3.273
30768W        W 3028  37.728  11.123  13.858
30769W        W 3029  38.828  28.592  12.891
30770W        W 3030  32.127  14.614  14.983
30771W        W 3031  43.806   2.268  14.478
30772W        W 3032   6.152  41.076  13.801
30773W        W 3033   5.215   3.421  13.429
30774W        W 3034  25.537  32.074   4.129
30775W        W 3035   5.781   7.092  12.074
30776W        W 3036  18.680  42.510   2.434
30777W        W 3037  28.405  24.619  10.208
30778W        W 3038  12.443  21.159  10.467
30779W        W 3039  32.983   9.835  13.422
30780W        W 3040  11.108  17.381  14.919
30781W        W 3041  28.728  12.133  14.356
30782W        W 3042   0.027  29.030  12.989
30783W        W 3043  30.790  36.026   4.514
30784W        W 3044  20.469   1.233   4.513
30785W        W 3045   1.321  40.536  13.014
30786W        W 3046   9.344   4.374   3.615
30787W        W 3047   6.948  27.539   1.132
30788W        W 3048   4.597  15.346  10.180
30789W        W 3049  41.885   2.801   0.092
30790W        W 3050  29.621  27.642  11.268
30791W        W 3051  24.929  38.832   4.097
30792W        W 3052  23.513  18.663   2.484
30793W        W 3053   1.956  31.339  14.326
30794W        W 3054  38.084  37.373  11.087
30795W        W 3055  14.157  26.899  11.361
30796W        W 3056  33.980   2.235  10.691
30797W        W 3057  18.573  34.048   0.256
30798W        W 3058  44.376  38.355   2.617
30799W        W 3059  33.815  12.286   3.986
30800W        W 3060  10.207  33.872   2.315
30801W        W 3061  18.427  20.895  13.527
30802W        W 3062   9.818  42.795  10.408
30803W        W 3063  42.768   0.979  11.910
30804W        W 3064  25.604  11.088  12.040
30805W        W 3065  22.056  35.791   2.322
30806W        W 3066  23.202  31.208  13.063
30807W        W 3067  32.899   2.756   1.736
30808W        W 3068  24.433  40.498   5.404
30809W        W 3069  21.487  26.305   4.169
30810W        W 3070   9.186  29.519  14.274
30811W        W 3071  29.416  17.597  13.128
30812W        W 3072   6.458  11.141  12.610
30813W        W 3073  33.655  23.016   3.664
30814W        W 3074  41.059  40.972   4.709
30815W        W 3075   6.869  13.504  12.906
30816W        W 3076  10.880  13.822   2.405
30817W        W 3077   3.338  14.153  12.566
30818W        W 3078  39.208  10.230  14.510
30819W        W 3079  39.809  43.820   2.835
30820W        W 3080  27.129  13.151   4.924
30821W        W 3081  31.711  32.531  14.070
30822W        W 3082   8.782   2.307   4.646
30823W        W 3083  42.924  29.812   2.362
30824W        W 3084  27.727  41.766   5.062
30825W        W 3085  27.025  15.317  14.969
30826W        W 3086   6.138  27.484  14.010
30827W        W 3087  25.629  17.619  13.381
30828W        W 3088  11.292  24.229   3.243
30829W        W 3089  12.539   6.251  11.015
30830W        W 3090   2.262   8.459   4.612
30831W        W 3091  33.641  31.209   1.678
30832W        W 3092   6.135  27.618   1.766
30833W        W 3093   7.955   2.187   2.364
30834W        W 3094  20.997  41.316  13.508
30835W        W 3095  34.993  36.689   0.823
30836W        W 3096  29.047  22.550   0.561
30837W        W 3097   7.747  18.840  13.193
30838W        W 3098  37.549  10.656   3.847
30839W        W 3099  42.533   5.863  14.021
30840W        W 3100  27.089  17.827  13.487
30841W        W 3101  39.348  35.167  12.641
30842W        W 3102   4.887  43.299   3.774
30843W        W 3103   3.017  15.248   3.457
30844W        W 3104  33.128  27.940   2.220
30845W        W 3105   0.295  44.567   4.685
30846W        W 3106   0.928   2.808  11.097
30847W        W 3107  30.732  40.578   0.345
30848W        W 3108   8.589  44.308  12.498
30849W        W 3109  37.955   2.407  14.036
30850W        W 3110  41.377  29.416   3.233
30851W        W 3111  35.169  15.791   4.794
30852W        W 3112   1.848  34.440   4.522
30853W        W 3113   8.773  32.134  10.696
30854W        W 3114  12.843  41.848  13.971
30855W        W 3115  44.538   9.472  14.896
30856W        W 3116  29.812  34.980  12.953
30857W        W 3117  11.827  33.406  13.940
30858W        W 3118  39.601   8.151  12.794
30859W        W 3119   4.684  35.267   0.711
30860W        W 3120  17.692   6.776   3.847
30861W        W 3121  28.911  40.737   2.264
30862W        W 3122  36.618  36.940   2.860
30863W        W 3123   0.841  28.475   3.690
30864W        W 3124  23.503  10.240   3.184
30865W        W 3125   4.679  20.221   5.089
30866W        W 3126  26.612  42.126  11.131
30867W        W 3127  38.649   2.136   1.762
30868W        W 3128  23.988  24.690  10.689
30869W        W 3129  27.708   7.301  12.045
30870W        W 3130   1.976  31.364  11.465
30871W        W 3131  13.144  42.901  11.237
30872W        W 3132  21.277   3.440  13.448
30873W        W 3133  42.229  27.522  13.980
30874W        W 3134  27.506  33.351  11.052
30875W        W 3135  10.917  38.106   1.419
30876W        W 3136  40.460  17.295   4.282
30877W        W 3137  13.390  12.797   2.195
30878W        W 3138   9.256  21.163   3.696
30879W        W 3139  29.084  33.348  13.255
30880W        W 3140  28.585  29.545  10.283
30881W        W 3141  16.211  17.136  10.564
30882W        W 3142  17.815  30.927  10.669
30883W        W 3143  15.572  21.084   4.101
30884W        W 3144   8.721  38.304  12.065
30885W        W 3145  23.747  32.713  14.631
30886W        W 3146  20.727  42.477   5.034
30887W        W 3147   6.215   6.826   3.550
30888W        W 3148  13.517  18.101   5.036
30889W        W 3149  27.650  14.796  13.652
30890W        W 3150  15.721  27.292  10.078
30891W        W 3151   5.691  24.228   1.773
30892W        W 3152  35.861   1.390  12.602
30893W        W 3153   5.811  21.777   3.544
30894W        W 3154   2.845  18.168   3.372
30895W        W 3155  24.480  41.936   3.714
30896W        W 3156  20.440   2.479   0.827
30897W        W 3157   3.459  29.916  13.956
30898W        W 3158  24.363  23.458  11.632
30899W        W 3159  43.470  19.262  12.263
30900W        W 3160  41.357  16.117   1.765
30901W        W 3161  17.459  18.208  14.862
30902W        W 3162  26.957  24.196  14.049
30903W        W 3163  29.425  25.214  12.433
30904W        W 3164   6.863  40.392   2.779
30905W        W 3165  21.730  16.602   9.847
30906W        W 3166   0.880  25.778  13.559
30907W        W 3167  14.494   6.402   3.703
30908W        W 3168  17.759  17.326  13.320
30909W        W 3169  21.806  22.253   2.545
30910W        W 3170  22.228   6.165   3.276
30911W        W 3171  11.437  20.137   2.718
30912W        W 3172  23.467   5.108  12.487
30913W        W 3173  21.573   2.378   2.678
30914W        W 3174  11.598  31.947   0.261
30915W        W 3175  12.840  14.832  14.573
30916W        W 3176  17.139   2.221   1.294
30917W        W 3177  11.633  22.498  13.309
30918W        W 3178  36.217  30.478  14.951
30919W        W 3179   1.092  33.606   2.009
30920W        W 3180   3.644  15.193   4.107
30921W        W 3181  32.529  12.366  14.048
30922W        W 3182  11.611  36.560  11.635
30923W        W 3183  10.737  39.833   0.240
30924W        W 3184   8.747  34.410  11.538
30925W        W 3185  30.785  17.878  10.371
30926W        W 3186   3.845  36.124  14.262
30927W        W 3187  41.428  40.059  11.425
30928W        W 3188   0.240   6.018  10.404
30929W        W 3189   1.377   2.361  12.250
30930W        W 3190   0.950  19.643   4.550
30931W        W 3191  14.752  15.029  14.351
30932W        W 3192  12.251  21.551   3.611
30933W        W 3193  24.868  18.231   3.307
30934W        W 3194   5.479  36.124   4.188
30935W        W 3195   9.179  41.974   4.928
30936W        W 3196   7.688  41.899   0.804
30937W        W 3197  29.529  31.795   5.405
30938W        W 3198   8.824  21.489   4.404
30939W        W 3199   2.325  28.574   0.546
30940W        W 3200  42.364  43.357   3.682
30941W        W 3201  32.469  27.980  14.421
30942W        W 3202   8.845  13.769  12.033
30943W        W 3203   8.279  11.089   2.701
30944W        W 3204  23.155  43.665   4.120
30945W        W 3205   8.290   6.639   3.211
30946W        W 3206  22.850  18.778   9.831
30947W        W 3207   6.701  10.313   2.358
30948W        W 3208  25.452  43.064   3.771
30949W        W 3209  44.375   0.824  10.224
30950W        W 3210   5.824  29.524   2.581
30951W        W 3211   8.272  32.436   4.168
30952W        W 3212   1.600  41.878  14.977
30953W        W 3213  35.579   3.734   2.336
30954W        W 3214  20.008   1.406  11.395
30955W        W 3215  39.424  21.458   0.446
30956W        W 3216  13.920  33.403   1.237
30957W        W 3217  25.614  39.713   5.285
30958W        W 3218  21.877  20.152   0.988
30959W        W 3219  20.572  31.449   4.618
30960W        W 3220  44.081  32.159   0.417
30961W        W 3221  33.659  37.077   4.130
30962W        W 3222  36.447   0.530   2.335
30963W        W 3223  34.374  23.349  14.081
30964W        W 3224  16.653   8.705  12.192
30965W        W 3225   0.274  10.251  12.341
30966W        W 3226   9.450   3.001  10.527
30967W        W 3227  33.688  17.688   3.732
30968W        W 3228  33.693  42.937   4.293
30969W        W 3229  29.679   1.345  13.513
30970W        W 3230  34.162  32.473   1.254
30971W        W 3231  19.598  43.375  14.542
30972W        W 3232  37.101  35.478  10.963
30973W        W 3233  37.523  12.579   2.640
30974W        W 3234   2.404  38.326  13.739
30975W        W 3235  16.041  32.072  12.498
30976W        W 3236  35.368  18.153  10.633
30977W        W 3237  44.878  18.313  12.124
30978W        W 3238  30.566  31.927  12.911
30979W        W 3239  15.795  12.269  10.779
30980W        W 3240  21.401   5.668   3.675
30981W        W 3241  35.505   7.597  14.902
30982W        W 3242  12.842  21.558   2.047
30983W        W 3243  42.006  30.325   1.665
30984W        W 3244  30.655  26.578   2.697
30985W        W 3245  32.401   7.943  14.296
30986W        W 3246  31.301  21.752   4.813
30987W        W 3247  34.438  18.866   4.583
30988W        W 3248  39.805   9.631  14.473
30989W        W 3249  40.342  30.403   0.397
30990W        W 3250  27.008  40.858  14.994
30991W        W 3251   7.974  18.120   2.851
30992W        W 3252  30.545   1.744  14.756
30993W        W 3253  29.732  40.776  14.375
30994W        W 3254  39.024  40.216  10.278
30995W        W 3255  32.996  39.525  14.547
30996W        W 3256  38.942   7.524   3.276
30997W        W 3257  24.020  42.515  12.439
30998W        W 3258  44.699   4.351  11.548
30999W        W 3259  40.823  35.312   1.883
31000W        W 3260  29.076  27.955  13.758
31001W        W 3261  15.143  24.438   0.927
31002W        W 3262   7.472  26.643  12.711
31003W        W 3263  18.584  32.051  14.261
31004W        W 3264  42.570  17.326   0.397
31005W        W 3265  39.989  19.640   3.343
31006W        W 3266  25.463  23.696  12.694
31007W        W 3267  35.140  39.840   3.615
31008W        W 3268  43.893  16.117   2.053
31009W        W 3269  16.508  15.892  10.214
31010W        W 3270  36.860  14.862   2.575
31011W        W 3271  15.608  39.593  12.878
31012W        W 3272   4.717  40.057  14.803
31013W        W 3273   1.675  33.436   0.417
31014W        W 3274  23.206  42.497   0.486
31015W        W 3275  27.281  27.542   0.341
31016W        W 3276  34.133  19.350   0.339
31017W        W 3277   2.416  12.155  10.790
31018W        W 3278  31.447  37.074  13.052
31019W        W 3279  34.755  37.443  12.425
31020W        W 3280  32.414  25.747  11.226
31021W        W 3281  39.553  11.187  12.422
31022W        W 3282  24.759  32.243   2.184
31023W        W 3283  42.525   3.741   2.737
31024W        W 3284  28.937  11.132   0.413
31025W        W 3285  28.995  32.832   4.684
31026W        W 3286   7.652  25.041  14.766
31027W        W 3287  35.992  32.379   1.030
31028W        W 3288  36.351  12.130   2.735
31029W        W 3289   6.098  17.678  13.983
31030W        W 3290  22.048  36.643   4.100
31031W        W 3291  15.281  31.078  12.353
31032W        W 3292  38.475  10.630   3.697
31033W        W 3293  42.022  10.156   1.352
31034W        W 3294  36.707  39.461  13.009
31035W        W 3295  24.690  34.400  14.490
31036W        W 3296  32.633  42.961   4.975
31037W        W 3297  24.055  20.231   2.730
31038W        W 3298  23.011  31.152  14.383
31039W        W 3299  14.844  44.573  11.689
31040W        W 3300  42.105  13.072  13.481
31041W        W 3301  27.130  20.794  14.775
31042W        W 3302  28.674  10.363   4.841
31043W        W 3303  36.665  37.454   4.619
31044W        W 3304   9.833  17.102   0.235
31045W        W 3305  41.588  22.736  11.122
31046W        W 3306  24.142  22.459   0.039
31047W        W 3307   9.362  39.852   1.053
31048W        W 3308   6.147   4.854  11.497
31049W        W 3309   5.218   0.419   3.553
31050W        W 3310  13.080  10.792   1.349
31051W        W 3311  25.711  38.893  12.322
31052W        W 3312  19.602  35.862  13.547
31053W        W 3313   2.395  33.621   3.739
31054W        W 3314   3.969  23.139  10.679
31055W        W 3315  37.937  31.139   2.845
31056W        W 3316  20.132   5.757   4.133
31057W        W 3317  39.621  14.233   0.439
31058W        W 3318   5.327   2.975  12.458
31059W        W 3319  20.131  39.797   3.096
31060W        W 3320  40.488  15.104  11.428
31061W        W 3321  10.629  29.653  14.257
31062W        W 3322  21.640  18.583  11.179
31063W        W 3323  12.846   8.961   4.223
31064W        W 3324  29.876  24.938   1.883
31065W        W 3325  42.527  32.540  11.378
31066W        W 3326  30.458  20.632   3.572
31067W        W 3327  12.324  33.828  14.486
31068W        W 3328  15.761  10.003   2.230
31069W        W 3329  27.438  44.029   3.324
31070W        W 3330   7.413  18.164  11.577
31071W        W 3331  23.762   3.731  12.949
31072W        W 3332  44.267  12.743  11.863
31073W        W 3333  29.083  40.868   4.262
31074W        W 3334  41.462  34.071  14.473
31075W        W 3335  22.518  13.221  14.519
31076W        W 3336  13.233  14.777   4.336
31077W        W 3337  23.743   6.190   4.983
31078W        W 3338  21.851  16.406   4.078
31079W        W 3339  43.642  15.422   3.640
31080W        W 3340  26.971  19.610   4.815
31081W        W 3341  21.550   0.244   0.361
31082W        W 3342   1.923  11.311   1.885
31083W        W 3343  36.827   8.879   3.140
31084W        W 3344  29.826  42.480  11.129
31085W        W 3345  30.955  17.959   4.066
31086W        W 3346  37.028  44.239  10.748
31087W        W 3347   0.008  14.108  13.889
31088W        W 3348  17.892   9.344   4.687
31089W        W 3349  44.324   2.332  10.929
31090W        W 3350  13.622  33.216   3.901
31091W        W 3351   4.011  10.885  13.539
31092W        W 3352   6.207  36.079  13.962
31093W        W 3353  34.321  17.171   4.614
31094W        W 3354  13.666  17.426   0.346
31095W        W 3355  19.169  35.299  10.703
31096W        W 3356   1.983   9.133  13.365
31097W        W 3357  44.760  36.825  12.737
31098W        W 3358  14.381  15.535  12.941
31099W        W 3359  31.867  34.415   0.293
31100W        W 3360  20.483  29.589   1.939
31101W        W 3361  15.048   3.329   4.113
31102W        W 3362  29.523   1.305   3.304
31103W        W 3363   2.884   5.841  12.852
31104W        W 3364  16.319  30.358  12.021
31105W        W 3365   4.745   6.747   3.718
31106W        W 3366  11.192  38.504   2.141
31107W        W 3367  20.550  33.917   3.170
31108W        W 3368  24.644  37.395   4.136
31109W        W 3369  20.999  12.159   0.383
31110W        W 3370  16.642   5.495  14.409
31111W        W 3371  21.999  33.250   1.304
31112W        W 3372   5.038  15.150  13.119
31113W        W 3373  42.407  24.240   0.505
31114W        W 3374  33.250  27.939  14.784
31115W        W 3375  32.103  13.760  13.443
31116W        W 3376  26.420  25.503   3.936
31117W        W 3377  26.099  24.740  12.923
31118W        W 3378  30.325   2.815  14.133
31119W        W 3379   6.585  32.995  10.828
31120W        W 3380   3.574  22.210  10.684
31121W        W 3381  16.681  43.050   3.275
31122W        W 3382  35.547  13.336  10.645
31123W        W 3383  14.618   8.060  10.811
31124W        W 3384  13.866  17.916   5.414
31125W        W 3385   2.475   0.399   9.840
31126W        W 3386  11.030   0.566  11.098
31127W        W 3387  14.192   5.231   4.834
31128W        W 3388  18.328  37.892   0.915
31129W        W 3389  30.022   5.429  11.659
31130W        W 3390   1.777  17.038   4.175
31131W        W 3391  39.548  29.089   1.873
31132W        W 3392  20.100  33.853   1.463
31133W        W 3393  21.554  25.434  11.516
31134W        W 3394  29.954   2.991  11.934
31135W        W 3395  19.495  10.455   3.205
31136W        W 3396  37.069  20.978  12.940
31137W        W 3397  38.417  31.459   3.782
31138W        W 3398   9.206   8.694  10.704
31139W        W 3399  30.233   3.857   2.854
31140W        W 3400   4.521  40.559   2.424
31141W        W 3401  39.027   8.376   2.324
31142W        W 3402  32.256  17.710   4.649
31143W        W 3403  25.761  17.392  11.275
31144W        W 3404   2.945  16.802  14.917
31145W        W 3405  36.299   7.464  12.346
31146W        W 3406  33.272   7.896  11.250
31147W        W 3407  42.945  39.476   1.348
31148W        W 3408  35.697  27.911   1.704
31149W        W 3409  36.508  20.889   3.069
31150W        W 3410  19.813  25.453   0.884
31151W        W 3411  10.933  32.348   0.985
31152W        W 3412  11.856  43.880   3.798
31153W        W 3413  22.905   7.968   3.720
31154W        W 3414   3.312   1.479  13.864
31155W        W 3415  36.048  36.557   3.277
31156W        W 3416  40.436  17.616  12.480
31157W        W 3417  17.035  30.927   0.876
31158W        W 3418   8.867  26.599   1.384
31159W        W 3419  42.519   6.173  11.463
31160W        W 3420   7.930  31.612  14.929
31161W        W 3421   9.024  26.270   2.691
31162W        W 3422  17.799  42.241   2.360
31163W        W 3423  36.417  36.529  10.646
31164W        W 3424  14.744  23.613   4.598
31165W        W 3425   5.244  37.014  13.491
31166W        W 3426  43.055  38.928   0.406
31167W        W 3427  25.165  30.431   3.235
31168W        W 3428  34.033   1.658  10.902
31169W        W 3429  10.697  26.942   0.321
31170W        W 3430  12.775   7.921  10.714
31171W        W 3431  11.779  17.323  11.179
31172W        W 3432  37.639   2.424  10.792
31173W        W 3433  11.891  36.900  14.710
31174W        W 3434  31.175  22.302  13.913
31175W        W 3435   5.762   2.176  13.703
31176W        W 3436  44.332  25.605   2.814
31177W        W 3437   9.357  15.093   1.268
31178W        W 3438   3.377  36.307  10.121
31179W        W 3439  31.233  27.104   1.300
31180W        W 3440  30.469  31.847   5.039
31181W        W 3441  17.075  16.798  12.551
31182W        W 3442   4.480  31.161   0.936
31183W        W 3443   3.455  28.959   5.017
31184W        W 3444  13.716  28.096   9.782
31185W        W 3445  41.019  39.254   3.333
31186W        W 3446   8.746  23.158  14.326
31187W        W 3447  44.356  18.211   2.643
31188W        W 3448   2.671  39.340  10.715
31189W        W 3449  41.453  29.959   1.029
31190W        W 3450  30.246   9.610   3.137
31191W        W 3451  16.664   5.918   4.554
31192W        W 3452  35.148  20.114  10.567
31193W        W 3453  20.890  14.163  10.618
31194W        W 3454  38.345  40.604   3.558
31195W        W 3455   1.810   8.429   1.336
31196W        W 3456  29.023  15.484   1.344
31197W        W 3457  26.671  28.678   3.145
31198W        W 3458  41.887  43.214  13.139
31199W        W 3459  11.123   0.450  11.623
31200W        W 3460  11.768  42.852  12.952
31201W        W 3461   8.678  13.913  14.692
31202W        W 3462  30.234   5.264  12.103
31203W        W 3463  15.470  18.640   0.266
31204W        W 3464  42.997  21.742  12.240
31205W        W 3465  25.690  13.443   2.688
31206W        W 3466   9.421   9.745  12.180
31207W        W 3467  14.764  37.481   3.625
31208W        W 3468  23.591  16.129   1.179
31209W        W 3469  10.909  41.425   1.011
31210W        W 3470  32.599   3.299   0.744
31211W        W 3471  12.362  11.549  13.771
31212W        W 3472  36.846  15.114   4.140
31213W        W 3473  25.936  31.656  14.788
31214W        W 3474   7.701  21.970   2.409
31215W        W 3475  32.386  44.820   1.365
31216W        W 3476   8.622  33.134   0.123
31217W        W 3477  30.488  13.053  14.872
31218W        W 3478  38.423  18.569  14.357
31219W        W 3479   4.636  15.318  14.069
31220W        W 3480  44.611  28.246   4.156
31221W        W 3481  35.558   6.750  10.492
31222W        W 3482  37.905  32.862  12.408
31223W        W 3483  21.165  17.131  14.754
31224W        W 3484  33.076  42.265  13.943
31225W        W 3485  21.401  22.499   2.276
31226W        W 3486  25.907   8.233   4.525
31227W        W 3487   4.306  17.001  13.239
31228W        W 3488   2.154  22.848   3.846
31229W        W 3489  18.769  39.911   1.408
31230W        W 3490  42.010  11.349   3.696
31231W        W 3491  18.196   7.624  11.095
31232W        W 3492  37.905  41.066  12.484
31233W        W 3493  43.751  44.757  14.453
31234W        W 3494   7.493  22.243   2.031
31235W        W 3495  19.099  37.957   4.750
31236W        W 3496  26.465  32.012   0.428
31237W        W 3497   5.992  37.790  13.418
31238W        W 3498  28.173  28.692  14.784
31239W        W 3499  30.525  36.579  13.927
31240W        W 3500  27.929  43.400  12.640
31241W        W 3501  41.300   6.156   4.319
31242W        W 3502  32.519  18.721   3.797
31243W        W 3503  16.828  29.557  12.462
31244W        W 3504  27.694  19.211  10.614
31245W        W 3505  34.686  21.727   1.525
31246W        W 3506  17.185  15.590   0.507
31247W        W 3507  34.391  28.287  12.457
31248W        W 3508  32.919   5.013   4.052
31249W        W 3509  26.766  10.672  10.971
31250W        W 3510  18.171  34.210  12.575
31251W        W 3511  10.188  26.983  13.999
31252W        W 3512  15.637  14.388  12.529
31253W        W 3513  26.075  41.117   1.711
31254W        W 3514  27.663  36.148  14.435
31255W        W 3515   9.273  10.259  14.021
31256W        W 3516  30.592  43.177   2.726
31257W        W 3517  43.366  12.085   2.623
31258W        W 3518  32.639  39.726  12.525
31259W        W 3519   4.462  19.148   4.253
31260W        W 3520  17.220  34.527   3.862
31261W        W 3521   2.702  31.659  10.737
31262W        W 3522  41.669  12.318   2.901
31263W        W 3523  22.814  23.675  12.940
31264W        W 3524  37.433  30.872  11.260
31265W        W 3525  26.637  22.045  10.137
31266W        W 3526  44.484   3.424   4.913
31267W        W 3527  36.884  24.862   4.450
31268W        W 3528  39.044   6.411   1.598
31269W        W 3529  30.988  31.127   0.666
31270W        W 3530  37.965   6.804  13.475
31271W        W 3531  40.785   2.296  11.975
31272W        W 3532  23.289  35.918  11.134
31273W        W 3533   2.269  14.711  13.012
31274W        W 3534   9.880  10.788   1.763
31275W        W 3535  17.153  35.103  13.694
31276W        W 3536   3.045  36.449  10.945
31277W        W 3537  13.671   8.532   5.180
31278W        W 3538  23.751  13.237  13.511
31279W        W 3539  33.361   2.944  12.004
31280W        W 3540   8.892  27.276   2.855
31281W        W 3541  34.842  37.946  12.385
31282W        W 3542   0.366  40.275  14.861
31283W        W 3543  26.503  22.609   4.573
31284W        W 3544   5.537  13.879   1.966
31285W        W 3545  41.320  36.469   4.156
31286W        W 3546  32.568  19.595  12.333
31287W        W 3547  10.160   3.950  12.012
31288W        W 3548  28.587   9.072  11.107
31289W        W 3549   2.315  19.274   4.631
31290W        W 3550  40.960   6.203   3.714
31291W        W 3551  42.732  29.142  12.034
31292W        W 3552  32.446  32.046   4.863
31293W        W 3553  17.050  11.669  12.827
31294W        W 3554   4.730  35.722  14.503
31295W        W 3555  11.338  23.702  13.009
31296W        W 3556  41.962  18.178   0.747
31297W        W 3557  31.061   7.372   2.930
31298W        W 3558  36.741   6.817   2.935
31299W        W 3559  15.178  11.975   1.241
31300W        W 3560  17.308  16.055  11.588
31301W        W 3561  12.572  41.398  14.004
31302W        W 3562  21.117   5.004   1.870
31303W        W 3563  41.350  14.297  10.401
31304W        W 3564  36.584  31.066   0.689
31305W        W 3565   2.050  32.625   0.479
31306W        W 3566  43.175  39.084   3.547
31307W        W 3567  24.704  15.785   2.806
31308W        W 3568  32.576  20.223   2.246
31309W        W 3569  12.862  35.869  10.703
31310W        W 3570  11.567  24.012   1.409
31311W        W 3571  10.756  38.532   2.912
31312W        W 3572  41.875   8.440  14.227
31313W        W 3573   9.113  17.310   3.748
31314W        W 3574  40.282  14.276   1.297
31315W        W 3575  34.930  41.389  13.798
31316W        W 3576  34.631  11.390  12.954
31317W        W 3577  23.732  22.671   1.818
31318W        W 3578   3.987  36.588   1.460
31319W        W 3579   5.971  12.573   4.021
31320W        W 3580  31.556  42.568  14.316
31321W        W 3581  41.250  12.118   1.289
31322W        W 3582   3.924  24.149  12.071
31323W        W 3583  30.136  15.398   3.711
31324W        W 3584   7.026  28.447   5.441
31325W        W 3585  39.148  44.674  12.753
31326W        W 3586  14.810  32.506   1.736
31327W        W 3587  13.266   4.369   2.731
31328W        W 3588  14.342  28.003   5.455
31329W        W 3589  20.448  37.403   0.485
31330W        W 3590  31.455  15.401   3.223
31331W        W 3591  13.805  22.851  14.755
31332W        W 3592  17.252  17.498  13.326
31333W        W 3593   9.013  25.064  14.080
31334W        W 3594  38.978  30.968  14.988
31335W        W 3595   4.533   7.207  13.407
31336W        W 3596   2.029  42.492   2.892
31337W        W 3597  34.557  28.730   0.172
31338W        W 3598   7.209  11.119  13.095
31339W        W 3599   2.526  44.565  12.310
31340W        W 3600  20.008  12.441   0.397
31341W        W 3601  27.646  42.899  12.522
31342W        W 3602  36.963  44.112  13.018
31343W        W 3603  13.165  18.784   2.899
31344W        W 3604  13.579   2.901   4.237
31345W        W 3605  41.970  35.645   4.152
31346W        W 3606  29.482  33.402   9.719
31347W        W 3607  32.066  10.907   2.465
31348W        W 3608   6.866   1.853  13.909
31349W        W 3609  19.054  39.747  13.419
31350W        W 3610  20.209  33.059  11.049
31351W        W 3611  15.064  27.562   4.720
31352W        W 3612  44.553   3.922  12.984
31353W        W 3613  16.417  17.721   2.777
31354W        W 3614  23.971   7.727  10.654
31355W        W 3615  39.347   7.868   3.167
31356W        W 3616  27.110  32.166   0.850
31357W        W 3617  34.959  21.765   3.207
31358W        W 3618   3.390  25.652  12.105
31359W        W 3619  19.364   2.305  11.256
31360W        W 3620  32.695  28.251   0.625
31361W        W 3621  10.376  43.732  10.367
31362W        W 3622   1.729  29.921  13.880
31363W        W 3623  43.872  42.490  13.748
31364W        W 3624  15.318  28.117   1.500
31365W        W 3625  10.379  30.016  13.965
31366W        W 3626  39.289  14.156   5.186
31367W        W 3627  24.113  28.410   5.132
31368W        W 3628   4.675   7.997   3.417
31369W        W 3629   8.922  27.826  11.800
31370W        W 3630  18.934  38.829   2.487
31371W        W 3631  27.734   2.637   4.024
31372W        W 3632  42.734   7.603   3.513
31373W        W 3633  19.972  40.812   1.801
31374W        W 3634  11.813   9.898  14.247
31375W        W 3635  32.227  29.465  11.584
31376W        W 3636  37.482  37.604  14.408
31377W        W 3637  32.121   1.776  14.454
31378W        W 3638  41.979   8.706  13.403
31379W        W 3639   8.846  33.115  10.776
31380W        W 3640  12.619   4.052  14.316
31381W        W 3641  44.835  39.281   0.286
31382W        W 3642  41.450  30.214   2.439
31383W        W 3643   2.849  16.264   2.810
31384W        W 3644  10.979   5.152  14.296
31385W        W 3645  41.318   2.696   1.881
31386W        W 3646  11.821  31.679  11.345
31387W        W 3647  44.984  32.518  10.644
31388W        W 3648  22.379  33.643   1.200
31389W        W 3649  38.433  22.964   1.009
31390W        W 3650  29.000   5.780  10.569
31391W        W 3651  16.303  42.589  11.118
31392W        W 3652  13.736   4.386   4.007
31393W        W 3653  35.876  38.986  13.834
31394W        W 3654  44.506  30.384  12.376
31395W        W 3655  28.910  11.377  13.280
31396W        W 3656  38.927   3.747   2.826
31397W        W 3657   5.924  40.566  13.718
31398W        W 3658  13.695   6.922   0.863
31399W        W 3659  22.448  21.561  12.380
31400W        W 3660   3.320  20.801   1.610
31401W        W 3661   4.001   0.830   3.650
31402W        W 3662   2.607  40.473   0.400
31403W        W 3663  44.468  22.502  10.646
31404W        W 3664  28.789  38.489   4.182
31405W        W 3665   0.032  29.910  11.056
31406W        W 3666  39.010  29.482   2.420
31407W        W 3667  10.336  23.191  11.645
31408W        W 3668  27.188   9.722   3.820
31409W        W 3669  41.488  14.322  12.482
31410W        W 3670  38.587  40.864  13.529
31411W        W 3671  39.793  26.113  10.331
31412W        W 3672   5.332  23.902   0.040
31413W        W 3673  12.131  22.203   4.229
31414W        W 3674   0.794  42.508  14.715
31415W        W 3675  10.437   1.800  14.488
31416W        W 3676  29.148   4.275   3.136
31417W        W 3677  33.391  11.360   0.471
31418W        W 3678  44.740  39.997   3.227
31419W        W 3679  27.654  33.402   4.275
31420W        W 3680   2.403  19.790   4.647
31421W        W 3681  16.581  37.480   0.545
31422W        W 3682   9.720  41.481   3.265
31423W        W 3683  28.414   0.409   3.019
31424W        W 3684  19.314  20.249  14.599
31425W        W 3685  36.002  42.899  12.988
31426W        W 3686  39.529  21.824   2.350
31427W        W 3687  30.312   8.289  13.512
31428W        W 3688  17.925  40.964  10.626
31429W        W 3689  22.456  21.631  11.877
31430W        W 3690  39.557  35.999   2.748
31431W        W 3691  42.222  31.480  12.160
31432W        W 3692  42.414  40.417  11.078
31433W        W 3693  28.676  44.790   4.473
31434W        W 3694  32.910   5.738  14.153
31435W        W 3695  42.310   6.680   0.931
31436W        W 3696  30.996  22.770  12.414
31437W        W 3697  34.162  23.088   4.638
31438W        W 3698  20.193  35.835   2.697
31439W        W 3699  17.209  26.860   0.507
31440W        W 3700  28.760  31.964  12.470
31441W        W 3701  43.304  36.560   4.765
31442W        W 3702  31.278  33.666   0.589
31443W        W 3703  31.486  36.585   4.564
31444W        W 3704  12.169  38.979   4.587
31445W        W 3705  17.126   6.785   3.547
31446W        W 3706  30.264  38.082  14.713
31447W        W 3707  28.416  34.126  14.488
31448W        W 3708  37.815  21.732  13.462
31449W        W 3709  34.510   3.188  14.484
31450W        W 3710  19.269  32.577  11.275
31451W        W 3711  41.413  16.041   2.813
31452W        W 3712  14.023  41.724   1.444
31453W        W 3713   5.727  38.324  11.825
31454W        W 3714  34.075  16.160   1.227
31455W        W 3715  38.632   0.424  11.694
31456W        W 3716  26.042  39.942  10.704
31457W        W 3717  38.025  19.068   3.149
31458W        W 3718  40.358  14.764   0.450
31459W        W 3719  25.065  38.506   0.745
31460W        W 3720  42.528  34.232   0.815
31461W        W 3721  22.646  18.147   0.251
31462W        W 3722  24.233  17.170   3.210
31463W        W 3723  20.901  14.916   4.127
31464W        W 3724  43.423  23.993   3.159
31465W        W 3725   5.894  12.075   4.186
31466W        W 3726  14.349   4.901   3.327
31467W        W 3727   7.243  40.168  11.066
31468W        W 3728   6.171  28.547   1.328
31469W        W 3729   8.170  13.154  14.837
31470W        W 3730  14.661  33.407  11.226
31471W        W 3731  26.045  39.137   3.312
31472W        W 3732   3.945  13.857  13.113
31473W        W 3733  24.779   4.692   5.365
31474W        W 3734  43.323  32.112  12.941
31475W        W 3735   8.705  10.759   3.615
31476W        W 3736  20.323  31.205  11.472
31477W        W 3737   1.237  22.676  12.437
31478W        W 3738  20.768  13.136   3.596
31479W        W 3739   7.128  24.744  14.002
31480W        W 3740  16.514  43.390   1.483
31481W        W 3741  26.125   0.286  14.974
31482W        W 3742  16.095  37.823  13.419
31483W        W 3743  23.841   0.102  13.519
31484W        W 3744  25.705  14.348   0.820
31485W        W 3745  17.016  24.523  13.814
31486W        W 3746  23.528  21.323   2.737
31487W        W 3747  28.493  32.940  11.375
31488W        W 3748  10.249  30.128   1.610
31489W        W 3749   6.238  27.524  14.520
31490W        W 3750  38.480  33.448  10.886
31491W        W 3751  14.887  42.364  12.114
31492W        W 3752  40.340  31.602  13.916
31493W        W 3753  26.018  38.784   1.313
31494W        W 3754  26.272  22.330  11.084
31495W        W 3755  16.321  38.968  13.014
31496W        W 3756  43.434  43.989   1.429
31497W        W 3757  40.394  22.514  10.579
31498W        W 3758  19.908  29.126   0.308
31499W        W 3759  40.804  24.946   3.576
31500W        W 3760   4.754  31.396  12.820
31501W        W 3761   4.299  43.028   1.650
31502W        W 3762  12.300  34.396  13.901
31503W        W 3763  35.965  14.698  14.759
31504W        W 3764   7.217  32.093   4.142
31505W        W 3765  41.084  20.013   0.044
31506W        W 3766  31.648  18.554   4.326
31507W        W 3767  11.964  13.621  14.231
31508W        W 3768  17.045  37.073  13.083
31509W        W 3769   1.723  27.169   0.949
31510W        W 3770  28.130  25.118   1.156
31511W        W 3771  11.730  31.047   3.373
31512W        W 3772  28.386   5.365   3.745
31513W        W 3773  37.672   2.432   1.865
31514W        W 3774  11.293   3.231  11.601
31515W        W 3775   1.013  21.306   4.477
31516W        W 3776  29.408   2.899   0.484
31517W        W 3777   2.660  10.177   1.525
31518W        W 3778  33.485   6.294   2.776
31519W        W 3779  11.289   0.013  11.916
31520W        W 3780  24.653   5.740   4.311
31521W        W 3781  18.189  11.964  13.925
31522W        W 3782  33.995  23.985  14.496
31523W        W 3783   7.413   5.759  12.888
31524W        W 3784   9.232  14.923   2.384
31525W        W 3785   8.074  12.942  11.133
31526W        W 3786  38.346   9.800   1.459
31527W        W 3787  14.239   3.157  13.839
31528W        W 3788  14.268   1.071   2.806
31529W        W 3789   2.334  32.327   0.864
31530W        W 3790  27.221  30.198  14.732
31531W        W 3791  25.425  20.805  14.827
31532W        W 3792  32.354   2.144  12.141
31533W        W 3793  31.323  12.634  13.635
31534W        W 3794  10.731   0.002  14.207
31535W        W 3795  21.012   0.030  11.541
31536W        W 3796  21.004  44.989   0.960
31537W        W 3797  29.498  19.461  14.021
31538W        W 3798  33.107  40.483   2.190
31539W        W 3799  10.856  31.869   0.795
31540W        W 3800  25.171   0.444   3.059
31541W        W 3801  16.867  31.457   0.574
31542W        W 3802  15.001  38.601   4.921
31543W        W 3803  35.327  35.911  13.873
31544W        W 3804  23.336  16.770  14.378
31545W        W 3805   7.312  43.432  10.314
31546W        W 3806  14.394  34.022  10.625
31547W        W 3807  18.545   0.772   3.412
31548W        W 3808  25.877   8.198  12.933
31549W        W 3809  18.021   7.238   0.856
31550W        W 3810  13.437   4.415  11.554
31551W        W 3811  44.620  22.125   1.394
31552W        W 3812  39.011  40.510  13.846
31553W        W 3813  20.110  24.213  13.391
31554W        W 3814   9.225  39.020   3.609
31555W        W 3815  37.213  15.098   1.018
31556W        W 3816  40.969  17.604  12.464
31557W        W 3817   2.222  43.303   2.319
31558W        W 3818  42.976  28.059   1.027
31559W        W 3819  10.623  24.414  13.720
31560W        W 3820  16.243  22.144   4.434
31561W        W 3821   5.498   2.264   2.752
31562W        W 3822  13.153  31.103   0.944
31563W        W 3823  12.701  21.552   0.559
31564W        W 3824  35.623   0.112   4.458
31565W        W 3825   2.231   5.468   2.435
31566W        W 3826  23.550  35.390   0.365
31567W        W 3827   0.778  30.368  14.882
31568W        W 3828  13.071  40.979   0.183
31569W        W 3829  25.460  19.847  14.269
31570W        W 3830  11.528  11.633   4.548
31571W        W 3831  20.386  10.491   5.215
31572W        W 3832  42.676   7.395  13.117
31573W        W 3833  30.680  26.457   4.722
31574W        W 3834  35.035  11.069  13.959
31575W        W 3835  30.491   3.417   3.224
31576W        W 3836  12.153   6.187   4.169
31577W        W 3837  38.828   3.094   4.269
31578W        W 3838  12.074   6.272  11.251
31579W        W 3839  13.808  44.004  12.628
31580W        W 3840  36.154  36.500   0.291
31581W        W 3841  14.692  26.215  11.948
31582W        W 3842   8.011  13.420  11.517
31583W        W 3843   8.623  42.447   2.262
31584W        W 3844  38.124  10.338   0.882
31585W        W 3845  14.182  42.847  12.141
31586W        W 3846   9.815  24.992   2.325
31587W        W 3847  38.946  19.887   3.840
31588W        W 3848  37.255  29.098   2.117
31589W        W 3849  32.369   7.854   3.028
31590W        W 3850   3.257  10.667  13.871
31591W        W 3851   4.180  22.164  11.575
31592W        W 3852   1.092  41.928  14.985
31593W        W 3853  33.381  41.445  10.845
31594W        W 3854  24.527  11.342   1.477
31595W        W 3855  37.307  44.435   0.850
31596W        W 3856  40.992  25.594  14.259
31597W        W 3857  37.316  44.463  11.522
31598W        W 3858  19.087  29.933   2.694
31599W        W 3859  31.455  25.266  13.578
31600W        W 3860   4.656  36.806   4.516
31601W        W 3861  12.375  37.747   3.101
31602W        W 3862  25.579  34.951   3.923
31603W        W 3863  31.886  36.351  12.810
31604W        W 3864   4.308  27.419   4.465
31605W        W 3865   2.967  34.961  11.668
31606W        W 3866  33.067  41.728   4.221
31607W        W 3867   0.020  39.356  13.838
31608W        W 3868  44.647  15.504   2.499
31609W        W 3869  28.421  44.718  12.446
31610W        W 3870  26.598   5.360  10.547
31611W        W 3871  43.843  26.086  14.947
31612W        W 3872  25.462  29.481   0.029
31613W        W 3873  38.448  13.111   0.891
31614W        W 3874   2.404  11.680   2.337
31615W        W 3875  43.739  39.458  11.245
31616W        W 3876  32.154  18.964   4.970
31617W        W 3877  24.236   8.252  13.477
31618W        W 3878  37.332  15.069   0.013
31619W        W 3879  17.518  14.825  11.941
31620W        W 3880  42.875  15.178  10.389
31621W        W 3881  43.891   4.413  10.367
31622W        W 3882   0.130   9.529   3.288
31623W        W 3883  44.681  44.290  13.847
31624W        W 3884  27.673  44.797   3.675
31625W        W 3885  23.667  32.590  10.900
31626W        W 3886  23.088   6.321   2.776
31627W        W 3887  28.335  33.963   1.247
31628W        W 3888  12.728  44.560  11.078
31629W        W 3889   0.372  37.948  10.889
31630W        W 3890  20.376  21.614  14.212
31631W        W 3891  27.000  15.608   3.843
31632W        W 3892  32.195  16.580  10.684
31633W        W 3893  21.904  30.045  11.149
31634W        W 3894  16.170  12.553   0.738
31635W        W 3895  21.760   3.181   1.857
31636W        W 3896  11.635  19.193  12.870
31637W        W 3897  19.131  11.607  12.954
31638W        W 3898  23.747  38.412  12.886
31639W        W 3899  34.524  24.073  11.106
31640W        W 3900  16.082   4.791  14.013
31641W        W 3901   3.160  10.325  10.305
31642W        W 3902  26.011   4.310   3.318
31643W        W 3903  37.809  44.407  11.318
31644W        W 3904  15.119  27.903  13.983
31645W        W 3905  22.619   7.471  13.217
31646W        W 3906  12.761  23.968  11.024
31647W        W 3907  25.223  19.656  10.689
31648W        W 3908  22.555  10.226  12.427
31649W        W 3909  15.297  38.190   4.592
31650W        W 3910  11.229  35.250   3.439
31651W        W 3911  42.978   8.571  12.534
31652W        W 3912   6.932  21.628   4.435
31653W        W 3913  25.194  16.732  14.545
31654W        W 3914  31.498  38.958   2.784
31655W        W 3915  20.046  38.786  12.955
31656W        W 3916  19.163   4.986  14.892
31657W        W 3917  40.306  35.808   1.455
31658W        W 3918  11.188  27.659   1.420
31659W        W 3919   2.844  43.827  12.496
31660W        W 3920  21.419  19.050   4.511
31661W        W 3921  20.835  38.499  13.006
31662W        W 3922  20.936   2.250   1.449
31663W        W 3923  12.623   9.867  10.615
31664W        W 3924  28.088  41.292  12.119
31665W        W 3925  11.169  17.109  14.444
31666W        W 3926  27.090   0.703  14.414
31667W        W 3927   1.402  41.058   0.373
31668W        W 3928   7.725   2.480   4.525
31669W        W 3929  13.051  25.243   5.242
31670W        W 3930  22.722  33.500   3.869
31671W        W 3931  42.382  12.574  13.236
31672W        W 3932  31.816  28.771  11.146
31673W        W 3933  38.394  26.041   1.405
31674W        W 3934  40.866   9.901  13.279
31675W        W 3935  37.579  19.678  12.894
31676W        W 3936  13.875  30.709   0.219
31677W        W 3937  10.223  19.005  12.700
31678W        W 3938  12.901   6.125  13.060
31679W        W 3939   9.358   3.955   0.246
31680W        W 3940   6.599   1.392   1.663
31681W        W 3941   2.444   7.957  11.952
31682W        W 3942   8.286  29.547   1.292
31683W        W 3943  29.373  42.351   1.384
31684W        W 3944  18.491  14.746   0.453
31685W        W 3945  16.367  20.477  10.662
31686W        W 3946  19.064   9.382   0.683
31687W        W 3947  25.939  11.413   4.189
31688W        W 3948  23.549  31.395   0.004
31689W        W 3949  31.055   9.163  11.315
31690W        W 3950  33.667  22.231   4.816
31691W        W 3951  13.142   2.215  14.214
31692W        W 3952  36.682  19.509   5.648
31693W        W 3953  27.388  21.736   4.090
31694W        W 3954  16.124  18.256   2.811
31695W        W 3955  27.479  21.079  14.522
31696W        W 3956   6.383   3.899  13.490
31697W        W 3957  37.807  30.466   0.928
31698W        W 3958  11.635  26.842  12.809
31699W        W 3959  22.228  25.900   4.624
31700W        W 3960  35.261  15.593  12.648
31701W        W 3961   2.971  35.055   1.757
31702W        W 3962  38.388  20.377  14.928
31703W        W 3963  42.460  31.281   1.854
31704W        W 3964  34.140  19.330  10.396
31705W        W 3965  34.350   8.995  13.485
31706W        W 3966  11.266   5.600   0.010
31707W        W 3967  28.861  19.196  11.168
31708W        W 3968  17.808   2.008   1.364
31709W        W 3969  13.505  11.233  10.933
31710W        W 3970  42.751  17.187  14.907
31711W        W 3971   3.934  33.584   2.484
31712W        W 3972  25.267  11.913   3.161
31713W        W 3973   1.708  20.825   0.357
31714W        W 3974   2.258   5.353  12.608
31715W        W 3975  36.975  36.916   3.717
31716W        W 3976  31.468   4.526  10.471
31717W        W 3977  27.209  39.329   2.827
31718W        W 3978  41.571  32.840   0.593
31719W        W 3979   3.096  10.422   1.334
31720W        W 3980   7.681  23.716  12.058
31721W        W 3981  15.374  41.001   2.694
31722W        W 3982  37.371   3.522   0.463
31723W        W 3983  32.317  41.273  11.655
31724W        W 3984  15.643  25.234   2.934
31725W        W 3985   4.149  12.859   3.158
31726W        W 3986   1.509   0.995   3.216
31727W        W 3987  42.271   5.250  12.393
31728W        W 3988  16.024  14.626   3.087
31729W        W 3989  12.839   2.505  11.102
31730W        W 3990   7.727  11.604   3.193
31731W        W 3991  14.280  13.863   1.708
31732W        W 3992  23.529  17.594   4.824
31733W        W 3993  42.484   6.984  11.085
31734W        W 3994  17.337   7.283  12.459
31735W        W 3995  24.709   3.827   4.024
31736W        W 3996  43.732  21.659   1.088
31737W        W 3997  11.938  33.948  10.987
31738W        W 3998  24.980  21.031   2.323
31739W        W 3999  20.263   2.681   0.349
31740W        W 4000  25.482  17.594  10.858
31741W        W 4001  10.319  14.614  14.903
31742W        W 4002  13.958   0.256   0.082
31743W        W 4003  20.678  35.280   2.267
31744W        W 4004  31.016  11.300  12.848
31745W        W 4005  11.093   6.586   4.200
31746W        W 4006   5.245   6.796  12.648
31747W        W 4007  43.043  37.099  13.421
31748W        W 4008  26.423  40.811  12.817
31749W        W 4009  44.437  35.870   3.674
31750W        W 4010  35.323  26.052  13.093
31751W        W 4011  11.325  28.070   2.325
31752W        W 4012  29.423  14.603   2.740
31753W        W 4013  33.653  22.498   1.398
31754W        W 4014  36.933  32.356  11.331
31755W        W 4015  20.451  38.066   3.112
31756W        W 4016  11.494  30.239   5.512
31757W        W 4017  42.519   6.467   2.772
31758W        W 4018   7.299  22.483   4.976
31759W        W 4019  17.593  32.493  13.042
31760W        W 4020  44.440  27.139   2.505
31761W        W 4021   8.686  41.742   4.663
31762W        W 4022  40.160  25.676  14.683
31763W        W 4023  29.901  42.876  12.930
31764W        W 4024   4.942  26.625   3.058
31765W        W 4025   4.784  31.361   3.717
31766W        W 4026  38.943  26.192   3.917
31767W        W 4027  29.879  39.451   2.053
31768W        W 4028   8.782  11.075   0.378
31769W        W 4029  12.552  38.876  12.302
31770W        W 4030  29.041  10.307  14.795
31771W        W 4031  27.779  27.165  13.961
31772W        W 4032  22.644   5.833   4.584
31773W        W 4033   4.947  11.096   2.167
31774W        W 4034  38.828  24.491  11.399
31775W        W 4035  30.186  31.667   3.813
31776W        W 4036  28.833  17.112  11.917
31777W        W 4037   7.145  16.654   2.662
31778W        W 4038  20.322   4.678   2.087
31779W        W 4039  21.108   4.280  12.110
31780W        W 4040  14.263  20.169   4.684
31781W        W 4041   3.448  43.876  14.805
31782W        W 4042  39.539  35.586   0.746
31783W        W 4043  24.060  43.215   4.055
31784W        W 4044  37.013   7.941   3.111
31785W        W 4045  25.715  18.032   2.747
31786W        W 4046  28.585   0.920  13.806
31787W        W 4047  35.329  19.679  13.529
31788W        W 4048  15.303   8.743  13.480
31789W        W 4049  30.932  30.033  13.519
31790W        W 4050  41.574   2.954  13.333
31791W        W 4051   7.969  26.731   4.101
31792W        W 4052   5.433  31.114   3.418
31793W        W 4053   2.112  38.625   1.746
31794W        W 4054  12.748  36.595   2.114
31795W        W 4055   5.262  23.014   1.209
31796W        W 4056   8.910   0.162  10.435
31797W        W 4057  19.303   0.797   1.282
31798W        W 4058  10.606  44.693   2.617
31799W        W 4059  10.980   7.941  12.003
31800W        W 4060  28.522  34.058  12.114
31801W        W 4061  10.610   4.149  12.535
31802W        W 4062   4.188  29.661   3.675
31803W        W 4063  26.141  20.808   0.716
31804W        W 4064  28.652  38.320  11.932
31805W        W 4065  25.647  35.926   3.638
31806W        W 4066  30.240  27.783  13.455
31807W        W 4067  18.449  35.875   1.229
31808W        W 4068  34.857  19.145  11.873
31809W        W 4069   7.442   1.814   3.158
31810W        W 4070   6.929  10.207   1.877
31811W        W 4071  38.784   4.655   2.883
31812W        W 4072  34.024   2.912   4.354
31813W        W 4073   4.941  15.788  14.023
31814W        W 4074  15.692  10.866  13.018
31815W        W 4075   3.300  40.909  14.838
31816W        W 4076  44.013   4.624  13.276
31817W        W 4077   5.115  43.173   5.029
31818W        W 4078  30.231  40.078   3.686
31819W        W 4079  14.381  26.977   2.683
31820W        W 4080  14.807  44.681   2.762
31821W        W 4081  30.813  43.490   3.260
31822W        W 4082   9.637  24.857  10.764
31823W        W 4083  27.574  20.153   0.537
31824W        W 4084  14.541  32.097  14.835
31825W        W 4085  24.077  31.997   0.035
31826W        W 4086  20.013  38.549  13.411
31827W        W 4087  13.267  23.051   0.322
31828W        W 4088  28.244  29.600  11.268
31829W        W 4089  40.508  42.344  10.694
31830W        W 4090  24.000  27.698  10.793
31831W        W 4091   8.207  22.175   4.636
31832W        W 4092  15.126  13.976   4.664
31833W        W 4093  22.932  32.019  12.428
31834W        W 4094  25.501  16.306  13.799
31835W        W 4095  11.293  40.254   1.760
31836W        W 4096   6.810  37.866   4.507
31837W        W 4097  20.696  13.584  14.874
31838W        W 4098  33.005  12.318   3.600
31839W        W 4099  11.675  11.829   2.248
31840W        W 4100  38.082   7.901   4.624
31841W        W 4101  30.449  15.787   1.886
31842W        W 4102   1.845  28.009  12.636
31843W        W 4103  36.074   3.441   2.206
31844W        W 4104  12.715  43.807   4.926
31845W        W 4105  14.907  22.137  12.072
31846W        W 4106  27.484  20.664   0.686
31847W        W 4107  38.581  27.635  11.176
31848W        W 4108  14.265  42.726   4.509
31849W        W 4109  20.700  12.742  14.311
31850W        W 4110  32.615  15.770  12.548
31851W        W 4111  13.341  29.557   4.679
31852W        W 4112  24.593   1.195  12.389
31853W        W 4113   4.609   8.305  13.961
31854W        W 4114  29.887  20.125   2.900
31855W        W 4115  44.739  34.958  13.556
31856W        W 4116  27.515  30.138  14.095
31857W        W 4117  17.388  17.086   2.277
31858W        W 4118  44.060  36.820  13.373
31859W        W 4119   5.103  33.582   1.115
31860W        W 4120  18.057  31.758   1.825
31861W        W 4121  43.356   5.529  14.457
31862W        W 4122  34.012  32.693   2.712
31863W        W 4123  21.645  38.070   0.442
31864W        W 4124  17.869  20.261  11.612
31865W        W 4125  39.873  19.432  11.603
31866W        W 4126  27.502  11.943  12.218
31867W        W 4127  31.116  37.122   1.334
31868W        W 4128   4.840  38.707  11.476
31869W        W 4129   8.653  12.330  12.026
31870W        W 4130  30.101  17.910   2.384
31871W        W 4131  16.038  21.793  11.633
31872W        W 4132  32.232   6.941   1.650
31873W        W 4133  30.477   6.980  12.605
31874W        W 4134  41.221  16.124  11.533
31875W        W 4135  21.695   0.875   3.349
31876W        W 4136  39.373  35.510  14.050
31877W        W 4137  33.144  12.457  10.955
31878W        W 4138   6.651  17.639   1.925
31879W        W 4139  19.773  22.502   3.418
31880W        W 4140   5.900  22.033  11.527
31881W        W 4141   5.981   4.993   1.798
31882W        W 4142  11.411  39.092   3.253
31883W        W 4143   2.968  12.834  13.457
31884W        W 4144  39.124   8.645  13.436
31885W        W 4145   1.549  40.794  12.638
31886W        W 4146   5.237   3.732   3.591
31887W        W 4147  18.531  30.627  14.933
31888W        W 4148  38.932  39.159   1.326
31889W        W 4149  24.782  20.909   0.822
31890W        W 4150  11.791  26.065   1.768
31891W        W 4151  27.431   6.896  14.640
31892W        W 4152  33.448  30.498  10.815
31893W        W 4153  24.716   4.265  10.708
31894W        W 4154  36.732  11.791   4.875
31895W        W 4155  30.543  38.300   0.283
31896W        W 4156   4.783  16.736   2.271
31897W        W 4157  33.074  21.320  12.011
31898W        W 4158  15.777  35.477  14.481
31899W        W 4159  14.432  28.784   3.728
31900W        W 4160  44.506  26.850   3.494
31901W        W 4161  36.994  26.205  10.802
31902W        W 4162  43.317   6.775  14.925
31903W        W 4163  24.908  26.749   1.813
31904W        W 4164   9.298   2.971   2.219
31905W        W 4165  14.339  18.180   1.482
31906W        W 4166  35.140   7.751   4.143
31907W        W 4167  17.746  33.970  10.628
31908W        W 4168   0.308   5.372  11.522
31909W        W 4169  39.248  18.421  12.095
31910W        W 4170  27.156  42.856   2.851
31911W        W 4171  15.025  21.686  14.347
31912W        W 4172  35.680   6.320   4.190
31913W        W 4173  37.551  22.498  11.763
31914W        W 4174  33.766  37.802  14.449
31915W        W 4175  17.202  28.202   0.878
31916W        W 4176   4.134   6.838  12.422
31917W        W 4177  14.192   2.935  12.496
31918W        W 4178  17.562   3.278  11.471
31919W        W 4179  23.602  29.396   1.863
31920W        W 4180  23.443   0.431   4.529
31921W        W 4181  14.133  10.689   4.673
31922W        W 4182  31.007  19.720   0.238
31923W        W 4183  15.823   9.973  12.042
31924W        W 4184  28.132  21.647  13.402
31925W        W 4185  29.382   1.298  14.352
31926W        W 4186  35.983  40.451   0.661
31927W        W 4187  15.253  23.709  13.368
31928W        W 4188  24.149  39.502  14.198
31929W        W 4189   0.901  22.041  13.053
31930W        W 4190   7.879  23.606  12.524
31931W        W 4191  19.858   2.340  11.405
31932W        W 4192  39.834  30.414   2.956
31933W        W 4193   4.373  21.639   4.492
31934W        W 4194  22.784   9.790   4.202
31935W        W 4195  16.143   5.464   1.730
31936W        W 4196  30.827  11.181  10.486
31937W        W 4197  29.150  15.398   4.664
31938W        W 4198  22.215  40.259  13.441
31939W        W 4199  26.980  24.837  14.995
31940W        W 4200  20.223   4.880   4.771
31941W        W 4201  26.674  15.946  12.001
31942W        W 4202  24.333  36.903  11.076
31943W        W 4203  15.074   2.774   2.485
31944W        W 4204  13.211  39.864  10.673
31945W        W 4205  13.170  15.663  10.371
31946W        W 4206  27.224  43.856  12.436
31947W        W 4207  12.908  44.502   0.811
31948W        W 4208  36.072  12.645  12.999
31949W        W 4209   4.209  39.323   1.802
31950W        W 4210  11.760  27.927  10.241
31951W        W 4211  31.054  31.211  12.597
31952W        W 4212  42.156  20.268   4.604
31953W        W 4213  22.621  26.541   3.477
31954W        W 4214  21.233  26.662   0.228
31955W        W 4215   6.235  24.430   0.913
31956W        W 4216  27.247  39.817  12.126
31957W        W 4217  16.569  25.067   2.308
31958W        W 4218  20.609  13.649   1.801
31959W        W 4219  12.039  20.384  12.989
31960W        W 4220  17.572  16.861   4.759
31961W        W 4221  22.002  43.420  12.738
31962W        W 4222  20.056  23.464   2.684
31963W        W 4223  19.625  39.391   3.359
31964W        W 4224  44.770  22.464  11.058
31965W        W 4225  32.019  15.074  13.557
31966W        W 4226   0.469  35.445   2.555
31967W        W 4227  36.519  32.221  10.597
31968W        W 4228  32.311  11.160   1.300
31969W        W 4229   0.872  44.073  13.195
31970W        W 4230  13.815  12.175  11.141
31971W        W 4231  19.179  14.867   2.535
31972W        W 4232  28.613  33.335  13.023
31973W        W 4233  19.191  40.601  13.926
31974W        W 4234  27.924  12.443   3.988
31975W        W 4235   5.872  34.321   4.442
31976W        W 4236  44.830  22.239  12.620
31977W        W 4237  32.123   0.276   4.656
31978W        W 4238  32.480  27.659   1.425
31979W        W 4239   4.950  38.416  10.557
31980W        W 4240   5.714  25.716   1.818
31981W        W 4241   1.484  22.518  11.410
31982W        W 4242  32.895  39.912  12.110
31983W        W 4243  12.870  16.985   4.468
31984W        W 4244  11.641  35.850   4.085
31985W        W 4245  44.360  41.210  10.584
31986W        W 4246  42.541  40.867   4.129
31987W        W 4247  14.212  28.586   0.763
31988W        W 4248  27.644   6.459  14.378
31989W        W 4249   5.998  23.733  14.058
31990W        W 4250  15.723  13.800  10.685
31991W        W 4251  18.538  36.639   1.685
31992W        W 4252  20.420   6.893   0.737
31993W        W 4253  38.103  20.649   2.105
31994W        W 4254  37.751   3.126  10.800
31995W        W 4255  33.295   5.921  13.814
31996W        W 4256  36.580  25.205   2.736
31997W        W 4257  38.484   7.444   0.992
31998W        W 4258  17.615   1.160   3.604
31999W        W 4259  30.732  35.341  14.556
32000W        W 4260  14.220   6.328  11.102
32001W        W 4261  31.411  14.616  12.986
32002W        W 4262  16.197  35.109   0.835
32003W        W 4263  12.589  19.589   1.688
32004W        W 4264  15.833  44.220   4.205
32005W        W 4265  20.800  13.600  10.647
32006W        W 4266  44.882  36.529   2.169
32007W        W 4267  13.152  36.836   2.357
32008W        W 4268  39.474  10.399   4.492
32009W        W 4269  42.644  39.083   0.699
32010W        W 4270  27.062  21.372  14.481
32011W        W 4271  36.881  22.931   2.885
32012W        W 4272  22.878   2.270   3.676
32013W        W 4273   1.803  17.567   2.282
32014W        W 4274  27.022   6.788   2.279
32015W        W 4275   2.432  33.614   4.701
32016W        W 4276   7.522  20.135  13.443
32017W        W 4277  12.294  26.002  14.304
32018W        W 4278  25.783  44.822   3.609
32019W        W 4279  10.316   8.042   4.980
32020W        W 4280   1.341  26.311   1.107
32021W        W 4281  16.791   1.334  12.107
32022W        W 4282  16.962   2.123   5.148
32023W        W 4283   7.819   0.016   3.698
32024W        W 4284  23.702  18.805   0.219
32025W        W 4285  21.893  37.816   0.830
32026W        W 4286  11.098  25.511  14.645
32027W        W 4287  23.257  11.187  14.089
32028W        W 4288  43.816  33.390   3.232
32029W        W 4289   2.742  28.703  10.740
32030W        W 4290  20.017  27.086   3.196
32031W        W 4291  34.488  35.191  13.880
32032W        W 4292  24.648  23.654  12.047
32033W        W 4293  40.899   7.874   2.945
32034W        W 4294   4.232  36.059   0.225
32035W        W 4295  36.320  31.219  14.378
32036W        W 4296  22.250   6.939   2.756
32037W        W 4297  33.666   9.210   0.237
32038W        W 4298  12.037   3.859  13.379
32039W        W 4299   1.746   7.784  13.647
32040W        W 4300  32.070  19.456  12.424
32041W        W 4301  35.385  23.950   2.252
32042W        W 4302  19.641  27.630   3.698
32043W        W 4303  38.530  19.859  14.896
32044W        W 4304  14.286   1.969  10.941
32045W        W 4305  42.917  10.440  10.244
32046W        W 4306   4.436  20.010  10.646
32047W        W 4307  38.341   4.830  14.297
32048W        W 4308  14.134   3.371  11.634
32049W        W 4309  21.001  16.639   1.891
32050W        W 4310  31.470  30.559   0.953
32051W        W 4311   3.691  24.928  12.615
32052W        W 4312  39.355  14.341   3.131
32053W        W 4313   9.632  20.057   3.263
32054W        W 4314   3.464  39.242  10.491
32055W        W 4315  32.463  16.314  14.352
32056W        W 4316  27.645   6.661   1.743
32057W        W 4317   2.816  15.373  13.230
32058W        W 4318  37.480  15.564  13.378
32059W        W 4319  16.581   7.927  12.675
32060W        W 4320  30.637  27.901  11.977
32061W        W 4321  15.747  18.210   4.649
32062W        W 4322  38.393  13.317  11.889
32063W        W 4323   8.296  29.727  13.848
32064W        W 4324  13.138   7.045  11.611
32065W        W 4325  32.237   0.946   3.717
32066W        W 4326  28.023  32.604   2.278
32067W        W 4327  18.160  19.118  14.358
32068W        W 4328  29.664  13.841  11.081
32069W        W 4329  12.660  27.050  11.516
32070W        W 4330  28.145  42.663   1.504
32071W        W 4331   3.381  39.161   3.201
32072W        W 4332  38.395  18.074   0.103
32073W        W 4333  31.954  30.249  12.959
32074W        W 4334  40.497   3.554   3.758
32075W        W 4335  25.091   5.225  12.368
32076W        W 4336  15.799  33.584  10.124
32077W        W 4337  27.238  21.746  14.876
32078W        W 4338  39.100   0.191  12.545
32079W        W 4339  13.255  22.917  14.301
32080W        W 4340  14.372  20.775   2.405
32081W        W 4341   1.094  14.753  12.379
32082W        W 4342  26.607   3.874  11.984
32083W        W 4343  36.963  23.469   1.758
32084W        W 4344  30.868  29.192  14.522
32085W        W 4345  32.155  33.909   1.718
32086W        W 4346  44.234  38.530  10.617
32087W        W 4347   8.158  20.468  13.970
32088W        W 4348  23.247  39.680   4.508
32089W        W 4349  27.021  43.584   2.919
32090W        W 4350  26.683  37.832  10.196
32091W        W 4351  22.186  16.480  12.910
32092W        W 4352  18.087  16.405  12.850
32093W        W 4353   5.202  37.862  12.558
32094W        W 4354  12.637   7.745   3.171
32095W        W 4355  44.492   8.907  12.524
32096W        W 4356  28.071  43.172   1.670
32097W        W 4357  22.010  31.563  13.104
32098W        W 4358  24.213  11.126   0.190
32099W        W 4359  35.387  29.202  12.827
32100W        W 4360  37.396  37.343  13.933
32101W        W 4361  27.861  43.732   3.252
32102W        W 4362   6.267  43.441  10.702
32103W        W 4363  41.535  26.471   3.146
32104W        W 4364  23.311  26.296  13.896
32105W        W 4365   1.642  41.289  14.516
32106W        W 4366  10.194  17.352  14.484
32107W        W 4367  14.790  13.133  11.071
32108W        W 4368   4.520  28.121   1.034
32109W        W 4369  29.546  22.532   1.140
32110W        W 4370   0.814  22.707   0.348
32111W        W 4371  11.774   2.427  14.389
32112W        W 4372   4.749  28.511   0.734
32113W        W 4373  34.470   9.616   3.264
32114W        W 4374  10.310  10.217   0.891
32115W        W 4375  41.871  16.207  14.506
32116W        W 4376  28.436   7.241   0.349
32117W        W 4377  38.865  38.725  14.415
32118W        W 4378  11.806  44.806  13.110
32119W        W 4379  34.228  43.235   0.882
32120W        W 4380   0.441   2.383   0.825
32121W        W 4381  26.227  28.567  11.100
32122W        W 4382  21.188  18.726  11.518
32123W        W 4383  22.209   9.706   0.793
32124W        W 4384  17.222  35.193  12.836
32125W        W 4385   7.889  12.069   4.104
32126W        W 4386  15.863  43.765   0.926
32127W        W 4387  23.162  16.390   1.243
32128W        W 4388   4.632   2.232   4.802
32129W        W 4389  25.959  16.124   3.691
32130W        W 4390  23.434  36.407   0.482
32131W        W 4391   2.761   6.423  11.186
32132W        W 4392  29.478  32.583  13.597
32133W        W 4393  15.573  14.828  10.148
32134W        W 4394  30.281   6.481  12.571
32135W        W 4395  39.833  30.396  12.034
32136W        W 4396   4.871  16.286   4.549
32137W        W 4397  12.807  27.316   2.189
32138W        W 4398  28.335   2.362   1.099
32139W        W 4399   1.199  29.023   0.741
32140W        W 4400  29.956  34.886  14.764
32141W        W 4401  23.034  12.339  14.438
32142W        W 4402  20.996  14.661  10.378
32143W        W 4403  14.341  34.506   3.582
32144W        W 4404  10.134  17.245   4.659
32145W        W 4405  18.229  29.841  13.457
32146W        W 4406  42.535   0.699  12.368
32147W        W 4407   1.079  24.468  11.424
32148W        W 4408  17.209  35.645  11.289
32149W        W 4409   2.001  18.268   4.029
32150W        W 4410  25.087  37.144   4.487
32151W        W 4411  30.541  22.510  12.398
32152W        W 4412  36.560  17.142   0.483
32153W        W 4413  29.638  21.652   3.781
32154W        W 4414  14.457  24.140   0.024
32155W        W 4415   7.855   1.281   2.287
32156W        W 4416   0.966  26.234   4.170
32157W        W 4417  15.196   2.967  10.990
32158W        W 4418  29.721  11.600  11.112
32159W        W 4419  19.726  13.350  12.782
32160W        W 4420  43.614  37.330   2.487
32161W        W 4421  25.241  34.146   1.788
32162W        W 4422  40.490  19.697  11.138
32163W        W 4423   1.388   8.899  14.899
32164W        W 4424   0.909  13.951   2.237
32165W        W 4425  31.285  10.408   0.722
32166W        W 4426   2.237  14.352   2.687
32167W        W 4427   9.657   3.936  11.924
32168W        W 4428  30.007  38.292   2.372
32169W        W 4429  17.550   1.377  11.560
32170W        W 4430  24.049  26.920   2.700
32171W        W 4431  40.005  43.615   3.918
32172W        W 4432   6.830  28.073  11.176
32173W        W 4433  33.468  44.249  11.995
32174W        W 4434  16.779  37.192  13.542
32175W        W 4435  41.782  11.808   3.701
32176W        W 4436  32.551  40.249   3.677
32177W        W 4437   9.331   4.367   3.061
32178W        W 4438   0.911  13.063   4.131
32179W        W 4439  21.830  15.147  11.512
32180W        W 4440  25.739  20.531   0.881
32181W        W 4441  41.646  14.633   3.385
32182W        W 4442  21.634  36.472  13.071
32183W        W 4443  19.073  29.018   4.788
32184W        W 4444   9.621  27.900   3.183
32185W        W 4445   8.842  35.777   2.210
32186W        W 4446  27.870  23.018   5.378
32187W        W 4447  18.660   0.004   2.158
32188W        W 4448  35.350  26.343  12.675
32189W        W 4449   3.221   5.400   4.159
32190W        W 4450  36.081  25.718   2.246
32191W        W 4451   8.243  22.118   0.201
32192W        W 4452   0.927  30.043   4.414
32193W        W 4453  16.187  26.043  12.409
32194W        W 4454   9.383  21.577   1.630
32195W        W 4455  14.102  44.795  11.634
32196W        W 4456  44.466  13.126  14.123
32197W        W 4457  16.188   3.284  14.565
32198W        W 4458  25.809  11.553   2.607
32199W        W 4459  44.577  35.010  12.494
32200W        W 4460  30.028  34.087   3.466
32201W        W 4461   5.752  44.299   3.231
32202W        W 4462   1.491  22.695   4.414
32203W        W 4463  27.292   9.611   2.982
32204W        W 4464  11.786  29.495  11.250
32205W        W 4465  35.842  38.531  14.050
32206W        W 4466  37.524  23.056   4.243
32207W        W 4467  41.299  31.076  14.028
32208W        W 4468  25.598   8.290   0.942
32209W        W 4469  43.404  21.079   4.358
32210W        W 4470  29.159   6.187   0.917
32211W        W 4471  12.414  13.819   2.376
32212W        W 4472  20.306  19.218  10.756
32213W        W 4473   0.983  29.939   1.192
32214W        W 4474  33.064  40.272  12.457
32215W        W 4475   6.497  34.405   3.249
32216W        W 4476  22.502  39.009  14.923
32217W        W 4477   0.420  28.648   4.622
32218W        W 4478  16.011  24.945   0.846
32219W        W 4479  30.976  42.461   1.688
32220W        W 4480  14.429   9.677  12.783
32221W        W 4481  43.496  38.401   2.336
32222W        W 4482  42.893   2.572   2.726
32223W        W 4483  16.765   0.385  12.546
32224W        W 4484  11.824  27.515   9.881
32225W        W 4485  38.415  29.507  11.641
32226W        W 4486  15.064  16.217  14.341
32227W        W 4487  42.698   9.762  10.574
32228W        W 4488  25.948  35.219   1.408
32229W        W 4489  14.024  31.906  13.096
32230W        W 4490   8.175   6.836   3.677
32231W        W 4491  29.863  42.355  12.569
32232W        W 4492   6.708  29.143   3.030
32233W        W 4493  21.710  24.532   2.882
32234W        W 4494  34.339  38.092   0.817
32235W        W 4495  44.305  41.997   0.312
32236W        W 4496   9.347  31.966  13.952
32237W        W 4497  40.344  13.858  12.556
32238W        W 4498  24.433  29.118  11.057
32239W        W 4499  26.533  18.780  13.772
32240W        W 4500  29.963   0.809   4.544
32241W        W 4501  38.524   8.025  13.074
32242W        W 4502  41.834  29.544   2.936
32243W        W 4503  33.337  10.641   2.788
32244W        W 4504   8.875  36.906   4.897
32245W        W 4505  37.031   6.812   0.537
32246W        W 4506  14.485  37.436   2.183
32247W        W 4507  28.747  33.090   1.243
32248W        W 4508  12.583  18.344  11.162
32249W        W 4509  27.685  42.007   0.776
32250W        W 4510  24.439   4.458   4.709
32251W        W 4511  37.097  17.233   3.719
32252W        W 4512  36.102  40.267   2.924
32253W        W 4513  37.888  10.151  14.053
32254W        W 4514   8.075  42.878  12.894
32255W        W 4515  40.464   4.529  11.958
32256W        W 4516  19.628   0.882  13.415
32257W        W 4517  19.756  10.624  12.540
32258W        W 4518  15.632  33.060  14.121
32259W        W 4519  44.252   1.710   2.386
32260W        W 4520  30.084  19.707  11.437
32261W        W 4521   8.350  39.906   1.616
32262W        W 4522  25.275  10.111   0.860
32263W        W 4523   9.192   8.206   4.773
32264W        W 4524  34.642  29.876   0.710
32265W        W 4525  20.146   2.732   2.242
32266W        W 4526  15.184  20.666   2.756
32267W        W 4527   0.332  11.848   0.543
32268W        W 4528   1.184  44.961  10.558
32269W        W 4529  39.260  22.686  13.452
32270W        W 4530   8.100  35.989   1.260
32271W        W 4531  44.033  41.970  14.860
32272W        W 4532   1.977  16.075   2.413
32273W        W 4533  18.938  21.367   1.161
32274W        W 4534   9.107  21.384  11.144
32275W        W 4535  19.077  16.311   1.097
32276W        W 4536   3.974  25.636  12.870
32277W        W 4537  27.408   4.252   0.903
32278W        W 4538   2.994  29.058   4.762
32279W        W 4539  19.461  36.115  10.418
32280W        W 4540   7.601  11.109  11.502
32281W        W 4541   5.099  42.081  11.136
32282W        W 4542  43.460  11.837  12.454
32283W        W 4543  33.356  36.036  12.812
32284W        W 4544  10.729   7.738   3.620
32285W        W 4545  12.393   1.734  11.163
32286W        W 4546   2.197  28.444   1.933
32287W        W 4547  34.031  36.791   2.880
32288W        W 4548  41.823  27.162  11.448
32289W        W 4549  24.022  39.583   2.058
32290W        W 4550  15.571  19.998   2.804
32291W        W 4551  36.829  44.590   0.755
32292W        W 4552  10.330  26.112  11.571
32293W        W 4553  27.461  13.144  12.399
32294W        W 4554  36.891  24.428   1.559
32295W        W 4555  18.305  14.354   1.439
32296W        W 4556  15.215  33.899   4.438
32297W        W 4557  24.622  27.000  13.300
32298W        W 4558   8.623  44.079  12.979
32299W        W 4559  19.216   1.753  13.522
32300W        W 4560   9.774   5.139  12.525
32301W        W 4561  19.528  40.347  13.120
32302W        W 4562  14.250  13.452   4.578
32303W        W 4563  19.060  39.059  12.931
32304W        W 4564  19.635  37.014   3.829
32305W        W 4565  29.622  14.572   2.265
32306W        W 4566  13.288  30.999  13.994
32307W        W 4567   2.453   2.676  11.502
32308W        W 4568   3.416   1.002   0.685
32309W        W 4569   5.843  26.246   1.990
32310W        W 4570  24.436  30.836  14.454
32311W        W 4571  35.740  30.388  13.516
32312W        W 4572  34.985  32.098  14.389
32313W        W 4573  38.739  19.126   4.867
32314W        W 4574  18.212  42.959  11.112
32315W        W 4575  36.327  14.667  11.681
32316W        W 4576  14.826  41.781   2.733
32317W        W 4577  33.103  33.628  11.055
32318W        W 4578  18.965  44.779   0.924
32319W        W 4579  25.090  43.222  13.454
32320W        W 4580  36.398  44.332   3.427
32321W        W 4581  10.311  32.664  11.557
32322W        W 4582  21.594   9.662  11.520
32323W        W 4583  17.111  14.007   4.985
32324W        W 4584  44.237   7.573  13.294
32325W        W 4585  40.924   2.071  10.722
32326W        W 4586  20.002  26.687  13.039
32327W        W 4587  23.215  35.132   0.029
32328W        W 4588  12.591  28.252   1.024
32329W        W 4589  34.961   3.290   3.440
32330W        W 4590  27.786   4.529   4.721
32331W        W 4591  16.482  19.623  13.068
32332W        W 4592   7.538  23.665  14.913
32333W        W 4593  43.703  18.275   0.361
32334W        W 4594  18.349  41.269   2.730
32335W        W 4595   6.182   6.801   2.137
32336W        W 4596  14.731  29.699   4.600
32337W        W 4597  17.706   4.659   1.346
32338W        W 4598  14.575  34.199  11.528
32339W        W 4599  16.814   0.411  13.478
32340W        W 4600  41.694  30.380   4.122
32341W        W 4601  44.803  30.422   3.668
32342W        W 4602  17.107  24.658   1.704
32343W        W 4603  21.118   8.676   2.173
32344W        W 4604   2.252   0.517   3.381
32345W        W 4605  11.283  14.191   0.012
32346W        W 4606   6.780  33.365   0.496
32347W        W 4607  38.936  27.456  13.493
32348W        W 4608  23.705   4.137   0.568
32349W        W 4609  34.579  25.442  10.761
32350W        W 4610  35.129  24.087   0.948
32351W        W 4611  32.707   2.597   2.927
32352W        W 4612  31.314   0.336  14.379
32353W        W 4613  36.537   2.942   4.331
32354W        W 4614  21.030   5.909  10.513
32355W        W 4615  31.861  40.633  14.821
32356W        W 4616  16.838  22.115   4.141
32357W        W 4617   9.805  28.128   0.239
32358W        W 4618   3.889  30.557   0.847
32359W        W 4619  36.342  40.352  14.738
32360W        W 4620  28.525  32.051   1.897
32361W        W 4621   1.964  15.175   1.894
32362W        W 4622   2.527  35.981  11.907
32363W        W 4623  12.839  10.253  14.405
32364W        W 4624  39.573  16.560   2.709
32365W        W 4625  15.737  26.455  13.497
32366W        W 4626   8.013  10.111  12.982
32367W        W 4627  29.723  40.059  12.111
32368W        W 4628  21.891   0.820   4.539
32369W        W 4629  19.602  27.741   2.722
32370W        W 4630  29.530  15.163   3.373
32371W        W 4631  24.528  26.414   3.601
32372W        W 4632  27.100  34.871   1.718
32373W        W 4633  44.226  19.167   4.797
32374W        W 4634  29.877  24.461   3.845
32375W        W 4635  30.527  11.009  12.537
32376W        W 4636  36.368  35.956  11.932
32377W        W 4637  38.823  34.199  13.423
32378W        W 4638  30.007  27.875   1.850
32379W        W 4639  31.082  29.233  14.065
32380W        W 4640  21.741   3.406  10.659
32381W        W 4641   4.702  16.315  10.747
32382W        W 4642  34.579   8.157  11.365
32383W        W 4643  23.970  20.514  14.422
32384W        W 4644  17.584  12.675   1.450
32385W        W 4645  44.373  23.639   2.724
32386W        W 4646  39.337  31.388   2.377
32387W        W 4647  27.497   5.142  14.831
32388W        W 4648  22.065  28.252  14.983
32389W        W 4649  36.918  40.410  13.031
32390W        W 4650  34.461  13.333   2.200
32391W        W 4651  42.978   2.793   4.272
32392W        W 4652  30.568  34.613   0.474
32393W        W 4653  13.226   5.776  14.288
32394W        W 4654   5.737  11.024  13.787
32395W        W 4655  33.504  31.126  14.415
32396W        W 4656  29.659  23.990  12.152
32397W        W 4657  21.469  26.580  11.065
32398W        W 4658   4.189  22.702   0.992
32399W        W 4659  27.845  29.697  11.566
32400W        W 4660  25.290  33.672  12.836
32401W        W 4661  40.217   4.897   0.281
32402W        W 4662  19.669   6.419   4.620
32403W        W 4663  31.447   0.010   1.476
32404W        W 4664  34.519   9.756  12.990
32405W        W 4665   0.183  19.051  10.837
32406W        W 4666  11.733  11.384  13.395
32407W        W 4667   8.352  38.577  12.815
32408W        W 4668  30.027  32.857   4.272
32409W        W 4669  15.793  37.398  13.336
32410W        W 4670  41.688  28.540  14.123
32411W        W 4671  13.709   2.522  13.365
32412W        W 4672  43.907  21.588  13.073
32413W        W 4673  40.591  15.391   2.894
32414W        W 4674  35.125  42.794   0.896
32415W        W 4675  27.210  20.233   0.917
32416W        W 4676  14.294  28.081  11.485
32417W        W 4677  10.187   3.142   0.201
32418W        W 4678  24.590  34.974  13.955
32419W        W 4679  28.816   4.003   3.948
32420W        W 4680  44.422  24.426   1.816
32421W        W 4681  18.132  25.366   3.329
32422W        W 4682  13.285  24.171   4.476
32423W        W 4683  29.294  43.443   1.435
32424W        W 4684   5.189  33.535   1.634
32425W        W 4685  21.657  30.133   0.980
32426W        W 4686  41.540   0.377  11.719
32427W        W 4687   8.302   2.937  11.212
32428W        W 4688   2.848  15.305   4.751
32429W        W 4689  28.890   5.281   3.756
32430W        W 4690  15.195   8.740   4.142
32431W        W 4691  37.110  22.519  13.021
32432W        W 4692  16.059  17.512   2.403
32433W        W 4693  11.285   9.389   3.551
32434W        W 4694   3.698  27.178   4.181
32435W        W 4695  22.651  10.607  10.669
32436W        W 4696  30.542  14.836   0.922
32437W        W 4697  21.071  22.439   3.235
32438W        W 4698  27.150  40.874  10.991
32439W        W 4699  42.914  34.506   1.093
32440W        W 4700  11.419   9.117   0.782
32441W        W 4701  20.599  31.023  13.968
32442W        W 4702   4.759   6.998  12.978
32443W        W 4703   5.284  34.940   4.879
32444W        W 4704  41.254  42.354   0.520
32445W        W 4705  25.920  20.651  12.964
32446W        W 4706   4.141  28.587   2.239
32447W        W 4707  20.206  38.992  10.709
32448W        W 4708  23.228  29.689   2.763
32449W        W 4709  44.049  11.422  10.463
32450W        W 4710  10.126  26.169   1.903
32451W        W 4711  42.888   6.122  11.131
32452W        W 4712   8.817  16.083  13.277
32453W        W 4713  20.928  36.486   3.314
32454W        W 4714  11.201  16.114  10.706
32455W        W 4715  42.905  16.843   3.274
32456W        W 4716  24.230  31.584   2.348
32457W        W 4717  35.947  25.453   0.764
32458W        W 4718  37.437  14.817   1.464
32459W        W 4719   7.820   7.625   0.090
32460W        W 4720  37.840  22.850  12.497
32461W        W 4721   0.832  35.232   5.309
32462W        W 4722   9.673  41.358  14.514
32463W        W 4723   5.694  16.635   4.811
32464W        W 4724  20.238  11.968   0.217
32465W        W 4725   9.915  40.198   0.287
32466W        W 4726  12.847   0.409  12.646
32467W        W 4727   6.713   6.786   2.111
32468W        W 4728  38.170  12.857  11.936
32469W        W 4729  21.329   2.579  11.626
32470W        W 4730  32.455  23.161  12.211
32471W        W 4731   8.128   6.146   0.416
32472W        W 4732  32.033  42.794   2.869
32473W        W 4733  15.648  35.530   0.410
32474W        W 4734  28.539  29.535  12.825
32475W        W 4735   1.379  16.707   4.746
32476W        W 4736   4.495  13.706   3.662
32477W        W 4737  25.387  28.441  11.918
32478W        W 4738  11.749  25.052   4.058
32479W        W 4739  38.980  36.098  11.660
32480W        W 4740  21.413   1.011   4.360
32481W        W 4741   2.860  12.100  11.504
32482W        W 4742  32.406  22.905  11.216
32483W        W 4743   4.019  24.018   3.279
32484W        W 4744  23.199   5.342   3.500
32485W        W 4745  12.073   5.429  13.566
32486W        W 4746  34.842  34.466  12.042
32487W        W 4747  40.952  19.285  12.304
32488W        W 4748   9.880  37.318   0.565
32489W        W 4749   1.383  39.100   3.254
32490W        W 4750   4.708  31.018  10.407
32491W        W 4751  42.335   8.956  14.027
32492W        W 4752  21.521  19.338  11.664
32493W        W 4753  18.089  41.966  12.110
32494W        W 4754  39.368  17.550  11.617
32495W        W 4755  11.859  25.195  14.485
32496W        W 4756  24.589   5.024   2.286
32497W        W 4757  34.999   9.761   1.882
32498W        W 4758  17.276   8.275   4.514
32499W        W 4759   9.289  11.824  14.555
32500W        W 4760  44.361  38.921   9.913
32501W        W 4761  22.588  16.187  14.736
32502W        W 4762  23.056   6.948   0.835
32503W        W 4763  17.091  22.812   1.074
32504W        W 4764  26.224   4.704   0.296
32505W        W 4765  11.648  11.312   2.349
32506W        W 4766  42.754  16.581  11.998
32507W        W 4767   9.382  27.203   2.556
32508W        W 4768  17.100  31.454  12.383
32509W        W 4769  23.555  27.505  10.013
32510W        W 4770  27.855  19.308   2.871
32511W        W 4771  40.404  41.648   1.272
32512W        W 4772   5.870  40.565   3.745
32513W        W 4773  42.983   5.728  12.612
32514W        W 4774  30.376   7.868  13.135
32515W        W 4775  12.780   5.974  14.486
32516W        W 4776   6.469  18.729  13.873
32517W        W 4777  31.119  35.619   4.627
32518W        W 4778  12.743  16.374   0.419
32519W        W 4779  16.590  39.495   3.370
32520W        W 4780  17.750  25.449   1.649
32521W        W 4781  13.260  17.009  14.856
32522W        W 4782  13.976  30.974   9.734
32523W        W 4783  35.152  42.751  11.167
32524W        W 4784  35.815  38.328   3.766
32525W        W 4785  17.269  38.019  11.799
32526W        W 4786  12.842  34.372  14.064
32527W        W 4787  18.711   1.109  14.416
32528W        W 4788  13.186   5.425  13.368
32529W        W 4789  20.003   8.934   1.709
32530W        W 4790  13.795  40.048   1.752
32531W        W 4791  41.483  29.416  11.141
32532W        W 4792  27.855  18.596  14.275
32533W        W 4793   5.353  43.574  11.092
32534W        W 4794  42.308  38.915   4.056
32535W        W 4795  42.912  19.783  11.122
32536W        W 4796  33.995  15.203   2.694
32537W        W 4797  11.144  29.596   4.885
32538W        W 4798  16.587   4.680   0.569
32539W        W 4799  27.503  43.790   1.472
32540W        W 4800  23.187  29.160  13.770
32541W        W 4801  12.083   9.104  13.379
32542W        W 4802   9.698   5.937   1.702
32543W        W 4803  17.884   3.609   4.744
32544W        W 4804  35.637  16.024  14.893
32545W        W 4805  32.264  34.157   4.913
32546W        W 4806  10.153   1.489   4.776
32547W        W 4807  44.116  13.764  11.102
32548W        W 4808  24.863   2.852  13.763
32549W        W 4809  43.298  33.153   0.905
32550W        W 4810  19.264  43.056  12.983
32551W        W 4811  27.240  15.614  11.297
32552W        W 4812  27.907  36.093   0.851
32553W        W 4813  17.222  20.949  10.976
32554W        W 4814  36.322  40.818   2.847
32555W        W 4815  33.865  32.583   0.833
32556W        W 4816  22.279  37.622   4.231
32557W        W 4817  16.195   3.592   3.659
32558W        W 4818  40.867  16.899  11.749
32559W        W 4819  44.297  25.085  11.425
32560W        W 4820   6.818  28.021  10.652
32561W        W 4821  18.191  41.733   0.242
32562W        W 4822  21.830  41.382   4.618
32563W        W 4823  37.888  28.381   4.881
32564W        W 4824  33.128  28.493   4.806
32565W        W 4825  30.848   8.707   0.337
32566W        W 4826  28.438  21.017  13.611
32567W        W 4827  19.984  32.545   4.400
32568W        W 4828  23.144  32.499  10.813
32569W        W 4829   9.143  12.345  10.733
32570W        W 4830  35.933  35.187  12.522
32571W        W 4831  42.013  43.058  11.569
32572W        W 4832  28.921   0.005  11.585
32573W        W 4833  29.069   9.631  11.501
32574W        W 4834  22.752   7.940  12.999
32575W        W 4835  15.823  41.070  14.891
32576W        W 4836   8.210  42.294  13.959
32577W        W 4837  32.180   2.765   2.307
32578W        W 4838  11.456  40.949  14.351
32579W        W 4839  37.391   0.726   5.020
32580W        W 4840  27.042  14.137   0.759
32581W        W 4841  43.413  23.569  14.458
32582W        W 4842  17.716  24.690   3.691
32583W        W 4843  44.038  31.637  13.335
32584W        W 4844  16.165  21.582  13.072
32585W        W 4845  19.266  44.066  12.975
32586W        W 4846  42.727  44.858   0.723
32587W        W 4847   2.682  43.470  14.412
32588W        W 4848   4.200  41.765   0.412
32589W        W 4849  14.664  37.115  13.572
32590W        W 4850  21.600   7.673   3.763
32591W        W 4851  32.636  24.634  14.479
32592W        W 4852  41.514   7.772   3.634
32593W        W 4853  43.379  25.110   2.454
32594W        W 4854  23.120  37.838   3.217
32595W        W 4855  25.686  19.765  12.336
32596W        W 4856  13.645  36.421   3.182
32597W        W 4857  10.864   5.432   4.562
32598W        W 4858  20.654  36.278  14.765
32599W        W 4859   3.663  40.811   0.668
32600W        W 4860  20.678  27.806   4.075
32601W        W 4861  18.845  37.329   1.513
32602W        W 4862  21.053   9.028   0.482
32603W        W 4863   3.551  19.261   4.045
32604W        W 4864  32.468  41.757  11.604
32605W        W 4865  32.680  22.806   3.925
32606W        W 4866  37.286  42.774  12.094
32607W        W 4867  17.916   5.262  11.982
32608W        W 4868  16.327  27.857  12.341
32609W        W 4869   6.624   2.416  12.484
32610W        W 4870   9.709   1.634   3.449
32611W        W 4871  35.076  12.587  10.769
32612W        W 4872  42.145   3.393  11.543
32613W        W 4873   9.830   0.360   0.430
32614W        W 4874   2.055  31.736  13.481
32615W        W 4875   0.707  27.627   0.528
32616W        W 4876  24.645   3.336  13.735
32617W        W 4877   9.705  21.942   4.077
32618W        W 4878   9.643  21.099   4.100
32619W        W 4879  13.380  30.579   0.251
32620W        W 4880  29.516  13.196  10.526
32621W        W 4881  21.287  20.490  11.890
32622W        W 4882  17.086   7.179  12.911
32623W        W 4883  42.764  13.316  11.134
32624W        W 4884  41.260  34.155  10.919
32625W        W 4885   1.868   4.251  14.902
32626W        W 4886  16.174  33.492   0.653
32627W        W 4887  31.036  41.799  14.425
32628W        W 4888  38.371  19.390  13.977
32629W        W 4889   9.936  25.139   4.722
32630W        W 4890  40.593  30.147   3.005
32631W        W 4891  17.490  44.374   2.367
32632W        W 4892  16.739  29.497   0.852
32633W        W 4893  24.477  12.139   2.925
32634W        W 4894  37.913   2.886   4.531
32635W        W 4895  39.827  29.082  10.761
32636W        W 4896   9.694  29.991  14.914
32637W        W 4897  11.151  28.664  11.477
32638W        W 4898   8.652  15.290   0.374
32639W        W 4899   7.859  25.256  13.428
32640W        W 4900  36.743  15.512  12.459
32641W        W 4901  43.049  41.360   4.581
32642W        W 4902   9.697  31.664  13.013
32643W        W 4903  34.044  36.317   0.708
32644W        W 4904   9.196   6.178   4.823
32645W        W 4905   5.133  15.581  12.837
32646W        W 4906  34.885  21.924   0.647
32647W        W 4907  25.599   7.322   3.019
32648W        W 4908  33.886  27.506   1.001
32649W        W 4909  10.859  13.188  10.651
32650W        W 4910  34.882  40.791   4.668
32651W        W 4911  22.558   3.786   2.321
32652W        W 4912   8.575  19.364   0.349
32653W        W 4913  11.163  19.130   4.400
32654W        W 4914  28.360   6.326  13.420
32655W        W 4915  27.327  36.089   0.211
32656W        W 4916  17.752  21.970  14.438
32657W        W 4917  34.541   0.033   1.761
32658W        W 4918  27.542  14.670  11.870
32659W        W 4919  14.544  37.470   9.849
32660W        W 4920   1.698  43.471  11.596
32661W        W 4921   2.670  12.210  12.809
32662W        W 4922  29.174   4.493  13.996
32663W        W 4923  40.872  34.810   2.322
32664W        W 4924  41.508   0.514  14.547
32665W        W 4925  30.871  43.879   2.113
32666W        W 4926   7.442  13.111   4.834
32667W        W 4927  30.421   6.189  10.737
32668W        W 4928   0.987  26.033  11.542
32669W        W 4929  22.272   2.672  13.032
32670W        W 4930  37.096  33.284   3.058
32671W        W 4931  41.181  11.181  11.198
32672W        W 4932  39.102  16.708  11.889
32673W        W 4933  12.781  14.771  10.388
32674W        W 4934  14.189  24.587   1.726
32675W        W 4935  32.681  16.978  14.848
32676W        W 4936  31.218  10.665  13.491
32677W        W 4937   4.969  30.971  14.352
32678W        W 4938  33.803  44.896  14.977
32679W        W 4939  30.424  36.277   0.666
32680W        W 4940  22.658  26.957  14.780
32681W        W 4941  35.017   1.032   0.132
32682W        W 4942   1.436  29.989   3.985
32683W        W 4943  38.355  41.097   2.242
32684W        W 4944  34.338  17.104   1.675
32685W        W 4945  34.170  33.845   2.287
32686W        W 4946  15.590  22.181  12.768
32687W        W 4947  31.482  42.359  14.791
32688W        W 4948  26.029  35.673   4.117
32689W        W 4949  24.530   9.119  14.344
32690W        W 4950  25.900  20.823   2.182
32691W        W 4951  33.218  27.729   0.265
32692W        W 4952  44.864   7.683  12.383
32693W        W 4953   8.317  16.099   1.694
32694W        W 4954  21.077  27.854  14.514
32695W        W 4955  34.392  35.304  14.408
32696W        W 4956  40.117  34.027  14.989
32697W        W 4957  30.004  23.903   0.744
32698W        W 4958  15.870   6.366  10.666
32699W        W 4959  12.599  31.054  12.151
32700W        W 4960  36.882  10.585  12.093
32701W        W 4961  33.114  34.842  11.936
32702W        W 4962  32.090   4.992  10.203
32703W        W 4963  21.697   2.625   0.209
32704W        W 4964  21.187  14.172  11.048
32705W        W 4965  29.392  12.735   5.052
32706W        W 4966   5.387  37.829  13.963
32707W        W 4967  41.290  43.743  11.649
32708W        W 4968   8.721  37.300  12.562
32709W        W 4969  37.336   9.360   1.614
32710W        W 4970  37.506   7.882  11.486
32711W        W 4971   7.722  12.628   1.409
32712W        W 4972  39.236  14.620  11.620
32713W        W 4973   1.025   3.662  13.867
32714W        W 4974  43.496   6.180   1.666
32715W        W 4975  33.607  32.553   0.293
32716W        W 4976  30.693  38.838  14.358
32717W        W 4977  44.315  31.919   2.269
32718W        W 4978   2.462   3.908   3.849
32719W        W 4979   4.279  22.752   2.304
32720W        W 4980  14.303   9.803   1.387
32721W        W 4981  10.186  42.362   1.691
32722W        W 4982  13.216  11.059  13.897
32723W        W 4983  23.086  41.529  14.143
32724W        W 4984   1.227  17.250   0.834
32725W        W 4985  40.982   6.573  14.722
32726W        W 4986  15.432  43.447   0.932
32727W        W 4987  30.355  40.975   1.984
32728W        W 4988  32.136  39.783  12.495
32729W        W 4989  22.948   6.727  13.867
32730W        W 4990  37.945  26.656   0.711
32731W        W 4991  14.091  38.296  10.594
32732W        W 4992  40.865  21.259   0.259
32733W        W 4993  10.885   3.902   1.766
32734W        W 4994  37.061  39.677  12.405
32735W        W 4995   7.786  26.722  14.141
32736W        W 4996  15.253  16.767  10.155
32737W        W 4997  32.036  42.848  10.178
32738W        W 4998  11.894   5.254  12.800
32739W        W 4999  15.640  29.507  12.396
32740W        W 5000   2.613  17.113  10.287
32741W        W 5001  24.645   6.466  14.804
32742W        W 5002  42.127  24.842  14.569
32743W        W 5003  43.807  28.703  13.874
32744W        W 5004  25.735  10.236   3.275
32745W        W 5005   6.399  21.054   2.367
32746W        W 5006  24.450  14.759  10.555
32747W        W 5007  35.473  29.653  11.616
32748W        W 5008  11.533   7.648  13.706
32749W        W 5009  22.083  20.640  13.899
32750W        W 5010  18.592  23.905  12.399
32751W        W 5011  31.599  33.598   1.367
32752W        W 5012  23.540  13.705  10.673
32753W        W 5013  10.111  13.433   3.184
32754W        W 5014  15.826   0.206   1.898
32755W        W 5015  18.079   2.281   3.856
32756W        W 5016  25.822   0.999  11.589
32757W        W 5017  26.693  26.103   1.781
32758W        W 5018  34.473  18.096  12.467
32759W        W 5019  29.070  40.738   0.863
32760W        W 5020  41.280  35.137   2.355
32761W        W 5021  27.604  26.118  11.845
32762W        W 5022  28.506  19.742  12.124
32763W        W 5023  21.367  17.547   1.449
32764W        W 5024  27.205   3.527   2.241
32765W        W 5025  42.466  34.151  14.797
32766W        W 5026  21.776   1.266  11.480
32767W        W 5027  19.531  43.970   0.759
32768W        W 5028  31.307  43.322  14.732
32769W        W 5029   5.205  27.561   4.872
32770W        W 5030  19.693  27.215   2.772
32771W        W 5031  34.300  35.541  13.535
32772W        W 5032  32.709  41.664  13.949
32773W        W 5033   8.893  27.145  14.897
32774W        W 5034  17.084  37.354   3.314
32775W        W 5035  23.412  23.936  14.066
32776W        W 5036  42.777  17.028  14.023
32777W        W 5037   2.348  33.459  14.046
32778W        W 5038  36.596  36.978  13.498
32779W        W 5039  30.031  35.532   3.832
32780W        W 5040  36.562  37.779  14.367
32781W        W 5041  39.860  16.404  13.014
32782W        W 5042  22.519   2.760  12.516
32783W        W 5043  36.566  20.129   4.800
32784W        W 5044  11.095  23.532  13.973
32785W        W 5045  27.711  23.521  11.198
32786W        W 5046   0.907  13.534  11.508
32787W        W 5047  17.892   5.512   0.722
32788W        W 5048   2.970  10.322   1.917
32789W        W 5049   7.727  13.834  14.800
32790W        W 5050  15.877   4.271  13.428
32791W        W 5051  12.850  11.911   3.332
32792W        W 5052  27.192  23.859  12.366
32793W        W 5053   2.163  43.262  13.010
32794W        W 5054  29.066  20.759  10.625
32795W        W 5055  34.573   8.318  12.813
32796W        W 5056  14.915  38.355  12.055
32797W        W 5057  38.303   4.983  12.106
32798W        W 5058  29.178   0.351  13.567
32799W        W 5059  14.133  14.248  10.623
32800W        W 5060   6.659  35.365   1.317
32801W        W 5061  19.194   3.317  11.209
32802W        W 5062  32.157  12.714  14.901
32803W        W 5063  39.923  31.931  14.974
32804W        W 5064  10.243  29.570  11.485
32805W        W 5065  20.061   6.688   3.147
32806W        W 5066   8.240  39.456  12.851
32807W        W 5067  16.070  28.046  13.856
32808W        W 5068  23.923  20.551   5.642
32809W        W 5069  44.369  34.823  11.198
32810W        W 5070   3.838  13.889   4.341
32811W        W 5071  10.531   3.479   0.381
32812W        W 5072   6.612  35.041  12.575
32813W        W 5073  43.022  30.281  11.459
32814W        W 5074  38.754  11.221  10.744
32815W        W 5075  11.198  34.512  12.080
32816W        W 5076  13.239   9.589  11.623
32817W        W 5077  10.836   8.923  10.852
32818W        W 5078  19.188  39.341   1.681
32819W        W 5079   9.963  16.816  10.884
32820W        W 5080  16.417   5.222   0.860
32821W        W 5081   7.797  37.358  13.474
32822W        W 5082  38.739  33.452  12.803
32823W        W 5083  34.521  35.454  12.082
32824W        W 5084  11.580  28.684   1.842
32825W        W 5085  11.261  37.949   3.779
32826W        W 5086  19.846  18.792   3.795
32827W        W 5087  10.529  22.781   3.280
32828W        W 5088   9.623  31.692  11.174
32829W        W 5089  14.180  28.061   0.484
32830W        W 5090  44.079   6.088  12.963
32831W        W 5091  29.590  13.133  14.289
32832W        W 5092  29.887  41.165  11.179
32833W        W 5093  43.337  13.080   4.232
32834W        W 5094  26.073  36.840  13.001
32835W        W 5095   4.394  41.235   1.760
32836W        W 5096  31.402  13.789   2.223
32837W        W 5097  30.007  10.625  11.855
32838W        W 5098  26.297  15.624  10.100
32839W        W 5099  37.032  30.588   3.188
32840W        W 5100  15.007  40.108  11.029
32841W        W 5101  18.083  22.890  13.459
32842W        W 5102  14.018  29.075   1.922
32843W        W 5103  36.971  30.703  11.475
32844W        W 5104  31.300  39.212   3.194
32845W        W 5105  40.472  13.231  14.913
32846W        W 5106  28.497  26.319   3.393
32847W        W 5107  10.163  33.590   4.160
32848W        W 5108   4.646   6.144  12.518
32849W        W 5109  30.539  20.841   0.793
32850W        W 5110   8.615  35.853  11.873
32851W        W 5111  31.279   6.432  14.098
32852W        W 5112  27.677  14.934   1.877
32853W        W 5113  38.407  17.549   3.657
32854W        W 5114  42.509   9.436  13.901
32855W        W 5115  20.064   6.323   2.796
32856W        W 5116   6.982  18.201  14.517
32857W        W 5117  16.682   8.903  11.312
32858W        W 5118  20.574  28.582  13.799
32859W        W 5119  36.798  20.291  10.214
32860W        W 5120  23.704  16.616  12.403
32861W        W 5121   6.907  42.480   1.038
32862W        W 5122  22.306  15.008  13.144
32863W        W 5123   9.227  28.473   1.346
32864W        W 5124   8.876  28.898   2.345
32865W        W 5125  17.661  43.943   0.366
32866W        W 5126   5.136  30.402  11.403
32867W        W 5127  31.877  31.646  11.364
32868W        W 5128  19.824  23.099  11.045
32869W        W 5129  40.811  22.260  12.889
32870W        W 5130  35.857  40.376  14.008
32871W        W 5131  38.062   9.938  11.478
32872W        W 5132  10.309   3.473  13.725
32873W        W 5133  44.846  25.785  12.817
32874W        W 5134  30.190   2.928   4.116
32875W        W 5135  25.401   3.186   5.119
32876W        W 5136  30.127   4.399  13.821
32877W        W 5137  14.575  21.478  10.710
32878W        W 5138  15.840  19.897  13.918
32879W        W 5139  38.889   1.166   3.387
32880W        W 5140   6.806  38.483   1.343
32881W        W 5141  38.118  40.323   0.953
32882W        W 5142  39.181  39.382  12.970
32883W        W 5143  32.626  10.477   3.218
32884W        W 5144  29.897  37.620  11.164
32885W        W 5145  34.710  27.662  11.164
32886W        W 5146  41.401   8.381   1.513
32887W        W 5147  33.674  12.120  11.573
32888W        W 5148  30.059   5.097   4.709
32889W        W 5149  18.972  42.338  10.967
32890W        W 5150   1.808   4.858   4.694
32891W        W 5151  37.352  22.666  13.975
32892W        W 5152  32.096   2.864   1.383
32893W        W 5153  21.077  41.391   0.948
32894W        W 5154   9.263  38.163  12.456
32895W        W 5155  19.781  32.003  14.844
32896W        W 5156  33.605  13.364   1.292
32897W        W 5157  21.920  18.706   0.021
32898W        W 5158   2.812  43.257   2.935
32899W        W 5159  28.144   2.503  13.529
32900W        W 5160  36.690  23.946  11.533
32901W        W 5161  34.038  24.930   0.913
32902W        W 5162  39.096   2.264   1.534
32903W        W 5163  27.378  17.362   2.201
32904W        W 5164  37.042  30.057  14.478
32905W        W 5165  32.990  10.823   1.610
32906W        W 5166  29.428  36.367   4.619
32907W        W 5167  22.570  16.801  12.048
32908W        W 5168  43.172  19.606  10.566
32909W        W 5169  30.969  31.559   1.425
32910W        W 5170  33.897  43.424   4.374
32911W        W 5171  18.375   7.053  14.088
32912W        W 5172  44.968   5.655  12.719
32913W        W 5173  35.890  18.025   2.679
32914W        W 5174  25.020   5.084  10.564
32915W        W 5175   0.307  24.003  11.443
32916W        W 5176  44.457  17.020  13.305
32917W        W 5177  35.886  14.848   4.670
32918W        W 5178  26.899  12.316  13.453
32919W        W 5179   1.358  18.096   1.955
32920W        W 5180  27.549   4.494   1.369
32921W        W 5181  39.529  30.437  12.654
32922W        W 5182  16.288  21.381  10.993
32923W        W 5183  22.540   7.174  14.211
32924W        W 5184  17.497   5.171  10.279
32925W        W 5185  37.617  30.458   0.024
32926W        W 5186  44.555  19.128  13.881
32927W        W 5187   5.616  14.992   0.757
32928W        W 5188  13.351  30.465  14.303
32929W        W 5189  35.890   8.911   0.756
32930W        W 5190  21.023  30.254  14.417
32931W        W 5191  12.687  37.318   4.300
32932W        W 5192  33.658  25.665  13.526
32933W        W 5193  19.280  35.704  10.986
32934W        W 5194  21.729  21.072   1.680
32935W        W 5195  33.755   0.904   0.778
32936W        W 5196   4.280  34.302  11.472
32937W        W 5197  35.568  18.350  11.062
32938W        W 5198  23.154  36.518  12.948
32939W        W 5199  36.361  13.653  12.788
32940W        W 5200   8.091  26.228   4.974
32941W        W 5201   0.335   9.624   2.804
32942W        W 5202  21.979   3.728   4.541
32943W        W 5203  30.366   5.104   2.911
32944W        W 5204  24.403   7.308  14.489
32945W        W 5205  27.061  21.524   1.232
32946W        W 5206  34.596  13.127   1.755
32947W        W 5207  26.680  19.721  13.869
32948W        W 5208  26.138  29.067  10.710
32949W        W 5209  31.509  11.615  13.769
32950W        W 5210  25.958  40.817   1.303
32951W        W 5211  33.384  32.033  10.162
32952W        W 5212  44.449   9.094   1.758
32953W        W 5213  19.051   3.999   2.285
32954W        W 5214  41.973  42.002   3.318
32955W        W 5215  12.783  23.057   2.869
32956W        W 5216  33.159  30.389  14.909
32957W        W 5217  12.203  24.227   0.072
32958W        W 5218  30.481  32.449  12.847
32959W        W 5219  31.679  12.768   4.211
32960W        W 5220  25.376  21.089   3.631
32961W        W 5221   7.853  24.457   2.196
32962W        W 5222  40.517  31.024   3.305
32963W        W 5223   2.306  17.436  10.012
32964W        W 5224  42.385  28.674   4.722
32965W        W 5225  39.462  39.347   3.137
32966W        W 5226  22.022  19.202  11.698
32967W        W 5227  38.000  38.386  11.048
32968W        W 5228   5.203  26.368   1.158
32969W        W 5229  38.191  24.258  12.172
32970W        W 5230   5.257  25.904  13.285
32971W        W 5231   9.780  37.441   5.031
32972W        W 5232  12.735  18.169   2.374
32973W        W 5233  12.471  30.985   5.488
32974W        W 5234  40.324  41.837  13.951
32975W        W 5235  19.827  16.252  13.957
32976W        W 5236  14.648  40.748   0.937
32977W        W 5237   9.821  39.549  11.739
32978W        W 5238  24.952   5.255   3.179
32979W        W 5239  29.005   8.880   3.776
32980W        W 5240   8.660  27.977   3.559
32981W        W 5241  24.614  31.866  12.842
32982W        W 5242  28.314  44.741  13.763
32983W        W 5243  38.420  43.512   2.958
32984W        W 5244  27.991  27.579   3.204
32985W        W 5245  18.009  26.148  10.861
32986W        W 5246  20.715  32.454  13.621
32987W        W 5247  15.342  22.172  14.329
32988W        W 5248   3.015  43.521  12.101
32989W        W 5249  36.324  19.814  12.694
32990W        W 5250  19.515  16.680   4.880
32991W        W 5251  16.145  18.073  10.984
32992W        W 5252  29.856   8.374  13.101
32993W        W 5253  28.442  18.495  10.382
32994W        W 5254  14.630  39.097  13.618
32995W        W 5255  39.976  36.758   0.701
32996W        W 5256  12.967  24.632   3.803
32997W        W 5257  12.885   1.995  11.020
32998W        W 5258  21.964  25.224   1.064
32999W        W 5259  21.489   7.223  11.991
33000W        W 5260  30.556   7.676   1.768
33001W        W 5261  26.619  28.056   1.481
33002W        W 5262  40.730  28.179  14.437
33003W        W 5263  14.629  36.466   0.435
33004W        W 5264  24.452  29.495   2.145
33005W        W 5265  17.205  39.808  14.620
33006W        W 5266   5.204  31.552   0.393
33007W        W 5267  28.019   5.867   2.716
33008W        W 5268  43.519  42.571  13.357
33009W        W 5269  27.907  27.550   4.787
33010W        W 5270  12.091  20.243  11.425
33011W        W 5271   2.955  21.977  13.187
33012W        W 5272  38.267  36.479  12.152
33013W        W 5273  13.981  26.260   1.515
33014W        W 5274  26.507  26.486  10.678
33015W        W 5275  21.894  43.455   3.160
33016W        W 5276  17.100  25.743  12.531
33017W        W 5277  17.083  35.287  10.577
33018W        W 5278  38.495  14.974   3.746
33019W        W 5279  31.757  19.044   3.780
33020W        W 5280   2.674  30.429  12.490
33021W        W 5281  29.596   4.797  14.141
33022W        W 5282  32.475  14.752  14.324
33023W        W 5283  43.797  20.975  11.185
33024W        W 5284  27.689  38.332   4.224
33025W        W 5285  11.350  13.326   1.419
33026W        W 5286  31.313  41.529   4.169
33027W        W 5287  42.257   0.947  11.998
33028W        W 5288  17.224  40.999   0.070
33029W        W 5289  44.386  39.804  14.992
33030W        W 5290   7.451  18.173   2.842
33031W        W 5291  37.493  34.858   1.409
33032W        W 5292  18.345  17.601  14.425
33033W        W 5293  21.771  38.530  10.907
33034W        W 5294  34.976   2.934   1.606
33035W        W 5295  29.901  31.383  12.582
33036W        W 5296  43.663  12.104  12.052
33037W        W 5297  23.568   3.389   3.769
33038W        W 5298  36.188   8.241   4.098
33039W        W 5299  30.672  43.783  10.722
33040W        W 5300  35.113  26.833   0.420
33041W        W 5301  29.432  18.178   0.296
33042W        W 5302  31.976  38.975  12.891
33043W        W 5303  30.424  30.203   9.720
33044W        W 5304  33.329  30.970   3.340
33045W        W 5305  25.324  43.476  10.620
33046W        W 5306   9.922  14.839  14.014
33047W        W 5307  22.786  22.862   4.213
33048W        W 5308  40.235  25.713   1.725
33049W        W 5309   2.266  27.973   4.176
33050W        W 5310  27.487  22.699   0.809
33051W        W 5311  17.137  19.168  10.717
33052W        W 5312  20.656   6.397   1.450
33053W        W 5313  12.187  43.122   2.597
33054W        W 5314  18.569  41.786   3.853
33055W        W 5315  39.494  20.198  13.561
33056W        W 5316   8.892  26.502   0.253
33057W        W 5317  43.386   4.788  12.564
33058W        W 5318  24.783  25.671   4.839
33059W        W 5319  33.638   4.740  10.761
33060W        W 5320  13.027  44.955   3.332
33061W        W 5321  11.056  30.339   9.482
33062W        W 5322   1.274  19.736  13.480
33063W        W 5323  12.843  10.107   3.740
33064W        W 5324  21.668  10.387  14.761
33065W        W 5325   8.883  42.866   1.510
33066W        W 5326   6.359  14.543   1.354
33067W        W 5327   8.845   5.451   4.592
33068W        W 5328   6.441  19.123   3.600
33069W        W 5329  10.846  33.540  14.398
33070W        W 5330   1.426  30.823   4.650
33071W        W 5331  22.719  32.042  11.913
33072W        W 5332  12.577   2.320  10.694
33073W        W 5333   2.400  28.985   1.407
33074W        W 5334  41.631   1.949  10.955
33075W        W 5335  32.046  17.684   1.648
33076W        W 5336  38.545  41.786  13.216
33077W        W 5337  44.811  28.998  13.466
33078W        W 5338   6.219   1.954  13.648
33079W        W 5339  40.838  44.791  11.206
33080W        W 5340   7.804   4.726   2.172
33081W        W 5341   9.435   1.035   4.539
33082W        W 5342   8.301  19.320   1.862
33083W        W 5343  16.991  14.495   4.840
33084W        W 5344  10.691  38.066  10.663
33085W        W 5345  29.960  38.605   0.922
33086W        W 5346  25.612   3.248   2.147
33087W        W 5347   5.187   2.233   0.385
33088W        W 5348  16.836   7.038  12.465
33089W        W 5349  38.106  40.859  14.835
33090W        W 5350  28.881  42.874   3.549
33091W        W 5351   2.755  28.012  11.175
33092W        W 5352  12.638  25.474   0.420
33093W        W 5353  22.398  42.948   0.509
33094W        W 5354   1.351   5.017   2.423
33095W        W 5355  15.817  44.346   2.913
33096W        W 5356  28.155   6.681   0.260
33097W        W 5357   9.391  35.426   1.390
33098W        W 5358  35.197   0.359  12.433
33099W        W 5359  35.029  16.391   1.492
33100W        W 5360  21.167  31.552   3.293
33101W        W 5361  31.166  30.545  11.025
33102W        W 5362  31.451  36.336   0.333
33103W        W 5363   1.082   2.728  12.633
33104W        W 5364  17.749  18.482   3.767
33105W        W 5365  42.872  36.927   0.236
33106W        W 5366  15.734  14.758   3.524
33107W        W 5367   0.543   7.788  12.977
33108W        W 5368  12.280   5.953   3.747
33109W        W 5369  40.064   1.854   4.651
33110W        W 5370  41.409   6.263  12.207
33111W        W 5371  41.297   2.251  12.030
33112W        W 5372   7.213   2.356   0.430
33113W        W 5373   8.821   8.306   3.126
33114W        W 5374  26.456  24.541  10.693
33115W        W 5375   0.310  17.065  11.214
33116W        W 5376   1.743  22.112  12.604
33117W        W 5377  38.207   7.798   3.737
33118W        W 5378  15.334   5.383  10.176
33119W        W 5379   1.223   5.861   3.069
33120W        W 5380  21.093  30.755  13.562
33121W        W 5381   0.544  14.871  14.005
33122W        W 5382  38.439  42.781   1.786
33123W        W 5383  33.640  10.816   3.171
33124W        W 5384   2.895  26.596   2.107
33125W        W 5385   2.145   7.861   3.772
33126W        W 5386  14.444  17.299  12.084
33127W        W 5387  34.117  34.123   2.842
33128W        W 5388  24.931  25.397  14.504
33129W        W 5389  10.722  38.621  10.683
33130W        W 5390  38.848  21.871  13.728
33131W        W 5391  28.618  30.955   2.695
33132W        W 5392  20.051  10.868  11.509
33133W        W 5393  10.683  34.454  10.995
33134W        W 5394  27.343   8.687   3.663
33135W        W 5395  43.441  24.076   4.556
33136W        W 5396  27.665   6.656   4.375
33137W        W 5397   8.154  33.591  14.344
33138W        W 5398  24.071  19.302   3.792
33139W        W 5399  14.832  22.657  12.022
33140W        W 5400  31.948  20.037  11.573
33141W        W 5401  38.574  25.757  13.059
33142W        W 5402   2.433  44.566   2.825
33143W        W 5403  29.970   0.747   0.584
33144W        W 5404  22.870  27.078  10.114
33145W        W 5405  25.560  13.880  10.879
33146W        W 5406  39.816  43.388  14.854
33147W        W 5407  11.344  19.155  13.654
33148W        W 5408  21.618  29.615  14.692
33149W        W 5409  44.841  39.206  12.578
33150W        W 5410  22.484  33.115   1.220
33151W        W 5411  11.614  22.240   4.158
33152W        W 5412  29.653  38.395  13.833
33153W        W 5413  29.652  30.666   1.250
33154W        W 5414  19.478   0.531   3.678
33155W        W 5415  10.845   8.948  13.898
33156W        W 5416  37.149  36.640   5.041
33157W        W 5417  38.410  42.859  12.899
33158W        W 5418   3.162  44.700   2.325
33159W        W 5419  37.862  27.473   4.677
33160W        W 5420   7.050   4.258  13.019
33161W        W 5421  28.807  43.524  13.596
33162W        W 5422  18.317  34.770  10.981
33163W        W 5423  13.336   3.125   2.734
33164W        W 5424  34.067  14.144   1.252
33165W        W 5425  34.217  27.896  11.860
33166W        W 5426  13.529  40.204  13.847
33167W        W 5427  30.646  34.543   4.653
33168W        W 5428  18.708  35.860   0.762
33169W        W 5429  28.720  35.617  11.187
33170W        W 5430  38.792  17.663  13.956
33171W        W 5431   9.610  36.960  12.849
33172W        W 5432  29.621  28.258   0.145
33173W        W 5433   0.772  11.189   3.631
33174W        W 5434  11.268  22.697  12.502
33175W        W 5435  31.475  21.098  11.853
33176W        W 5436  24.472  38.313  12.434
33177W        W 5437  43.503  12.547  10.055
33178W        W 5438  36.013   1.691   2.846
33179W        W 5439  29.155  19.548  14.827
33180W        W 5440   1.499  15.160  14.183
33181W        W 5441  33.443  39.454   2.610
33182W        W 5442  33.608  11.252  11.096
33183W        W 5443   1.348  40.780  11.234
33184W        W 5444  39.387  24.598   3.861
33185W        W 5445  42.901  19.825   2.808
33186W        W 5446   7.297  37.751  13.925
33187W        W 5447  24.707  26.259  13.002
33188W        W 5448   6.523  36.523   3.654
33189W        W 5449  25.370   8.738   0.715
33190W        W 5450   2.980  22.501   1.411
33191W        W 5451  30.923  35.369  14.067
33192W        W 5452  25.589  11.848   2.209
33193W        W 5453  11.617  29.388   4.951
33194W        W 5454  34.162  35.925   3.175
33195W        W 5455  41.385  43.390  10.862
33196W        W 5456  37.028  44.916   4.038
33197W        W 5457   0.175  34.149   0.406
33198W        W 5458  26.624  17.250   0.461
33199W        W 5459   3.576  11.754   0.831
33200W        W 5460  16.161  17.113  12.398
33201W        W 5461   4.910  19.511   0.676
33202W        W 5462   0.005  42.533   3.315
33203W        W 5463  17.817  29.860  12.516
33204W        W 5464  20.631  40.365  12.641
33205W        W 5465   7.435  28.770  14.336
33206W        W 5466  10.757  17.705  12.477
33207W        W 5467   4.525  34.438   3.732
33208W        W 5468  43.359  30.183  14.990
33209W        W 5469  40.901  32.948   2.043
33210W        W 5470  23.065   1.949  13.848
33211W        W 5471  39.411  12.569   3.278
33212W        W 5472  18.548  32.075  10.679
33213W        W 5473  36.380  27.679  11.550
33214W        W 5474   4.695  18.595   0.373
33215W        W 5475  20.567  22.169  10.961
33216W        W 5476  15.657  16.677   3.712
33217W        W 5477  37.361   0.034  13.269
33218W        W 5478   5.126   8.396  14.022
33219W        W 5479  35.326  34.393  11.036
33220W        W 5480  40.358  31.536   4.542
33221W        W 5481  40.495  12.609  13.989
33222W        W 5482  11.604  12.561  12.526
33223W        W 5483  41.563  14.798   1.528
33224W        W 5484  37.067  27.609  10.904
33225W        W 5485  38.067  37.155  12.394
33226W        W 5486  11.601  41.118   4.929
33227W        W 5487  35.338  33.198  12.476
33228W        W 5488  14.264   1.755  14.459
33229W        W 5489  20.471  15.577   2.729
33230W        W 5490  13.093  39.446   0.913
33231W        W 5491   2.861  42.507  14.872
33232W        W 5492  14.535   2.418   4.660
33233W        W 5493   3.779   3.826  13.059
33234W        W 5494  18.677  23.555  14.393
33235W        W 5495  42.882  27.150  11.392
33236W        W 5496   3.933   1.044   0.352
33237W        W 5497  26.785  33.952   1.414
33238W        W 5498  38.892  15.257   0.027
33239W        W 5499  15.236  20.552   2.219
33240W        W 5500  21.076  11.147  13.354
33241W        W 5501  19.394  10.878   1.918
33242W        W 5502  23.026  37.375  10.287
33243W        W 5503  19.266  43.774  14.332
33244W        W 5504  17.075  29.565   1.248
33245W        W 5505  17.160   8.488   2.344
33246W        W 5506  35.848   8.126  11.275
33247W        W 5507  14.104   2.870   0.480
33248W        W 5508   7.790  13.089   3.271
33249W        W 5509   9.772   3.479  11.359
33250W        W 5510   6.174  24.893  14.879
33251W        W 5511  43.709  21.570   4.551
33252W        W 5512  29.344  10.097  13.384
33253W        W 5513   5.258  41.667   4.009
33254W        W 5514  32.128  43.101  13.821
33255W        W 5515   9.652   0.705  11.104
33256W        W 5516  42.401  12.811  11.089
33257W        W 5517   9.261  16.919   4.505
33258W        W 5518   5.356  15.519   3.311
33259W        W 5519  38.381  35.539  14.777
33260W        W 5520  12.843  24.497   4.593
33261W        W 5521   7.823   7.117  12.891
33262W        W 5522  40.425  23.202   2.739
33263W        W 5523  37.909  29.576  14.917
33264W        W 5524  13.228  22.161  14.990
33265W        W 5525  17.753  39.838  13.650
33266W        W 5526   2.424  19.706   1.721
33267W        W 5527  26.618  20.072   2.207
33268W        W 5528  42.027   5.912   2.282
33269W        W 5529   6.128   8.708  11.549
33270W        W 5530  16.199  30.108  11.134
33271W        W 5531  14.594  17.802   0.468
33272W        W 5532  32.336  38.352   2.071
33273W        W 5533  28.211   1.492  11.105
33274W        W 5534  26.683   9.310   4.899
33275W        W 5535  39.889   7.012  11.535
33276W        W 5536  35.116  17.754   0.837
33277W        W 5537  19.271  31.061  13.787
33278W        W 5538   4.440  24.719   2.800
33279W        W 5539   5.134   7.935  10.922
33280W        W 5540   0.184  40.060  14.244
33281W        W 5541  32.669  44.036   2.694
33282W        W 5542  43.087  26.197   4.091
33283W        W 5543  20.338  17.952  12.909
33284W        W 5544  27.163   0.288  11.693
33285W        W 5545   4.275  31.115   1.388
33286W        W 5546  39.021   7.656  11.628
33287W        W 5547  41.369  19.696  11.339
33288W        W 5548   0.860  43.229   2.143
33289W        W 5549  30.140  11.331  11.224
33290W        W 5550  34.003  30.880   1.890
33291W        W 5551   0.879   3.964   0.614
33292W        W 5552   1.896  11.378   2.517
33293W        W 5553   6.534   6.000   0.871
33294W        W 5554   6.383  31.882   4.550
33295W        W 5555  25.022  24.295   1.466
33296W        W 5556  41.903  26.374   0.977
33297W        W 5557  25.178  36.379  14.720
33298W        W 5558  40.592  29.233   4.723
33299W        W 5559   9.684   7.096  13.980
33300W        W 5560  21.534   9.219   0.323
33301W        W 5561  31.894  31.354  13.214
33302W        W 5562  39.122  26.550  13.488
33303W        W 5563  22.024  28.456  11.441
33304W        W 5564  43.495   9.701  13.383
33305W        W 5565  33.997  17.283   4.231
33306W        W 5566  34.072  17.428  11.995
33307W        W 5567  11.356  42.777   4.495
33308W        W 5568  20.261  29.595   1.034
33309W        W 5569  31.844  39.851  13.321
33310W        W 5570  11.873   0.782  11.121
33311W        W 5571  22.644   5.914   1.217
33312W        W 5572  44.495  24.784  11.045
33313W        W 5573  33.156  30.514  12.198
33314W        W 5574  35.496  20.062   2.379
33315W        W 5575   1.451   7.493   3.333
33316W        W 5576  39.823  22.654   3.056
33317W        W 5577  39.838  12.661  14.452
33318W        W 5578  26.475  30.577  10.717
33319W        W 5579  10.382  16.524  11.052
33320W        W 5580  23.093  39.327   2.769
33321W        W 5581  40.503  24.053   1.698
33322W        W 5582   4.578   4.900  13.902
33323W        W 5583  38.333   4.679   2.669
33324W        W 5584  11.108   0.404   0.942
33325W        W 5585  26.011  19.065  10.655
33326W        W 5586   8.195   1.295   0.931
33327W        W 5587  17.723  22.344   4.661
33328W        W 5588  36.170   7.951  13.732
33329W        W 5589   8.976  21.741   1.929
33330W        W 5590  13.184  37.074  11.974
33331W        W 5591   4.769   2.366   1.128
33332W        W 5592  38.588  11.713   1.830
33333W        W 5593   1.949  34.994   0.545
33334W        W 5594  17.593  37.747   4.884
33335W        W 5595   1.283   9.768   2.709
33336W        W 5596  43.900  39.843  12.686
33337W        W 5597  25.420  23.034  12.945
33338W        W 5598  19.956  10.887  10.748
33339W        W 5599   0.261  21.547  11.588
33340W        W 5600   8.903  40.064  11.644
33341W        W 5601  18.166  25.197   2.260
33342W        W 5602  24.645  40.068  11.821
33343W        W 5603  19.841  43.903  13.843
33344W        W 5604  36.322  22.276  14.163
33345W        W 5605  39.530   8.564   0.958
33346W        W 5606   3.914  23.460  14.877
33347W        W 5607   2.998   4.879   2.652
33348W        W 5608   6.320  14.327  12.828
33349W        W 5609   5.227  30.151   3.301
33350W        W 5610  35.031  30.028  11.468
33351W        W 5611  21.195  27.620   5.073
33352W        W 5612  16.525   6.266  12.855
33353W        W 5613  27.547  15.186   0.661
33354W        W 5614   9.824  36.994   4.104
33355W        W 5615  39.119  20.608   2.291
33356W        W 5616   7.981  17.056   0.433
33357W        W 5617  43.380  28.529  13.627
33358W        W 5618  38.737  22.058   1.501
33359W        W 5619   1.761   0.666   2.770
33360W        W 5620  17.291   9.463   3.554
33361W        W 5621   6.322  21.964   0.272
33362W        W 5622  38.344  18.586   1.730
33363W        W 5623  24.886  41.551  13.008
33364W        W 5624  27.809  44.991  14.369
33365W        W 5625  17.626  19.309   0.247
33366W        W 5626   2.340   1.924   4.594
33367W        W 5627  40.995  19.239   3.223
33368W        W 5628  40.523  13.147   0.426
33369W        W 5629  19.027   3.481   2.345
33370W        W 5630  31.883  36.557   3.167
33371W        W 5631   7.323   2.025  13.705
33372W        W 5632   9.237  42.233  12.935
33373W        W 5633  36.405  14.991  12.901
33374W        W 5634  38.791  42.491  12.337
33375W        W 5635   6.888  38.427  14.883
33376W        W 5636  17.490  16.208   3.602
33377W        W 5637  31.939   8.912   2.699
33378W        W 5638   3.007  27.459   3.147
33379W        W 5639  29.227  43.811   3.735
33380W        W 5640  43.934  44.860  13.856
33381W        W 5641  35.455  21.198   1.652
33382W        W 5642  31.070   0.276   4.683
33383W        W 5643  31.745  24.509   0.929
33384W        W 5644  18.570  37.586  12.405
33385W        W 5645  27.346   8.278   3.348
33386W        W 5646   3.225  26.861  12.555
33387W        W 5647  27.746   6.233   1.442
33388W        W 5648  34.919  30.668  14.500
33389W        W 5649  35.655  15.304  12.478
33390W        W 5650   7.715  19.138   3.257
33391W        W 5651  32.771  35.856   2.338
33392W        W 5652  14.349  37.271  13.987
33393W        W 5653   0.765  13.915  14.370
33394W        W 5654  25.846  11.080   2.848
33395W        W 5655  11.803  21.067   1.944
33396W        W 5656  44.073  39.558  11.624
33397W        W 5657  16.596   5.763   4.076
33398W        W 5658  42.205  31.172   2.366
33399W        W 5659  30.077  14.801   2.841
33400W        W 5660  42.348  26.255  13.458
33401W        W 5661   2.486  11.344   1.340
33402W        W 5662  43.590  22.290  10.867
33403W        W 5663  27.669   6.136  14.778
33404W        W 5664  10.792  43.002  11.732
33405W        W 5665  44.194  14.443  11.193
33406W        W 5666  28.827  34.478   1.016
33407W        W 5667   9.353  41.451  13.976
33408W        W 5668  31.899  42.018  14.923
33409W        W 5669   4.964   3.899  13.517
33410W        W 5670  17.485  19.780  12.867
33411W        W 5671  24.842  24.224  11.558
33412W        W 5672  35.800  26.891  14.358
33413W        W 5673  30.229   3.788   0.742
33414W        W 5674  27.398  36.667   3.799
33415W        W 5675  32.961  36.962  13.624
33416W        W 5676   6.736  21.067  12.006
33417W        W 5677  33.147   7.928   0.050
33418W        W 5678  42.291  43.757   0.380
33419W        W 5679  34.522  22.114  14.316
33420W        W 5680  27.176  42.721   4.146
33421W        W 5681  16.692   6.998   3.794
33422W        W 5682  43.938  24.606  13.832
33423W        W 5683  25.736   3.906  13.910
33424W        W 5684  32.023  39.340   4.675
33425W        W 5685  41.065  16.079   4.404
33426W        W 5686  36.946  18.290  10.838
33427W        W 5687  11.634  10.336   1.347
33428W        W 5688  31.041  32.523   4.761
33429W        W 5689  19.786  16.028   0.771
33430W        W 5690  41.744  20.123   2.111
33431W        W 5691  43.247  34.673  13.845
33432W        W 5692   3.811  44.785  12.130
33433W        W 5693  32.939  20.088   4.693
33434W        W 5694  30.618  34.985  14.208
33435W        W 5695  40.362  24.590  10.653
33436W        W 5696  34.391   1.894  12.149
33437W        W 5697  39.544   5.376  14.487
33438W        W 5698   5.161  12.767   0.604
33439W        W 5699  16.323  19.693  13.889
33440W        W 5700  29.925  21.860   1.303
33441W        W 5701  19.332  26.817   1.439
33442W        W 5702  17.520   2.909  13.496
33443W        W 5703  25.489  23.271  10.638
33444W        W 5704   0.478  28.689   1.416
33445W        W 5705  15.158   4.275  11.644
33446W        W 5706  44.659  28.910  12.026
33447W        W 5707  16.586   3.118   4.249
33448W        W 5708  23.731  34.874   1.250
33449W        W 5709  16.598   1.003   1.907
33450W        W 5710  38.821  41.503   4.532
33451W        W 5711  27.990  11.657   4.454
33452W        W 5712   2.460   6.121   4.264
33453W        W 5713   3.414   4.232   4.583
33454W        W 5714  41.916  17.778  11.975
33455W        W 5715  11.363  14.209  13.488
33456W        W 5716  33.676  16.585  11.568
33457W        W 5717  31.688  40.111   0.345
33458W        W 5718   0.281   1.978   4.369
33459W        W 5719  15.244  10.169  13.164
33460W        W 5720  25.922  39.268   4.167
33461W        W 5721  32.160   9.656  11.522
33462W        W 5722  36.335  32.635  14.272
33463W        W 5723  37.615  16.307   0.323
33464W        W 5724  35.066   9.867  14.849
33465W        W 5725  42.566  37.988   2.159
33466W        W 5726   8.417  42.619  11.978
33467W        W 5727   8.464   3.275  13.504
33468W        W 5728   4.327  23.491  11.256
33469W        W 5729  25.294   6.133  12.658
33470W        W 5730  12.269  16.791   3.859
33471W        W 5731  16.577   6.834   4.662
33472W        W 5732  32.871   5.479   3.867
33473W        W 5733  42.671  29.083   4.268
33474W        W 5734  34.496  26.476   1.438
33475W        W 5735  26.208  41.335   5.538
33476W        W 5736  15.138   8.252  14.356
33477W        W 5737   1.109   1.875  14.316
33478W        W 5738  29.984   2.685   2.095
33479W        W 5739   8.293  36.909  14.443
33480W        W 5740  19.511  33.157   2.801
33481W        W 5741  32.303  35.130  14.596
33482W        W 5742   5.680  24.995   4.149
33483W        W 5743  21.746  18.154   3.067
33484W        W 5744   9.275  37.495   4.908
33485W        W 5745   3.020  15.758   3.747
33486W        W 5746  40.490   2.452  13.640
33487W        W 5747  32.342  17.554   0.795
33488W        W 5748  23.215  20.017  11.563
33489W        W 5749  33.698  24.829  13.714
33490W        W 5750  33.074   7.057  14.112
33491W        W 5751  16.121  13.647  13.439
33492W        W 5752  32.090  35.625  11.572
33493W        W 5753  37.061  18.852   5.040
33494W        W 5754   8.306  17.061   1.876
33495W        W 5755  36.578  29.421  11.980
33496W        W 5756   9.712  19.177   2.759
33497W        W 5757  38.080  30.089   3.663
33498W        W 5758   2.470  18.101   1.417
33499W        W 5759  10.685   3.258  14.031
33500W        W 5760  22.179  24.239   0.852
33501W        W 5761  14.012   3.795  13.063
33502W        W 5762  40.946  38.861   4.696
33503W        W 5763  43.203  13.161  14.873
33504W        W 5764  15.100  38.112  11.383
33505W        W 5765  43.436  19.942   1.752
33506W        W 5766  22.446  26.172   9.770
33507W        W 5767  29.913  10.818   2.682
33508W        W 5768  21.017  33.538   3.660
33509W        W 5769  43.317  31.034   4.553
33510W        W 5770  36.087  31.707  13.881
33511W        W 5771  35.560  21.038  10.952
33512W        W 5772   2.375  13.847   4.378
33513W        W 5773  35.939  13.813   3.564
33514W        W 5774   3.554   6.244   0.361
33515W        W 5775  16.575  31.368  11.187
33516W        W 5776  43.087  43.966   3.639
33517W        W 5777  40.099  32.092  13.953
33518W        W 5778  27.462  27.506   2.145
33519W        W 5779  10.942  22.957  12.818
33520W        W 5780   2.427  30.074   1.340
33521W        W 5781   0.867  18.249   2.667
33522W        W 5782  39.557  32.577   0.397
33523W        W 5783   3.894   3.753   2.340
33524W        W 5784  28.459  41.852   1.471
33525W        W 5785  30.891  35.507  12.142
33526W        W 5786  35.476  14.597   0.029
33527W        W 5787  34.577  29.949  14.343
33528W        W 5788   6.420  28.005   4.708
33529W        W 5789  21.160  31.198  13.277
33530W        W 5790  20.365  12.213  12.951
33531W        W 5791  20.930  37.965   2.204
33532W        W 5792  11.562  25.493   1.182
33533W        W 5793  25.077  28.600  11.493
33534W        W 5794  34.886  22.888  12.546
33535W        W 5795  27.955  31.550  14.716
33536W        W 5796  18.434  12.889  11.161
33537W        W 5797  11.882  29.097   0.958
33538W        W 5798  13.114  33.261   0.315
33539W        W 5799  20.509  13.533  11.942
33540W        W 5800  20.985  19.077   5.582
33541W        W 5801  23.918  19.477  11.131
33542W        W 5802   7.447  39.350   1.383
33543W        W 5803  37.792   3.422  13.858
33544W        W 5804  44.042  28.158   0.247
33545W        W 5805  36.439  34.068   3.176
33546W        W 5806  26.459  36.061   1.850
33547W        W 5807  18.084  19.513  13.415
33548W        W 5808   0.334  21.626   3.615
33549W        W 5809  36.972  12.682   4.301
33550W        W 5810   1.305  35.807   1.790
33551W        W 5811  33.992  24.970  12.644
33552W        W 5812  31.444   8.286   1.361
33553W        W 5813  38.623  42.942  10.644
33554W        W 5814   3.660  27.680   4.293
33555W        W 5815  43.290  21.107   3.862
33556W        W 5816  25.067  24.774   2.368
33557W        W 5817   6.774  40.488  13.232
33558W        W 5818  15.520  28.530   2.228
33559W        W 5819   5.178  29.075   0.948
33560W        W 5820   7.170  11.810   2.287
33561W        W 5821  38.525  15.314   1.810
33562W        W 5822  11.886  11.918  11.348
33563W        W 5823  41.323  12.373   4.194
33564W        W 5824  43.398  29.573  13.968
33565W        W 5825  10.866  22.693   2.372
33566W        W 5826   8.109  15.203  10.862
33567W        W 5827  15.775  19.314  14.879
33568W        W 5828  23.155  22.600   3.958
33569W        W 5829  40.538  18.514  14.332
33570W        W 5830  10.306   8.168   0.327
33571W        W 5831  32.088   9.863   4.353
33572W        W 5832  11.679  44.232  10.186
33573W        W 5833   0.162  27.126   0.007
33574W        W 5834  41.088   2.783  11.169
33575W        W 5835  42.382   2.478  13.487
33576W        W 5836  33.605  36.297   3.496
33577W        W 5837   3.883   9.852   2.352
33578W        W 5838  26.769   2.528   1.657
33579W        W 5839  38.856   4.913  12.028
33580W        W 5840   8.467   2.422  11.188
33581W        W 5841  18.187  41.363  12.763
33582W        W 5842  42.451   4.217   2.402
33583W        W 5843  27.993   1.601   2.728
33584W        W 5844   1.750  33.939   0.286
33585W        W 5845  40.573   7.022  10.983
33586W        W 5846  42.572  28.175  11.816
33587W        W 5847  18.183   5.965   2.673
33588W        W 5848   5.814   5.316   2.503
33589W        W 5849  44.635  23.267  13.957
33590W        W 5850   0.966  16.316  10.707
33591W        W 5851   9.421  12.671   3.702
33592W        W 5852   5.710  24.553   2.319
33593W        W 5853  43.411  34.175   3.747
33594W        W 5854   3.543  22.238   2.717
33595W        W 5855   3.151  40.250   4.286
33596W        W 5856  28.425  35.972  10.976
33597W        W 5857  38.787  16.004  12.958
33598W        W 5858  29.982  34.675  13.363
33599W        W 5859  24.066  16.773  14.007
33600W        W 5860  13.420  12.707  10.263
33601W        W 5861   5.884  37.562   3.320
33602W        W 5862  35.811   9.586   1.307
33603W        W 5863  32.117  32.513  11.843
33604W        W 5864  36.442   8.629   5.084
33605W        W 5865  14.126  34.402   2.701
33606W        W 5866  10.005  29.511   3.650
33607W        W 5867  34.664  34.969  11.921
33608W        W 5868  33.465  25.958   4.747
33609W        W 5869  36.797   8.774  12.142
33610W        W 5870  28.476  43.470   4.544
33611W        W 5871   8.150   0.734   0.958
33612W        W 5872  37.989   6.639  14.378
33613W        W 5873  17.173  20.170  12.852
33614W        W 5874  11.131   9.795   3.848
33615W        W 5875   9.153  38.934  12.889
33616W        W 5876  27.270   5.784  14.375
33617W        W 5877  16.000  33.493  12.011
33618W        W 5878  17.588  20.754   0.224
33619W        W 5879  26.209  11.855   4.310
33620W        W 5880  37.826   2.400  11.278
33621W        W 5881  13.560  44.058  10.436
33622W        W 5882  40.027  18.308   3.666
33623W        W 5883  37.224   6.331  14.376
33624W        W 5884  22.586  25.984  11.643
33625W        W 5885  25.746   1.921  11.592
33626W        W 5886   9.870  31.683   4.153
33627W        W 5887  41.762  11.307   2.361
33628W        W 5888   8.185  41.839  10.790
33629W        W 5889  13.694  38.829   1.001
33630W        W 5890  16.956  18.810  11.638
33631W        W 5891   8.991   5.795   0.928
33632W        W 5892   9.876   6.940   1.768
33633W        W 5893   7.689  32.062  11.702
33634W        W 5894  34.030  10.914  12.462
33635W        W 5895  21.493  18.314  11.621
33636W        W 5896  37.199  30.457  11.063
33637W        W 5897  24.492  25.257  11.956
33638W        W 5898  24.453   2.322  11.655
33639W        W 5899  44.281  20.864   4.920
33640W        W 5900  31.840  12.558  13.797
33641W        W 5901  37.513  14.268  14.051
33642W        W 5902   3.689  41.004   3.393
33643W        W 5903  38.842   0.866  14.369
33644W        W 5904  35.010  22.291  12.838
33645W        W 5905  28.378  29.156  14.525
33646W        W 5906  21.686  39.227   0.940
33647W        W 5907  44.721  43.757   1.786
33648W        W 5908  24.946  36.100   1.021
33649W        W 5909   8.178  15.193   2.810
33650W        W 5910  13.869   4.158   0.149
33651W        W 5911  25.143   5.145  14.001
33652W        W 5912  29.124  22.931   0.214
33653W        W 5913  26.086  19.734  11.999
33654W        W 5914  39.797   0.916  10.681
33655W        W 5915  31.894  41.326   3.647
33656W        W 5916  34.545  25.014   3.647
33657W        W 5917  34.449  33.948   3.236
33658W        W 5918   8.029  15.717  11.038
33659W        W 5919  44.384  32.574   2.843
33660W        W 5920  17.659  22.457  12.067
33661W        W 5921   5.441  40.194  10.740
33662W        W 5922  17.605   0.761   1.793
33663W        W 5923  18.705  39.357  13.861
33664W        W 5924  31.585  44.773   2.355
33665W        W 5925  17.943   4.984  11.031
33666W        W 5926  31.450  21.239   4.766
33667W        W 5927  16.707  14.771  11.152
33668W        W 5928  18.484  18.694   1.968
33669W        W 5929  44.784  37.194  12.357
33670W        W 5930   9.842   9.568  11.895
33671W        W 5931  31.160   5.441   3.099
33672W        W 5932  35.902  28.689   3.612
33673W        W 5933   2.175  27.607  12.548
33674W        W 5934  19.782   0.263  14.336
33675W        W 5935  36.570  34.108  14.490
33676W        W 5936  31.254  12.567   4.462
33677W        W 5937  20.108  29.206   2.012
33678W        W 5938  16.793  32.126  13.374
33679W        W 5939  19.467  21.688   0.513
33680W        W 5940  40.904  29.119   3.315
33681W        W 5941   5.016  34.433  14.891
33682W        W 5942   9.732  21.015   3.539
33683W        W 5943   5.175  41.378  12.094
33684W        W 5944   1.007  42.414   0.176
33685W        W 5945  11.682  13.592  10.872
33686W        W 5946  11.888  14.209  13.480
33687W        W 5947  26.169   6.555  11.706
33688W        W 5948  40.727  22.046  14.426
33689W        W 5949  10.310  44.250   0.323
33690W        W 5950   6.660  15.842  10.095
33691W        W 5951  29.525  41.315   1.383
33692W        W 5952   3.386   7.978  14.529
33693W        W 5953   2.839   3.387   0.334
33694W        W 5954  42.571  42.134   3.307
33695W        W 5955  33.053  44.557  12.079
33696W        W 5956   8.424  10.768  14.072
33697W        W 5957  44.714  20.168  14.875
33698W        W 5958  11.145  17.967   2.075
33699W        W 5959   0.485  35.282  11.424
33700W        W 5960  21.644  33.865  14.664
33701W        W 5961   7.890  36.272   0.441
33702W        W 5962  23.644  40.055   4.541
33703W        W 5963   7.309   2.713   0.826
33704W        W 5964  28.406  32.541   1.953
33705W        W 5965  41.884  42.929   0.807
33706W        W 5966  30.744  19.694   3.248
33707W        W 5967  25.913   9.696  13.115
33708W        W 5968   9.875  16.227  12.181
33709W        W 5969  39.705  19.209  14.343
33710W        W 5970  17.153  27.393  10.688
33711W        W 5971   4.840  17.532   1.331
33712W        W 5972   1.300   1.592   1.768
33713W        W 5973  14.257  11.585   4.756
33714W        W 5974  27.909  39.510  11.388
33715W        W 5975  31.566  32.966  14.323
33716W        W 5976  39.781  11.887  11.100
33717W        W 5977  28.890  13.407  13.111
33718W        W 5978  41.776   1.824   0.922
33719W        W 5979  23.619  15.058  14.307
33720W        W 5980  40.016  30.900  12.072
33721W        W 5981  37.987  25.918   0.211
33722W        W 5982  25.943  38.597   5.106
33723W        W 5983   0.352  31.050   1.823
33724W        W 5984  20.191  17.826  14.883
33725W        W 5985   8.826  14.554  11.505
33726W        W 5986  20.963  32.024  10.726
33727W        W 5987  21.198   8.025   5.120
33728W        W 5988  11.161  26.015  11.929
33729W        W 5989  26.090  42.367   0.972
33730W        W 5990  15.714  26.311  10.384
33731W        W 5991  16.824   6.722   4.216
33732W        W 5992  18.649  41.365  14.039
33733W        W 5993  23.553  37.994  13.120
33734W        W 5994  34.026  40.215   1.150
33735W        W 5995  40.610   1.807   2.924
33736W        W 5996  44.734   5.181  14.750
33737W        W 5997   0.644   2.691  10.109
33738W        W 5998   2.724  10.808  13.044
33739W        W 5999  26.095  28.663   1.268
33740W        W 6000  16.270  10.925   4.489
33741W        W 6001  38.891  34.354   2.342
33742W        W 6002  14.085  13.296  12.280
33743W        W 6003  42.760   9.573  14.382
33744W        W 6004  15.091  40.015  14.447
33745W        W 6005   9.628   9.764  11.017
33746W        W 6006  29.831  25.585   2.385
33747W        W 6007  15.319  35.903   2.367
33748W        W 6008  35.605  24.573  13.141
33749W        W 6009  19.846  37.390   4.598
33750W        W 6010  24.643   0.401   3.692
33751W        W 6011  30.854  23.130   4.234
33752W        W 6012  10.124  13.325  11.973
33753W        W 6013  32.253  18.125   2.825
33754W        W 6014  37.854  26.063  13.315
33755W        W 6015  43.665  21.714  11.524
33756W        W 6016  21.823   6.922   3.059
33757W        W 6017   4.918  15.519  14.469
33758W        W 6018  38.491   4.143   1.719
33759W        W 6019  33.400  18.530   3.197
33760W        W 6020  11.345  16.195  11.186
33761W        W 6021  31.152  15.574   1.029
33762W        W 6022  22.741   3.170   4.997
33763W        W 6023  42.523  19.892  13.253
33764W        W 6024   6.669  23.034  12.335
33765W        W 6025   8.751  42.132  12.843
33766W        W 6026  33.597  28.122   0.162
33767W        W 6027  11.697  28.398  11.981
33768W        W 6028  24.483   9.756   0.830
33769W        W 6029  11.137  35.599   1.009
33770W        W 6030  43.565  34.269   3.246
33771W        W 6031  28.932  26.778   1.511
33772W        W 6032  27.023  11.419   0.311
33773W        W 6033  20.113  35.386  14.396
33774W        W 6034  21.018   2.934   0.888
33775W        W 6035   9.765  11.425  12.007
33776W        W 6036  33.542  14.067  10.655
33777W        W 6037   3.213  27.940   4.196
33778W        W 6038   8.760  11.762   0.792
33779W        W 6039   8.717   5.236   2.872
33780W        W 6040  16.725  43.412   0.744
33781W        W 6041  43.041  36.499   2.792
33782W        W 6042  11.572  10.687   4.796
33783W        W 6043  21.622   6.838  14.314
33784W        W 6044  20.600  32.578   1.405
33785W        W 6045  19.205  15.870   2.281
33786W        W 6046  39.460   7.300  10.657
33787W        W 6047  44.374  33.896   3.884
33788W        W 6048  31.705  36.809   0.312
33789W        W 6049  41.935  26.669  12.039
33790W        W 6050  18.680  16.691   3.361
33791W        W 6051  35.402  15.550   4.372
33792W        W 6052   4.742  23.688  12.048
33793W        W 6053  39.168   6.778   5.535
33794W        W 6054  14.309   4.480  13.511
33795W        W 6055  26.250  33.644   2.607
33796W        W 6056  42.270  33.702  12.093
33797W        W 6057  31.127   5.280   4.667
33798W        W 6058  32.902  19.294   9.784
33799W        W 6059   0.972  39.288   2.297
33800W        W 6060   9.368  29.462   4.856
33801W        W 6061  17.749   9.821   1.364
33802W        W 6062  28.337  20.260  12.149
33803W        W 6063  19.251  42.876   1.938
33804W        W 6064  16.100   7.195   0.437
33805W        W 6065  29.879  22.632  10.405
33806W        W 6066  25.047   9.464   4.837
33807W        W 6067  40.370  22.397   2.397
33808W        W 6068   5.025  33.079   3.643
33809W        W 6069  11.594  12.712  13.994
33810W        W 6070  36.335  19.779  14.912
33811W        W 6071  13.368  40.934   4.772
33812W        W 6072  15.989   5.957   1.668
33813W        W 6073  14.816  33.735   4.143
33814W        W 6074  40.673  36.289   2.338
33815W        W 6075  18.691   4.767  14.911
33816W        W 6076  22.611   3.803   4.150
33817W        W 6077  19.497   1.329   1.349
33818W        W 6078  31.155  19.676   2.892
33819W        W 6079  40.464   2.241  10.569
33820W        W 6080  30.978   7.768  10.664
33821W        W 6081  20.659  39.067   1.773
33822W        W 6082   5.290  41.845  14.827
33823W        W 6083  21.181   6.887  11.511
33824W        W 6084   5.791  20.605  11.538
33825W        W 6085  13.097  12.194  11.434
33826W        W 6086   5.977  27.601   1.244
33827W        W 6087   3.408  27.747   1.806
33828W        W 6088   0.019  37.572  13.392
33829W        W 6089  14.346  18.246  11.023
33830W        W 6090  24.608  18.848  11.621
33831W        W 6091  43.437  25.126  14.324
33832W        W 6092  16.326  22.946   0.415
33833W        W 6093   6.138  38.813  11.177
33834W        W 6094  22.696  39.815   4.625
33835W        W 6095  40.552   7.307   4.385
33836W        W 6096   9.353  13.100  13.319
33837W        W 6097   5.709  29.955   2.199
33838W        W 6098  35.338  27.269  13.530
33839W        W 6099  42.973  21.255   2.778
33840W        W 6100  19.497   3.743   0.245
33841W        W 6101  18.718  42.770   5.132
33842W        W 6102  42.403  29.071   2.412
33843W        W 6103  12.421   2.424   0.544
33844W        W 6104  24.996  18.142  11.221
33845W        W 6105  36.106  31.953  10.435
33846W        W 6106  37.808   2.212   3.718
33847W        W 6107  33.856  13.397  14.305
33848W        W 6108  23.680  17.740   1.921
33849W        W 6109  35.594   7.813  14.430
33850W        W 6110  44.039  33.133   4.319
33851W        W 6111   7.788   6.202  12.368
33852W        W 6112  18.680  29.615  13.478
33853W        W 6113  15.668   7.410  11.537
33854W        W 6114  32.290  21.579  14.745
33855W        W 6115  39.822   3.002   0.949
33856W        W 6116  23.950   7.650   3.723
33857W        W 6117  20.702  42.880   2.168
33858W        W 6118   9.266   2.193  10.997
33859W        W 6119   7.394  16.345   3.008
33860W        W 6120  38.466   6.247   1.700
33861W        W 6121  27.909  22.129   3.138
33862W        W 6122  31.345  27.979  14.055
33863W        W 6123  36.090  37.635  12.478
33864W        W 6124  43.461   5.432   1.224
33865W        W 6125  36.958  30.916   2.215
33866W        W 6126  21.201  31.084  14.542
33867W        W 6127  16.608  13.806  12.278
33868W        W 6128   7.400  13.648   4.798
33869W        W 6129   0.104  39.431   4.955
33870W        W 6130  38.582  44.664  13.546
33871W        W 6131   5.948  19.212  14.348
33872W        W 6132  28.160  28.270  13.792
33873W        W 6133   7.434  20.472  12.997
33874W        W 6134  42.843  34.554  10.670
33875W        W 6135  21.066   6.254  12.097
33876W        W 6136  35.099  22.731   1.309
33877W        W 6137   9.886  27.881   2.243
33878W        W 6138  30.995  31.598   3.821
33879W        W 6139  19.855  30.226  11.306
33880W        W 6140   7.631  25.759   2.731
33881W        W 6141  37.122  18.344  14.050
33882W        W 6142  18.644  34.331   4.287
33883W        W 6143  36.780   1.200  11.455
33884W        W 6144  43.378  17.327   2.782
33885W        W 6145  26.209  31.024  10.690
33886W        W 6146   8.378  29.708   3.685
33887W        W 6147   1.850  13.610  10.758
33888W        W 6148  29.213  39.863  12.523
33889W        W 6149   9.192  37.773   1.674
33890W        W 6150  34.940   2.183  12.916
33891W        W 6151   8.895  23.687   4.241
33892W        W 6152   1.488   0.233   1.771
33893W        W 6153  23.257  10.684   3.175
33894W        W 6154   1.790  23.876   3.774
33895W        W 6155  30.344  33.047   9.600
33896W        W 6156  31.863  41.841   4.689
33897W        W 6157  11.147  37.868  11.431
33898W        W 6158  21.304   7.148  10.681
33899W        W 6159  37.185  16.468  11.708
33900W        W 6160  40.813   8.778   1.312
33901W        W 6161   4.938  44.555   2.659
33902W        W 6162  15.116  14.732  13.266
33903W        W 6163  18.771   3.318  14.542
33904W        W 6164  44.515  13.302   0.156
33905W        W 6165  24.102  26.640  10.197
33906W        W 6166  18.598  37.289  11.411
33907W        W 6167  32.477  32.948  14.591
33908W        W 6168  31.041  14.796   2.544
33909W        W 6169  41.915   2.905  11.555
33910W        W 6170   4.731  44.454   4.592
33911W        W 6171  38.048  21.500   4.139
33912W        W 6172  41.396  22.512  13.503
33913W        W 6173  44.818   0.976   0.698
33914W        W 6174  42.630  29.995   1.925
33915W        W 6175  31.828  40.838   3.483
33916W        W 6176   6.900  22.442  12.253
33917W        W 6177  12.773   5.673   0.343
33918W        W 6178   3.513  34.307  11.106
33919W        W 6179  39.327  19.218  13.049
33920W        W 6180  38.388  44.078   0.236
33921W        W 6181  39.928   1.695  13.532
33922W        W 6182  10.312  40.835   1.564
33923W        W 6183  27.082   0.316   2.222
33924W        W 6184  43.259  16.097   2.917
33925W        W 6185  28.671  34.414   3.217
33926W        W 6186  34.520  30.489  10.749
33927W        W 6187  21.458  44.525   3.600
33928W        W 6188  13.852  38.150  13.946
33929W        W 6189  42.382  23.637  14.475
33930W        W 6190   8.799   4.621   3.689
33931W        W 6191  27.019   1.088   1.910
33932W        W 6192  19.558  43.896   2.637
33933W        W 6193  15.263  29.128   9.964
33934W        W 6194  21.202  32.524   2.159
33935W        W 6195  15.570   2.725   2.655
33936W        W 6196  43.719  36.570   0.857
33937W        W 6197  31.846  37.122   3.792
33938W        W 6198  26.820  14.144  12.859
33939W        W 6199   0.534   5.308  13.742
33940W        W 6200  27.221  30.491   2.858
33941W        W 6201  37.380  38.549   3.711
33942W        W 6202  35.638  19.999  10.384
33943W        W 6203  11.680  20.071   1.910
33944W        W 6204  34.417   4.663  14.361
33945W        W 6205   6.790  44.644  11.138
33946W        W 6206  26.634  38.905   3.610
33947W        W 6207  36.421  41.359   2.832
33948W        W 6208  37.937  16.841   0.303
33949W        W 6209  25.539  14.132  12.458
33950W        W 6210  20.817  20.155   1.915
33951W        W 6211  38.545   8.768   1.761
33952W        W 6212   6.748  19.206  14.978
33953W        W 6213  25.512  42.426  13.369
33954W        W 6214  44.739  30.641   3.159
33955W        W 6215  26.351  29.612  11.634
33956W        W 6216  44.420   4.421  12.022
33957W        W 6217  31.983  12.331   1.805
33958W        W 6218   2.619  12.627  10.613
33959W        W 6219  42.381  43.768  14.448
33960W        W 6220  27.524  27.508  14.296
33961W        W 6221  32.184  16.282  12.853
33962W        W 6222   6.787   7.476  10.358
33963W        W 6223  33.309  40.484  12.047
33964W        W 6224   9.914  44.337  13.347
33965W        W 6225  29.818  44.304   4.143
33966W        W 6226  16.613   2.244  11.696
33967W        W 6227  10.803  14.347   0.298
33968W        W 6228  16.704  38.779   4.507
33969W        W 6229  29.856  18.871  12.647
33970W        W 6230  28.169  27.485   0.897
33971W        W 6231  19.219  41.110  10.847
33972W        W 6232  36.021  33.596   4.711
33973W        W 6233  22.932   5.460   3.082
33974W        W 6234  25.233   7.623  13.290
33975W        W 6235   4.685  25.747   0.466
33976W        W 6236  34.042  24.278   4.523
33977W        W 6237  30.872  34.601  12.068
33978W        W 6238   4.952   5.682  14.379
33979W        W 6239  41.911  34.651   1.424
33980W        W 6240  43.874  40.905   0.855
33981W        W 6241   9.810   6.608  14.056
33982W        W 6242  43.434  26.426   4.401
33983W        W 6243  43.193  30.691  11.927
33984W        W 6244  31.260  24.809   4.509
33985W        W 6245  35.188   6.227   4.129
33986W        W 6246  28.710   9.606   2.228
33987W        W 6247  17.463  32.625   4.062
33988W        W 6248  12.927   9.322  11.949
33989W        W 6249  30.135   3.239  14.864
33990W        W 6250   6.978  43.943  11.553
33991W        W 6251  26.909   8.343  14.371
33992W        W 6252  43.527   1.154   2.307
33993W        W 6253   1.927  23.716  13.794
33994W        W 6254  28.471  40.443   3.771
33995W        W 6255   1.837  29.642  14.305
33996W        W 6256  13.815   2.491   3.320
33997W        W 6257  10.366  28.767   0.319
33998W        W 6258  33.879  40.072   3.230
33999W        W 6259  13.476   6.334   4.138
34000W        W 6260  19.960   3.261  12.845
34001W        W 6261  20.726  25.940   1.497
34002W        W 6262  33.366  30.646  12.665
34003W        W 6263   6.243   6.230  13.163
34004W        W 6264   4.482   3.694  13.554
34005W        W 6265  40.540  15.364   4.864
34006W        W 6266  32.327  38.056   3.668
34007W        W 6267  11.116  32.068  13.486
34008W        W 6268  22.191  13.434   4.433
34009W        W 6269  24.716   1.941  11.426
34010W        W 6270  24.626  17.348   4.793
34011W        W 6271  24.257  30.295   1.159
34012W        W 6272  17.890  27.258   1.276
34013W        W 6273  38.881  39.454  13.845
34014W        W 6274   6.570  21.565   2.393
34015W        W 6275   4.534  27.109  12.017
34016W        W 6276  39.010  12.106   1.674
34017W        W 6277  38.080  24.550  14.381
34018W        W 6278  13.301  17.323   4.759
34019W        W 6279  20.278  21.682  11.624
34020W        W 6280  19.022  41.100   1.756
34021W        W 6281   4.259   6.203   1.973
34022W        W 6282  19.127  17.303  11.747
34023W        W 6283  23.160  33.977   4.398
34024W        W 6284  34.997  38.533  14.341
34025W        W 6285  23.593  22.217  11.555
34026W        W 6286  20.495  26.532  13.060
34027W        W 6287   7.901  42.663  12.057
34028W        W 6288  36.092  38.355  11.523
34029W        W 6289  27.139  29.369  11.236
34030W        W 6290  34.339  36.002  13.799
34031W        W 6291  33.444  33.502  11.421
34032W        W 6292  41.068  27.772  14.474
34033W        W 6293  42.156  12.124   3.852
34034W        W 6294   0.380  10.603  12.868
34035W        W 6295  25.735  24.771  13.892
34036W        W 6296  22.127  14.282   1.090
34037W        W 6297  13.483  24.967   3.229
34038W        W 6298  27.439  16.102   3.738
34039W        W 6299   2.914  44.827   0.444
34040W        W 6300  28.147  40.895   4.164
34041W        W 6301  38.884   8.270  12.070
34042W        W 6302   5.162   3.755  13.033
34043W        W 6303   1.125  12.625   2.211
34044W        W 6304  35.979  36.547   4.133
34045W        W 6305   2.287  10.881   3.800
34046W        W 6306  12.262  42.951   4.519
34047W        W 6307  29.445  33.964   1.413
34048W        W 6308  41.390   2.753  14.783
34049W        W 6309   9.096  29.115  13.313
34050W        W 6310   7.455  17.107  14.273
34051W        W 6311   1.348   4.734   1.895
34052W        W 6312  39.003   6.314   4.039
34053W        W 6313  15.246  27.062   4.366
34054W        W 6314  29.390  38.906  13.027
34055W        W 6315  33.150   8.414  11.430
34056W        W 6316   4.223   0.437  11.457
34057W        W 6317  33.385  20.894  11.936
34058W        W 6318  26.580  22.525   0.730
34059W        W 6319   8.671   3.953   0.767
34060W        W 6320  21.215   5.745   5.609
34061W        W 6321   0.409  37.935  12.729
34062W        W 6322  16.766  20.075  12.577
34063W        W 6323  36.584  44.494  13.415
34064W        W 6324  30.138  11.364  12.619
34065W        W 6325  32.689  25.026   3.202
34066W        W 6326   8.546  14.999  12.937
34067W        W 6327  34.019  16.648   0.202
34068W        W 6328  32.158   8.353   0.156
34069W        W 6329  23.734  38.822  10.538
34070W        W 6330   3.814   4.918  11.721
34071W        W 6331  12.780  11.432  11.574
34072W        W 6332  20.346   8.646  12.438
34073W        W 6333   0.030  29.648   2.358
34074W        W 6334  13.857  30.429  14.377
34075W        W 6335   2.308   9.414  13.893
34076W        W 6336  30.425  27.204  14.321
34077W        W 6337  23.213   2.853   4.619
34078W        W 6338   4.475   6.881  12.051
34079W        W 6339  25.990  38.981  14.914
34080W        W 6340  23.264  31.045   0.787
34081W        W 6341  24.232  37.084  12.878
34082W        W 6342  32.849  28.927  11.094
34083W        W 6343   5.418  22.720  12.450
34084W        W 6344  27.210  33.057   1.234
34085W        W 6345  16.326  22.291  11.438
34086W        W 6346  35.407  11.312   3.202
34087W        W 6347  11.828  29.625  10.736
34088W        W 6348   7.286  21.788   1.883
34089W        W 6349  37.158  32.424   2.906
34090W        W 6350  34.043  10.169   4.034
34091W        W 6351  44.979  20.003   0.317
34092W        W 6352  10.627  39.160  10.661
34093W        W 6353   4.657   6.191   0.251
34094W        W 6354  28.166  26.092  14.337
34095W        W 6355  20.794   4.687   4.163
34096W        W 6356  26.071  26.476   3.199
34097W        W 6357  29.023   4.820   2.853
34098W        W 6358  17.015  16.729  13.546
34099W        W 6359  19.533  20.457  12.942
34100W        W 6360  17.580  24.747  12.968
34101W        W 6361  30.882  44.944  14.758
34102W        W 6362  19.506  39.572  11.631
34103W        W 6363  39.805  11.904  13.733
34104W        W 6364  19.514  16.155  11.539
34105W        W 6365  18.582   2.780   4.391
34106W        W 6366  19.711  44.860  13.553
34107W        W 6367  11.727   4.239   1.807
34108W        W 6368  16.145  44.726  12.448
34109W        W 6369   3.115  23.814  11.539
34110W        W 6370  28.833   8.394   1.727
34111W        W 6371  32.640  16.112  13.906
34112W        W 6372  10.792  42.719   2.343
34113W        W 6373  22.755  41.395  10.701
34114W        W 6374  38.848  10.578   1.273
34115W        W 6375  24.662  44.902   4.465
34116W        W 6376  26.731  21.736   4.795
34117W        W 6377  18.564  11.565  13.988
34118W        W 6378  20.590   5.258  14.760
34119W        W 6379  11.124  25.890   3.957
34120W        W 6380   3.253  12.769   3.272
34121W        W 6381  33.213  36.377   1.867
34122W        W 6382   3.586   2.245   4.095
34123W        W 6383  25.426  42.766   1.001
34124W        W 6384  34.266  29.202   2.446
34125W        W 6385  25.344   3.463   2.553
34126W        W 6386  18.137   5.855   1.755
34127W        W 6387  43.469  27.100   3.795
34128W        W 6388  18.490   7.631   3.295
34129W        W 6389  30.093  26.156   3.221
34130W        W 6390  17.603   8.842  11.746
34131W        W 6391  28.762  21.886   3.771
34132W        W 6392  43.756  43.553   1.955
34133W        W 6393   9.412  35.933   1.709
34134W        W 6394  33.143  32.518   0.522
34135W        W 6395  10.934  20.092   3.746
34136W        W 6396  32.943  37.620  13.060
34137W        W 6397   3.190  34.591   1.467
34138W        W 6398  36.456  33.693  10.673
34139W        W 6399  23.786  19.648   1.627
34140W        W 6400  37.483   2.684  13.859
34141W        W 6401  23.643  37.856   3.289
34142W        W 6402  20.001  25.560  13.359
34143W        W 6403  32.914  42.583  12.045
34144W        W 6404  13.301  22.066  10.976
34145W        W 6405  25.193  14.167   0.761
34146W        W 6406  37.040   3.870  13.436
34147W        W 6407   0.748  15.618  10.543
34148W        W 6408  33.077  44.420  10.449
34149W        W 6409  42.768  17.580   1.787
34150W        W 6410  16.400  38.514  14.554
34151W        W 6411  25.473  20.295  11.503
34152W        W 6412  33.347  44.832  13.319
34153W        W 6413   9.239  25.988   3.966
34154W        W 6414  10.243  33.540  10.908
34155W        W 6415  42.522  41.337  11.226
34156W        W 6416  30.952  41.635  14.935
34157W        W 6417   9.707  10.025  11.461
34158W        W 6418  19.695  30.133   0.982
34159W        W 6419   7.387  16.774  11.373
34160W        W 6420  43.402  27.224  12.228
34161W        W 6421  36.302  39.725  13.613
34162W        W 6422  23.090  36.292   3.869
34163W        W 6423   3.917  40.281   0.009
34164W        W 6424  20.680  18.826  12.193
34165W        W 6425  29.128  34.349  13.340
34166W        W 6426  25.156  41.784   0.314
34167W        W 6427  13.344  43.384  13.382
34168W        W 6428  28.581  33.119   0.746
34169W        W 6429  42.393   1.993   3.254
34170W        W 6430   5.010   5.196  11.595
34171W        W 6431   6.828  27.316  12.814
34172W        W 6432  28.443  17.094  13.455
34173W        W 6433  18.091   3.853   1.355
34174W        W 6434   3.196  16.616   2.580
34175W        W 6435  39.776  18.557  14.850
34176W        W 6436  34.587  10.659   1.024
34177W        W 6437  18.987   0.517   5.031
34178W        W 6438  37.999   5.345   1.245
34179W        W 6439  28.384  24.286   4.251
34180W        W 6440  14.744  10.680   3.313
34181W        W 6441  35.849   0.319   4.888
34182W        W 6442  40.167  37.571  10.950
34183W        W 6443  43.212  20.296   0.744
34184W        W 6444  14.201  34.117   4.632
34185W        W 6445  19.749   8.700  11.146
34186W        W 6446  26.931   1.346   4.153
34187W        W 6447  25.278  15.357  11.588
34188W        W 6448  18.174   4.579   3.092
34189W        W 6449  14.728  12.606  11.222
34190W        W 6450  14.554  30.084  14.738
34191W        W 6451  36.013  44.052   4.103
34192W        W 6452  11.161  12.632   3.035
34193W        W 6453  40.633  12.218   1.868
34194W        W 6454  36.032  32.203   5.028
34195W        W 6455  11.185   7.953  11.164
34196W        W 6456  17.861  19.090   0.813
34197W        W 6457  29.372  10.676   1.201
34198W        W 6458  43.447  31.109  12.168
34199W        W 6459  30.115  29.679   2.463
34200W        W 6460  17.157  19.512  10.335
34201W        W 6461  32.400  34.549   1.712
34202W        W 6462  44.896   3.452  12.904
34203W        W 6463  14.139  27.361  11.134
34204W        W 6464  34.072  16.188  11.116
34205W        W 6465  44.460  20.718  11.577
34206W        W 6466   0.945  16.683   3.127
34207W        W 6467  40.267  25.277   9.904
34208W        W 6468  17.541  11.726  10.570
34209W        W 6469  29.191   2.953   2.678
34210W        W 6470  32.643  34.159  13.455
34211W        W 6471  44.780  10.542  13.691
34212W        W 6472  19.118  33.234  14.012
34213W        W 6473  34.634  34.386  12.526
34214W        W 6474  32.466  20.473   1.753
34215W        W 6475  27.488   9.202  11.659
34216W        W 6476   1.976  20.569  12.444
34217W        W 6477  36.499   7.644   0.706
34218W        W 6478  26.766  41.434   9.742
34219W        W 6479  14.721   9.879  13.930
34220W        W 6480  11.741  39.278  11.111
34221W        W 6481  23.487  33.787  12.414
34222W        W 6482  28.146  44.782   4.501
34223W        W 6483  25.566   1.005  10.633
34224W        W 6484  20.997  26.693  11.926
34225W        W 6485  21.422  43.990   1.864
34226W        W 6486  12.765  18.750   1.284
34227W        W 6487  40.739  23.220   0.272
34228W        W 6488  37.013   5.434  11.596
34229W        W 6489  36.807  37.062   0.933
34230W        W 6490   6.784  20.679  14.840
34231W        W 6491  13.961  43.748   0.063
34232W        W 6492  10.148  24.155  14.498
34233W        W 6493  29.482  26.916   3.293
34234W        W 6494  40.384  39.330  12.064
34235W        W 6495  34.831  18.251   9.747
34236W        W 6496  18.115  29.917  12.072
34237W        W 6497  24.010   0.318  13.974
34238W        W 6498  38.864  43.012   5.368
34239W        W 6499  26.879  40.682  13.003
34240W        W 6500  35.038  40.947  12.471
34241W        W 6501  22.692  40.331  12.624
34242W        W 6502  24.060  21.059   1.928
34243W        W 6503   3.264  37.267  14.864
34244W        W 6504  42.526  35.677  12.171
34245W        W 6505  16.396  18.290   1.348
34246W        W 6506  35.218   4.962   0.420
34247W        W 6507  26.199  13.568   0.961
34248W        W 6508  19.559  41.356   1.101
34249W        W 6509  12.823  30.556   5.495
34250W        W 6510  22.962  39.924   1.445
34251W        W 6511  21.587  20.634   4.658
34252W        W 6512   7.610  19.141   1.250
34253W        W 6513  23.230  18.799   4.193
34254W        W 6514  23.061  34.838  13.848
34255W        W 6515   5.238  18.987  12.083
34256W        W 6516  41.756   7.528  14.706
34257W        W 6517   3.232  38.091   3.406
34258W        W 6518  26.485   5.967   4.186
34259W        W 6519   8.928  43.029   3.682
34260W        W 6520  43.913   6.902   2.764
34261W        W 6521  18.326  14.911   0.933
34262W        W 6522  21.298  21.780  13.761
34263W        W 6523  24.847  16.547  13.705
34264W        W 6524  27.461  13.518   3.247
34265W        W 6525   7.245  34.041   0.900
34266W        W 6526   7.790  37.075   0.340
34267W        W 6527  11.195   1.397  14.995
34268W        W 6528  26.934  28.653  13.420
34269W        W 6529   5.762   3.220  11.224
34270W        W 6530  15.786  37.822   1.050
34271W        W 6531  38.351  24.601   2.312
34272W        W 6532  11.236  12.144  13.368
34273W        W 6533  32.613  44.301  10.772
34274W        W 6534  22.596  36.192   3.998
34275W        W 6535  17.313  31.510  14.301
34276W        W 6536   2.918  19.590   1.800
34277W        W 6537  24.689  39.537   5.373
34278W        W 6538  34.297  25.639   0.429
34279W        W 6539  39.586   2.992   0.257
34280W        W 6540  30.762   0.947   0.865
34281W        W 6541   6.551  28.560   0.949
34282W        W 6542   0.491  16.743  14.790
34283W        W 6543  13.290  36.371   4.817
34284W        W 6544  13.599   1.769   1.210
34285W        W 6545  33.342  14.241   4.371
34286W        W 6546  31.585  29.248   2.316
34287W        W 6547  27.515  15.102   3.950
34288W        W 6548  20.776   4.944   3.695
34289W        W 6549  22.497  29.330  11.424
34290W        W 6550  13.761   0.830   1.974
34291W        W 6551   2.752   3.985  12.919
34292W        W 6552  27.331  31.950   1.433
34293W        W 6553  11.573  12.786  13.034
34294W        W 6554  40.289  11.418   1.305
34295W        W 6555  14.843  30.794  12.289
34296W        W 6556  19.633  21.084  12.860
34297W        W 6557  23.487   2.528  11.436
34298W        W 6558  38.430  38.067  14.287
34299W        W 6559  22.261  34.189   1.683
34300W        W 6560  42.569  20.510  12.777
34301W        W 6561  16.569  35.800  12.332
34302W        W 6562   2.823  35.966  10.919
34303W        W 6563  22.262  43.759   4.287
34304W        W 6564  22.159  34.642  13.514
34305W        W 6565  33.888  16.727   3.179
34306W        W 6566  10.138  19.052  11.337
34307W        W 6567  11.297  15.368   2.604
34308W        W 6568  25.212  27.471   4.582
34309W        W 6569  31.887  39.333  13.241
34310W        W 6570   5.548  34.463   1.198
34311W        W 6571  30.937  19.750  10.589
34312W        W 6572  13.395  18.066  10.821
34313W        W 6573  34.355   1.235  14.341
34314W        W 6574  15.181  24.309   1.745
34315W        W 6575  16.741  37.442   0.066
34316W        W 6576  37.469  10.380   1.431
34317W        W 6577  36.314   9.461   4.216
34318W        W 6578   9.225  44.581   4.168
34319W        W 6579   9.744   7.234  11.550
34320W        W 6580  38.932   3.313  14.925
34321W        W 6581  10.244  41.546  14.871
34322W        W 6582  38.224   7.265  11.958
34323W        W 6583  40.194   9.775  12.830
34324W        W 6584  17.263   1.701  12.102
34325W        W 6585  40.913  16.747   2.691
34326W        W 6586  18.767  15.238   1.097
34327W        W 6587  44.408  26.297   2.258
34328W        W 6588   1.488   1.304  12.746
34329W        W 6589   9.310  19.237   4.367
34330W        W 6590  15.272  34.235   1.926
34331W        W 6591  30.145   4.956   3.354
34332W        W 6592  17.869  35.369  11.514
34333W        W 6593  19.722   9.286  10.197
34334W        W 6594  40.445  29.496  13.105
34335W        W 6595  30.703   1.768  11.892
34336W        W 6596  12.101  41.061  11.991
34337W        W 6597  18.292  29.005   1.006
34338W        W 6598  41.740  43.915   3.238
34339W        W 6599  30.919  17.328  14.357
34340W        W 6600  39.536  39.613   0.910
34341W        W 6601   4.527  26.289   1.580
34342W        W 6602  11.690  13.230   4.949
34343W        W 6603   6.921  27.028  14.308
34344W        W 6604  22.010   7.795  14.732
34345W        W 6605  38.475  30.847  13.762
34346W        W 6606  41.345  30.592  13.286
34347W        W 6607  29.136  19.970  11.467
34348W        W 6608  42.419  15.012   0.970
34349W        W 6609  19.304  22.688  10.664
34350W        W 6610  17.101  43.362   4.300
34351W        W 6611  29.668  27.774   5.053
34352W        W 6612  32.135  17.573  10.675
34353W        W 6613  25.951   7.755   1.742
34354W        W 6614  20.206  20.033   0.397
34355W        W 6615  25.670  42.931   4.222
34356W        W 6616   8.689  44.700  12.156
34357W        W 6617  16.075  29.387  12.105
34358W        W 6618   9.191  19.980   0.791
34359W        W 6619  41.066  32.846  11.926
34360W        W 6620   0.036   7.187  12.127
34361W        W 6621  30.658  34.626  11.584
34362W        W 6622  41.553  43.765   3.699
34363W        W 6623  40.139  14.213   5.031
34364W        W 6624  31.036   2.007  12.205
34365W        W 6625  38.977  27.042   1.425
34366W        W 6626  13.469  13.747   1.021
34367W        W 6627  27.493  34.028   4.679
34368W        W 6628  29.186  41.935   1.999
34369W        W 6629   6.659  28.461   1.458
34370W        W 6630  42.746   7.907   1.300
34371W        W 6631  10.074  28.572   2.805
34372W        W 6632  24.016  38.950  14.881
34373W        W 6633  37.315  36.102  14.575
34374W        W 6634  27.905   8.320  14.474
34375W        W 6635  44.138   3.148  13.983
34376W        W 6636  31.201   3.760   3.541
34377W        W 6637  28.593  15.811  11.127
34378W        W 6638  39.737   3.676  11.676
34379W        W 6639  13.695  39.869  10.910
34380W        W 6640  32.672  17.840   3.733
34381W        W 6641  14.723  27.558  10.469
34382W        W 6642  11.746  16.334   1.344
34383W        W 6643   1.785  16.807   3.458
34384W        W 6644   3.518  32.428   2.348
34385W        W 6645  44.004  40.831  10.602
34386W        W 6646  30.430   0.834  13.743
34387W        W 6647   9.630   1.150   3.293
34388W        W 6648  27.065  31.181   1.237
34389W        W 6649  11.637  41.110  13.858
34390W        W 6650   6.659   9.090   4.144
34391W        W 6651  40.994   1.920  13.318
34392W        W 6652  15.476  12.135  10.362
34393W        W 6653  26.732  17.787   3.660
34394W        W 6654  16.354  15.869   4.281
34395W        W 6655  39.830  33.907   0.443
34396W        W 6656  24.218  26.621   0.402
34397W        W 6657  33.781  17.697  10.342
34398W        W 6658   1.887  37.529   1.300
34399W        W 6659  22.023   1.939  12.423
34400W        W 6660  25.163  20.678  10.503
34401W        W 6661   8.814  41.481  13.941
34402W        W 6662  12.239  29.682   0.342
34403W        W 6663  37.085  13.286  12.716
34404W        W 6664  26.470  32.067   3.341
34405W        W 6665  39.495  12.303   4.707
34406W        W 6666  21.238  10.141  14.465
34407W        W 6667  26.935   8.475  11.142
34408W        W 6668  33.853  44.820  13.511
34409W        W 6669  21.004   2.512   2.377
34410W        W 6670   9.498  44.932  11.904
34411W        W 6671   6.291  17.666  11.740
34412W        W 6672   3.947  39.978  12.593
34413W        W 6673  32.627  44.879  11.984
34414W        W 6674  19.068  26.748  13.434
34415W        W 6675  23.369   6.404  11.385
34416W        W 6676  40.710  26.820  14.370
34417W        W 6677  43.817  32.977  10.932
34418W        W 6678  15.650  26.054  10.846
34419W        W 6679  24.976   8.256   4.607
34420W        W 6680  34.560  42.301  10.727
34421W        W 6681  13.777  37.357  14.873
34422W        W 6682  28.247  24.965   2.130
34423W        W 6683   7.132  41.396   4.075
34424W        W 6684  33.516  10.755  10.394
34425W        W 6685  28.470  34.555   0.333
34426W        W 6686   1.909  35.146   2.015
34427W        W 6687  13.512   0.924   3.417
34428W        W 6688  12.743  31.551   1.525
34429W        W 6689  12.889  14.344  14.402
34430W        W 6690   2.939  18.673  14.898
34431W        W 6691  37.086  32.960   1.372
34432W        W 6692  43.421  18.712  12.001
34433W        W 6693  19.034  37.031   4.649
34434W        W 6694  44.281  32.569  14.964
34435W        W 6695  13.354  30.167   3.689
34436W        W 6696  15.528  18.710   1.258
34437W        W 6697  14.843  12.319  13.483
34438W        W 6698  33.099  29.552  13.029
34439W        W 6699  14.616   3.926   2.603
34440W        W 6700  19.518  26.351  10.385
34441W        W 6701  38.891  39.508  11.025
34442W        W 6702   2.962  20.124  12.436
34443W        W 6703  18.180  19.012   3.048
34444W        W 6704  22.070  35.258   4.644
34445W        W 6705   5.259   4.639   0.483
34446W        W 6706   1.562  28.610  13.565
34447W        W 6707  35.873  20.281   1.724
34448W        W 6708   2.809  39.042  13.297
34449W        W 6709  29.162  16.757  10.512
34450W        W 6710  26.177   1.954  14.976
34451W        W 6711  20.121   6.046   4.593
34452W        W 6712  17.364  11.573   1.751
34453W        W 6713  16.253  34.311   1.007
34454W        W 6714  31.499  35.302   2.565
34455W        W 6715  13.612  20.185   1.415
34456W        W 6716  43.923  36.652  11.969
34457W        W 6717  32.014  16.633  11.157
34458W        W 6718  23.640  43.098  11.820
34459W        W 6719  40.132  35.061   1.777
34460W        W 6720  35.930  15.702  12.835
34461W        W 6721   0.468   0.606  11.589
34462W        W 6722  11.680   8.922   1.825
34463W        W 6723  31.518   5.856  12.046
34464W        W 6724   5.462  42.838  14.798
34465W        W 6725  12.120  23.023   2.286
34466W        W 6726   6.986  38.557   3.804
34467W        W 6727   9.289  24.235   2.235
34468W        W 6728  35.776  36.063   1.474
34469W        W 6729   1.646  42.223  11.199
34470W        W 6730  36.931   0.541   2.106
34471W        W 6731  12.856  20.133  12.664
34472W        W 6732  40.045  41.882  12.636
34473W        W 6733  11.073  30.175  11.693
34474W        W 6734  26.073   2.238  10.427
34475W        W 6735  12.246  14.835   4.583
34476W        W 6736  12.622   0.752  10.441
34477W        W 6737  26.240  25.585  11.153
34478W        W 6738   9.687  12.220  12.884
34479W        W 6739   4.154  44.436   2.203
34480W        W 6740  33.029   8.982   1.322
34481W        W 6741  44.746  17.189  10.533
34482W        W 6742  43.854  28.057  12.637
34483W        W 6743  25.501  20.748  13.302
34484W        W 6744   8.309  21.780  14.805
34485W        W 6745  31.944  37.934   3.320
34486W        W 6746  23.300  21.645   0.499
34487W        W 6747  42.849  24.359   0.970
34488W        W 6748  27.200   3.406  12.218
34489W        W 6749  22.150  29.322   0.030
34490W        W 6750   8.178  42.828   0.568
34491W        W 6751  36.269  41.772  12.809
34492W        W 6752  35.790  10.785  13.270
34493W        W 6753  26.898  15.981   4.778
34494W        W 6754  15.804  37.467  12.819
34495W        W 6755  35.384  39.987   3.177
34496W        W 6756  43.434   0.708  12.081
34497W        W 6757  31.489  30.985  13.913
34498W        W 6758  11.771  43.085  10.236
34499W        W 6759  11.861  27.584  14.945
34500W        W 6760  25.694  17.826  13.856
34501W        W 6761  19.361  24.484   1.643
34502W        W 6762  33.134  21.603   2.168
34503W        W 6763  22.813   3.279  14.219
34504W        W 6764   2.076  29.177  14.377
34505W        W 6765  21.984  16.297   0.492
34506W        W 6766  40.900  23.155  12.059
34507W        W 6767  24.489  36.021   1.850
34508W        W 6768  34.791  43.034   1.501
34509W        W 6769  18.336  16.786   0.403
34510W        W 6770   5.873  43.468   0.660
34511W        W 6771  19.948  18.558   0.327
34512W        W 6772  43.393  21.078  14.285
34513W        W 6773  42.353   4.818  10.673
34514W        W 6774  27.930  32.829  12.128
34515W        W 6775   6.710  31.630   3.316
34516W        W 6776  44.356  27.238   0.494
34517W        W 6777  13.250  33.186  14.309
34518W        W 6778   3.391  14.574  11.935
34519W        W 6779  44.899  30.041  13.450
34520W        W 6780   4.433  39.657  10.819
34521W        W 6781  19.721  13.110  11.825
34522W        W 6782   1.827  39.247  10.624
34523W        W 6783  37.998  38.522   0.660
34524W        W 6784  40.863  34.449   4.262
34525W        W 6785  22.907  30.104   2.855
34526W        W 6786   0.923  23.670   0.821
34527W        W 6787  10.202  28.766  10.556
34528W        W 6788   8.323  17.420   1.474
34529W        W 6789   1.585  26.884   4.523
34530W        W 6790  28.158  14.113  13.832
34531W        W 6791   2.216   8.666  13.426
34532W        W 6792   6.041  28.631  14.608
34533W        W 6793  31.511  37.902   1.642
34534W        W 6794  19.033  11.564   0.297
34535W        W 6795  19.635   8.827   0.499
34536W        W 6796  25.724  10.574  12.828
34537W        W 6797  22.742  24.211   2.181
34538W        W 6798  37.082  23.636  11.625
34539W        W 6799  26.034   7.524   3.982
34540W        W 6800   9.246  28.641   1.839
34541W        W 6801  41.273  34.968  11.174
34542W        W 6802  42.071  32.819   4.014
34543W        W 6803  22.292  12.907   1.312
34544W        W 6804  15.649  14.275   3.298
34545W        W 6805  25.592   4.883  13.752
34546W        W 6806   7.904  20.532   4.786
34547W        W 6807  26.553  15.637  13.465
34548W        W 6808  29.111  20.746   3.150
34549W        W 6809  40.393  41.150  14.780
34550W        W 6810   3.496  39.653  10.154
34551W        W 6811  19.794  34.020  11.710
34552W        W 6812  17.587   4.976  11.656
34553W        W 6813  33.914  18.145   3.752
34554W        W 6814  23.648  18.125  12.915
34555W        W 6815  25.005  37.474  12.954
34556W        W 6816   9.400  23.267   0.412
34557W        W 6817   9.950  29.151   1.199
34558W        W 6818  41.058  38.265  11.576
34559W        W 6819  31.880  27.548  11.429
34560W        W 6820  10.569   1.349  14.100
34561W        W 6821  37.880  26.690   2.387
34562W        W 6822  33.412  39.078   4.134
34563W        W 6823   6.432  11.851  11.139
34564W        W 6824  15.708  18.460   2.221
34565W        W 6825  32.213  44.688  14.071
34566W        W 6826   6.111  44.518   3.635
34567W        W 6827  29.295  21.556  14.554
34568W        W 6828  28.689   4.959   2.133
34569W        W 6829   9.765   3.723   2.209
34570W        W 6830  17.522   6.784  10.517
34571W        W 6831  14.751  29.156   4.599
34572W        W 6832  33.345  17.169   2.835
34573W        W 6833  43.396  38.158   3.278
34574W        W 6834  24.715   7.303   0.809
34575W        W 6835  15.669  10.367   2.605
34576W        W 6836  22.191   3.439  12.057
34577W        W 6837   6.422  34.977   0.358
34578W        W 6838  23.684  19.391   9.655
34579W        W 6839   2.679  13.416  12.028
34580W        W 6840  34.139   2.764  12.484
34581W        W 6841  41.415   8.899  10.707
34582W        W 6842  35.880   8.297   2.248
34583W        W 6843  17.821   5.336   2.408
34584W        W 6844  24.831  15.706  10.718
34585W        W 6845   0.125  16.017   0.289
34586W        W 6846  41.997  37.829  12.526
34587W        W 6847   7.926  24.031  14.778
34588W        W 6848  28.078  43.805  13.857
34589W        W 6849  32.265  36.791  14.334
34590W        W 6850  35.472  37.233  11.126
34591W        W 6851  19.146  11.863  12.493
34592W        W 6852  42.764  44.822   2.919
34593W        W 6853  42.748   5.478  14.803
34594W        W 6854  31.251  42.904   4.122
34595W        W 6855  29.882   1.976   3.881
34596W        W 6856  20.061  10.109  11.993
34597W        W 6857  13.401  31.907  14.136
34598W        W 6858  39.984  18.570   0.979
34599W        W 6859  28.704  26.397   0.208
34600W        W 6860  20.738  37.930  11.479
34601W        W 6861  28.595  10.556   2.224
34602W        W 6862  39.560  33.600  12.568
34603W        W 6863  30.349   8.641   0.195
34604W        W 6864  41.432  42.719   0.214
34605W        W 6865  37.825  29.924  12.911
34606W        W 6866  33.578  26.463   0.619
34607W        W 6867  12.275  23.255   4.666
34608W        W 6868   5.255  42.807   0.253
34609W        W 6869  39.018  25.504  13.524
34610W        W 6870  11.354  33.600  14.438
34611W        W 6871   9.138   3.730   0.884
34612W        W 6872  30.932  44.814  10.509
34613W        W 6873  19.704   7.286   4.812
34614W        W 6874  24.609   7.217   4.530
34615W        W 6875  22.342  39.900   2.799
34616W        W 6876  27.960  22.579   3.905
34617W        W 6877  32.934   7.315  12.181
34618W        W 6878  16.110   5.369   1.240
34619W        W 6879  33.539  26.588  14.667
34620W        W 6880  25.216  29.006   0.011
34621W        W 6881  37.664   0.533  12.481
34622W        W 6882  32.351  33.317  14.935
34623W        W 6883  41.783   4.172   4.389
34624W        W 6884  31.093   0.716  13.205
34625W        W 6885   3.545  29.086  10.672
34626W        W 6886  28.318   4.134   3.809
34627W        W 6887   8.445  13.646   4.224
34628W        W 6888  42.300  43.439  12.185
34629W        W 6889  21.781  37.473   1.992
34630W        W 6890  42.876  20.157  13.022
34631W        W 6891  30.256  14.910   0.474
34632W        W 6892   9.680  34.892  10.556
34633W        W 6893  31.965  29.054   2.614
34634W        W 6894   0.180   0.765   1.904
34635W        W 6895  40.101  37.648   3.700
34636W        W 6896  14.784  11.242  12.132
34637W        W 6897  41.017  14.305  13.244
34638W        W 6898  26.454   9.515   1.233
34639W        W 6899  34.209  40.714  11.041
34640W        W 6900  11.772  13.771  13.772
34641W        W 6901  37.282  44.399   3.949
34642W        W 6902  10.388   9.211   0.972
34643W        W 6903  32.862  22.207  13.046
34644W        W 6904  34.029  36.398   3.748
34645W        W 6905  29.373  34.031  14.877
34646W        W 6906  39.299   9.113  12.035
34647W        W 6907  30.888  19.640  12.090
34648W        W 6908  13.877  36.963   2.571
34649W        W 6909  12.639  21.139  13.792
34650W        W 6910  34.977   3.155  13.779
34651W        W 6911  17.798  37.560  11.115
34652W        W 6912  24.827  36.404   4.138
34653W        W 6913  11.334  41.210   0.259
34654W        W 6914  31.087  25.586   0.241
34655W        W 6915  12.191  44.495   4.625
34656W        W 6916  19.007  43.352   0.375
34657W        W 6917  27.289  20.346  11.881
34658W        W 6918   5.873   1.406  14.448
34659W        W 6919  42.910  13.776   3.846
34660W        W 6920   8.826   3.762   2.174
34661W        W 6921  18.214   6.671   2.181
34662W        W 6922  37.832  11.107   4.513
34663W        W 6923  34.007  24.157  14.008
34664W        W 6924  20.276  41.783  13.857
34665W        W 6925  20.551   6.288  11.042
34666W        W 6926  33.842  21.489   2.709
34667W        W 6927   4.368  31.082  12.614
34668W        W 6928  36.890  37.246   4.183
34669W        W 6929  23.476   3.944  10.767
34670W        W 6930  36.104  10.117   2.905
34671W        W 6931  36.763  31.078   1.242
34672W        W 6932  25.364   5.445   1.950
34673W        W 6933   4.447   0.789   1.386
34674W        W 6934   7.718  30.100   0.786
34675W        W 6935   9.477   6.638  12.591
34676W        W 6936  24.424  41.398  12.921
34677W        W 6937  41.046  24.038  14.947
34678W        W 6938  17.632   7.628  14.475
34679W        W 6939  42.781  34.927  14.528
34680W        W 6940  40.016  12.814  13.920
34681W        W 6941  40.476  21.572   2.078
34682W        W 6942  31.899  29.707  13.875
34683W        W 6943  22.543  10.320   2.845
34684W        W 6944  11.245  32.713   0.748
34685W        W 6945  21.891  28.017  13.004
34686W        W 6946  15.454  12.361   3.108
34687W        W 6947   0.373  19.964  11.535
34688W        W 6948  32.545   5.663   4.568
34689W        W 6949  17.477  40.396   1.399
34690W        W 6950  23.750  29.969  12.764
34691W        W 6951  42.878  40.277   3.239
34692W        W 6952  17.636  11.938   0.416
34693W        W 6953  12.594  24.508  13.448
34694W        W 6954  21.632  36.773   1.495
34695W        W 6955  36.570  41.826  11.478
34696W        W 6956  35.001  10.868   3.106
34697W        W 6957  11.889  16.314  12.568
34698W        W 6958  21.387  29.919  11.174
34699W        W 6959  13.193   1.994   1.428
34700W        W 6960  22.239  39.967  13.894
34701W        W 6961  34.974  10.114  10.388
34702W        W 6962  13.216   9.819  12.090
34703W        W 6963  42.596  32.052  13.460
34704W        W 6964  20.576  11.184  13.518
34705W        W 6965  31.485  35.541  14.895
34706W        W 6966  15.666  14.895  12.618
34707W        W 6967  38.073  34.980  13.226
34708W        W 6968  44.538  16.174   3.742
34709W        W 6969  10.243  15.283   3.582
34710W        W 6970  15.186  30.106   3.291
34711W        W 6971  29.624  16.732   2.774
34712W        W 6972  35.007   1.400  11.014
34713W        W 6973  26.112  41.707  14.768
34714W        W 6974   8.356  21.064  10.465
34715W        W 6975  37.609  13.059  14.712
34716W        W 6976  32.995  34.117   1.190
34717W        W 6977  20.270  33.467   3.217
34718W        W 6978  34.020  12.497   2.050
34719W        W 6979  26.895  10.923  13.317
34720W        W 6980  32.391  22.723   3.142
34721W        W 6981   1.129   5.427   3.331
34722W        W 6982  36.246  15.347  12.525
34723W        W 6983  40.405   3.827   3.153
34724W        W 6984  13.310  24.604   1.169
34725W        W 6985  40.188  14.605  12.031
34726W        W 6986  34.170  35.386   1.605
34727W        W 6987  38.871  29.281  11.499
34728W        W 6988  36.017  33.524   1.921
34729W        W 6989  16.398  40.829  12.130
34730W        W 6990  42.745  14.133  12.174
34731W        W 6991  22.157  24.825  12.356
34732W        W 6992  15.714  43.564   1.778
34733W        W 6993  41.320  12.154   0.245
34734W        W 6994   1.932  20.670   2.773
34735W        W 6995   1.751  29.717  13.397
34736W        W 6996   9.157  23.840   3.203
34737W        W 6997  41.772  25.087   3.297
34738W        W 6998  36.109  34.049  10.841
34739W        W 6999  30.359  33.616   1.689
34740W        W 7000  42.404  20.648  11.921
34741W        W 7001   1.315  33.601   4.673
34742W        W 7002   6.830   1.083  10.389
34743W        W 7003  38.944  26.680  13.956
34744W        W 7004   9.412   9.218   0.973
34745W        W 7005  34.425  38.087   2.594
34746W        W 7006  14.622  24.406   0.943
34747W        W 7007  27.156  40.667   3.351
34748W        W 7008  22.356  29.065  10.575
34749W        W 7009  31.094   9.238   1.155
34750W        W 7010  26.313  33.895   3.627
34751W        W 7011  12.477   3.721   0.321
34752W        W 7012  22.627  35.967   4.455
34753W        W 7013  24.299  16.660   4.101
34754W        W 7014  16.844   3.773   0.953
34755W        W 7015  23.202   0.899  13.924
34756W        W 7016  14.597  19.376   1.712
34757W        W 7017  28.548  38.973  12.026
34758W        W 7018  14.119  12.426   3.604
34759W        W 7019  11.292  29.111   0.405
34760W        W 7020  13.279  29.208   4.313
34761W        W 7021  40.873  11.227  12.157
34762W        W 7022  30.895  29.204  13.068
34763W        W 7023  21.807  28.689   1.120
34764W        W 7024   8.225  28.435   4.788
34765W        W 7025  43.838  33.477   4.652
34766W        W 7026  30.162  18.093   4.537
34767W        W 7027  36.143  32.675  13.794
34768W        W 7028  41.041   9.729  11.121
34769W        W 7029  36.758   2.207   2.659
34770W        W 7030   1.899   2.353  12.472
34771W        W 7031  23.636  20.955  12.892
34772W        W 7032   1.988  12.330   2.364
34773W        W 7033   5.397  26.126   1.752
34774W        W 7034  13.681  18.816  10.868
34775W        W 7035  20.002  41.954   3.759
34776W        W 7036   4.193  16.805   2.845
34777W        W 7037  14.800  16.654  14.368
34778W        W 7038  43.631  39.915   1.778
34779W        W 7039   0.301  36.652   0.946
34780W        W 7040   1.978  27.560   1.814
34781W        W 7041   6.676   9.751   1.870
34782W        W 7042  13.453  32.368   3.689
34783W        W 7043  11.308  23.896  11.080
34784W        W 7044  18.390  24.490  13.545
34785W        W 7045   4.348   9.421  13.096
34786W        W 7046  37.597  26.000   0.815
34787W        W 7047  33.977  21.466  11.555
34788W        W 7048  16.096  35.141   4.043
34789W        W 7049  24.200   9.747   3.369
34790W        W 7050  14.588   6.867   4.626
34791W        W 7051  41.786  34.336  12.921
34792W        W 7052  27.167  15.801  11.757
34793W        W 7053  42.369  36.428  11.634
34794W        W 7054   4.729  20.152   1.269
34795W        W 7055  16.502   3.715   4.220
34796W        W 7056  13.708   0.817   4.320
34797W        W 7057  39.515  40.129   0.805
34798W        W 7058  43.202  23.156   2.693
34799W        W 7059   9.796  34.391   1.343
34800W        W 7060  33.297  24.931  11.037
34801W        W 7061   8.101  30.777  12.539
34802W        W 7062  28.664  28.499  14.796
34803W        W 7063  36.734  18.259   4.504
34804W        W 7064   8.002  21.123   0.263
34805W        W 7065   8.286   5.260  11.509
34806W        W 7066  10.323  42.898   4.578
34807W        W 7067  10.355   5.870   4.119
34808W        W 7068   1.456  34.246  12.763
34809W        W 7069  18.221  23.660   0.327
34810W        W 7070   6.432  30.638   2.316
34811W        W 7071  25.231  24.701   0.249
34812W        W 7072   4.722  20.581  12.678
34813W        W 7073  23.920  10.080  11.546
34814W        W 7074  15.507  17.065   4.996
34815W        W 7075   7.675  41.543   1.697
34816W        W 7076   3.690  21.383   5.215
34817W        W 7077   2.474  32.865  11.519
34818W        W 7078  32.544   1.477  14.457
34819W        W 7079  32.371  14.557  13.851
34820W        W 7080  24.279  32.637   4.587
34821W        W 7081  27.703  41.461   4.628
34822W        W 7082  12.202  36.363   0.973
34823W        W 7083  15.300  29.685   5.135
34824W        W 7084   3.905  16.898  12.924
34825W        W 7085  37.115  35.896  10.661
34826W        W 7086  14.213  12.618  10.630
34827W        W 7087  39.416  28.832  14.107
34828W        W 7088  36.391  20.218   0.909
34829W        W 7089  33.639   2.978  14.829
34830W        W 7090  31.881  26.123   1.565
34831W        W 7091   8.106   3.825   2.837
34832W        W 7092  19.143  19.606  10.418
34833W        W 7093  32.180  17.371  14.280
34834W        W 7094  37.780  22.042  14.370
34835W        W 7095  24.257  28.040   3.129
34836W        W 7096  40.840  11.395  12.991
34837W        W 7097   7.896  34.590   2.271
34838W        W 7098  42.588  13.862  14.994
34839W        W 7099   9.845  39.366  13.757
34840W        W 7100  38.586  24.060   2.850
34841W        W 7101   5.829  10.636   2.861
34842W        W 7102  29.729   8.143  13.566
34843W        W 7103  18.181  27.955   0.010
34844W        W 7104   2.028   9.229   1.909
34845W        W 7105  35.554  20.651   4.289
34846W        W 7106  38.914  15.542   3.054
34847W        W 7107  31.169  19.617   0.724
34848W        W 7108  39.049  24.482  11.893
34849W        W 7109  16.968  26.344   3.683
34850W        W 7110  43.547  36.896  13.482
34851W        W 7111   4.671  25.628   3.612
34852W        W 7112   3.140  23.110   1.720
34853W        W 7113   6.396  14.107   4.947
34854W        W 7114   1.207  37.419   2.761
34855W        W 7115  41.452  19.142  12.991
34856W        W 7116  36.017  19.802   1.829
34857W        W 7117  27.381  20.832  12.531
34858W        W 7118  24.526   1.882   2.116
34859W        W 7119  31.948   4.249   2.523
34860W        W 7120   1.935  11.840  13.800
34861W        W 7121  23.231   0.592  12.554
34862W        W 7122  11.309   0.320   3.584
34863W        W 7123  25.215  34.183   3.684
34864W        W 7124  34.173   6.460   0.324
34865W        W 7125  18.816  19.716   1.805
34866W        W 7126  30.969  34.021  14.256
34867W        W 7127  17.053   1.889   0.854
34868W        W 7128  27.152  17.659   3.236
34869W        W 7129   1.733   2.433  10.966
34870W        W 7130  11.313   0.933  12.507
34871W        W 7131  14.700  43.833  14.337
34872W        W 7132   1.887  19.267  13.346
34873W        W 7133   3.778   2.660   1.284
34874W        W 7134   1.663   2.036   4.289
34875W        W 7135  28.177  37.109   2.865
34876W        W 7136  14.340   7.613  14.412
34877W        W 7137   9.929  20.586  13.594
34878W        W 7138  35.054   2.502  11.577
34879W        W 7139  17.733  39.765  11.575
34880W        W 7140  11.367  29.210   1.308
34881W        W 7141  39.904  36.996   2.079
34882W        W 7142  39.989  22.721  12.369
34883W        W 7143   6.883  26.240  11.692
34884W        W 7144  22.221  18.532  14.560
34885W        W 7145   8.259  22.479   1.876
34886W        W 7146  33.982  32.435  10.390
34887W        W 7147  43.274  44.693  14.208
34888W        W 7148   1.334  11.526   4.675
34889W        W 7149  15.159  22.034   3.158
34890W        W 7150  45.000  11.854  10.705
34891W        W 7151  19.096  21.700   2.427
34892W        W 7152  17.859  18.574   0.789
34893W        W 7153  24.267  33.109   1.897
34894W        W 7154  25.671  42.810   0.493
34895W        W 7155   7.620  41.077  13.897
34896W        W 7156  17.067  13.575   3.797
34897W        W 7157   6.892  40.853   0.415
34898W        W 7158  26.837  33.822   4.178
34899W        W 7159  33.431   8.789  12.424
34900W        W 7160  18.236   3.029  14.022
34901W        W 7161  29.352  12.437  12.097
34902W        W 7162  41.015  20.502   0.232
34903W        W 7163  11.142   8.958   1.209
34904W        W 7164  35.397  21.917  10.794
34905W        W 7165   2.771  32.983  10.678
34906W        W 7166  42.539  35.659   1.003
34907W        W 7167  39.292  32.553  11.557
34908W        W 7168  29.588  32.878   2.331
34909W        W 7169   2.477   2.591  10.570
34910W        W 7170  12.498   0.386  11.147
34911W        W 7171  26.027  31.810   3.228
34912W        W 7172  13.784  23.730  14.342
34913W        W 7173   6.741  36.930  14.929
34914W        W 7174  36.986  34.315  13.535
34915W        W 7175  10.201  22.743  13.386
34916W        W 7176  26.843   0.769   3.077
34917W        W 7177  36.062  37.338   5.250
34918W        W 7178  27.795  12.700   2.188
34919W        W 7179   5.453  32.312  14.399
34920W        W 7180  12.000  15.860  14.630
34921W        W 7181  14.870  43.863   0.268
34922W        W 7182   5.209  24.244   2.690
34923W        W 7183  10.568  25.048   3.566
34924W        W 7184  24.512   8.616  14.303
34925W        W 7185  23.457   9.294   0.656
34926W        W 7186  15.844  21.560  12.059
34927W        W 7187  39.675  33.419  11.619
34928W        W 7188   1.896   5.701  14.871
34929W        W 7189  16.298  28.020   4.697
34930W        W 7190  29.321  17.692  13.997
34931W        W 7191   3.771  26.055   0.032
34932W        W 7192  34.640  26.646   4.768
34933W        W 7193  26.875  35.445  10.728
34934W        W 7194  22.565  14.902  14.338
34935W        W 7195  42.099   4.021   3.396
34936W        W 7196  36.556  36.681   0.586
34937W        W 7197  43.848  37.396  14.383
34938W        W 7198   2.453  33.913  11.133
34939W        W 7199  11.327  25.595   2.404
34940W        W 7200  36.716   1.381  14.518
34941W        W 7201  34.337  40.613  14.005
34942W        W 7202  29.875  15.263   2.770
34943W        W 7203  39.446  36.069   4.706
34944W        W 7204  15.482  10.425   3.730
34945W        W 7205  22.511  22.659  11.159
34946W        W 7206  18.229  19.063  13.010
34947W        W 7207  15.537  36.072   4.493
34948W        W 7208  37.415  44.674  11.057
34949W        W 7209  32.096  14.762   3.234
34950W        W 7210  25.304  34.577   3.220
34951W        W 7211  11.700   8.844  14.477
34952W        W 7212   1.175  11.200   0.025
34953W        W 7213  34.520  36.472  12.957
34954W        W 7214  24.251  18.080   0.964
34955W        W 7215   1.893  14.215   4.318
34956W        W 7216  30.669  25.630  13.509
34957W        W 7217   8.771  28.633   0.426
34958W        W 7218   9.342  18.087  10.765
34959W        W 7219  30.103  21.107   0.024
34960W        W 7220  13.191  33.234   4.206
34961W        W 7221   8.718  42.355   3.303
34962W        W 7222  20.110  37.105   3.261
34963W        W 7223  10.372   1.476   1.285
34964W        W 7224  34.278  21.046  12.057
34965W        W 7225  19.316   8.999  11.110
34966W        W 7226  42.414  25.917   1.306
34967W        W 7227   9.870  41.374  13.998
34968W        W 7228   0.881  37.846   4.980
34969W        W 7229  39.819  22.106  13.980
34970W        W 7230  20.189  38.850  11.205
34971W        W 7231  10.757  32.088   3.328
34972W        W 7232   3.297  25.529   4.578
34973W        W 7233  44.508  40.258  13.495
34974W        W 7234  11.434  26.508   3.222
34975W        W 7235  32.891  23.333   2.308
34976W        W 7236  25.205   8.765   1.644
34977W        W 7237  30.539  29.288   3.604
34978W        W 7238  30.741  25.686   2.593
34979W        W 7239  28.073  26.173   2.195
34980W        W 7240   4.704  25.177   2.859
34981W        W 7241  19.368  24.995  10.672
34982W        W 7242  12.834  33.003  11.721
34983W        W 7243  41.277   4.784  11.592
34984W        W 7244  40.253  25.817   0.188
34985W        W 7245  30.499   7.317  10.826
34986W        W 7246  44.277  44.734   1.825
34987W        W 7247  16.603  16.356  13.489
34988W        W 7248  38.066  14.727   3.187
34989W        W 7249   7.147   8.219   4.488
34990W        W 7250  44.108  20.687  14.558
34991W        W 7251   8.214  30.293  10.741
34992W        W 7252   0.909  33.381  12.616
34993W        W 7253  30.122  10.158  12.073
34994W        W 7254  41.987  21.014   0.867
34995W        W 7255  16.683   6.721  10.642
34996W        W 7256  25.425  39.394  11.587
34997W        W 7257  32.932  25.095  11.620
34998W        W 7258  43.472   5.960  13.545
34999W        W 7259  27.129  33.863  11.637
35000W        W 7260   5.542  38.312   0.338
35001W        W 7261  31.340  20.524   4.139
35002W        W 7262  42.049  40.587  11.403
35003W        W 7263   6.709  19.665  13.359
35004W        W 7264  10.822  19.010  14.459
35005W        W 7265  12.361  29.697   4.599
35006W        W 7266   4.446  33.913  14.382
35007W        W 7267  31.293  31.482   2.863
35008W        W 7268  32.586  39.493   0.435
35009W        W 7269   1.650   3.922  11.664
35010W        W 7270  34.540  39.519   2.696
35011W        W 7271  15.325  34.313  13.635
35012W        W 7272   1.050  24.382  13.823
35013W        W 7273  14.730  35.475  11.453
35014W        W 7274  33.565  22.754   4.959
35015W        W 7275  15.679   6.856  14.816
35016W        W 7276   3.850  12.869   0.431
35017W        W 7277  18.257  20.415   2.822
35018W        W 7278  32.975  35.881  13.462
35019W        W 7279  28.967  24.310  12.232
35020W        W 7280   5.473   5.924   0.819
35021W        W 7281  40.561  30.662   0.018
35022W        W 7282  29.998  41.165  12.002
35023W        W 7283   5.555  16.622  11.652
35024W        W 7284  13.579  16.965   3.889
35025W        W 7285   7.758  25.215   1.643
35026W        W 7286  13.195  10.816   2.678
35027W        W 7287  41.996  23.829  14.767
35028W        W 7288   2.302  11.169  11.824
35029W        W 7289  39.962  40.945  13.480
35030W        W 7290  41.259  41.116   0.899
35031W        W 7291  44.773   1.394  11.676
35032W        W 7292  13.198  40.439  11.568
35033W        W 7293   4.210   2.273  12.422
35034W        W 7294  41.203  14.061  12.813
35035W        W 7295  26.241  42.781  13.949
35036W        W 7296  28.687  14.803   3.327
35037W        W 7297  44.897  44.737  14.736
35038W        W 7298  26.272  22.967  12.914
35039W        W 7299  31.249  17.043   4.349
35040W        W 7300  11.407  30.071   2.684
35041W        W 7301  35.906   6.723  11.184
35042W        W 7302  32.561  42.961  14.114
35043W        W 7303  14.273  33.164  12.314
35044W        W 7304  21.770   5.511  10.627
35045W        W 7305  10.061  28.528   0.004
35046W        W 7306  38.331   4.261   0.287
35047W        W 7307  44.200  10.911  10.431
35048W        W 7308  29.773  17.006   2.353
35049W        W 7309  18.152   8.689   4.149
35050W        W 7310  34.481  10.804   3.685
35051W        W 7311   2.670   6.778  12.426
35052W        W 7312   3.839  32.489  11.987
35053W        W 7313  27.517  32.810  11.043
35054W        W 7314  30.615  42.357  11.619
35055W        W 7315  39.291  39.825  13.213
35056W        W 7316  42.213  24.584   4.627
35057W        W 7317  33.538   7.230   1.861
35058W        W 7318  15.854  20.250   3.185
35059W        W 7319  16.295  24.672  12.946
35060W        W 7320  17.241  22.118  14.456
35061W        W 7321  37.957  27.040  11.651
35062W        W 7322  27.648  35.363   1.332
35063W        W 7323   0.855  13.933  13.350
35064W        W 7324  10.672  36.916  11.990
35065W        W 7325  38.078  23.592  14.321
35066W        W 7326  25.036  17.054   1.425
35067W        W 7327  32.930  37.265  11.601
35068W        W 7328  42.878  20.175  12.476
35069W        W 7329   7.776   8.167  10.772
35070W        W 7330  36.498  15.308  12.041
35071W        W 7331  36.797  38.961   0.291
35072W        W 7332  43.452  38.095   4.647
35073W        W 7333  38.885   0.639   3.324
35074W        W 7334  44.014  42.001   3.602
35075W        W 7335  22.837  30.416  14.781
35076W        W 7336  23.016  27.189   0.955
35077W        W 7337  34.527  41.046  12.574
35078W        W 7338  20.227  24.033  14.791
35079W        W 7339  11.321  36.668  13.874
35080W        W 7340  42.286  39.794  12.982
35081W        W 7341   9.492  41.508   2.740
35082W        W 7342   2.865  11.586  11.463
35083W        W 7343  37.490  17.762   2.120
35084W        W 7344  40.500   1.890  12.968
35085W        W 7345  28.577  35.876  12.061
35086W        W 7346   8.138  27.723   2.600
35087W        W 7347  15.380   9.869  10.784
35088W        W 7348  29.783  11.982  12.885
35089W        W 7349  28.958  23.986  11.494
35090W        W 7350  38.289   3.846   3.291
35091W        W 7351  41.581   1.780  11.435
35092W        W 7352  38.438  11.287  13.477
35093W        W 7353  34.455  12.775   4.629
35094W        W 7354  21.306  30.886  12.360
35095W        W 7355   4.816  34.567   2.384
35096W        W 7356  43.064  13.671   2.420
35097W        W 7357   5.992   4.732   0.948
35098W        W 7358  19.524  42.778   1.420
35099W        W 7359   7.286  12.554   0.797
35100W        W 7360   0.693  28.422  10.621
35101W        W 7361  17.190  40.525  10.568
35102W        W 7362  29.171  37.570  13.239
35103W        W 7363  12.553  33.162  14.840
35104W        W 7364  37.756   6.154  12.062
35105W        W 7365   4.846  28.887  12.655
35106W        W 7366  38.117   8.652  14.350
35107W        W 7367   7.326  43.777   3.044
35108W        W 7368   2.541  31.545  13.410
35109W        W 7369  40.046  28.489   4.587
35110W        W 7370  23.054   6.796  11.576
35111W        W 7371  35.870  34.220   2.412
35112W        W 7372  22.947  38.438  13.354
35113W        W 7373  17.080  21.131   2.203
35114W        W 7374  27.349  15.377   3.136
35115W        W 7375   9.571  39.187   0.449
35116W        W 7376  18.344  44.512   3.835
35117W        W 7377  44.450  38.075   3.224
35118W        W 7378  44.554  15.579   4.204
35119W        W 7379  26.276  39.250  10.944
35120W        W 7380  39.769  13.216   1.405
35121W        W 7381   9.055  25.011   0.015
35122W        W 7382  38.130  36.044  10.678
35123W        W 7383   0.414  38.801  13.006
35124W        W 7384  11.832  44.217   1.669
35125W        W 7385   9.193   2.457   4.336
35126W        W 7386  16.304   0.025   1.710
35127W        W 7387  18.809  33.089  12.051
35128W        W 7388  26.265   1.507  12.328
35129W        W 7389   2.933  15.715  11.687
35130W        W 7390  15.725  35.779   4.141
35131W        W 7391  16.880  37.275  12.131
35132W        W 7392  40.351  35.432  13.066
35133W        W 7393  31.668  17.156   0.948
35134W        W 7394  38.520  26.410   3.728
35135W        W 7395  44.195  20.096  14.807
35136W        W 7396  30.555  44.039  13.393
35137W        W 7397  31.445   5.862   0.210
35138W        W 7398   7.374   6.685   0.708
35139W        W 7399  40.808  28.451  14.006
35140W        W 7400  20.730  19.550   5.449
35141W        W 7401   1.186  32.457  12.977
35142W        W 7402   7.369  43.875  14.563
35143W        W 7403   7.372  26.574  13.247
35144W        W 7404  15.705  23.518   3.012
35145W        W 7405   3.349  30.511  10.934
35146W        W 7406  20.053  36.185  11.138
35147W        W 7407  34.448  11.087  14.309
35148W        W 7408  42.981  43.228   5.178
35149W        W 7409  39.456   3.864   4.128
35150W        W 7410  33.798  36.363  11.595
35151W        W 7411  29.524  40.373  13.580
35152W        W 7412  23.023  14.182  13.993
35153W        W 7413  25.546  18.021   0.066
35154W        W 7414  16.728   9.824   4.807
35155W        W 7415  26.181  41.870  12.940
35156W        W 7416   6.506   0.954  14.018
35157W        W 7417  17.108   5.207  11.523
35158W        W 7418  13.863  22.179  11.742
35159W        W 7419  11.796  17.396   4.188
35160W        W 7420   9.793  43.267  13.584
35161W        W 7421  31.498   8.804   1.188
35162W        W 7422   5.690   2.749   2.145
35163W        W 7423  17.175  33.093   4.629
35164W        W 7424  11.608   9.274  13.508
35165W        W 7425  42.867  37.128  10.619
35166W        W 7426  29.469   5.729   0.939
35167W        W 7427  20.147  44.846   0.851
35168W        W 7428  38.933  25.750   3.656
35169W        W 7429   2.737  14.730   1.894
35170W        W 7430  12.177  28.177  11.993
35171W        W 7431  42.328  22.719  14.294
35172W        W 7432  20.717   7.958   1.229
35173W        W 7433  14.743  10.283  14.457
35174W        W 7434  39.073   5.603   1.442
35175W        W 7435  19.909  23.850  12.088
35176W        W 7436  23.608  36.396   2.475
35177W        W 7437   1.404   9.279   3.603
35178W        W 7438  43.767  13.729   3.409
35179W        W 7439  19.890  12.565   1.009
35180W        W 7440  18.718  33.629   1.690
35181W        W 7441  41.304   8.832  12.011
35182W        W 7442  43.778  12.640  13.793
35183W        W 7443  17.655   7.364  14.023
35184W        W 7444  10.812  24.085  11.493
35185W        W 7445  12.126  10.149   1.430
35186W        W 7446  42.781  37.797   0.333
35187W        W 7447  41.445  39.558   4.768
35188W        W 7448   6.442  35.556  13.922
35189W        W 7449  22.165  23.586  14.022
35190W        W 7450   3.568  40.406   4.962
35191W        W 7451  20.611   9.670   0.453
35192W        W 7452  11.266  15.403   1.356
35193W        W 7453  27.488  30.984   1.462
35194W        W 7454   3.808  11.653   2.342
35195W        W 7455  43.736   1.624   2.309
35196W        W 7456  38.255  12.290   1.140
35197W        W 7457  25.254   8.052  10.878
35198W        W 7458  27.926  31.646   4.594
35199W        W 7459  28.721  14.668   0.324
35200W        W 7460   0.208  38.742  14.926
35201W        W 7461  15.380  23.488  11.214
35202W        W 7462  14.274  14.729  12.807
35203W        W 7463  12.100  35.950  12.909
35204W        W 7464  25.202  42.937   1.835
35205W        W 7465   4.167   2.932  11.643
35206W        W 7466   5.886  25.468   4.086
35207W        W 7467  40.674  17.209  12.689
35208W        W 7468  14.148   0.382   1.038
35209W        W 7469  15.820  42.948   3.611
35210W        W 7470  36.621  15.853  12.082
35211W        W 7471  23.834  22.876   2.754
35212W        W 7472  27.157  39.650  13.054
35213W        W 7473  28.546  13.553   3.556
35214W        W 7474  21.282  28.782  14.861
35215W        W 7475   9.183  38.355   2.364
35216W        W 7476  19.353   5.880  11.389
35217W        W 7477  35.381  34.356   2.673
35218W        W 7478  19.796  16.800  13.978
35219W        W 7479  35.394  23.061   2.292
35220W        W 7480   5.672  21.130   4.674
35221W        W 7481   6.671  35.988  12.878
35222W        W 7482   1.809  25.132  14.976
35223W        W 7483  14.229   6.455  14.803
35224W        W 7484  35.223   3.250  11.994
35225W        W 7485  32.529  34.890   2.693
35226W        W 7486  27.620  34.372   0.426
35227W        W 7487  21.938   2.195   3.769
35228W        W 7488  28.654   0.426  10.779
35229W        W 7489  44.569   2.793  10.159
35230W        W 7490  20.316   2.398  14.377
35231W        W 7491  23.795  29.078  11.614
35232W        W 7492  33.091  39.873  13.042
35233W        W 7493   7.919   1.965  12.251
35234W        W 7494  40.467  40.566   1.050
35235W        W 7495  27.611   0.548   2.358
35236W        W 7496  42.467  28.057   3.207
35237W        W 7497  20.281  34.444  10.737
35238W        W 7498  21.541   8.651   0.272
35239W        W 7499  34.852  39.566   2.261
35240W        W 7500  38.054   7.621   0.707
35241W        W 7501  19.133  25.512  14.414
35242W        W 7502  30.949  28.478  13.360
35243W        W 7503  40.408  44.063   0.382
35244W        W 7504  43.291  35.381   2.241
35245W        W 7505  14.195  21.562   4.173
35246W        W 7506  22.146  35.515  12.186
35247W        W 7507   1.519  44.223  11.179
35248W        W 7508  20.060   7.838   2.897
35249W        W 7509   2.121  37.539   2.670
35250W        W 7510  15.688  12.924  13.586
35251W        W 7511  25.389  21.982   2.291
35252W        W 7512  16.945  43.568  14.003
35253W        W 7513  41.512  26.371   1.344
35254W        W 7514  21.085   6.877   2.157
35255W        W 7515   8.718  21.883   0.166
35256W        W 7516  12.216   6.457   3.714
35257W        W 7517  11.251   7.378  11.170
35258W        W 7518  28.288  19.222   3.161
35259W        W 7519  43.922  39.477   0.677
35260W        W 7520   6.382   6.432   4.345
35261W        W 7521  30.917   7.260   5.072
35262W        W 7522   6.970  36.621   1.364
35263W        W 7523  11.652   4.710   0.853
35264W        W 7524   4.212  43.605   2.162
35265W        W 7525  27.036   4.179   3.233
35266W        W 7526  12.361  41.800  14.995
35267W        W 7527  31.930  34.876   0.531
35268W        W 7528  10.750   0.693   1.854
35269W        W 7529  31.148  32.758   2.967
35270W        W 7530  44.872  11.202  12.447
35271W        W 7531  17.394   9.729   0.436
35272W        W 7532  39.418  37.858   1.344
35273W        W 7533  28.449  38.813  13.930
35274W        W 7534  42.228   7.902  11.175
35275W        W 7535   1.723  10.908  12.944
35276W        W 7536  35.548  39.848   4.214
35277W        W 7537  20.531  19.683  13.499
35278W        W 7538  40.134  40.844   1.444
35279W        W 7539   5.822  44.055   1.749
35280W        W 7540  44.894  22.803   1.824
35281W        W 7541  20.980  30.585   3.617
35282W        W 7542  32.601  27.773   0.444
35283W        W 7543  30.008  19.801  12.738
35284W        W 7544  42.166   0.232  12.999
35285W        W 7545  28.050  24.221   1.394
35286W        W 7546  38.920   8.296   4.881
35287W        W 7547  38.982  27.417  14.370
35288W        W 7548   8.048  42.884   3.705
35289W        W 7549  33.501  11.529   0.949
35290W        W 7550  44.869  24.587  14.767
35291W        W 7551  32.454  36.146   3.666
35292W        W 7552  41.963  26.637   4.627
35293W        W 7553  42.994  22.246  12.166
35294W        W 7554  23.848  13.090  14.860
35295W        W 7555   0.961  28.351  14.331
35296W        W 7556  17.856  31.168  14.757
35297W        W 7557  44.142  36.507   4.624
35298W        W 7558  33.110  26.725  10.565
35299W        W 7559   5.944  31.504  11.399
35300W        W 7560  39.680  16.247  12.555
35301W        W 7561   8.812  16.742  11.572
35302W        W 7562   7.644  23.055   0.831
35303W        W 7563  36.342   6.724  14.880
35304W        W 7564  11.424  27.885   4.191
35305W        W 7565  19.553  41.375  11.280
35306W        W 7566  41.493   1.263  11.404
35307W        W 7567  12.801  17.235  12.729
35308W        W 7568   9.874  30.907  13.908
35309W        W 7569  15.633  20.698   1.398
35310W        W 7570   0.504  35.831  10.954
35311W        W 7571  21.266  44.439   0.795
35312W        W 7572  29.442  24.997   4.390
35313W        W 7573  11.809   9.359   2.286
35314W        W 7574  15.110  18.789  13.897
35315W        W 7575   2.722  18.065  10.696
35316W        W 7576  30.842   2.405  11.930
35317W        W 7577   4.443  36.573  13.604
35318W        W 7578  42.477  25.557  11.487
35319W        W 7579   3.643  15.201   0.735
35320W        W 7580  33.167   3.964  13.559
35321W        W 7581  40.208   5.634  12.130
35322W        W 7582  38.481  15.570   4.568
35323W        W 7583  29.661  12.622  12.485
35324W        W 7584  24.575  30.847   0.589
35325W        W 7585   0.753   6.717   4.120
35326W        W 7586  15.061   0.182   1.397
35327W        W 7587   3.025  17.684   1.740
35328W        W 7588  18.719  38.545   0.406
35329W        W 7589  41.291  16.380  13.787
35330W        W 7590  33.607  42.737   0.017
35331W        W 7591  42.642  15.576  14.464
35332W        W 7592   4.165  10.280  10.665
35333W        W 7593  30.299  12.744   3.908
35334W        W 7594  28.030  24.529   0.571
35335W        W 7595   3.014   4.419   2.875
35336W        W 7596  10.103  44.640   1.126
35337W        W 7597   5.827  30.507   3.793
35338W        W 7598  40.983  27.634   1.907
35339W        W 7599  32.606  21.993   4.571
35340W        W 7600  29.414   2.878   4.547
35341W        W 7601  34.946  27.492  12.508
35342W        W 7602  37.828  12.703  11.584
35343W        W 7603   7.832  33.623  13.767
35344W        W 7604  24.876  42.771   2.743
35345W        W 7605   1.448  32.820   0.803
35346W        W 7606  26.312  20.345  14.423
35347W        W 7607   3.469  30.004  14.758
35348W        W 7608  14.146  17.006   5.114
35349W        W 7609  25.616  15.602   3.182
35350W        W 7610  11.399  21.813   3.260
35351W        W 7611  12.369  33.258   2.709
35352W        W 7612  22.175  19.485   0.460
35353W        W 7613  31.323  11.246  10.654
35354W        W 7614  30.990   7.644   0.570
35355W        W 7615   4.217   9.890  11.959
35356W        W 7616  11.809  27.003   0.601
35357W        W 7617  39.913  15.253   0.130
35358W        W 7618   3.225  22.658  13.529
35359W        W 7619  25.427   0.295  11.137
35360W        W 7620  32.584   9.418   3.305
35361W        W 7621   4.510  19.210   0.521
35362W        W 7622  37.874  14.023   1.376
35363W        W 7623  31.461  22.600  12.882
35364W        W 7624  23.032  44.865   3.919
35365W        W 7625  35.670   8.812  10.529
35366W        W 7626  34.531   7.316  14.113
35367W        W 7627  39.982  17.316   4.533
35368W        W 7628   9.638  17.207  10.673
35369W        W 7629  15.568  28.540  12.486
35370W        W 7630  30.494  20.279   4.327
35371W        W 7631  16.664   8.785  13.819
35372W        W 7632  15.243  25.600   1.324
35373W        W 7633  31.043  27.271  13.892
35374W        W 7634  26.974  22.841   0.778
35375W        W 7635   6.780  22.667  14.991
35376W        W 7636   2.547  30.078  10.667
35377W        W 7637  38.789  35.117   0.354
35378W        W 7638   4.546   5.397  12.558
35379W        W 7639  28.481  23.006   1.809
35380W        W 7640   8.423  11.601   4.635
35381W        W 7641   6.010  32.585   4.264
35382W        W 7642  42.273  10.467  10.976
35383W        W 7643   6.984  36.069   4.480
35384W        W 7644  43.819  37.802   1.916
35385W        W 7645   4.781  14.018   4.155
35386W        W 7646  29.843  21.224   4.046
35387W        W 7647  29.777  18.038  13.065
35388W        W 7648  22.842  16.975  13.929
35389W        W 7649  42.911  42.162   1.276
35390W        W 7650  34.671   3.190  13.356
35391W        W 7651  43.629  44.499  10.060
35392W        W 7652  25.436  41.348  11.967
35393W        W 7653   1.738  10.156   2.728
35394W        W 7654  43.998  18.781   1.448
35395W        W 7655  39.477  30.021   3.133
35396W        W 7656   9.722  33.519   3.234
35397W        W 7657  28.888  18.295  14.517
35398W        W 7658  26.050  27.221   2.194
35399W        W 7659  20.064  27.537  11.612
35400W        W 7660  30.032  14.386   0.267
35401W        W 7661  29.734   8.038   0.123
35402W        W 7662  32.357  36.895   1.307
35403W        W 7663  33.036  29.667  11.040
35404W        W 7664  37.760  32.541  10.647
35405W        W 7665  37.484  43.599   4.540
35406W        W 7666  11.876  31.134  14.930
35407W        W 7667  33.265  42.800   2.782
35408W        W 7668   0.277   5.896  11.416
35409W        W 7669  25.074  39.307   3.985
35410W        W 7670  11.419  27.956  13.062
35411W        W 7671  36.170   4.709   0.863
35412W        W 7672  40.908   1.736   1.823
35413W        W 7673  23.201  34.171   0.876
35414W        W 7674  28.064   1.687  12.526
35415W        W 7675   0.904  10.356   0.306
35416W        W 7676   3.625  16.803  12.095
35417W        W 7677  12.121  16.702  12.826
35418W        W 7678  11.270  41.916   0.851
35419W        W 7679  17.373  16.987  13.285
35420W        W 7680   4.664   2.389  11.939
35421W        W 7681  14.342  32.067  14.068
35422W        W 7682  42.356  35.138  13.317
35423W        W 7683  12.862  41.898  14.867
35424W        W 7684   6.114  37.254  13.576
35425W        W 7685  19.879  23.092   4.198
35426W        W 7686  14.548  13.419   0.258
35427W        W 7687  13.924  18.771   4.901
35428W        W 7688  11.264  27.660   0.232
35429W        W 7689  24.361  15.723   4.167
35430W        W 7690   8.917   3.462  14.490
35431W        W 7691  20.029  38.767   1.715
35432W        W 7692  44.834  21.274   2.896
35433W        W 7693  32.458   6.235  14.817
35434W        W 7694  28.021  35.660   4.554
35435W        W 7695   3.236  27.982  10.998
35436W        W 7696  28.917  37.596  14.278
35437W        W 7697  12.663  42.596   3.614
35438W        W 7698  16.799  41.743   4.292
35439W        W 7699  33.556  18.173   1.939
35440W        W 7700  13.171  13.359   2.826
35441W        W 7701   7.657  19.962  10.853
35442W        W 7702  10.959  11.114   0.798
35443W        W 7703  44.446  14.493   2.390
35444W        W 7704  31.888  22.890  11.103
35445W        W 7705  39.549  39.069  10.598
35446W        W 7706  39.659  11.254  13.975
35447W        W 7707  23.285  18.983  13.067
35448W        W 7708  12.845  18.052   2.852
35449W        W 7709   6.989  43.810   4.197
35450W        W 7710  28.392  41.448  10.654
35451W        W 7711  25.403  33.469  13.785
35452W        W 7712   9.080  27.232   3.370
35453W        W 7713  40.721   1.997   3.795
35454W        W 7714  40.467  19.814  10.266
35455W        W 7715  27.189   7.338   1.939
35456W        W 7716  26.940  39.155   3.249
35457W        W 7717  15.097  15.885  12.027
35458W        W 7718  20.622   2.502   4.673
35459W        W 7719  32.102   1.464  10.659
35460W        W 7720  12.869  19.347  11.183
35461W        W 7721  37.273   8.299  11.186
35462W        W 7722  38.427  35.608  10.318
35463W        W 7723  11.816  19.170  12.053
35464W        W 7724  27.068  17.357   0.726
35465W        W 7725  14.249  25.980  11.835
35466W        W 7726  18.342   0.678  14.674
35467W        W 7727   3.116  37.592  14.028
35468W        W 7728  40.598  44.040  11.180
35469W        W 7729  43.459  42.809   0.813
35470W        W 7730  38.557   8.196  10.321
35471W        W 7731  34.034   0.779   1.650
35472W        W 7732  25.930  20.499  11.611
35473W        W 7733  27.717  13.986   3.223
35474W        W 7734   5.233  11.792   2.171
35475W        W 7735  24.582  26.526  14.384
35476W        W 7736  31.141   6.231  14.542
35477W        W 7737  26.990   7.216   1.262
35478W        W 7738  27.016  25.856   4.168
35479W        W 7739   9.558  23.008   4.185
35480W        W 7740  23.302  24.468  13.465
35481W        W 7741  15.009  14.636   5.721
35482W        W 7742   9.427  39.952   0.513
35483W        W 7743   0.305   6.382   0.831
35484W        W 7744  44.777  19.509  14.308
35485W        W 7745  28.276  23.103   1.340
35486W        W 7746  28.023  31.967  12.133
35487W        W 7747  30.854  10.288   4.124
35488W        W 7748  30.043  21.698   3.240
35489W        W 7749  30.404  34.641   2.866
35490W        W 7750  35.346  34.401  12.009
35491W        W 7751  10.400  22.471   0.026
35492W        W 7752  42.425   1.531  10.590
35493W        W 7753  28.070  42.133  12.880
35494W        W 7754  22.171  23.562   2.940
35495W        W 7755  28.713  43.060  13.931
35496W        W 7756  24.602   8.173   3.223
35497W        W 7757   9.537   1.352   3.952
35498W        W 7758  27.034  25.683   4.658
35499W        W 7759  33.903  20.616   9.653
35500W        W 7760   4.002   7.590   0.291
35501W        W 7761  23.454  32.645  10.408
35502W        W 7762  18.040   0.306   1.245
35503W        W 7763  42.933  34.501  12.201
35504W        W 7764  16.679  20.346   3.332
35505W        W 7765  24.026  43.472   4.532
35506W        W 7766   3.053  38.066  14.233
35507W        W 7767  23.103  32.505   3.708
35508W        W 7768   6.977  41.413  11.004
35509W        W 7769  28.700  15.673  12.367
35510W        W 7770  41.803  30.856  13.153
35511W        W 7771  43.978   0.871  13.885
35512W        W 7772  39.118   8.948   5.083
35513W        W 7773  22.643  15.668  13.032
35514W        W 7774  14.824  25.136   1.898
35515W        W 7775   0.746  21.500  13.324
35516W        W 7776  19.440  36.511   1.732
35517W        W 7777  26.932  13.942   1.371
35518W        W 7778  39.536  38.905  11.094
35519W        W 7779  27.465  42.234  14.032
35520W        W 7780  32.051  19.974  12.510
35521W        W 7781   3.543  32.449   3.743
35522W        W 7782   2.449  39.906   3.731
35523W        W 7783  19.887  30.982  14.820
35524W        W 7784  43.522   2.610  13.323
35525W        W 7785  25.642  30.436  14.359
35526W        W 7786  20.225   1.766   1.123
35527W        W 7787  14.805   7.872  14.434
35528W        W 7788  18.040  26.982   4.009
35529W        W 7789  34.513  10.096   4.298
35530W        W 7790  37.279  14.075  13.087
35531W        W 7791   6.701   6.433  14.925
35532W        W 7792  34.673   0.791  14.439
35533W        W 7793   5.134  40.373   4.036
35534W        W 7794  21.663  28.681   2.754
35535W        W 7795   7.143   8.859  11.190
35536W        W 7796  16.540  31.891  14.382
35537W        W 7797  13.583  32.463   2.743
35538W        W 7798  33.092  12.623   1.263
35539W        W 7799  21.018  38.962  13.712
35540W        W 7800  11.048  37.804   0.986
35541W        W 7801  21.888   8.631  12.115
35542W        W 7802  17.024  22.194  10.710
35543W        W 7803  27.134  44.812   4.756
35544W        W 7804  24.849  35.211   4.500
35545W        W 7805   6.943   2.804   2.709
35546W        W 7806  29.777  16.879  12.036
35547W        W 7807   6.898  21.514   4.940
35548W        W 7808  12.579   8.849  10.669
35549W        W 7809  27.954  10.901   0.503
35550W        W 7810  44.084   0.211   5.029
35551W        W 7811   8.477  22.999   1.298
35552W        W 7812  36.617  14.315  11.131
35553W        W 7813  35.621  29.184   3.159
35554W        W 7814   2.133  24.652   4.037
35555W        W 7815  27.263  27.170  10.670
35556W        W 7816  26.795   5.804  13.021
35557W        W 7817  34.685  30.950  10.597
35558W        W 7818  13.996  44.332   5.040
35559W        W 7819  22.415  13.841   0.391
35560W        W 7820  39.798  35.906   3.870
35561W        W 7821  30.809  14.891   1.708
35562W        W 7822  35.296  38.362   3.745
35563W        W 7823  37.981  42.271  12.869
35564W        W 7824  29.561  29.243   1.696
35565W        W 7825  14.908  43.230   1.532
35566W        W 7826  39.753  25.190   3.892
35567W        W 7827  25.612  26.263   4.650
35568W        W 7828  14.508   0.697   2.480
35569W        W 7829  21.802  14.268  12.396
35570W        W 7830  20.701  41.744  13.445
35571W        W 7831  34.228  25.839  10.768
35572W        W 7832  12.106  25.359  12.026
35573W        W 7833  23.049  44.543   2.709
35574W        W 7834  14.330  40.749   4.726
35575W        W 7835  40.015  13.389  12.050
35576W        W 7836  24.731  26.837   3.828
35577W        W 7837  31.081  31.479  10.841
35578W        W 7838  33.373  41.541   3.817
35579W        W 7839   0.556  33.140   1.264
35580W        W 7840  43.440  38.779  13.481
35581W        W 7841  30.843   2.009  13.557
35582W        W 7842  13.196  24.231  14.860
35583W        W 7843  35.021  37.945  11.508
35584W        W 7844  31.279   6.579  12.457
35585W        W 7845  26.022  28.208  12.449
35586W        W 7846  44.523  44.747   0.999
35587W        W 7847   7.265  28.453   4.147
35588W        W 7848  34.533  19.268  10.732
35589W        W 7849  24.415  30.561  14.015
35590W        W 7850  37.495  12.482  14.924
35591W        W 7851   1.085  24.451  11.943
35592W        W 7852  19.515  24.540  14.395
35593W        W 7853  37.055  16.191  13.472
35594W        W 7854   2.201  14.324   0.871
35595W        W 7855   6.271  19.328  11.541
35596W        W 7856   0.857  19.773  11.548
35597W        W 7857  38.476  19.632  10.628
35598W        W 7858  43.524  44.486   2.733
35599W        W 7859   9.762  43.297  12.456
35600W        W 7860   1.793  18.750   1.827
35601W        W 7861   1.337   9.897   0.974
35602W        W 7862  41.976  23.659   0.254
35603W        W 7863  33.962  30.467   1.540
35604W        W 7864  36.900  41.444  10.467
35605W        W 7865  10.250   3.255  12.754
35606W        W 7866  39.447  15.136  13.925
35607W        W 7867  23.800  43.534  10.664
35608W        W 7868   5.056  21.913   0.936
35609W        W 7869  25.640  44.977  10.764
35610W        W 7870  10.608  32.787   2.409
35611W        W 7871  30.522  15.875   0.391
35612W        W 7872   0.227   6.077   1.247
35613W        W 7873  24.401  14.299  14.832
35614W        W 7874  42.207   5.513  13.827
35615W        W 7875  43.794  25.473  10.792
35616W        W 7876  26.811  18.541  12.500
35617W        W 7877  36.339  38.039   3.209
35618W        W 7878   8.264  36.599   1.953
35619W        W 7879  12.225  29.567  10.062
35620W        W 7880  32.081   2.230   0.213
35621W        W 7881  20.381  10.703  13.596
35622W        W 7882   8.824   2.055  11.256
35623W        W 7883  18.885  41.325   4.041
35624W        W 7884   3.542  31.249   5.195
35625W        W 7885  39.318  13.318  11.523
35626W        W 7886  11.359  31.184  11.696
35627W        W 7887  42.385  14.589  13.422
35628W        W 7888  20.828  12.531   1.346
35629W        W 7889  24.146  30.009   2.149
35630W        W 7890  23.106  18.593  13.984
35631W        W 7891  17.824  21.171   2.045
35632W        W 7892  15.154   2.781  12.425
35633W        W 7893   3.298  34.782   0.994
35634W        W 7894  18.489  31.426  11.190
35635W        W 7895  14.855  34.941  11.990
35636W        W 7896  23.518  32.253   1.218
35637W        W 7897  27.537  11.659   3.526
35638W        W 7898  27.513  43.227   2.885
35639W        W 7899  17.590  10.892   3.775
35640W        W 7900  20.170  21.162  14.029
35641W        W 7901  39.389  23.313  12.434
35642W        W 7902  20.941  43.271  11.047
35643W        W 7903  42.521  17.337  14.427
35644W        W 7904  31.632   8.227   2.410
35645W        W 7905  20.522   0.461   0.206
35646W        W 7906  39.019  18.707   3.966
35647W        W 7907  33.340  30.411   4.336
35648W        W 7908  35.759  10.141  12.053
35649W        W 7909  10.527  28.047  11.205
35650W        W 7910  10.719  44.796   4.611
35651W        W 7911  32.697  17.622   0.418
35652W        W 7912  19.604  42.762  11.398
35653W        W 7913  42.775  30.199  10.997
35654W        W 7914  31.275   8.774   4.632
35655W        W 7915  22.487  13.358  12.892
35656W        W 7916  17.377  42.503   1.386
35657W        W 7917  38.773  41.021  11.552
35658W        W 7918  36.944   1.854   1.836
35659W        W 7919  29.579  16.587   4.225
35660W        W 7920  11.111  30.671  11.592
35661W        W 7921  44.256  16.638  12.965
35662W        W 7922  11.534  42.104  12.983
35663W        W 7923  35.607  29.902  13.412
35664W        W 7924  10.253   8.688  12.760
35665W        W 7925  35.869   3.126  14.303
35666W        W 7926   5.183  19.906   1.364
35667W        W 7927  17.630  34.044  13.280
35668W        W 7928  26.339  23.566   2.736
35669W        W 7929  41.297   7.012   1.002
35670W        W 7930   2.275  33.085   3.553
35671W        W 7931  32.022  28.477  12.412
35672W        W 7932  38.975   6.366  13.843
35673W        W 7933  12.238   1.443  13.014
35674W        W 7934  21.712  38.523  10.396
35675W        W 7935  15.611   7.903   0.775
35676W        W 7936  44.417  13.680  14.772
35677W        W 7937  30.828  24.709  14.982
35678W        W 7938  16.190  28.017   2.430
35679W        W 7939  31.654  33.490  14.258
35680W        W 7940  12.273  28.395   1.414
35681W        W 7941  22.256  32.436  13.573
35682W        W 7942   4.668   3.915  11.805
35683W        W 7943   8.875  29.752   4.612
35684W        W 7944  25.040  33.197  13.078
35685W        W 7945  10.085  25.181   3.564
35686W        W 7946   2.551  41.998   2.688
35687W        W 7947   4.614  22.812   3.677
35688W        W 7948  17.166  13.012  11.981
35689W        W 7949  18.570  22.104  13.940
35690W        W 7950   7.724  15.523  14.532
35691W        W 7951  14.066  44.030   3.179
35692W        W 7952  35.436   3.237   2.299
35693W        W 7953  42.959  20.854   4.165
35694W        W 7954  34.933  39.469  13.889
35695W        W 7955  29.199  33.828  13.351
35696W        W 7956  40.936  35.769   0.992
35697W        W 7957  14.333  27.105   4.339
35698W        W 7958  38.459  26.737  12.204
35699W        W 7959  30.332  34.933   0.136
35700W        W 7960  18.644  29.367   4.177
35701W        W 7961  28.631  31.706   0.484
35702W        W 7962  38.778   1.700  11.072
35703W        W 7963  32.958  35.066   2.942
35704W        W 7964  18.531   8.695  13.767
35705W        W 7965   3.700  29.364   2.237
35706W        W 7966  39.927  27.642   2.120
35707W        W 7967  40.360   0.597  11.849
35708W        W 7968  18.880  40.790  12.612
35709W        W 7969  26.973  38.457  11.001
35710W        W 7970  28.705  21.781  12.601
35711W        W 7971  39.098  35.075   1.868
35712W        W 7972  38.541  27.136  11.061
35713W        W 7973  31.976  26.119  13.479
35714W        W 7974   6.740  31.637  12.906
35715W        W 7975  27.979  15.121  10.146
35716W        W 7976   3.276  40.621   1.976
35717W        W 7977   0.113  17.214   1.765
35718W        W 7978  27.852  27.896  14.524
35719W        W 7979   8.720  31.355   3.663
35720W        W 7980  31.222  18.648   4.656
35721W        W 7981  21.109  29.191  13.601
35722W        W 7982  34.406  27.284   4.985
35723W        W 7983  31.851  10.933  11.221
35724W        W 7984  19.154  27.510   2.177
35725W        W 7985  33.359  29.100  10.994
35726W        W 7986  36.324  10.885   0.922
35727W        W 7987  13.416  38.495  14.269
35728W        W 7988  32.895   8.252   2.729
35729W        W 7989  18.838  37.124  12.360
35730W        W 7990  14.677   2.797   1.737
35731W        W 7991  27.902  20.920   1.221
35732W        W 7992   3.426  27.486   0.804
35733W        W 7993   9.760  18.709   3.559
35734W        W 7994  16.730  42.549   0.297
35735W        W 7995  44.400  21.571   0.307
35736W        W 7996  27.046  30.080   0.757
35737W        W 7997  15.248  17.815  13.858
35738W        W 7998  36.428  20.536   0.437
35739W        W 7999  41.087  18.529  11.073
35740W        W 8000   5.745  26.109  11.128
35741W        W 8001  33.975   9.807  13.409
35742W        W 8002  33.793   3.385   2.953
35743W        W 8003  35.029  28.608   0.816
35744W        W 8004  39.957  24.194   4.904
35745W        W 8005   2.943  14.179   2.708
35746W        W 8006   4.352  21.678  11.866
35747W        W 8007  20.479   6.004   2.756
35748W        W 8008  35.762  30.243  10.449
35749W        W 8009   3.742  24.403  12.524
35750W        W 8010  34.351   1.030   4.799
35751W        W 8011  34.424  26.182   1.897
35752W        W 8012  19.222  26.113   2.474
35753W        W 8013  33.422  33.840   1.083
35754W        W 8014  36.943  17.769   4.595
35755W        W 8015  20.583  29.099   3.141
35756W        W 8016  18.639   5.884   2.403
35757W        W 8017   8.448  44.338  10.672
35758W        W 8018  22.286  10.759  13.266
35759W        W 8019   4.662   5.497  14.785
35760W        W 8020  43.280  17.634   3.203
35761W        W 8021  14.882  20.055   3.884
35762W        W 8022  23.017  36.960   1.739
35763W        W 8023  42.636  43.139   1.159
35764W        W 8024  29.506  34.368   2.359
35765W        W 8025  16.236  34.473   4.614
35766W        W 8026  16.862   6.284   1.738
35767W        W 8027  43.828  16.401  11.860
35768W        W 8028   6.475  13.873  11.911
35769W        W 8029  25.502   9.306   1.400
35770W        W 8030  30.556  18.493  10.670
35771W        W 8031   6.432  33.532   2.214
35772W        W 8032   4.951   9.618   3.897
35773W        W 8033  32.106  32.692   3.165
35774W        W 8034  26.073  13.125   2.861
35775W        W 8035   1.882   2.991   0.287
35776W        W 8036  36.356  14.058  12.367
35777W        W 8037  23.947   3.237  11.794
35778W        W 8038  16.382  36.605   0.677
35779W        W 8039  36.824  10.652   2.685
35780W        W 8040   8.661  42.509  12.423
35781W        W 8041  13.346  33.821  10.023
35782W        W 8042  23.024  15.636  10.149
35783W        W 8043  10.348  42.285   0.230
35784W        W 8044  38.917  33.864   2.497
35785W        W 8045  29.494   5.601   4.913
35786W        W 8046  17.809  35.493  12.457
35787W        W 8047  14.995   7.820   4.522
35788W        W 8048  31.908  38.166  14.393
35789W        W 8049  38.391  41.487   3.625
35790W        W 8050  19.259  38.429  11.193
35791W        W 8051   5.711  12.225   0.366
35792W        W 8052  14.620  11.603   3.828
35793W        W 8053   1.312  41.220  12.450
35794W        W 8054  10.327  11.204   2.752
35795W        W 8055  22.646  39.559  13.256
35796W        W 8056   5.407   6.751   3.139
35797W        W 8057  31.526   4.122   3.292
35798W        W 8058  44.587  28.590   2.488
35799W        W 8059  44.363  19.244   2.623
35800W        W 8060  40.847  40.525  10.512
35801W        W 8061  25.271  13.684   3.737
35802W        W 8062   6.177  39.033  10.113
35803W        W 8063  30.046  25.951  14.706
35804W        W 8064  32.598  15.234   4.634
35805W        W 8065   8.408  13.614  12.347
35806W        W 8066  19.462  40.845   1.863
35807W        W 8067   1.381   1.404   4.646
35808W        W 8068  15.194  44.218   0.484
35809W        W 8069  21.476  33.646   0.454
35810W        W 8070  26.244  36.903   0.396
35811W        W 8071  19.162  23.000  13.995
35812W        W 8072  14.399  40.906   2.672
35813W        W 8073   9.885  34.061  14.253
35814W        W 8074   4.229  20.363  13.814
35815W        W 8075  12.348  32.461   1.562
35816W        W 8076  32.083  39.192  14.395
35817W        W 8077  43.348  21.844  11.030
35818W        W 8078  26.410  13.305   4.173
35819W        W 8079  18.297  30.559  11.229
35820W        W 8080  24.219  40.714   0.942
35821W        W 8081  34.122  40.611  13.299
35822W        W 8082   2.444  26.581  11.677
35823W        W 8083  24.872  31.641  14.689
35824W        W 8084  24.122   9.689   2.119
35825W        W 8085  34.887  30.088  11.968
35826W        W 8086  30.385   5.862   0.953
35827W        W 8087  14.278  16.608   1.830
35828W        W 8088   1.742  29.634   5.027
35829W        W 8089  42.746  30.715  12.734
35830W        W 8090  18.650  10.077  10.678
35831W        W 8091  10.220   4.761  11.394
35832W        W 8092   5.931  26.169  10.661
35833W        W 8093  38.853  17.238  14.253
35834W        W 8094  18.504  11.339  11.574
35835W        W 8095   6.115  31.668  10.953
35836W        W 8096   1.890  19.813   0.565
35837W        W 8097   5.873  26.750  14.853
35838W        W 8098  19.951  16.859  14.808
35839W        W 8099  18.740  23.083   1.296
35840W        W 8100  15.305   0.959   2.713
35841W        W 8101  37.753   3.769   3.287
35842W        W 8102   3.988  12.879  13.324
35843W        W 8103   3.724  29.144  13.400
35844W        W 8104  38.824   6.815   3.798
35845W        W 8105  32.502  24.596   2.973
35846W        W 8106  36.321  20.707  12.367
35847W        W 8107  35.845  34.031   3.646
35848W        W 8108  41.510   2.697  11.978
35849W        W 8109  15.318  32.836   1.857
35850W        W 8110  24.074  11.018  14.637
35851W        W 8111  19.527  16.500   0.798
35852W        W 8112  15.966  32.993   3.896
35853W        W 8113  25.150   4.199  11.029
35854W        W 8114   8.912  32.325  11.193
35855W        W 8115   2.249  17.298   0.936
35856W        W 8116  24.706  24.586   3.924
35857W        W 8117   3.559  17.532   2.518
35858W        W 8118  23.232   4.961   4.457
35859W        W 8119  26.311   1.207   3.724
35860W        W 8120  31.522  23.679  13.341
35861W        W 8121  39.560  23.212   4.190
35862W        W 8122  21.631  21.275  10.167
35863W        W 8123  36.364   9.857   0.601
35864W        W 8124  39.995  26.108   4.951
35865W        W 8125  27.130  27.986  11.736
35866W        W 8126  29.218  30.547   0.536
35867W        W 8127  10.938  18.699  13.170
35868W        W 8128  29.995  12.488   3.147
35869W        W 8129  25.217  18.038  11.659
35870W        W 8130  39.764   1.368   4.610
35871W        W 8131  35.656  39.759   3.707
35872W        W 8132  10.263  33.474  11.920
35873W        W 8133  24.428  32.309   0.294
35874W        W 8134  18.240  20.999   2.829
35875W        W 8135  17.097  42.418  14.510
35876W        W 8136  20.601  18.442  14.153
35877W        W 8137  21.538   4.425  13.419
35878W        W 8138   5.283  22.159   0.447
35879W        W 8139  37.755  17.811   1.198
35880W        W 8140  27.675  35.690  11.593
35881W        W 8141  12.743  34.119   4.344
35882W        W 8142  32.190  25.633  13.396
35883W        W 8143  22.765  44.478  14.875
35884W        W 8144  43.376  18.946  14.414
35885W        W 8145  28.342  35.089  10.645
35886W        W 8146  44.405  36.982  13.720
35887W        W 8147  28.824  13.812  10.648
35888W        W 8148  18.028   9.924  12.536
35889W        W 8149  14.224   5.738  11.705
35890W        W 8150   3.001  12.241  14.706
35891W        W 8151   8.800   5.143   3.736
35892W        W 8152  20.894  31.508   2.857
35893W        W 8153   7.297  41.925   0.480
35894W        W 8154  14.213  19.577  12.011
35895W        W 8155  44.901  30.993  12.974
35896W        W 8156  33.914  19.558   0.798
35897W        W 8157  31.130  11.711   3.173
35898W        W 8158  38.315   9.159  10.669
35899W        W 8159  20.353  18.184   4.183
35900W        W 8160   4.913  42.953  10.642
35901W        W 8161  22.149  29.795  14.767
35902W        W 8162  20.421  18.182  11.517
35903W        W 8163  41.017  30.138  13.423
35904W        W 8164   9.631  26.013   0.636
35905W        W 8165  36.622  27.887  11.947
35906W        W 8166  36.290  23.621  14.890
35907W        W 8167  19.609  37.580  12.086
35908W        W 8168  30.241   2.566   4.535
35909W        W 8169  42.562   3.021   3.390
35910W        W 8170  38.484  11.602   0.728
35911W        W 8171  29.548  36.475  13.806
35912W        W 8172  35.153  37.301   1.842
35913W        W 8173   8.019  32.512  13.862
35914W        W 8174   1.051  20.688  14.234
35915W        W 8175  36.935  43.862  13.490
35916W        W 8176   2.755   1.054  11.635
35917W        W 8177  31.929   5.626   0.285
35918W        W 8178  36.451  41.069  13.930
35919W        W 8179  40.968   0.263   2.604
35920W        W 8180  37.854   4.376   2.737
35921W        W 8181  20.384  41.452  12.151
35922W        W 8182  33.393  23.271   2.285
35923W        W 8183   2.802  11.352  12.444
35924W        W 8184  15.231  26.494  11.603
35925W        W 8185   0.216   6.111  12.503
35926W        W 8186  27.723  38.607  12.176
35927W        W 8187  34.828  29.183   2.594
35928W        W 8188  38.332   8.778  11.500
35929W        W 8189  38.232   9.256   1.454
35930W        W 8190  37.928  10.755   0.259
35931W        W 8191   7.792  26.206  12.042
35932W        W 8192  11.087  28.445   1.786
35933W        W 8193  11.136  22.256  12.267
35934W        W 8194  31.142  37.919   2.935
35935W        W 8195   1.156  26.684   0.360
35936W        W 8196   5.083  19.581  11.217
35937W        W 8197  31.702  28.336   4.106
35938W        W 8198  44.790  32.451   3.676
35939W        W 8199  33.747  15.229   0.374
35940W        W 8200  19.198  43.241  12.490
35941W        W 8201  12.036  37.825  14.827
35942W        W 8202   1.314  30.581  14.393
35943W        W 8203   9.192  29.920  10.915
35944W        W 8204  19.122  40.098   4.645
35945W        W 8205  44.712  42.715   3.728
35946W        W 8206  12.216  23.735   0.920
35947W        W 8207  36.583  33.439  13.878
35948W        W 8208   0.581  34.467  14.452
35949W        W 8209   8.938  24.218  13.855
35950W        W 8210  27.603   6.746  13.429
35951W        W 8211  20.290  21.577   5.496
35952W        W 8212  27.582   9.320   4.940
35953W        W 8213  36.022  22.977   2.684
35954W        W 8214   7.457  36.595   1.512
35955W        W 8215  25.372  22.581  14.306
35956W        W 8216  25.776  32.424   1.370
35957W        W 8217  28.630   4.393   4.952
35958W        W 8218  24.101  13.674  11.842
35959W        W 8219  29.713  32.384   2.148
35960W        W 8220  11.129  22.595  11.439
35961W        W 8221  29.991  18.203  13.559
35962W        W 8222   5.675  14.329  10.798
35963W        W 8223  44.450  17.115  11.792
35964W        W 8224  19.991  36.304  11.652
35965W        W 8225   2.572   6.076  13.321
35966W        W 8226   1.055   4.242  11.236
35967W        W 8227  24.729  43.211   1.890
35968W        W 8228  36.081   8.131  13.142
35969W        W 8229   7.252  13.774   3.451
35970W        W 8230  29.921  21.177   4.986
35971W        W 8231   7.222  39.037   0.402
35972W        W 8232  42.845   4.088  11.620
35973W        W 8233  30.740  14.035   0.773
35974W        W 8234  38.469  10.582   2.485
35975W        W 8235   5.422  28.163  14.007
35976W        W 8236   0.223  36.838   1.916
35977W        W 8237  20.990  37.621  11.150
35978W        W 8238  20.115  26.653  14.374
35979W        W 8239  25.105  44.046   3.417
35980W        W 8240  29.116  39.490   4.102
35981W        W 8241  23.007  11.919   1.146
35982W        W 8242  44.609  31.011   3.848
35983W        W 8243  27.932  21.568  13.921
35984W        W 8244  21.333  12.626   2.141
35985W        W 8245  13.096   1.370   4.288
35986W        W 8246  21.750  41.555   3.203
35987W        W 8247  16.828  33.292   3.406
35988W        W 8248  35.934  26.530  13.543
35989W        W 8249  11.730  22.363   1.543
35990W        W 8250  42.910  40.920  13.382
35991W        W 8251  30.877  27.728  13.119
35992W        W 8252   8.022  32.127   3.650
35993W        W 8253  33.154  31.829  14.789
35994W        W 8254  42.980   8.247  12.125
35995W        W 8255  21.919  31.202   2.927
35996W        W 8256  33.628   4.707  11.289
35997W        W 8257  16.582  19.329   0.551
35998W        W 8258  17.116  15.224  13.253
35999W        W 8259   9.871  31.750   2.901
36000W        W 8260  13.807   5.431   4.018
36001W        W 8261  21.326   1.529  10.792
36002W        W 8262  14.944  18.619   0.488
36003W        W 8263   0.964  24.577  12.941
36004W        W 8264  15.780  27.157  14.284
36005W        W 8265  21.370  11.784   4.513
36006W        W 8266   8.848  21.934   4.641
36007W        W 8267  31.393  17.812  13.899
36008W        W 8268  15.734  10.676  10.901
36009W        W 8269  21.108   1.730  12.846
36010W        W 8270  38.407  43.093   1.281
36011W        W 8271   7.525   6.314  13.669
36012W        W 8272   7.699  33.386  13.315
36013W        W 8273  36.076  15.869  14.694
36014W        W 8274  35.069  41.760  10.668
36015W        W 8275  44.232   7.982   3.510
36016W        W 8276   4.758  26.903  12.892
36017W        W 8277  34.834   7.054  10.562
36018W        W 8278  17.762  26.239  12.411
36019W        W 8279  37.043  40.627   0.652
36020W        W 8280  12.849  32.407   1.402
36021W        W 8281  17.601  18.665   1.375
36022W        W 8282  12.347   4.318  13.196
36023W        W 8283   4.711  22.282  12.021
36024W        W 8284  38.474   6.186   0.321
36025W        W 8285  19.781   8.636   2.054
36026W        W 8286  43.536  33.085  12.023
36027W        W 8287   0.468  36.990   4.698
36028W        W 8288  24.723  25.559   4.296
36029W        W 8289  34.898  20.865   9.750
36030W        W 8290   3.904  25.732  11.490
36031W        W 8291  38.398  20.162   2.912
36032W        W 8292  19.933   3.984   4.032
36033W        W 8293  42.222   8.825  11.069
36034W        W 8294  10.909   2.286  11.657
36035W        W 8295  16.713  19.802  13.541
36036W        W 8296  42.532   5.360   3.808
36037W        W 8297  16.435  22.677   2.761
36038W        W 8298   3.265  13.683   3.399
36039W        W 8299  37.610  26.504   3.835
36040W        W 8300   9.435  14.774   4.559
36041W        W 8301  29.892  19.648  13.702
36042W        W 8302  35.005  28.705   2.442
36043W        W 8303  13.158  42.792   2.826
36044W        W 8304  17.403   1.957  13.601
36045W        W 8305  21.567   4.699   1.775
36046W        W 8306   8.904  41.547   0.827
36047W        W 8307  13.041  12.889  13.607
36048W        W 8308  18.790  34.911  14.863
36049W        W 8309   5.366  21.538   2.391
36050W        W 8310  15.756  13.045  11.132
36051W        W 8311  26.601   5.868  13.495
36052W        W 8312  27.416   7.361  14.958
36053W        W 8313   5.657   1.265   3.220
36054W        W 8314  27.633  37.790   4.245
36055W        W 8315  18.115  25.553   0.531
36056W        W 8316  23.397   1.796   2.986
36057W        W 8317  37.034  22.094   1.335
36058W        W 8318  25.605  33.557  11.879
36059W        W 8319  32.970  18.208   4.784
36060W        W 8320  22.779  28.523   1.970
36061W        W 8321   7.389  24.517   1.958
36062W        W 8322   8.708  28.881  12.962
36063W        W 8323  20.856  30.720  14.298
36064W        W 8324  14.909  16.296  12.955
36065W        W 8325  10.195  35.311  12.791
36066W        W 8326  41.564  31.503  12.613
36067W        W 8327  27.394  23.174  14.898
36068W        W 8328  23.648   7.103  11.005
36069W        W 8329  32.697  25.693   1.542
36070W        W 8330  33.322  36.143   0.269
36071W        W 8331  14.269   4.756   2.267
36072W        W 8332  14.741  29.194   0.606
36073W        W 8333  24.957  37.377  11.794
36074W        W 8334  36.855  11.345   3.371
36075W        W 8335  19.200  20.850   1.855
36076W        W 8336  31.864  10.338  14.419
36077W        W 8337  23.786  12.790   0.337
36078W        W 8338  11.262   6.425   1.502
36079W        W 8339  25.051  11.086  14.189
36080W        W 8340  42.348  22.546  13.374
36081W        W 8341  12.092  13.841   4.359
36082W        W 8342   9.878  14.894   2.750
36083W        W 8343   2.177  29.977   0.467
36084W        W 8344  27.663  39.472  12.086
36085W        W 8345  27.870   6.970  14.401
36086W        W 8346  16.686  34.972   3.240
36087W        W 8347  43.766  38.049   0.952
36088W        W 8348  20.048  41.473   1.334
36089W        W 8349  41.247  27.598  14.935
36090W        W 8350  38.342  15.783   1.700
36091W        W 8351  11.732  33.821   4.557
36092W        W 8352   5.201  25.006  12.524
36093W        W 8353   6.130  27.345  10.390
36094W        W 8354  35.074   9.205   4.268
36095W        W 8355  28.223  42.567   3.698
36096W        W 8356  20.072  14.554  11.107
36097W        W 8357  28.211  21.090  10.297
36098W        W 8358  17.540  18.820  13.624
36099W        W 8359   9.568  42.376   3.295
36100W        W 8360  13.162  11.868   2.276
36101W        W 8361  41.930  14.329  13.403
36102W        W 8362  37.431  41.503  10.454
36103W        W 8363   2.799   0.350   1.662
36104W        W 8364  13.211  12.660  14.848
36105W        W 8365   1.997   2.906  11.683
36106W        W 8366  37.414  16.595   3.232
36107W        W 8367  12.294  28.111  14.529
36108W        W 8368   3.771  34.929   3.670
36109W        W 8369   9.275  17.832  12.062
36110W        W 8370  23.093  41.239   2.641
36111W        W 8371  15.261  13.713  12.062
36112W        W 8372   2.712  11.084   0.802
36113W        W 8373  44.492  29.063   4.562
36114W        W 8374  15.225  17.200   1.433
36115W        W 8375  15.343  36.810   1.547
36116W        W 8376  40.469  25.054   4.188
36117W        W 8377  44.850  17.998  11.685
36118W        W 8378  13.518   5.295  12.511
36119W        W 8379  15.399  39.569   4.801
36120W        W 8380  38.443  41.291  10.404
36121W        W 8381  21.236  36.082   3.227
36122W        W 8382  28.199  23.089   2.224
36123W        W 8383  27.889  35.567   0.893
36124W        W 8384  42.427  32.440  13.751
36125W        W 8385   6.454  36.143   0.396
36126W        W 8386  10.107  43.513  11.587
36127W        W 8387  25.711  35.635   1.631
36128W        W 8388  36.625  25.270   1.317
36129W        W 8389  44.476  15.293  12.195
36130W        W 8390  43.487  15.582   1.636
36131W        W 8391  27.134   6.736  13.233
36132W        W 8392   9.347  33.850   1.837
36133W        W 8393  43.254  13.583   0.262
36134W        W 8394  42.936   5.944  11.667
36135W        W 8395  12.802  11.383   3.353
36136W        W 8396  24.218  41.713   4.148
36137W        W 8397  30.032  16.419  11.120
36138W        W 8398  36.640  17.599  13.796
36139W        W 8399  24.252  15.808   1.383
36140W        W 8400  33.123  37.134   4.208
36141W        W 8401  31.922  20.477  12.478
36142W        W 8402  23.429  15.320   0.293
36143W        W 8403   0.702   3.210  12.563
36144W        W 8404  40.072  30.040  13.374
36145W        W 8405  36.054   2.393   4.558
36146W        W 8406  36.067  36.901  11.758
36147W        W 8407  12.109  35.328  13.485
36148W        W 8408  32.962  19.311   4.183
36149W        W 8409  31.373   4.928   0.037
36150W        W 8410  27.929   6.883   2.741
36151W        W 8411  40.016   9.368  14.869
36152W        W 8412   1.782  15.843  11.132
36153W        W 8413  16.837  40.176  10.727
36154W        W 8414  14.896  11.175   3.110
36155W        W 8415  16.793  12.235  13.857
36156W        W 8416  14.189  17.694   1.462
36157W        W 8417  17.522  37.855   4.340
36158W        W 8418  39.997  34.410   4.002
36159W        W 8419   0.532  37.484   3.273
36160W        W 8420  10.304  19.071  10.856
36161W        W 8421   5.715   9.656  12.025
36162W        W 8422   3.935  12.611   1.321
36163W        W 8423  20.591  42.913   3.207
36164W        W 8424   3.792  18.220  14.210
36165W        W 8425  42.611  39.310   4.210
36166W        W 8426  41.427  16.039  12.011
36167W        W 8427  40.807  31.898  12.057
36168W        W 8428   5.388  19.723  11.616
36169W        W 8429  42.221  20.627   1.097
36170W        W 8430  23.480  13.071  13.071
36171W        W 8431  24.178   1.829   4.255
36172W        W 8432  31.220  30.178  10.169
36173W        W 8433  10.932  12.104  14.361
36174W        W 8434  15.019  20.126   1.481
36175W        W 8435  15.044  20.035   2.954
36176W        W 8436  15.645  11.869  12.038
36177W        W 8437   7.311   6.726   3.367
36178W        W 8438  22.764  22.544  14.521
36179W        W 8439   5.637  30.873  14.980
36180W        W 8440   2.731  26.561   1.234
36181W        W 8441  18.938   8.148   0.306
36182W        W 8442  26.448  12.421   0.802
36183W        W 8443   7.789  10.235  11.056
36184W        W 8444   7.791   8.168  14.222
36185W        W 8445  15.753  44.274  14.093
36186W        W 8446  17.314   4.895   1.099
36187W        W 8447   6.643   5.959   3.175
36188W        W 8448  44.989   6.457  12.829
36189W        W 8449   5.765  35.763  12.496
36190W        W 8450  31.886  41.402   0.867
36191W        W 8451  12.281  42.597   2.725
36192W        W 8452  18.595  40.337   0.518
36193W        W 8453  41.901   2.205  14.368
36194W        W 8454  28.798  23.595   4.463
36195W        W 8455  18.156  11.388  14.806
36196W        W 8456  28.580  29.946   0.859
36197W        W 8457  11.876  20.829   4.734
36198W        W 8458   9.784  40.301  14.787
36199W        W 8459  25.135   6.019   5.073
36200W        W 8460  15.296  36.044   1.100
36201W        W 8461   1.017  38.371   4.175
36202W        W 8462  34.444  29.934  13.426
36203W        W 8463  31.157  23.784  13.817
36204W        W 8464   9.799  17.119  14.723
36205W        W 8465  42.662   1.471   2.273
36206W        W 8466  21.166  15.576  13.559
36207W        W 8467  42.741  27.735  12.064
36208W        W 8468  31.906   3.313  14.287
36209W        W 8469  14.584  17.045  12.967
36210W        W 8470  23.741  10.294   2.726
36211W        W 8471  37.534  40.898   4.564
36212W        W 8472  22.437  28.440   4.144
36213W        W 8473  17.394  19.341   0.738
36214W        W 8474  23.260  20.822  12.042
36215W        W 8475  17.387   6.765  13.786
36216W        W 8476   2.762  12.745  13.916
36217W        W 8477  31.209   0.270   4.155
36218W        W 8478  40.869  23.186  13.946
36219W        W 8479  19.127   8.750  14.766
36220W        W 8480  13.701  41.248   4.544
36221W        W 8481  35.915   0.192  13.006
36222W        W 8482  26.457  41.699   0.153
36223W        W 8483  11.775   3.885  14.371
36224W        W 8484  19.928  38.976   4.139
36225W        W 8485   8.449  20.147   1.476
36226W        W 8486   4.671   7.971  11.205
36227W        W 8487  27.693  28.511  11.037
36228W        W 8488   5.877  39.448  11.612
36229W        W 8489  25.535   1.299   2.150
36230W        W 8490  13.067  23.105   1.365
36231W        W 8491  33.825  10.336  11.638
36232W        W 8492   1.490  20.753   1.770
36233W        W 8493  29.881  21.287   2.278
36234W        W 8494  38.511  41.856   1.829
36235W        W 8495   7.469  15.627   3.161
36236W        W 8496  40.970  41.310   1.269
36237W        W 8497  37.316  18.939   4.127
36238W        W 8498  24.693  16.134  11.944
36239W        W 8499  26.633  44.828   2.865
36240W        W 8500   7.204  36.047   3.827
36241W        W 8501   0.793  41.403  11.655
36242W        W 8502  33.096  11.200  14.364
36243W        W 8503  39.348   4.693   1.744
36244W        W 8504  35.001  44.644  12.821
36245W        W 8505  22.457   6.019  10.337
36246W        W 8506  35.903  37.323   3.688
36247W        W 8507  25.413  25.199  13.966
36248W        W 8508  22.654  21.497   4.552
36249W        W 8509  27.678  22.864   4.695
36250W        W 8510  14.804  30.265  12.130
36251W        W 8511  22.514   9.813   4.981
36252W        W 8512  24.928  29.687  12.156
36253W        W 8513  16.606  20.112  11.554
36254W        W 8514  31.009   6.629   4.542
36255W        W 8515   8.826   5.395  11.621
36256W        W 8516  40.757   3.526   1.826
36257W        W 8517  18.080  11.853  10.516
36258W        W 8518  29.995  31.549   1.658
36259W        W 8519   5.815  35.872  11.989
36260W        W 8520  43.519  15.722   0.756
36261W        W 8521  38.951  41.146  13.288
36262W        W 8522   3.786  22.670  10.809
36263W        W 8523  22.449  42.116  13.349
36264W        W 8524  34.286  31.802   1.891
36265W        W 8525  42.558  38.497   1.245
36266W        W 8526  34.406   9.311   1.967
36267W        W 8527  42.184  28.583  10.676
36268W        W 8528   7.699  15.056   2.521
36269W        W 8529  36.327  31.891   0.890
36270W        W 8530   4.834  16.665  11.147
36271W        W 8531  40.015  18.250  11.029
36272W        W 8532  32.445  17.680  12.428
36273W        W 8533   9.813  27.354   2.063
36274W        W 8534   4.899  27.101   0.179
36275W        W 8535  43.771  29.026   4.890
36276W        W 8536  24.697   3.010  11.478
36277W        W 8537  26.456   5.144   0.527
36278W        W 8538  36.770  28.870  13.957
36279W        W 8539   8.196  11.641  11.571
36280W        W 8540  41.566  40.532  11.249
36281W        W 8541  11.148  22.642  14.028
36282W        W 8542  14.394  24.038   0.516
36283W        W 8543  34.410   7.486   1.743
36284W        W 8544  30.649  41.991   3.179
36285W        W 8545  24.594  37.207   4.634
36286W        W 8546  15.384  16.186   9.806
36287W        W 8547  15.150  12.882   1.678
36288W        W 8548  24.385  35.389  11.199
36289W        W 8549  38.968  31.302  10.717
36290W        W 8550   4.883   2.815   1.954
36291W        W 8551   3.799   0.010   0.217
36292W        W 8552  38.891  24.045  14.375
36293W        W 8553  24.221  21.743  13.976
36294W        W 8554  12.080  23.153  12.140
36295W        W 8555   1.767  25.376   2.815
36296W        W 8556   0.977  27.101   3.695
36297W        W 8557   4.276  33.618   4.559
36298W        W 8558   3.455  26.726   3.099
36299W        W 8559   4.145   2.872   3.173
36300W        W 8560   1.480   8.325   0.271
36301W        W 8561  17.039  35.885   0.320
36302W        W 8562  36.011  31.118  13.069
36303W        W 8563  24.304  44.322  12.024
36304W        W 8564  36.619   7.341  10.829
36305W        W 8565   4.851   9.215  10.944
36306W        W 8566  20.681  23.558  12.596
36307W        W 8567   8.188  17.924   1.378
36308W        W 8568  37.999  11.099  12.578
36309W        W 8569  16.564  17.779   1.375
36310W        W 8570  29.011   4.618   2.350
36311W        W 8571  29.517   5.703   2.854
36312W        W 8572   5.790   4.650   3.689
36313W        W 8573  13.213   1.030   2.307
36314W        W 8574  26.175   0.115   2.718
36315W        W 8575  40.417  41.491   2.632
36316W        W 8576  13.157  34.464   1.009
36317W        W 8577  24.322  29.797   1.317
36318W        W 8578   9.588  28.227  12.861
36319W        W 8579   5.729  21.754   1.297
36320W        W 8580  21.047  21.764   0.894
36321W        W 8581  31.808  10.613  12.962
36322W        W 8582  13.215  20.145   2.846
36323W        W 8583  42.777  21.116  13.496
36324W        W 8584  25.908  23.566  13.988
36325W        W 8585  34.049  21.725   0.183
36326W        W 8586  20.133  25.599  14.715
36327W        W 8587  21.991  28.000  13.929
36328W        W 8588   3.177   5.635  12.484
36329W        W 8589   8.317   2.667   1.723
36330W        W 8590   0.556  16.153   3.868
36331W        W 8591  10.806   6.713   2.446
36332W        W 8592  38.499  22.999  12.405
36333W        W 8593  17.170  38.498   4.409
36334W        W 8594  40.383  25.470  11.963
36335W        W 8595  17.839  40.888  11.133
36336W        W 8596  25.549  26.530   3.201
36337W        W 8597   8.663  35.168   1.751
36338W        W 8598  22.535  26.201  13.474
36339W        W 8599  15.776  43.490  12.693
36340W        W 8600  37.886   4.010  14.476
36341W        W 8601   9.059  31.124  14.221
36342W        W 8602   0.679  34.022   0.326
36343W        W 8603  29.410  12.277   4.219
36344W        W 8604  14.858  17.855   0.922
36345W        W 8605  23.888  43.000   2.371
36346W        W 8606  44.066  15.390   4.958
36347W        W 8607  14.646  40.921  13.310
36348W        W 8608   4.246  36.058   1.342
36349W        W 8609  14.600  15.375  11.659
36350W        W 8610  32.135  10.115   0.434
36351W        W 8611   6.778  30.007   4.568
36352W        W 8612   3.707  18.220  11.626
36353W        W 8613  40.985   6.982   4.272
36354W        W 8614  18.271   7.197   1.320
36355W        W 8615  26.172  27.320  13.942
36356W        W 8616  21.848  23.183   2.727
36357W        W 8617  26.109  43.784   4.477
36358W        W 8618  17.321  23.549  14.887
36359W        W 8619   6.666  23.900  11.726
36360W        W 8620   7.911  41.413  13.568
36361W        W 8621  11.005  23.790   3.129
36362W        W 8622   6.512  28.272  13.351
36363W        W 8623  39.231  10.512   0.215
36364W        W 8624  23.430  36.875   2.376
36365W        W 8625  34.163  32.142  10.765
36366W        W 8626  17.647  44.477  13.321
36367W        W 8627  39.411   9.413   2.272
36368W        W 8628  36.632  35.623  12.830
36369W        W 8629  14.262  42.338  12.895
36370W        W 8630  12.697  35.814   3.226
36371W        W 8631   3.435  12.523   0.424
36372W        W 8632  11.360  39.349  11.713
36373W        W 8633  16.082  13.780   3.821
36374W        W 8634  31.053  21.610   3.260
36375W        W 8635  30.213  27.975   1.280
36376W        W 8636  42.229   3.332  13.532
36377W        W 8637  22.995  23.782  11.621
36378W        W 8638  21.991  40.999  11.073
36379W        W 8639   2.248  17.040  12.506
36380W        W 8640  36.454  32.108   3.296
36381W        W 8641  31.081  33.642   4.078
36382W        W 8642  24.778   1.279   2.686
36383W        W 8643  12.856   4.373  13.381
36384W        W 8644  15.115   5.738   1.311
36385W        W 8645  33.368  37.252   3.735
36386W        W 8646  18.735  28.131   2.899
36387W        W 8647  11.364   3.858   3.260
36388W        W 8648  18.317  11.911  11.011
36389W        W 8649   9.897   2.864  10.793
36390W        W 8650  10.199  42.061  14.798
36391W        W 8651   3.329  41.093  12.474
36392W        W 8652  15.326   8.616   0.331
36393W        W 8653  18.833  28.590  12.129
36394W        W 8654  25.613  44.236  12.861
36395W        W 8655  21.809  21.263   3.574
36396W        W 8656  28.750  33.487  12.521
36397W        W 8657   4.900  32.619  10.976
36398W        W 8658  24.079   9.903   2.862
36399W        W 8659   1.087   9.026   4.920
36400W        W 8660   0.927  34.427  11.568
36401W        W 8661  10.720  19.131  12.974
36402W        W 8662   7.728  31.875   0.362
36403W        W 8663  25.162  31.963   3.603
36404W        W 8664  23.203  33.946  13.970
36405W        W 8665  11.958  27.615  12.446
36406W        W 8666  44.263  35.863  14.443
36407W        W 8667  17.252  14.581  10.411
36408W        W 8668  29.532  42.882   0.714
36409W        W 8669  16.456  23.780  14.288
36410W        W 8670  26.501  26.971   2.192
36411W        W 8671  33.837  33.532  14.963
36412W        W 8672  23.116  34.392  11.601
36413W        W 8673  14.644  15.771   4.641
36414W        W 8674  22.311  18.639   9.851
36415W        W 8675  11.045   8.236   1.922
36416W        W 8676  20.765  28.643  14.942
36417W        W 8677  36.906  19.304  12.051
36418W        W 8678  37.506  26.165  14.509
36419W        W 8679  30.885  18.085  12.378
36420W        W 8680  17.055  19.117   1.364
36421W        W 8681  43.058  33.462   4.062
36422W        W 8682  17.572  28.923   0.515
36423W        W 8683  13.615  26.579  12.388
36424W        W 8684  16.594   0.481   0.090
36425W        W 8685   1.393   0.825  11.001
36426W        W 8686  35.095   8.378   0.305
36427W        W 8687  37.110  38.586   3.227
36428W        W 8688  38.538   1.656  11.567
36429W        W 8689  11.365  20.633   4.691
36430W        W 8690  18.742  38.533  12.597
36431W        W 8691  36.921  13.763   4.001
36432W        W 8692  22.278   8.898  12.295
36433W        W 8693  36.589  10.838  14.386
36434W        W 8694  41.581  18.276  12.082
36435W        W 8695  26.029  26.547   4.514
36436W        W 8696  12.914   1.330  14.425
36437W        W 8697  18.810  32.335   0.865
36438W        W 8698  38.610  31.275  11.823
36439W        W 8699  10.913  13.529   2.842
36440W        W 8700  33.069  35.888   4.160
36441W        W 8701  11.479  27.590  13.489
36442W        W 8702  32.821  38.019  14.318
36443W        W 8703   4.834   6.493  14.848
36444W        W 8704  13.368  33.097  12.456
36445W        W 8705  15.271  22.392  11.212
36446W        W 8706  42.880  24.406   2.455
36447W        W 8707  36.543  33.445   2.174
36448W        W 8708  35.820  24.752   1.304
36449W        W 8709   5.126  28.008  12.394
36450W        W 8710  14.401  12.974   1.132
36451W        W 8711  16.327  28.549   0.732
36452W        W 8712  26.585  16.828   3.684
36453W        W 8713  25.019  31.015   4.598
36454W        W 8714  39.592  44.708  13.290
36455W        W 8715   6.261  34.028   2.294
36456W        W 8716  15.237   3.296   2.642
36457W        W 8717  44.360   6.012   1.859
36458W        W 8718  25.092  29.482   4.730
36459W        W 8719  23.650   0.592  13.524
36460W        W 8720   9.315   7.182  14.884
36461W        W 8721  25.162  19.743  13.572
36462W        W 8722   0.824  29.609  14.455
36463W        W 8723  36.210  32.193  14.016
36464W        W 8724  29.163  23.236   3.568
36465W        W 8725  37.502  22.545   0.253
36466W        W 8726  10.757   5.439   3.698
36467W        W 8727  24.885  36.298   1.493
36468W        W 8728  24.690  42.034  13.086
36469W        W 8729  32.280   7.741   4.851
36470W        W 8730  36.138  36.431  13.123
36471W        W 8731   8.918  28.974   1.245
36472W        W 8732  17.963   2.757   0.331
36473W        W 8733  25.213  30.403   0.275
36474W        W 8734   9.425  41.040   4.521
36475W        W 8735  23.717  40.538  10.653
36476W        W 8736   0.296   0.105  12.971
36477W        W 8737   8.173  39.937  13.000
36478W        W 8738  30.558   1.346  12.525
36479W        W 8739  11.851  13.152   1.793
36480W        W 8740  13.929  42.883   0.432
36481W        W 8741  13.228  12.265  10.457
36482W        W 8742   5.817  26.182   2.965
36483W        W 8743  36.763   8.614   0.686
36484W        W 8744   7.253  19.267   0.374
36485W        W 8745  17.709  33.439   3.078
36486W        W 8746  35.418  32.098  13.414
36487W        W 8747  31.790  36.997   4.551
36488W        W 8748  42.381  27.027  14.019
36489W        W 8749  25.456  20.813  13.814
36490W        W 8750  16.537  20.450  11.953
36491W        W 8751  34.077   7.512  11.074
36492W        W 8752   5.854  28.990  13.249
36493W        W 8753   0.491  42.111  13.393
36494W        W 8754   1.623  38.490   0.812
36495W        W 8755  10.765  17.795  11.539
36496W        W 8756  28.655  11.883  12.424
36497W        W 8757  44.009  13.799   1.342
36498W        W 8758  12.724   6.479   0.789
36499W        W 8759  39.561  13.787  12.112
36500W        W 8760  22.573   0.743  13.407
36501W        W 8761   8.216  15.191   4.852
36502W        W 8762  11.779   0.835   4.095
36503W        W 8763  11.392   0.434  12.624
36504W        W 8764  40.932  27.168  13.382
36505W        W 8765  13.153   0.940   0.365
36506W        W 8766   6.463   9.791   4.572
36507W        W 8767  10.257   3.970   2.173
36508W        W 8768   2.170  11.788   4.076
36509W        W 8769  12.242  41.567   1.813
36510W        W 8770  13.093  30.985  13.520
36511W        W 8771  19.210   9.500  14.352
36512W        W 8772  39.910   5.009  12.431
36513W        W 8773  28.050   9.217   3.162
36514W        W 8774  32.718  30.878  12.902
36515W        W 8775  13.252  22.791   2.778
36516W        W 8776  22.607  24.961   0.447
36517W        W 8777  34.834  27.407  13.388
36518W        W 8778  39.078  42.028  12.379
36519W        W 8779  20.273  39.895   3.884
36520W        W 8780  44.170  33.405   1.805
36521W        W 8781  32.289   0.388  14.575
36522W        W 8782  40.616   6.183   1.580
36523W        W 8783  12.747  22.300   3.379
36524W        W 8784  12.609  16.797   9.887
36525W        W 8785  24.688  16.126   0.603
36526W        W 8786  32.546  31.066   4.797
36527W        W 8787  32.565   5.136   4.501
36528W        W 8788   0.268  41.066   4.902
36529W        W 8789  42.837  27.484   4.749
36530W        W 8790  24.223  33.033  11.781
36531W        W 8791  28.873   0.520   1.772
36532W        W 8792  35.636  15.971   2.480
36533W        W 8793  18.624  31.375  12.666
36534W        W 8794  24.026  44.519  11.435
36535W        W 8795  39.294  14.656  14.010
36536W        W 8796  38.521  15.395  14.032
36537W        W 8797  36.832  26.215  14.939
36538W        W 8798   3.359  43.575   1.311
36539W        W 8799   8.086  15.340  13.834
36540W        W 8800   9.946  30.047   0.804
36541W        W 8801  29.906  15.258  12.023
36542W        W 8802  22.304  38.883  11.509
36543W        W 8803  30.392  13.978   0.374
36544W        W 8804  10.784  12.102   2.771
36545W        W 8805  16.223  19.555   2.227
36546W        W 8806  38.405  19.307  11.010
36547W        W 8807   3.528  43.527  12.052
36548W        W 8808   6.362  39.267   2.275
36549W        W 8809   1.215  16.401   1.394
36550W        W 8810  23.314  40.539   0.828
36551W        W 8811  20.282   0.178  12.551
36552W        W 8812  44.534   0.180   1.841
36553W        W 8813  19.130  43.870   1.735
36554W        W 8814   5.349   5.412   0.741
36555W        W 8815  41.181  24.621   4.538
36556W        W 8816  38.849  26.451  14.577
36557W        W 8817  39.599  34.577   3.637
36558W        W 8818  34.860  37.357  11.544
36559W        W 8819  27.503   0.956   1.801
36560W        W 8820   9.322   5.916  14.108
36561W        W 8821  20.609   4.381  12.019
36562W        W 8822  24.168   8.345   3.604
36563W        W 8823  43.719  21.429   2.418
36564W        W 8824  28.516  12.695   1.089
36565W        W 8825   3.568  10.416  14.199
36566W        W 8826   4.742   8.407  12.205
36567W        W 8827  29.396  28.870  12.288
36568W        W 8828  34.031  38.087  13.417
36569W        W 8829   8.133  34.533   0.238
36570W        W 8830  13.251   3.756  12.625
36571W        W 8831  40.780  25.026   0.459
36572W        W 8832  27.104  32.060  11.554
36573W        W 8833  28.196  38.265   4.934
36574W        W 8834   8.348  39.313   2.807
36575W        W 8835  16.662   1.763  13.833
36576W        W 8836  21.576  28.399  11.664
36577W        W 8837  33.678   6.183   3.226
36578W        W 8838  10.723  43.594  14.375
36579W        W 8839  22.571   8.895   0.910
36580W        W 8840   5.448   0.860   1.317
36581W        W 8841  42.450  14.124   0.441
36582W        W 8842  38.031  11.116  14.873
36583W        W 8843  11.113  10.339  13.748
36584W        W 8844   2.406  41.827   2.238
36585W        W 8845  10.660  31.865   1.807
36586W        W 8846  21.211  33.067  13.075
36587W        W 8847  39.576  38.275   3.491
36588W        W 8848  41.478  11.917   1.848
36589W        W 8849  27.688  12.176   4.858
36590W        W 8850  30.154  34.364   4.740
36591W        W 8851   4.171  44.739   0.481
36592W        W 8852  13.994   6.825  14.532
36593W        W 8853  11.419  32.914  11.055
36594W        W 8854  43.522  24.996   4.639
36595W        W 8855  39.091  43.057  10.804
36596W        W 8856  22.169  25.179  13.642
36597W        W 8857  14.699  29.707  10.353
36598W        W 8858  11.197   6.401  12.331
36599W        W 8859  37.063  36.389  14.178
36600W        W 8860  18.145  43.372  11.434
36601W        W 8861   4.257  14.798   1.097
36602W        W 8862  35.329  16.197  10.547
36603W        W 8863   1.892  44.326   4.463
36604W        W 8864  43.078  17.782   2.751
36605W        W 8865  16.531   4.248  14.926
36606W        W 8866  35.354   9.798   4.051
36607W        W 8867  27.007  27.521   3.110
36608W        W 8868  28.564   6.808  12.900
36609W        W 8869  36.137  30.189  12.233
36610W        W 8870  16.358   6.386   2.326
36611W        W 8871  18.059  24.138  14.821
36612W        W 8872  10.719  32.356  11.642
36613W        W 8873  19.252   7.678  12.459
36614W        W 8874  14.241   8.332  10.576
36615W        W 8875  37.419  12.396  12.121
36616W        W 8876  29.597  12.578   4.580
36617W        W 8877  19.707   9.984   3.217
36618W        W 8878  20.652  44.755   0.684
36619W        W 8879  18.755   0.402   0.753
36620W        W 8880  43.973  11.265  11.896
36621W        W 8881  26.983  31.948   0.403
36622W        W 8882  17.465  41.849   0.778
36623W        W 8883   9.647   5.420  11.955
36624W        W 8884  34.537  17.607  12.180
36625W        W 8885  29.684  44.989  13.996
36626W        W 8886  37.272   9.427  13.548
36627W        W 8887  10.359  12.414   3.905
36628W        W 8888  14.201  17.726  14.520
36629W        W 8889  29.933   2.016   1.608
36630W        W 8890   8.824  16.746   3.239
36631W        W 8891  14.435  30.125   0.452
36632W        W 8892  39.937  13.774   0.485
36633W        W 8893  12.402  35.087   3.184
36634W        W 8894  23.875  27.495  11.955
36635W        W 8895  30.535  33.983   2.840
36636W        W 8896  21.536  26.976   1.983
36637W        W 8897  32.599  10.361   1.018
36638W        W 8898  22.057  37.498  14.430
36639W        W 8899  14.264  41.866   4.247
36640W        W 8900   8.425  42.453  11.096
36641W        W 8901  21.182  25.669   4.946
36642W        W 8902   4.016  36.496  10.561
36643W        W 8903  11.853  24.073  14.107
36644W        W 8904  21.429  27.431  11.970
36645W        W 8905  14.398   9.881  14.360
36646W        W 8906  22.303  33.252   4.048
36647W        W 8907  16.387  40.918   4.522
36648W        W 8908  14.918  29.522  13.378
36649W        W 8909  27.546  30.032   0.538
36650W        W 8910  12.161   6.506  10.762
36651W        W 8911   6.444  12.368   4.107
36652W        W 8912  32.555   7.878   2.547
36653W        W 8913  32.621   8.390  13.509
36654W        W 8914  18.754  18.185   1.270
36655W        W 8915  19.619  43.483   3.400
36656W        W 8916  34.580  11.623   4.399
36657W        W 8917  22.939  35.475   4.785
36658W        W 8918   9.815  35.216  11.691
36659W        W 8919  30.489  40.009   2.325
36660W        W 8920  39.017  30.110   4.499
36661W        W 8921  21.570   7.852   0.921
36662W        W 8922   8.375  17.573  11.859
36663W        W 8923  23.471  38.846  12.845
36664W        W 8924  29.125  13.261   3.326
36665W        W 8925  12.316  19.225   4.922
36666W        W 8926  21.214  44.874   0.513
36667W        W 8927  39.291  43.330  14.830
36668W        W 8928  42.950   5.192  14.422
36669W        W 8929  21.431  19.599  14.961
36670W        W 8930  26.007  21.636   3.183
36671W        W 8931  32.520  13.698  13.754
36672W        W 8932  38.937  35.358   2.442
36673W        W 8933  26.987  27.998  11.261
36674W        W 8934  20.971  39.000   4.976
36675W        W 8935  20.630  27.571   4.914
36676W        W 8936  34.471  11.411   3.552
36677W        W 8937   5.578  41.962   3.614
36678W        W 8938  33.530  29.075   1.735
36679W        W 8939  21.378  17.356  12.579
36680W        W 8940  31.592  32.139  10.624
36681W        W 8941  25.760   7.400  10.573
36682W        W 8942   4.730  32.218  13.981
36683W        W 8943  11.752  31.051  12.025
36684W        W 8944  37.705  26.414  11.190
36685W        W 8945  16.057  33.050   2.399
36686W        W 8946   2.547   3.516   2.289
36687W        W 8947  37.528  22.812  12.919
36688W        W 8948  15.791   0.956  11.563
36689W        W 8949   7.804  35.386  12.017
36690W        W 8950  21.315  30.547   4.469
36691W        W 8951   4.063  34.169  13.595
36692W        W 8952  16.299  40.496   0.797
36693W        W 8953   7.785   2.909   0.742
36694W        W 8954   5.258   1.844   1.791
36695W        W 8955   9.637  40.091   2.238
36696W        W 8956  33.422   4.853   3.290
36697W        W 8957  36.300   6.384   4.634
36698W        W 8958  36.801  30.637   0.899
36699W        W 8959   7.711   3.959   0.882
36700W        W 8960  19.329  14.116   2.883
36701W        W 8961  30.491  33.362  14.923
36702W        W 8962  36.925  13.980  10.909
36703W        W 8963  12.168  23.048   1.175
36704W        W 8964  32.346  41.477  14.377
36705W        W 8965   7.898  31.490   1.386
36706W        W 8966  38.441  41.524  14.551
36707W        W 8967  19.465  32.846   2.378
36708W        W 8968  19.028  23.796  13.022
36709W        W 8969  13.388   4.249   1.167
36710W        W 8970  19.145  30.963   1.184
36711W        W 8971  27.474   7.001   4.013
36712W        W 8972   0.521  30.624  11.149
36713W        W 8973  34.362  16.507   2.305
36714W        W 8974  27.716  33.605  11.487
36715W        W 8975  24.686  36.011   2.405
36716W        W 8976  27.376  25.538  14.719
36717W        W 8977   9.831   9.055   0.218
36718W        W 8978  25.898  26.954  11.564
36719W        W 8979  11.308   5.339  12.170
36720W        W 8980  12.328  31.523   3.363
36721W        W 8981  23.565  29.870   4.604
36722W        W 8982  17.139  31.377   4.911
36723W        W 8983  42.456  38.007   1.152
36724W        W 8984   7.177  44.327  11.208
36725W        W 8985  21.111   1.519   3.727
36726W        W 8986  43.935  26.151   2.424
36727W        W 8987  37.479  33.582   4.511
36728W        W 8988  12.644  18.873  11.119
36729W        W 8989  23.690   2.267  14.974
36730W        W 8990   8.746  22.915   2.380
36731W        W 8991  22.517  31.496  12.996
36732W        W 8992  43.896  26.232   3.327
36733W        W 8993   3.336  28.436   4.074
36734W        W 8994  17.208   0.745  14.517
36735W        W 8995  43.548  25.513   1.107
36736W        W 8996  16.448  29.818  13.374
36737W        W 8997  42.811  33.161   2.735
36738W        W 8998   6.661  39.989  13.100
36739W        W 8999  11.704  40.003   1.546
36740W        W 9000  43.188  38.841   2.254
36741W        W 9001  23.122  14.990   1.501
36742W        W 9002  19.790  34.983   3.207
36743W        W 9003  11.785   4.904   2.215
36744W        W 9004  10.151  30.069   2.125
36745W        W 9005  24.604  11.420  13.011
36746W        W 9006  34.981  19.150  13.357
36747W        W 9007  43.930   1.334   0.799
36748W        W 9008  27.263   2.528  11.148
36749W        W 9009   1.969  44.804   0.589
36750W        W 9010  14.315  19.136   3.769
36751W        W 9011   4.901   7.897   1.683
36752W        W 9012  41.614  27.639  13.137
36753W        W 9013  44.888  23.313   1.753
36754W        W 9014   8.680   4.002   4.388
36755W        W 9015  33.149  42.969   5.017
36756W        W 9016  20.755  32.513   2.417
36757W        W 9017  15.212  20.941  13.056
36758W        W 9018  42.364   5.052  13.952
36759W        W 9019  26.466  31.950   3.857
36760W        W 9020  18.312   6.132  10.275
36761W        W 9021  33.541  24.480   4.496
36762W        W 9022  24.987  40.780   1.375
36763W        W 9023  42.552  32.756  13.340
36764W        W 9024  22.168  10.838  10.702
36765W        W 9025  25.153  37.093   1.992
36766W        W 9026  35.882  41.878   4.258
36767W        W 9027  38.982  43.833  14.020
36768W        W 9028  44.582  44.972   0.518
36769W        W 9029  36.362   3.894  11.845
36770W        W 9030  44.282  18.741   4.477
36771W        W 9031  28.162   8.240   3.649
36772W        W 9032  26.012  12.026   2.787
36773W        W 9033  25.672  12.202   4.943
36774W        W 9034  40.813  15.264  14.629
36775W        W 9035  24.944  10.039   1.889
36776W        W 9036   5.779   5.695  14.077
36777W        W 9037  27.170   6.817  12.727
36778W        W 9038  18.714   4.004  12.941
36779W        W 9039  18.509  14.303   2.213
36780W        W 9040  12.829  16.508   3.055
36781W        W 9041  39.597  38.529   4.466
36782W        W 9042   4.882  25.608  10.412
36783W        W 9043  10.732  26.522  11.515
36784W        W 9044  22.190  32.628  14.929
36785W        W 9045   1.400  27.890  12.394
36786W        W 9046   9.749  44.338   1.485
36787W        W 9047  24.598  11.817  11.278
36788W        W 9048   3.212  39.955  14.469
36789W        W 9049  13.624  29.051  10.727
36790W        W 9050  32.012  44.892  13.640
36791W        W 9051  14.139  42.833  12.657
36792W        W 9052  22.397  37.288  14.813
36793W        W 9053   1.627   4.075   3.618
36794W        W 9054  15.773  15.443  10.939
36795W        W 9055   7.904   2.399  12.982
36796W        W 9056  40.372   5.100   2.888
36797W        W 9057  29.709  22.470  14.354
36798W        W 9058  10.330   6.094  11.799
36799W        W 9059  19.669   8.554  11.643
36800W        W 9060  12.869  14.416  12.405
36801W        W 9061  15.204  16.362  12.141
36802W        W 9062  22.926   6.269  14.361
36803W        W 9063  42.703  13.310  14.936
36804W        W 9064  22.903   9.771  14.822
36805W        W 9065  38.941  36.004   3.337
36806W        W 9066  43.936  34.873  14.499
36807W        W 9067  32.009   0.966   4.176
36808W        W 9068   5.255  16.165  11.616
36809W        W 9069  19.744  14.273  12.631
36810W        W 9070  32.054   0.455  11.105
36811W        W 9071  14.019  43.696   2.341
36812W        W 9072  13.729  17.659   3.199
36813W        W 9073   1.264  12.541  11.287
36814W        W 9074  16.609   3.852  13.927
36815W        W 9075  16.184  29.548  11.153
36816W        W 9076  39.010  11.589   5.139
36817W        W 9077   7.700  11.088   3.220
36818W        W 9078   7.242  19.112   0.870
36819W        W 9079  39.384   2.954   1.222
36820W        W 9080  39.048  15.666   0.963
36821W        W 9081  43.918  28.152   2.071
36822W        W 9082  15.759  27.757   4.043
36823W        W 9083  36.576  11.725  13.828
36824W        W 9084   7.961  38.395   3.631
36825W        W 9085   0.809  35.623   3.388
36826W        W 9086   2.847  29.603   3.059
36827W        W 9087  29.884  14.359   2.638
36828W        W 9088   7.830  22.730  14.858
36829W        W 9089  31.142   1.799   0.886
36830W        W 9090  16.146   2.496   1.983
36831W        W 9091   4.311   6.330  10.659
36832W        W 9092  26.069  40.935  10.642
36833W        W 9093   5.405  42.228  14.458
36834W        W 9094   3.260  12.099  12.354
36835W        W 9095  44.884  15.797  11.207
36836W        W 9096   1.505   2.915  14.852
36837W        W 9097  19.670  14.598   4.948
36838W        W 9098   4.740  12.231  14.000
36839W        W 9099  11.825  31.679   5.253
36840W        W 9100  10.787  13.642  11.063
36841W        W 9101  10.741  20.167   1.964
36842W        W 9102   9.229  20.958   2.883
36843W        W 9103  27.450  30.993  10.286
36844W        W 9104   8.652  44.438  14.898
36845W        W 9105  13.720  20.695   1.479
36846W        W 9106  17.282  20.719  13.964
36847W        W 9107   3.516  41.865  11.182
36848W        W 9108  30.927   1.394   3.545
36849W        W 9109  11.421  18.342   3.418
36850W        W 9110  33.441  10.376   2.122
36851W        W 9111  30.897  15.836   4.120
36852W        W 9112   7.643  30.467   3.567
36853W        W 9113   1.574  29.405  13.908
36854W        W 9114   9.466  38.864  10.081
36855W        W 9115  32.057  10.451  11.167
36856W        W 9116  18.216  36.042   2.737
36857W        W 9117  26.360  17.581  10.693
36858W        W 9118   4.305  16.554   2.409
36859W        W 9119  42.241  36.001   1.215
36860W        W 9120  40.226   4.692   2.591
36861W        W 9121  24.014  43.959  14.468
36862W        W 9122  18.180  17.568  13.530
36863W        W 9123  36.869  44.542   3.164
36864W        W 9124  43.408  17.284  11.346
36865W        W 9125  33.557  41.972   3.571
36866W        W 9126  30.811   8.404  13.347
36867W        W 9127  28.115  27.443  10.718
36868W        W 9128  25.407  16.121   0.205
36869W        W 9129  27.528  11.702   2.537
36870W        W 9130  44.542  30.949  14.001
36871W        W 9131  20.941   6.419  14.466
36872W        W 9132  22.728  41.803  11.757
36873W        W 9133  26.400   8.697  10.665
36874W        W 9134  19.568  15.721  12.480
36875W        W 9135  34.383  30.854  14.485
36876W        W 9136  43.449  22.062   0.253
36877W        W 9137  19.120  15.114  11.154
36878W        W 9138  21.350   0.146  10.771
36879W        W 9139  17.846   3.705  13.001
36880W        W 9140  22.981   0.901   1.410
36881W        W 9141  24.959   6.367  14.407
36882W        W 9142  34.051  32.979  11.950
36883W        W 9143  12.223  37.682  13.930
36884W        W 9144  24.186  18.588   3.270
36885W        W 9145  33.391  32.407  13.079
36886W        W 9146  40.393  36.930   3.220
36887W        W 9147  18.871  36.473  13.915
36888W        W 9148  20.361  41.825   1.929
36889W        W 9149  15.073  21.501  10.578
36890W        W 9150  37.927  16.240   4.062
36891W        W 9151   8.869  35.083  14.055
36892W        W 9152  33.682  11.807   4.129
36893W        W 9153  25.588  19.635   3.580
36894W        W 9154   5.136  18.846  10.736
36895W        W 9155  23.544  27.072   0.906
36896W        W 9156  23.222  17.063   2.268
36897W        W 9157  20.171  15.534  14.993
36898W        W 9158  33.912  31.138   0.905
36899W        W 9159  16.780  32.017  14.856
36900W        W 9160  22.602  12.143   0.935
36901W        W 9161  34.300  39.937  11.559
36902W        W 9162  41.751  41.301   2.304
36903W        W 9163  14.848   4.135  10.531
36904W        W 9164  33.967  14.399  14.436
36905W        W 9165  19.767  44.840   1.215
36906W        W 9166  33.658  20.012   3.345
36907W        W 9167  28.428   4.400  10.430
36908W        W 9168  27.620  27.976  11.915
36909W        W 9169  31.336  21.814  14.897
36910W        W 9170  25.558   5.745  12.469
36911W        W 9171  15.815  42.536  11.926
36912W        W 9172  44.201  36.699  12.881
36913W        W 9173   2.875  44.616  10.098
36914W        W 9174  13.383   9.853  13.584
36915W        W 9175  39.571  34.708   0.561
36916W        W 9176  32.189  27.588   0.688
36917W        W 9177  32.516   1.037   0.848
36918W        W 9178  10.875  11.609  12.077
36919W        W 9179   3.381   8.174   2.472
36920W        W 9180   9.925  18.295   3.262
36921W        W 9181  18.242   6.954  13.594
36922W        W 9182  19.518  23.528  12.161
36923W        W 9183  18.247  23.277  14.342
36924W        W 9184  11.664  24.807   4.851
36925W        W 9185  37.900  32.956   2.851
36926W        W 9186  29.583  23.092  10.497
36927W        W 9187  43.587  30.854   1.288
36928W        W 9188  26.890  23.629   0.336
36929W        W 9189  29.001  25.687   3.643
36930W        W 9190   0.277  31.007  11.580
36931W        W 9191   1.391  37.266  14.446
36932W        W 9192  11.183   3.301  12.571
36933W        W 9193  29.540  22.918   4.148
36934W        W 9194   3.220   5.837   3.841
36935W        W 9195  14.700  44.035  12.610
36936W        W 9196  24.948  38.099   2.190
36937W        W 9197  41.390   9.918  13.398
36938W        W 9198  14.375  14.661   4.270
36939W        W 9199  37.947  27.364   1.213
36940W        W 9200  36.471  19.045  13.946
36941W        W 9201  18.981  34.957  10.367
36942W        W 9202  16.620  14.690   9.806
36943W        W 9203   3.503   1.264  12.916
36944W        W 9204   6.178  32.500   4.841
36945W        W 9205  29.467   8.743   1.237
36946W        W 9206  39.959  42.025  11.641
36947W        W 9207  38.613  22.731   2.345
36948W        W 9208  33.793   0.374   0.845
36949W        W 9209  25.013  16.334  14.826
36950W        W 9210  38.385  15.934  12.531
36951W        W 9211  44.248  14.277   2.803
36952W        W 9212  23.331  22.075  11.055
36953W        W 9213  34.123  43.452   0.414
36954W        W 9214  18.314   3.381   1.268
36955W        W 9215   3.970  42.461  13.059
36956W        W 9216  38.624  43.244  13.789
36957W        W 9217   6.936  37.324   2.135
36958W        W 9218   3.788  14.257   0.288
36959W        W 9219  26.955   4.372  13.562
36960W        W 9220   0.046  44.712  11.557
36961W        W 9221   3.003  29.153  10.658
36962W        W 9222  43.425  29.850   1.480
36963W        W 9223  19.321  31.914   1.974
36964W        W 9224   6.368  42.778   3.279
36965W        W 9225   0.922  16.778  13.303
36966W        W 9226  17.000  17.272   3.154
36967W        W 9227  15.926  23.157   4.065
36968W        W 9228  44.741  31.992  14.545
36969W        W 9229  41.264  33.606   2.064
36970W        W 9230  25.288  33.049  13.495
36971W        W 9231  41.859  19.569  14.913
36972W        W 9232  26.956  27.614  10.436
36973W        W 9233  23.759  41.972  14.425
36974W        W 9234  24.632  31.442   1.962
36975W        W 9235  13.616  20.846   1.995
36976W        W 9236  13.779  43.569  12.366
36977W        W 9237  41.714   1.350   2.403
36978W        W 9238  28.523   8.627   2.371
36979W        W 9239  36.986   4.197   3.908
36980W        W 9240  10.656  28.190   1.704
36981W        W 9241  13.660  24.662   2.447
36982W        W 9242  34.529  18.396  10.150
36983W        W 9243  15.831  13.548   0.854
36984W        W 9244  36.055  32.113  12.954
36985W        W 9245   8.170  14.977  12.585
36986W        W 9246  29.411  44.998  11.700
36987W        W 9247  32.474  34.391   4.076
36988W        W 9248  30.519  33.358  13.081
36989W        W 9249  18.731  31.365  12.155
36990W        W 9250  28.149   9.937   1.507
36991W        W 9251  44.909  24.959   4.193
36992W        W 9252   8.354  30.648   2.621
36993W        W 9253   2.298  31.401   1.784
36994W        W 9254  35.082  43.478  12.082
36995W        W 9255  27.539  36.084  11.188
36996W        W 9256  23.173  13.480   4.741
36997W        W 9257  39.515  27.147  12.058
36998W        W 9258  30.668  30.978   0.257
36999W        W 9259  42.354  40.969  11.536
37000W        W 9260  35.465  27.458   1.498
37001W        W 9261  43.888  44.532   3.689
37002W        W 9262  28.498  35.463  13.819
37003W        W 9263   4.222   6.845   3.640
37004W        W 9264   8.916  19.627   3.112
37005W        W 9265   6.659  18.586   1.972
37006W        W 9266   0.421   7.653   2.869
37007W        W 9267  21.035  11.803   4.927
37008W        W 9268  13.326  14.802   2.861
37009W        W 9269  37.448  32.443  13.616
37010W        W 9270  44.798   5.321  11.435
37011W        W 9271  19.442  36.931  14.427
37012W        W 9272  14.148  44.866   1.850
37013W        W 9273  15.648   5.939  13.107
37014W        W 9274  33.633  15.773  13.157
37015W        W 9275  31.986  20.996   1.877
37016W        W 9276  28.947  35.325   3.273
37017W        W 9277  13.897  36.100  13.590
37018W        W 9278  41.436  23.320  14.176
37019W        W 9279  27.135  22.461   3.334
37020W        W 9280   4.823  27.580  12.102
37021W        W 9281  23.026  10.449   0.431
37022W        W 9282  40.406  26.028  11.118
37023W        W 9283  40.687  40.808   2.051
37024W        W 9284  42.133   0.200  10.443
37025W        W 9285   1.320  13.057  13.912
37026W        W 9286  22.004  39.754  14.292
37027W        W 9287  30.374  37.718   2.272
37028W        W 9288  14.207   6.831  12.983
37029W        W 9289  13.824  20.687   0.961
37030W        W 9290  25.512  23.011  14.550
37031W        W 9291   6.725  17.360  11.735
37032W        W 9292   9.042   9.543   0.323
37033W        W 9293  10.705  20.989  11.886
37034W        W 9294  17.772  33.166  14.344
37035W        W 9295  32.512  34.437  11.657
37036W        W 9296   7.481   3.004  13.436
37037W        W 9297  28.497  13.516  13.467
37038W        W 9298   6.578   0.286   3.446
37039W        W 9299  12.342  25.563  14.021
37040W        W 9300  42.246  33.152   1.832
37041W        W 9301  25.072  11.409   4.661
37042W        W 9302  13.047  37.958  13.753
37043W        W 9303  40.437  20.758   1.761
37044W        W 9304   8.580  38.481  11.280
37045W        W 9305  37.815  20.858  11.991
37046W        W 9306  34.975  13.610   1.356
37047W        W 9307   7.401  26.888   2.677
37048W        W 9308  39.316  35.567  14.565
37049W        W 9309  38.213  23.627   2.075
37050W        W 9310   6.259  27.083   1.637
37051W        W 9311  19.177  13.521  13.871
37052W        W 9312  15.235   9.561   4.759
37053W        W 9313   0.494   4.440   2.254
37054W        W 9314  40.869   2.235   2.734
37055W        W 9315  22.089   4.388  10.957
37056W        W 9316  19.735  28.035   0.485
37057W        W 9317   9.260  43.490  10.887
37058W        W 9318  24.955  20.321   4.643
37059W        W 9319   0.285  31.506  13.065
37060W        W 9320  36.875  15.049   0.280
37061W        W 9321  12.514  20.457   4.100
37062W        W 9322   2.602  14.724  11.625
37063W        W 9323  13.262  30.800   1.912
37064W        W 9324  39.842  18.909   2.876
37065W        W 9325   5.769  21.089   1.753
37066W        W 9326   2.011  37.529  12.982
37067W        W 9327  42.903  19.653  12.875
37068W        W 9328  17.686  37.330  13.268
37069W        W 9329   4.999  36.337   1.434
37070W        W 9330  36.448  23.612   0.929
37071W        W 9331   2.211  44.233  14.237
37072W        W 9332  23.629  38.597  11.526
37073W        W 9333  32.000  17.104   0.547
37074W        W 9334  39.447  16.083  13.876
37075W        W 9335  14.238  22.828  10.731
37076W        W 9336  11.403  11.403  12.457
37077W        W 9337  10.443   8.662  11.020
37078W        W 9338  22.286  20.375  11.129
37079W        W 9339  30.230  44.866   4.855
37080W        W 9340  29.607  36.852   4.422
37081W        W 9341  14.691   6.394  11.832
37082W        W 9342   6.782  16.718   2.255
37083W        W 9343  22.818  17.715  14.427
37084W        W 9344   1.956  20.266   3.819
37085W        W 9345  42.779  38.541   2.094
37086W        W 9346  25.022   9.246  14.449
37087W        W 9347  15.661  41.450   2.158
37088W        W 9348  42.510  42.537  12.117
37089W        W 9349  24.560  38.401   2.358
37090W        W 9350  21.129  18.480   1.395
37091W        W 9351  25.807  13.442  10.933
37092W        W 9352  11.918  34.189  14.376
37093W        W 9353   4.637  32.183   4.176
37094W        W 9354  15.587   2.855  11.302
37095W        W 9355  34.691  21.821   2.311
37096W        W 9356  36.565  39.827  12.415
37097W        W 9357  18.042  17.376   3.060
37098W        W 9358  19.549  29.563  11.602
37099W        W 9359   1.285   4.094   2.806
37100W        W 9360  29.203   5.348   0.259
37101W        W 9361  12.309  29.203   3.172
37102W        W 9362  37.433  33.070   0.357
37103W        W 9363  28.899   1.295   2.619
37104W        W 9364  14.575  42.767  12.926
37105W        W 9365  34.406  41.774   0.724
37106W        W 9366  21.950  44.697  14.835
37107W        W 9367   4.315  31.060   2.337
37108W        W 9368  12.548  16.653  13.126
37109W        W 9369  18.566  12.033  13.235
37110W        W 9370  44.295  29.840  13.366
37111W        W 9371  42.039   7.751   0.421
37112W        W 9372  15.299  44.240  13.825
37113W        W 9373  28.184   7.380   1.923
37114W        W 9374  20.534  21.003   1.864
37115W        W 9375  44.295  38.301  13.364
37116W        W 9376   8.699  18.005  13.450
37117W        W 9377  31.311  35.878   2.628
37118W        W 9378  17.207  15.701  13.420
37119W        W 9379   8.617  12.115  12.897
37120W        W 9380  26.558  16.020   2.461
37121W        W 9381  20.166  13.256   1.424
37122W        W 9382  20.990   0.550   1.656
37123W        W 9383  28.526  41.069   2.468
37124W        W 9384  44.349  21.267   3.159
37125W        W 9385  16.267  32.647   0.338
37126W        W 9386  30.866  33.622   1.741
37127W        W 9387  14.949   8.728  14.328
37128W        W 9388  31.198  23.117   1.834
37129W        W 9389  41.802  19.109  11.541
37130W        W 9390  23.235  18.066  13.236
37131W        W 9391  31.201  27.032  11.121
37132W        W 9392  30.602  31.952   4.084
37133W        W 9393   3.434   7.175  11.134
37134W        W 9394  34.545  27.262   1.669
37135W        W 9395  14.809  30.466  13.333
37136W        W 9396   2.149  26.358  12.040
37137W        W 9397  35.254  37.618  12.415
37138W        W 9398  23.738  26.101   2.873
37139W        W 9399  34.080  28.361  12.041
37140W        W 9400   2.933   3.853   0.535
37141W        W 9401  20.943   7.938   3.144
37142W        W 9402  22.620  20.618  14.450
37143W        W 9403  42.852  37.370   4.661
37144W        W 9404  38.056  15.227   3.735
37145W        W 9405  17.572  31.469   4.186
37146W        W 9406  41.357   2.329  11.182
37147W        W 9407  22.712  25.609   4.531
37148W        W 9408  37.214   9.158  10.224
37149W        W 9409  44.094  44.251  10.028
37150W        W 9410  16.022  35.612  14.934
37151W        W 9411   1.889  23.401  11.425
37152W        W 9412   8.165  44.294  12.800
37153W        W 9413  10.865  10.556   3.745
37154W        W 9414  44.338  20.249   2.095
37155W        W 9415  32.514  24.257  12.616
37156W        W 9416  36.035  13.365   3.759
37157W        W 9417  43.441  38.561   4.874
37158W        W 9418   9.958  13.931   3.157
37159W        W 9419  13.717   3.371  13.864
37160W        W 9420  16.654   0.411   2.587
37161W        W 9421  33.215  29.715   1.886
37162W        W 9422  31.993  29.948   0.480
37163W        W 9423  17.631  43.413   0.559
37164W        W 9424  12.975  35.052   4.848
37165W        W 9425  36.267   7.748   5.143
37166W        W 9426   5.436   4.230  11.518
37167W        W 9427  11.716  30.919   2.273
37168W        W 9428  16.544   2.492  14.414
37169W        W 9429  23.467  40.399  14.052
37170W        W 9430  31.425  41.853  11.706
37171W        W 9431  21.020  35.209  12.005
37172W        W 9432  35.343  12.130   1.853
37173W        W 9433  20.592  20.614   0.039
37174W        W 9434  14.568  42.936   1.280
37175W        W 9435  43.990   6.286   2.915
37176W        W 9436  29.035  19.211  12.020
37177W        W 9437  18.260  31.532   0.858
37178W        W 9438  38.635   9.886   4.976
37179W        W 9439  25.866   8.741   0.892
37180W        W 9440  33.817  23.004  11.859
37181W        W 9441  43.961  42.510   1.874
37182W        W 9442  23.647   8.654  12.745
37183W        W 9443  37.060  16.716  12.763
37184W        W 9444  27.757  24.600   3.176
37185W        W 9445  22.188  44.426  12.114
37186W        W 9446  29.734  40.238   1.915
37187W        W 9447  22.501  16.838  14.306
37188W        W 9448  18.750  18.721  10.439
37189W        W 9449  29.386  43.352   0.874
37190W        W 9450  40.594  23.085   3.219
37191W        W 9451  26.020   3.694  14.365
37192W        W 9452   3.173  19.584   1.336
37193W        W 9453  35.428  15.730  13.129
37194W        W 9454   1.830   9.697  11.172
37195W        W 9455  22.989  35.817   4.076
37196W        W 9456  37.614  34.850   4.673
37197W        W 9457  32.367  10.870  11.205
37198W        W 9458  15.060  39.334  11.526
37199W        W 9459  44.307  24.093   1.427
37200W        W 9460  18.000  16.571  13.358
37201W        W 9461  10.369  20.629  12.122
37202W        W 9462  21.748  42.908   3.072
37203W        W 9463  36.337  33.010   4.573
37204W        W 9464  20.933  10.854  13.767
37205W        W 9465   2.826  30.617   1.280
37206W        W 9466  22.723  27.259  10.986
37207W        W 9467   1.268  33.947  13.145
37208W        W 9468  42.162   7.217  13.100
37209W        W 9469  16.690   1.974   1.310
37210W        W 9470   0.361  32.053  13.055
37211W        W 9471  41.926   0.897  11.572
37212W        W 9472  14.107   8.592  14.479
37213W        W 9473  18.538   6.392   1.215
37214W        W 9474  18.356  11.197   1.824
37215W        W 9475   2.614  37.127   2.161
37216W        W 9476  26.146  37.356   2.597
37217W        W 9477  26.688   7.953  12.668
37218W        W 9478  30.666  43.114  12.079
37219W        W 9479   6.450  34.477  10.063
37220W        W 9480  38.005  12.339  13.272
37221W        W 9481  26.068  14.828   4.589
37222W        W 9482  20.076   2.710   4.671
37223W        W 9483  35.124  32.652  12.271
37224W        W 9484  18.474   9.106  12.983
37225W        W 9485  10.328  23.588   1.829
37226W        W 9486   5.004  14.015  14.376
37227W        W 9487   9.089  23.500   0.758
37228W        W 9488   1.445  18.089  11.226
37229W        W 9489  25.968  25.237  14.034
37230W        W 9490   3.245  30.169  14.333
37231W        W 9491  35.085  43.403   2.216
37232W        W 9492  33.236  32.405  10.988
37233W        W 9493   0.386  19.588   0.663
37234W        W 9494  36.164   0.823   0.885
37235W        W 9495   1.288   0.499  10.567
37236W        W 9496  23.218  19.823   2.738
37237W        W 9497   0.354  40.489   4.699
37238W        W 9498  15.030  30.923  13.296
37239W        W 9499  44.790  18.699  10.790
37240W        W 9500  39.600  34.814   4.090
37241W        W 9501  44.273  44.263  12.449
37242W        W 9502   8.859  38.819   3.924
37243W        W 9503  14.251  12.700   3.186
37244W        W 9504  14.269  37.008  10.351
37245W        W 9505  34.102  44.740   1.789
37246W        W 9506  16.609  15.687  14.295
37247W        W 9507  11.310  25.261   3.155
37248W        W 9508  37.446   9.890  11.906
37249W        W 9509  33.448   3.396   4.811
37250W        W 9510  13.636  42.636   2.806
37251W        W 9511  12.691  27.201   0.375
37252W        W 9512  20.013   8.533   4.368
37253W        W 9513  29.376  33.529   5.015
37254W        W 9514  17.370  36.941   1.374
37255W        W 9515   5.184  13.349   4.532
37256W        W 9516  26.494  43.086  11.504
37257W        W 9517  21.600  37.343  12.670
37258W        W 9518  32.492  30.744  14.250
37259W        W 9519  19.187  38.619  14.657
37260W        W 9520  30.956  33.058   2.601
37261W        W 9521  16.755   6.542  12.461
37262W        W 9522   5.813  13.024   4.967
37263W        W 9523  16.801  13.347  12.143
37264W        W 9524  18.745   4.847  10.808
37265W        W 9525  32.495   2.782  13.420
37266W        W 9526  33.159  19.161  13.877
37267W        W 9527  14.080  13.364   0.981
37268W        W 9528  18.871   6.003  13.036
37269W        W 9529  36.071  43.814   4.549
37270W        W 9530  36.074   6.479   1.723
37271W        W 9531  26.066  20.233   0.357
37272W        W 9532  12.509  37.828  12.339
37273W        W 9533  17.322  26.368   0.387
37274W        W 9534  25.994  25.630  10.677
37275W        W 9535  31.859  34.120  12.580
37276W        W 9536  31.282  26.933  12.122
37277W        W 9537  22.100  36.603   1.354
37278W        W 9538  18.490  18.589   3.163
37279W        W 9539  11.829  16.782   3.136
37280W        W 9540  40.050  19.699  13.469
37281W        W 9541  10.387   6.490   2.233
37282W        W 9542  44.019  30.069  14.467
37283W        W 9543  18.545  39.552   2.573
37284W        W 9544  30.957   2.705   1.390
37285W        W 9545   1.563  11.285   0.387
37286W        W 9546  16.236  41.578  11.016
37287W        W 9547  29.542   7.262  10.774
37288W        W 9548  41.018  38.778  13.309
37289W        W 9549  21.186  43.978  14.985
37290W        W 9550  25.777  11.767  10.694
37291W        W 9551  14.170  37.005  14.843
37292W        W 9552  41.314  28.987   1.333
37293W        W 9553  16.819  41.954   2.221
37294W        W 9554  36.945  31.638  12.020
37295W        W 9555  15.658  44.473   0.374
37296W        W 9556  40.269  34.947  11.041
37297W        W 9557  22.415  25.511  10.533
37298W        W 9558  41.968  17.715  12.888
37299W        W 9559  39.265  11.229  10.576
37300W        W 9560   0.850   4.990   2.873
37301W        W 9561  17.126  13.235   1.049
37302W        W 9562  14.444  42.113   3.707
37303W        W 9563  26.062  20.097   4.887
37304W        W 9564  21.120  15.329  12.037
37305W        W 9565  25.253   2.860   1.450
37306W        W 9566  27.611  27.708  11.410
37307W        W 9567   7.314  26.897  10.067
37308W        W 9568  13.338  26.173  11.558
37309W        W 9569  12.208  33.863  11.417
37310W        W 9570  29.982  11.416   4.233
37311W        W 9571  21.585   9.879  11.034
37312W        W 9572  10.583  41.960  10.377
37313W        W 9573  29.357  20.557   2.116
37314W        W 9574  20.643  10.695  12.779
37315W        W 9575   9.355   1.823   3.764
37316W        W 9576  25.572  19.035  14.321
37317W        W 9577  20.767  42.385   4.494
37318W        W 9578  14.840  40.888   4.607
37319W        W 9579   0.843  15.167   0.752
37320W        W 9580  26.753  43.399  14.391
37321W        W 9581  12.052  31.129   4.036
37322W        W 9582  22.310  18.224  13.554
37323W        W 9583  44.861  39.798   0.273
37324W        W 9584  18.637  31.182   2.749
37325W        W 9585  18.019  34.042   1.903
37326W        W 9586   4.214  21.244   0.759
37327W        W 9587  37.816  40.402  12.673
37328W        W 9588   4.374  20.546  14.360
37329W        W 9589  20.351   5.151  13.355
37330W        W 9590   8.376  17.576   3.678
37331W        W 9591  29.657  44.563  11.815
37332W        W 9592  21.131  39.138  11.110
37333W        W 9593  20.489  42.579   2.531
37334W        W 9594  26.811  33.796   3.499
37335W        W 9595  26.839   4.231  14.577
37336W        W 9596  31.600   2.396   3.297
37337W        W 9597  32.595   0.667   4.032
37338W        W 9598  36.892  38.453   0.490
37339W        W 9599   5.874   2.346  14.692
37340W        W 9600  13.042   8.563  13.747
37341W        W 9601   1.910   7.846  14.510
37342W        W 9602  17.603   2.921   2.876
37343W        W 9603   8.817  42.143   2.643
37344W        W 9604  16.853  33.199   2.261
37345W        W 9605  39.395  35.601   3.694
37346W        W 9606  38.476  23.468  11.505
37347W        W 9607  23.213  37.147  12.086
37348W        W 9608  14.353   7.468   1.310
37349W        W 9609  32.161  30.661  11.189
37350W        W 9610  43.065  27.379   2.706
37351W        W 9611   1.320  18.357  11.715
37352W        W 9612  21.587  43.151   2.201
37353W        W 9613  40.490  35.073  13.868
37354W        W 9614   7.785  40.391  14.611
37355W        W 9615  42.835  10.716  10.687
37356W        W 9616   5.823   4.135   0.333
37357W        W 9617  15.154   9.927  11.521
37358W        W 9618   1.854  19.709   2.993
37359W        W 9619   3.034   6.810   1.231
37360W        W 9620  35.446  13.134   2.147
37361W        W 9621  22.865  20.163   4.712
37362W        W 9622  31.993   0.035   3.770
37363W        W 9623   5.330  28.820   2.891
37364W        W 9624  13.785  32.431   3.252
37365W        W 9625  26.298  27.458  12.711
37366W        W 9626  32.178  13.219   1.281
37367W        W 9627   7.124   4.502  13.781
37368W        W 9628   8.368  36.357  14.432
37369W        W 9629  43.308  34.431   0.484
37370W        W 9630  43.087  15.192  12.379
37371W        W 9631  35.581  11.862  10.592
37372W        W 9632  10.708   2.185  14.061
37373W        W 9633  43.235  18.465   0.211
37374W        W 9634  33.825   0.789   0.017
37375W        W 9635  21.148   4.687   0.987
37376W        W 9636  27.175  42.533  11.934
37377W        W 9637  41.350  43.376   2.661
37378W        W 9638  19.068  24.912   2.647
37379W        W 9639  10.949  40.076  14.480
37380W        W 9640  21.775   1.868   0.693
37381W        W 9641  38.531  34.682  10.662
37382W        W 9642  17.100  29.954   0.415
37383W        W 9643  38.110  25.302   2.337
37384W        W 9644  11.589  15.413   2.184
37385W        W 9645   2.473  13.171  13.846
37386W        W 9646  19.485  12.090   2.318
37387W        W 9647  19.863  35.148   4.247
37388W        W 9648  41.835   1.358   4.724
37389W        W 9649   0.464   3.924   2.230
37390W        W 9650   0.621   8.628   2.531
37391W        W 9651  22.694   2.950   4.540
37392W        W 9652  12.024  34.650   2.732
37393W        W 9653  41.081  37.782   0.395
37394W        W 9654  17.666  38.771   4.587
37395W        W 9655  40.870   4.492   0.388
37396W        W 9656   6.968   8.195  12.243
37397W        W 9657   0.253  28.941  14.798
37398W        W 9658  20.590  26.555   1.769
37399W        W 9659   6.408   5.283  11.484
37400W        W 9660  31.843  30.658   4.265
37401W        W 9661  11.187  23.969  14.315
37402W        W 9662  13.713  43.303   0.213
37403W        W 9663  21.070  34.880   2.267
37404W        W 9664  36.266   0.799  13.788
37405W        W 9665   5.099   1.231  13.984
37406W        W 9666  14.337   0.739   3.782
37407W        W 9667  29.126   4.277  14.766
37408W        W 9668  29.313  28.120   0.537
37409W        W 9669  39.311  32.929   2.042
37410W        W 9670   7.149  13.343  13.289
37411W        W 9671  15.748  42.355  14.236
37412W        W 9672  42.253  44.104   3.338
37413W        W 9673  39.806  38.995  14.786
37414W        W 9674   8.847  35.978   3.377
37415W        W 9675  25.036  40.256  11.551
37416W        W 9676  16.722  40.529   1.738
37417W        W 9677  16.994   4.847   0.314
37418W        W 9678  10.704  25.227  11.998
37419W        W 9679  29.253  18.537   1.781
37420W        W 9680  44.233   1.339  13.907
37421W        W 9681  26.030  16.323  10.823
37422W        W 9682  19.119  44.270  13.455
37423W        W 9683  43.920   5.346   0.452
37424W        W 9684  19.971  26.364   5.099
37425W        W 9685  31.683  35.289  14.342
37426W        W 9686   6.850   0.969  13.606
37427W        W 9687  12.077   8.214  10.314
37428W        W 9688  30.994  37.150   2.298
37429W        W 9689  26.448  44.283   0.972
37430W        W 9690   7.934  21.310   1.624
37431W        W 9691  17.583  31.777  13.913
37432W        W 9692  17.011  13.111   2.061
37433W        W 9693  15.207  22.604   4.000
37434W        W 9694  40.371  14.079   0.540
37435W        W 9695  36.507  18.357  11.951
37436W        W 9696   4.382  33.969   1.863
37437W        W 9697  16.732  10.189   3.644
37438W        W 9698   1.048  22.500   2.781
37439W        W 9699  28.725  44.333   0.429
37440W        W 9700  36.941  15.879   0.891
37441W        W 9701  32.470  27.110   4.752
37442W        W 9702  14.728  20.947   0.329
37443W        W 9703  24.005  33.445   1.140
37444W        W 9704  38.561  18.107   1.445
37445W        W 9705   4.822  14.616   0.003
37446W        W 9706   6.392  25.980  10.675
37447W        W 9707   3.912  30.385   2.350
37448W        W 9708  18.904  12.535  13.823
37449W        W 9709  11.751   5.044  11.584
37450W        W 9710   3.697   4.451  13.133
37451W        W 9711  33.511  10.785  10.910
37452W        W 9712   1.812  23.982  12.501
37453W        W 9713  24.327  40.633   1.979
37454W        W 9714  30.712   4.237   0.158
37455W        W 9715  39.989  20.562   0.330
37456W        W 9716   4.655  31.932   2.346
37457W        W 9717  42.181  25.637   2.194
37458W        W 9718  12.276  40.437  13.036
37459W        W 9719  42.966  13.634   3.364
37460W        W 9720  16.564  38.810   2.783
37461W        W 9721  30.015   0.188   3.647
37462W        W 9722   0.003  31.191  13.983
37463W        W 9723  37.870   7.452   4.493
37464W        W 9724  20.439   9.795   3.680
37465W        W 9725  36.884  23.156   0.414
37466W        W 9726  22.769  35.044  12.566
37467W        W 9727  14.584   9.045  12.644
37468W        W 9728   8.080  19.010   2.237
37469W        W 9729   5.445  20.336   1.237
37470W        W 9730  31.192  11.381  14.947
37471W        W 9731  19.960  14.590   0.032
37472W        W 9732  21.108  25.597  11.362
37473W        W 9733  25.494  33.396   4.657
37474W        W 9734  16.807  27.049  14.763
37475W        W 9735  41.262   0.913   4.522
37476W        W 9736  21.794  21.580   4.446
37477W        W 9737  30.696  41.717   4.934
37478W        W 9738   9.723   8.996  11.543
37479W        W 9739  22.787  32.284  13.486
37480W        W 9740  39.798  11.178   1.490
37481W        W 9741   6.282  43.401  13.804
37482W        W 9742  28.520  29.506  14.902
37483W        W 9743  20.487  11.810  14.230
37484W        W 9744  16.604  36.156   1.964
37485W        W 9745  17.479   6.401  13.163
37486W        W 9746  10.820   0.930  13.807
37487W        W 9747  39.755   1.277   0.349
37488W        W 9748  38.923  44.770   3.723
37489W        W 9749  42.565  17.897  13.888
37490W        W 9750  10.326  41.010  11.632
37491W        W 9751   2.221  17.069   4.531
37492W        W 9752  20.102  31.773   3.179
37493W        W 9753   4.261  28.656   0.833
37494W        W 9754  39.858  30.861   1.393
37495W        W 9755  17.638   1.773  10.697
37496W        W 9756  34.631  12.759   3.689
37497W        W 9757  44.844  30.401  11.978
37498W        W 9758  35.637  16.769   1.887
37499W        W 9759  26.487  12.908  13.420
37500W        W 9760  12.783  26.961   3.133
37501W        W 9761  10.519   8.196   3.772
37502W        W 9762  10.741  40.983  13.451
37503W        W 9763   6.739   0.931   1.844
37504W        W 9764  27.888  13.557   0.298
37505W        W 9765  17.563  43.406  13.291
37506W        W 9766  31.780  22.265   1.368
37507W        W 9767  22.089   9.195   3.886
37508W        W 9768   5.791  11.848  13.349
37509W        W 9769  20.076  44.311  14.506
37510W        W 9770   3.296  19.776   2.727
37511W        W 9771  28.710  23.055   3.168
37512W        W 9772  31.377   0.257   2.309
37513W        W 9773  21.835  27.994  11.554
37514W        W 9774  21.319   8.402   3.183
37515W        W 9775   8.175  14.704  10.743
37516W        W 9776  22.839  40.904   1.838
37517W        W 9777  24.308  35.127   3.672
37518W        W 9778  35.420   4.768   2.415
37519W        W 9779  24.360  39.070  11.614
37520W        W 9780  16.268  44.500   0.860
37521W        W 9781  42.468  26.483   4.655
37522W        W 9782  40.360   9.421   2.378
37523W        W 9783  41.434   9.799  11.484
37524W        W 9784  36.690  42.459  12.525
37525W        W 9785  10.952  34.394  13.335
37526W        W 9786  20.859  11.636   4.053
37527W        W 9787  27.585  28.929  11.948
37528W        W 9788   6.724  29.068  13.354
37529W        W 9789  26.644  17.072  14.553
37530W        W 9790  24.940  36.546  12.375
37531W        W 9791  25.445  23.110  11.981
37532W        W 9792  30.109   7.785  13.559
37533W        W 9793   3.916  34.063   2.159
37534W        W 9794  15.289   4.319  11.161
37535W        W 9795  40.989  14.800  14.851
37536W        W 9796  11.172  40.983  14.822
37537W        W 9797  42.208  42.828  14.308
37538W        W 9798  32.134  12.639  12.032
37539W        W 9799   0.179  21.744   4.762
37540W        W 9800  30.540  28.350  14.934
37541W        W 9801  13.995  12.227  14.476
37542W        W 9802  25.469  32.317  12.198
37543W        W 9803   8.954  23.582   3.598
37544W        W 9804  17.013  20.184   3.668
37545W        W 9805  37.468  33.757   2.206
37546W        W 9806  29.086  36.605   4.311
37547W        W 9807  43.338  32.903   3.812
37548W        W 9808  29.887  13.008   4.037
37549W        W 9809  40.044  27.175  12.102
37550W        W 9810  27.285  26.434   4.678
37551W        W 9811  10.972  16.425   3.503
37552W        W 9812   0.471  42.178   0.853
37553W        W 9813   5.843   8.863   2.145
37554W        W 9814  25.695  37.182  13.073
37555W        W 9815  35.270   2.227  14.362
37556W        W 9816   4.909   7.477  13.066
37557W        W 9817   8.749  28.900  11.161
37558W        W 9818  29.119  19.224   2.840
37559W        W 9819  35.988   5.951  14.541
37560W        W 9820  23.132  30.070   0.083
37561W        W 9821   7.142  38.477   4.745
37562W        W 9822  35.381  18.193   9.760
37563W        W 9823  25.424  42.350  12.079
37564W        W 9824  42.266  32.155   2.050
37565W        W 9825  26.630   0.293   1.934
37566W        W 9826  42.379  16.598   4.409
37567W        W 9827  36.266  33.889   2.234
37568W        W 9828  23.710  42.250   3.457
37569W        W 9829  35.015   7.279  11.488
37570W        W 9830  12.601  44.903   3.615
37571W        W 9831   2.788  13.399  11.220
37572W        W 9832  44.344  28.547   1.294
37573W        W 9833  17.716  17.745  11.241
37574W        W 9834  43.262  42.443   2.703
37575W        W 9835  23.207   1.632   1.763
37576W        W 9836  17.499  16.546  13.493
37577W        W 9837  35.403  30.545   0.334
37578W        W 9838  44.730  35.453  10.947
37579W        W 9839  15.877  20.279  14.818
37580W        W 9840   2.972  34.875  11.130
37581W        W 9841  36.047  13.111   4.693
37582W        W 9842  40.358  28.815   4.243
37583W        W 9843  39.002  33.911   3.279
37584W        W 9844  31.522  15.359  14.779
37585W        W 9845  11.481  34.464  13.408
37586W        W 9846   7.374  29.492   3.654
37587W        W 9847  19.114  20.778   0.835
37588W        W 9848  35.939  19.123  13.728
37589W        W 9849   9.357  10.647   4.114
37590W        W 9850  44.336  22.058   5.012
37591W        W 9851  18.182  12.558  13.126
37592W        W 9852   0.269   4.755   0.933
37593W        W 9853  25.638  30.051   0.331
37594W        W 9854  26.523   2.473   3.115
37595W        W 9855   1.438  33.152   2.158
37596W        W 9856  10.910  43.719  10.414
37597W        W 9857  28.997  26.736   3.242
37598W        W 9858  38.926  22.552   4.074
37599W        W 9859   6.772   4.068   0.978
37600W        W 9860  37.225  35.961   1.985
37601W        W 9861  41.068  23.030  11.168
37602W        W 9862  43.933   9.845  10.544
37603W        W 9863  14.383  44.236  14.317
37604W        W 9864  39.825   0.827   3.308
37605W        W 9865  35.156  18.655  11.171
37606W        W 9866  27.269  21.547  11.499
37607W        W 9867  20.723  14.533   0.266
37608W        W 9868   4.213  33.816  10.730
37609W        W 9869   2.191  40.477   4.610
37610W        W 9870  41.444  28.344   3.161
37611W        W 9871  10.318  38.523   0.792
37612W        W 9872  35.729   1.303   2.642
37613W        W 9873  26.592  44.861   4.733
37614W        W 9874  20.407  29.396  12.071
37615W        W 9875  21.204  22.489  10.009
37616W        W 9876  34.648  16.711  11.496
37617W        W 9877  24.022  34.451  12.025
37618W        W 9878  42.228  31.681  14.919
37619W        W 9879  26.114  41.318  14.390
37620W        W 9880  13.322  10.050   9.947
37621W        W 9881  13.096  18.222  14.286
37622W        W 9882  12.604   0.041   2.604
37623W        W 9883  21.387  20.749   0.442
37624W        W 9884  27.924  23.202  11.960
37625W        W 9885  27.030  18.588  13.991
37626W        W 9886   6.373   3.697  12.173
37627W        W 9887   1.844  18.245  12.101
37628W        W 9888  31.576  35.301  13.494
37629W        W 9889  23.121  22.172  14.391
37630W        W 9890  42.379  36.412  11.113
37631W        W 9891  27.189   9.662   0.143
37632W        W 9892   9.859  13.754  13.630
37633W        W 9893  37.100  32.455   4.536
37634W        W 9894  14.909  30.010   0.657
37635W        W 9895   2.113   0.880  13.905
37636W        W 9896   1.836   1.006  12.508
37637W        W 9897   2.802  44.642   4.865
37638W        W 9898  33.916   6.165  12.886
37639W        W 9899  26.566   5.904  11.194
37640W        W 9900  21.397  19.206  12.483
37641W        W 9901   2.208  12.789   2.325
37642W        W 9902   0.147  42.202  11.165
37643W        W 9903  39.619  13.263  11.113
37644W        W 9904  16.995  30.823  10.640
37645W        W 9905   6.433  25.157   4.666
37646W        W 9906  21.012  32.343  14.046
37647W        W 9907  31.591  37.063  10.780
37648W        W 9908  20.903  34.395   2.137
37649W        W 9909  22.804  17.648   0.305
37650W        W 9910  18.705   5.562   9.802
37651W        W 9911  32.064  30.744   2.848
37652W        W 9912  38.471   4.691   1.726
37653W        W 9913  30.522  36.487  14.797
37654W        W 9914  12.349  34.905  14.415
37655W        W 9915  17.217  38.273   2.235
37656W        W 9916  33.967   8.867  14.895
37657W        W 9917  24.543  26.572  14.939
37658W        W 9918  11.211  42.933   4.026
37659W        W 9919  10.558   4.321  11.251
37660W        W 9920   0.152  14.084  12.811
37661W        W 9921   2.707  31.696   4.752
37662W        W 9922  36.681  27.164   0.747
37663W        W 9923  44.825  24.528   2.330
37664W        W 9924   8.663  37.241  13.653
37665W        W 9925  44.040  43.318  14.089
37666W        W 9926  12.961  24.501  11.664
37667W        W 9927   6.366  19.251   0.852
37668W        W 9928  32.173  12.259   4.834
37669W        W 9929  41.779  24.294   2.261
37670W        W 9930   7.416  42.853  11.128
37671W        W 9931  27.026  41.647   3.276
37672W        W 9932  26.458   7.212   1.239
37673W        W 9933   8.383  30.894   4.385
37674W        W 9934   5.638  25.021   5.014
37675W        W 9935  29.487  40.583  12.338
37676W        W 9936   5.009  40.804  12.727
37677W        W 9937  19.069  30.132  12.888
37678W        W 9938   4.640  37.460  11.012
37679W        W 9939  12.252  32.031   0.675
37680W        W 9940  33.557   5.331  12.903
37681W        W 9941   2.294  20.155   2.151
37682W        W 9942   0.520  12.692  12.047
37683W        W 9943  22.491  16.324  13.346
37684W        W 9944   2.265  39.144   2.494
37685W        W 9945  22.249   7.844   2.174
37686W        W 9946  34.068  26.210   1.308
37687W        W 9947  25.724  28.192  14.572
37688W        W 9948  23.818  36.355  14.496
37689W        W 9949   2.779  42.415   4.293
37690W        W 9950  25.645  41.917   0.442
37691W        W 9951   1.704  10.736  12.001
37692W        W 9952   6.884  29.949  11.516
37693W        W 9953  11.813  15.778   0.640
37694W        W 9954  29.157  12.333   4.707
37695W        W 9955   2.837   8.241  12.410
37696W        W 9956  21.886  14.719   4.095
37697W        W 9957   2.797  40.043  11.995
37698W        W 9958  31.681  14.604   0.230
37699W        W 9959   1.567   5.164  12.962
37700W        W 9960  20.601  32.065   2.132
37701W        W 9961  11.123  37.265  14.532
37702W        W 9962  23.226  15.023   4.163
37703W        W 9963  34.022  12.761   1.009
37704W        W 9964  10.102   7.836  14.891
37705W        W 9965  40.169   5.676   3.651
37706W        W 9966  43.892  23.559  11.843
37707W        W 9967  15.806  24.033   4.227
37708W        W 9968  27.460  37.393   4.558
37709W        W 9969  44.617   8.736  14.458
37710W        W 9970  31.155  10.234   4.524
37711W        W 9971  32.014  32.449   1.439
37712W        W 9972   2.737  27.117  11.165
37713W        W 9973  14.337  35.591   4.549
37714W        W 9974  43.470   1.634  11.968
37715W        W 9975  37.022   7.948   4.037
37716W        W 9976  32.205  32.961  13.519
37717W        W 9977  14.157  17.444  14.981
37718W        W 9978  23.051  30.727   0.421
37719W        W 9979  36.567   3.505   3.608
37720W        W 9980  10.924   0.733   2.732
37721W        W 9981  35.498  21.701   2.984
37722W        W 9982  17.758  13.794   1.815
37723W        W 9983  39.588  41.720  10.872
37724W        W 9984  39.413  15.810  12.606
37725W        W 9985  12.345  34.684  11.497
37726W        W 9986  19.709  14.830  12.031
37727W        W 9987   4.843  30.109   1.684
37728W        W 9988  28.563   3.752   1.790
37729W        W 9989  33.986  42.539  12.971
37730W        W 9990   2.726  13.843  14.354
37731W        W 9991  27.460  39.323  13.859
37732W        W 9992  33.180  40.886  11.658
37733W        W 9993  13.120  10.309  10.641
37734W        W 9994  16.182  41.537  14.835
37735W        W 9995  28.455  33.756  10.741
37736W        W 9996  19.283  31.407   0.823
37737W        W 9997  35.532  41.512  11.188
37738W        W 9998  29.803  17.216  12.484
37739W        W 9999   2.817  12.344  12.343
37740W        W10000   7.403  38.031   1.803
37741W        W10001  34.091  17.667   2.785
37742W        W10002  23.765   4.454  10.670
37743W        W10003  43.603  10.327   4.318
37744W        W10004   1.911  34.835  12.353
37745W        W10005   0.866  25.252   2.248
37746W        W10006  42.338  11.567  13.125
37747W        W10007  28.194  36.080   1.962
37748W        W10008  14.079  16.315   2.555
37749W        W10009  16.724  27.141  13.269
37750W        W10010   9.856   2.342  11.682
37751W        W10011  44.718   4.789  10.836
37752W        W10012  29.613  27.977  14.707
37753W        W10013   7.655  25.250   5.286
37754W        W10014   2.259  35.147  11.093
37755W        W10015  40.945   7.601   1.338
37756W        W10016  14.529  22.531  14.447
37757W        W10017  13.605  14.948   5.582
37758W        W10018  38.923   5.656  13.110
37759W        W10019   3.041  42.413   3.851
37760W        W10020  32.523  35.827  14.479
37761W        W10021  22.481  22.122   1.965
37762W        W10022  31.913  22.542   3.126
37763W        W10023  31.652  11.368  11.914
37764W        W10024   1.342   1.239  13.772
37765W        W10025   4.468  20.182   2.142
37766W        W10026   7.358  14.345   1.194
37767W        W10027   7.505  11.070   3.702
37768W        W10028  31.113  34.884   1.397
37769W        W10029  24.959  33.121   1.253
37770W        W10030  32.472  43.525   2.660
37771W        W10031  37.280  39.089   3.370
37772W        W10032  42.252  39.820   3.663
37773W        W10033  42.981  24.746   0.047
37774W        W10034   1.535   6.470  14.062
37775W        W10035   4.810  26.195  13.465
37776W        W10036   1.431  26.166  10.618
37777W        W10037  10.358  23.606  13.092
37778W        W10038   8.829  18.544   2.341
37779W        W10039   6.113   8.910   3.319
37780W        W10040   4.416  26.520   3.100
37781W        W10041  33.781   5.313   1.251
37782W        W10042  15.795  19.489   0.804
37783W        W10043  41.854  36.052  10.359
37784W        W10044  17.666  36.904   3.717
37785W        W10045  29.967  24.589   3.366
37786W        W10046  41.570  26.675   1.777
37787W        W10047   9.709  38.975   1.389
37788W        W10048   5.380  32.084   0.375
37789W        W10049  36.314  33.867  13.806
37790W        W10050  31.623  29.424  14.213
37791W        W10051  29.426  35.001   1.404
37792W        W10052  15.656  34.045  11.451
37793W        W10053  28.285  21.432  11.303
37794W        W10054  25.207  30.522   0.778
37795W        W10055   3.902   9.684  12.980
37796W        W10056   3.178  21.650   3.572
37797W        W10057  25.209  28.918   4.713
37798W        W10058  19.073  30.640  12.877
37799W        W10059  41.390  24.199  13.851
37800W        W10060  36.608  15.056  13.897
37801W        W10061  31.554  24.972   0.901
37802W        W10062  36.040  22.147  11.000
37803W        W10063  10.237  30.446   2.465
37804W        W10064   2.237  41.981   3.629
37805W        W10065   7.815  10.824   2.793
37806W        W10066  41.844  12.310   2.046
37807W        W10067  30.263  33.586   2.668
37808W        W10068  31.966   9.244  10.434
37809W        W10069  39.484  16.075  11.653
37810W        W10070  11.942   4.457  12.196
37811W        W10071  37.780  40.008   0.420
37812W        W10072  19.054  16.886   4.628
37813W        W10073  18.238  39.534   3.788
37814W        W10074  17.676  15.986   1.322
37815W        W10075  28.700  33.092   3.207
37816W        W10076   9.419  29.566   2.950
37817W        W10077  11.272  14.072   1.053
37818W        W10078  39.600  13.493  13.438
37819W        W10079  27.113  33.805  14.525
37820W        W10080  22.316   9.258  13.534
37821W        W10081  19.863  25.958  14.442
37822W        W10082  34.943  30.493  13.161
37823W        W10083  11.321  40.758  12.967
37824W        W10084   4.838  42.964   4.184
37825W        W10085  26.785   5.793  10.728
37826W        W10086  42.851  28.939   4.719
37827W        W10087  36.184  27.917  13.491
37828W        W10088  44.776   2.502  13.551
37829W        W10089  18.819  13.736   4.167
37830W        W10090  27.678  27.543   0.724
37831W        W10091   2.889  12.727   4.062
37832W        W10092  25.777   5.390   0.614
37833W        W10093   5.302  19.954  13.050
37834W        W10094  12.207   3.026  11.975
37835W        W10095  40.368  32.538  13.919
37836W        W10096   3.363   7.262   4.480
37837W        W10097   0.792  17.710  10.310
37838W        W10098  19.712  24.875   1.514
37839W        W10099  28.407  31.234   0.570
37840W        W10100  19.297   7.856   5.416
37841W        W10101  25.931  30.582   2.241
37842W        W10102  19.704  37.815  13.699
37843W        W10103   5.703  28.204   9.867
37844W        W10104   4.013  12.870   4.068
37845W        W10105  20.188   5.982  14.964
37846W        W10106   3.770  41.718   2.216
37847W        W10107  36.588  21.164  13.790
37848W        W10108  18.669  16.617   2.376
37849W        W10109   1.525   3.374   1.281
37850W        W10110  34.593  14.172  11.068
37851W        W10111  35.223  18.185   0.556
37852W        W10112  24.133  24.390   1.496
37853W        W10113  23.729  31.348   2.299
37854W        W10114  35.419  19.763   4.123
37855W        W10115  18.039  13.876   3.760
37856W        W10116   5.689  25.546  14.499
37857W        W10117  32.874  15.934  14.762
37858W        W10118  33.793  32.141   4.592
37859W        W10119  20.239  35.026  12.439
37860W        W10120  30.203  44.943  13.921
37861W        W10121  20.109  18.525  14.378
37862W        W10122   9.411  19.262   3.847
37863W        W10123   9.749  31.466  14.675
37864W        W10124   0.004  34.869   0.907
37865W        W10125  43.380  13.801  12.278
37866W        W10126   9.131  24.436  14.538
37867W        W10127  44.214  33.402   3.774
37868W        W10128   8.384   8.276   1.778
37869W        W10129  31.838  21.557  14.479
37870W        W10130  15.820  28.536   0.854
37871W        W10131   5.451   5.109   1.755
37872W        W10132   2.416  44.790  14.898
37873W        W10133  44.949   9.198  13.295
37874W        W10134  15.475  31.945   1.491
37875W        W10135  18.547   7.229  11.124
37876W        W10136   8.675  16.360   0.417
37877W        W10137  19.538  35.092   0.332
37878W        W10138   6.201   7.989   2.923
37879W        W10139  35.472   0.453   1.329
37880W        W10140   8.908   1.431  14.980
37881W        W10141   3.831  36.310  11.977
37882W        W10142  17.644  34.336   4.145
37883W        W10143  20.091  37.602   5.008
37884W        W10144  23.098   6.176   1.376
37885W        W10145  37.164  39.150  12.393
37886W        W10146  41.044  36.963  13.364
37887W        W10147  41.879  35.604  10.691
37888W        W10148   7.833  26.250   2.319
37889W        W10149  29.927  22.488   4.038
37890W        W10150  36.535  18.258   1.241
37891W        W10151  19.652   2.023   0.768
37892W        W10152  21.709  43.232   4.510
37893W        W10153  19.861  41.410   4.522
37894W        W10154  33.956  36.045   4.107
37895W        W10155   1.725   6.183  12.366
37896W        W10156  27.907  26.086  11.385
37897W        W10157   1.367  44.271   0.270
37898W        W10158  23.759   3.733  13.877
37899W        W10159  24.011  26.767   5.405
37900W        W10160   5.901  16.520  12.177
37901W        W10161  17.606  14.289   1.877
37902W        W10162  35.439  20.140  12.440
37903W        W10163  40.735   3.252   2.802
37904W        W10164  16.300  16.562   3.337
37905W        W10165  44.902  25.408   0.515
37906W        W10166  30.626  35.495   4.470
37907W        W10167  17.499  26.704  12.990
37908W        W10168  11.735   3.779   3.632
37909W        W10169  27.326  35.294  13.385
37910W        W10170  36.874  16.492  10.993
37911W        W10171  25.601   4.357  11.622
37912W        W10172  30.729  41.098  12.549
37913W        W10173  22.017   9.883  13.845
37914W        W10174   8.720  17.303  10.595
37915W        W10175   3.692  21.205  10.881
37916W        W10176  22.272   9.639   4.134
37917W        W10177  13.773  44.707   0.871
37918W        W10178  35.208  43.113  13.642
37919W        W10179   5.801  44.075   3.701
37920W        W10180  40.150  44.009   1.864
37921W        W10181  12.688   3.399  14.885
37922W        W10182   8.783  30.577  10.448
37923W        W10183  19.342   0.738  13.833
37924W        W10184  35.834  43.947   2.271
37925W        W10185  38.514   2.180   4.782
37926W        W10186  13.304  17.864  11.528
37927W        W10187  26.216  23.720   3.219
37928W        W10188  42.284  40.319   3.658
37929W        W10189   8.820  28.311  11.996
37930W        W10190  28.678  13.166  11.827
37931W        W10191  15.369   2.242   0.685
37932W        W10192   3.937  10.395  11.134
37933W        W10193   2.265  37.460   1.640
37934W        W10194  30.695  42.820  12.519
37935W        W10195  24.261  14.266  10.623
37936W        W10196   6.797   2.165   1.385
37937W        W10197  18.614  31.882   0.742
37938W        W10198   5.253  39.795   0.454
37939W        W10199  35.739  40.730  11.951
37940W        W10200  21.958  25.184   5.034
37941W        W10201  24.592  13.805   0.030
37942W        W10202  13.306  32.838  11.964
37943W        W10203  30.315  17.409  12.491
37944W        W10204  24.526  15.221  12.867
37945W        W10205  19.384  27.664   0.764
37946W        W10206  37.423  43.898   0.910
37947W        W10207  25.346  14.401   1.490
37948W        W10208  23.540  17.715   3.367
37949W        W10209  32.418  38.159  11.581
37950W        W10210  10.204   8.676  13.303
37951W        W10211  17.617   0.236   3.251
37952W        W10212   8.994  11.424  14.818
37953W        W10213  13.601   1.986   0.299
37954W        W10214   3.732   7.664  10.882
37955W        W10215  29.241  35.392   0.422
37956W        W10216   1.460  21.619   3.687
37957W        W10217  28.139  13.156   4.570
37958W        W10218  31.804  29.325   4.019
37959W        W10219  26.164  41.670   2.363
37960W        W10220  14.644   5.137   1.760
37961W        W10221  32.806  39.102  11.453
37962W        W10222  10.700  27.666   1.651
37963W        W10223  43.922  12.535  12.166
37964W        W10224  41.998  40.275   2.341
37965W        W10225  42.083  21.825  12.477
37966W        W10226  16.305  15.038   0.859
37967W        W10227  31.050  32.702   0.416
37968W        W10228  32.945   3.220   4.719
37969W        W10229   1.346  44.286  13.358
37970W        W10230  23.290  29.239   0.745
37971W        W10231  27.862  32.109   2.875
37972W        W10232  23.287  25.788  11.720
37973W        W10233  22.429   5.351   1.859
37974W        W10234  24.126   4.050   3.432
37975W        W10235  24.922  14.199  13.877
37976W        W10236  28.929  22.881  12.850
37977W        W10237  19.045  20.872   1.345
37978W        W10238  25.453  36.178   2.731
37979W        W10239  24.544   7.613  14.073
37980W        W10240  39.964  30.654  12.521
37981W        W10241  38.811  37.011   1.179
37982W        W10242  37.652  42.563   0.144
37983W        W10243  12.755   6.373   2.241
37984W        W10244  22.504   7.278   0.224
37985W        W10245  37.670   2.940  11.280
37986W        W10246  32.677  40.891   4.162
37987W        W10247   4.980  23.275   4.145
37988W        W10248   1.884   8.175  14.962
37989W        W10249  26.963  37.606   3.192
37990W        W10250   9.283   2.987  11.447
37991W        W10251  27.120  10.417   3.282
37992W        W10252  24.524  43.438  14.914
37993W        W10253   6.080  21.963   0.768
37994W        W10254  10.775   2.768  14.317
37995W        W10255  19.690  35.670   2.671
37996W        W10256  24.908  14.771   2.293
37997W        W10257   1.517  43.232  14.695
37998W        W10258  32.718  37.433  13.541
37999W        W10259  26.102  28.918  14.839
38000W        W10260  42.166  32.381  11.028
38001W        W10261  20.665  22.135  14.821
38002W        W10262  30.710  21.002   2.220
38003W        W10263  28.638  24.646   2.039
38004W        W10264  19.893  19.983   2.237
38005W        W10265   0.814  20.016   4.105
38006W        W10266  11.256  24.567   3.623
38007W        W10267  44.614  43.422   0.063
38008W        W10268  44.032  11.418  11.398
38009W        W10269   2.937  28.221  10.658
38010W        W10270  15.794  42.976   4.727
38011W        W10271  30.054  31.395  13.786
38012W        W10272  17.207  40.399   1.886
38013W        W10273  36.456  34.806   1.040
38014W        W10274  31.666  19.201   4.848
38015W        W10275  36.988  22.201   2.149
38016W        W10276  32.608  10.070   1.686
38017W        W10277   4.915   7.915   0.303
38018W        W10278  26.577  43.964   0.428
38019W        W10279  11.304  22.644  11.935
38020W        W10280  22.101  13.406   3.883
38021W        W10281  29.341  36.356  11.892
38022W        W10282  22.194   8.183  12.101
38023W        W10283  40.478  13.703  13.034
38024W        W10284   9.202  38.625  10.528
38025W        W10285  43.031  20.155   3.674
38026W        W10286   2.925  27.406   0.711
38027W        W10287   1.928  16.377  10.383
38028W        W10288  44.490  42.880   0.732
38029W        W10289  10.086  21.566  14.031
38030W        W10290   4.867  40.476  13.946
38031W        W10291  17.259   5.601   5.703
38032W        W10292  28.937  41.575  11.638
38033W        W10293   5.800  22.923   4.485
38034W        W10294   6.786   4.246  13.465
38035W        W10295  13.669  39.409  10.688
38036W        W10296   8.701  34.592   4.309
38037W        W10297  26.409   6.599  13.334
38038W        W10298  12.599   5.272   2.216
38039W        W10299  22.149  24.410   5.009
38040W        W10300  27.449  17.121   2.663
38041W        W10301  10.096   4.206   4.218
38042W        W10302   6.378  20.573   1.216
38043W        W10303  17.998  12.832  12.130
38044W        W10304  33.446  25.848  11.421
38045W        W10305  12.808  36.022  12.597
38046W        W10306  25.727  19.739  10.659
38047W        W10307  35.840  25.713  12.374
38048W        W10308  42.804  39.269   4.699
38049W        W10309  12.765  36.330   4.125
38050W        W10310  10.342  11.055  13.379
38051W        W10311   8.344  23.457  14.180
38052W        W10312   1.251  40.767  13.975
38053W        W10313  30.161  16.187   1.713
38054W        W10314   8.229  24.260   4.588
38055W        W10315  44.246  26.429  12.417
38056W        W10316  15.595  26.563  12.122
38057W        W10317  22.061  17.444   3.909
38058W        W10318   8.880  23.280   0.350
38059W        W10319  10.401  25.583   3.613
38060W        W10320  20.850  27.439  10.280
38061W        W10321  17.613   8.133  12.070
38062W        W10322  33.633  21.545   0.518
38063W        W10323  41.565  32.924  11.809
38064W        W10324  12.195  11.809   2.230
38065W        W10325  27.701   8.626  12.961
38066W        W10326   0.924  11.412   4.987
38067W        W10327   5.945  40.800  14.188
38068W        W10328  28.990  37.971   3.615
38069W        W10329   6.841   0.787   4.883
38070W        W10330  33.560   1.155  12.966
38071W        W10331  14.806  22.737  14.833
38072W        W10332  11.572  33.529  13.504
38073W        W10333   4.600   7.827   2.661
38074W        W10334  23.579  36.225  12.514
38075W        W10335  21.120  31.502  12.379
38076W        W10336  14.727  32.429  14.208
38077W        W10337  41.350  37.367  11.546
38078W        W10338  29.636  44.944   0.130
38079W        W10339  40.338  16.171   3.170
38080W        W10340   9.622  28.942  12.005
38081W        W10341  42.456   5.725  12.545
38082W        W10342  13.035  23.104  13.472
38083W        W10343  17.043  44.261  12.527
38084W        W10344   2.875  24.187  13.555
38085W        W10345  23.390  39.777   2.623
38086W        W10346   1.418   2.857   3.228
38087W        W10347  30.552  29.623   9.843
38088W        W10348  17.968   3.487   3.554
38089W        W10349  15.889   6.139  13.705
38090W        W10350  42.704  10.347   4.183
38091W        W10351  41.931   0.171  14.377
38092W        W10352   6.333   1.996   2.755
38093W        W10353  42.581  16.084   2.314
38094W        W10354  14.496   0.838   3.258
38095W        W10355  30.090  37.350  11.636
38096W        W10356   5.318  22.013   3.135
38097W        W10357  19.304  43.046  13.897
38098W        W10358  38.159  37.009  13.691
38099W        W10359   2.215  24.512   2.262
38100W        W10360  44.227  22.260   2.233
38101W        W10361  11.107   4.807   4.721
38102W        W10362  31.031  24.713  13.479
38103W        W10363  29.492  14.053   1.431
38104W        W10364  17.762  17.275   0.808
38105W        W10365  29.169  10.807   4.057
38106W        W10366   8.144  33.174   0.291
38107W        W10367   1.324  34.627   1.140
38108W        W10368  29.737   6.274  14.462
38109W        W10369   2.415  23.523   1.446
38110W        W10370   2.427  24.869  10.360
38111W        W10371   9.896   1.174   2.132
38112W        W10372   8.075  27.229   2.402
38113W        W10373  11.917  32.623   1.852
38114W        W10374  22.467  11.874   4.584
38115W        W10375  13.698  29.971   1.873
38116W        W10376  20.114  37.591  11.971
38117W        W10377  28.126  20.195   4.237
38118W        W10378  23.495   7.154  14.363
38119W        W10379  43.842  38.920  11.567
38120W        W10380  30.991  30.441  10.543
38121W        W10381  35.039  38.057  13.998
38122W        W10382  16.273   9.764   0.074
38123W        W10383  43.987  29.169  14.418
38124W        W10384  40.845   4.630  14.870
38125W        W10385  35.387  32.025  11.195
38126W        W10386  42.828   6.323  10.672
38127W        W10387  38.357  31.600  11.499
38128W        W10388   5.313  33.934   0.051
38129W        W10389  28.205  30.147  14.779
38130W        W10390  16.780  42.952   4.622
38131W        W10391  14.814  39.337  14.763
38132W        W10392   2.405  39.914  12.545
38133W        W10393  15.598  10.096  10.057
38134W        W10394  43.762  36.374   4.932
38135W        W10395  10.352   4.187   3.788
38136W        W10396   8.182  26.019  10.248
38137W        W10397  38.424  10.709  11.590
38138W        W10398   2.179  30.999   2.865
38139W        W10399   2.569   2.109   4.164
38140W        W10400  38.040  41.331  12.956
38141W        W10401  39.680   5.840   3.734
38142W        W10402  39.013   4.325   1.900
38143W        W10403  29.154  40.125  11.059
38144W        W10404  29.122   7.730   0.030
38145W        W10405  38.857  31.996   2.840
38146W        W10406   2.693  25.196  10.695
38147W        W10407  17.783  20.333  14.947
38148W        W10408  34.865  23.522   0.324
38149W        W10409  43.038  41.378   1.806
38150W        W10410  23.252  24.393  11.095
38151W        W10411  29.867  25.645  12.033
38152W        W10412  43.814  37.488   1.028
38153W        W10413  20.992   7.082  12.069
38154W        W10414  21.741  22.588  12.321
38155W        W10415  38.598  42.611   1.306
38156W        W10416  15.743  12.615   2.626
38157W        W10417  11.859  19.622   0.863
38158W        W10418   1.360   2.245  11.738
38159W        W10419   5.905  21.182   4.203
38160W        W10420  44.147  17.288  11.408
38161W        W10421  41.711  36.891  14.772
38162W        W10422  17.806  44.447  11.983
38163W        W10423  34.496  18.891  14.884
38164W        W10424  29.105  11.365   2.166
38165W        W10425  28.956  25.079   4.526
38166W        W10426  10.298  16.607  10.546
38167W        W10427  14.629  34.011  13.957
38168W        W10428  44.564  17.480   4.199
38169W        W10429  42.413  14.072  14.540
38170W        W10430  29.307  21.797  11.346
38171W        W10431  24.140  23.027  14.804
38172W        W10432  42.013   2.279   1.708
38173W        W10433  11.467  12.794   2.619
38174W        W10434  25.915  43.375   4.185
38175W        W10435  28.734   9.625  11.960
38176W        W10436   2.291   6.265   2.086
38177W        W10437   4.244  20.258   1.117
38178W        W10438  39.324  18.605   1.636
38179W        W10439   3.231  21.204   3.853
38180W        W10440   9.243  12.563  12.520
38181W        W10441  10.541  37.815   1.172
38182W        W10442  10.403  40.938  12.535
38183W        W10443  23.052  37.891   1.847
38184W        W10444   1.871   9.690  13.879
38185W        W10445  40.995   8.480  13.494
38186W        W10446  16.265  23.247  12.034
38187W        W10447  18.317  17.559  10.725
38188W        W10448  36.978  10.589  14.027
38189W        W10449  42.119  23.272  12.550
38190W        W10450  24.982  32.707  10.770
38191W        W10451  28.620  20.084   3.344
38192W        W10452  11.339  15.047   3.746
38193W        W10453  44.930  13.273  11.649
38194W        W10454  14.374  28.819  12.370
38195W        W10455  14.169  44.638  14.552
38196W        W10456  39.004  19.901   4.362
38197W        W10457  28.309  26.710   3.705
38198W        W10458  42.891  16.101  13.939
38199W        W10459  33.579  30.177  12.616
38200W        W10460  40.460  26.557   0.582
38201W        W10461   1.177  27.490   2.380
38202W        W10462  32.006  41.265  13.371
38203W        W10463  10.104   6.993  14.264
38204W        W10464  30.562  37.019   1.320
38205W        W10465  28.395   4.743   3.131
38206W        W10466  18.413  25.556  11.218
38207W        W10467   7.178   5.937  14.868
38208W        W10468  29.883  27.577   4.569
38209W        W10469  44.790   0.978   9.925
38210W        W10470  10.090  17.211   5.159
38211W        W10471  23.448  29.987  14.697
38212W        W10472  16.760  31.505   1.080
38213W        W10473  38.387  33.578   1.030
38214W        W10474  30.930  19.800   3.743
38215W        W10475  25.592  22.731  13.371
38216W        W10476   4.218  31.390  12.989
38217W        W10477  11.350  34.661   3.688
38218W        W10478  22.253   5.883  10.816
38219W        W10479  16.714  11.451   4.649
38220W        W10480  35.477  13.745   2.790
38221W        W10481  21.037   1.830  11.131
38222W        W10482   3.591   8.421  14.820
38223W        W10483  19.775  41.387  10.826
38224W        W10484   2.765  36.405   0.571
38225W        W10485  34.341  41.386   3.891
38226W        W10486  36.588   4.348   0.292
38227W        W10487  17.160  12.446  11.162
38228W        W10488  42.904  32.756  12.734
38229W        W10489   6.721  12.590   0.437
38230W        W10490  41.463  38.994  12.447
38231W        W10491  31.027  42.270  13.365
38232W        W10492  20.508   0.316   3.360
38233W        W10493   4.105  26.020   4.156
38234W        W10494   9.191  44.030   0.053
38235W        W10495  15.810   9.806  10.465
38236W        W10496  44.584  42.034  11.495
38237W        W10497  18.250  40.954  13.063
38238W        W10498  41.001  31.585   3.620
38239W        W10499  31.161  20.363  11.182
38240W        W10500  30.236  43.937   4.021
38241W        W10501  18.048   6.672   3.096
38242W        W10502  30.217   0.758  13.209
38243W        W10503  10.772  27.597  11.095
38244W        W10504  25.445  31.820  11.517
38245W        W10505  18.539   6.756   2.933
38246W        W10506   4.708  23.958  12.993
38247W        W10507  39.837  41.900   2.434
38248W        W10508  38.706   9.894   4.147
38249W        W10509  17.679  19.289  14.507
38250W        W10510  26.206  33.144   0.998
38251W        W10511  28.728  39.082   3.160
38252W        W10512  18.771  16.371  13.124
38253W        W10513  32.309  40.908  11.299
38254W        W10514  32.357  15.081   3.591
38255W        W10515  14.349  14.287  13.065
38256W        W10516   7.595  10.331  13.838
38257W        W10517  16.491  28.961  14.783
38258W        W10518  34.361   3.384   1.387
38259W        W10519   0.421   8.120  11.177
38260W        W10520  29.644   5.649  11.380
38261W        W10521  29.730  13.925   3.550
38262W        W10522  12.959  35.817   4.152
38263W        W10523  19.119  29.424   2.657
38264W        W10524  22.399  36.545  14.211
38265W        W10525  28.141  24.845  11.092
38266W        W10526  40.791  36.904   0.263
38267W        W10527  21.458  29.158  12.850
38268W        W10528  38.227  12.690   3.703
38269W        W10529  23.785  32.524   0.776
38270W        W10530   1.828  19.087   2.745
38271W        W10531  17.212  43.232   0.807
38272W        W10532  29.895  25.860   1.929
38273W        W10533  44.528  20.962   1.780
38274W        W10534  11.510   8.893   4.479
38275W        W10535  39.001   0.946   2.913
38276W        W10536  38.867  42.399   0.229
38277W        W10537  18.170   5.791   1.041
38278W        W10538  32.862  28.695  14.050
38279W        W10539  18.519   9.141   3.210
38280W        W10540  12.790  20.852   4.744
38281W        W10541  32.483  31.628  12.778
38282W        W10542  19.696  18.625   4.610
38283W        W10543  21.386  31.724  10.683
38284W        W10544  21.498  27.389  14.899
38285W        W10545  18.046  37.935   1.877
38286W        W10546  28.183  29.452  12.307
38287W        W10547  29.146  34.502  11.670
38288W        W10548  43.469  37.375  13.294
38289W        W10549  10.607  17.701   0.262
38290W        W10550  20.333  41.059   1.507
38291W        W10551  38.118  10.738  10.343
38292W        W10552  14.680  17.191  13.449
38293W        W10553  15.999  22.031   0.516
38294W        W10554  35.805  11.136  11.512
38295W        W10555  23.260   8.828   3.361
38296W        W10556  36.521   9.723  12.090
38297W        W10557  44.511  11.739  10.564
38298W        W10558   0.765  32.518  14.052
38299W        W10559  13.322  33.643  11.084
38300W        W10560  38.139   2.288  10.834
38301W        W10561  12.231  30.858  11.321
38302W        W10562  35.054  21.067   0.314
38303W        W10563  37.498   1.535  11.073
38304W        W10564  19.539   7.788  13.791
38305W        W10565  24.452  23.120   2.906
38306W        W10566  34.160   0.705   3.159
38307W        W10567  44.138   6.627   4.988
38308W        W10568  28.473  21.503   1.265
38309W        W10569   5.256   0.773   1.796
38310W        W10570  12.138   7.646  13.373
38311W        W10571  36.045  35.096  12.010
38312W        W10572  24.037  40.382   4.498
38313W        W10573  27.127  24.114  14.530
38314W        W10574  26.115   0.323  12.493
38315W        W10575   6.152   8.247   1.476
38316W        W10576  32.634   8.710  10.677
38317W        W10577  36.851  19.126   2.296
38318W        W10578   0.408  16.749  13.405
38319W        W10579  35.576  21.536  13.907
38320W        W10580  33.368  40.263  12.898
38321W        W10581  14.854  36.705  14.520
38322W        W10582  43.801  25.509  11.543
38323W        W10583  41.987  14.735   3.755
38324W        W10584  35.030  33.480   1.729
38325W        W10585   6.877  16.637  11.247
38326W        W10586  17.221  44.805  13.107
38327W        W10587   3.719  13.310   0.181
38328W        W10588  14.193  19.387  13.378
38329W        W10589  23.147  20.176  11.060
38330W        W10590   4.673   4.928   3.297
38331W        W10591  26.591  26.370   3.245
38332W        W10592  22.026   9.394  11.644
38333W        W10593   0.460  44.369  12.366
38334W        W10594  43.024  22.734  13.389
38335W        W10595  30.593  32.816   1.111
38336W        W10596   0.054   5.723   2.210
38337W        W10597  24.577  13.602   0.981
38338W        W10598   0.439  15.221   4.257
38339W        W10599  21.939  23.934   4.946
38340W        W10600  15.161  11.699  12.062
38341W        W10601   8.280  38.048  13.553
38342W        W10602  42.793  30.657  14.610
38343W        W10603  15.688   4.357  13.935
38344W        W10604  28.501  36.810   0.482
38345W        W10605  11.833  34.028  12.383
38346W        W10606  32.340   8.337   1.007
38347W        W10607  19.750  21.709   3.003
38348W        W10608  38.409   5.870  12.804
38349W        W10609  32.086  10.690  14.030
38350W        W10610  30.019  34.182   4.001
38351W        W10611  12.837  22.181   0.327
38352W        W10612   6.405  40.893   4.644
38353W        W10613  41.255   1.674   3.805
38354W        W10614  24.163  16.207   4.332
38355W        W10615  43.972  35.688   0.559
38356W        W10616  10.037  43.283  12.912
38357W        W10617  26.364  18.486   1.092
38358W        W10618   4.623  35.668  13.462
38359W        W10619  10.469  41.825  14.420
38360W        W10620   4.204  25.291   1.301
38361W        W10621  34.172   3.828  13.487
38362W        W10622  37.607  38.111   3.543
38363W        W10623  40.610  38.405  12.447
38364W        W10624  44.797   8.157  12.621
38365W        W10625  11.669  21.295   2.393
38366W        W10626   3.088  19.493   2.308
38367W        W10627  25.848  24.850  12.058
38368W        W10628  25.715   7.385  12.356
38369W        W10629  14.214  41.259   4.599
38370W        W10630  12.691  25.936   0.713
38371W        W10631  16.398   2.207  12.933
38372W        W10632  35.021  30.122   0.961
38373W        W10633  28.553  24.756  11.542
38374W        W10634  32.784  18.653   0.108
38375W        W10635  30.337   2.256  12.881
38376W        W10636  38.761   9.857   9.739
38377W        W10637  35.574  35.013   4.798
38378W        W10638  32.025  16.677   0.867
38379W        W10639  31.407  36.842   2.203
38380W        W10640   2.039   5.657  14.378
38381W        W10641  34.945  33.008  13.463
38382W        W10642  40.798  25.235  15.000
38383W        W10643  10.322  27.954   4.613
38384W        W10644   1.854  19.126   2.201
38385W        W10645  43.703  17.912   3.830
38386W        W10646  12.562   3.898  14.831
38387W        W10647  42.081  44.214  12.861
38388W        W10648  25.575  13.215  12.079
38389W        W10649  26.507  36.052   4.916
38390W        W10650  15.402  39.801  12.441
38391W        W10651   8.197  23.960  10.605
38392W        W10652  42.827  24.618  13.941
38393W        W10653  15.926   0.380   4.727
38394W        W10654   4.731  32.634   1.785
38395W        W10655  20.218  24.792  14.467
38396W        W10656  39.998  32.549   0.657
38397W        W10657  20.501   3.859  13.229
38398W        W10658   2.800   5.212  14.895
38399W        W10659  11.848  25.540  10.796
38400W        W10660  21.589   7.384   1.186
38401W        W10661  20.813  30.555   3.115
38402W        W10662  25.889  42.085  14.452
38403W        W10663   9.721  33.913  13.302
38404W        W10664  41.567  30.632  14.132
38405W        W10665  19.258   2.416   4.326
38406W        W10666  31.529  36.926   3.123
38407W        W10667  23.457  32.433   0.373
38408W        W10668   2.931  41.997  12.004
38409W        W10669  29.458  13.275   4.095
38410W        W10670  22.792   9.182   2.359
38411W        W10671   9.567   4.249   4.081
38412W        W10672  15.093   6.807   4.741
38413W        W10673   8.334  25.085  10.899
38414W        W10674  31.099   8.890  12.092
38415W        W10675  16.042  21.834  10.711
38416W        W10676  11.366  26.686  12.293
38417W        W10677  27.936  30.205   1.295
38418W        W10678  13.123  24.425  13.458
38419W        W10679  44.457  43.052  14.255
38420W        W10680  10.145  21.218   3.763
38421W        W10681  17.654  12.203  12.008
38422W        W10682  36.804  31.481  14.444
38423W        W10683  18.568  10.866   0.485
38424W        W10684  28.569  40.974   1.959
38425W        W10685  41.449  27.039   2.788
38426W        W10686   0.537  28.643  14.402
38427W        W10687   0.683  16.827   2.208
38428W        W10688  35.185  21.030  10.583
38429W        W10689  39.575  35.678   0.199
38430W        W10690  12.823  31.230  14.764
38431W        W10691  22.508  15.907   3.516
38432W        W10692  30.509  36.304   1.943
38433W        W10693  21.000  20.750   9.847
38434W        W10694  38.465  33.211   2.413
38435W        W10695  40.806   6.157  11.568
38436W        W10696  30.984  39.836  12.411
38437W        W10697  39.419  41.031   4.838
38438W        W10698  29.678  38.889  14.500
38439W        W10699  41.182  18.154   0.987
38440W        W10700  22.684  30.688  10.687
38441W        W10701   4.227  41.377   3.877
38442W        W10702   3.493  37.527   0.260
38443W        W10703   1.668  11.155  11.194
38444W        W10704  12.949  38.413  14.025
38445W        W10705  25.620  40.438   4.683
38446W        W10706  19.146  16.471   3.395
38447W        W10707  33.460  10.903  14.013
38448W        W10708  29.162   4.404   0.263
38449W        W10709  37.435   3.414   4.109
38450W        W10710  42.517  23.085  11.116
38451W        W10711  31.378  16.134  11.552
38452W        W10712  43.806   2.344  11.025
38453W        W10713  43.298  36.899   0.914
38454W        W10714  25.699  14.314  14.363
38455W        W10715  32.711  37.987   1.172
38456W        W10716  16.821  15.073  14.868
38457W        W10717   0.472  26.232   2.416
38458W        W10718  18.305   9.593  11.925
38459W        W10719  40.951  19.766  12.501
38460W        W10720  43.863  12.686  14.303
38461W        W10721  14.981   4.999   4.200
38462W        W10722  23.905  22.718  10.584
38463W        W10723  42.474   0.996   2.208
38464W        W10724  27.173   7.008   0.811
38465W        W10725  15.353  32.965  12.581
38466W        W10726  23.459  23.439  11.638
38467W        W10727  15.814   3.250   4.544
38468W        W10728   3.216   5.333  11.217
38469W        W10729  44.840  27.059   1.271
38470W        W10730   7.810  16.241   0.443
38471W        W10731  24.798  22.181  13.454
38472W        W10732  20.947  26.526  11.117
38473W        W10733  18.745  25.968   0.720
38474W        W10734  33.324  18.932   2.871
38475W        W10735  10.677  41.901  14.948
38476W        W10736  16.746  30.861   0.430
38477W        W10737   6.428  27.874  13.705
38478W        W10738  18.386  19.639   5.351
38479W        W10739  19.141  37.536   2.477
38480W        W10740  23.141   7.840   2.245
38481W        W10741  20.523  19.561   4.055
38482W        W10742   7.159   7.859  11.897
38483W        W10743   4.956  25.767  14.992
38484W        W10744  30.383  30.186  12.302
38485W        W10745  23.626  22.976  11.461
38486W        W10746  26.581  41.171  12.502
38487W        W10747  17.890  35.776  14.337
38488W        W10748   3.429  10.330   4.151
38489W        W10749  11.446  17.559  14.365
38490W        W10750  24.967  36.088  12.635
38491W        W10751  39.075  20.416  14.255
38492W        W10752  41.760  40.502   4.505
38493W        W10753  14.251  21.689  12.766
38494W        W10754  18.491  21.199   9.988
38495W        W10755  10.672   8.791   2.651
38496W        W10756   5.679  12.571   3.189
38497W        W10757  41.592  25.542   1.257
38498W        W10758  16.198  18.971   0.582
38499W        W10759  14.327   3.929  13.441
38500W        W10760   4.428  29.799   1.859
38501W        W10761  38.353  33.594   3.375
38502W        W10762  40.454  42.041  12.009
38503W        W10763  14.968   4.330   3.717
38504W        W10764  11.750   2.471  13.397
38505W        W10765  23.527  24.626  14.796
38506W        W10766  29.908  16.135   2.669
38507W        W10767   7.438  20.196  14.451
38508W        W10768  44.125  32.129   4.257
38509W        W10769  20.519  38.576   1.756
38510W        W10770  43.264   3.501  13.422
38511W        W10771   1.186  42.702  14.008
38512W        W10772   5.843  32.420   3.816
38513W        W10773  30.063  16.131   2.196
38514W        W10774  19.157   0.113   3.736
38515W        W10775   3.294  41.427   1.266
38516W        W10776  41.883  27.869   4.615
38517W        W10777   8.457   9.190   4.184
38518W        W10778   9.710  40.769  12.255
38519W        W10779  22.195   7.643  13.452
38520W        W10780  15.640  31.588   2.648
38521W        W10781   2.857  38.956   0.223
38522W        W10782  21.635  20.688  13.599
38523W        W10783  26.121  25.666  13.110
38524W        W10784   1.805   8.445   4.931
38525W        W10785  26.734  21.454  11.529
38526W        W10786  34.883  28.622  11.556
38527W        W10787  10.080  38.198   9.995
38528W        W10788  24.105  17.035  11.184
38529W        W10789  35.014   5.305  12.929
38530W        W10790   4.398  41.769   4.208
38531W        W10791  30.096  29.048   0.291
38532W        W10792  38.908  26.453   0.609
38533W        W10793   2.439   9.692  13.465
38534W        W10794  21.467  18.073  10.817
38535W        W10795  29.194   9.860  13.885
38536W        W10796  15.943  10.389   0.775
38537W        W10797   6.379  24.993   2.160
38538W        W10798  26.483  36.008  11.662
38539W        W10799  44.847  16.603  11.248
38540W        W10800  33.355  11.721  11.801
38541W        W10801  18.114  41.483  14.274
38542W        W10802  29.675  28.209  11.988
38543W        W10803  17.694  15.755   4.615
38544W        W10804  30.854  29.534   0.313
38545W        W10805  15.152  33.544   0.405
38546W        W10806  19.317  14.434  12.899
38547W        W10807   1.256  39.674   4.255
38548W        W10808  40.789  39.029  12.916
38549W        W10809  23.741  17.638  11.598
38550W        W10810   6.590  30.402  11.542
38551W        W10811   0.073   0.417   2.787
38552W        W10812   5.183  25.214  10.587
38553W        W10813   3.163  10.253   4.617
38554W        W10814  37.852  29.425   1.768
38555W        W10815   3.032  24.075  14.997
38556W        W10816  13.648  28.134  13.923
38557W        W10817  20.075  25.578   2.270
38558W        W10818   2.721  11.815   1.261
38559W        W10819  35.463  29.983   2.794
38560W        W10820  33.553  43.235  14.871
38561W        W10821  31.161  11.229   2.904
38562W        W10822  12.669  35.017   4.414
38563W        W10823  24.184  12.592  12.563
38564W        W10824  14.363  31.326  10.583
38565W        W10825  18.055  21.622   4.497
38566W        W10826  11.455  31.360  11.079
38567W        W10827  32.968  23.648  14.436
38568W        W10828  42.550  41.434   1.920
38569W        W10829   2.304   2.441   4.462
38570W        W10830  20.863  32.077  14.785
38571W        W10831   8.673  26.697  10.650
38572W        W10832  29.842   8.953  10.741
38573W        W10833   2.288   2.390   3.397
38574W        W10834  37.562  13.107  12.956
38575W        W10835  21.186  44.391  13.477
38576W        W10836  18.978  15.405   3.403
38577W        W10837  41.315  37.901  10.895
38578W        W10838   6.883  17.757   1.442
38579W        W10839   3.595   8.425   4.105
38580W        W10840   3.626  27.540   3.795
38581W        W10841  29.970  16.363  14.848
38582W        W10842  25.683  38.759   0.893
38583W        W10843  28.364   4.241   1.842
38584W        W10844   0.107   3.513   1.305
38585W        W10845  44.313  29.443  14.951
38586W        W10846  14.082  36.221   3.013
38587W        W10847  33.414  17.515  13.837
38588W        W10848  27.392  43.862  14.344
38589W        W10849  19.798  33.942   4.466
38590W        W10850  39.997  22.171  10.739
38591W        W10851  14.654  30.737   3.735
38592W        W10852  13.767  31.451  12.175
38593W        W10853  25.392  44.522  14.860
38594W        W10854  20.072   3.904   3.157
38595W        W10855  30.845  17.626  13.837
38596W        W10856   2.492  43.301   4.753
38597W        W10857  35.794  37.951   2.362
38598W        W10858  35.971  17.218   4.400
38599W        W10859   8.285  29.830  14.759
38600W        W10860  39.444  23.182   2.353
38601W        W10861  38.762  40.925   1.884
38602W        W10862  26.692  20.556   3.651
38603W        W10863  23.947  17.378   5.060
38604W        W10864   7.273  34.817   1.705
38605W        W10865  16.677  43.393   3.707
38606W        W10866  37.548   2.594   3.481
38607W        W10867  38.601  35.577   4.918
38608W        W10868  20.183  28.740   2.212
38609W        W10869  24.006   1.181  10.640
38610W        W10870  39.318  42.895  13.097
38611W        W10871  35.106  18.503   5.097
38612W        W10872  21.621   6.722  12.943
38613W        W10873   5.290  42.515  11.972
38614W        W10874  28.396  43.092  14.367
38615W        W10875  14.785  11.083  11.157
38616W        W10876  26.095  12.746  12.576
38617W        W10877  22.179  13.354  11.508
38618W        W10878  32.906  18.598  13.731
38619W        W10879  11.363  30.967  12.630
38620W        W10880  34.675  36.761   1.255
38621W        W10881   0.215  42.827  13.910
38622W        W10882  32.516  35.135   2.238
38623W        W10883  21.578  20.081   2.708
38624W        W10884  42.114   8.207  12.830
38625W        W10885  36.125  43.389  14.813
38626W        W10886  30.751   9.389   4.146
38627W        W10887  38.072   9.660  13.791
38628W        W10888  13.631  10.201   2.283
38629W        W10889  39.422   1.701  11.861
38630W        W10890  25.641  19.801   2.116
38631W        W10891  27.474   4.391   0.378
38632W        W10892   6.440  16.453   3.140
38633W        W10893  15.347   3.375  13.912
38634W        W10894  42.087  32.475   2.420
38635W        W10895   4.201   7.690  14.845
38636W        W10896  11.682  35.888   0.388
38637W        W10897  42.870  33.538  10.457
38638W        W10898  23.793  14.067   3.037
38639W        W10899  12.591  27.341   3.477
38640W        W10900   9.734  31.041   2.194
38641W        W10901  32.937  28.957  12.721
38642W        W10902  11.696   4.191  13.961
38643W        W10903  42.939  31.079   1.881
38644W        W10904  18.232  14.883   2.824
38645W        W10905  30.326  37.344  11.094
38646W        W10906  40.380  35.616   4.312
38647W        W10907   1.375  40.320  14.250
38648W        W10908  32.464  39.240   0.908
38649W        W10909  42.978   7.027   0.848
38650W        W10910  28.592  38.860   3.639
38651W        W10911  32.589  44.375  12.112
38652W        W10912  12.918  24.022   0.451
38653W        W10913  28.001   4.843   2.812
38654W        W10914  34.320  25.776  13.075
38655W        W10915  15.547  33.487  13.459
38656W        W10916   8.653  34.556  12.480
38657W        W10917  22.418  37.060   3.205
38658W        W10918  16.295  21.137  13.305
38659W        W10919   0.377  29.177  10.847
38660W        W10920  23.690  21.698   2.001
38661W        W10921  31.966   1.905   1.982
38662W        W10922  41.041  31.365   2.715
38663W        W10923  30.691  27.444  13.503
38664W        W10924  10.957  37.340   4.264
38665W        W10925  29.477  29.350   5.466
38666W        W10926  13.664  26.784  10.542
38667W        W10927  38.357  14.140   5.105
38668W        W10928   1.447  25.232  14.497
38669W        W10929  35.527  32.579  11.942
38670W        W10930   1.661  41.376   2.081
38671W        W10931  38.544  32.644   4.065
38672W        W10932  30.943  38.117  13.300
38673W        W10933   2.947  40.307   2.875
38674W        W10934  14.375  17.150   5.539
38675W        W10935   2.246  31.404  13.824
38676W        W10936  37.872  15.345   4.190
38677W        W10937  42.463  30.562   1.760
38678W        W10938  37.773  38.947   3.608
38679W        W10939  10.798  16.456   4.516
38680W        W10940  32.207  38.825   2.254
38681W        W10941  41.107  26.061   1.833
38682W        W10942  17.214   4.400  12.108
38683W        W10943  31.133  38.146   1.377
38684W        W10944  32.946   0.307  14.018
38685W        W10945  32.190  40.374  11.050
38686W        W10946  32.547  33.499  10.084
38687W        W10947  37.017  34.526   1.695
38688W        W10948   7.302  43.839  13.948
38689W        W10949   7.262  39.359   1.930
38690W        W10950  26.705  14.613  10.617
38691W        W10951  42.357  22.944   2.248
38692W        W10952  42.417  22.987   3.623
38693W        W10953  29.091  28.676  14.534
38694W        W10954  14.365   6.276  10.610
38695W        W10955  37.024   0.012   4.541
38696W        W10956  25.732  28.565  14.933
38697W        W10957  21.379   3.846   2.706
38698W        W10958  19.333  32.576  12.555
38699W        W10959  31.563  23.694   2.152
38700W        W10960  44.564  21.224   5.180
38701W        W10961  41.065  42.080  12.490
38702W        W10962  39.335  43.593   4.663
38703W        W10963  17.425   2.886   9.938
38704W        W10964   0.726  21.755  10.734
38705W        W10965   0.555  26.004   2.876
38706W        W10966  29.594  30.036  14.283
38707W        W10967  11.915  30.462  11.222
38708W        W10968  36.476  43.413   1.893
38709W        W10969   2.516  11.818  13.534
38710W        W10970  12.734   3.146   4.821
38711W        W10971   1.507  42.378   0.241
38712W        W10972   5.778  14.553   0.332
38713W        W10973   7.681   6.271  10.627
38714W        W10974   0.734   8.194   3.214
38715W        W10975  37.378  12.766  12.622
38716W        W10976  24.591  15.433   4.538
38717W        W10977  19.674  18.837  13.941
38718W        W10978  13.975  30.146   4.222
38719W        W10979  21.725   2.276   2.163
38720W        W10980   6.490  11.146   3.686
38721W        W10981  28.370  20.542  12.886
38722W        W10982  38.940   0.447  10.914
38723W        W10983  32.195  27.085   3.623
38724W        W10984  37.505   3.589  13.435
38725W        W10985  44.196  23.207  11.608
38726W        W10986  26.158  20.052  10.657
38727W        W10987  40.390  20.828   3.709
38728W        W10988  22.334  18.318  11.962
38729W        W10989  43.506  27.306   0.841
38730W        W10990  33.493  39.037   2.904
38731W        W10991   5.785   6.933  11.467
38732W        W10992  30.845  16.195  13.308
38733W        W10993  36.656  29.057  12.534
38734W        W10994  15.130  17.715  11.921
38735W        W10995  27.875  11.144  13.388
38736W        W10996  34.039  36.620  14.849
38737W        W10997  30.130  11.733  14.004
38738W        W10998  25.248  44.966  14.499
38739W        W10999  31.108  34.859  11.618
38740W        W11000  34.933   0.790   4.680
38741W        W11001  18.608  14.767   1.327
38742W        W11002   3.661  33.794  13.798
38743W        W11003   1.004  39.362  11.481
38744W        W11004   2.253  22.084  12.651
38745W        W11005  17.626  38.285  12.122
38746W        W11006  34.009  34.023  14.820
38747W        W11007   7.483  10.142  12.962
38748W        W11008  38.963  12.005  13.020
38749W        W11009  31.790  31.441   2.751
38750W        W11010   2.759  29.038  13.040
38751W        W11011  22.319  34.917  14.929
38752W        W11012   8.939   3.299  13.246
38753W        W11013   9.645  28.017  13.313
38754W        W11014  23.117  27.199  11.319
38755W        W11015  18.678  20.003   0.938
38756W        W11016  33.467  18.057  12.531
38757W        W11017   7.174  42.851  12.521
38758W        W11018  33.414  39.576   0.804
38759W        W11019  30.198  16.172  12.436
38760W        W11020   8.191  32.099   0.336
38761W        W11021  11.965  26.470   3.190
38762W        W11022  39.010  15.262   1.950
38763W        W11023  12.792  24.009  13.406
38764W        W11024  20.820  21.612  13.935
38765W        W11025  44.443   8.251   4.212
38766W        W11026   8.950   8.273   0.202
38767W        W11027  27.873   8.670   3.735
38768W        W11028  44.563  23.051  13.137
38769W        W11029   8.302  25.021  13.392
38770W        W11030  29.000  33.418   4.047
38771W        W11031  10.226   5.331   5.005
38772W        W11032  41.708   1.807  10.111
38773W        W11033   8.851  39.469   1.036
38774W        W11034   8.885  37.401   3.962
38775W        W11035  29.106  14.241  10.617
38776W        W11036   4.244  26.122   2.542
38777W        W11037  30.092  29.081   5.026
38778W        W11038   0.545   4.582   4.080
38779W        W11039  33.081  10.592  10.658
38780W        W11040  43.243   4.083   0.473
38781W        W11041  28.900  15.275   2.666
38782W        W11042   0.349  19.965  12.787
38783W        W11043  29.068  15.191   2.189
38784W        W11044  37.158  42.640  10.408
38785W        W11045  32.179  20.206   1.414
38786W        W11046  36.428  32.131  13.449
38787W        W11047  29.551  27.470   1.239
38788W        W11048   0.170  28.937   0.737
38789W        W11049  17.301   6.140   1.987
38790W        W11050  23.134  14.817  13.724
38791W        W11051   3.864  44.261  10.393
38792W        W11052  43.606  23.400  13.996
38793W        W11053  22.415  39.784  10.791
38794W        W11054   2.311  32.454  13.148
38795W        W11055  13.696  38.310  11.854
38796W        W11056  31.669  40.609   2.614
38797W        W11057  23.174   2.313   4.083
38798W        W11058   1.213  21.174   3.562
38799W        W11059  29.599  19.496  14.545
38800W        W11060  21.019  30.559  12.655
38801W        W11061  11.323  38.936  14.772
38802W        W11062  37.836  10.545   4.263
38803W        W11063  12.555  32.899   0.735
38804W        W11064  10.541  15.879   2.199
38805W        W11065  17.784  15.075  12.918
38806W        W11066  29.039  32.364   0.827
38807W        W11067  12.795  20.363   4.563
38808W        W11068  33.715  28.466  13.900
38809W        W11069  14.267  22.057   2.542
38810W        W11070  18.993  13.556  11.981
38811W        W11071   1.805  23.519   0.267
38812W        W11072  21.733  24.828   0.312
38813W        W11073  23.923   8.954   4.423
38814W        W11074  22.777   0.440  11.607
38815W        W11075  24.933  39.238  11.778
38816W        W11076  22.447   6.382  10.913
38817W        W11077  31.361  40.699  12.988
38818W        W11078  38.335  24.284  11.097
38819W        W11079  35.878  13.679  14.101
38820W        W11080   4.892  22.095  10.783
38821W        W11081   6.247  20.023  11.941
38822W        W11082  38.802  28.320   0.524
38823W        W11083  22.958  18.828  14.892
38824W        W11084  23.383  18.779  11.038
38825W        W11085  38.988  14.181  11.544
38826W        W11086   0.546   7.942  11.632
38827W        W11087  24.605  39.805   9.783
38828W        W11088  17.326  33.567   4.784
38829W        W11089   2.192  18.029  13.410
38830W        W11090  39.031  20.168  13.806
38831W        W11091  37.780  11.095   5.024
38832W        W11092  25.045  17.249   2.767
38833W        W11093   9.970  27.406   0.822
38834W        W11094  35.575  42.057  11.505
38835W        W11095  14.688  17.742  12.200
38836W        W11096  38.562  10.227   3.311
38837W        W11097  11.996   2.453   4.952
38838W        W11098   5.810  14.528   0.850
38839W        W11099  42.362  21.817   4.335
38840W        W11100   4.185  26.308   3.500
38841W        W11101  20.784  19.119  10.637
38842W        W11102  36.768   9.339  13.420
38843W        W11103  13.273  39.052  10.013
38844W        W11104  41.277   4.274  14.339
38845W        W11105   6.768  18.135   0.875
38846W        W11106  13.320  25.952   4.539
38847W        W11107  32.915  11.542   0.370
38848W        W11108  34.181  31.479   4.058
38849W        W11109  17.010   2.977  10.920
38850W        W11110  31.017   3.226   0.396
38851W        W11111  12.165  14.660  14.793
38852W        W11112  31.370  22.004   1.157
38853W        W11113  21.657  22.091  13.470
38854W        W11114  29.521  38.863  13.546
38855W        W11115  13.963  24.202   1.257
38856W        W11116  35.965   7.910   1.905
38857W        W11117   3.940  17.655  12.407
38858W        W11118  31.257  17.704   2.089
38859W        W11119  41.056  38.588  14.413
38860W        W11120  13.646   6.925  10.762
38861W        W11121   3.260  12.913   0.709
38862W        W11122  10.861  42.443  11.158
38863W        W11123  21.815   7.189   2.628
38864W        W11124  20.918  18.058  11.533
38865W        W11125  11.176  26.562  13.577
38866W        W11126  33.890  15.337  14.871
38867W        W11127  13.550   0.908   4.866
38868W        W11128  27.163  12.636  11.726
38869W        W11129  12.363   2.277  11.157
38870W        W11130  41.407  42.982   9.904
38871W        W11131  31.629  13.917   1.238
38872W        W11132  29.506  39.921  10.641
38873W        W11133   2.744  42.913  10.539
38874W        W11134  20.319  32.502   0.474
38875W        W11135  30.728  42.421  12.934
38876W        W11136  11.146   2.482  14.073
38877W        W11137   0.888  28.743  12.930
38878W        W11138  39.012  13.674   3.864
38879W        W11139  22.018  12.918   2.867
38880W        W11140  18.689  13.861  11.131
38881W        W11141   7.420   2.670   2.920
38882W        W11142  25.062  37.873   3.101
38883W        W11143  22.766  25.554   1.845
38884W        W11144  20.997   3.010  13.431
38885W        W11145  12.251  15.581   0.379
38886W        W11146  41.599  40.462  14.877
38887W        W11147  24.116  30.171  14.448
38888W        W11148  44.355  19.178   0.265
38889W        W11149   6.657  21.577  11.848
38890W        W11150  31.991  32.306  14.495
38891W        W11151  16.065  18.814   4.159
38892W        W11152   3.915  13.293   3.326
38893W        W11153   2.874  17.383   4.611
38894W        W11154   4.814  11.875   2.811
38895W        W11155  13.788  21.164  11.213
38896W        W11156  44.083  30.101   2.286
38897W        W11157   9.383  17.826   4.600
38898W        W11158   2.678  13.434   3.488
38899W        W11159  44.969  33.830   2.692
38900W        W11160   3.437  36.642  11.767
38901W        W11161  23.429  29.024  14.381
38902W        W11162  18.058  17.236   4.054
38903W        W11163  33.138  26.682   2.686
38904W        W11164  10.161   5.240   1.789
38905W        W11165  16.247  31.913  14.865
38906W        W11166   3.306  17.714   1.231
38907W        W11167  17.820  19.726  13.828
38908W        W11168  24.156  25.554  13.048
38909W        W11169  22.356  43.225  12.430
38910W        W11170  37.036   4.394  13.451
38911W        W11171  22.047  20.746  10.746
38912W        W11172   8.909  25.778   5.039
38913W        W11173   4.734  41.314  13.463
38914W        W11174  10.221  12.603  14.302
38915W        W11175  30.964  32.083  14.387
38916W        W11176  34.528  30.611   4.490
38917W        W11177  32.571   1.168   1.999
38918W        W11178   0.259  16.991   0.224
38919W        W11179  34.824  29.502   4.227
38920W        W11180  12.505  19.202  12.371
38921W        W11181  15.405  11.741   0.838
38922W        W11182  11.439  28.428   4.155
38923W        W11183  39.290   8.590  12.935
38924W        W11184   3.935  14.812   4.920
38925W        W11185   5.036  25.559   5.490
38926W        W11186  16.050   1.486   0.808
38927W        W11187   5.633  13.599   2.382
38928W        W11188  38.785  12.455  10.016
38929W        W11189  43.002  43.394  14.910
38930W        W11190   7.488   2.898  12.496
38931W        W11191  33.137   5.848  13.280
38932W        W11192   3.402  44.324  10.683
38933W        W11193   7.684  33.792  14.262
38934W        W11194   6.820  35.991  12.382
38935W        W11195   3.597  38.069   3.775
38936W        W11196  22.097  14.294   3.347
38937W        W11197   8.893  41.322  14.905
38938W        W11198  13.123  24.508   0.295
38939W        W11199   3.702   4.931   1.289
38940W        W11200  28.920   6.622   0.734
38941W        W11201   7.594   3.374  10.345
38942W        W11202  22.667  11.237   2.883
38943W        W11203   8.570  43.195   4.998
38944W        W11204  40.342   9.884  13.307
38945W        W11205  22.969  16.069   0.859
38946W        W11206  26.051  21.440  13.454
38947W        W11207   3.651  16.072  12.592
38948W        W11208  34.143  19.256  14.796
38949W        W11209   0.343   8.753   4.156
38950W        W11210   3.886  33.087   2.269
38951W        W11211  35.880  17.299  13.392
38952W        W11212  22.651  14.566   2.669
38953W        W11213  15.973  23.016  12.410
38954W        W11214  26.745  32.432  14.328
38955W        W11215  28.684   1.693   2.340
38956W        W11216  13.965  27.179   5.557
38957W        W11217  23.434  11.311  10.772
38958W        W11218  19.278  16.067   0.699
38959W        W11219  40.271  44.598  12.040
38960W        W11220  31.595  10.113  10.022
38961W        W11221   1.780  12.617  12.585
38962W        W11222   0.283  25.685   4.662
38963W        W11223  21.697  20.770  14.538
38964W        W11224  42.291  38.909  11.707
38965W        W11225  19.101  41.816  11.995
38966W        W11226  20.833  24.739  10.772
38967W        W11227  39.787  26.090  13.323
38968W        W11228  33.061   6.881   4.962
38969W        W11229  36.356  11.363   3.244
38970W        W11230  27.112   1.112   4.585
38971W        W11231   4.970  26.147   0.672
38972W        W11232  14.201  35.422   1.241
38973W        W11233   3.262  12.203   3.899
38974W        W11234  36.812  24.139   4.050
38975W        W11235   3.980  39.562   4.106
38976W        W11236  35.352  25.516  10.721
38977W        W11237  18.348  10.538   3.318
38978W        W11238  26.567  19.792   3.138
38979W        W11239   5.309  35.369   3.263
38980W        W11240  26.502  38.274   9.958
38981W        W11241  23.714  41.207  12.493
38982W        W11242   8.114  38.765  14.525
38983W        W11243   5.767  13.151   0.828
38984W        W11244  23.302   5.737   3.807
38985W        W11245  44.419  33.390   0.454
38986W        W11246  11.132  39.879  14.924
38987W        W11247  40.156  24.154   1.246
38988W        W11248   0.859  23.424   3.764
38989W        W11249  21.560  43.954  14.397
38990W        W11250  35.282  13.217   4.152
38991W        W11251   5.405   5.917  12.466
38992W        W11252  12.835  20.161  14.494
38993W        W11253  22.297  22.229   4.950
38994W        W11254  32.688  28.792  13.541
38995W        W11255  17.645  44.538   1.246
38996W        W11256  44.335  25.244   0.378
38997W        W11257   7.328  27.472  11.043
38998W        W11258  22.248  25.169  10.116
38999W        W11259  13.654   5.278  13.610
39000W        W11260  10.743   8.661   3.625
39001W        W11261  27.755  21.659  12.202
39002W        W11262  42.223  38.379   2.252
39003W        W11263   0.055  29.478  12.375
39004W        W11264  31.629  25.505  11.644
39005W        W11265  15.166  29.232   5.392
39006W        W11266   5.455   8.352  11.028
39007W        W11267  10.824  28.005   4.672
39008W        W11268  10.102  28.430   4.509
39009W        W11269  40.727  30.679   4.252
39010W        W11270  17.876  37.379   2.642
39011W        W11271  27.723  14.438  12.663
39012W        W11272  21.568  14.188   1.344
39013W        W11273  19.545   3.596   2.216
39014W        W11274  41.030  42.571   2.363
39015W        W11275   7.681  16.782  13.146
39016W        W11276  23.748  20.693   4.325
39017W        W11277  28.427  15.615   0.277
39018W        W11278  12.199  12.261  13.427
39019W        W11279   8.583   4.491  12.005
39020W        W11280  39.884   1.025   1.793
39021W        W11281  21.990  29.935   3.350
39022W        W11282   0.311  32.946  12.834
39023W        W11283  44.376  19.825  14.393
39024W        W11284  23.497  30.934   4.551
39025W        W11285  32.883  44.686   2.585
39026W        W11286  40.048  13.084   1.871
39027W        W11287  36.664  28.109  11.478
39028W        W11288  39.637  15.603  13.849
39029W        W11289  35.900  33.996   3.119
39030W        W11290  31.900  44.310   1.172
39031W        W11291  37.363  22.466  13.493
39032W        W11292  19.081  15.138  12.155
39033W        W11293  28.893  24.061  13.930
39034W        W11294  15.139  39.089  11.061
39035W        W11295  34.884  19.308   2.299
39036W        W11296  30.978  37.294  11.605
39037W        W11297   9.443   5.835  10.502
39038W        W11298  32.954  25.605  11.933
39039W        W11299  43.031  42.585  12.189
39040W        W11300  26.578  44.935   0.257
39041W        W11301  37.808   3.878  14.995
39042W        W11302  39.019  25.704   3.161
39043W        W11303  26.662  37.575  14.255
39044W        W11304  21.661   4.002  11.493
39045W        W11305  13.766  37.914  14.521
39046W        W11306  23.706   4.806   4.682
39047W        W11307  25.223  31.409  14.354
39048W        W11308   5.110  10.806  12.553
39049W        W11309  22.417  32.557   0.389
39050W        W11310  44.845  37.152   0.182
39051W        W11311  13.084  27.519  10.199
39052W        W11312   5.369   9.470  14.556
39053W        W11313  26.430  20.770  13.027
39054W        W11314  14.949  40.206   2.238
39055W        W11315  12.587  11.444  12.411
39056W        W11316  27.884   0.347   4.436
39057W        W11317  21.643   6.509  13.910
39058W        W11318  39.527  41.864  11.883
39059W        W11319  16.445  17.095  11.951
39060W        W11320  35.590  30.549   3.451
39061W        W11321   5.043  40.828   4.951
39062W        W11322   6.967   8.345  11.722
39063W        W11323   6.964  17.019   3.394
39064W        W11324  22.454   0.914   2.781
39065W        W11325  39.315  18.219  13.403
39066W        W11326  35.027  19.775   3.388
39067W        W11327   1.292  12.897   3.213
39068W        W11328  24.970   1.384   3.555
39069W        W11329  43.869  27.083  11.590
39070W        W11330  13.287  25.274   0.583
39071W        W11331  41.924  19.944   5.028
39072W        W11332  30.354  23.660   2.753
39073W        W11333  23.117  17.384  12.570
39074W        W11334  18.431  11.817   3.700
39075W        W11335  21.810  26.167  10.618
39076W        W11336  24.052   0.205  10.153
39077W        W11337  36.885  24.635  13.309
39078W        W11338  15.535  38.142   1.948
39079W        W11339  29.188   1.694   2.422
39080W        W11340   4.213  43.391  11.564
39081W        W11341  41.154  18.350   1.678
39082W        W11342  19.149  17.608  10.683
39083W        W11343  27.195  27.990   2.313
39084W        W11344   1.731  23.295   2.794
39085W        W11345   2.954  35.683  14.462
39086W        W11346  26.966   3.510   1.752
39087W        W11347  28.872  10.402   3.842
39088W        W11348  31.220  32.026  13.456
39089W        W11349  42.792   6.207  14.491
39090W        W11350  15.662  37.519   0.523
39091W        W11351  20.143  21.054  10.613
39092W        W11352  40.577   6.489   2.099
39093W        W11353  11.316  12.699   0.328
39094W        W11354  34.434  37.875  14.911
39095W        W11355   7.207  37.826   3.111
39096W        W11356  29.260  16.852   2.438
39097W        W11357  23.564  24.918  12.620
39098W        W11358  17.837  16.168  10.453
39099W        W11359  41.337  25.222   2.241
39100W        W11360  39.755   7.977   0.732
39101W        W11361   0.711   8.462   3.823
39102W        W11362  38.804  15.227   0.939
39103W        W11363  33.484   3.481  14.725
39104W        W11364  38.503   3.690  12.350
39105W        W11365  13.093  13.722   3.200
39106W        W11366  43.795  17.139  10.589
39107W        W11367  31.618  13.724  11.077
39108W        W11368   3.528  33.020  12.123
39109W        W11369  12.091  36.026   2.636
39110W        W11370  22.888   7.787   5.410
39111W        W11371  38.404  22.921  10.708
39112W        W11372  30.675  39.944  14.005
39113W        W11373  31.201  14.721   4.365
39114W        W11374  14.921  37.459   1.872
39115W        W11375   3.330  42.905  13.937
39116W        W11376  24.612  27.572  12.636
39117W        W11377  42.297  37.564   3.793
39118W        W11378  33.177  10.704   1.130
39119W        W11379   4.906   0.120  13.522
39120W        W11380  16.554  39.578   3.893
39121W        W11381   6.273   3.252  11.947
39122W        W11382   7.536  19.310  14.158
39123W        W11383  42.325  14.628   0.422
39124W        W11384  32.986  34.654   1.142
39125W        W11385  30.099  13.097  12.126
39126W        W11386  32.687  28.984  12.178
39127W        W11387  10.656  27.859   3.207
39128W        W11388  10.751  23.720   4.446
39129W        W11389  35.514  44.329   3.332
39130W        W11390  19.563   5.419   4.035
39131W        W11391  40.529  29.587  11.046
39132W        W11392  25.515  39.574   1.283
39133W        W11393  23.478  11.073   3.406
39134W        W11394  17.599  16.721   3.569
39135W        W11395  44.743  44.495  12.200
39136W        W11396   1.903  27.540   2.867
39137W        W11397   2.947  44.353  12.075
39138W        W11398  32.542  28.415   2.886
39139W        W11399   0.457  19.145   0.925
39140W        W11400  14.129   8.757   5.018
39141W        W11401  40.831  24.285   4.211
39142W        W11402  10.074  42.031  14.026
39143W        W11403  30.565  36.022  13.026
39144W        W11404   2.323  31.370   3.251
39145W        W11405  10.859  23.223   4.482
39146W        W11406   7.940   3.892  11.454
39147W        W11407  22.151  16.680   3.138
39148W        W11408  12.608  16.738  12.604
39149W        W11409  20.716  10.456  10.988
39150W        W11410  17.205  26.973  11.568
39151W        W11411   0.766  16.262  12.481
39152W        W11412  22.109  26.068  12.504
39153W        W11413   0.374  20.478  11.517
39154W        W11414  25.029  31.523  12.890
39155W        W11415  17.269  34.635  14.907
39156W        W11416  13.339  39.825   1.893
39157W        W11417  17.721   3.914  14.732
39158W        W11418  16.990  15.489  10.234
39159W        W11419  17.296  22.188   4.372
39160W        W11420  13.193  21.523   4.798
39161W        W11421  16.689  35.203   0.946
39162W        W11422  42.739   7.971  11.208
39163W        W11423  10.355  40.058  12.589
39164W        W11424  21.216   3.224  12.125
39165W        W11425  32.434  27.004  10.444
39166W        W11426   6.857  44.447   0.459
39167W        W11427  22.119   4.739   2.325
39168W        W11428   7.291  39.341  12.921
39169W        W11429  42.860   3.242  14.344
39170W        W11430   5.238  15.852  14.719
39171W        W11431  41.652  33.001   4.214
39172W        W11432  17.383  12.645   4.107
39173W        W11433  32.909   2.284   4.722
39174W        W11434  21.890  33.838   2.476
39175W        W11435  34.382  20.501  11.966
39176W        W11436   9.372  34.324   1.636
39177W        W11437  20.463  21.970   0.998
39178W        W11438  42.102  21.732   3.775
39179W        W11439  16.766  10.640   1.770
39180W        W11440  27.646  35.877   3.090
39181W        W11441  12.888   8.419  12.090
39182W        W11442  10.189  37.931   3.814
39183W        W11443   9.720  40.764   2.801
39184W        W11444  37.072  44.766  12.405
39185W        W11445  23.109  30.446  11.562
39186W        W11446   8.273  40.252  14.740
39187W        W11447  35.502  14.420  10.659
39188W        W11448  23.422  30.128   2.928
39189W        W11449  41.066  12.086  13.442
39190W        W11450  44.492   6.402  12.028
39191W        W11451  43.011  41.581   5.048
39192W        W11452  24.269  23.687   3.751
39193W        W11453   5.729   7.842   3.620
39194W        W11454  34.424   4.863   2.243
39195W        W11455  11.394   8.601   2.128
39196W        W11456  28.158  12.359   1.257
39197W        W11457  33.018  31.671   0.283
39198W        W11458  20.545  19.326   2.280
39199W        W11459  37.835   3.793   4.130
39200W        W11460  39.091  14.765  14.976
39201W        W11461   9.867  21.007  12.355
39202W        W11462  39.096  41.171  11.958
39203W        W11463  43.951  34.670   4.082
39204W        W11464  23.007  20.648   1.996
39205W        W11465  40.328  42.684  14.216
39206W        W11466  44.479  36.918  11.100
39207W        W11467   6.952  44.428   2.895
39208W        W11468  32.874  26.768  13.901
39209W        W11469  36.487  42.354   4.814
39210W        W11470  32.967  33.189  12.231
39211W        W11471  20.578  23.463  11.354
39212W        W11472  44.671  25.284   1.783
39213W        W11473  33.363   5.154  10.643
39214W        W11474   9.107  15.006   0.813
39215W        W11475  26.505  16.494   2.277
39216W        W11476  15.494  30.820   3.237
39217W        W11477  38.431  22.060   0.841
39218W        W11478   9.313  27.679   3.521
39219W        W11479  20.868  27.502  12.419
39220W        W11480  41.601  10.233   0.374
39221W        W11481  32.664  43.226   2.224
39222W        W11482  10.435   6.222  13.350
39223W        W11483   7.996  29.781   2.868
39224W        W11484   8.120   9.777  11.692
39225W        W11485   2.528   5.840  14.259
39226W        W11486   5.897  17.941  11.570
39227W        W11487  16.866  13.878   4.137
39228W        W11488  12.173  20.713  10.615
39229W        W11489   8.171   6.821  13.391
39230W        W11490  14.545  18.525  12.152
39231W        W11491   8.867   4.122   3.669
39232W        W11492  44.483  27.913  10.453
39233W        W11493  28.931  43.979  13.353
39234W        W11494  17.680  41.356  10.920
39235W        W11495   7.908  22.767   3.685
39236W        W11496  31.723  34.443   2.378
39237W        W11497  34.524  16.575   0.421
39238W        W11498   7.214   9.140  10.747
39239W        W11499  41.707  25.101  13.504
39240W        W11500   9.172  11.658  12.413
39241W        W11501   9.378  21.207  12.446
39242W        W11502  10.689  38.411   2.399
39243W        W11503  36.060  27.664  14.968
39244W        W11504   7.576  44.388   1.771
39245W        W11505   1.173  37.214   4.231
39246W        W11506  32.812  12.918   3.210
39247W        W11507  21.648  17.307  14.856
39248W        W11508  31.717  15.992   0.268
39249W        W11509  12.930  25.590   3.854
39250W        W11510  14.945  11.515   0.788
39251W        W11511  16.326   5.261  14.034
39252W        W11512  37.924   6.457  12.502
39253W        W11513   4.312  13.778   2.639
39254W        W11514  40.675   1.507   2.224
39255W        W11515   4.316   2.593   4.554
39256W        W11516   1.980  29.533  11.088
39257W        W11517   7.909   1.393  12.986
39258W        W11518  31.093  16.109  11.108
39259W        W11519  27.830   9.260  14.462
39260W        W11520  25.659  22.126  14.410
39261W        W11521  26.038  15.643   1.268
39262W        W11522  20.611  36.905  11.566
39263W        W11523  28.899  43.727   3.296
39264W        W11524  24.667  40.680  12.429
39265W        W11525  16.559  22.447  14.172
39266W        W11526  12.937  11.217   9.794
39267W        W11527   5.655  30.101  10.135
39268W        W11528  11.804   5.745   1.650
39269W        W11529  11.269  11.398  10.845
39270W        W11530  39.855   4.667  13.251
39271W        W11531  42.401  23.240  12.973
39272W        W11532  24.898   2.675  14.840
39273W        W11533  43.407  36.497   2.394
39274W        W11534   3.520   6.168  14.449
39275W        W11535  11.678  37.032  11.950
39276W        W11536  13.243  21.140  11.161
39277W        W11537  27.515  39.853  14.123
39278W        W11538  12.099  21.777   0.906
39279W        W11539  37.736   6.425   1.049
39280W        W11540  42.264  10.753  10.544
39281W        W11541  18.692  18.507  14.688
39282W        W11542  31.950  30.491  10.731
39283W        W11543   7.227   6.313   1.805
39284W        W11544  30.827   8.910   0.817
39285W        W11545  38.614   8.742  14.374
39286W        W11546  30.955   9.492   0.722
39287W        W11547  16.022  44.415  11.106
39288W        W11548  23.671  34.948   2.257
39289W        W11549  24.136  43.085   3.241
39290W        W11550  17.012  44.233  11.045
39291W        W11551  30.126  15.740   4.528
39292W        W11552   1.916   5.537  12.951
39293W        W11553  34.746  28.623  14.715
39294W        W11554  44.949  21.251  11.260
39295W        W11555  37.964  30.070   0.048
39296W        W11556  30.957  30.880  13.862
39297W        W11557  35.801   5.346   1.452
39298W        W11558  10.863  39.582  10.890
39299W        W11559  20.804  16.904   1.500
39300W        W11560   5.785  32.331   2.045
39301W        W11561  29.823  25.995   0.174
39302W        W11562   6.169  28.959  14.977
39303W        W11563  39.334   1.941  13.436
39304W        W11564  34.314  38.029   3.124
39305W        W11565  11.691  23.034   1.408
39306W        W11566  17.057  36.151   4.078
39307W        W11567  26.326   3.733   2.250
39308W        W11568  23.522  33.069   0.857
39309W        W11569   8.243  18.055  12.019
39310W        W11570  40.001  12.323  14.898
39311W        W11571  35.471  28.480   2.490
39312W        W11572  19.504  17.732   3.601
39313W        W11573  39.766  20.284   1.627
39314W        W11574  34.517  18.765   5.462
39315W        W11575  30.348  16.390  13.324
39316W        W11576  33.791  21.219  11.968
39317W        W11577  18.678  33.052  13.841
39318W        W11578  16.901  14.321  11.014
39319W        W11579   2.782  25.690   0.736
39320W        W11580  13.419  23.677   3.340
39321W        W11581  42.478  11.534   4.443
39322W        W11582   2.815  23.391  13.810
39323W        W11583  37.372   0.856  11.562
39324W        W11584  31.454  20.239   1.803
39325W        W11585   1.367   3.277  13.997
39326W        W11586  38.439   0.719   4.563
39327W        W11587  43.462   5.451  13.546
39328W        W11588  18.421   7.715   2.082
39329W        W11589  42.770  12.862  14.112
39330W        W11590  22.056  36.553   2.780
39331W        W11591   5.831  13.244   3.885
39332W        W11592  19.807   7.687  14.260
39333W        W11593  36.403   5.867   4.139
39334W        W11594  19.559  20.745   1.477
39335W        W11595  19.583  21.236  12.328
39336W        W11596  34.030  33.194  13.326
39337W        W11597  44.717  19.250  13.018
39338W        W11598   1.957  10.777  12.501
39339W        W11599  19.590  31.024   4.570
39340W        W11600  11.649  20.461   3.434
39341W        W11601  30.558   5.878   0.450
39342W        W11602  33.423  40.802  13.421
39343W        W11603   3.749  34.586   4.672
39344W        W11604  23.177  25.444   9.824
39345W        W11605   1.474  14.454  12.624
39346W        W11606   1.448  14.631  14.466
39347W        W11607   7.377   5.036   4.512
39348W        W11608   8.815  12.268   2.996
39349W        W11609   4.903  17.998   2.782
39350W        W11610   8.996  22.619  12.384
39351W        W11611  35.562  14.170  14.756
39352W        W11612  33.633   7.122  13.345
39353W        W11613  36.849  40.809   4.843
39354W        W11614  27.553   3.852  12.395
39355W        W11615  10.148  36.593   3.849
39356W        W11616  25.755   6.831   4.581
39357W        W11617  23.966  36.106   4.158
39358W        W11618  27.748  19.517  12.912
39359W        W11619  22.083   9.832  10.747
39360W        W11620  33.390   9.615   2.824
39361W        W11621  35.080  44.996  11.934
39362W        W11622  25.417  38.886   4.822
39363W        W11623  38.980  41.304   5.007
39364W        W11624  29.600  11.790  10.629
39365W        W11625  40.465   8.395   1.455
39366W        W11626  12.041  24.697  11.393
39367W        W11627   2.701  36.588  12.368
39368W        W11628  21.651  40.353  12.425
39369W        W11629  32.352   2.374   4.617
39370W        W11630   6.230  33.671  13.271
39371W        W11631  14.628  28.148   2.663
39372W        W11632   6.187   5.459   4.841
39373W        W11633  24.569   2.218  13.083
39374W        W11634  37.740  15.175   0.993
39375W        W11635  10.762  30.180   3.832
39376W        W11636   9.831  16.344   4.545
39377W        W11637   0.456   6.321   2.838
39378W        W11638  27.717  40.287  10.164
39379W        W11639   7.079   6.812  10.886
39380W        W11640  37.546  24.311   5.083
39381W        W11641  12.234   9.163  14.656
39382W        W11642  21.213  43.017  12.820
39383W        W11643   5.032   0.681  13.876
39384W        W11644   9.250  33.706  12.527
39385W        W11645   0.366  30.245  13.372
39386W        W11646  32.217  16.237  11.406
39387W        W11647  25.011   4.226   4.046
39388W        W11648  13.739  36.452   2.670
39389W        W11649  43.693  36.009   2.056
39390W        W11650  17.301  40.913  10.006
39391W        W11651  35.855   0.744   3.765
39392W        W11652  18.499  34.973   1.703
39393W        W11653  17.362  44.326  10.061
39394W        W11654  11.734  25.571   1.688
39395W        W11655  31.982  44.382   3.581
39396W        W11656  38.529  22.951  13.307
39397W        W11657  42.460   3.798  13.624
39398W        W11658  22.801   2.246  10.938
39399W        W11659  36.512   7.150   0.899
39400W        W11660  38.099   3.407   3.143
39401W        W11661  35.129  31.505  10.920
39402W        W11662  44.065  24.682   3.811
39403W        W11663  11.223  44.521   3.240
39404W        W11664  18.828  13.380  13.018
39405W        W11665  13.353  17.328  12.425
39406W        W11666  29.563  11.116   2.252
39407W        W11667  14.779  27.308   5.031
39408W        W11668  18.555   6.900   3.424
39409W        W11669  29.860  20.564  13.182
39410W        W11670  13.611  10.331  13.475
39411W        W11671  10.195   0.795   3.382
39412W        W11672   2.532   7.887   0.776
39413W        W11673  24.084  39.767  13.584
39414W        W11674  32.285  16.530   3.198
39415W        W11675  26.650  27.916   0.977
39416W        W11676  33.218  21.927   4.707
39417W        W11677   3.721  27.393   2.877
39418W        W11678  10.592  32.063  13.425
39419W        W11679  10.178  33.464   0.218
39420W        W11680  32.029  20.518   4.578
39421W        W11681  18.406  15.154   0.129
39422W        W11682  28.140  29.860   4.171
39423W        W11683  41.463   2.287   0.228
39424W        W11684   5.518  38.390  10.630
39425W        W11685  13.250  33.946  13.389
39426W        W11686   8.663  20.515  14.833
39427W        W11687  25.876   5.427  12.979
39428W        W11688  33.149  34.161  13.487
39429W        W11689  41.454   7.655  11.550
39430W        W11690  19.757  38.822   3.677
39431W        W11691   5.293  12.864  12.563
39432W        W11692  42.973  10.787  11.620
39433W        W11693  41.147  35.442   4.686
39434W        W11694  43.934  23.674   1.895
39435W        W11695   0.761   4.849   0.489
39436W        W11696  13.211   5.636   4.088
39437W        W11697   0.160  21.683   0.751
39438W        W11698   3.887  27.137  11.888
39439W        W11699  16.137  36.469  12.580
39440W        W11700  33.660  30.656  13.636
39441W        W11701   3.448  20.293   2.403
39442W        W11702  40.161  41.968   2.009
39443W        W11703   8.587   6.871  12.569
39444W        W11704  40.439  37.851   2.369
39445W        W11705  40.012  13.762   2.370
39446W        W11706  41.010  41.264   3.430
39447W        W11707  39.570  25.005   2.098
39448W        W11708  44.391  39.700  10.445
39449W        W11709   6.802  18.495  13.469
39450W        W11710  12.493  21.092  12.451
39451W        W11711  20.531  20.610  10.581
39452W        W11712  37.330  31.149  12.147
39453W        W11713   3.313   8.627  13.928
39454W        W11714  34.030  22.781  11.241
39455W        W11715  10.323  24.609  11.531
39456W        W11716   0.227  30.584   2.460
39457W        W11717  32.558  13.298  14.117
39458W        W11718  16.215  28.196   2.926
39459W        W11719  41.883  18.199   4.716
39460W        W11720  20.216  43.533  12.952
39461W        W11721  30.851  37.968  11.317
39462W        W11722  11.342  32.653  10.586
39463W        W11723  39.114   5.891  13.532
39464W        W11724  19.996  10.373   4.175
39465W        W11725  27.091  23.289   4.220
39466W        W11726  11.311  29.763   4.425
39467W        W11727   8.791  37.083  11.329
39468W        W11728  31.222  31.156  14.337
39469W        W11729  37.878  33.173  11.568
39470W        W11730  31.913  37.453  10.653
39471W        W11731  28.041  32.806  11.574
39472W        W11732   4.295  17.261  14.145
39473W        W11733  39.756  42.596   3.839
39474W        W11734  16.942  34.803  10.790
39475W        W11735  23.694   9.391  14.861
39476W        W11736   8.453  37.615  13.294
39477W        W11737  25.523  18.072   0.616
39478W        W11738  24.030   7.888   4.191
39479W        W11739  28.204  35.666   0.287
39480W        W11740   8.804  44.933   4.161
39481W        W11741  37.268  14.665   4.995
39482W        W11742  22.271  13.689  13.719
39483W        W11743  42.303  20.138   0.432
39484W        W11744   2.288  31.971  14.916
39485W        W11745   7.135  21.036  14.627
39486W        W11746  15.281  16.742   1.699
39487W        W11747   5.988   8.288  11.245
39488W        W11748  16.057  11.226   2.905
39489W        W11749  19.746  25.824  14.970
39490W        W11750   6.224   6.160  14.898
39491W        W11751   8.789  43.682  14.331
39492W        W11752  16.205  36.477   3.248
39493W        W11753   0.647  13.924   1.320
39494W        W11754  42.417  24.038  14.985
39495W        W11755  40.932  13.424   0.242
39496W        W11756  32.487  23.685   3.264
39497W        W11757   6.942  13.669  14.478
39498W        W11758  35.877  23.680  11.193
39499W        W11759  37.302  38.389  14.030
39500W        W11760  22.469  43.939  13.375
39501W        W11761   8.388   6.524   2.197
39502W        W11762   2.231  31.968  12.929
39503W        W11763   2.618   9.339   3.155
39504W        W11764  11.034  29.467   3.587
39505W        W11765   7.684  44.930  11.209
39506W        W11766  12.121  31.052   1.814
39507W        W11767  23.160  41.987   3.347
39508W        W11768  12.578  30.435  10.195
39509W        W11769  42.999  34.115  11.064
39510W        W11770  35.956   2.161  13.843
39511W        W11771  13.509  40.687   4.314
39512W        W11772  13.373  44.268  12.574
39513W        W11773  16.968  17.757  14.269
39514W        W11774  24.679   4.317   1.912
39515W        W11775   8.148  39.584  12.057
39516W        W11776  43.412  26.079   3.174
39517W        W11777   3.295  43.547  12.531
39518W        W11778  35.978  26.266   4.535
39519W        W11779  21.698  36.202   2.587
39520W        W11780  23.427  40.129  14.472
39521W        W11781  27.147  44.766   1.323
39522W        W11782  29.599  27.114  10.693
39523W        W11783  20.893  19.075  10.090
39524W        W11784  24.004  30.897   1.394
39525W        W11785  35.498   5.848  14.265
39526W        W11786  25.197  41.030   1.001
39527W        W11787  40.150  37.821  12.667
39528W        W11788  37.644  15.855   9.984
39529W        W11789  23.625   4.916  12.008
39530W        W11790  32.965  20.094  10.384
39531W        W11791  27.256  21.251  14.952
39532W        W11792   8.437  20.222  11.080
39533W        W11793   6.151  26.965  12.609
39534W        W11794  41.218  20.253  13.052
39535W        W11795  37.958  21.756   0.741
39536W        W11796   6.659  38.613  14.435
39537W        W11797  29.478  10.596  11.102
39538W        W11798  31.678  12.798   0.765
39539W        W11799   1.012  12.681  12.200
39540W        W11800   8.389  43.984  14.496
39541W        W11801  12.802  25.274  12.812
39542W        W11802  12.885  39.316   3.172
39543W        W11803  32.823   0.730   1.896
39544W        W11804   3.886  15.152   1.191
39545W        W11805  23.648  28.534   1.991
39546W        W11806  32.656  44.547  14.330
39547W        W11807  17.044  21.022  12.949
39548W        W11808  37.977   2.429   3.174
39549W        W11809  22.460  40.794  12.529
39550W        W11810   0.522  14.342   2.233
39551W        W11811  18.155   9.692   3.925
39552W        W11812  39.934   9.192   4.076
39553W        W11813   6.119  16.913  14.499
39554W        W11814  33.814  38.810   4.367
39555W        W11815  33.614   5.836   1.292
39556W        W11816  13.189  11.846  13.361
39557W        W11817  30.525  11.410  13.890
39558W        W11818  11.009  17.070   1.021
39559W        W11819  19.474  26.535   5.093
39560W        W11820   5.729  30.195   1.239
39561W        W11821  42.767  17.617  12.429
39562W        W11822  21.995  11.558   1.803
39563W        W11823   5.115   8.634   0.885
39564W        W11824   3.972   8.626  13.264
39565W        W11825  17.245  20.096  14.482
39566W        W11826  14.350  44.985  14.883
39567W        W11827  40.608  16.714  12.134
39568W        W11828  14.881  10.614  13.483
39569W        W11829  33.585  21.574  14.946
39570W        W11830  15.199  11.465   1.249
39571W        W11831  38.900  41.001  12.414
39572W        W11832   6.941   9.848   1.423
39573W        W11833  16.712  35.353  13.557
39574W        W11834  19.805  30.509  13.570
39575W        W11835  40.303  41.482   3.608
39576W        W11836  18.729  13.464   1.908
39577W        W11837  37.145  30.405  14.081
39578W        W11838  12.316  15.557   2.376
39579W        W11839  41.507  19.723   0.252
39580W        W11840  19.497  16.697   3.727
39581W        W11841  26.081  13.104   1.916
39582W        W11842  22.969  36.310  10.919
39583W        W11843   8.719  23.953  12.423
39584W        W11844   0.776   4.789  10.660
39585W        W11845   2.247  20.816  14.357
39586W        W11846  24.407  10.284  14.033
39587W        W11847   7.191  37.936   1.159
39588W        W11848   0.898  16.712  10.352
39589W        W11849   3.726  43.299  11.633
39590W        W11850   2.785  38.883   1.673
39591W        W11851  11.206  43.363  11.649
39592W        W11852  31.134  36.187   4.103
39593W        W11853  10.442   9.502   3.205
39594W        W11854  16.723   5.316  12.835
39595W        W11855  24.686  35.112  12.953
39596W        W11856  23.614  16.902  13.782
39597W        W11857  44.532  16.647  12.510
39598W        W11858  43.946  21.201   1.179
39599W        W11859  36.064  38.914  12.124
39600W        W11860  41.982  42.561   2.185
39601W        W11861  26.959  40.170  13.048
39602W        W11862  28.412  36.356   0.230
39603W        W11863  19.348   6.273  14.026
39604W        W11864  24.342  25.771   4.593
39605W        W11865   2.450  43.520  12.178
39606W        W11866  33.572   5.949  12.272
39607W        W11867   4.919  25.021   2.326
39608W        W11868  38.824  43.369  12.452
39609W        W11869   8.169   9.881  10.755
39610W        W11870  38.837  36.887  14.249
39611W        W11871   6.394  13.681   2.827
39612W        W11872  26.568  12.205   0.348
39613W        W11873  18.638  37.340  11.937
39614W        W11874  41.456  30.483  14.798
39615W        W11875  27.449  31.502  14.719
39616W        W11876   4.246   4.180  14.778
39617W        W11877  32.444  36.403   4.825
39618W        W11878  32.739   1.436   2.390
39619W        W11879   6.493  36.688   0.384
39620W        W11880  21.604  36.213  14.758
39621W        W11881  11.726  13.013  10.225
39622W        W11882  18.792   7.025  12.805
39623W        W11883  39.547   9.934   1.391
39624W        W11884  16.043  22.462  14.066
39625W        W11885  25.752  34.171   1.890
39626W        W11886  11.035  16.564  12.117
39627W        W11887  33.666  15.781   4.921
39628W        W11888  40.779  11.674  13.436
39629W        W11889   3.353   1.779  12.835
39630W        W11890   3.723   0.531   4.723
39631W        W11891  37.202  28.404   3.620
39632W        W11892  40.083  13.877  12.117
39633W        W11893  18.576  11.406   0.449
39634W        W11894  30.896   8.330  14.500
39635W        W11895  37.796  33.856  14.909
39636W        W11896  36.910  28.595  13.035
39637W        W11897  14.730  15.687  13.558
39638W        W11898   9.313  16.539   4.142
39639W        W11899  42.513  33.032   4.807
39640W        W11900  26.677  31.370  14.222
39641W        W11901  31.891  15.672   3.140
39642W        W11902  43.492  32.395  10.951
39643W        W11903  15.870   0.460   0.556
39644W        W11904  27.385  24.942   2.460
39645W        W11905   4.735  13.074   1.069
39646W        W11906  34.011  14.576   1.508
39647W        W11907   5.547   7.338  11.689
39648W        W11908  32.576   6.890   2.790
39649W        W11909  34.577   2.860  10.610
39650W        W11910  22.218  13.083   1.879
39651W        W11911  42.239  35.926   0.657
39652W        W11912  16.401  39.041  11.546
39653W        W11913   6.887   3.389  14.598
39654W        W11914  33.068  25.910  13.619
39655W        W11915  35.079   6.188   0.767
39656W        W11916  37.036  34.364   0.283
39657W        W11917  12.247  28.882   1.262
39658W        W11918  41.969  36.287  12.429
39659W        W11919  10.704  11.797  12.535
39660W        W11920  35.415  24.056  14.867
39661W        W11921  28.461  20.746  14.444
39662W        W11922  40.776  34.922  10.252
39663W        W11923  12.136  32.203   1.140
39664W        W11924  20.905  27.156   3.147
39665W        W11925  17.107  27.354   0.327
39666W        W11926  17.346  22.562   4.935
39667W        W11927  32.107  35.698   2.973
39668W        W11928  18.052  10.533  10.964
39669W        W11929  16.178  43.942  11.140
39670W        W11930  18.491  38.750   1.398
39671W        W11931  25.796  22.288  13.520
39672W        W11932  15.742  39.951   1.906
39673W        W11933   9.973  44.777   1.632
39674W        W11934  34.027  15.656   0.285
39675W        W11935  44.770  14.360  13.027
39676W        W11936  18.446  44.710   0.037
39677W        W11937  21.233  31.177  12.771
39678W        W11938  29.166  10.648  10.683
39679W        W11939  24.543  24.257  12.039
39680W        W11940  34.129  12.769  12.917
39681W        W11941  34.984   4.716   4.760
39682W        W11942  10.290  28.502  11.376
39683W        W11943   5.153  25.941  13.787
39684W        W11944  18.223   4.522   2.583
39685W        W11945  44.967  20.498  14.260
39686W        W11946  11.240   1.583   4.020
39687W        W11947  36.370   8.411   4.614
39688W        W11948  22.998  18.247  12.472
39689W        W11949  14.473  15.732  14.929
39690W        W11950  33.814   5.770  13.914
39691W        W11951  30.051  36.003  14.346
39692W        W11952  22.498  32.878  12.437
39693W        W11953  25.783  43.511   1.298
39694W        W11954  35.345  30.078  13.986
39695W        W11955   7.770  44.226  11.913
39696W        W11956  42.785  16.082  14.476
39697W        W11957  35.055  44.721  14.704
39698W        W11958  17.783  36.988   2.301
39699W        W11959  31.617  11.914   3.177
39700W        W11960   7.328  27.614   3.787
39701W        W11961  30.441  31.895   0.261
39702W        W11962  28.237  14.673   1.230
39703W        W11963  14.347  44.444   3.318
39704W        W11964  13.587  23.200   3.560
39705W        W11965   9.317  32.593   0.290
39706W        W11966  17.600   2.436   1.170
39707W        W11967  22.117  25.628   3.200
39708W        W11968  11.714  13.370  12.214
39709W        W11969  17.287   7.655  12.833
39710W        W11970  15.600  15.917  12.457
39711W        W11971  14.532  10.807  14.337
39712W        W11972  42.309  14.409  12.072
39713W        W11973   2.295  26.283  12.999
39714W        W11974  34.801  29.368  14.695
39715W        W11975  42.211  33.519   2.364
39716W        W11976   7.154  40.816  14.034
39717W        W11977   1.167   9.537   4.855
39718W        W11978  35.747  20.742  13.617
39719W        W11979  37.386  21.447  13.423
39720W        W11980  22.030   4.482   1.897
39721W        W11981  17.545   8.267   0.371
39722W        W11982  24.530  35.801  13.931
39723W        W11983  26.408  39.481   0.459
39724W        W11984  17.541  24.292  13.225
39725W        W11985   4.801   0.314  11.633
39726W        W11986  27.002  32.778   1.660
39727W        W11987  23.461  34.949  14.591
39728W        W11988   0.472  35.995   3.259
39729W        W11989  15.353   7.910   1.674
39730W        W11990  31.046  40.156  10.488
39731W        W11991   8.054  17.710  10.514
39732W        W11992  10.031  38.459   4.151
39733W        W11993  33.956  20.850  13.362
39734W        W11994  42.840  26.170   1.146
39735W        W11995  31.339  36.346  13.590
39736W        W11996  16.843  27.610  14.049
39737W        W11997   3.075  11.224  14.208
39738W        W11998  44.232   7.413   3.655
39739W        W11999  36.798  17.676  12.479
39740W        W12000  23.698  40.040   3.607
39741W        W12001  20.025  19.098  14.264
39742W        W12002  11.245  19.663  14.352
39743W        W12003  15.548  43.420   4.853
39744W        W12004  31.672  11.401  13.344
39745W        W12005  17.486   6.434  14.888
39746W        W12006  36.482  23.725   2.784
39747W        W12007  32.026   3.739   2.911
39748W        W12008  41.275  36.122   3.724
39749W        W12009  32.455  15.754  12.073
39750W        W12010   3.651  13.814  12.247
39751W        W12011  30.500  34.907  12.858
39752W        W12012  34.954   5.776   1.621
39753W        W12013   5.385  11.772   0.228
39754W        W12014  22.619  28.616   2.842
39755W        W12015  24.067  36.903  11.507
39756W        W12016  44.789  33.945  13.475
39757W        W12017  27.416  32.619   3.121
39758W        W12018   8.687  41.487  12.516
39759W        W12019   6.883  20.717   4.315
39760W        W12020  44.379   6.394  14.744
39761W        W12021   7.622  35.873  12.024
39762W        W12022  23.736  13.111   0.770
39763W        W12023  16.575  22.961  14.054
39764W        W12024  28.630  43.864   0.809
39765W        W12025  26.922  19.242  11.029
39766W        W12026  44.804  13.618  13.900
39767W        W12027  30.864  36.914  12.396
39768W        W12028  27.197  12.315  14.048
39769W        W12029  38.915  22.857   0.819
39770W        W12030  29.008  28.747   2.281
39771W        W12031  39.612   7.119  11.111
39772W        W12032  30.000  35.465   0.884
39773W        W12033  11.817  12.345  13.095
39774W        W12034   4.088  37.773   4.554
39775W        W12035  27.857  20.542   0.305
39776W        W12036   4.077  29.406  11.923
39777W        W12037   0.598  11.716  10.260
39778W        W12038  28.113  38.980   1.391
39779W        W12039   3.179  38.960   3.707
39780W        W12040  38.358  28.242   2.194
39781W        W12041  39.522  27.907   3.050
39782W        W12042  15.049  38.824  14.895
39783W        W12043  37.065   1.062   0.773
39784W        W12044   1.241  16.508  13.643
39785W        W12045  42.886  17.150  12.645
39786W        W12046  18.016   1.853  11.042
39787W        W12047  25.855  19.264   4.830
39788W        W12048  11.408  17.641  11.082
39789W        W12049   6.420  26.981   4.559
39790W        W12050  18.871  13.161  11.366
39791W        W12051  42.293  26.544  11.662
39792W        W12052  10.772  30.712  12.582
39793W        W12053  38.143  30.125  11.054
39794W        W12054  13.160  18.279   3.635
39795W        W12055  39.746   0.956  14.005
39796W        W12056  43.289  38.903   4.015
39797W        W12057   9.030   6.251  13.841
39798W        W12058  14.591  37.309   4.947
39799W        W12059  15.589  31.089   1.466
39800W        W12060   5.196  43.554  13.265
39801W        W12061  17.757   1.197  14.842
39802W        W12062   5.015  21.392  12.991
39803W        W12063  17.158  24.115  11.123
39804W        W12064  12.946  32.754   1.028
39805W        W12065  17.163  27.636  11.675
39806W        W12066  11.172  44.156  10.127
39807W        W12067  23.108   9.774  13.833
39808W        W12068  20.843   9.720   0.891
39809W        W12069  23.566  34.445   2.352
39810W        W12070   0.288  42.529   1.673
39811W        W12071  23.196  15.519  13.006
39812W        W12072   4.613  39.389  12.594
39813W        W12073  23.039   3.384  11.814
39814W        W12074  18.739  36.299   1.304
39815W        W12075  11.351   3.201   3.508
39816W        W12076  18.103  30.658  12.566
39817W        W12077   6.535  43.492   2.731
39818W        W12078  11.270  33.635   0.969
39819W        W12079   7.643  22.761   0.405
39820W        W12080   5.864   8.779   3.729
39821W        W12081  32.353  21.198   1.524
39822W        W12082  24.244  33.331   0.688
39823W        W12083  15.786  42.812   9.916
39824W        W12084   2.527  34.785  11.373
39825W        W12085  23.297   1.817   4.036
39826W        W12086  39.051  41.798   3.119
39827W        W12087  10.754   0.161   3.411
39828W        W12088  17.086  14.165  11.494
39829W        W12089   3.280  21.639   4.416
39830W        W12090  31.886  41.869   1.485
39831W        W12091  35.160  35.963   4.614
39832W        W12092  11.758  15.678   1.169
39833W        W12093  34.028  31.381   2.699
39834W        W12094   3.305  41.118   4.614
39835W        W12095   8.848  27.725   4.883
39836W        W12096  10.391   0.494   2.607
39837W        W12097  40.323  35.916   2.321
39838W        W12098  35.896  34.173  13.840
39839W        W12099  13.750  42.075   4.155
39840W        W12100  10.139  37.316  10.966
39841W        W12101   1.024  32.840   2.162
39842W        W12102  30.942  18.532  11.546
39843W        W12103  18.678  17.207   0.250
39844W        W12104  39.454  25.500   3.364
39845W        W12105  27.420  21.636  12.583
39846W        W12106   9.634  38.866  13.847
39847W        W12107   4.744  11.278  10.514
39848W        W12108  23.526  37.119  12.519
39849W        W12109  11.302  22.648   1.413
39850W        W12110  10.315  43.930   4.755
39851W        W12111  40.795  11.633   4.540
39852W        W12112  38.646  37.409   4.430
39853W        W12113  31.757  42.931   4.180
39854W        W12114  20.418  19.201  10.259
39855W        W12115  14.173  32.943   1.238
39856W        W12116  23.515  34.937   4.594
39857W        W12117  13.997  12.802  13.337
39858W        W12118  36.171  19.556  13.949
39859W        W12119  35.513  33.065   4.202
39860W        W12120  25.545  12.400  12.693
39861W        W12121  20.165  19.524   0.301
39862W        W12122  38.113  37.308   1.442
39863W        W12123   4.111  32.434  11.551
39864W        W12124   6.876  44.517  12.413
39865W        W12125  14.796  15.589   4.171
39866W        W12126   6.729  13.498  11.652
39867W        W12127  27.980  40.045  12.829
39868W        W12128  36.892  39.374  12.012
39869W        W12129  30.693  36.238  11.149
39870W        W12130   5.680  15.003   4.060
39871W        W12131  15.635  17.191   3.646
39872W        W12132  10.695   8.210  11.104
39873W        W12133  30.061   0.931  14.127
39874W        W12134  13.045  16.058   5.286
39875W        W12135  16.139  15.183   1.352
39876W        W12136  30.362  36.915  12.195
39877W        W12137  37.077  20.625   2.404
39878W        W12138  29.544  40.956   0.737
39879W        W12139  13.072   2.530   1.345
39880W        W12140  26.123  19.544  14.814
39881W        W12141  31.393  31.478  11.372
39882W        W12142  40.426  25.210  12.399
39883W        W12143  12.686  19.072   1.701
39884W        W12144  32.447  40.098  13.972
39885W        W12145  27.517  41.444   1.263
39886W        W12146   4.087  36.429   4.327
39887W        W12147  36.896  42.273  14.826
39888W        W12148   8.658  42.022  13.792
39889W        W12149  10.468  25.745  13.331
39890W        W12150  27.416  42.264   4.089
39891W        W12151  23.037   9.656  13.293
39892W        W12152   5.279  40.711  10.791
39893W        W12153  35.862  28.986   4.551
39894W        W12154  28.990  24.435  11.711
39895W        W12155  44.497  39.291  13.112
39896W        W12156  24.057   5.337   4.083
39897W        W12157  37.802  26.596   4.690
39898W        W12158  23.149   0.406  13.022
39899W        W12159  24.692  16.664   2.684
39900W        W12160   3.627  34.384   1.785
39901W        W12161   0.406  10.125  14.191
39902W        W12162   5.038  31.873   1.315
39903W        W12163  27.704   6.690  11.414
39904W        W12164  20.791  43.853   0.304
39905W        W12165  27.568   9.422  14.886
39906W        W12166   5.973  39.100  12.859
39907W        W12167   8.870  44.371   4.467
39908W        W12168  39.829  32.940  11.805
39909W        W12169   4.881  38.442  11.957
39910W        W12170   4.266   8.118  11.534
39911W        W12171  35.860  31.048   1.433
39912W        W12172  32.700  27.968  11.781
39913W        W12173  37.528   0.964   3.709
39914W        W12174  42.312   3.614  12.532
39915W        W12175  42.704  44.683  11.611
39916W        W12176  34.473  13.070   0.833
39917W        W12177  18.272  43.513   3.199
39918W        W12178  36.856  40.570  13.845
39919W        W12179  13.361  22.820   5.150
39920W        W12180  32.276  14.129   0.155
39921W        W12181   8.446   7.512  11.911
39922W        W12182  16.825  32.187   4.523
39923W        W12183  34.993  15.344   4.634
39924W        W12184   3.699  35.652   4.653
39925W        W12185  33.352  19.990   1.706
39926W        W12186  21.985  35.584  12.665
39927W        W12187  23.829  13.444   1.728
39928W        W12188  30.726  18.081   1.704
39929W        W12189  34.489  34.822  13.434
39930W        W12190  19.076  15.656   4.199
39931W        W12191  34.309  15.756   3.315
39932W        W12192  16.884  34.899   2.330
39933W        W12193  27.206  38.921  11.083
39934W        W12194  36.176  35.619   4.245
39935W        W12195  32.427   8.078  11.060
39936W        W12196   5.835  20.503  14.946
39937W        W12197   3.463  43.346  14.720
39938W        W12198  36.383  23.025  11.181
39939W        W12199   5.698  29.057  14.722
39940W        W12200  38.060   6.903   3.285
39941W        W12201  39.418  20.089   1.954
39942W        W12202  19.704   0.539  11.537
39943W        W12203  25.062  15.122   1.176
39944W        W12204  30.181  12.592  10.688
39945W        W12205  28.082  22.619   0.057
39946W        W12206  23.039  12.846   0.791
39947W        W12207   7.822  29.609  14.038
39948W        W12208   8.222   6.754  10.705
39949W        W12209  39.408  14.882  12.227
39950W        W12210  43.096  32.891   0.498
39951W        W12211  29.696  18.565   0.518
39952W        W12212   5.489   1.106   4.453
39953W        W12213  31.592  39.527   0.980
39954W        W12214  18.257   2.325  11.567
39955W        W12215  21.674  35.526  10.457
39956W        W12216  10.722  29.579   0.586
39957W        W12217  40.216  14.219  13.033
39958W        W12218  33.977   0.553  11.882
39959W        W12219  17.736  35.084  11.080
39960W        W12220   7.611   7.689   3.672
39961W        W12221  24.619  18.048   0.587
39962W        W12222   4.393  40.953  14.383
39963W        W12223  30.350  33.873  12.497
39964W        W12224  11.829  20.191  14.852
39965W        W12225  17.573  17.081   3.975
39966W        W12226  25.835  39.378   2.493
39967W        W12227  22.479  15.592   4.124
39968W        W12228  36.513  43.226  11.025
39969W        W12229  24.904  28.455  13.707
39970W        W12230   0.376   8.874   1.923
39971W        W12231  19.103  24.481  12.213
39972W        W12232  13.293   9.933   0.398
39973W        W12233  23.196  17.806  12.263
39974W        W12234  34.153  28.495   4.590
39975W        W12235  43.355   4.658  14.036
39976W        W12236  29.335  20.962  10.236
39977W        W12237   3.982  22.078  13.465
39978W        W12238  38.297  36.964  11.966
39979W        W12239  37.368   6.699   4.992
39980W        W12240  15.814  18.996  13.401
39981W        W12241   8.248  37.328  14.794
39982W        W12242  40.368  36.567  11.503
39983W        W12243  39.562  32.413   2.747
39984W        W12244  13.421  10.930  12.120
39985W        W12245  30.972  29.974  14.035
39986W        W12246  35.392  16.537  13.889
39987W        W12247   8.888  41.083   1.280
39988W        W12248  33.949   1.260   2.640
39989W        W12249  37.527  28.117  11.571
39990W        W12250  28.138   6.173   0.014
39991W        W12251  42.421  39.849  13.819
39992W        W12252  16.103  31.303   2.575
39993W        W12253  10.305   2.896   1.588
39994W        W12254  19.374  30.999  14.723
39995W        W12255  27.047  22.007   3.767
39996W        W12256  38.475  38.923  13.133
39997W        W12257  30.594  20.289  11.950
39998W        W12258   2.487  10.676   3.294
39999W        W12259   7.279  39.963  12.065
40000W        W12260  18.315  32.378  12.575
40001W        W12261  15.378   9.976  14.594
40002W        W12262  38.951  18.957   2.839
40003W        W12263   7.660   6.206   4.994
40004W        W12264   1.668  39.376  12.347
40005W        W12265   8.759  12.635   3.372
40006W        W12266  32.637  34.547  14.748
40007W        W12267  36.091  32.405   1.726
40008W        W12268  27.093  43.948   4.536
40009W        W12269  14.630  35.689   5.042
40010W        W12270  25.335  12.857  12.877
40011W        W12271  24.191  22.425   1.882
40012W        W12272  42.242  36.070   2.696
40013W        W12273  34.888  33.539   0.167
40014W        W12274  44.862  23.755  11.603
40015W        W12275  24.989  33.146  13.900
40016W        W12276   3.464  43.533   2.731
40017W        W12277  13.929  21.325   3.796
40018W        W12278  27.064  10.400   0.434
40019W        W12279  21.088   9.444  11.667
40020W        W12280  30.899  35.975   3.674
40021W        W12281  25.950   0.901  13.478
40022W        W12282  32.988  15.677   4.224
40023W        W12283  12.592  20.427  13.032
40024W        W12284  32.805  19.150   3.689
40025W        W12285  20.857  12.359   0.863
40026W        W12286   2.808   9.918  12.080
40027W        W12287   1.633   6.429   1.380
40028W        W12288  25.950   3.434   1.791
40029W        W12289  14.180  14.294   1.988
40030W        W12290  29.155   2.830   3.175
40031W        W12291  26.453  28.191  13.875
40032W        W12292  43.077  31.261  11.279
40033W        W12293  38.172  43.521   3.497
40034W        W12294   6.820   1.592  10.350
40035W        W12295  29.644  28.435   3.120
40036W        W12296  33.983  25.722   4.099
40037W        W12297  43.023   7.703  10.866
40038W        W12298  22.827  31.492  11.545
40039W        W12299  22.379  40.354   4.783
40040W        W12300  40.029  11.774   3.118
40041W        W12301  31.862  18.178  14.717
40042W        W12302   5.319   8.955  10.482
40043W        W12303   7.927  29.809  10.649
40044W        W12304  11.709  16.070   2.688
40045W        W12305  17.106  34.201  11.386
40046W        W12306   2.836  24.589  12.605
40047W        W12307  14.302  11.972  12.001
40048W        W12308  30.368  32.409   1.352
40049W        W12309   1.420  26.740   0.813
40050W        W12310  33.519  33.720  10.722
40051W        W12311  39.326   1.057  10.498
40052W        W12312  43.488  13.110  10.681
40053W        W12313  16.224  22.237  10.419
40054W        W12314  40.060  28.401  14.984
40055W        W12315   7.540   2.292   2.027
40056W        W12316   0.389  38.543  12.154
40057W        W12317  44.562   0.834   1.132
40058W        W12318  30.043  27.101  11.624
40059W        W12319  32.088  18.345   0.215
40060W        W12320   0.917  33.919  12.054
40061W        W12321  13.136  29.013  14.323
40062W        W12322  26.308  18.504   0.059
40063W        W12323  16.198  25.481  11.613
40064W        W12324  23.188   4.258   0.652
40065W        W12325  16.589  28.992   1.922
40066W        W12326  43.504  36.422   4.309
40067W        W12327   3.757  27.606   2.403
40068W        W12328  16.335   8.559  11.795
40069W        W12329  21.413  31.348   2.905
40070W        W12330   8.690  41.913   0.525
40071W        W12331  13.736  31.142  14.973
40072W        W12332  18.189  12.669  11.595
40073W        W12333  42.320  25.133   0.382
40074W        W12334  29.029  12.584  12.781
40075W        W12335  16.690  40.933   1.300
40076W        W12336   2.897   1.205   0.719
40077W        W12337   7.812   6.990   2.713
40078W        W12338  16.993  34.823  11.535
40079W        W12339  26.254  29.698   3.649
40080W        W12340  12.201   7.676  12.424
40081W        W12341   9.370   7.465   3.116
40082W        W12342  10.448  20.820   1.337
40083W        W12343  34.889  17.788  12.572
40084W        W12344  11.078  26.358   0.801
40085W        W12345  21.198  17.847   4.262
40086W        W12346  37.407  26.295   3.227
40087W        W12347  42.500  41.964  14.798
40088W        W12348  33.515  41.789   0.415
40089W        W12349   2.528  26.594   4.715
40090W        W12350   9.427   3.451   0.440
40091W        W12351  33.987  24.255  12.533
40092W        W12352  26.138  22.433  13.165
40093W        W12353  30.730   6.400  14.207
40094W        W12354   0.166   4.321   0.167
40095W        W12355  20.234  13.774  11.522
40096W        W12356  40.945  22.678  13.836
40097W        W12357  15.349  16.284  10.326
40098W        W12358  25.261  21.556  10.529
40099W        W12359  21.260  12.038   0.824
40100W        W12360   7.473  35.408  10.895
40101W        W12361  32.860  19.185   0.412
40102W        W12362  24.526  33.886  14.570
40103W        W12363  42.949  18.528  11.898
40104W        W12364  41.263   4.863   0.017
40105W        W12365  36.797  25.829  14.014
40106W        W12366  25.616  42.339   5.022
40107W        W12367   8.909  36.227  11.646
40108W        W12368   2.171  20.597   4.435
40109W        W12369   1.521   9.767   0.239
40110W        W12370   5.363  15.923  11.148
40111W        W12371  19.659  42.225  11.549
40112W        W12372  12.263  28.405  13.910
40113W        W12373  40.316  37.641  11.447
40114W        W12374  42.015  27.165   2.838
40115W        W12375  39.082   5.546   3.240
40116W        W12376  43.478   3.819   2.763
40117W        W12377   8.689  14.255  11.107
40118W        W12378  44.949  21.676  10.959
40119W        W12379  25.627  25.921   4.271
40120W        W12380  22.532   1.258   4.045
40121W        W12381   4.833  27.142  10.625
40122W        W12382  38.065   3.318   1.343
40123W        W12383  20.522  26.024  13.907
40124W        W12384  23.668  29.512  12.969
40125W        W12385  44.324   6.579   1.169
40126W        W12386   3.258   0.869  13.175
40127W        W12387  25.808  41.042  10.206
40128W        W12388  23.020  31.740   4.714
40129W        W12389  14.537  40.056  11.934
40130W        W12390  37.439  11.758  10.555
40131W        W12391   7.130  27.584  10.573
40132W        W12392  15.197  10.254  11.093
40133W        W12393   5.891  34.565   0.174
40134W        W12394   5.574  35.780  12.996
40135W        W12395  36.072  42.825  14.901
40136W        W12396  11.340  35.971  14.575
40137W        W12397  12.421  19.305   0.776
40138W        W12398  32.507  23.544  11.829
40139W        W12399  34.713  31.006  11.593
40140W        W12400  36.970  26.890   1.584
40141W        W12401  19.763  27.543   1.163
40142W        W12402  14.369  43.491  13.411
40143W        W12403   0.791  12.407  12.723
40144W        W12404  44.417   9.334   4.923
40145W        W12405  39.588   9.168  14.657
40146W        W12406  36.942  34.664  11.237
40147W        W12407  28.500   0.204  13.974
40148W        W12408  18.348  43.915  12.108
40149W        W12409   0.403  28.589   2.348
40150W        W12410   1.034  41.166   5.172
40151W        W12411   8.135  41.529   1.928
40152W        W12412  30.876   2.087  12.695
40153W        W12413   5.056  43.878  14.178
40154W        W12414   0.045  37.532   3.457
40155W        W12415  40.355   7.007   0.285
40156W        W12416  19.772  43.746  14.907
40157W        W12417  36.126  10.193   5.087
40158W        W12418  13.235  25.111   4.512
40159W        W12419  11.815  20.546   1.977
40160W        W12420  43.552  24.606  14.310
40161W        W12421  43.703  40.440  10.468
40162W        W12422  34.143  30.492   3.703
40163W        W12423  17.812   1.351  11.078
40164W        W12424  38.915  24.687  10.557
40165W        W12425   3.217  33.808   4.609
40166W        W12426  43.965  30.700  11.508
40167W        W12427  39.444  19.960   3.574
40168W        W12428   0.751   7.784   2.308
40169W        W12429  28.675  26.795   0.682
40170W        W12430  10.140   8.747   5.004
40171W        W12431  39.515  31.055  11.379
40172W        W12432  15.133  21.803   1.008
40173W        W12433   3.265   5.780  13.793
40174W        W12434  44.289  29.452   0.594
40175W        W12435   0.404  27.723   0.940
40176W        W12436  40.410  27.043   2.610
40177W        W12437   3.217  18.137   0.945
40178W        W12438  34.062   3.643   3.294
40179W        W12439   1.761  24.483   0.708
40180W        W12440   0.899  37.918   1.916
40181W        W12441  23.708  29.867   3.717
40182W        W12442  21.642  35.266  11.474
40183W        W12443   6.326  44.538  10.977
40184W        W12444  16.807  34.315   3.619
40185W        W12445  35.436  41.442   0.014
40186W        W12446  30.356   7.348  12.963
40187W        W12447   8.823  18.819   1.158
40188W        W12448  21.244  35.051   3.848
40189W        W12449  38.901   9.060   4.208
40190W        W12450  20.577  19.051   3.875
40191W        W12451  23.589  44.005  10.652
40192W        W12452  13.301  23.775   0.800
40193W        W12453  43.144  27.736  14.113
40194W        W12454  43.492   9.927  12.550
40195W        W12455  23.512  34.796   2.745
40196W        W12456  41.085  36.742  12.357
40197W        W12457  14.988  17.617  10.000
40198W        W12458  19.044  22.676   1.626
40199W        W12459  14.045  30.910   3.082
40200W        W12460  11.849  22.092   0.517
40201W        W12461   7.427  19.685   4.590
40202W        W12462  43.335  37.326   1.239
40203W        W12463  17.799   3.471  11.048
40204W        W12464  33.501   5.937  11.726
40205W        W12465  29.562   4.415   3.445
40206W        W12466  41.730  28.627   3.973
40207W        W12467  24.158   3.688  12.105
40208W        W12468   9.683  11.726   1.394
40209W        W12469   1.117   4.888  13.969
40210W        W12470   4.847  35.229  13.329
40211W        W12471  12.855  42.844   3.227
40212W        W12472  22.261  14.202   4.483
40213W        W12473  15.251  43.040   3.105
40214W        W12474  35.836  27.502  13.520
40215W        W12475   6.014  17.434  13.275
40216W        W12476   7.624   3.967   2.730
40217W        W12477  20.797  20.817   4.969
40218W        W12478  26.752   6.618  10.511
40219W        W12479   2.515  42.837   4.151
40220W        W12480  25.802  18.334  13.871
40221W        W12481  10.080   3.303   1.811
40222W        W12482  26.949  34.549   0.712
40223W        W12483  42.221  27.261   4.274
40224W        W12484   6.493  34.574   1.951
40225W        W12485  20.327  26.602  10.734
40226W        W12486  15.626  38.502  10.781
40227W        W12487  10.757   7.239   4.830
40228W        W12488  31.909  18.094   1.330
40229W        W12489  10.128   2.989   2.519
40230W        W12490  33.061   2.183  14.170
40231W        W12491  33.899   4.177   2.431
40232W        W12492  41.510  30.617   4.595
40233W        W12493  30.883  36.280   3.253
40234W        W12494   9.452  16.754  14.954
40235W        W12495   3.006  21.957   3.922
40236W        W12496  39.294  13.647  12.703
40237W        W12497  16.827  36.490  11.176
40238W        W12498  18.155  34.183   4.091
40239W        W12499  38.839   0.341  12.978
40240W        W12500   3.579   1.007  10.604
40241W        W12501  37.281   2.010  13.346
40242W        W12502   7.974  20.541   3.263
40243W        W12503  16.244   6.417  12.439
40244W        W12504  30.158   9.574   0.763
40245W        W12505   2.463  17.817  12.398
40246W        W12506   3.408  27.914  11.923
40247W        W12507  15.192  16.684   0.280
40248W        W12508  28.190   0.585  13.765
40249W        W12509  39.987   8.386  14.040
40250W        W12510  27.235  39.790  11.201
40251W        W12511  23.408   3.899   3.725
40252W        W12512  40.822  37.983  10.798
40253W        W12513  25.714   7.123  11.355
40254W        W12514  40.700  24.014  11.124
40255W        W12515  26.954  19.670  13.443
40256W        W12516  14.179  27.910   0.004
40257W        W12517  37.027  29.672  12.109
40258W        W12518   1.342  27.934   4.201
40259W        W12519  17.180  30.016  12.082
40260W        W12520  40.438  26.130   0.850
40261W        W12521  34.522  13.814   3.574
40262W        W12522  22.090  11.414  12.498
40263W        W12523  13.051  22.247   0.925
40264W        W12524  13.284  16.116   3.968
40265W        W12525   8.307   4.540   2.121
40266W        W12526  25.934  14.622   3.226
40267W        W12527   2.202  32.029   1.353
40268W        W12528  30.912  21.666  12.062
40269W        W12529  13.339   8.496   2.412
40270W        W12530   8.105  26.410   9.909
40271W        W12531  34.286  20.143  11.073
40272W        W12532  14.760  25.667   5.040
40273W        W12533  41.276   7.795   1.720
40274W        W12534  16.829  42.109  13.081
40275W        W12535  19.329   7.832   4.613
40276W        W12536  20.703  23.751  14.787
40277W        W12537  30.682  17.469   3.915
40278W        W12538  28.595  10.613  11.916
40279W        W12539  31.852  15.942  11.573
40280W        W12540  28.006  18.302   0.078
40281W        W12541  16.256  44.217  14.840
40282W        W12542  26.668  29.865  12.486
40283W        W12543   9.880  13.653  14.137
40284W        W12544   0.645  23.182   0.448
40285W        W12545   8.096   5.410   2.625
40286W        W12546   5.381  21.036  12.089
40287W        W12547  39.360  28.719   3.575
40288W        W12548  38.727  24.192   2.006
40289W        W12549  42.979  34.800   4.523
40290W        W12550  13.370  19.406  13.820
40291W        W12551   4.023  19.742  13.409
40292W        W12552   5.904  42.881   3.014
40293W        W12553  12.188  11.721  13.323
40294W        W12554  30.296  35.920   4.517
40295W        W12555  21.748  42.878  11.995
40296W        W12556   3.447  27.712   3.203
40297W        W12557  42.265  26.302  11.009
40298W        W12558  38.025  26.564  11.987
40299W        W12559  17.866  27.500   3.633
40300W        W12560  32.056  11.595   1.292
40301W        W12561  27.135  13.407  11.132
40302W        W12562   6.433  14.955  13.418
40303W        W12563  33.694  21.693  12.151
40304W        W12564  24.478  18.366  12.892
40305W        W12565  41.782  15.307  12.442
40306W        W12566  31.967  16.936  14.433
40307W        W12567  41.069   2.849  14.389
40308W        W12568  12.495  27.208   1.756
40309W        W12569  30.846  23.786   2.585
40310W        W12570  14.186  38.979  13.335
40311W        W12571  16.119  37.584   0.754
40312W        W12572  38.920  44.314  14.314
40313W        W12573   9.743  22.070   2.161
40314W        W12574  24.384  24.510  13.490
40315W        W12575   1.842  30.833  14.334
40316W        W12576  36.089  41.963  11.386
40317W        W12577  38.701  10.531   2.923
40318W        W12578   5.347  10.419   4.124
40319W        W12579  27.605   3.874  11.893
40320W        W12580  36.293   4.848   4.296
40321W        W12581  39.422  18.135  12.889
40322W        W12582   8.832   4.814   4.153
40323W        W12583  39.290   0.970  13.049
40324W        W12584   8.824   5.381  14.124
40325W        W12585   4.495  11.862   1.756
40326W        W12586  30.524  16.569  12.342
40327W        W12587  44.478  38.217  11.531
40328W        W12588  12.278   0.829   1.166
40329W        W12589  34.818   0.332   2.125
40330W        W12590   4.531  15.157  13.057
40331W        W12591  10.964  19.605  13.047
40332W        W12592  38.547  16.700   2.154
40333W        W12593  37.444   6.376  13.011
40334W        W12594   7.143  26.976  11.071
40335W        W12595  19.610  17.606   4.547
40336W        W12596   3.576   7.334   1.502
40337W        W12597  44.988   9.716   3.760
40338W        W12598   4.356  19.847  11.558
40339W        W12599  18.686   0.255   4.702
40340W        W12600  32.913  15.652   3.239
40341W        W12601  12.834   8.339  13.321
40342W        W12602   8.536  44.537   4.818
40343W        W12603  41.274  34.100   4.127
40344W        W12604   1.107  16.508   2.210
40345W        W12605  30.522  37.233   3.582
40346W        W12606  40.506  25.737  13.664
40347W        W12607  12.198  42.108  11.959
40348W        W12608  14.593  29.731   2.348
40349W        W12609  41.088  38.236  12.587
40350W        W12610  21.939   2.006   2.909
40351W        W12611   2.950  26.192   0.427
40352W        W12612   4.438   3.210   3.678
40353W        W12613   8.702  37.896   0.021
40354W        W12614  16.127  32.860   2.873
40355W        W12615  17.650  33.447   0.249
40356W        W12616  13.424  22.488  12.511
40357W        W12617   8.480  44.522   2.695
40358W        W12618  30.919  11.795   4.630
40359W        W12619  40.237  10.121  13.778
40360W        W12620  35.621  15.544   4.837
40361W        W12621  40.690   7.877  11.133
40362W        W12622  21.784  12.297   1.495
40363W        W12623  32.915   9.785   4.803
40364W        W12624  20.257   4.689   5.342
40365W        W12625  22.310  37.967  14.472
40366W        W12626  19.088  16.112  11.225
40367W        W12627  35.326  20.541   2.309
40368W        W12628  44.035  40.511   3.109
40369W        W12629  14.983  32.567   3.840
40370W        W12630  36.990  31.422   4.521
40371W        W12631   6.735   3.751  13.098
40372W        W12632  26.104  32.150  12.836
40373W        W12633   4.186   8.717   3.714
40374W        W12634  27.539  30.665   9.792
40375W        W12635  36.305  18.727  10.556
40376W        W12636  18.248   0.200  13.423
40377W        W12637  14.185  23.426  14.416
40378W        W12638   3.781   0.840  13.310
40379W        W12639  12.266  44.094   2.774
40380W        W12640  18.915   7.297  12.390
40381W        W12641  11.858  42.754   1.805
40382W        W12642  15.379  33.281   1.581
40383W        W12643  39.055   9.434  12.836
40384W        W12644  38.892   4.868  14.960
40385W        W12645  27.119  41.519  11.853
40386W        W12646  25.539   9.258   2.275
40387W        W12647   7.236  32.184  12.498
40388W        W12648   0.037  14.052   0.386
40389W        W12649  36.623  16.130   3.344
40390W        W12650  39.299   6.749  14.161
40391W        W12651  41.956  20.937   4.118
40392W        W12652   1.465  28.650  12.025
40393W        W12653  20.799  18.535   0.993
40394W        W12654  11.609  34.394   3.137
40395W        W12655  41.390  44.790   1.792
40396W        W12656  19.752   7.468  12.525
40397W        W12657  14.389   6.169   1.017
40398W        W12658  16.693   4.055  13.450
40399W        W12659  43.889   9.764   1.518
40400W        W12660  38.553  23.022  14.333
40401W        W12661   8.416  29.904  10.422
40402W        W12662   0.506  33.006  11.053
40403W        W12663  34.662  11.066   4.504
40404W        W12664  17.163  14.719   9.896
40405W        W12665  43.687  26.009  14.382
40406W        W12666  23.801  31.841   3.606
40407W        W12667  40.294  24.095   0.351
40408W        W12668  34.827  14.412   1.730
40409W        W12669  16.589  11.913  11.783
40410W        W12670  44.193  29.544  12.912
40411W        W12671  15.916  44.490  14.540
40412W        W12672  18.842  34.417  14.077
40413W        W12673  15.117   6.393   1.944
40414W        W12674  11.615  16.755  12.722
40415W        W12675  31.600  26.279  14.454
40416W        W12676   9.282   6.254  10.244
40417W        W12677  39.092  44.696  13.452
40418W        W12678  24.615   7.931  13.657
40419W        W12679  31.655  23.370   1.706
40420W        W12680   6.918  11.401   2.018
40421W        W12681  43.405  25.349  13.850
40422W        W12682   4.185  31.979   1.003
40423W        W12683  27.598   8.775   1.482
40424W        W12684  27.153  42.038  12.867
40425W        W12685  39.293  43.342  13.354
40426W        W12686  38.144   4.357   2.332
40427W        W12687  36.325  21.859  14.509
40428W        W12688  23.116  38.559   4.421
40429W        W12689  39.233   7.792   3.659
40430W        W12690   1.806   4.428  11.623
40431W        W12691   2.912  20.983   9.875
40432W        W12692   6.899   5.063   0.963
40433W        W12693  37.812  24.666   1.772
40434W        W12694   5.012  15.726  11.481
40435W        W12695  31.463   4.207   2.281
40436W        W12696  33.620  11.085   2.667
40437W        W12697  31.474  38.066  12.894
40438W        W12698  43.800  31.226   2.842
40439W        W12699  17.574  16.491   1.231
40440W        W12700  32.598  17.291  11.145
40441W        W12701  27.207   4.672   4.090
40442W        W12702  19.188  41.190  12.667
40443W        W12703  27.087  17.068   1.335
40444W        W12704  40.078  44.254   2.794
40445W        W12705  16.169   3.889  10.389
40446W        W12706  14.478   7.774   4.495
40447W        W12707  25.505  28.083   4.734
40448W        W12708  25.954   0.264   1.318
40449W        W12709  42.281  22.329  12.461
40450W        W12710  31.432  40.806   3.951
40451W        W12711  13.874  40.888   2.872
40452W        W12712  27.166   1.423  13.545
40453W        W12713  28.061  11.644   1.817
40454W        W12714  17.280  16.357   3.149
40455W        W12715  19.826  28.016   4.548
40456W        W12716  32.089  42.278   2.868
40457W        W12717   3.346  20.468  13.793
40458W        W12718   1.399   8.327   2.179
40459W        W12719  40.821   7.560  14.700
40460W        W12720   8.049  22.275  14.751
40461W        W12721   8.044  44.805  12.921
40462W        W12722   1.230   2.648   2.732
40463W        W12723   8.673   8.207   1.294
40464W        W12724  44.691   6.704  10.475
40465W        W12725  25.132   2.372   0.189
40466W        W12726  23.148  40.826   0.395
40467W        W12727  31.027   5.898   3.294
40468W        W12728  40.999  19.783   3.289
40469W        W12729  32.168  16.707   1.381
40470W        W12730  17.302   4.886  10.680
40471W        W12731  23.037  20.788  14.720
40472W        W12732  17.536  43.920  12.590
40473W        W12733  26.282  34.213  10.972
40474W        W12734  16.776   2.265   4.317
40475W        W12735  29.716  19.256   4.273
40476W        W12736  34.119  31.616   3.165
40477W        W12737   5.714   4.756  14.946
40478W        W12738  27.469  39.092   2.139
40479W        W12739   7.279   8.876  11.936
40480W        W12740  14.265   5.985   1.699
40481W        W12741  22.581   9.218   4.068
40482W        W12742  40.207  38.067  11.709
40483W        W12743  36.047   2.690  14.515
40484W        W12744  38.651  15.713  11.511
40485W        W12745  40.439   2.238   4.686
40486W        W12746  38.133  16.070   0.872
40487W        W12747  24.114  41.066  14.024
40488W        W12748  24.522  18.106  12.408
40489W        W12749   3.010  28.467  11.120
40490W        W12750   7.877  18.099  12.638
40491W        W12751  29.532  22.393  12.559
40492W        W12752   2.261   1.338  11.791
40493W        W12753   9.707  15.123   1.675
40494W        W12754   3.897  37.761   0.982
40495W        W12755  32.476  26.281   3.194
40496W        W12756   3.698  30.841  14.075
40497W        W12757  39.561  38.064   4.725
40498W        W12758  39.825  24.035  12.863
40499W        W12759  28.662  37.891   2.703
40500W        W12760  10.691  15.744  11.589
40501W        W12761  17.647  42.427  14.377
40502W        W12762   9.385  35.054   1.808
40503W        W12763  12.322  41.978   1.523
40504W        W12764  27.031  12.191  12.577
40505W        W12765   5.309  17.374   1.172
40506W        W12766  19.221  36.530   1.249
40507W        W12767  18.910  33.627  12.618
40508W        W12768  35.877  44.750   2.323
40509W        W12769  21.710  21.772  14.643
40510W        W12770  30.950   9.693   0.053
40511W        W12771  27.686   9.599   0.348
40512W        W12772  16.279  39.980   0.071
40513W        W12773  30.581  14.218   4.296
40514W        W12774   2.423  22.004   0.606
40515W        W12775  15.695  22.233   1.302
40516W        W12776   6.022   2.525   1.797
40517W        W12777   2.330  31.079  11.151
40518W        W12778  24.562   1.477   4.217
40519W        W12779   0.693   1.508   3.152
40520W        W12780  41.391   8.397   4.311
40521W        W12781  43.899   5.715   3.599
40522W        W12782  14.967   0.909   2.328
40523W        W12783  26.002  38.434  11.154
40524W        W12784   9.754  40.710  13.299
40525W        W12785  11.875  38.743   9.769
40526W        W12786   1.603  15.666   2.405
40527W        W12787  28.633  15.218   4.618
40528W        W12788  21.194   2.772   2.782
40529W        W12789  43.381  43.465   2.780
40530W        W12790  33.085  23.200   0.372
40531W        W12791   4.430  28.198   4.959
40532W        W12792   2.250   0.284  11.502
40533W        W12793   5.672   6.335  12.378
40534W        W12794   0.717  20.174   1.888
40535W        W12795  26.924   4.686  14.351
40536W        W12796  22.045  18.885  11.303
40537W        W12797  35.125  27.602   2.916
40538W        W12798  11.332   9.880   3.370
40539W        W12799  27.197  29.020   3.731
40540W        W12800  41.392   4.418   4.591
40541W        W12801  26.171   5.761   2.191
40542W        W12802   3.420  39.522  11.565
40543W        W12803   5.788  43.972  11.050
40544W        W12804  33.536  26.672   4.131
40545W        W12805   1.470   2.993  13.570
40546W        W12806  44.560  30.620   1.220
40547W        W12807  28.714  28.005   4.805
40548W        W12808  36.394  19.772  11.833
40549W        W12809  39.946  37.570   4.186
40550W        W12810  27.212  16.615  13.820
40551W        W12811   7.306  44.769  14.478
40552W        W12812  18.140  14.348   2.796
40553W        W12813  16.450  19.962  10.655
40554W        W12814  32.117   2.804   2.827
40555W        W12815   3.811  17.337   0.378
40556W        W12816  19.601  42.252   2.291
40557W        W12817   7.591   2.698  10.682
40558W        W12818  33.155  24.260  12.039
40559W        W12819  24.218  31.198  12.563
40560W        W12820  32.051   5.093   3.947
40561W        W12821   4.370  44.378   0.862
40562W        W12822  28.146  40.267   3.322
40563W        W12823   0.483  39.821  13.885
40564W        W12824  16.756  32.403  12.877
40565W        W12825  44.970  13.805  13.214
40566W        W12826  16.802  42.699   0.903
40567W        W12827   7.661   5.272   2.864
40568W        W12828   5.592  37.792   3.729
40569W        W12829  13.565  10.069  10.807
40570W        W12830  26.170  12.522   1.956
40571W        W12831  26.481  44.794  12.919
40572W        W12832  16.095  22.659   1.378
40573W        W12833  12.809  24.263  13.883
40574W        W12834  41.484  38.624   0.220
40575W        W12835  42.582  32.648   3.700
40576W        W12836  12.823  37.540   3.850
40577W        W12837  14.775  36.574  13.596
40578W        W12838  24.618   2.219   0.073
40579W        W12839  12.709   3.764   2.261
40580W        W12840  44.493  13.305  13.619
40581W        W12841  21.720  16.933   4.215
40582W        W12842  12.079  37.834   1.716
40583W        W12843   2.283  30.856   3.370
40584W        W12844  26.592  38.050  11.642
40585W        W12845   7.876  43.905   3.649
40586W        W12846  27.905   2.559  11.374
40587W        W12847  15.278  13.878  12.929
40588W        W12848  14.140   6.445   1.923
40589W        W12849  34.389  11.848  12.543
40590W        W12850  23.622  32.487   1.698
40591W        W12851  11.659  33.294   4.567
40592W        W12852  14.136  17.935  11.428
40593W        W12853   2.850  10.887  11.012
40594W        W12854  22.968  25.976   4.172
40595W        W12855  15.380   9.778  12.808
40596W        W12856  31.174   3.157  10.746
40597W        W12857  32.018  44.638   2.097
40598W        W12858  24.522  37.428  12.061
40599W        W12859  32.879  28.381   4.357
40600W        W12860  11.157  18.329   1.712
40601W        W12861  30.036  17.440  11.173
40602W        W12862   9.315  13.854  12.897
40603W        W12863  30.444  19.594   3.669
40604W        W12864   4.687  41.075  13.016
40605W        W12865   5.176  38.175  13.080
40606W        W12866  10.079  17.795  10.834
40607W        W12867   5.926  38.362   1.212
40608W        W12868  17.839  13.370  11.641
40609W        W12869  12.756  42.404  14.835
40610W        W12870  17.359  22.054   0.357
40611W        W12871   1.934  16.660   4.912
40612W        W12872  15.621  29.319  11.882
40613W        W12873  11.517  26.612   4.439
40614W        W12874  33.781  35.523  13.370
40615W        W12875  14.340  30.477  12.101
40616W        W12876  31.454  44.583   1.186
40617W        W12877  37.997   3.520   2.283
40618W        W12878  38.484  27.191   1.265
40619W        W12879  25.350  26.869   2.697
40620W        W12880  25.591  36.587  14.955
40621W        W12881   9.355  31.551  14.321
40622W        W12882  35.318  17.125  11.252
40623W        W12883   3.713  32.000  12.577
40624W        W12884  10.361  16.531   1.428
40625W        W12885  14.870  30.408  14.335
40626W        W12886  42.059  38.897  14.602
40627W        W12887  43.314  32.885  12.446
40628W        W12888  20.736  19.506  10.986
40629W        W12889  19.704  19.615  11.208
40630W        W12890   3.682  41.430  14.352
40631W        W12891  36.542  10.402   2.262
40632W        W12892  38.533   6.033   3.844
40633W        W12893  16.672  26.890  11.440
40634W        W12894  21.270   6.422   4.119
40635W        W12895  42.989  13.404   1.318
40636W        W12896  26.777   2.769  13.801
40637W        W12897   9.909  43.918  12.506
40638W        W12898  13.123   4.816   2.948
40639W        W12899  29.855   8.139   4.027
40640W        W12900  44.206  27.025  10.381
40641W        W12901  27.228  34.793   4.335
40642W        W12902  27.703  28.234  12.353
40643W        W12903  34.635  35.028   0.476
40644W        W12904  31.691   1.857  10.595
40645W        W12905  16.764  37.550   1.915
40646W        W12906  17.434   4.944   0.587
40647W        W12907  25.948  33.180  14.418
40648W        W12908  17.554  43.941   4.543
40649W        W12909  12.434  30.309   5.744
40650W        W12910   4.781  39.849   5.138
40651W        W12911  41.800   6.493  13.482
40652W        W12912  15.295  30.531  13.537
40653W        W12913  17.631  40.414   2.830
40654W        W12914  24.550  41.908   1.154
40655W        W12915  29.164   3.163  11.304
40656W        W12916  27.729  29.706   3.923
40657W        W12917  31.986  12.223  12.292
40658W        W12918  37.656  28.580  14.736
40659W        W12919  40.575  42.897  13.435
40660W        W12920  23.314   1.557  11.513
40661W        W12921  34.033   2.818   3.825
40662W        W12922  18.034  35.240   0.074
40663W        W12923  40.809  27.990  12.230
40664W        W12924   7.714  24.999  12.611
40665W        W12925  10.862   1.347  13.459
40666W        W12926  15.580  41.901  13.073
40667W        W12927  41.427  23.952   2.699
40668W        W12928   4.107   9.278  12.162
40669W        W12929  41.391  34.601   4.623
40670W        W12930  15.265  23.215   2.847
40671W        W12931  10.875  37.324   0.335
40672W        W12932  25.272  35.589   4.625
40673W        W12933  34.803   3.613  10.517
40674W        W12934  37.874  28.765  11.178
40675W        W12935  34.370  23.682  10.722
40676W        W12936  18.531  17.570  13.950
40677W        W12937  21.906  10.293   0.486
40678W        W12938  11.784   8.294   2.297
40679W        W12939  24.450  21.194   4.646
40680W        W12940  34.008   9.852  14.747
40681W        W12941  40.910  33.726  10.930
40682W        W12942  33.931  43.995  11.950
40683W        W12943  43.321  39.904  12.828
40684W        W12944  10.309  22.982   3.698
40685W        W12945  25.416   0.262  12.004
40686W        W12946  34.928  31.618  14.097
40687W        W12947  25.216   2.459   1.842
40688W        W12948  28.199  24.662   0.085
40689W        W12949  41.809   3.660   4.349
40690W        W12950  41.282  24.529  12.156
40691W        W12951  37.159  32.064  12.220
40692W        W12952  39.056   7.200  11.034
40693W        W12953   6.825  44.789   1.281
40694W        W12954   5.830   5.657   0.535
40695W        W12955  16.895   1.505   1.157
40696W        W12956  21.935  19.156   4.520
40697W        W12957  32.074  12.176  11.787
40698W        W12958  35.935   5.929   3.947
40699W        W12959  18.689  28.598   4.689
40700W        W12960  32.840  30.821   0.019
40701W        W12961  43.391  35.098   3.638
40702W        W12962  31.527  40.508   4.516
40703W        W12963  15.818  14.414   0.428
40704W        W12964  41.492  16.276   4.608
40705W        W12965  24.154  35.653   4.329
40706W        W12966  29.229  37.920   1.718
40707W        W12967  30.662  20.315  12.803
40708W        W12968  37.079  13.801  12.020
40709W        W12969  17.588  21.485   3.335
40710W        W12970   6.336   2.859   2.942
40711W        W12971  28.636  41.569  11.091
40712W        W12972  16.045  36.961  12.800
40713W        W12973  16.676   4.985   4.792
40714W        W12974  20.162  44.722   2.744
40715W        W12975  40.437   1.965  13.474
40716W        W12976  21.186   0.883  13.105
40717W        W12977  18.761  38.418  11.100
40718W        W12978   7.444  31.183  13.169
40719W        W12979  12.280  39.061  13.830
40720W        W12980  20.833  33.911   0.930
40721W        W12981  40.844  24.726  14.978
40722W        W12982  31.410  21.550  12.074
40723W        W12983   8.188  44.140  11.067
40724W        W12984  30.428   0.458   2.800
40725W        W12985  35.433  17.817  12.989
40726W        W12986  44.707   9.354  11.609
40727W        W12987  23.626  36.342   3.748
40728W        W12988  11.382  32.664  14.286
40729W        W12989   5.245  22.307  12.679
40730W        W12990  36.777  23.720   3.633
40731W        W12991  11.921  23.201  14.090
40732W        W12992  27.589  39.794  10.238
40733W        W12993  22.234   8.935   1.298
40734W        W12994  31.167  29.548   1.717
40735W        W12995   4.790   4.437  13.945
40736W        W12996   5.524   5.248  13.834
40737W        W12997  12.435   6.948   0.374
40738W        W12998   1.497  24.245   2.408
40739W        W12999   1.299  26.150   4.604
40740W        W13000  13.306   5.161   4.282
40741W        W13001  37.304   5.489   0.492
40742W        W13002  36.781  40.294  11.165
40743W        W13003  41.356  14.025  12.035
40744W        W13004   6.237  14.041   1.207
40745W        W13005  19.541  28.824   4.227
40746W        W13006  11.235   3.586  13.009
40747W        W13007  40.971   8.986   4.043
40748W        W13008  33.212  21.211  14.896
40749W        W13009   9.593  10.897   0.441
40750W        W13010   9.721  19.109   2.207
40751W        W13011  10.451  26.090   4.786
40752W        W13012   0.837  33.149  10.678
40753W        W13013  27.726   6.777  10.514
40754W        W13014  39.272  18.061  11.527
40755W        W13015  16.967  23.662   1.668
40756W        W13016  28.554  12.840  12.817
40757W        W13017  19.195  15.415  10.742
40758W        W13018  35.642  24.616  11.977
40759W        W13019   2.768  21.988   2.325
40760W        W13020   1.602   9.282  12.107
40761W        W13021   8.885  41.329   2.193
40762W        W13022  20.760  10.112   2.311
40763W        W13023  20.833  30.535   4.130
40764W        W13024  29.015  34.563  13.830
40765W        W13025  38.348  27.028   4.193
40766W        W13026   0.485  25.888   3.364
40767W        W13027  41.484  40.070   3.266
40768W        W13028  25.213  19.586  11.456
40769W        W13029  42.402   3.457  10.932
40770W        W13030  21.639  27.502   1.380
40771W        W13031   1.962  20.284  11.588
40772W        W13032  14.664   1.191   4.171
40773W        W13033  37.880  20.472  14.977
40774W        W13034  21.046  29.131  10.806
40775W        W13035   2.511  18.739  12.858
40776W        W13036   3.448  42.800  11.695
40777W        W13037  24.850  20.189  13.517
40778W        W13038  22.473   2.079   5.153
40779W        W13039  28.984  43.462  14.074
40780W        W13040  35.019   3.544  12.464
40781W        W13041  42.083  43.324   2.006
40782W        W13042   2.913  11.430  11.941
40783W        W13043  17.042  23.695  11.814
40784W        W13044  11.678  41.996  12.493
40785W        W13045  27.407  19.041  11.957
40786W        W13046   6.228  43.362   2.307
40787W        W13047  41.938   5.901  10.666
40788W        W13048   6.243  43.310  14.921
40789W        W13049   3.152   4.925   4.420
40790W        W13050  38.580  13.325   4.638
40791W        W13051  16.121   7.836   1.781
40792W        W13052  36.442  35.483   1.818
40793W        W13053  15.232  17.192   1.951
40794W        W13054  44.728  40.972   3.116
40795W        W13055  10.865  26.014   4.429
40796W        W13056  27.611  40.003   5.424
40797W        W13057  23.506  15.809   4.523
40798W        W13058  11.229  41.362  12.380
40799W        W13059  31.871  44.310  11.503
40800W        W13060   7.223  12.607  10.724
40801W        W13061  16.729  21.346  10.672
40802W        W13062   8.347  13.720  11.816
40803W        W13063  37.414  42.983  13.541
40804W        W13064  24.383  19.144  13.893
40805W        W13065  31.615  43.890  11.631
40806W        W13066   6.260  30.640  14.255
40807W        W13067  10.330  24.883  13.884
40808W        W13068  15.110  39.853   4.198
40809W        W13069  27.517   5.732  12.515
40810W        W13070  26.751   2.402  11.115
40811W        W13071  20.464  43.982  12.156
40812W        W13072  22.600  38.054  13.459
40813W        W13073  44.320  20.958   4.182
40814W        W13074   9.153   2.453   0.127
40815W        W13075  23.911   1.726  11.779
40816W        W13076  19.989  33.577  12.919
40817W        W13077   7.666  30.122  13.973
40818W        W13078  20.009  15.544  13.902
40819W        W13079  21.011   6.674  12.411
40820W        W13080   1.273  30.905  13.033
40821W        W13081  10.910  38.932   0.220
40822W        W13082  27.949  39.400  10.143
40823W        W13083  43.002  40.444   0.033
40824W        W13084  31.212  22.292   4.169
40825W        W13085  11.589  23.541   0.477
40826W        W13086  18.368  34.762  12.667
40827W        W13087  26.058  17.281  13.871
40828W        W13088  22.183  27.495  13.742
40829W        W13089  33.322  25.395  11.610
40830W        W13090  31.664   3.639   4.335
40831W        W13091  44.207  13.717  13.753
40832W        W13092  26.967   0.251  12.602
40833W        W13093  26.518  25.797   4.391
40834W        W13094   1.731  20.739  11.615
40835W        W13095   5.670  20.164   4.392
40836W        W13096  21.740  18.684  14.361
40837W        W13097   6.055  31.081  11.660
40838W        W13098  29.273   2.051   2.783
40839W        W13099  29.467   0.855  10.706
40840W        W13100  39.921  41.215   4.151
40841W        W13101  21.824   2.811  13.816
40842W        W13102  29.371  20.603   4.596
40843W        W13103   3.912  27.965   3.664
40844W        W13104  16.319  13.185  11.562
40845W        W13105  42.273  42.968  11.983
40846W        W13106  40.838  16.214   2.971
40847W        W13107  44.442  44.909  13.809
40848W        W13108  42.315  26.042  12.703
40849W        W13109   6.678   0.710   3.897
40850W        W13110  40.817  37.398  11.527
40851W        W13111  29.006  38.491  12.269
40852W        W13112  41.296   8.856   2.301
40853W        W13113  16.617  10.720  14.152
40854W        W13114  42.308   7.849   4.324
40855W        W13115  35.043  27.682  12.987
40856W        W13116  32.118  24.023   4.974
40857W        W13117  42.395  22.695   1.332
40858W        W13118  29.941   5.688   0.775
40859W        W13119  17.656  12.422   3.205
40860W        W13120   6.845  30.772   3.173
40861W        W13121   3.595  10.618  11.976
40862W        W13122  26.910  23.727   4.415
40863W        W13123  21.232  33.284  13.559
40864W        W13124  39.052   1.267  10.970
40865W        W13125  10.658  34.528  12.319
40866W        W13126  40.447   6.693   3.744
40867W        W13127  43.884  19.726   1.867
40868W        W13128  33.193  38.068   4.126
40869W        W13129  21.106  19.442   4.682
40870W        W13130  36.607   4.919   2.895
40871W        W13131  34.797   1.240  12.048
40872W        W13132  39.949  21.969  11.225
40873W        W13133   9.264  42.977   4.600
40874W        W13134  42.174  32.034  14.071
40875W        W13135   3.277   9.113   1.460
40876W        W13136  28.128  39.062   3.767
40877W        W13137   0.907  13.598  12.917
40878W        W13138   6.747  39.840  14.921
40879W        W13139  19.028   2.020  11.959
40880W        W13140  19.999   4.110  10.874
40881W        W13141   7.319  28.910   1.204
40882W        W13142   7.927  33.635  10.741
40883W        W13143   1.775  14.128  11.606
40884W        W13144  32.863  30.014  12.819
40885W        W13145   3.177  41.448  14.118
40886W        W13146  29.994  21.378   1.435
40887W        W13147  25.475  31.014   2.412
40888W        W13148  31.055   7.114   0.751
40889W        W13149   3.345  42.605  12.472
40890W        W13150  30.781  36.901  11.896
40891W        W13151  26.517  10.593  13.852
40892W        W13152  11.417   5.164  12.630
40893W        W13153   7.784   9.732   4.038
40894W        W13154  10.278  39.797   1.356
40895W        W13155  42.530   9.330   1.721
40896W        W13156  32.764  37.527  14.465
40897W        W13157  15.027  22.783  11.484
40898W        W13158  42.898  11.495  10.488
40899W        W13159  33.889  25.698   3.200
40900W        W13160   6.535  32.838   3.607
40901W        W13161   5.107  28.070  11.046
40902W        W13162   4.445  15.367   3.806
40903W        W13163   4.241  22.867  13.769
40904W        W13164   2.982  20.040   0.418
40905W        W13165  13.761  21.968   0.219
40906W        W13166  30.862  44.084  11.121
40907W        W13167  21.709  21.747  11.533
40908W        W13168  33.036  30.476  13.045
40909W        W13169  20.748  36.310   2.431
40910W        W13170  24.550  17.578   2.511
40911W        W13171  37.634  16.126   3.219
40912W        W13172  38.552   2.565  10.803
40913W        W13173  34.513  40.390  11.498
40914W        W13174  26.952  33.885  13.479
40915W        W13175   3.924  24.119   1.933
40916W        W13176  25.955  32.024   0.441
40917W        W13177  18.431  41.259  10.529
40918W        W13178   8.616  36.809  12.780
40919W        W13179   7.294  26.137   1.243
40920W        W13180   1.382   1.629  10.489
40921W        W13181  28.890   0.710  11.900
40922W        W13182  31.941  35.282   2.186
40923W        W13183   5.347  39.750   3.678
40924W        W13184   7.175   4.307  14.671
40925W        W13185  42.556   8.446  12.876
40926W        W13186  37.735  18.641   4.327
40927W        W13187   4.227  37.575   3.646
40928W        W13188   4.764  37.336  11.888
40929W        W13189   8.282  20.680  11.267
40930W        W13190  41.022  41.017  11.634
40931W        W13191  17.569  39.667  12.918
40932W        W13192  30.553  24.127   1.403
40933W        W13193  12.412  15.778  13.852
40934W        W13194   7.584  14.685  14.863
40935W        W13195  33.151  24.646  12.982
40936W        W13196  43.708   5.187  14.880
40937W        W13197  22.184  30.486  12.203
40938W        W13198   0.721   5.148   3.382
40939W        W13199  44.795  26.340   1.903
40940W        W13200   0.225  21.653   2.158
40941W        W13201  42.185  35.368  12.493
40942W        W13202  30.011   4.750  12.070
40943W        W13203   7.476  16.975   5.066
40944W        W13204  33.477  33.880   3.635
40945W        W13205  13.835  14.658   2.156
40946W        W13206   3.886  38.952  11.155
40947W        W13207  20.613  31.512  12.524
40948W        W13208  20.191  40.867   4.177
40949W        W13209  20.027  11.322   4.147
40950W        W13210  23.081  33.788  13.011
40951W        W13211   1.442  10.456   1.884
40952W        W13212  16.505  27.534  14.490
40953W        W13213  14.584   8.284   1.708
40954W        W13214  17.409   6.917   5.063
40955W        W13215  36.909  36.462   4.617
40956W        W13216   5.732  37.831  12.533
40957W        W13217   2.827   5.294   1.275
40958W        W13218  37.035  36.364   1.703
40959W        W13219  30.899  12.555  14.453
40960W        W13220  43.248  19.637   1.378
40961W        W13221  35.841   4.043  11.789
40962W        W13222  28.500  38.074   3.259
40963W        W13223  31.122  21.602   1.814
40964W        W13224  41.570   5.695   2.260
40965W        W13225  16.658  22.571   4.287
40966W        W13226  40.133  36.459   1.414
40967W        W13227  31.215  11.587  14.469
40968W        W13228  31.599  28.680  12.693
40969W        W13229  41.054  42.784   1.000
40970W        W13230   4.669  43.207  10.155
40971W        W13231  21.032   7.215  14.021
40972W        W13232  36.787   1.838  13.335
40973W        W13233   0.037  30.034  14.479
40974W        W13234  25.085  44.010  14.531
40975W        W13235  40.348   2.752   4.640
40976W        W13236  20.769   3.237   4.172
40977W        W13237   0.722  22.743  12.451
40978W        W13238   7.626  16.670   1.190
40979W        W13239   9.937  19.850   4.603
40980W        W13240  17.632  42.612   4.741
40981W        W13241  42.183  36.335   2.236
40982W        W13242  28.975  28.014   1.986
40983W        W13243   1.437  15.755   5.088
40984W        W13244  39.027  10.763  12.880
40985W        W13245   5.443   1.935   4.023
40986W        W13246  13.533  29.169   1.041
40987W        W13247  41.570   2.946   3.208
40988W        W13248   8.592   2.973  14.595
40989W        W13249  26.480   6.736  10.963
40990W        W13250   3.984  12.138  12.820
40991W        W13251   2.229  13.713   3.354
40992W        W13252   1.119  16.732  14.183
40993W        W13253  20.479  24.534  12.042
40994W        W13254  27.573  39.280  14.865
40995W        W13255  23.582  10.074   5.046
40996W        W13256  42.500  19.506   0.563
40997W        W13257  37.902   0.204   3.622
40998W        W13258  15.627  28.347  11.991
40999W        W13259  12.785  36.792   3.208
41000W        W13260  44.903   0.403   0.483
41001W        W13261  38.517   5.001   0.881
41002W        W13262   8.811  13.453   4.625
41003W        W13263  10.651  16.995   4.749
41004W        W13264   5.321  20.663   0.190
41005W        W13265  44.355  27.922  11.810
41006W        W13266  35.045  34.435   2.229
41007W        W13267  35.796   3.754   4.732
41008W        W13268  36.893  30.592  14.510
41009W        W13269  22.004  19.362  14.166
41010W        W13270  43.262  28.588  10.707
41011W        W13271  39.474   8.391   1.450
41012W        W13272  43.843   3.348  10.386
41013W        W13273  17.174  31.250   4.406
41014W        W13274  21.213  26.124   0.238
41015W        W13275   3.238  13.546   1.863
41016W        W13276  37.530  19.976  10.668
41017W        W13277  11.621  35.718  11.228
41018W        W13278   9.644  10.479  11.723
41019W        W13279  14.395  30.654  12.990
41020W        W13280  19.046  44.793  12.595
41021W        W13281  26.034  24.612   3.024
41022W        W13282  37.474  38.639  14.467
41023W        W13283   4.179  11.783   0.000
41024W        W13284  33.690  33.266  13.734
41025W        W13285  41.264  21.889  11.559
41026W        W13286  16.309   1.709   3.185
41027W        W13287  42.295  28.569   3.074
41028W        W13288  20.567  35.461  12.527
41029W        W13289  17.677  14.563   0.355
41030W        W13290  34.517  43.952  13.630
41031W        W13291  25.679  22.194   1.736
41032W        W13292  14.915  37.489   4.568
41033W        W13293   1.961  19.550  12.926
41034W        W13294  36.505  24.983  13.784
41035W        W13295   5.957  24.548   4.206
41036W        W13296  17.003  37.453   0.861
41037W        W13297  44.015  17.199  13.099
41038W        W13298   4.624  31.189   0.447
41039W        W13299   1.035  26.703  11.133
41040W        W13300  10.686  12.358   4.335
41041W        W13301  31.971  11.828   2.798
41042W        W13302  44.951  42.370  14.016
41043W        W13303   7.933   7.665  11.681
41044W        W13304  15.218  12.820   0.639
41045W        W13305  10.865  13.632   4.818
41046W        W13306  12.638  14.661  13.389
41047W        W13307   4.421   8.410  14.462
41048W        W13308  17.835   1.319   3.157
41049W        W13309   0.516  16.033  12.873
41050W        W13310  13.359   6.403  12.924
41051W        W13311  35.110  13.600  10.683
41052W        W13312  13.806  19.256   3.798
41053W        W13313   8.256  12.838   4.883
41054W        W13314  41.344  32.962  14.606
41055W        W13315  29.514  11.227   4.597
41056W        W13316  26.140  29.440  11.206
41057W        W13317   1.011   5.683  14.423
41058W        W13318   6.133  39.265   2.750
41059W        W13319  32.949  44.341  12.529
41060W        W13320  39.050   6.708   0.689
41061W        W13321  18.541  13.843   4.588
41062W        W13322  38.813  11.790  11.126
41063W        W13323   2.723   5.750   3.676
41064W        W13324  18.848  35.884  11.892
41065W        W13325   1.312  42.023  10.556
41066W        W13326  22.923  22.516  11.457
41067W        W13327  33.967   3.947   1.994
41068W        W13328  20.246  17.265   1.896
41069W        W13329  40.020  24.599   2.184
41070W        W13330   9.841  31.851   2.379
41071W        W13331  34.109  41.359  12.630
41072W        W13332  22.587  13.372   0.402
41073W        W13333  34.104   0.337  13.941
41074W        W13334   5.237  10.313  10.401
41075W        W13335  43.368  15.239   0.921
41076W        W13336   1.753  38.595   3.672
41077W        W13337  42.263  34.055  11.620
41078W        W13338  22.777  32.080   3.722
41079W        W13339  29.208  38.640   1.340
41080W        W13340  27.455  10.434   4.468
41081W        W13341  25.526  10.946  13.990
41082W        W13342   3.973   3.715  13.538
41083W        W13343  40.429   5.315   4.855
41084W        W13344   9.225  23.036  14.528
41085W        W13345  32.851   9.712   0.329
41086W        W13346  30.623  22.102  10.841
41087W        W13347  11.484  17.378   1.431
41088W        W13348  33.403  24.029   0.521
41089W        W13349  21.778  22.245   4.991
41090W        W13350   5.166   4.778  14.919
41091W        W13351   0.260   7.656   4.105
41092W        W13352  22.907  26.856  13.119
41093W        W13353  15.065  22.327   2.720
41094W        W13354  26.389  32.593  12.960
41095W        W13355  35.166  18.718  13.580
41096W        W13356  22.091   6.288  12.143
41097W        W13357  24.677   8.359   3.695
41098W        W13358   0.179  12.217   1.837
41099W        W13359  26.162  13.898   0.094
41100W        W13360   1.801  38.319   0.322
41101W        W13361  40.587  25.247  14.118
41102W        W13362  25.985  15.335  11.022
41103W        W13363  40.505  22.689  12.778
41104W        W13364  13.131  26.889   4.194
41105W        W13365   9.873  10.246   1.848
41106W        W13366  19.095   0.833  13.383
41107W        W13367  28.987  32.775  10.682
41108W        W13368  18.751  28.409  13.893
41109W        W13369  30.609  25.042   1.363
41110W        W13370  24.690  38.687  11.628
41111W        W13371   8.823  11.614   0.274
41112W        W13372  35.330  33.887   0.923
41113W        W13373  21.059  39.399  11.554
41114W        W13374   4.844  34.289  13.057
41115W        W13375  28.903  32.572   3.291
41116W        W13376  19.637  38.799  14.804
41117W        W13377   8.187   8.736   1.710
41118W        W13378  38.822   3.961   3.330
41119W        W13379  21.479  20.048  14.277
41120W        W13380  19.043  13.867  11.565
41121W        W13381   8.172   0.387  11.640
41122W        W13382  44.824   8.277  11.243
41123W        W13383  31.543   1.487   0.818
41124W        W13384  12.603  40.211  12.405
41125W        W13385   6.864   5.460   2.303
41126W        W13386  37.924  38.488   2.838
41127W        W13387   8.420  19.059   1.390
41128W        W13388   0.277  39.299  12.943
41129W        W13389  29.719  13.247   0.290
41130W        W13390  31.978  23.394   2.185
41131W        W13391   6.781  23.708   4.124
41132W        W13392  12.036  29.706   4.982
41133W        W13393  10.530  22.780  14.623
41134W        W13394   4.228  37.267   1.868
41135W        W13395  19.617   1.474  14.916
41136W        W13396  10.728  16.436   2.826
41137W        W13397  12.842  42.495  13.558
41138W        W13398  41.795  34.857  11.129
41139W        W13399  33.069   2.799  10.715
41140W        W13400  40.405  40.471  12.947
41141W        W13401  21.132   9.761   1.326
41142W        W13402  27.900  40.353   0.862
41143W        W13403  14.079   1.195   5.047
41144W        W13404  44.971  34.320  11.877
41145W        W13405  34.911  21.795  10.893
41146W        W13406  30.254  17.691   0.403
41147W        W13407  13.446  31.003   5.559
41148W        W13408  23.943  24.184  11.870
41149W        W13409  42.913   6.218  13.986
41150W        W13410  28.009  37.952   4.569
41151W        W13411  15.651  35.546  13.414
41152W        W13412  11.889   4.604   2.631
41153W        W13413  30.990  23.699  12.056
41154W        W13414  44.563  17.551  12.611
41155W        W13415  22.263  24.984   1.426
41156W        W13416  15.693  16.273   4.634
41157W        W13417  12.652  26.910   0.851
41158W        W13418  28.092  39.298   0.709
41159W        W13419  29.516  28.206  13.768
41160W        W13420  19.438  17.626   1.873
41161W        W13421  23.011  17.104  12.136
41162W        W13422   7.358   8.258  14.645
41163W        W13423  38.633   2.460  13.456
41164W        W13424  43.994   9.777  13.523
41165W        W13425  10.803  33.948   3.549
41166W        W13426  25.187  32.733  12.355
41167W        W13427  33.025  27.189  13.010
41168W        W13428  23.284  11.842  14.471
41169W        W13429  23.733  26.639  12.084
41170W        W13430  10.685   9.986   4.075
41171W        W13431  33.744  25.200  11.027
41172W        W13432  31.491  37.334  10.356
41173W        W13433   9.725  43.856  13.363
41174W        W13434  40.451  38.264  13.379
41175W        W13435   5.610   2.187  12.090
41176W        W13436  38.031  38.966  12.897
41177W        W13437  25.373  43.377   4.190
41178W        W13438  26.549  13.118   2.202
41179W        W13439  30.218  41.645  12.020
41180W        W13440  28.102  20.226   2.598
41181W        W13441  28.401  30.171   3.107
41182W        W13442  36.577  22.810   1.475
41183W        W13443  28.619  22.835   0.776
41184W        W13444  30.461  34.554   1.988
41185W        W13445  21.212  23.303  12.374
41186W        W13446  13.726  29.102   3.277
41187W        W13447   3.828  19.126  14.528
41188W        W13448  11.595   4.693  11.231
41189W        W13449  28.302  11.577  12.597
41190W        W13450  19.915   9.841   3.672
41191W        W13451  14.032   5.193  13.980
41192W        W13452  35.797  44.417  11.913
41193W        W13453  21.214  31.176  11.526
41194W        W13454   5.255  40.995  14.882
41195W        W13455  23.639  18.558   3.957
41196W        W13456   6.234   2.263  10.729
41197W        W13457  38.425  39.280   4.254
41198W        W13458  31.863  16.733   3.454
41199W        W13459  31.896  26.638  10.898
41200W        W13460   5.718  32.928   0.840
41201W        W13461  20.041  27.573   2.921
41202W        W13462  41.132  22.522  11.050
41203W        W13463   0.898  40.114  14.094
41204W        W13464  44.994  16.196  13.995
41205W        W13465   1.388  23.654  11.923
41206W        W13466  31.900  30.502  11.604
41207W        W13467  33.336  16.706   3.247
41208W        W13468   9.659  33.884  13.818
41209W        W13469  15.577  44.735  14.879
41210W        W13470  11.761  39.897   0.572
41211W        W13471  27.243  41.802   0.554
41212W        W13472   3.972   0.543   4.241
41213W        W13473  10.248  13.606  13.297
41214W        W13474  33.325   3.424   3.191
41215W        W13475   7.484   4.035  13.754
41216W        W13476  38.120  19.056  12.693
41217W        W13477  37.975   7.936   1.134
41218W        W13478  38.368  35.776  13.267
41219W        W13479  29.581  38.265   1.808
41220W        W13480  28.618  44.738   3.613
41221W        W13481  15.986  43.198   1.383
41222W        W13482  15.043  19.682   1.754
41223W        W13483  20.947  31.841  13.870
41224W        W13484  19.128  36.904  14.026
41225W        W13485   2.772  37.277  11.981
41226W        W13486  29.449   1.465  11.468
41227W        W13487  20.749  26.728   0.056
41228W        W13488  19.758   8.735  13.238
41229W        W13489  37.554  30.680   3.128
41230W        W13490  43.286  40.002   4.588
41231W        W13491  39.434   2.068  12.706
41232W        W13492  14.420  31.678   3.385
41233W        W13493   4.674  32.573  11.954
41234W        W13494  30.982  22.094   4.589
41235W        W13495  42.845  43.220  13.858
41236W        W13496  39.928   2.652   0.014
41237W        W13497  15.655  20.880   4.596
41238W        W13498  12.838  23.640  12.126
41239W        W13499  21.055  44.081  14.486
41240W        W13500  25.947   8.350  13.961
41241W        W13501  11.276  44.964  10.459
41242W        W13502  14.945   5.734   0.040
41243W        W13503  43.570  30.010   3.157
41244W        W13504  20.754  32.009  13.347
41245W        W13505  35.128  41.644   1.162
41246W        W13506  21.467   6.359  13.449
41247W        W13507  27.424  28.441  11.912
41248W        W13508  17.076  44.847   3.526
41249W        W13509   0.526  31.428  11.758
41250W        W13510  19.158   5.248   1.341
41251W        W13511  31.133  16.699   0.311
41252W        W13512   3.619  37.575  11.058
41253W        W13513  11.589  25.096  10.812
41254W        W13514  25.443  29.942  11.956
41255W        W13515   1.812  21.534   3.269
41256W        W13516  30.487  25.450  14.329
41257W        W13517  17.145   9.064   2.800
41258W        W13518  14.824  35.770   2.439
41259W        W13519  24.824  35.471  11.988
41260W        W13520  21.612  24.747   1.712
41261W        W13521  41.936  26.434  14.502
41262W        W13522  41.223  14.483   3.087
41263W        W13523  35.619  43.754   4.259
41264W        W13524   4.534   4.930  14.423
41265W        W13525  17.269   8.346   3.202
41266W        W13526  23.287  27.077   4.253
41267W        W13527  13.501  13.772  12.853
41268W        W13528   7.986  36.547  14.067
41269W        W13529   2.334   6.362  11.461
41270W        W13530  38.884  40.524  11.585
41271W        W13531  34.089  27.197   3.596
41272W        W13532   7.940   6.334  11.910
41273W        W13533  15.722  38.050   1.492
41274W        W13534  33.834  33.575   3.177
41275W        W13535  26.593  22.836  11.500
41276W        W13536  12.822  19.694   2.169
41277W        W13537  42.421   4.231   2.919
41278W        W13538  37.557   9.239   3.122
41279W        W13539  42.681   4.920   4.099
41280W        W13540  32.101   8.780  10.640
41281W        W13541  34.042  33.603   2.716
41282W        W13542  15.383   1.908  11.684
41283W        W13543  31.545  43.724   3.673
41284W        W13544  16.306   7.312   3.316
41285W        W13545  35.101  34.376  13.829
41286W        W13546  44.795  41.034   4.666
41287W        W13547   2.758  24.351  11.167
41288W        W13548  17.724  24.658  14.960
41289W        W13549  30.862  22.598   4.498
41290W        W13550  41.277  19.221  11.520
41291W        W13551  40.110  36.357  13.562
41292W        W13552  11.708   0.080   1.215
41293W        W13553   3.380   2.351  14.160
41294W        W13554  13.353  26.205   3.185
41295W        W13555  30.738   5.317  11.972
41296W        W13556  37.355  13.053   2.763
41297W        W13557  38.979  31.879   3.322
41298W        W13558  12.803   0.172   1.146
41299W        W13559  29.050  24.895   2.258
41300W        W13560  31.134  11.579   0.966
41301W        W13561  44.764  31.941  11.501
41302W        W13562  19.376  24.343   0.322
41303W        W13563  10.121  35.594   0.771
41304W        W13564  29.582  33.358   3.170
41305W        W13565  32.477  16.208  11.856
41306W        W13566  27.529  27.388   1.235
41307W        W13567   3.247   7.437  14.990
41308W        W13568  44.732   7.226  11.133
41309W        W13569  27.416  37.931   0.536
41310W        W13570  30.603  22.684   2.368
41311W        W13571   9.322  44.654   3.296
41312W        W13572  20.031  16.750   2.706
41313W        W13573  31.214  20.695  10.669
41314W        W13574  15.946  26.019  14.862
41315W        W13575  40.262  11.717  13.504
41316W        W13576  31.550  40.507  14.434
41317W        W13577  36.525  30.574  10.552
41318W        W13578  30.676  35.146   1.373
41319W        W13579  13.669   8.842  11.856
41320W        W13580  37.678  27.927   4.137
41321W        W13581   8.114  11.260   4.363
41322W        W13582  43.346  24.275  12.587
41323W        W13583  27.497   7.782  13.483
41324W        W13584  32.138  17.241   4.862
41325W        W13585  19.036  39.569  11.458
41326W        W13586  19.304  32.859  13.641
41327W        W13587  23.662  30.926  11.877
41328W        W13588  22.737  10.906  13.082
41329W        W13589  41.245  23.164   0.235
41330W        W13590  38.027  39.579  13.544
41331W        W13591   9.188  37.734   0.756
41332W        W13592  10.823  25.555  10.594
41333W        W13593  33.151  22.695  12.974
41334W        W13594   6.105   5.835  13.420
41335W        W13595  10.948  32.980   3.885
41336W        W13596  30.664   9.657   4.579
41337W        W13597  34.075   2.920   1.204
41338W        W13598  33.390  41.325  14.896
41339W        W13599   7.755  36.629  10.779
41340W        W13600  39.600   2.534  12.565
41341W        W13601  29.046  37.791   0.549
41342W        W13602  43.300  22.770   1.357
41343W        W13603  27.150  11.178   0.856
41344W        W13604  33.447   7.792   0.477
41345W        W13605  18.082  34.891  11.420
41346W        W13606  40.484  26.155  10.594
41347W        W13607  44.959   9.175  14.885
41348W        W13608  22.019  35.051   2.765
41349W        W13609   7.314  22.291  13.441
41350W        W13610  28.644  31.450  13.311
41351W        W13611  29.214  13.379   0.126
41352W        W13612   9.417  14.034   0.825
41353W        W13613  24.576  11.534  14.094
41354W        W13614  24.890  25.200  13.998
41355W        W13615  11.890  23.041   3.366
41356W        W13616  16.938  44.969  14.810
41357W        W13617   1.458  39.924   1.285
41358W        W13618   7.454  17.569  12.125
41359W        W13619  27.195  32.001  12.433
41360W        W13620  27.564  32.124   3.315
41361W        W13621   0.438  34.515  13.592
41362W        W13622  18.392  44.877   4.441
41363W        W13623  27.406  14.727   0.442
41364W        W13624  11.524  18.134   0.326
41365W        W13625  42.293   8.230   0.303
41366W        W13626  32.697  35.371  14.296
41367W        W13627  31.995  32.300   3.653
41368W        W13628  12.898  32.513   0.575
41369W        W13629   8.719  28.229  10.539
41370W        W13630  11.555  25.685   4.223
41371W        W13631  44.108  20.696   1.953
41372W        W13632  31.910  36.752   2.222
41373W        W13633   9.456  11.229  12.387
41374W        W13634  35.879  17.217   1.814
41375W        W13635  17.875  23.240   4.344
41376W        W13636   1.490  11.622  10.684
41377W        W13637  37.517  43.463   3.529
41378W        W13638  32.346  40.854  13.378
41379W        W13639   2.901  27.999   2.495
41380W        W13640  15.943   0.697  12.011
41381W        W13641  31.417  30.658   2.472
41382W        W13642  29.026  35.623   4.623
41383W        W13643   8.781  20.539  13.404
41384W        W13644  13.544   6.006   3.167
41385W        W13645  44.902  20.249  10.703
41386W        W13646  37.468  33.781   3.619
41387W        W13647  28.363  41.721  12.370
41388W        W13648  37.558  19.758   2.111
41389W        W13649  23.597  11.185   1.966
41390W        W13650  11.336  29.379   3.181
41391W        W13651   6.663  34.862   1.117
41392W        W13652  44.214  42.536   3.771
41393W        W13653   6.406   3.468   0.324
41394W        W13654  37.084   9.313   2.889
41395W        W13655  26.392  22.213   2.075
41396W        W13656  38.557  14.647  13.289
41397W        W13657  43.507  41.025  10.689
41398W        W13658  24.519  27.658  13.959
41399W        W13659  22.532   0.797   3.714
41400W        W13660  26.996  19.723   2.381
41401W        W13661  40.864  37.805   0.872
41402W        W13662  34.523  32.369  14.456
41403W        W13663  37.475   9.771   0.544
41404W        W13664  32.907  39.446  10.697
41405W        W13665  17.021   0.751   4.221
41406W        W13666  30.265   3.831  11.931
41407W        W13667  12.729  29.526   1.736
41408W        W13668  34.932   8.175  12.480
41409W        W13669   8.751  28.372  13.004
41410W        W13670  21.136  28.471   3.568
41411W        W13671   2.963  31.035   0.953
41412W        W13672  35.549  20.577  11.141
41413W        W13673  40.215   9.132   1.963
41414W        W13674  42.245  17.448  11.198
41415W        W13675   1.928  13.149   1.098
41416W        W13676  19.338  43.905   3.654
41417W        W13677  40.856  38.461  11.114
41418W        W13678   4.938  23.959  13.880
41419W        W13679   3.822  41.869   3.264
41420W        W13680   3.326  33.113   0.525
41421W        W13681  10.226  23.763  13.565
41422W        W13682  31.758  35.407   0.762
41423W        W13683  23.921   5.020  11.197
41424W        W13684  24.416  10.341  10.699
41425W        W13685  29.454  32.692   4.229
41426W        W13686   6.393   2.890  12.563
41427W        W13687  19.371   8.361   5.560
41428W        W13688  15.722  26.711   1.426
41429W        W13689  27.193  39.613  14.937
41430W        W13690   0.433  22.583  10.602
41431W        W13691   3.728   0.633   3.239
41432W        W13692  24.658  36.972   1.764
41433W        W13693  11.236  34.804  14.748
41434W        W13694   4.360   5.220   1.548
41435W        W13695  12.581  33.041   1.333
41436W        W13696  16.231  40.900  14.035
41437W        W13697   6.250  25.478   9.893
41438W        W13698  34.421  31.520  14.008
41439W        W13699  43.740  11.454  13.390
41440W        W13700   0.507   4.764  14.987
41441W        W13701  15.134   4.389   1.189
41442W        W13702  25.550  31.111   3.868
41443W        W13703   7.209  30.702   4.245
41444W        W13704  26.146   6.085  13.453
41445W        W13705   7.975  30.321   2.770
41446W        W13706  26.217  43.112   3.147
41447W        W13707  38.422  28.474  11.645
41448W        W13708   6.639  16.642   0.342
41449W        W13709  23.964  14.134   0.776
41450W        W13710  14.729  42.298   0.690
41451W        W13711  29.948  29.169   4.162
41452W        W13712  40.128  30.511  14.734
41453W        W13713  27.344  20.506   0.213
41454W        W13714  41.432  11.697  14.975
41455W        W13715  44.726  37.495   3.868
41456W        W13716  39.332   6.000  13.059
41457W        W13717   0.699  16.392   1.518
41458W        W13718   4.856  18.504   2.799
41459W        W13719  39.850  42.430   0.008
41460W        W13720  20.581  30.078   4.067
41461W        W13721  24.191  34.335   2.560
41462W        W13722  27.305  39.518   2.364
41463W        W13723  36.977  23.943  14.052
41464W        W13724  10.286  25.220   2.239
41465W        W13725  18.594   1.843  12.188
41466W        W13726  25.756  32.201   0.901
41467W        W13727  14.876  18.210  12.924
41468W        W13728  42.012  22.184   2.514
41469W        W13729   7.686  34.425  11.243
41470W        W13730  19.200  20.696   4.119
41471W        W13731  13.269  29.497  14.858
41472W        W13732  21.023  15.122  10.781
41473W        W13733  31.061  41.513   4.628
41474W        W13734   9.616  31.911  11.835
41475W        W13735  35.404  16.639   2.310
41476W        W13736  27.466  10.449  11.168
41477W        W13737  34.810   0.966   5.125
41478W        W13738  19.158   7.460  10.209
41479W        W13739  21.231   1.615  13.684
41480W        W13740  10.401   5.290   0.778
41481W        W13741   5.721  37.827   0.372
41482W        W13742  39.349  19.970  11.884
41483W        W13743  14.742  35.144   4.922
41484W        W13744  29.589  10.711   3.736
41485W        W13745  30.429   7.681  13.932
41486W        W13746  25.408  18.518  11.109
41487W        W13747  15.103  42.328  10.607
41488W        W13748  22.028  34.512  11.234
41489W        W13749  43.922  19.192   1.785
41490W        W13750  10.242  32.440  14.166
41491W        W13751   4.713   2.986   0.400
41492W        W13752   8.584  31.174  11.541
41493W        W13753  38.526   2.252  14.342
41494W        W13754   1.382  37.992   0.440
41495W        W13755  25.815  10.675  10.639
41496W        W13756  14.929  43.249   1.005
41497W        W13757  28.043  19.239  12.372
41498W        W13758  38.623  35.126   2.075
41499W        W13759  38.409  24.204  13.039
41500W        W13760  13.821  33.854  11.247
41501W        W13761  13.179  18.975  14.013
41502W        W13762  18.587  12.721  12.500
41503W        W13763  10.674   4.139  13.441
41504W        W13764  18.778  40.656   1.614
41505W        W13765   6.409   9.062  11.240
41506W        W13766  21.242  13.248   5.043
41507W        W13767  24.943  37.910  14.685
41508W        W13768  35.999   5.204   0.859
41509W        W13769  34.524   7.011   1.916
41510W        W13770  29.154  24.264  11.117
41511W        W13771  38.534  17.183   1.923
41512W        W13772  23.682   4.898  13.323
41513W        W13773  43.360  21.619   4.128
41514W        W13774  38.854  38.432   1.774
41515W        W13775   3.036  29.630  11.994
41516W        W13776  19.153  39.606  13.904
41517W        W13777  34.848   8.135   1.140
41518W        W13778  11.630   9.198   3.876
41519W        W13779   9.349   8.590   5.072
41520W        W13780  37.899  35.287  12.464
41521W        W13781   2.857   4.206  12.410
41522W        W13782  39.660  23.686   0.419
41523W        W13783   7.151  31.580  11.163
41524W        W13784  36.964  21.766  10.769
41525W        W13785  16.250  15.750   3.797
41526W        W13786  35.572  23.248  14.191
41527W        W13787  16.844  27.796  10.587
41528W        W13788  23.081  20.237   3.700
41529W        W13789  14.652  12.373   2.904
41530W        W13790   7.468  17.093  12.783
41531W        W13791  24.450   3.487   2.391
41532W        W13792  27.750  16.797  10.679
41533W        W13793  41.132  40.104   0.395
41534W        W13794  40.368  43.836  11.608
41535W        W13795  10.771  31.815  14.774
41536W        W13796  20.596  30.389   2.671
41537W        W13797  30.388   8.585  14.002
41538W        W13798  37.666  41.295   2.440
41539W        W13799  16.629  13.488  11.255
41540W        W13800   5.891  35.403  13.925
41541W        W13801  42.327   4.474  13.115
41542W        W13802  40.463   8.335  11.030
41543W        W13803  17.538  13.057   2.803
41544W        W13804  10.864  29.182   1.377
41545W        W13805  42.366  16.835   0.458
41546W        W13806  38.151  41.973  10.768
41547W        W13807   3.183  24.653  11.150
41548W        W13808  21.120  19.384   2.808
41549W        W13809  33.989  44.494  12.587
41550W        W13810  20.111  10.247  14.838
41551W        W13811  43.509   5.902   2.117
41552W        W13812  13.663   9.586   0.671
41553W        W13813  38.905  14.523   9.691
41554W        W13814  39.960  32.454   0.072
41555W        W13815  12.324  30.467   2.879
41556W        W13816  35.410   7.208   2.948
41557W        W13817   1.958  26.688  14.861
41558W        W13818  34.812  24.256  13.016
41559W        W13819  19.775  21.645   0.094
41560W        W13820  14.596  24.194  11.127
41561W        W13821  35.444  10.184  13.157
41562W        W13822  21.667  42.810   3.572
41563W        W13823   6.687  22.498  11.023
41564W        W13824  23.735   3.704   1.304
41565W        W13825   6.861  35.575  13.569
41566W        W13826  44.406  25.658  12.154
41567W        W13827   3.989   6.650   4.585
41568W        W13828  43.500  13.902  14.418
41569W        W13829  26.713   9.333   4.383
41570W        W13830  33.887  24.153   1.426
41571W        W13831  23.413  31.087  12.550
41572W        W13832   8.249  29.335  14.824
41573W        W13833  31.401  36.406   3.217
41574W        W13834  10.384  38.486   3.273
41575W        W13835  27.671  34.307   2.242
41576W        W13836  22.242   5.194   0.439
41577W        W13837  19.575  31.340  12.005
41578W        W13838  42.390   9.884  14.166
41579W        W13839  34.128  25.464  14.457
41580W        W13840  25.684   1.731  10.251
41581W        W13841   8.140  13.729   1.675
41582W        W13842  17.405  31.590   2.429
41583W        W13843  25.302  11.435   2.385
41584W        W13844   8.207  17.675   4.575
41585W        W13845  19.789  20.791  12.470
41586W        W13846  15.137   5.359   1.698
41587W        W13847  28.969  19.775  11.896
41588W        W13848   0.739   9.869  11.112
41589W        W13849  34.437   1.070   1.838
41590W        W13850  31.607  33.443   4.669
41591W        W13851  25.286  35.646  12.876
41592W        W13852  25.387  19.612   4.088
41593W        W13853  33.539  27.101  11.162
41594W        W13854  33.031  43.960  10.678
41595W        W13855  10.771   3.328  11.586
41596W        W13856  10.225  12.087   4.269
41597W        W13857  44.204  41.833   2.429
41598W        W13858  21.124   7.424  14.538
41599W        W13859  44.224  36.076   9.711
41600W        W13860   5.297  33.037  14.897
41601W        W13861   4.908  17.981  10.498
41602W        W13862  23.165   3.004  13.951
41603W        W13863  39.490  38.421  13.296
41604W        W13864  15.518  10.551  11.410
41605W        W13865  19.654  26.414  14.339
41606W        W13866  40.224  38.921   3.197
41607W        W13867  16.237  11.284  13.801
41608W        W13868  35.012  19.715  14.990
41609W        W13869  30.628   7.521   4.737
41610W        W13870  13.335   6.708   3.027
41611W        W13871  25.355  17.716   1.950
41612W        W13872  19.731  37.483  10.707
41613W        W13873  44.889  28.125  14.676
41614W        W13874  35.066   8.605   2.461
41615W        W13875  43.044  30.112   3.196
41616W        W13876   7.737  10.084  11.568
41617W        W13877  27.468   5.496   1.875
41618W        W13878  10.079  30.680  14.431
41619W        W13879  22.039   9.459   0.360
41620W        W13880  20.276  25.697  14.233
41621W        W13881   2.023  30.073  14.529
41622W        W13882   7.162  38.358   3.087
41623W        W13883   0.042  11.282   0.810
41624W        W13884  32.467  17.066   0.307
41625W        W13885  24.286   5.649   4.878
41626W        W13886   9.352  34.312  13.973
41627W        W13887  24.118  20.975  14.673
41628W        W13888  41.281   7.450  14.891
41629W        W13889   3.384  43.773  13.427
41630W        W13890  35.793  16.343   1.630
41631W        W13891  29.103  22.507   2.986
41632W        W13892   0.815  14.519  10.543
41633W        W13893  11.604  14.857   3.310
41634W        W13894  31.472   3.526  11.622
41635W        W13895  39.129  26.398   2.048
41636W        W13896   0.785  33.069   0.757
41637W        W13897  11.322   1.788   1.401
41638W        W13898  44.212  44.839   4.658
41639W        W13899  14.635  44.238  14.976
41640W        W13900  41.792  27.646  13.688
41641W        W13901  22.059   3.901  10.771
41642W        W13902   9.632  25.315   2.761
41643W        W13903   6.215  33.681  12.709
41644W        W13904  40.282  20.034  12.002
41645W        W13905  18.545  44.197   1.574
41646W        W13906  22.056  10.627   2.820
41647W        W13907   3.549  22.622  14.541
41648W        W13908   5.807  36.081  14.392
41649W        W13909   4.375  10.843  13.042
41650W        W13910  30.556  38.475   4.006
41651W        W13911   5.434  37.882  14.959
41652W        W13912  18.714  22.277  12.024
41653W        W13913   8.228  33.708   1.172
41654W        W13914  13.746  16.773  14.545
41655W        W13915   5.966   1.324   0.870
41656W        W13916  31.487   8.186   4.437
41657W        W13917  44.910  37.589   2.428
41658W        W13918   7.883  16.323  12.976
41659W        W13919  42.829  33.036   3.912
41660W        W13920  32.668  22.749   0.235
41661W        W13921  10.765  39.420  13.449
41662W        W13922  25.434   3.461  11.589
41663W        W13923  18.059  17.789  14.035
41664W        W13924   7.864   4.213  12.438
41665W        W13925  33.220  15.401   0.738
41666W        W13926  13.726   5.111   0.557
41667W        W13927  36.699   6.635   0.898
41668W        W13928  24.550  18.643  13.857
41669W        W13929   1.176  20.351   1.181
41670W        W13930  42.510  31.030   3.181
41671W        W13931  12.350  31.554   3.890
41672W        W13932  22.298   1.624   2.721
41673W        W13933   6.122   3.138   4.241
41674W        W13934  20.175  32.543  13.611
41675W        W13935  43.652  23.915   4.089
41676W        W13936  32.159  34.906   4.097
41677W        W13937  42.535   0.916   1.264
41678W        W13938  36.585   4.175  13.576
41679W        W13939  10.906  12.332   1.213
41680W        W13940   0.485  12.415   1.427
41681W        W13941  11.779  41.429   0.344
41682W        W13942  42.927  31.976   1.335
41683W        W13943  23.536   3.479  11.526
41684W        W13944  31.592  42.574   0.475
41685W        W13945  21.345   0.243   4.140
41686W        W13946  12.337  41.396  13.529
41687W        W13947  22.156  37.381  12.470
41688W        W13948  32.094   9.431   2.397
41689W        W13949  18.350  16.660  14.342
41690W        W13950   5.882  25.111   1.632
41691W        W13951  20.279  36.505   4.440
41692W        W13952   4.736  26.188   0.190
41693W        W13953  10.286   9.671   4.117
41694W        W13954   8.208  39.437   4.216
41695W        W13955  29.091  40.116  13.420
41696W        W13956   9.729  37.923  12.421
41697W        W13957   0.218  20.275  13.867
41698W        W13958  24.560  25.547  12.404
41699W        W13959  34.048  14.287  13.904
41700W        W13960  36.073   3.318   4.910
41701W        W13961  15.966  38.717   4.109
41702W        W13962   6.906   5.433  14.949
41703W        W13963  13.870   3.189   2.726
41704W        W13964  34.491  11.615  13.457
41705W        W13965  15.234  11.157   3.941
41706W        W13966  41.920  32.452  13.947
41707W        W13967  28.069  44.280  12.388
41708W        W13968  29.604  27.685   2.746
41709W        W13969   5.895  17.289  11.581
41710W        W13970  16.817   0.940  13.344
41711W        W13971  26.093  15.734  13.721
41712W        W13972  39.055   3.206  10.278
41713W        W13973  18.261  30.066  13.964
41714W        W13974  18.794  26.094   1.358
41715W        W13975  35.681  12.695  12.094
41716W        W13976  42.041  17.674   2.753
41717W        W13977   0.498  32.392   0.866
41718W        W13978   0.702  38.191  13.519
41719W        W13979  41.399  18.239   3.256
41720W        W13980   1.577  19.133  14.928
41721W        W13981  11.891  25.666  14.263
41722W        W13982  42.348  40.063   4.542
41723W        W13983  17.068  20.241  13.959
41724W        W13984  43.019  11.024   4.539
41725W        W13985  13.444  13.105   3.201
41726W        W13986  34.989  42.099  13.365
41727W        W13987   3.006  19.740  12.089
41728W        W13988  12.043   6.093   0.024
41729W        W13989   2.964  31.556  11.589
41730W        W13990   3.336  32.798  11.285
41731W        W13991  44.027  44.859   2.314
41732W        W13992  31.042  11.349  14.018
41733W        W13993  42.553  10.287  10.582
41734W        W13994  39.356   8.083   1.033
41735W        W13995  12.579  30.577  12.478
41736W        W13996  18.069  21.130  11.360
41737W        W13997  11.148   1.500   1.814
41738W        W13998  36.060  40.824  14.787
41739W        W13999  32.392   2.438  14.734
41740W        W14000   9.802  33.426  12.508
41741W        W14001   9.251  31.215  12.033
41742W        W14002  25.730   3.367   3.773
41743W        W14003  35.968   6.229   0.461
41744W        W14004   4.895  44.220  10.411
41745W        W14005  15.803  11.572   1.754
41746W        W14006  13.825   6.993   0.105
41747W        W14007  20.672  23.253   3.304
41748W        W14008  41.974  17.602   2.253
41749W        W14009   3.401  39.435   3.659
41750W        W14010  37.402   6.791  11.661
41751W        W14011  10.367  19.410  13.621
41752W        W14012  15.854  27.215   1.403
41753W        W14013  44.285   6.276   2.346
41754W        W14014  31.905   3.739   2.411
41755W        W14015  19.850  30.778  11.303
41756W        W14016  30.900  25.807   1.651
41757W        W14017   1.231  37.359  13.310
41758W        W14018   6.784   4.209   3.712
41759W        W14019  37.137   9.241   1.137
41760W        W14020   0.938  19.514  11.125
41761W        W14021  35.146  41.749  11.488
41762W        W14022  39.280  37.001   0.205
41763W        W14023   9.822  15.366   1.213
41764W        W14024  40.146   2.549   3.438
41765W        W14025  25.613  41.863  13.405
41766W        W14026  28.219  22.404  14.082
41767W        W14027  11.936   7.209   4.094
41768W        W14028  37.010  22.786  10.651
41769W        W14029  38.842  18.648  11.895
41770W        W14030  28.389  23.494   3.997
41771W        W14031  16.242  40.951   5.008
41772W        W14032  19.718   5.384   2.525
41773W        W14033  11.817  23.009   4.839
41774W        W14034   5.393   5.379   2.186
41775W        W14035   3.240  39.753   0.997
41776W        W14036  21.508  37.552  13.135
41777W        W14037  36.127  22.617   3.805
41778W        W14038  39.876   5.609   4.168
41779W        W14039  21.042  29.786   4.110
41780W        W14040  19.038  22.309  12.951
41781W        W14041  32.506  29.125   4.567
41782W        W14042  41.720  41.926   3.793
41783W        W14043  19.025   7.655  13.746
41784W        W14044   5.495  37.944  13.455
41785W        W14045  16.103   6.435   1.484
41786W        W14046   6.940  16.232   3.782
41787W        W14047  40.285   0.858   4.285
41788W        W14048   8.172  12.672   1.762
41789W        W14049  18.186   5.264  14.970
41790W        W14050  22.475  36.125  10.875
41791W        W14051  36.039  10.922   0.057
41792W        W14052  19.268  14.076   3.764
41793W        W14053  24.170  11.561  11.171
41794W        W14054  42.930  21.624  12.730
41795W        W14055   8.350  23.042  13.874
41796W        W14056  37.444   5.398  10.466
41797W        W14057  21.805   9.988   0.891
41798W        W14058  26.232   9.747  14.571
41799W        W14059  36.941   2.183   3.748
41800W        W14060   3.496  44.983  10.937
41801W        W14061   6.160  10.393   3.185
41802W        W14062  19.502  40.360  11.874
41803W        W14063  17.548  11.882  12.864
41804W        W14064  11.732  35.981  10.777
41805W        W14065  32.399   0.110  10.998
41806W        W14066  18.829   9.155   2.331
41807W        W14067  31.199   1.757  10.336
41808W        W14068  24.269  21.482   0.338
41809W        W14069  17.086  24.526  10.442
41810W        W14070  32.670  13.320   2.183
41811W        W14071  16.722   9.448  11.411
41812W        W14072  39.923  42.964   4.492
41813W        W14073  31.428  17.810  11.192
41814W        W14074  14.111  38.127   3.083
41815W        W14075  36.388  20.558   5.043
41816W        W14076  33.170   8.075   1.714
41817W        W14077  38.204  21.636  12.454
41818W        W14078  29.967  40.070   3.174
41819W        W14079   7.290  23.095   3.084
41820W        W14080  27.961   9.557  12.888
41821W        W14081  36.142  31.607   2.146
41822W        W14082  32.514  11.492  14.971
41823W        W14083   6.472   0.548  14.373
41824W        W14084  23.650  11.327  12.603
41825W        W14085  37.449   6.885  10.136
41826W        W14086  20.708  25.056   4.536
41827W        W14087   3.274  39.160   4.245
41828W        W14088  27.581   2.810   0.290
41829W        W14089  20.241   9.179  12.510
41830W        W14090  18.751   8.218  10.270
41831W        W14091  29.942  14.821  12.302
41832W        W14092  21.004  21.261   5.070
41833W        W14093  44.786  40.420  13.908
41834W        W14094  12.506  22.997  11.215
41835W        W14095  41.819  17.077  14.061
41836W        W14096  21.749  37.703   3.355
41837W        W14097  21.603  32.054   4.085
41838W        W14098  42.928   1.741  14.515
41839W        W14099  27.360  33.860   4.232
41840W        W14100  12.861  30.979   5.859
41841W        W14101  13.808  13.139   4.616
41842W        W14102   2.172   7.442  13.520
41843W        W14103   5.733  39.606   0.325
41844W        W14104   2.512  37.997   1.376
41845W        W14105  30.593   0.347  11.007
41846W        W14106  27.228  21.697  12.078
41847W        W14107  10.401  41.620   4.179
41848W        W14108  40.373  37.845   3.301
41849W        W14109  19.008  17.790   1.065
41850W        W14110   9.438   9.929   1.787
41851W        W14111  15.209  15.633  13.794
41852W        W14112  29.449   5.104  13.329
41853W        W14113  40.862  24.963  12.664
41854W        W14114  44.381  43.814  11.608
41855W        W14115  33.613  21.307   3.726
41856W        W14116  16.247  41.441   0.917
41857W        W14117  38.883  17.292  11.717
41858W        W14118  35.176  35.081  14.658
41859W        W14119  23.721   9.773   3.227
41860W        W14120  13.868  35.495   4.104
41861W        W14121  36.747  19.635  12.446
41862W        W14122   1.918  28.128   1.562
41863W        W14123  25.793  26.638  11.077
41864W        W14124  32.853   3.021  12.093
41865W        W14125  41.345   8.700   2.803
41866W        W14126   0.898  44.476   0.416
41867W        W14127  41.492  39.028   3.157
41868W        W14128   9.182  14.262   4.617
41869W        W14129  16.201   9.912   4.229
41870W        W14130   1.970  25.768  10.605
41871W        W14131   2.848  32.248   2.900
41872W        W14132  40.787   9.555  11.517
41873W        W14133  23.853  15.854   4.041
41874W        W14134  31.839  31.298   0.856
41875W        W14135  30.933  14.351  12.846
41876W        W14136   3.614   0.756  12.817
41877W        W14137   0.404  35.463   3.086
41878W        W14138   2.974  32.097   1.651
41879W        W14139  20.662   7.907  13.823
41880W        W14140  12.727  28.407  11.039
41881W        W14141   8.625  36.282   3.035
41882W        W14142  43.333   1.342  12.406
41883W        W14143  39.775  36.207  11.139
41884W        W14144  17.713   8.591   3.338
41885W        W14145  32.951  33.048   3.621
41886W        W14146   0.488  44.445   2.635
41887W        W14147   0.250  25.001  14.560
41888W        W14148   7.911  22.115   1.125
41889W        W14149  22.213  44.855   3.342
41890W        W14150  30.008  12.582  13.455
41891W        W14151  39.727  20.994  13.974
41892W        W14152  34.069  18.775  14.551
41893W        W14153   2.811   7.024   0.815
41894W        W14154  21.759  15.155   4.341
41895W        W14155   8.389   1.556  13.069
41896W        W14156  32.489  28.289   3.991
41897W        W14157  10.494   3.168   2.082
41898W        W14158  13.218  24.275   0.787
41899W        W14159  28.510   9.342  12.584
41900W        W14160  17.758   7.850   2.585
41901W        W14161  38.989  38.543   3.817
41902W        W14162   9.051   3.891   2.857
41903W        W14163  39.765  44.473   1.244
41904W        W14164  33.520  22.091  14.360
41905W        W14165  28.138   5.694  11.545
41906W        W14166   3.691  19.162   1.019
41907W        W14167  25.506   3.135  10.298
41908W        W14168  36.078  29.004   0.933
41909W        W14169   9.391  26.532   0.411
41910W        W14170  28.515   1.874   1.189
41911W        W14171  12.379  43.585  11.100
41912W        W14172  41.342  24.944  13.046
41913W        W14173   7.479  18.846  13.935
41914W        W14174  32.551  11.220   3.098
41915W        W14175  39.826  13.620  12.511
41916W        W14176   3.029   7.294   4.095
41917W        W14177  14.560  21.812   1.237
41918W        W14178  21.487   8.827   3.960
41919W        W14179  43.242  30.491  11.051
41920W        W14180  41.040  43.716   3.793
41921W        W14181  27.900  12.178  13.506
41922W        W14182  24.172  16.754  11.607
41923W        W14183  39.489   3.148   1.710
41924W        W14184  18.709   8.368  14.607
41925W        W14185  44.834  14.016   0.886
41926W        W14186  39.006  25.563   2.338
41927W        W14187  27.645  24.798  11.457
41928W        W14188  27.343  16.664   2.329
41929W        W14189  40.012  20.407   4.603
41930W        W14190   4.599   6.008   3.203
41931W        W14191  18.489   3.986  14.406
41932W        W14192  22.745  37.445   3.314
41933W        W14193  25.679  26.937  13.560
41934W        W14194  10.761  32.566   3.624
41935W        W14195   5.769  17.314   2.780
41936W        W14196  43.998  10.278  13.277
41937W        W14197   8.666  11.211   0.919
41938W        W14198  32.459  32.819   0.106
41939W        W14199  18.342  10.181  14.413
41940W        W14200  27.178  29.350  13.999
41941W        W14201  20.004   6.710  13.531
41942W        W14202   4.827  39.896   1.730
41943W        W14203  43.899  32.524   3.068
41944W        W14204  19.221  44.401   4.270
41945W        W14205   8.941   9.587  12.420
41946W        W14206  12.155   3.853   4.941
41947W        W14207  16.178  32.346   2.871
41948W        W14208  34.616  18.121  14.840
41949W        W14209  35.479  39.010   2.623
41950W        W14210   4.250  18.027   0.887
41951W        W14211   9.935  12.800  10.753
41952W        W14212  20.852  44.492   1.105
41953W        W14213   6.263   1.793  11.599
41954W        W14214  28.457  43.970  14.305
41955W        W14215  35.743   4.364  12.384
41956W        W14216   0.207  28.630  12.365
41957W        W14217  13.889  32.516   0.737
41958W        W14218  27.553  16.069  14.865
41959W        W14219  38.111  33.876   2.868
41960W        W14220  20.943   9.463  13.010
41961W        W14221  43.840  19.471   4.553
41962W        W14222  31.604  25.682  12.508
41963W        W14223   6.171  43.008  12.830
41964W        W14224  14.742  41.663   4.133
41965W        W14225  13.026  33.280  12.105
41966W        W14226  15.717  22.012   3.162
41967W        W14227  38.537  10.608  12.932
41968W        W14228  10.778  19.179   4.756
41969W        W14229  12.281  19.287  14.457
41970W        W14230  28.980   5.820   4.747
41971W        W14231  20.631   6.808  10.833
41972W        W14232  44.378  14.673   3.928
41973W        W14233  36.973  15.393   0.668
41974W        W14234   4.452  30.712  13.912
41975W        W14235  29.166   5.210   5.020
41976W        W14236   1.700   8.849  13.009
41977W        W14237  20.299   9.367   2.250
41978W        W14238  19.227  17.149   1.859
41979W        W14239  34.309   1.575   1.903
41980W        W14240  27.970  29.709  10.309
41981W        W14241  16.175  15.171  10.707
41982W        W14242  13.750  38.102  11.405
41983W        W14243   3.271  24.761   1.323
41984W        W14244   2.271  42.458   3.372
41985W        W14245  44.595   4.524   2.347
41986W        W14246   1.686  37.032   1.360
41987W        W14247  14.231  35.432   2.683
41988W        W14248  37.936  10.630  14.287
41989W        W14249  36.443  18.681   0.902
41990W        W14250  26.710  18.791  11.200
41991W        W14251  20.529  21.466  12.399
41992W        W14252  43.948  39.347   3.562
41993W        W14253  32.503  43.877  11.999
41994W        W14254  33.375   6.375  12.931
41995W        W14255  13.868  22.726  11.077
41996W        W14256   7.861   8.358  14.685
41997W        W14257  40.552  29.004  10.288
41998W        W14258  32.983  39.914  11.248
41999W        W14259  26.586  37.762   0.764
42000W        W14260  13.622   5.992   2.337
42001W        W14261  12.757  20.751  13.412
42002W        W14262  35.556  12.070  12.541
42003W        W14263  20.512  26.096  12.401
42004W        W14264  31.004  21.173  12.106
42005W        W14265  10.130  26.265   3.475
42006W        W14266  11.817  35.001  13.994
42007W        W14267  42.786  23.048   0.450
42008W        W14268   9.663   2.703   3.277
42009W        W14269   0.725  14.825   2.226
42010W        W14270  27.532  31.158  13.853
42011W        W14271   7.740  12.388  11.175
42012W        W14272   8.101   6.679   0.364
42013W        W14273  20.533  40.084  11.123
42014W        W14274  42.542  22.004  12.138
42015W        W14275  10.395  36.398  12.987
42016W        W14276  41.463  16.491  14.782
42017W        W14277  40.967  16.564  14.933
42018W        W14278  44.427  26.187  10.683
42019W        W14279  13.647  43.727   1.989
42020W        W14280  14.114   3.879   2.761
42021W        W14281  27.403  22.794  14.334
42022W        W14282  43.510   6.880   5.014
42023W        W14283  32.394  11.408  12.607
42024W        W14284  24.107  32.599  13.779
42025W        W14285   6.254   4.969   4.678
42026W        W14286   1.049  20.539   2.689
42027W        W14287  29.421   6.114   4.797
42028W        W14288   2.754  42.880   0.383
42029W        W14289  20.811  25.830   3.188
42030W        W14290  34.088   2.477   1.521
42031W        W14291  42.826  44.486   3.753
42032W        W14292  24.065  17.607  13.497
42033W        W14293  20.200  35.435  11.659
42034W        W14294  28.187  24.153  12.117
42035W        W14295  18.842   2.489  11.080
42036W        W14296  19.961  16.756   0.707
42037W        W14297  18.064   7.338  13.297
42038W        W14298  13.632  43.303   1.692
42039W        W14299  14.988  21.733  13.455
42040W        W14300  43.923  37.934  14.249
42041W        W14301   1.790  19.337   1.711
42042W        W14302  27.222  39.734   3.728
42043W        W14303   6.772  42.742  10.613
42044W        W14304  28.123  42.327  11.994
42045W        W14305  14.805  34.363   3.705
42046W        W14306  34.623  37.334   1.389
42047W        W14307   0.161  29.417   0.505
42048W        W14308  39.239  13.784  11.726
42049W        W14309   8.158  44.740   4.493
42050W        W14310  10.936  23.982   0.280
42051W        W14311   4.403   6.022  13.059
42052W        W14312  23.633  39.772   1.716
42053W        W14313  28.186   0.699  11.648
42054W        W14314  14.288  15.221  14.284
42055W        W14315  15.047  26.631   4.641
42056W        W14316   6.356  26.000   1.337
42057W        W14317   7.104   9.862  12.230
42058W        W14318  14.072  42.212   1.274
42059W        W14319   6.326  22.744  12.042
42060W        W14320  36.467  35.802   0.753
42061W        W14321  21.521  17.418   4.158
42062W        W14322  24.006  16.967  12.121
42063W        W14323  38.122  39.440   0.377
42064W        W14324  40.886  12.866  12.396
42065W        W14325  32.869  27.972   3.760
42066W        W14326  29.382  14.116   4.438
42067W        W14327  22.196  27.507  13.227
42068W        W14328   6.983  33.032   3.550
42069W        W14329  18.830   7.451  11.529
42070W        W14330  15.588  17.508   2.171
42071W        W14331  30.235  40.487   3.359
42072W        W14332  43.831   0.716   4.126
42073W        W14333  29.001  40.625  11.133
42074W        W14334  27.194  18.937  11.352
42075W        W14335  14.592  25.651  11.540
42076W        W14336   8.460   1.808   2.568
42077W        W14337  23.940  32.548   1.273
42078W        W14338  38.808  35.088   5.027
42079W        W14339   5.068  22.851  14.354
42080W        W14340   0.919  32.090  11.925
42081W        W14341  37.989  12.833  13.062
42082W        W14342  44.522  10.686   1.378
42083W        W14343  34.609  10.648  11.588
42084W        W14344   1.445  32.543  12.533
42085W        W14345  17.871   9.151  10.504
42086W        W14346  23.956  31.497   3.207
42087W        W14347  41.307  29.225   1.782
42088W        W14348  14.649  33.072  13.352
42089W        W14349  26.036  27.099  11.086
42090W        W14350  37.825  19.517  10.536
42091W        W14351   9.406  24.179   0.351
42092W        W14352  32.431   4.261   3.457
42093W        W14353  29.428  35.468   1.705
42094W        W14354   1.781  16.638  11.707
42095W        W14355   5.389  10.730  12.997
42096W        W14356  25.459  41.068   2.922
42097W        W14357  28.588   9.838   4.261
42098W        W14358  22.147  18.669   1.874
42099W        W14359  22.180   0.995  12.113
42100W        W14360  16.581  16.811  13.795
42101W        W14361  34.120  33.966  11.946
42102W        W14362  14.750  31.210  11.502
42103W        W14363  21.080   5.503   2.640
42104W        W14364  19.809   7.144   3.233
42105W        W14365  39.414   1.229   0.774
42106W        W14366   1.035  10.535  12.444
42107W        W14367  14.778   2.241   3.218
42108W        W14368  20.995  42.441   2.281
42109W        W14369  11.492   2.219   3.601
42110W        W14370   7.355   1.937   1.651
42111W        W14371   8.970  32.588   2.817
42112W        W14372  34.343  36.355   2.809
42113W        W14373  29.138  18.178  12.895
42114W        W14374  35.334  18.122  12.472
42115W        W14375  41.492   3.186   1.847
42116W        W14376   1.353  34.029   4.387
42117W        W14377   0.821  36.284  12.342
42118W        W14378   8.166  15.273   0.225
42119W        W14379  36.405   7.193  13.472
42120W        W14380  40.040   6.030   0.838
42121W        W14381  38.535  25.076   4.672
42122W        W14382  42.446   8.775   1.712
42123W        W14383  43.730  12.846  12.538
42124W        W14384  20.195   6.566  12.181
42125W        W14385  13.812  33.881  13.522
42126W        W14386  30.319  40.812   4.761
42127W        W14387  20.945  33.670   0.434
42128W        W14388  13.023  33.921  11.798
42129W        W14389  41.636  39.923   0.402
42130W        W14390  34.647  42.626   0.789
42131W        W14391  43.827  22.142   1.857
42132W        W14392  13.862   4.909   3.138
42133W        W14393  35.260  22.536   3.289
42134W        W14394  10.772  41.001   4.563
42135W        W14395   4.992   8.839  12.350
42136W        W14396  22.207  18.804  14.112
42137W        W14397   0.990  21.475  12.044
42138W        W14398  35.539  40.607  12.410
42139W        W14399  33.916  40.454   3.651
42140W        W14400  39.622  22.199   2.939
42141W        W14401  31.339  19.248   1.686
42142W        W14402   0.589  38.022  14.337
42143W        W14403  20.805  13.696   3.429
42144W        W14404  23.793  44.323  13.327
42145W        W14405  24.409  30.530  10.243
42146W        W14406  14.554  43.995   4.401
42147W        W14407  13.635  29.726   0.141
42148W        W14408  24.041  39.423  11.801
42149W        W14409   8.902  37.182   1.667
42150W        W14410  14.095  32.869   3.345
42151W        W14411  36.127   1.673   1.271
42152W        W14412  38.358  30.160   4.091
42153W        W14413  28.513  20.501   4.921
42154W        W14414  13.316  33.402   2.756
42155W        W14415  22.779   3.634  11.181
42156W        W14416  10.250  13.138   4.157
42157W        W14417  18.988  28.192   1.615
42158W        W14418   2.835  41.584   4.127
42159W        W14419  34.998  28.039   3.132
42160W        W14420  18.652   0.795   2.883
42161W        W14421   4.951  28.760   4.099
42162W        W14422  15.826   1.034   2.799
42163W        W14423  23.047  26.663  12.648
42164W        W14424  32.033   6.562   3.154
42165W        W14425  38.600  26.291  14.037
42166W        W14426  21.197  43.298   1.705
42167W        W14427  41.541   5.208  11.651
42168W        W14428  13.743  39.904   0.530
42169W        W14429  37.895  20.422   1.258
42170W        W14430  31.842  37.107  14.393
42171W        W14431  41.943   6.137  13.844
42172W        W14432  25.788  14.177  10.528
42173W        W14433  17.397  38.769   3.156
42174W        W14434  33.859  17.190   2.875
42175W        W14435   3.350  19.394  13.408
42176W        W14436   6.147  25.764  11.093
42177W        W14437  14.756   3.458  12.019
42178W        W14438  22.053  36.002   1.442
42179W        W14439  29.168  21.127   4.626
42180W        W14440  32.115  24.369  11.059
42181W        W14441  11.411  22.122   3.690
42182W        W14442  11.888  15.110   1.849
42183W        W14443  27.932   3.578  11.623
42184W        W14444  26.602  18.260  14.703
42185W        W14445  10.575   9.148  12.530
42186W        W14446  23.471  25.044  12.124
42187W        W14447  13.611  21.496   2.446
42188W        W14448  15.746  36.131  12.558
42189W        W14449   5.671  14.194  13.595
42190W        W14450  14.636   1.452  13.060
42191W        W14451  25.746  27.370   1.800
42192W        W14452  22.910  42.502  13.390
42193W        W14453   3.462   7.460  14.464
42194W        W14454  36.510   2.150  12.421
42195W        W14455  32.039  25.529   2.294
42196W        W14456  24.419  22.845   0.226
42197W        W14457   8.313  37.063  11.579
42198W        W14458  17.582  19.971  12.034
42199W        W14459  10.276  18.619  11.757
42200W        W14460  38.337  27.764   2.997
42201W        W14461  32.548  24.477   0.964
42202W        W14462   1.032  30.602   0.350
42203W        W14463  27.707   9.406  11.193
42204W        W14464   7.101   0.262  11.620
42205W        W14465  18.215  18.897  11.496
42206W        W14466  21.596  38.314  12.400
42207W        W14467  37.693   1.068   4.190
42208W        W14468  20.151   0.208  11.698
42209W        W14469   7.222  27.787   9.748
42210W        W14470  18.819  18.707   4.687
42211W        W14471  35.158  32.832  11.119
42212W        W14472  11.790  26.180  14.256
42213W        W14473  26.484  11.681  13.043
42214W        W14474   0.690   8.895   0.392
42215W        W14475  12.236  27.414  14.001
42216W        W14476  32.597  42.288  11.658
42217W        W14477  19.980  26.973  11.048
42218W        W14478   8.953   6.266  12.032
42219W        W14479   8.857   1.343  13.135
42220W        W14480   4.274  10.783  11.192
42221W        W14481  10.130   4.335  12.574
42222W        W14482  16.010  36.395   2.308
42223W        W14483  12.690  26.441   1.697
42224W        W14484  40.322   0.629  13.056
42225W        W14485  12.158  36.015   3.155
42226W        W14486  44.187   2.485   4.140
42227W        W14487  28.402  23.512  11.971
42228W        W14488   9.198  18.363   2.875
42229W        W14489  44.535  13.814   1.286
42230W        W14490  24.944  10.811  11.140
42231W        W14491   9.557  18.819  13.265
42232W        W14492   2.905  17.114  11.786
42233W        W14493   0.362  21.688   1.636
42234W        W14494  31.207   0.488  12.173
42235W        W14495  29.718  10.823  10.694
42236W        W14496  18.597  24.956   0.863
42237W        W14497  37.790  24.327   3.170
42238W        W14498   5.947  20.277   0.456
42239W        W14499  38.834   7.295  13.491
42240W        W14500   5.904   7.224   1.358
42241W        W14501   3.756  41.044   4.318
42242W        W14502   3.192  17.550  11.979
42243W        W14503  37.515  28.937   3.089
42244W        W14504  35.308  11.144  11.608
42245W        W14505  30.201  43.482   2.578
42246W        W14506  35.061  11.835   1.543
42247W        W14507  24.820  36.981  11.164
42248W        W14508  33.636  20.631   2.960
42249W        W14509  24.436  16.152  12.900
42250W        W14510   8.959   9.241   4.083
42251W        W14511  44.289  20.594  12.075
42252W        W14512  31.141   3.448  14.930
42253W        W14513  39.878  30.723   2.185
42254W        W14514   4.590  35.635  11.270
42255W        W14515  42.076  25.914   0.865
42256W        W14516  25.297  44.816   2.265
42257W        W14517   7.679  21.104  14.838
42258W        W14518  44.235   1.161  12.372
42259W        W14519  15.064  34.357  14.986
42260W        W14520  17.805  35.591  11.059
42261W        W14521  13.680   1.319   2.135
42262W        W14522  23.275  19.728   1.737
42263W        W14523  26.161  40.177   2.113
42264W        W14524   7.348  17.016   3.749
42265W        W14525  36.484  20.347  12.679
42266W        W14526  42.899   9.447  11.038
42267W        W14527   8.828  42.272  14.713
42268W        W14528  22.192   2.926  11.911
42269W        W14529  35.840  35.988  11.915
42270W        W14530  43.985   5.756   4.626
42271W        W14531  32.362  40.554  12.945
42272W        W14532   4.148  10.622  12.626
42273W        W14533  21.043  13.729  12.542
42274W        W14534  25.505  28.392  11.228
42275W        W14535   3.838  20.774   3.228
42276W        W14536   7.966   1.041   1.341
42277W        W14537   7.458  17.245  11.607
42278W        W14538  10.121  19.963  14.995
42279W        W14539  35.044  21.062   5.453
42280W        W14540  31.078  35.919  11.892
42281W        W14541   4.425  32.434   2.161
42282W        W14542  27.118  26.486  12.503
42283W        W14543  38.475  37.791   4.036
42284W        W14544  34.838  24.525  12.437
42285W        W14545  21.560  40.451  13.310
42286W        W14546  36.211  27.580   2.645
42287W        W14547   0.156  33.050  12.346
42288W        W14548  29.652   4.222   4.383
42289W        W14549  42.491  31.085  12.489
42290W        W14550  44.254   0.935   1.978
42291W        W14551  22.314  10.972  11.572
42292W        W14552   9.593  27.447  10.738
42293W        W14553   0.827  16.356   0.504
42294W        W14554   9.246  10.776  12.337
42295W        W14555   2.876   6.141   2.798
42296W        W14556   8.720  22.221  13.770
42297W        W14557  43.353  16.216  10.561
42298W        W14558  19.080   9.770   1.153
42299W        W14559  42.580  13.632  14.326
42300W        W14560  43.861   2.479   1.347
42301W        W14561  30.969  35.642  14.930
42302W        W14562   9.659  39.351   4.166
42303W        W14563  11.802  27.209  14.540
42304W        W14564  33.055  31.710   3.201
42305W        W14565  12.830  30.350  11.606
42306W        W14566  23.779  39.747  14.505
42307W        W14567  27.729  20.205   3.879
42308W        W14568  27.487  38.622   1.178
42309W        W14569  12.558  29.831  11.649
42310W        W14570  19.018  36.870   1.717
42311W        W14571  12.786  38.253  11.594
42312W        W14572  43.744  16.822  13.835
42313W        W14573  35.527  42.492   0.189
42314W        W14574  27.473   8.885  12.101
42315W        W14575  41.555  28.473  12.849
42316W        W14576   3.970  42.475   0.872
42317W        W14577  31.626  26.706   1.319
42318W        W14578  15.313  41.503  14.273
42319W        W14579   5.248   8.840  10.988
42320W        W14580  25.424   3.571   0.239
42321W        W14581  44.818  24.972   1.370
42322W        W14582  17.624  41.449  13.465
42323W        W14583  24.460  18.829   1.324
42324W        W14584  16.564  12.403   0.336
42325W        W14585   3.833  43.838   1.325
42326W        W14586   9.139  37.403  14.948
42327W        W14587  41.733  21.157   3.698
42328W        W14588   5.492  24.720   1.847
42329W        W14589  33.498   8.118  14.298
42330W        W14590  20.272  42.427  14.067
42331W        W14591   5.087  37.897   3.837
42332W        W14592   7.861  18.073   1.978
42333W        W14593   4.629   6.172  11.516
42334W        W14594  18.683  43.495  13.530
42335W        W14595  10.638  38.791  12.362
42336W        W14596  36.324  44.958  13.483
42337W        W14597   7.174  28.365   1.625
42338W        W14598   4.529  29.785  11.086
42339W        W14599  11.970  34.784  11.182
42340W        W14600  13.714  13.617  11.054
42341W        W14601   2.409  36.311  10.231
42342W        W14602  22.935   3.137  11.174
42343W        W14603   7.855  34.616  11.683
42344W        W14604  15.698   2.399   3.408
42345W        W14605  42.554  33.901  12.496
42346W        W14606  13.669  44.687  10.932
42347W        W14607  36.856  24.626  12.446
42348W        W14608   5.826  33.167  14.430
42349W        W14609  42.801  42.822  12.635
42350W        W14610  44.458  10.152  13.483
42351W        W14611  43.276  15.239  10.730
42352W        W14612  29.514  29.187  13.998
42353W        W14613   8.843  39.059  11.670
42354W        W14614  28.691  10.825  12.374
42355W        W14615  37.665  40.598  14.352
42356W        W14616  12.783  28.982   2.576
42357W        W14617  39.238  10.237   1.711
42358W        W14618   1.886  10.374  12.821
42359W        W14619   0.703  17.710  11.388
42360W        W14620   9.835  10.942  13.201
42361W        W14621  33.045  35.845  14.447
42362W        W14622  39.840   5.536  12.488
42363W        W14623  37.950  38.719  12.057
42364W        W14624  38.387   4.124  13.777
42365W        W14625  36.528  34.941  12.060
42366W        W14626  11.707  33.561  12.111
42367W        W14627   1.746  37.007   4.130
42368W        W14628  22.586   2.178  10.472
42369W        W14629  39.920   8.868   0.822
42370W        W14630  25.375  31.916  10.664
42371W        W14631  20.960   2.236  11.986
42372W        W14632  30.496  20.554  10.652
42373W        W14633  26.048  14.658  12.644
42374W        W14634  18.684  28.601   3.727
42375W        W14635  20.562  31.125   2.423
42376W        W14636   7.284  12.758  13.818
42377W        W14637  18.754  11.701  11.233
42378W        W14638  44.847  38.926   2.770
42379W        W14639   2.725  10.049  12.563
42380W        W14640  13.597   2.366  12.889
42381W        W14641  31.845   7.559  10.570
42382W        W14642   5.691  10.205   0.028
42383W        W14643  35.482  39.430   1.495
42384W        W14644  14.832   8.894   3.812
42385W        W14645  22.150  40.691   0.271
42386W        W14646  28.166  17.324  13.101
42387W        W14647  10.451  41.681   1.292
42388W        W14648  42.125  37.687  11.202
42389W        W14649   9.332   0.950   0.495
42390W        W14650   7.351  14.401   4.256
42391W        W14651  38.444  38.536   0.916
42392W        W14652   1.263  24.488   3.374
42393W        W14653  28.662   1.367  10.886
42394W        W14654  33.569  31.974  12.791
42395W        W14655  35.400  16.286  13.068
42396W        W14656   4.423  39.055   2.383
42397W        W14657  40.914  19.294  12.813
42398W        W14658  35.393  12.261  12.079
42399W        W14659  10.164  27.496  12.818
42400W        W14660  13.609   3.533   0.995
42401W        W14661  21.043  21.751   2.765
42402W        W14662   8.811  43.680   0.305
42403W        W14663   3.649  19.211   4.895
42404W        W14664  23.989  37.855   2.894
42405W        W14665  28.154  41.957   2.847
42406W        W14666  24.603  23.703   4.178
42407W        W14667   3.597   3.174   1.272
42408W        W14668  17.439  35.127  14.700
42409W        W14669  27.410  28.665   2.849
42410W        W14670  10.899  10.773   3.228
42411W        W14671  10.202  21.045  13.852
42412W        W14672  25.183  28.999  10.709
42413W        W14673  23.605  39.583  13.557
42414W        W14674  20.781   1.878   2.982
42415W        W14675  11.724  26.559   1.871
42416W        W14676  39.774   6.406  14.196
42417W        W14677  36.898   6.330   1.284
42418W        W14678  43.516  24.667  11.206
42419W        W14679  19.120  15.390   4.648
42420W        W14680  43.311   0.816  13.477
42421W        W14681   3.266  13.292   1.043
42422W        W14682  17.142  12.560  12.186
42423W        W14683  26.750  23.653   1.682
42424W        W14684  37.144   0.815  10.697
42425W        W14685  15.321   4.176  14.284
42426W        W14686  17.510   3.763  10.731
42427W        W14687  42.837  27.295  13.921
42428W        W14688   8.882   5.680   2.635
42429W        W14689  28.551  10.823   0.772
42430W        W14690  41.521   1.956  13.388
42431W        W14691   4.707  39.068  13.349
42432W        W14692   9.269  30.745  15.000
42433W        W14693  29.201  37.913   2.654
42434W        W14694  21.522  34.965   2.050
42435W        W14695  41.984  18.796  10.977
42436W        W14696  43.003  26.878  10.985
42437W        W14697  36.442  20.325  14.846
42438W        W14698  43.568  23.239  13.156
42439W        W14699  43.428  23.677   2.616
42440W        W14700   3.045  41.912   2.731
42441W        W14701  19.894  40.658  14.343
42442W        W14702  15.417  41.052  11.171
42443W        W14703  14.375   7.780  11.553
42444W        W14704  35.903  11.134   3.209
42445W        W14705  30.383  10.106   3.252
42446W        W14706  29.421  18.023   2.314
42447W        W14707  37.434  26.687  14.414
42448W        W14708   7.815  33.620   1.544
42449W        W14709  19.512  35.398   2.262
42450W        W14710   7.099  15.210  14.190
42451W        W14711  41.551   5.188  10.942
42452W        W14712   8.874  17.158  14.875
42453W        W14713  39.310   1.538  14.558
42454W        W14714  40.136  22.228   2.886
42455W        W14715  42.166  13.731   2.325
42456W        W14716   7.555  43.749   4.034
42457W        W14717  41.733  40.063   2.797
42458W        W14718  12.628  10.271   4.194
42459W        W14719  15.136   4.696  11.924
42460W        W14720   2.982  10.599   4.242
42461W        W14721  20.992  13.775  12.033
42462W        W14722  36.931   9.698  11.089
42463W        W14723  32.429  20.698  14.423
42464W        W14724   6.417  24.502  14.433
42465W        W14725   2.855  37.371  10.685
42466W        W14726  44.761  26.717   4.209
42467W        W14727  29.522  17.320  11.103
42468W        W14728  40.575  21.039  12.152
42469W        W14729  11.304  40.075   4.217
42470W        W14730   7.425  15.557   1.858
42471W        W14731  36.797  34.493  12.056
42472W        W14732   8.703  11.863  13.610
42473W        W14733  13.072  44.157   5.127
42474W        W14734  28.998  18.140  11.004
42475W        W14735   1.000   8.469   0.407
42476W        W14736  12.176  38.428  14.436
42477W        W14737  10.781  11.364   4.132
42478W        W14738  30.476  29.929   2.185
42479W        W14739  35.660   8.044  13.965
42480W        W14740   1.706  28.957   0.699
42481W        W14741   0.356   9.659   0.532
42482W        W14742  39.788  32.481   1.907
42483W        W14743  19.547  44.466   0.376
42484W        W14744  40.349  12.848   9.920
42485W        W14745   0.245  16.937  12.875
42486W        W14746  15.793   5.759   1.152
42487W        W14747  11.638  22.600   5.117
42488W        W14748  13.347  10.330  14.328
42489W        W14749  42.150   2.881   0.527
42490W        W14750   7.129   2.376  11.630
42491W        W14751   1.896  13.351  12.052
42492W        W14752  12.179   5.050  15.000
42493W        W14753  22.430  42.834  14.307
42494W        W14754   8.200  28.680   4.103
42495W        W14755  10.429  34.507  13.365
42496W        W14756  20.247  36.118   0.021
42497W        W14757  27.051  27.180   3.931
42498W        W14758  21.967  24.573  14.876
42499W        W14759  25.945  25.710   3.783
42500W        W14760  14.612   8.752   4.810
42501W        W14761   1.406  31.922   4.619
42502W        W14762  26.498  41.340  14.761
42503W        W14763   1.935  42.818  10.578
42504W        W14764  15.753   7.771  14.414
42505W        W14765  11.355  28.837  14.356
42506W        W14766   0.589  30.054   2.172
42507W        W14767  23.898  29.984  11.011
42508W        W14768  29.083   5.874  12.025
42509W        W14769   9.376  13.197  11.525
42510W        W14770  38.211  36.206  13.534
42511W        W14771  30.522  15.860  11.591
42512W        W14772  39.395  28.480   4.901
42513W        W14773  32.527  16.638   2.748
42514W        W14774  22.348  23.167   2.681
42515W        W14775  32.845   8.776   0.570
42516W        W14776   8.476  39.121   0.844
42517W        W14777   8.388   2.479   3.851
42518W        W14778  15.400  18.085  12.910
42519W        W14779  27.198   9.209   3.662
42520W        W14780  20.216  27.089   2.733
42521W        W14781   0.221  26.710  12.328
42522W        W14782   3.702  38.899   4.131
42523W        W14783  29.462   3.425   0.483
42524W        W14784  11.915  22.127   3.750
42525W        W14785  22.122  27.509   4.511
42526W        W14786  16.064  30.481   1.491
42527W        W14787   0.075   5.247  13.000
42528W        W14788  29.048  41.130  13.391
42529W        W14789  31.658  22.579   0.370
42530W        W14790   5.153  21.167   4.578
42531W        W14791  26.945  24.602  14.524
42532W        W14792  24.178  20.721  11.562
42533W        W14793  38.873  44.076  10.669
42534W        W14794   5.781   8.193   4.667
42535W        W14795   7.272  41.814   3.405
42536W        W14796   2.901  20.685   3.147
42537W        W14797  16.573  14.269  10.586
42538W        W14798  16.723  10.213  13.351
42539W        W14799  44.529  11.337  14.294
42540W        W14800  10.880   3.397   4.057
42541W        W14801  33.995   2.360  11.575
42542W        W14802  36.514  15.114   4.562
42543W        W14803  16.544  15.060   3.706
42544W        W14804  36.540   4.401   4.593
42545W        W14805  34.876  17.891  13.065
42546W        W14806   2.638  34.603   2.101
42547W        W14807  31.522  29.659   1.343
42548W        W14808  18.683  38.226  13.014
42549W        W14809  17.042  13.757   0.324
42550W        W14810  42.730  27.990   4.891
42551W        W14811  43.499  27.865   4.420
42552W        W14812  28.445   9.136   2.238
42553W        W14813   0.594   2.820   4.430
42554W        W14814   1.896  41.846   2.161
42555W        W14815  10.154  24.616   2.630
42556W        W14816  15.145  37.377  13.534
42557W        W14817   8.253   0.765   3.260
42558W        W14818  20.608  35.882  13.778
42559W        W14819  20.614  19.069  11.199
42560W        W14820  32.595  34.086  10.856
42561W        W14821  41.215  30.534  11.713
42562W        W14822  36.607  12.185  10.711
42563W        W14823  24.485  32.078  11.468
42564W        W14824  29.043  31.914  14.365
42565W        W14825   3.816  20.624  13.624
42566W        W14826   2.837  42.734  12.423
42567W        W14827   7.908  22.572  11.606
42568W        W14828  25.078  44.014   2.904
42569W        W14829  13.107   1.950  11.853
42570W        W14830  25.287  26.990  13.889
42571W        W14831  12.716  15.749  14.283
42572W        W14832  36.942  39.510   3.222
42573W        W14833  29.847  39.623   0.977
42574W        W14834  25.235  11.846   4.012
42575W        W14835  34.080  18.317  12.102
42576W        W14836  14.614  26.568   1.803
42577W        W14837  13.095   5.860   2.317
42578W        W14838   0.167  28.063  11.610
42579W        W14839  25.244  26.102   3.306
42580W        W14840   0.223   7.368   3.664
42581W        W14841  44.904  43.718   2.268
42582W        W14842  31.114  32.927  14.788
42583W        W14843  20.601  11.664  13.744
42584W        W14844  41.013   8.856   3.231
42585W        W14845  41.267  14.592  12.879
42586W        W14846  32.480  15.578  10.450
42587W        W14847  33.846  41.349   3.782
42588W        W14848   9.101  26.970   0.358
42589W        W14849  35.920  43.140   1.252
42590W        W14850  32.106  33.282   4.006
42591W        W14851  13.606  27.154  13.523
42592W        W14852  36.614  19.215   2.864
42593W        W14853  43.473  27.075  13.556
42594W        W14854   2.418   8.317   3.731
42595W        W14855  41.428  32.220   2.246
42596W        W14856  11.863  13.188  13.935
42597W        W14857  17.222  13.506  11.893
42598W        W14858  33.820  27.695  13.548
42599W        W14859  41.115   5.763  11.084
42600W        W14860  35.919  30.834   4.155
42601W        W14861  17.214  10.720   1.498
42602W        W14862  28.516  17.065   0.222
42603W        W14863  41.529  34.642  14.448
42604W        W14864   5.667  40.429  12.537
42605W        W14865  28.135  13.032  11.001
42606W        W14866  15.694  35.343  12.891
42607W        W14867  24.532  40.343  14.365
42608W        W14868  16.292   2.756   3.303
42609W        W14869  39.388  31.012   1.239
42610W        W14870   8.913  10.337  10.715
42611W        W14871  24.161  11.507  14.802
42612W        W14872  37.549   8.388   0.220
42613W        W14873  34.859  34.725  12.863
42614W        W14874  34.952  15.779  11.097
42615W        W14875  10.227   1.167   0.113
42616W        W14876  19.865  32.776   0.450
42617W        W14877  44.222   4.316  12.897
42618W        W14878  31.202  27.432   2.663
42619W        W14879  17.505  17.373   3.081
42620W        W14880  44.229  41.024  13.046
42621W        W14881  19.619  40.783   2.355
42622W        W14882  39.386   0.702   0.742
42623W        W14883  35.469  17.768  14.798
42624W        W14884  43.985  20.252  13.467
42625W        W14885   4.208  22.153  12.614
42626W        W14886  43.877  34.398   2.763
42627W        W14887  40.963  10.811   3.864
42628W        W14888   0.248   5.627   0.970
42629W        W14889  41.718   5.648  13.845
42630W        W14890   3.355  30.620   4.096
42631W        W14891  11.550  36.506   3.658
42632W        W14892  22.313  32.146  14.751
42633W        W14893  34.118   1.706  14.440
42634W        W14894   3.878  36.438  12.888
42635W        W14895  13.221  21.274  12.031
42636W        W14896  31.459  36.072  12.693
42637W        W14897  10.731  10.435  13.029
42638W        W14898  20.294  28.305   1.647
42639W        W14899  25.013  33.519   0.289
42640W        W14900   3.233  40.184  13.998
42641W        W14901  32.012  41.727   1.965
42642W        W14902  40.758   4.095  12.700
42643W        W14903  43.029  14.320   3.827
42644W        W14904  18.163  37.484  12.064
42645W        W14905  13.891  31.851  12.568
42646W        W14906  18.152  32.033   2.627
42647W        W14907  35.044   0.257   1.123
42648W        W14908  39.927  44.141  11.559
42649W        W14909  26.162  33.035   1.505
42650W        W14910  21.196  41.770  13.670
42651W        W14911  38.160  18.410   2.252
42652W        W14912   4.297   1.761   0.428
42653W        W14913  20.918  26.683   5.091
42654W        W14914  17.792  34.689  14.829
42655W        W14915  18.652  11.113  10.645
42656W        W14916   4.531  22.502  13.970
42657W        W14917   1.704  22.647   0.824
42658W        W14918   5.372   0.384  13.561
42659W        W14919  34.445  23.990  14.923
42660W        W14920   4.948  21.541   2.711
42661W        W14921   1.562  32.074   4.137
42662W        W14922  36.504   1.418  12.708
42663W        W14923  35.065   2.136  13.901
42664W        W14924  37.250   3.476  12.175
42665W        W14925  32.745   0.959   1.429
42666W        W14926  11.513  27.168  10.951
42667W        W14927  28.153  41.280  13.336
42668W        W14928  16.796  42.350  11.085
42669W        W14929  18.013  13.368  13.886
42670W        W14930   5.506  33.981   4.320
42671W        W14931  16.623  27.627  11.957
42672W        W14932  31.123  22.044  13.488
42673W        W14933  35.834  19.577  13.513
42674W        W14934  44.447  11.241  10.732
42675W        W14935   1.829  37.080  14.899
42676W        W14936  36.237  10.009   2.401
42677W        W14937  14.858   5.555  12.932
42678W        W14938  36.303   2.553  11.137
42679W        W14939  42.136  14.839   2.730
42680W        W14940  22.080  34.367  11.722
42681W        W14941   4.911  38.159   4.273
42682W        W14942  14.668   5.238  13.308
42683W        W14943  44.037  38.451  11.636
42684W        W14944  23.001  33.015  12.486
42685W        W14945  13.392  30.537  10.413
42686W        W14946  17.294  37.824   3.145
42687W        W14947  29.739  38.273  11.724
42688W        W14948   8.402   8.870   4.644
42689W        W14949  40.931  37.590   1.349
42690W        W14950  30.998  38.009  14.258
42691W        W14951  20.130   9.265   2.730
42692W        W14952  17.529  28.605   0.099
42693W        W14953  43.521   0.498   4.873
42694W        W14954  30.545  31.400  11.637
42695W        W14955  10.534  17.312   3.917
42696W        W14956  21.546  24.993   1.248
42697W        W14957  20.215   6.161   2.320
42698W        W14958   5.178  32.541   4.574
42699W        W14959   1.663  32.106   1.434
42700W        W14960  19.566   2.843   1.944
42701W        W14961  44.846   7.929   0.429
42702W        W14962  42.322  13.842   0.857
42703W        W14963   2.730  44.306   0.378
42704W        W14964  26.031  17.054   4.602
42705W        W14965  20.022  37.473  14.563
42706W        W14966  42.830  35.083   1.394
42707W        W14967   0.349  13.222   1.854
42708W        W14968  40.251  22.455   4.507
42709W        W14969  11.239  30.939   2.616
42710W        W14970  32.993  36.089   2.747
42711W        W14971   7.911  40.849  12.536
42712W        W14972  26.219  24.076  10.669
42713W        W14973  17.184  40.760  12.998
42714W        W14974   5.392  10.818   2.214
42715W        W14975   5.838  44.941  11.990
42716W        W14976  21.785  39.365   4.728
42717W        W14977  31.678  40.301  11.036
42718W        W14978  10.344  42.877   1.935
42719W        W14979   5.772   9.996  11.138
42720W        W14980  31.911  22.049  10.981
42721W        W14981  16.298  28.657   3.169
42722W        W14982  30.234  22.954  13.052
42723W        W14983   0.717  17.171   0.439
42724W        W14984   5.394  13.741   2.820
42725W        W14985   5.161   1.786  14.758
42726W        W14986   9.759  32.819   2.160
42727W        W14987  22.055  25.590   4.175
42728W        W14988  44.825  15.742   4.634
42729W        W14989  10.752  30.005  12.053
42730W        W14990  13.121  25.200  12.227
42731W        W14991  38.402   6.760   1.787
42732W        W14992  35.545   4.214  13.362
42733W        W14993  37.628  32.111  12.007
42734W        W14994  19.297  30.434  13.436
42735W        W14995  44.247  15.388  13.652
42736W        W14996  26.517  16.520   3.284
42737W        W14997   0.916  35.744   1.334
42738W        W14998  10.408  31.722   3.101
42739W        W14999   9.346  22.563  10.540
42740W        W15000  44.806  17.518   2.275
42741W        W15001  43.471  36.365  13.540
42742W        W15002  16.604   7.165   9.781
42743W        W15003   5.257  44.314  13.938
42744W        W15004   1.545  30.105  14.349
42745W        W15005  10.266  17.461   3.009
42746W        W15006   6.368  37.831  13.068
42747W        W15007  10.357  35.849   4.581
42748W        W15008  22.483  32.716   2.432
42749W        W15009   2.827   1.805  12.623
42750W        W15010  31.197  16.537  14.637
42751W        W15011  19.581  29.151   2.870
42752W        W15012  15.844  40.462   0.559
42753W        W15013   8.116  34.000  13.985
42754W        W15014   0.633  36.488   4.761
42755W        W15015  14.167  26.076  13.062
42756W        W15016   5.456   6.739  12.204
42757W        W15017  38.134  21.696   1.764
42758W        W15018  32.105  12.842   2.609
42759W        W15019  25.213  31.208  13.885
42760W        W15020  42.741  27.303  14.827
42761W        W15021  16.663  31.286  13.811
42762W        W15022  32.892  27.405  13.454
42763W        W15023  24.390  30.901   4.676
42764W        W15024   5.648  33.813   2.571
42765W        W15025  41.130   1.254   4.143
42766W        W15026  17.740   4.857  14.940
42767W        W15027  43.506  17.803  13.962
42768W        W15028   6.961  27.983   2.381
42769W        W15029  27.281  15.571   4.743
42770W        W15030  15.171  33.176   2.684
42771W        W15031   1.951  19.076  12.331
42772W        W15032  26.530   2.765   2.436
42773W        W15033  23.711  16.289   0.307
42774W        W15034  29.340   7.289   1.383
42775W        W15035  10.254  24.930  12.923
42776W        W15036  33.582  35.336  14.942
42777W        W15037  30.097  43.439   3.835
42778W        W15038  41.979  32.076   2.920
42779W        W15039   9.263  33.678  11.100
42780W        W15040  40.892  23.550  11.152
42781W        W15041  24.265  12.013  14.822
42782W        W15042  13.217  20.252  11.832
42783W        W15043  23.729  23.163   0.828
42784W        W15044  10.066  18.898  14.057
42785W        W15045  25.754  17.848   3.255
42786W        W15046  22.516  25.858   2.681
42787W        W15047  28.696   9.861   3.751
42788W        W15048  26.772   5.931   3.320
42789W        W15049  41.769  16.556  11.172
42790W        W15050  25.530  13.678   3.260
42791W        W15051   4.839  36.494  12.892
42792W        W15052   0.974  42.070   0.812
42793W        W15053  38.626  13.240   3.136
42794W        W15054  38.686  34.425   0.811
42795W        W15055  20.259  25.051   0.787
42796W        W15056   0.189  26.728   0.445
42797W        W15057  28.244  37.514   0.872
42798W        W15058  37.078   6.689   3.324
42799W        W15059   3.930   8.610  14.410
42800W        W15060  21.535   0.063   2.808
42801W        W15061   6.163  43.441  13.286
42802W        W15062  11.067  44.759  12.377
42803W        W15063  28.321  40.349  13.067
42804W        W15064   5.431  27.509   3.885
42805W        W15065  20.652  34.544   1.687
42806W        W15066  11.308  37.998   2.247
42807W        W15067  12.936  19.547   0.835
42808W        W15068  26.188  20.031  11.582
42809W        W15069  39.971  40.997   2.759
42810W        W15070  32.180  14.844  12.528
42811W        W15071  15.616   2.709   0.464
42812W        W15072  12.486   0.030  14.008
42813W        W15073  44.564  40.560   4.649
42814W        W15074  28.277  36.073   4.109
42815W        W15075  33.893  21.969   0.670
42816W        W15076  10.811  12.394   2.074
42817W        W15077  15.941  37.274  11.995
42818W        W15078   9.910  11.675  11.009
42819W        W15079  21.470  18.284  14.596
42820W        W15080  44.742  14.133   2.704
42821W        W15081  33.354   0.725   4.647
42822W        W15082  20.504  19.159  14.438
42823W        W15083  30.482  22.342   0.790
42824W        W15084  24.274  41.439   3.669
42825W        W15085  42.859  24.131  13.766
42826W        W15086  31.981  23.568   3.161
42827W        W15087  42.401  10.276   3.760
42828W        W15088  44.826  30.378  11.131
42829W        W15089  16.058  12.617   1.254
42830W        W15090  44.158  39.153  11.196
42831W        W15091  32.159  44.528  14.841
42832W        W15092  41.507  17.657   2.774
42833W        W15093  37.355  29.886  11.703
42834W        W15094   8.766  26.516  11.135
42835W        W15095  23.644   9.819   1.948
42836W        W15096  17.183   0.248   2.936
42837W        W15097  26.233  28.500   0.782
42838W        W15098  35.748  14.279   3.691
42839W        W15099  15.225   7.894   2.208
42840W        W15100  15.844  17.142  13.612
42841W        W15101   5.849  12.822  13.511
42842W        W15102  34.410  36.050   3.652
42843W        W15103  13.554   6.346  12.436
42844W        W15104  44.720  19.716  12.446
42845W        W15105  33.606  11.187  12.105
42846W        W15106   1.162  25.105  13.983
42847W        W15107  26.566  35.490   4.978
42848W        W15108  11.403  36.179  12.345
42849W        W15109  26.491  17.063  10.860
42850W        W15110   5.838  29.622   4.079
42851W        W15111  28.630  20.999   3.209
42852W        W15112   9.094  19.290   0.322
42853W        W15113  14.231   3.261   3.783
42854W        W15114  35.897  21.707  14.746
42855W        W15115  40.413  39.028   0.981
42856W        W15116  25.303  32.213   1.400
42857W        W15117  31.960  17.288   2.862
42858W        W15118  44.746  23.770  13.141
42859W        W15119   9.380  43.405  13.885
42860W        W15120  19.694  30.916  10.685
42861W        W15121  12.917  37.048   2.795
42862W        W15122  44.361  27.128   4.378
42863W        W15123   9.633  14.375  11.019
42864W        W15124  40.691  15.411  12.629
42865W        W15125  35.406  34.899   1.689
42866W        W15126  40.575   6.771   0.731
42867W        W15127  18.786   7.641   0.504
42868W        W15128   8.914   2.836  13.738
42869W        W15129  27.855   4.647   1.769
42870W        W15130   9.331  27.911  13.993
42871W        W15131   3.371  25.094   0.418
42872W        W15132  27.164   8.259   0.458
42873W        W15133  29.842  41.983  11.926
42874W        W15134   3.222  41.970   4.033
42875W        W15135  27.166   3.301   4.575
42876W        W15136  20.306   1.875   5.091
42877W        W15137   6.933  43.515   4.616
42878W        W15138  25.521  13.751  12.917
42879W        W15139  14.964  16.999   0.615
42880W        W15140  40.026  31.943   3.225
42881W        W15141  42.262  16.226  12.331
42882W        W15142   0.690  21.684   0.763
42883W        W15143  26.929  28.133  14.756
42884W        W15144  27.360  39.996  11.656
42885W        W15145  38.917  15.488   4.861
42886W        W15146  14.334  32.500  13.782
42887W        W15147  30.736  11.179  14.759
42888W        W15148  18.776  37.816  14.820
42889W        W15149  44.714  37.505   4.903
42890W        W15150  41.506  22.764  13.060
42891W        W15151  16.767  41.425  14.045
42892W        W15152  13.212  14.229  13.018
42893W        W15153  15.061  42.846  11.621
42894W        W15154  11.331  43.031   3.004
42895W        W15155  11.736  10.467   1.833
42896W        W15156   2.511   6.915   3.536
42897W        W15157  17.762  15.775   3.685
42898W        W15158  13.725   0.611  13.538
42899W        W15159  40.886  22.253   1.763
42900W        W15160  28.116   5.669   5.040
42901W        W15161  37.654  41.567   3.338
42902W        W15162  41.437  20.529   2.169
42903W        W15163  11.740  18.466  12.453
42904W        W15164  18.747  41.900   3.301
42905W        W15165  11.909  11.074   2.921
42906W        W15166  40.872  43.587   2.578
42907W        W15167   6.209  12.342  12.065
42908W        W15168  30.555  12.446  14.060
42909W        W15169  26.725  19.237  13.613
42910W        W15170  19.956  36.067  10.605
42911W        W15171  10.699  20.535  11.662
42912W        W15172  34.924  13.317  13.307
42913W        W15173  18.554   2.073  11.216
42914W        W15174  42.816  43.939   4.857
42915W        W15175   6.866  24.752  14.483
42916W        W15176  28.642  21.666   0.432
42917W        W15177   5.254  43.220   4.296
42918W        W15178  33.942  34.367   4.295
42919W        W15179   9.299  29.483   0.923
42920W        W15180   3.831  31.734  14.022
42921W        W15181  10.874  28.921  13.029
42922W        W15182  26.776  36.153   2.263
42923W        W15183  13.584  19.309  10.789
42924W        W15184  20.921   0.303   0.539
42925W        W15185  12.794  19.401   4.950
42926W        W15186  17.792  16.199  13.891
42927W        W15187  12.974   8.729   2.117
42928W        W15188   7.599  28.774   2.809
42929W        W15189   1.186   6.618  14.480
42930W        W15190  21.064  11.206   2.288
42931W        W15191  24.628  19.334  12.553
42932W        W15192  18.661  29.652   2.827
42933W        W15193  38.270  43.246  14.802
42934W        W15194  44.908   8.475   4.196
42935W        W15195   3.581   5.765   2.349
42936W        W15196  29.277  14.156   3.318
42937W        W15197  35.021  12.206   3.254
42938W        W15198  38.937  10.682   0.739
42939W        W15199   2.361  37.004   3.301
42940W        W15200   8.235  29.167   3.733
42941W        W15201   1.543   2.557   1.510
42942W        W15202  28.854   4.154  10.595
42943W        W15203  33.934   5.872  10.459
42944W        W15204  18.069  13.800   2.846
42945W        W15205  43.927   8.264  12.604
42946W        W15206  17.292   1.616   4.239
42947W        W15207  44.282   9.161   1.237
42948W        W15208  13.244   5.420   0.260
42949W        W15209   4.644  16.021  12.259
42950W        W15210   6.253  13.863   3.285
42951W        W15211  21.605  15.945   4.002
42952W        W15212  24.042  19.519  11.966
42953W        W15213   9.033  29.971   4.127
42954W        W15214   8.786  30.577  14.713
42955W        W15215  24.087  17.770  10.789
42956W        W15216   1.258  10.416  11.243
42957W        W15217  11.856  11.601  12.324
42958W        W15218   2.264  17.396  14.760
42959W        W15219  26.472  27.429  11.983
42960W        W15220   5.259  22.811  11.651
42961W        W15221   9.806   3.219  13.084
42962W        W15222   2.404  40.195  14.961
42963W        W15223  40.396  42.280  11.556
42964W        W15224  16.609  30.100  11.606
42965W        W15225  41.863  10.080   9.878
42966W        W15226   0.124  26.592  10.137
42967W        W15227  19.849  39.416  14.397
42968W        W15228  32.667  22.694   4.442
42969W        W15229   7.110  43.749   1.314
42970W        W15230  32.026   1.804  11.433
42971W        W15231  10.609  43.809   0.236
42972W        W15232  29.589  28.430   0.880
42973W        W15233  29.128   5.124   2.410
42974W        W15234   6.396   3.446  14.775
42975W        W15235  16.055  22.694  11.612
42976W        W15236   1.413   4.648  11.329
42977W        W15237   4.017  44.988   4.008
42978W        W15238  13.890  34.592   3.177
42979W        W15239  28.848  25.064   1.818
42980W        W15240   4.706  13.704   0.371
42981W        W15241  30.928  20.053  13.142
42982W        W15242  24.833  14.198  11.928
42983W        W15243   8.921   3.845   5.220
42984W        W15244  26.527  13.896  12.513
42985W        W15245   4.273  40.645  10.722
42986W        W15246  21.877  15.229  12.506
42987W        W15247  10.205  26.439  13.962
42988W        W15248  33.727  39.965   3.731
42989W        W15249  11.154  23.163   4.049
42990W        W15250  33.990  44.374   4.781
42991W        W15251  37.318  20.221  14.316
42992W        W15252   5.731  27.223  11.144
42993W        W15253  15.293  27.560  13.582
42994W        W15254  21.538  24.659  13.566
42995W        W15255   6.313   0.174   4.716
42996W        W15256  12.869   5.178   4.544
42997W        W15257  15.911  38.770  13.297
42998W        W15258  42.005   5.422  11.561
42999W        W15259  33.556  23.221  10.772
43000W        W15260  37.661  21.565   1.880
43001W        W15261  25.495  18.005  11.187
43002W        W15262  25.081   7.417  12.016
43003W        W15263   8.244   9.575   0.940
43004W        W15264  34.965  12.859  13.531
43005W        W15265   5.142   0.490   2.214
43006W        W15266  35.008  31.109  13.346
43007W        W15267  34.904   7.657  11.871
43008W        W15268  14.588   1.693   4.140
43009W        W15269  36.050  21.103  12.185
43010W        W15270   4.829  30.646   2.676
43011W        W15271  34.585  18.901   1.516
43012W        W15272  40.256  26.578   2.748
43013W        W15273  20.072  41.279   0.853
43014W        W15274  39.447  14.538  10.741
43015W        W15275  20.529  28.496  14.486
43016W        W15276  26.410  36.450  12.985
43017W        W15277  21.111   8.578  11.977
43018W        W15278  29.112   2.226  11.643
43019W        W15279  16.686  18.098  10.349
43020W        W15280   2.175  10.363  10.034
43021W        W15281  25.942  27.655   2.437
43022W        W15282  23.184  40.416  14.819
43023W        W15283  36.019  44.716  13.895
43024W        W15284   2.203  11.559  13.167
43025W        W15285  13.777  17.137   4.364
43026W        W15286  35.543  44.094  12.386
43027W        W15287   9.080  36.694  11.522
43028W        W15288  44.600  16.615  14.581
43029W        W15289  30.073  13.397  11.726
43030W        W15290  21.208  10.714   2.384
43031W        W15291  30.621  29.960   0.714
43032W        W15292   8.384  33.358  10.716
43033W        W15293  44.763  33.064  12.946
43034W        W15294  13.228  38.530  12.312
43035W        W15295  42.543  36.283   0.909
43036W        W15296  38.400  23.421   1.256
43037W        W15297  23.070   2.287  14.712
43038W        W15298  19.517  20.479   3.274
43039W        W15299  44.420  36.031   0.515
43040W        W15300  18.640  38.841   3.129
43041W        W15301  39.271  14.004   3.555
43042W        W15302  23.559  41.598   4.153
43043W        W15303  34.069  14.769   3.790
43044W        W15304  11.928  34.414  10.730
43045W        W15305  42.170  43.791  13.448
43046W        W15306  17.202  44.329   3.359
43047W        W15307  24.181  41.457  12.443
43048W        W15308   0.008  22.107  14.387
43049W        W15309  18.407   9.749   0.597
43050W        W15310  14.692  30.212   4.612
43051W        W15311   9.408  15.748   2.015
43052W        W15312   9.599  21.614  11.657
43053W        W15313  32.537  26.919   0.842
43054W        W15314   2.933   4.421   4.423
43055W        W15315  32.107  20.587  12.951
43056W        W15316  40.019  21.700  14.731
43057W        W15317  37.356  18.091  14.945
43058W        W15318  29.522  27.266   4.276
43059W        W15319  19.774   0.886   0.472
43060W        W15320  13.755  33.019   2.031
43061W        W15321  44.832  18.019   0.976
43062W        W15322  16.509  29.196  11.389
43063W        W15323   4.750  10.845   1.259
43064W        W15324  26.475   6.383   4.658
43065W        W15325  13.873  35.089  13.535
43066W        W15326  11.759  43.065   4.663
43067W        W15327  17.007  18.735   4.226
43068W        W15328  39.533  21.978  12.141
43069W        W15329  21.420  31.061   1.488
43070W        W15330  31.031  20.944   2.659
43071W        W15331  13.456  22.555   0.302
43072W        W15332  17.839  40.290   1.791
43073W        W15333  42.712  10.668  14.384
43074W        W15334  35.081  38.728  11.983
43075W        W15335   9.887   9.856  12.868
43076W        W15336  36.512  40.485  11.561
43077W        W15337  38.629  41.880  14.872
43078W        W15338  29.246  31.961  10.218
43079W        W15339  10.259  29.925   2.775
43080W        W15340  30.085  26.592  11.831
43081W        W15341  13.332   8.072  11.595
43082W        W15342  29.208  40.930   0.230
43083W        W15343  27.532  14.627  13.121
43084W        W15344  16.631  29.807  11.176
43085W        W15345  30.166  31.452   0.256
43086W        W15346  22.901  14.616   4.102
43087W        W15347  31.017  42.414  12.477
43088W        W15348  30.207  41.853  10.663
43089W        W15349  14.844  38.352   2.407
43090W        W15350   5.463  13.113  10.640
43091W        W15351   0.786  35.323  11.030
43092W        W15352  15.629  39.214  13.733
43093W        W15353  20.172  13.220  13.078
43094W        W15354   3.997  19.598   4.998
43095W        W15355  27.718  34.614   3.095
43096W        W15356  14.896  33.361   1.378
43097W        W15357  27.001  18.256   3.874
43098W        W15358  37.443  13.338   0.599
43099W        W15359   1.249  17.302   2.833
43100W        W15360  15.290  16.487   4.063
43101W        W15361  26.917  41.410   2.813
43102W        W15362  12.049  25.944  13.836
43103W        W15363  11.837  26.005   1.183
43104W        W15364  41.503  26.992   4.786
43105W        W15365  11.700   4.781   3.666
43106W        W15366  43.033  20.916   1.557
43107W        W15367  44.204  27.545  12.149
43108W        W15368  23.683  23.813   2.190
43109W        W15369  15.555  26.106   1.256
43110W        W15370  28.056   9.327  10.835
43111W        W15371  24.598  17.884   4.787
43112W        W15372  37.345  24.867  13.383
43113W        W15373  16.814  33.330   1.331
43114W        W15374   1.455  23.991  10.700
43115W        W15375  12.872  27.942   0.654
43116W        W15376  29.886  31.528   1.148
43117W        W15377  20.183  40.493   2.191
43118W        W15378  31.028  30.432   2.783
43119W        W15379  31.143   3.752  12.360
43120W        W15380  44.016  31.569  10.489
43121W        W15381  17.621  20.473   3.240
43122W        W15382   6.678  14.061   1.479
43123W        W15383   2.239  17.143  10.652
43124W        W15384  42.029  21.000  11.917
43125W        W15385  32.511  14.992  14.774
43126W        W15386  21.543  28.208  10.209
43127W        W15387  39.999  34.180  12.846
43128W        W15388  23.902   1.451   0.318
43129W        W15389  43.563  43.808  11.156
43130W        W15390  14.032   8.697  13.978
43131W        W15391  19.444  10.195  13.762
43132W        W15392  17.722  26.430  13.424
43133W        W15393  38.937   1.637   3.153
43134W        W15394  30.984   0.803  10.428
43135W        W15395  11.414  21.616  11.890
43136W        W15396  40.594  34.377  14.665
43137W        W15397   0.733  11.002   4.089
43138W        W15398  17.627   9.795   4.708
43139W        W15399  18.757  34.024   3.698
43140W        W15400  17.193  29.044   3.086
43141W        W15401   0.260   3.752  12.588
43142W        W15402  44.345  34.604   2.692
43143W        W15403  20.998  23.571   0.445
43144W        W15404  39.208  27.326   1.839
43145W        W15405  42.751  37.710  11.274
43146W        W15406  33.166  36.196   9.950
43147W        W15407   0.240  32.604  13.210
43148W        W15408  39.826   9.902  12.039
43149W        W15409   3.506  41.482   5.121
43150W        W15410  18.298  29.668  11.124
43151W        W15411  16.283   5.223   3.163
43152W        W15412  29.243  42.448   0.839
43153W        W15413  19.187  34.796   2.047
43154W        W15414   7.509   3.784   0.437
43155W        W15415  11.343  20.824  11.949
43156W        W15416  26.324  12.198   3.709
43157W        W15417  10.227  25.553  14.807
43158W        W15418  30.777  38.075  14.743
43159W        W15419  24.576  23.447   2.256
43160W        W15420  11.676   6.940  14.913
43161W        W15421   0.863  20.181  10.704
43162W        W15422  14.553   6.264  14.411
43163W        W15423  34.532  32.681   2.693
43164W        W15424  31.066  40.459   3.271
43165W        W15425  10.952  36.968  14.934
43166W        W15426  10.125  39.308  10.701
43167W        W15427  22.170   4.210   2.319
43168W        W15428  33.145  23.981  13.419
43169W        W15429  40.635  11.569  13.926
43170W        W15430   3.825   2.469  13.904
43171W        W15431  19.991  25.262  14.333
43172W        W15432  17.049   1.299   2.759
43173W        W15433  11.444   2.104   0.447
43174W        W15434   0.747  40.441  12.869
43175W        W15435  30.504  17.642  11.167
43176W        W15436   5.706   9.672   3.272
43177W        W15437   3.654   2.085   3.313
43178W        W15438  21.705  29.328  11.583
43179W        W15439  35.433   3.482   2.765
43180W        W15440  14.200  36.902  12.868
43181W        W15441  24.083  13.905   1.736
43182W        W15442  42.862  39.754   3.277
43183W        W15443  42.497   8.664  13.376
43184W        W15444  27.013  39.925   1.230
43185W        W15445   4.959  21.048   2.318
43186W        W15446   7.402  13.619   0.360
43187W        W15447  28.253  23.663   4.975
43188W        W15448  10.547  11.307   5.014
43189W        W15449  22.049  15.790   1.799
43190W        W15450  22.369  10.896   0.204
43191W        W15451  25.882  44.498   0.338
43192W        W15452  16.145   1.436  10.717
43193W        W15453  12.134   9.197   1.786
43194W        W15454  32.046  27.212  10.768
43195W        W15455  32.438  24.918  14.033
43196W        W15456  30.047   3.699   3.334
43197W        W15457  11.610   1.782   2.701
43198W        W15458  40.922  32.093  13.410
43199W        W15459  38.002  28.805   4.599
43200W        W15460   6.328   5.902   2.745
43201W        W15461  17.172  29.948  14.557
43202W        W15462  32.125  18.333  12.860
43203W        W15463  28.001   0.577   0.756
43204W        W15464   6.769   0.299   1.203
43205W        W15465  40.991   6.071  12.484
43206W        W15466  23.582   2.843  14.255
43207W        W15467  29.108  26.496   1.911
43208W        W15468   6.616  43.869   1.159
43209W        W15469   0.015  34.581  13.301
43210W        W15470  39.643  37.948   0.345
43211W        W15471   5.608  38.676   0.748
43212W        W15472   6.986  16.261   4.775
43213W        W15473   6.749  21.791   0.530
43214W        W15474  32.676  28.135   1.418
43215W        W15475   6.286  24.471  13.584
43216W        W15476  15.044   4.345  14.756
43217W        W15477  34.445  41.624  13.880
43218W        W15478  21.012  22.007  10.189
43219W        W15479  37.429   5.348   3.960
43220W        W15480  37.006  43.321  12.903
43221W        W15481  39.431  34.146  13.501
43222W        W15482  23.421  26.755   2.201
43223W        W15483  32.262   7.629  10.874
43224W        W15484  40.470  16.235   4.264
43225W        W15485  12.150  30.856  12.282
43226W        W15486  35.675  36.298  11.321
43227W        W15487  13.711  20.302   4.074
43228W        W15488  25.623  33.645  11.031
43229W        W15489  43.869  31.664   4.227
43230W        W15490   1.859  41.027   2.424
43231W        W15491  27.636  29.552   2.964
43232W        W15492  41.828  44.311   4.488
43233W        W15493   7.004  31.955  10.828
43234W        W15494  44.494   4.340  14.251
43235W        W15495  23.767   0.919  11.500
43236W        W15496  35.813   7.656  11.083
43237W        W15497  24.903   9.830   1.174
43238W        W15498  14.812   5.347  13.785
43239W        W15499  18.677  17.537   4.098
43240W        W15500  23.040   2.782  12.574
43241W        W15501  24.546  32.551   2.574
43242W        W15502   6.823  29.227   5.094
43243W        W15503  22.535  20.613  11.579
43244W        W15504  27.918   7.245   4.131
43245W        W15505  13.814   0.305  13.103
43246W        W15506  12.814  12.790  12.663
43247W        W15507  16.705   7.673   5.193
43248W        W15508   4.484  20.829  13.937
43249W        W15509   2.989  30.379  12.081
43250W        W15510   5.422  37.118   1.076
43251W        W15511  26.203   0.983   0.863
43252W        W15512  17.226  10.649   2.025
43253W        W15513  30.972  27.444  14.750
43254W        W15514  18.157  27.646  11.383
43255W        W15515  18.522  22.139  10.530
43256W        W15516   2.580  12.481  13.478
43257W        W15517  40.878  16.698  11.282
43258W        W15518  33.061  11.302   1.795
43259W        W15519  29.668  24.277  11.146
43260W        W15520  43.359  30.448   3.898
43261W        W15521  30.021  37.992  10.350
43262W        W15522  18.045  39.776  11.064
43263W        W15523  28.038  14.335   0.872
43264W        W15524  19.161   4.125   0.323
43265W        W15525  35.991  23.009   1.536
43266W        W15526  27.381  42.100  11.036
43267W        W15527  14.172  44.741  10.896
43268W        W15528  30.707  41.039  10.469
43269W        W15529  24.018   2.877  13.559
43270W        W15530  44.404  32.494   3.334
43271W        W15531  10.755  23.260  12.431
43272W        W15532  38.366  30.562  13.342
43273W        W15533  40.059  37.605  12.143
43274W        W15534   5.342  34.129   2.865
43275W        W15535  16.119  41.473   2.395
43276W        W15536  10.649  30.899  10.864
43277W        W15537  20.839  25.225   1.857
43278W        W15538   5.968   5.882   1.724
43279W        W15539  22.093   2.025   2.435
43280W        W15540  17.176  42.035  12.104
43281W        W15541  31.205  24.977  14.328
43282W        W15542  29.948  26.136  12.022
43283W        W15543  26.632   1.086  12.395
43284W        W15544  23.160  23.452  11.220
43285W        W15545  17.119  15.857   2.378
43286W        W15546  18.681  28.180  10.853
43287W        W15547   8.711  25.790   0.973
43288W        W15548  16.074  14.200  10.581
43289W        W15549   0.959   8.470   1.530
43290W        W15550  17.225   3.745  12.085
43291W        W15551   4.620  39.761  10.352
43292W        W15552  11.388  30.918  14.859
43293W        W15553  26.095   2.262   2.350
43294W        W15554  40.022   4.273  11.882
43295W        W15555  40.222  41.059   1.919
43296W        W15556  18.842   6.347  13.959
43297W        W15557  10.975  11.176  11.194
43298W        W15558  22.106  40.358  11.520
43299W        W15559  10.889  37.552   2.911
43300W        W15560  33.172  21.310   4.008
43301W        W15561  34.984  27.550   3.948
43302W        W15562  29.528  13.188  13.760
43303W        W15563  30.512  10.606   3.390
43304W        W15564  42.226   8.444  13.810
43305W        W15565  17.468  12.887   0.228
43306W        W15566  19.268  16.882  13.859
43307W        W15567   3.367  20.785  12.440
43308W        W15568   3.805  31.288   0.477
43309W        W15569  22.145   2.451   1.881
43310W        W15570  34.520  42.614   1.693
43311W        W15571  26.552   6.161   0.243
43312W        W15572  42.349  16.319  14.653
43313W        W15573   8.350   4.893  12.547
43314W        W15574   3.018   3.966   2.628
43315W        W15575   9.273  26.396   4.871
43316W        W15576  41.832  38.992   0.057
43317W        W15577  22.844  16.442   0.119
43318W        W15578  40.013  39.791  11.992
43319W        W15579  12.317  10.801   2.706
43320W        W15580  11.559  19.465  12.424
43321W        W15581  14.614  28.135  13.838
43322W        W15582  31.469  35.146  13.006
43323W        W15583  41.638   3.989  14.952
43324W        W15584  41.356  14.852   4.339
43325W        W15585  27.033  43.472   4.764
43326W        W15586  37.621  18.306   1.196
43327W        W15587  33.966  41.348   4.658
43328W        W15588  44.099  14.740  14.830
43329W        W15589   3.458   3.769  13.509
43330W        W15590  12.974  31.058   5.365
43331W        W15591   2.685  36.643   2.404
43332W        W15592   6.234  16.719   2.387
43333W        W15593  17.652   6.240   2.895
43334W        W15594  29.395  33.573  11.119
43335W        W15595  37.382   2.278   0.515
43336W        W15596  28.352  37.899  11.977
43337W        W15597  15.472  20.384  12.377
43338W        W15598   8.582  25.244   0.029
43339W        W15599  15.923  25.040  11.623
43340W        W15600  40.175   6.359   1.816
43341W        W15601   2.489   1.502   4.295
43342W        W15602  34.297  24.977   2.668
43343W        W15603  12.111  19.908  10.288
43344W        W15604  36.088   6.909  14.437
43345W        W15605  29.315  35.057  12.996
43346W        W15606  22.124  32.933  13.401
43347W        W15607  14.088  10.239  10.670
43348W        W15608  20.921  19.734   3.186
43349W        W15609  37.076   9.713   0.241
43350W        W15610  22.803  44.798   3.114
43351W        W15611  38.685  32.905  14.696
43352W        W15612  35.408  11.076   2.707
43353W        W15613   4.783  22.118  12.515
43354W        W15614  14.509   4.906   4.489
43355W        W15615  31.217  26.419   9.925
43356W        W15616  37.088   5.421  11.089
43357W        W15617  34.060  16.623   1.799
43358W        W15618  33.633  14.662   4.151
43359W        W15619  36.932  17.297   2.855
43360W        W15620   6.904  13.500   2.801
43361W        W15621  39.029   7.091   4.671
43362W        W15622  31.928  25.066  11.614
43363W        W15623  44.237  39.560   4.542
43364W        W15624   7.196   9.695   0.973
43365W        W15625  28.668  27.002  14.137
43366W        W15626  31.657  27.887  14.501
43367W        W15627  12.751   5.050  14.059
43368W        W15628  31.685  43.470  12.982
43369W        W15629   4.234  34.566   4.143
43370W        W15630  25.598  41.416   2.389
43371W        W15631   4.736  23.139  10.979
43372W        W15632  41.811  43.173  11.098
43373W        W15633  27.694   7.384   3.691
43374W        W15634  39.797  30.745  13.799
43375W        W15635  11.531  37.906  14.712
43376W        W15636  14.131  28.968  14.975
43377W        W15637  19.363  36.059   3.473
43378W        W15638  26.264  18.102  10.763
43379W        W15639   5.179   7.712  13.434
43380W        W15640   3.792  12.216   0.658
43381W        W15641   5.490  21.571   4.909
43382W        W15642  18.994  22.206   2.411
43383W        W15643  35.848  25.551  13.881
43384W        W15644  36.326   3.483  13.932
43385W        W15645  29.991  30.495  10.666
43386W        W15646   1.118  33.277  14.804
43387W        W15647  27.630  33.615  14.607
43388W        W15648   7.873   7.861  12.568
43389W        W15649   6.651  11.825   2.175
43390W        W15650   0.836  18.037  12.145
43391W        W15651  25.206  35.389   4.174
43392W        W15652  41.523  16.153   2.295
43393W        W15653   7.191  10.664   0.563
43394W        W15654  37.036  28.383   1.615
43395W        W15655  32.163  18.226  14.277
43396W        W15656  35.532   7.309  11.587
43397W        W15657  25.580  11.303   4.770
43398W        W15658   2.901  29.095  14.019
43399W        W15659   0.758   6.673  12.542
43400W        W15660  40.701  17.912  12.823
43401W        W15661  27.646   8.673  13.984
43402W        W15662  29.747  17.803   3.738
43403W        W15663  43.411   1.213  10.529
43404W        W15664  11.025   3.220  14.474
43405W        W15665  16.695  39.508   1.339
43406W        W15666  31.822  13.331  11.388
43407W        W15667   0.944  35.412  13.072
43408W        W15668   1.064   4.006   0.141
43409W        W15669  40.100  22.391   3.907
43410W        W15670  38.931  44.369   0.269
43411W        W15671   2.742  25.153  14.040
43412W        W15672  18.217  41.601   1.247
43413W        W15673   2.861  10.854   2.137
43414W        W15674  40.043  38.878  11.042
43415W        W15675  20.726  29.674  12.883
43416W        W15676  30.767  30.840   4.204
43417W        W15677  25.549   5.890  13.845
43418W        W15678  19.498  17.771  12.898
43419W        W15679  26.228  12.392  12.024
43420W        W15680  14.350  40.806   0.052
43421W        W15681  12.296   7.444   3.713
43422W        W15682   5.466  26.667   0.776
43423W        W15683   9.403  14.812  14.204
43424W        W15684   4.748  16.799   4.521
43425W        W15685  18.522  22.695   4.221
43426W        W15686  16.055  20.876   1.135
43427W        W15687  30.012   0.119   2.876
43428W        W15688  25.992   8.911   0.429
43429W        W15689   6.661   7.447   0.860
43430W        W15690  34.279   8.726   3.212
43431W        W15691  20.228  11.155  11.109
43432W        W15692  10.697  16.638  12.906
43433W        W15693  25.997  13.733  11.688
43434W        W15694  32.723  28.182  14.000
43435W        W15695  15.613  23.056  12.809
43436W        W15696  35.338  15.729  10.747
43437W        W15697   6.831  41.583   3.666
43438W        W15698   7.881  28.444   0.653
43439W        W15699  41.600   1.645   2.826
43440W        W15700  43.751  32.490   0.035
43441W        W15701  40.819  44.898  13.897
43442W        W15702  10.558  12.289  12.535
43443W        W15703  35.717  21.236   2.972
43444W        W15704  22.168   0.221   4.417
43445W        W15705  30.999   8.918   2.823
43446W        W15706  24.068  31.664  13.349
43447W        W15707   5.364   4.883   3.116
43448W        W15708  30.962   0.373   3.712
43449W        W15709  19.770  11.211   3.690
43450W        W15710  43.179  23.194  10.641
43451W        W15711  28.166  21.920  11.478
43452W        W15712   7.305  44.719   1.440
43453W        W15713   9.627   1.507   4.718
43454W        W15714   0.765  27.969  13.444
43455W        W15715  35.874   1.326   2.146
43456W        W15716   7.347  28.680   3.692
43457W        W15717   9.292  39.931   2.648
43458W        W15718  28.303   4.635   2.192
43459W        W15719  33.808  10.745   2.171
43460W        W15720  40.573  35.212  10.658
43461W        W15721   3.295   3.384  13.969
43462W        W15722  32.435  33.051  13.990
43463W        W15723  41.767  17.047  12.667
43464W        W15724   4.434   5.689  10.548
43465W        W15725  27.559  28.017  13.100
43466W        W15726  25.905  40.282   4.286
43467W        W15727   5.872  27.538   3.630
43468W        W15728  26.065  38.617   3.160
43469W        W15729  11.836  15.182   3.655
43470W        W15730   0.259  21.572  10.567
43471W        W15731  27.676  23.261  12.936
43472W        W15732   4.450   5.992  11.010
43473W        W15733  23.914  21.170   3.653
43474W        W15734  21.612  16.698   0.472
43475W        W15735  22.651  11.802   0.227
43476W        W15736  37.335  10.360  14.363
43477W        W15737  14.738   0.495   1.729
43478W        W15738  30.825   8.889   4.797
43479W        W15739  17.688  17.291  14.278
43480W        W15740  10.183  37.610   4.670
43481W        W15741  42.764  44.889   4.680
43482W        W15742  32.604  37.924  13.423
43483W        W15743  44.243  25.759   2.320
43484W        W15744  28.786   2.143  12.974
43485W        W15745  39.209  19.022  11.110
43486W        W15746  30.523   1.298   1.781
43487W        W15747  19.902  10.891  12.097
43488W        W15748  44.251  41.044   1.844
43489W        W15749  16.773  44.808   1.874
43490W        W15750  13.994  43.156   4.392
43491W        W15751  43.680  25.141   9.993
43492W        W15752   3.381  35.882  12.464
43493W        W15753   4.495  40.767   1.575
43494W        W15754  32.110  36.219  13.269
43495W        W15755  22.329  26.292   3.835
43496W        W15756  33.386  22.062   1.337
43497W        W15757  15.974  21.666   4.642
43498W        W15758  29.070  21.493  11.697
43499W        W15759   6.605   1.415  13.739
43500W        W15760  37.856  42.789  12.891
43501W        W15761  11.034  14.194   3.716
43502W        W15762  16.302   8.334  14.475
43503W        W15763  21.118  29.782   5.020
43504W        W15764   4.831  38.693   3.161
43505W        W15765  29.663  38.563   0.484
43506W        W15766  28.970  36.680  12.091
43507W        W15767  23.973  43.880   1.415
43508W        W15768  15.656  33.916  13.747
43509W        W15769  14.656  21.839  11.699
43510W        W15770  37.866   8.819   4.548
43511W        W15771   1.948  21.797   3.726
43512W        W15772   4.449  21.849   3.568
43513W        W15773  23.747   8.380  11.072
43514W        W15774  29.873   2.248  14.924
43515W        W15775  12.868  20.218   3.799
43516W        W15776   7.178  19.263  13.805
43517W        W15777  12.349   6.458   1.485
43518W        W15778  18.746  44.203  12.310
43519W        W15779   7.720   5.406   0.434
43520W        W15780  38.530  24.133   4.815
43521W        W15781  29.888  37.055  12.038
43522W        W15782  37.297  13.717  10.648
43523W        W15783  27.060   6.687   1.256
43524W        W15784  36.438  24.225  12.904
43525W        W15785  31.618  42.563   2.584
43526W        W15786  14.501  43.452   1.275
43527W        W15787  27.607  41.985   1.318
43528W        W15788  42.443  12.081  11.621
43529W        W15789  23.232  43.482  11.652
43530W        W15790  11.175  26.733   9.928
43531W        W15791  26.764  18.307   2.901
43532W        W15792  30.524  42.573  11.176
43533W        W15793  30.566  28.900   2.233
43534W        W15794  21.579  20.188   4.419
43535W        W15795   7.086  40.862   2.635
43536W        W15796  31.336  26.726  14.428
43537W        W15797  38.056   8.106   0.496
43538W        W15798  14.767  13.657   1.653
43539W        W15799  14.696   8.154  12.570
43540W        W15800  34.904  15.491  13.020
43541W        W15801  16.806  30.643  14.307
43542W        W15802  27.159   8.702   0.195
43543W        W15803  19.028  37.135  11.659
43544W        W15804  36.007  27.554   3.125
43545W        W15805  35.945  41.180   2.796
43546W        W15806  11.125  10.133  13.233
43547W        W15807  21.144   2.485   4.432
43548W        W15808  43.714  43.922   0.941
43549W        W15809   3.361  10.549   2.171
43550W        W15810  33.732  31.858  11.575
43551W        W15811  17.738   7.441   2.255
43552W        W15812  44.462  22.170  12.986
43553W        W15813  44.944  10.389  14.702
43554W        W15814  38.020   4.846   0.939
43555W        W15815   6.178  39.747   2.899
43556W        W15816  44.374   8.386  12.380
43557W        W15817   0.658   9.625   3.239
43558W        W15818  19.232  44.750   3.318
43559W        W15819  31.529  15.111   0.274
43560W        W15820   1.664  31.984   2.282
43561W        W15821   0.242  13.134  12.039
43562W        W15822  11.900  35.167   3.073
43563W        W15823  44.970   3.905   3.883
43564W        W15824  30.227   1.355  14.861
43565W        W15825  31.919  23.486   3.663
43566W        W15826  19.575   1.178  14.020
43567W        W15827  30.525   8.201   1.799
43568W        W15828  26.494  30.834  13.327
43569W        W15829  24.680  14.256   0.284
43570W        W15830   5.650  18.831  10.679
43571W        W15831  43.015  15.962   4.190
43572W        W15832  39.437  30.576   2.681
43573W        W15833  31.832   9.125   0.924
43574W        W15834  18.577   7.940   9.612
43575W        W15835   7.376  17.711  11.246
43576W        W15836  10.092  18.995  14.956
43577W        W15837  43.307  44.256  13.414
43578W        W15838  34.385  10.663  14.995
43579W        W15839  24.659  35.845   1.380
43580W        W15840   7.447  40.308   0.001
43581W        W15841  34.486   8.187   3.269
43582W        W15842   0.916   2.848   3.093
43583W        W15843  35.900  22.936   1.021
43584W        W15844   6.783  21.263   4.103
43585W        W15845  39.702   0.063  10.684
43586W        W15846  35.110   2.337   4.065
43587W        W15847  24.060  36.085  13.230
43588W        W15848   1.198  35.550   0.002
43589W        W15849   3.582  22.562   3.763
43590W        W15850  28.051  29.868  12.010
43591W        W15851  42.487  39.365  11.612
43592W        W15852  21.236  28.979  12.423
43593W        W15853  35.260  28.594  14.762
43594W        W15854  25.176   2.967  14.522
43595W        W15855  16.607  10.043   1.739
43596W        W15856   6.548  32.760   2.723
43597W        W15857  22.017  12.322  14.332
43598W        W15858  19.515  29.260   2.301
43599W        W15859   5.887  20.336   3.968
43600W        W15860  44.890  13.773  11.549
43601W        W15861  14.677  32.118   3.491
43602W        W15862  43.247  28.139  14.452
43603W        W15863   9.702  11.822   3.206
43604W        W15864  10.628  33.838  10.699
43605W        W15865  43.212  27.463   3.546
43606W        W15866  20.241  19.481   1.707
43607W        W15867   0.175  37.044   2.391
43608W        W15868  21.019  26.589  12.863
43609W        W15869  37.804  41.805  12.047
43610W        W15870   4.939   3.911   2.422
43611W        W15871  44.732  40.053   0.923
43612W        W15872  13.164  30.044  14.015
43613W        W15873  29.218  34.455   1.399
43614W        W15874   2.400  19.145  14.511
43615W        W15875  27.681   9.994   2.267
43616W        W15876  32.520  13.791   1.367
43617W        W15877  34.988  25.668   4.042
43618W        W15878  28.894  29.186  14.601
43619W        W15879  38.507  10.749  10.697
43620W        W15880  31.072   5.136   0.619
43621W        W15881  11.370  34.850   2.191
43622W        W15882  31.959   0.339   2.761
43623W        W15883  38.382   0.193   1.667
43624W        W15884  37.343  40.814   3.113
43625W        W15885  12.071   5.498  10.686
43626W        W15886  22.660  30.410   4.613
43627W        W15887  31.547  44.272  10.689
43628W        W15888   8.967  20.920  14.799
43629W        W15889   8.523   3.467  12.971
43630W        W15890  35.079  42.233  14.442
43631W        W15891  36.791  10.889  13.527
43632W        W15892  24.699  23.031   4.715
43633W        W15893  23.913  27.882  14.409
43634W        W15894  15.706  27.431   3.629
43635W        W15895  31.512  27.572   3.527
43636W        W15896  39.602  26.490   1.825
43637W        W15897  40.630  13.097   0.943
43638W        W15898  20.302  20.695  13.809
43639W        W15899  43.069  11.427  13.475
43640W        W15900  30.542  28.932  11.036
43641W        W15901  41.371   9.238  13.913
43642W        W15902  25.024   9.269  11.657
43643W        W15903  43.982  24.102   4.526
43644W        W15904  14.872  24.845  12.461
43645W        W15905  11.871  15.830   2.231
43646W        W15906  44.413  22.600   5.484
43647W        W15907  41.974  41.406   3.091
43648W        W15908  22.538  25.527  12.876
43649W        W15909  41.389  31.627   1.920
43650W        W15910   8.348  17.621   0.975
43651W        W15911  39.251  18.555  14.828
43652W        W15912  31.168  35.132  14.947
43653W        W15913  23.069   2.884  12.070
43654W        W15914  17.721  43.670  11.033
43655W        W15915  25.675  18.776  11.504
43656W        W15916   9.406  39.344  11.518
43657W        W15917   2.788  36.835   4.195
43658W        W15918  35.655   6.529   0.749
43659W        W15919  38.526   2.436   2.224
43660W        W15920  21.902   5.873   3.657
43661W        W15921  39.892  12.292   2.280
43662W        W15922  40.024  18.764  14.436
43663W        W15923  40.695  39.576  14.335
43664W        W15924  28.724  40.860   0.469
43665W        W15925  21.690  39.527  11.897
43666W        W15926  15.146  28.436   0.337
43667W        W15927   0.498  12.162  12.388
43668W        W15928  32.598  23.956   1.030
43669W        W15929  30.290  41.213   3.312
43670W        W15930  43.367   9.397  12.591
43671W        W15931   9.304   7.353  12.913
43672W        W15932  27.711  36.570  11.522
43673W        W15933   6.391  20.019   1.358
43674W        W15934   2.883  27.033  12.001
43675W        W15935  33.464  40.852  14.441
43676W        W15936  35.018   2.276  13.411
43677W        W15937  22.023  26.604   2.584
43678W        W15938  38.685  12.246  10.945
43679W        W15939  34.170  25.816   2.736
43680W        W15940  35.419  23.236   3.498
43681W        W15941  23.128  37.004  14.384
43682W        W15942  15.131  12.189  13.062
43683W        W15943  39.890  40.575   3.814
43684W        W15944  14.355  24.326   3.626
43685W        W15945   4.923  12.834  12.196
43686W        W15946  12.604  28.452   2.809
43687W        W15947  15.182  15.595  12.451
43688W        W15948  26.125  39.040   0.806
43689W        W15949  14.954   9.130   1.136
43690W        W15950  36.480  41.319  12.949
43691W        W15951  38.819  22.106  14.181
43692W        W15952   2.094  14.216  14.970
43693W        W15953  43.919  22.756   3.303
43694W        W15954  22.149  15.215  11.949
43695W        W15955   2.289   8.948  10.476
43696W        W15956   5.691  25.540   0.408
43697W        W15957  39.314  36.514  12.189
43698W        W15958   4.790  25.695  13.402
43699W        W15959  12.775  36.210   1.764
43700W        W15960  35.528  25.045   3.268
43701W        W15961  43.750  41.969   2.628
43702W        W15962  38.572  42.419   2.789
43703W        W15963   1.941   4.968  10.767
43704W        W15964  12.760  37.469  12.645
43705W        W15965  31.214   6.336  13.608
43706W        W15966  33.052  24.196   2.753
43707W        W15967  11.350  17.273  13.094
43708W        W15968   4.789  32.897   3.163
43709W        W15969  10.792   1.153  10.814
43710W        W15970  36.986  34.144  13.039
43711W        W15971  29.963  44.854  12.942
43712W        W15972  28.446  30.393  12.521
43713W        W15973  19.203  40.270  13.505
43714W        W15974  40.909  21.637  13.806
43715W        W15975  18.615  34.601   0.296
43716W        W15976  20.824   7.880  14.342
43717W        W15977   5.159   1.428   4.186
43718W        W15978  15.816  34.529  12.438
43719W        W15979  27.920  11.946   2.757
43720W        W15980  36.440  14.823  10.693
43721W        W15981  40.515  36.750  13.360
43722W        W15982   4.626  28.132   5.704
43723W        W15983  23.877   7.159   1.369
43724W        W15984  21.369  19.973  13.555
43725W        W15985  31.140   1.260   0.168
43726W        W15986  23.919  12.984   4.858
43727W        W15987  41.553  18.658  11.698
43728W        W15988  37.578  14.727  11.732
43729W        W15989  40.584   5.677   2.309
43730W        W15990   6.511  27.632   0.859
43731W        W15991  40.573   1.256  13.944
43732W        W15992  11.330  35.451   2.433
43733W        W15993   6.156  37.530  14.462
43734W        W15994  32.034  22.240  11.630
43735W        W15995  25.543  19.474  11.069
43736W        W15996  37.799  28.939   1.254
43737W        W15997  13.786   4.293  11.898
43738W        W15998   8.659  25.780  12.943
43739W        W15999   9.735  41.806  11.417
43740W        W16000  25.863  44.527   4.732
43741W        W16001  28.867  10.575   0.435
43742W        W16002  40.538  42.013  12.529
43743W        W16003   4.176  44.748  14.478
43744W        W16004  37.797  38.050   0.385
43745W        W16005  44.061   1.227   2.363
43746W        W16006  15.561   0.849  11.124
43747W        W16007  25.005  22.455   3.407
43748W        W16008   4.523   0.844  11.541
43749W        W16009  26.174  41.469   4.657
43750W        W16010   0.412  26.659  14.983
43751W        W16011  22.731   4.689  13.282
43752W        W16012   5.586  18.698   3.230
43753W        W16013  32.408  13.238   4.658
43754W        W16014  12.788   0.699   2.428
43755W        W16015  23.610  16.467  14.073
43756W        W16016  14.191  25.005   0.710
43757W        W16017  34.843  26.243  12.926
43758W        W16018   2.397  26.839  12.950
43759W        W16019  18.296  42.717   0.400
43760W        W16020  33.455  27.490  13.865
43761W        W16021  40.514  33.698   4.244
43762W        W16022   1.332   7.607   2.812
43763W        W16023  31.057  44.106  14.930
43764W        W16024  27.056  17.315   1.782
43765W        W16025  41.414  20.689  10.721
43766W        W16026  11.281  29.457  11.134
43767W        W16027   0.359   9.827   4.211
43768W        W16028  18.796  17.072   2.166
43769W        W16029  34.026  37.317   0.402
43770W        W16030  19.573   5.349  12.141
43771W        W16031  34.710  21.773   9.631
43772W        W16032  27.989   5.950  13.836
43773W        W16033   4.148   0.399   3.373
43774W        W16034  19.509  17.155  14.904
43775W        W16035  26.506  15.584  14.039
43776W        W16036  43.193   6.536  14.493
43777W        W16037  40.048  35.841   2.750
43778W        W16038  22.469  43.994  12.001
43779W        W16039  12.859   1.281  11.908
43780W        W16040  15.699   1.864   0.958
43781W        W16041  34.584  11.260   4.022
43782W        W16042  24.487  13.799  12.139
43783W        W16043   5.953  41.816   0.632
43784W        W16044  37.835  20.188   2.252
43785W        W16045  39.945  33.574  14.782
43786W        W16046  28.936   7.178   0.405
43787W        W16047  34.371   7.116   1.381
43788W        W16048  33.099   1.742  10.736
43789W        W16049   9.689  37.818   3.915
43790W        W16050   7.514  26.859   1.791
43791W        W16051  40.324   2.963   3.155
43792W        W16052  32.369  42.983  14.601
43793W        W16053  35.900  18.555   5.539
43794W        W16054  41.844  36.474  11.649
43795W        W16055   6.020  20.082  12.382
43796W        W16056  32.768  36.614  12.844
43797W        W16057  39.699  20.082  12.822
43798W        W16058  20.733  19.637   1.794
43799W        W16059  29.330   0.777  11.205
43800W        W16060  23.522  17.118  14.725
43801W        W16061  44.174  26.947   0.111
43802W        W16062  31.995  37.459   4.150
43803W        W16063  13.739  19.642  13.284
43804W        W16064  30.499  28.482  13.091
43805W        W16065  26.230  21.578   3.651
43806W        W16066  15.256  37.292   3.695
43807W        W16067  43.087  14.741   5.104
43808W        W16068   7.747   0.928  13.386
43809W        W16069  20.213  19.643  14.306
43810W        W16070  11.841  14.646  11.577
43811W        W16071  29.613  41.736  10.501
43812W        W16072   4.761  18.580  12.135
43813W        W16073  43.055  10.260  10.727
43814W        W16074  15.224  23.973  12.793
43815W        W16075  21.701  33.523  10.770
43816W        W16076  39.154  38.063   3.782
43817W        W16077  38.176  19.474  14.856
43818W        W16078  28.685  30.605  14.235
43819W        W16079  34.156  20.638   2.849
43820W        W16080  40.534   3.263   4.592
43821W        W16081   7.110   8.814   4.162
43822W        W16082  41.511  34.824  13.855
43823W        W16083  12.720   8.135   4.650
43824W        W16084  25.020   4.247  13.920
43825W        W16085  12.621   6.133   1.791
43826W        W16086  28.197   5.509   3.275
43827W        W16087  27.953  14.788   4.641
43828W        W16088  41.841  14.299  10.809
43829W        W16089  15.138  39.065   1.947
43830W        W16090  20.551  34.590   1.173
43831W        W16091  30.667  42.468   0.323
43832W        W16092   7.900  38.791   2.170
43833W        W16093  32.647  38.948   1.337
43834W        W16094  16.060  28.494   4.696
43835W        W16095  20.708   6.954   4.636
43836W        W16096  23.491  13.055  11.220
43837W        W16097  39.384  27.850  10.528
43838W        W16098  15.047  16.352   3.599
43839W        W16099   1.954  22.565   5.138
43840W        W16100  28.648  18.995   2.856
43841W        W16101  34.985   1.252   1.648
43842W        W16102  40.459  11.785   0.141
43843W        W16103  31.750   4.618  11.496
43844W        W16104  21.300  39.436   2.257
43845W        W16105  24.975  42.258   2.740
43846W        W16106  10.267  31.614  14.918
43847W        W16107  38.336  39.806  12.781
43848W        W16108  15.053  22.599  14.407
43849W        W16109  10.256  25.756   2.234
43850W        W16110  30.514  16.327   0.777
43851W        W16111   6.995  33.997   2.718
43852W        W16112   9.032  42.443  13.893
43853W        W16113  44.380  19.288  13.435
43854W        W16114  42.995  37.822   3.765
43855W        W16115  37.669  20.572   4.994
43856W        W16116  40.512  38.119   4.591
43857W        W16117  40.572   7.276  12.117
43858W        W16118   1.273  28.981   1.262
43859W        W16119  38.010  44.846   1.546
43860W        W16120   1.748  14.136  10.757
43861W        W16121  15.055  17.959  11.473
43862W        W16122  30.517  44.404  11.735
43863W        W16123  35.177  19.537   1.932
43864W        W16124   5.850  15.296   1.616
43865W        W16125  27.576  30.474   5.557
43866W        W16126   2.860  15.226  11.521
43867W        W16127  17.115  26.602   3.234
43868W        W16128  22.511  41.587   2.219
43869W        W16129  44.317  25.540  11.679
43870W        W16130  37.326  12.918  14.292
43871W        W16131  11.687  44.359   4.591
43872W        W16132   9.216  16.118  14.656
43873W        W16133   6.893  24.398  10.519
43874W        W16134   2.576  37.562   2.434
43875W        W16135  12.102  12.752  13.258
43876W        W16136  29.529  42.731   1.728
43877W        W16137  31.676  25.500  14.965
43878W        W16138  42.838  34.627   2.427
43879W        W16139  19.747  17.842   2.679
43880W        W16140  19.112  16.899  10.954
43881W        W16141   8.850   6.232  10.636
43882W        W16142  26.154  23.176   0.506
43883W        W16143  17.556  26.996   3.820
43884W        W16144  23.186  18.775  11.979
43885W        W16145  16.557  17.293   1.882
43886W        W16146   0.360   3.807   3.162
43887W        W16147  10.746   6.154  12.619
43888W        W16148  27.207  10.776   3.633
43889W        W16149  24.491  40.470  12.866
43890W        W16150  10.089  41.721   4.969
43891W        W16151  42.413  10.730  14.817
43892W        W16152  31.216  16.993  14.864
43893W        W16153  21.949  24.231   3.630
43894W        W16154   4.297  30.618  13.406
43895W        W16155   5.979  21.364   2.136
43896W        W16156  39.299   3.676  12.019
43897W        W16157  32.997  24.984   3.622
43898W        W16158  40.634   1.370  11.570
43899W        W16159  15.867   9.263  11.248
43900W        W16160  34.825  37.923   3.254
43901W        W16161   2.519   5.889   1.207
43902W        W16162   8.894  30.955  11.164
43903W        W16163  11.579  44.827   3.953
43904W        W16164   0.755  44.294  14.020
43905W        W16165  26.711  21.995   0.766
43906W        W16166  32.865  27.381   1.622
43907W        W16167  30.421  12.292  13.573
43908W        W16168  28.134   4.287   3.218
43909W        W16169  20.778  34.537  12.887
43910W        W16170   9.295  15.226  11.709
43911W        W16171   9.687  18.556   4.085
43912W        W16172  15.184  12.822  10.510
43913W        W16173  33.940  10.189  10.349
43914W        W16174  12.317   1.612  12.531
43915W        W16175  11.393   3.808  12.538
43916W        W16176   2.020  26.968  11.603
43917W        W16177  33.600  23.024   0.366
43918W        W16178   1.317   1.800   2.646
43919W        W16179  36.598   5.236   1.875
43920W        W16180  41.517  18.803  11.209
43921W        W16181  42.838  37.919  12.276
43922W        W16182  18.481   3.719  11.617
43923W        W16183  24.155   2.010  10.863
43924W        W16184  10.249  14.183  12.119
43925W        W16185  37.270  13.195  10.628
43926W        W16186  30.021  26.152  11.170
43927W        W16187  38.435  40.989   0.939
43928W        W16188  28.992  31.071  11.923
43929W        W16189  13.601  23.486   2.891
43930W        W16190   3.848   2.980  10.532
43931W        W16191   3.286  11.254   2.887
43932W        W16192  31.657   6.910  11.712
43933W        W16193  21.520   2.979  13.389
43934W        W16194  41.173   9.143   0.477
43935W        W16195  21.233  44.739   4.042
43936W        W16196   3.951  38.622  12.493
43937W        W16197  13.582  15.378  10.434
43938W        W16198  37.361   1.925   4.613
43939W        W16199  33.555  32.543   1.924
43940W        W16200  37.478  12.203   1.697
43941W        W16201  37.959  38.021   1.416
43942W        W16202  22.991  11.353  13.013
43943W        W16203  30.865  39.910  13.532
43944W        W16204  13.681  29.884  11.904
43945W        W16205  35.458   7.570  12.023
43946W        W16206  15.676  25.500  10.753
43947W        W16207   8.156  35.496  14.414
43948W        W16208  18.293  27.555  13.731
43949W        W16209   4.534  26.720  14.837
43950W        W16210  25.044  16.938  12.538
43951W        W16211  30.956  41.845   2.785
43952W        W16212  19.166  18.160  12.987
43953W        W16213  37.554  21.132  13.780
43954W        W16214  17.300  20.822   2.857
43955W        W16215  13.676   9.651  12.335
43956W        W16216   5.208  27.521   4.354
43957W        W16217   3.001  27.661  14.050
43958W        W16218  40.265  42.801   1.688
43959W        W16219   0.331  25.646   1.732
43960W        W16220   0.735  25.276   3.839
43961W        W16221   6.940  37.415  14.970
43962W        W16222  43.313  14.319   2.264
43963W        W16223   1.496  31.352   3.980
43964W        W16224   4.778  23.307  10.451
43965W        W16225  21.954  23.082  14.072
43966W        W16226  28.427  31.991  13.071
43967W        W16227  15.415  13.808  14.212
43968W        W16228   8.826  25.186  10.730
43969W        W16229   1.474  25.557   1.160
43970W        W16230  31.649  36.903  11.762
43971W        W16231  13.301  17.399   3.782
43972W        W16232   6.216  10.249   1.433
43973W        W16233  19.473  20.601   4.644
43974W        W16234  29.103  10.325   0.850
43975W        W16235  25.507  32.912   3.719
43976W        W16236   8.196  29.460   3.259
43977W        W16237  24.162  22.041   0.370
43978W        W16238  14.141  23.112   2.392
43979W        W16239  21.708  42.309   3.644
43980W        W16240  25.190  10.828   3.046
43981W        W16241  30.156  10.726  13.347
43982W        W16242  33.533   4.165   4.513
43983W        W16243  10.678  37.901   2.189
43984W        W16244  35.228   9.738  12.454
43985W        W16245  42.001  41.549   1.429
43986W        W16246  13.722  40.887   2.375
43987W        W16247  14.028  44.949   3.215
43988W        W16248  44.459   2.776  14.888
43989W        W16249  37.140   2.343   1.772
43990W        W16250   4.427  35.030  13.557
43991W        W16251  28.826  44.861  13.746
43992W        W16252  43.528   5.002   0.314
43993W        W16253  30.782  21.604   4.715
43994W        W16254  31.382  22.821   0.743
43995W        W16255   1.336  36.843   3.581
43996W        W16256  21.113  12.119  12.580
43997W        W16257  20.914  41.867  12.456
43998W        W16258  36.139  20.693   0.846
43999W        W16259  21.367   0.355   0.822
44000W        W16260  31.167  20.713   2.211
44001W        W16261  17.831  25.058   4.080
44002W        W16262  31.904  19.291   0.658
44003W        W16263   9.614  24.281   3.724
44004W        W16264  16.904   7.308   0.005
44005W        W16265   4.788  26.767   5.012
44006W        W16266  14.652  33.540  10.707
44007W        W16267  26.423  10.209   1.763
44008W        W16268  18.881  28.472   2.137
44009W        W16269   9.407  11.848  10.757
44010W        W16270  36.153  18.740   3.747
44011W        W16271  14.366  35.983   0.770
44012W        W16272  34.341  30.250  12.840
44013W        W16273  44.678   0.921  14.446
44014W        W16274  41.244  25.592  10.737
44015W        W16275   9.221  16.199   0.168
44016W        W16276  43.388  30.448   3.378
44017W        W16277  19.251  43.612  14.844
44018W        W16278  31.933  43.357  11.061
44019W        W16279  18.516  22.776  11.312
44020W        W16280  18.846   8.799   9.965
44021W        W16281   3.211  37.021   1.317
44022W        W16282  27.888  11.295   4.086
44023W        W16283  22.395  13.681  14.353
44024W        W16284  13.867  13.850   2.533
44025W        W16285  30.700   0.504   3.265
44026W        W16286  15.796  41.511  12.079
44027W        W16287  11.271   7.801   2.758
44028W        W16288  35.424   9.220   1.956
44029W        W16289  18.521  18.569   0.186
44030W        W16290   4.339  36.664  14.518
44031W        W16291   2.048   9.856  10.756
44032W        W16292  16.220   7.680  10.659
44033W        W16293  15.959   1.270   0.331
44034W        W16294   8.710  37.122  14.176
44035W        W16295   9.845  22.676   1.249
44036W        W16296  27.997  24.621  11.946
44037W        W16297  14.464  26.082   1.616
44038W        W16298   0.866  42.491  11.582
44039W        W16299  12.655  31.921  13.350
44040W        W16300  21.740  18.946   4.073
44041W        W16301  36.509  12.704  10.643
44042W        W16302  35.603  22.675   1.445
44043W        W16303  22.449  33.117  14.314
44044W        W16304  36.327   8.926  11.153
44045W        W16305  15.320  15.816   1.752
44046W        W16306   9.669  38.809  14.442
44047W        W16307  34.811  32.065   2.729
44048W        W16308  26.600   9.415  14.804
44049W        W16309  14.294  25.082  13.310
44050W        W16310  42.324  43.467   2.775
44051W        W16311  23.130  24.137  12.100
44052W        W16312   5.803  31.637   2.691
44053W        W16313   6.324  31.778   0.413
44054W        W16314  42.072  28.934  14.763
44055W        W16315  34.915  25.188  11.369
44056W        W16316  17.567   7.148   3.535
44057W        W16317  32.589   9.158   4.643
44058W        W16318  15.502  34.019   3.678
44059W        W16319  13.294  10.374  11.147
44060W        W16320  15.941  22.634   0.323
44061W        W16321   1.447  35.990   4.547
44062W        W16322  19.011  44.561  14.427
44063W        W16323  16.778  33.138   0.856
44064W        W16324  38.186  34.502  11.585
44065W        W16325  44.725  13.190   2.952
44066W        W16326  35.999  35.575   0.792
44067W        W16327  32.562  14.841   1.276
44068W        W16328  14.749  39.537   0.313
44069W        W16329   0.845  33.912   3.188
44070W        W16330  16.944   7.322   4.134
44071W        W16331   5.917  14.596  14.476
44072W        W16332   8.133  21.586   2.384
44073W        W16333  41.955  22.990  12.995
44074W        W16334  24.540  32.170  12.420
44075W        W16335  36.977   2.401  11.628
44076W        W16336   5.719  30.573  10.832
44077W        W16337   8.429  10.746  11.729
44078W        W16338  19.745  38.323  11.725
44079W        W16339   2.975   2.779   4.648
44080W        W16340  18.600  40.837   3.405
44081W        W16341   6.894  30.453   1.796
44082W        W16342  33.722  34.633  12.427
44083W        W16343  11.193   4.630   3.627
44084W        W16344  41.526  23.480   3.807
44085W        W16345  10.551  16.337   1.927
44086W        W16346  12.283   8.414   2.416
44087W        W16347  24.287  11.603   2.346
44088W        W16348  22.361   0.376   3.398
44089W        W16349  35.461  44.890  13.007
44090W        W16350  28.602  27.186   4.585
44091W        W16351  40.903  26.047  11.349
44092W        W16352  31.978   6.138  12.060
44093W        W16353  20.775  23.198   4.154
44094W        W16354   5.752  38.968  10.389
44095W        W16355  30.227   1.257  13.489
44096W        W16356   1.389  27.593  11.984
44097W        W16357  26.471  26.487  11.950
44098W        W16358  26.171  31.466  14.309
44099W        W16359   9.158  26.181  11.614
44100W        W16360   6.008  29.525  12.563
44101W        W16361  42.040  17.958   0.282
44102W        W16362  43.818  36.169  13.909
44103W        W16363  37.372  35.115  13.925
44104W        W16364  38.640  29.013   0.860
44105W        W16365   7.867  42.609   2.788
44106W        W16366  39.367  20.508  11.055
44107W        W16367  42.567  14.259   3.136
44108W        W16368  16.404  41.096  10.996
44109W        W16369  39.778  44.917  13.784
44110W        W16370  17.705   4.828  13.520
44111W        W16371   0.767  11.845  14.328
44112W        W16372  37.125  17.266   4.629
44113W        W16373   6.530  27.744   5.135
44114W        W16374  10.058  36.917   0.280
44115W        W16375  17.090   3.226  13.549
44116W        W16376   9.165   1.340   2.626
44117W        W16377  22.062  40.785   2.862
44118W        W16378  29.433  32.680   5.160
44119W        W16379  11.985  27.406   2.479
44120W        W16380  39.540  22.219  13.481
44121W        W16381  38.853  28.476  11.056
44122W        W16382   8.708  20.986   3.700
44123W        W16383  44.129  24.080   2.689
44124W        W16384   5.303   3.932  11.158
44125W        W16385  34.068  44.468  13.101
44126W        W16386  21.619   0.387  14.407
44127W        W16387   6.683  26.711   0.372
44128W        W16388   1.888   6.506   1.863
44129W        W16389  22.753  38.131   2.253
44130W        W16390  42.432  43.358  11.680
44131W        W16391  22.878  39.995  11.513
44132W        W16392  16.748  13.846  10.899
44133W        W16393  18.819   4.243  12.464
44134W        W16394   1.981  17.225   3.211
44135W        W16395  40.259   4.323   1.996
44136W        W16396   2.827  39.246   4.926
44137W        W16397  27.818   4.773   2.258
44138W        W16398  36.760  38.996   3.185
44139W        W16399  19.370   4.892   4.788
44140W        W16400   9.759  20.632   3.893
44141W        W16401  21.451  10.870  13.902
44142W        W16402  22.069  37.540   2.430
44143W        W16403  17.362  35.824   2.383
44144W        W16404  15.686  12.570   1.712
44145W        W16405   6.930  39.533   0.589
44146W        W16406  32.888   9.922   2.123
44147W        W16407   8.383   3.356   5.148
44148W        W16408  37.543  32.961  13.519
44149W        W16409  27.608  24.144   1.011
44150W        W16410  43.037  24.495   0.505
44151W        W16411  16.848  42.881  14.484
44152W        W16412  23.704  23.469  11.188
44153W        W16413   8.880  30.743   4.234
44154W        W16414  32.102  22.279   0.487
44155W        W16415  10.669   4.527  10.367
44156W        W16416  19.033  33.058   2.655
44157W        W16417   1.185   3.247   4.188
44158W        W16418  26.738  30.386  11.963
44159W        W16419   0.340  29.663   1.853
44160W        W16420  40.300  39.594   2.900
44161W        W16421   7.948  38.440  14.947
44162W        W16422  16.712   3.751  14.901
44163W        W16423  41.570  43.433   4.622
44164W        W16424  18.273  38.283  13.336
44165W        W16425   0.529  30.402   5.181
44166W        W16426  40.578  22.115   4.739
44167W        W16427  18.427  41.277   3.655
44168W        W16428  39.844   2.708   1.383
44169W        W16429  13.766   0.630   0.448
44170W        W16430  33.523  35.944   1.758
44171W        W16431   4.573  31.786   3.530
44172W        W16432   2.832  35.462  11.608
44173W        W16433   8.261  20.043  12.960
44174W        W16434  29.575  40.494  14.988
44175W        W16435  27.506  41.404   0.737
44176W        W16436  33.434  34.797  11.526
44177W        W16437   5.605  25.683   9.845
44178W        W16438  23.296   2.731   3.757
44179W        W16439  43.813   2.742   3.664
44180W        W16440  18.826  14.718   2.187
44181W        W16441  28.759  15.588  13.426
44182W        W16442  23.435   1.204   0.428
44183W        W16443  42.075   3.236   3.734
44184W        W16444  38.951  10.849  10.412
44185W        W16445  23.686  24.726  13.075
44186W        W16446  27.695  25.988  10.670
44187W        W16447  39.296  30.739  13.691
44188W        W16448   4.531  35.394   3.670
44189W        W16449   4.705  42.866   4.997
44190W        W16450  34.915  27.162  12.898
44191W        W16451   3.111  18.698  14.402
44192W        W16452  33.620  40.603   1.705
44193W        W16453  18.717  15.589  12.008
44194W        W16454   7.377  27.588   1.400
44195W        W16455  27.719  38.138   2.284
44196W        W16456  24.002  27.574   4.274
44197W        W16457  12.883  38.963   4.476
44198W        W16458  25.175  12.761   4.271
44199W        W16459   2.178  25.244  10.617
44200W        W16460  14.362  39.823  12.342
44201W        W16461  40.379   6.859  11.435
44202W        W16462  31.401  40.811  14.967
44203W        W16463  20.106   5.927   0.968
44204W        W16464   1.871   8.708  14.910
44205W        W16465  23.818  11.182   4.703
44206W        W16466  16.678  28.470  14.000
44207W        W16467  31.190  23.741  12.528
44208W        W16468  34.170  38.617  11.954
44209W        W16469  13.201  31.423  14.277
44210W        W16470   1.304  32.780  14.791
44211W        W16471  32.842   4.390  10.927
44212W        W16472   4.745  21.188  14.534
44213W        W16473  23.145  19.085   1.328
44214W        W16474  24.135  24.262   4.619
44215W        W16475  17.013  31.147  11.024
44216W        W16476  35.126  33.963   0.445
44217W        W16477  36.748   9.223  11.181
44218W        W16478  16.050  28.995   1.025
44219W        W16479  27.099  29.456   2.803
44220W        W16480  14.597   5.891   3.798
44221W        W16481  11.833   9.171   0.444
44222W        W16482  12.808  36.841   0.321
44223W        W16483  36.240  15.355  14.620
44224W        W16484   7.438   9.432  14.687
44225W        W16485   6.111  43.568  14.478
44226W        W16486  38.412   1.271   4.541
44227W        W16487  18.545  22.015   3.217
44228W        W16488  13.946  41.950   3.716
44229W        W16489  14.626  32.931   1.531
44230W        W16490  23.282   2.277   2.839
44231W        W16491  19.303  36.601   4.554
44232W        W16492  31.709  18.532  12.500
44233W        W16493  18.089  18.129  14.469
44234W        W16494   4.022  32.995  12.081
44235W        W16495   8.278  25.199   0.448
44236W        W16496  36.608  12.734  14.817
44237W        W16497  34.262   9.419   1.281
44238W        W16498  30.746  30.437  12.970
44239W        W16499  29.644  11.649  14.419
44240W        W16500   3.660  29.543   1.420
44241W        W16501  44.329  29.479   2.464
44242W        W16502   3.117  29.548  14.008
44243W        W16503  36.943   7.458   9.628
44244W        W16504   3.261   2.381  13.162
44245W        W16505  32.573  15.102  11.646
44246W        W16506  14.794  20.648  14.810
44247W        W16507  39.149   5.709   3.740
44248W        W16508  17.619  41.062   0.438
44249W        W16509  22.572  30.216   1.307
44250W        W16510  11.108  12.398  12.459
44251W        W16511  19.104   2.765   1.665
44252W        W16512  40.420  23.273  14.856
44253W        W16513  30.696  15.358  11.436
44254W        W16514  23.297  23.441   0.782
44255W        W16515  35.262   1.841  10.877
44256W        W16516  39.318  43.851  10.521
44257W        W16517  24.614  27.524   3.401
44258W        W16518   7.952   3.900   1.329
44259W        W16519  29.843  17.319  13.387
44260W        W16520  38.347  43.188  13.306
44261W        W16521  34.991   5.964   0.266
44262W        W16522   3.087  11.781   4.489
44263W        W16523  32.524  24.058  14.977
44264W        W16524   5.008  10.676  11.653
44265W        W16525  23.496  22.136  12.870
44266W        W16526  20.655  15.636  11.405
44267W        W16527  12.834  12.341   0.717
44268W        W16528  41.337  15.110  10.969
44269W        W16529  12.320  22.208   0.235
44270W        W16530  32.871  31.586  10.495
44271W        W16531  19.744  32.991   3.217
44272W        W16532  22.492  27.654   2.686
44273W        W16533   5.842  15.795   2.220
44274W        W16534  37.517  14.590  12.213
44275W        W16535  17.491  17.778  14.230
44276W        W16536  11.624  27.459  10.404
44277W        W16537  15.271  14.178   2.885
44278W        W16538  42.355  31.866  11.819
44279W        W16539  29.877  32.484   1.625
44280W        W16540  43.103  31.544   0.179
44281W        W16541  15.652   3.183   1.883
44282W        W16542  11.073  42.271   3.237
44283W        W16543  35.468  28.030  13.953
44284W        W16544  23.163  23.073   3.747
44285W        W16545  21.630  10.193  12.743
44286W        W16546  36.843  12.644  13.422
44287W        W16547  44.907   6.036   4.962
44288W        W16548   0.254   3.243   2.594
44289W        W16549  42.722  43.895   0.649
44290W        W16550  35.143  25.631  14.319
44291W        W16551  14.587  38.850   4.180
44292W        W16552  25.161  34.482  12.531
44293W        W16553  33.754  13.553  11.537
44294W        W16554  34.612   5.712   1.256
44295W        W16555  36.823  21.929   4.038
44296W        W16556  31.086  31.772   3.277
44297W        W16557  43.429  28.468  13.126
44298W        W16558  32.074  31.097   4.517
44299W        W16559  13.823  14.051  14.288
44300W        W16560   2.717  39.929   0.306
44301W        W16561  38.549  42.364  11.540
44302W        W16562  35.230  25.067   2.369
44303W        W16563  41.794  35.674   0.490
44304W        W16564  15.585  12.618  10.218
44305W        W16565  23.290  19.085  13.963
44306W        W16566  24.375  18.873  12.952
44307W        W16567  10.202  12.630   4.358
44308W        W16568   1.463  13.149   2.618
44309W        W16569  11.692  20.806   1.044
44310W        W16570  30.044  10.423   2.349
44311W        W16571  21.540  22.415   4.566
44312W        W16572  40.338  25.957   2.173
44313W        W16573   2.933  23.533   1.409
44314W        W16574   5.690  32.496   4.642
44315W        W16575   9.048   1.346  13.743
44316W        W16576   1.250  17.097  11.080
44317W        W16577  24.586  39.894   3.282
44318W        W16578  44.497  38.398   2.136
44319W        W16579  13.826  16.152   1.388
44320W        W16580  44.080  24.052  11.833
44321W        W16581  39.775  28.510  12.373
44322W        W16582  43.556  41.108  13.779
44323W        W16583  23.825  43.352   1.364
44324W        W16584  14.678   5.234   3.064
44325W        W16585  13.644  35.963   2.953
44326W        W16586  39.511   4.825  10.980
44327W        W16587  33.505  18.836   4.675
44328W        W16588  44.722  23.257  11.606
44329W        W16589  38.761  18.258   0.964
44330W        W16590  26.100  20.552  10.745
44331W        W16591  14.277  38.546  11.049
44332W        W16592  32.242  36.277  14.577
44333W        W16593  23.755  22.609  12.910
44334W        W16594  21.830   7.994  13.425
44335W        W16595   6.248  18.483   1.615
44336W        W16596   3.947  18.082  14.688
44337W        W16597  44.485  37.832  11.138
44338W        W16598   9.686  28.003   4.054
44339W        W16599  38.177  32.960  14.672
44340W        W16600  28.556  32.486  13.133
44341W        W16601  31.098   6.120   4.611
44342W        W16602   5.975  38.898   4.524
44343W        W16603   7.907   5.914   0.843
44344W        W16604  41.310  13.401   3.710
44345W        W16605  21.012  21.475  12.582
44346W        W16606  10.126   8.815   4.100
44347W        W16607  24.522  12.793   3.449
44348W        W16608   1.467   5.445   0.020
44349W        W16609  43.966  28.470   1.661
44350W        W16610  14.160  25.741   4.204
44351W        W16611  33.685  10.204   3.615
44352W        W16612  38.553  32.082   4.166
44353W        W16613  30.458  42.940   1.216
44354W        W16614  30.926  22.862   0.983
44355W        W16615  14.552  14.245   1.224
44356W        W16616  43.686   5.457  12.069
44357W        W16617  43.333  34.867   2.301
44358W        W16618  40.118  35.349  12.002
44359W        W16619  41.853   9.362   0.932
44360W        W16620  20.417  14.509   2.821
44361W        W16621  23.588   2.999  10.518
44362W        W16622  20.758  33.306   4.070
44363W        W16623   8.264   9.425  10.945
44364W        W16624  24.604  13.824  14.077
44365W        W16625  27.486  12.876  13.210
44366W        W16626  13.823  10.013   0.455
44367W        W16627   4.455  24.492  12.927
44368W        W16628   5.502  43.840  13.872
44369W        W16629   0.972  43.491   2.746
44370W        W16630  26.776  11.801  10.863
44371W        W16631  34.017   1.205  10.617
44372W        W16632  43.899   1.390  14.598
44373W        W16633  17.548   3.885   4.280
44374W        W16634  39.870  31.605  13.461
44375W        W16635  23.945  23.509  14.777
44376W        W16636   5.790  21.068  14.383
44377W        W16637  12.857   6.577   4.537
44378W        W16638   1.978   6.331  11.098
44379W        W16639   5.901  19.193  10.942
44380W        W16640   6.314  35.008   2.216
44381W        W16641  23.580  41.375   0.885
44382W        W16642  34.034  37.416   3.215
44383W        W16643  21.229   8.246  10.999
44384W        W16644  34.097  24.819  10.922
44385W        W16645   2.529  14.585  10.776
44386W        W16646  20.941  13.638  13.863
44387W        W16647  35.478  40.616  11.539
44388W        W16648   9.554  35.890  12.907
44389W        W16649  36.486  33.603  14.357
44390W        W16650  39.371   5.007   1.313
44391W        W16651  23.694  33.870   1.155
44392W        W16652  22.984  27.759   1.874
44393W        W16653  34.701   8.710  10.786
44394W        W16654  35.980  24.077  14.929
44395W        W16655  44.848   3.430   4.023
44396W        W16656  36.633  27.692   0.731
44397W        W16657  29.596  42.124   4.572
44398W        W16658   7.759  34.939   1.795
44399W        W16659  19.678  20.058  13.689
44400W        W16660  21.030  19.906  10.223
44401W        W16661  13.682  21.534  11.973
44402W        W16662  41.864  36.085  14.656
44403W        W16663   5.246  25.628   4.601
44404W        W16664  38.856  41.141   2.357
44405W        W16665  19.402  14.768   0.842
44406W        W16666   4.275   7.355  12.092
44407W        W16667  11.225  22.769  13.508
44408W        W16668  38.578  38.260  14.975
44409W        W16669  29.772  21.409  14.313
44410W        W16670   5.637  15.194   4.545
44411W        W16671  32.938  33.551   4.563
44412W        W16672  13.241   7.698  13.871
44413W        W16673  18.033  24.159   4.868
44414W        W16674  33.706  21.064  14.997
44415W        W16675  28.255  33.221  10.616
44416W        W16676  44.063  23.108  13.104
44417W        W16677  23.467   2.348   2.363
44418W        W16678  29.912  14.338  13.561
44419W        W16679  38.866   8.479  13.885
44420W        W16680   0.244  40.939   3.119
44421W        W16681  19.503  15.609   0.859
44422W        W16682  38.928  15.073  13.961
44423W        W16683  43.424  17.554  10.673
44424W        W16684  12.954  35.458   0.022
44425W        W16685  31.389  37.389  14.411
44426W        W16686  26.528  32.421  10.728
44427W        W16687  23.078  34.416   4.056
44428W        W16688  26.580  10.163   0.406
44429W        W16689  19.667  31.479  14.755
44430W        W16690  38.085  26.079   4.690
44431W        W16691  42.420  15.359  13.994
44432W        W16692  32.201  18.712  12.521
44433W        W16693   1.981  36.557  14.810
44434W        W16694  13.287  19.516   1.278
44435W        W16695  43.175   3.404  14.837
44436W        W16696   1.840  27.741  13.087
44437W        W16697  37.417  18.400   4.026
44438W        W16698   3.044   5.785  14.262
44439W        W16699  22.051  21.301   5.046
44440W        W16700  18.200  10.870  14.804
44441W        W16701   3.024   8.894  13.547
44442W        W16702  20.817   3.855  13.959
44443W        W16703   8.905  25.498   2.272
44444W        W16704   5.440  37.187  13.020
44445W        W16705  19.789  38.064  12.167
44446W        W16706  29.945  28.882   1.709
44447W        W16707  18.273  14.527  10.715
44448W        W16708  38.107  30.909  10.803
44449W        W16709  39.403  27.217   1.141
44450W        W16710  42.366   3.050  14.399
44451W        W16711  22.142  12.808   0.791
44452W        W16712  34.867  24.221   1.390
44453W        W16713   6.869   1.373   2.674
44454W        W16714  11.253  35.742   1.655
44455W        W16715  40.477  25.882   4.857
44456W        W16716  15.149  31.129  11.021
44457W        W16717  34.551  34.786   4.877
44458W        W16718   8.409  28.000   0.065
44459W        W16719  18.428  39.157   4.097
44460W        W16720  43.345  38.549   1.845
44461W        W16721  13.192  42.779  11.721
44462W        W16722  23.731  33.735   3.094
44463W        W16723   7.374  10.184  10.557
44464W        W16724  15.887   5.450  13.102
44465W        W16725   9.627  39.910  12.096
44466W        W16726   9.068  28.058  10.009
44467W        W16727   8.180  12.356   3.654
44468W        W16728  36.472  10.341  10.207
44469W        W16729  22.448  19.146   4.608
44470W        W16730  20.532   4.185  11.565
44471W        W16731   5.380  23.068  12.055
44472W        W16732  22.163   1.837  10.909
44473W        W16733  38.499  35.608  13.733
44474W        W16734  37.494   6.677   4.249
44475W        W16735  35.271   5.340   1.374
44476W        W16736  13.166   6.650  14.801
44477W        W16737   4.225   0.316   1.452
44478W        W16738  24.095  11.407  14.300
44479W        W16739  20.083  39.046  12.076
44480W        W16740  13.408  44.446  11.570
44481W        W16741  19.960  10.951   0.304
44482W        W16742  29.425   7.520   2.339
44483W        W16743   8.986   9.359   1.581
44484W        W16744  28.731  40.404   1.885
44485W        W16745  31.374  36.971   3.664
44486W        W16746  12.760   1.486   0.714
44487W        W16747  29.938  22.763   2.291
44488W        W16748  16.105  14.439   4.592
44489W        W16749  11.391  38.361  13.065
44490W        W16750  40.477  27.957  11.100
44491W        W16751  24.268   0.270  14.443
44492W        W16752  23.082   3.214   3.769
44493W        W16753  12.620  43.319  12.891
44494W        W16754   2.170  37.330  12.516
44495W        W16755   9.579   0.367  11.513
44496W        W16756  11.153  28.923  10.509
44497W        W16757  34.772  17.082   3.113
44498W        W16758   0.978  30.058  10.883
44499W        W16759  10.842  22.457  12.656
44500W        W16760  28.587  27.552   0.184
44501W        W16761  44.017   7.892  13.759
44502W        W16762  35.308   2.191   2.215
44503W        W16763  22.117  39.343  12.107
44504W        W16764  28.811  35.181  12.964
44505W        W16765  42.739  22.181   1.766
44506W        W16766  18.174  40.036  11.474
44507W        W16767   2.318  16.724   0.571
44508W        W16768   1.299   9.943   1.861
44509W        W16769  17.623  43.094   5.032
44510W        W16770  24.644  43.001   0.184
44511W        W16771  30.681  10.362   2.742
44512W        W16772  14.936  17.248  12.046
44513W        W16773  41.359  10.752  13.341
44514W        W16774  43.513  14.546  13.650
44515W        W16775  39.015  38.547  10.032
44516W        W16776  39.327  40.498   1.169
44517W        W16777  27.212  44.521   3.602
44518W        W16778  36.784   4.839  14.805
44519W        W16779  22.155  25.650  13.819
44520W        W16780  26.194   5.030  13.129
44521W        W16781  36.438   0.976   3.791
44522W        W16782  20.963  37.004   3.261
44523W        W16783  24.171  15.569   3.201
44524W        W16784  11.100  24.545  13.719
44525W        W16785  18.815  24.511   4.638
44526W        W16786  23.070  13.596   2.691
44527W        W16787  15.656  30.805  12.774
44528W        W16788  36.593  24.715  12.886
44529W        W16789  33.519   2.215  10.387
44530W        W16790   7.360  37.151   0.618
44531W        W16791   1.777  42.070  11.684
44532W        W16792  41.081  35.979   4.170
44533W        W16793  21.785  14.759  13.991
44534W        W16794   7.666   9.865  12.045
44535W        W16795  32.057  11.809  12.572
44536W        W16796   4.374  32.597   3.299
44537W        W16797  33.487  18.781   1.295
44538W        W16798  38.438  43.549   0.264
44539W        W16799   8.364   8.770  13.920
44540W        W16800   1.221  25.900  12.807
44541W        W16801  22.594  22.581   2.700
44542W        W16802  39.515  25.010   3.147
44543W        W16803  12.671  12.552   1.808
44544W        W16804  29.233  40.377   1.939
44545W        W16805  14.270  13.856   3.291
44546W        W16806  27.211   3.032  11.849
44547W        W16807  39.132  36.473   3.252
44548W        W16808  41.321  21.227   2.345
44549W        W16809  44.509  27.356   3.383
44550W        W16810  26.070  38.782   2.240
44551W        W16811  31.447  36.439   3.741
44552W        W16812  19.017  40.762   0.230
44553W        W16813  28.563  27.498   2.685
44554W        W16814  15.284  29.400  14.808
44555W        W16815  37.215  35.279   1.245
44556W        W16816  29.749  30.617   0.357
44557W        W16817  28.939  34.016   1.233
44558W        W16818  36.512   5.115  12.650
44559W        W16819  28.470  34.690   4.070
44560W        W16820  41.204   0.727   0.382
44561W        W16821   6.441  17.123   2.046
44562W        W16822  16.340  25.018   2.784
44563W        W16823  15.102  24.206  13.237
44564W        W16824   2.965  24.633  13.878
44565W        W16825   6.841  13.641  13.559
44566W        W16826  25.258  17.965  13.500
44567W        W16827   7.750  14.332   4.572
44568W        W16828  33.408  19.358   9.674
44569W        W16829  25.572  40.082  14.215
44570W        W16830   8.942  36.818  13.812
44571W        W16831  39.514  28.151   4.523
44572W        W16832  28.684   4.280   4.382
44573W        W16833   6.974  44.815  12.857
44574W        W16834  17.762  37.803  11.958
44575W        W16835   1.843  19.149  14.433
44576W        W16836  13.398  41.246  11.197
44577W        W16837  13.520  44.984  14.856
44578W        W16838  32.213  16.104   0.362
44579W        W16839  12.243  35.430  12.936
44580W        W16840  15.389  14.362   5.500
44581W        W16841  10.729   0.732   4.680
44582W        W16842   3.203  29.995   0.225
44583W        W16843   9.101  21.287  12.018
44584W        W16844  42.362  17.450  12.023
44585W        W16845  26.026   9.792  12.210
44586W        W16846  38.074  11.673  11.552
44587W        W16847  35.413  32.234   0.976
44588W        W16848  25.073  43.661  14.922
44589W        W16849  44.240  34.899   0.473
44590W        W16850  27.328  26.930   0.529
44591W        W16851  26.390  36.435   1.054
44592W        W16852   8.248  39.788   4.584
44593W        W16853  13.500   1.211  11.226
44594W        W16854  26.073  14.337   3.630
44595W        W16855   1.466  25.491   1.672
44596W        W16856   5.307  30.476   3.688
44597W        W16857  18.427  17.779   1.835
44598W        W16858  23.084  17.503   1.348
44599W        W16859  16.799  22.920   2.441
44600W        W16860  27.260  35.044  14.948
44601W        W16861  18.601  32.906   2.886
44602W        W16862  43.235   0.051   1.926
44603W        W16863  17.195  22.961  11.164
44604W        W16864  18.400  10.115   2.379
44605W        W16865  18.265   6.105  11.634
44606W        W16866  22.807  33.073   3.150
44607W        W16867  24.574  20.241  11.670
44608W        W16868  26.745  11.751  11.548
44609W        W16869  37.126  26.705  13.566
44610W        W16870  13.755  23.999   4.118
44611W        W16871  21.586  30.532  14.875
44612W        W16872  38.368  22.561   0.703
44613W        W16873  41.502  36.406   0.999
44614W        W16874  14.356  10.677   1.924
44615W        W16875  43.421  33.810   4.107
44616W        W16876   0.768  40.862   4.286
44617W        W16877  43.731  36.980   1.201
44618W        W16878  25.287  16.781   0.053
44619W        W16879  16.835  31.106  11.569
44620W        W16880  37.517  18.665  13.313
44621W        W16881  30.773  21.618  14.160
44622W        W16882  40.924  40.401  12.976
44623W        W16883  20.812   5.814  10.992
44624W        W16884  19.774  36.993   1.850
44625W        W16885  27.266  21.131  13.799
44626W        W16886  29.662   4.209  12.876
44627W        W16887  42.785  41.426  13.474
44628W        W16888   9.310  42.565  12.476
44629W        W16889  41.510  37.578   0.140
44630W        W16890   1.772  26.215  13.143
44631W        W16891  35.822  29.077   4.025
44632W        W16892  16.381  39.702  13.350
44633W        W16893  29.137  33.093   5.137
44634W        W16894  29.605  25.531  14.344
44635W        W16895  29.499  36.896  13.352
44636W        W16896  28.959  33.956  12.393
44637W        W16897  11.509   5.448  13.575
44638W        W16898  18.303   3.784   3.816
44639W        W16899  14.297  17.084   1.617
44640W        W16900  42.812   3.604   0.887
44641W        W16901  40.495  19.000  14.478
44642W        W16902  27.605  39.017  11.429
44643W        W16903  26.091  23.379  12.011
44644W        W16904   7.893  13.857   4.675
44645W        W16905  25.169   7.510   3.680
44646W        W16906  24.965  25.158   0.344
44647W        W16907   3.714  12.431   4.050
44648W        W16908  31.880  19.756  12.004
44649W        W16909   9.309  22.197  12.459
44650W        W16910   8.739  14.527   1.737
44651W        W16911  41.887  16.014  14.969
44652W        W16912  44.587  12.364  12.058
44653W        W16913   7.676  16.529  13.584
44654W        W16914  39.231  24.622   3.345
44655W        W16915  41.017  20.782   2.295
44656W        W16916  33.113  13.740   4.238
44657W        W16917  39.546   4.739  12.214
44658W        W16918  14.129  18.741  13.019
44659W        W16919  33.910   7.702   4.621
44660W        W16920  26.026  35.498   2.602
44661W        W16921  23.539  37.465   3.616
44662W        W16922  13.300  36.776   0.516
44663W        W16923  36.103  44.806   2.778
44664W        W16924  22.584  39.541  11.786
44665W        W16925  40.942  26.618   0.336
44666W        W16926  34.517  41.985  14.282
44667W        W16927  19.024   1.999  11.022
44668W        W16928   9.198  31.861  12.978
44669W        W16929  31.535  12.402   2.236
44670W        W16930  36.007  36.125   4.439
44671W        W16931  15.609  42.437   3.669
44672W        W16932   3.413  42.434   0.988
44673W        W16933   8.514  13.338   1.299
44674W        W16934  23.172  17.798   1.770
44675W        W16935  38.455  36.406   0.877
44676W        W16936   0.344  42.690   4.069
44677W        W16937  34.339  28.433  12.941
44678W        W16938  31.594   1.634  13.818
44679W        W16939   2.973  25.921   3.192
44680W        W16940  31.434  21.660  12.990
44681W        W16941  11.088   8.119   0.057
44682W        W16942  27.117   7.779  12.471
44683W        W16943  29.706  39.894   2.749
44684W        W16944  39.922   7.780  11.864
44685W        W16945  17.592   5.094   4.681
44686W        W16946   6.757  19.656   0.450
44687W        W16947  22.755  12.847  12.045
44688W        W16948  43.010  27.850   2.520
44689W        W16949  42.416  13.972   2.723
44690W        W16950   0.412  13.832  12.425
44691W        W16951  42.368  26.736   2.834
44692W        W16952  40.457  34.365   1.218
44693W        W16953  37.409  25.727   1.214
44694W        W16954  11.275   2.448   3.180
44695W        W16955  20.703   8.292  11.055
44696W        W16956  15.294  41.755   4.882
44697W        W16957  37.376  44.117   4.589
44698W        W16958   3.833  26.818   0.306
44699W        W16959  23.685  27.171  13.041
44700W        W16960   8.710  11.630  12.679
44701W        W16961   7.161  42.760   0.671
44702W        W16962  14.638  38.049   2.821
44703W        W16963   6.807  33.187  12.179
44704W        W16964  43.412  40.423   3.722
44705W        W16965  35.402  11.247   0.915
44706W        W16966  15.083   8.151   0.260
44707W        W16967   2.487  22.637   1.408
44708W        W16968  31.532  37.728   4.244
44709W        W16969  19.058   9.171   3.253
44710W        W16970  26.972  38.623  11.486
44711W        W16971  37.794  43.922   1.828
44712W        W16972  32.189   9.697  10.644
44713W        W16973  27.979  43.579   1.284
44714W        W16974  19.850   1.351  10.927
44715W        W16975   4.500   2.412  11.073
44716W        W16976  24.288  36.396  12.015
44717W        W16977  38.017   2.711  10.496
44718W        W16978  38.039  17.088   1.742
44719W        W16979   8.339  21.527  12.888
44720W        W16980  23.582   0.186   0.350
44721W        W16981  33.158  35.752  12.401
44722W        W16982  40.107  44.735  10.790
44723W        W16983  18.120  12.138   0.421
44724W        W16984  44.924  21.727   1.230
44725W        W16985  15.853  26.997  10.967
44726W        W16986  42.011  35.885  13.722
44727W        W16987  41.222   0.547   1.540
44728W        W16988   6.359  25.629   0.971
44729W        W16989  26.781  16.176  12.461
44730W        W16990  34.525   4.679  11.240
44731W        W16991   3.920  21.738  10.661
44732W        W16992  15.472  38.479   0.556
44733W        W16993  33.873  43.551   3.869
44734W        W16994  24.969  44.974  12.291
44735W        W16995   7.321  21.986  11.622
44736W        W16996  41.461  34.897  14.910
44737W        W16997  32.407   3.209   4.754
44738W        W16998   2.741  21.788   4.332
44739W        W16999  31.805  33.992  14.938
44740W        W17000  37.111  19.574   2.297
44741W        W17001   0.365  10.077  12.805
44742W        W17002  43.678  40.473   0.679
44743W        W17003  31.654   6.461  14.454
44744W        W17004  11.678  10.695   0.943
44745W        W17005  42.858  34.481  11.690
44746W        W17006  21.195  15.909   0.095
44747W        W17007  28.774  12.693  14.157
44748W        W17008  12.237  15.270  13.858
44749W        W17009  27.797  36.391   1.266
44750W        W17010  27.355  15.034  12.798
44751W        W17011   0.765   4.277  10.799
44752W        W17012  17.630  44.503   2.849
44753W        W17013   8.900  32.596  11.696
44754W        W17014  23.027   2.006  11.556
44755W        W17015   2.739  28.046   4.372
44756W        W17016  10.949  40.942  14.364
44757W        W17017   0.277   9.305   2.249
44758W        W17018  33.051   1.756   2.683
44759W        W17019  18.614   8.839  14.824
44760W        W17020  39.494  43.807   0.973
44761W        W17021  20.692   3.420  13.523
44762W        W17022  14.208  25.156   4.472
44763W        W17023  37.091  30.160   0.841
44764W        W17024  39.098  16.852  10.649
44765W        W17025  35.987  42.392   4.380
44766W        W17026   9.791   8.397   3.404
44767W        W17027   1.270   4.093   0.950
44768W        W17028  10.962  13.736   3.338
44769W        W17029  37.239  24.777   3.275
44770W        W17030  44.436  10.427  10.395
44771W        W17031  27.035  32.991  12.637
44772W        W17032  11.872  16.055  13.422
44773W        W17033   8.699  25.679  10.634
44774W        W17034   5.303  18.866   4.167
44775W        W17035  11.787   1.923  14.534
44776W        W17036   5.271  23.257  12.936
44777W        W17037   1.198  20.587  11.243
44778W        W17038  43.326  14.100  10.789
44779W        W17039   5.892  37.985  14.333
44780W        W17040   2.905  14.090  12.872
44781W        W17041   4.477  19.267   2.440
44782W        W17042  41.920   7.331   0.695
44783W        W17043  10.630   4.078   2.526
44784W        W17044  18.527  31.680   2.726
44785W        W17045  36.116  39.918  14.919
44786W        W17046  10.714   6.876   3.982
44787W        W17047  38.082  37.007   2.729
44788W        W17048  23.597  26.670  10.267
44789W        W17049  33.319   7.679   2.017
44790W        W17050  36.908  19.823  12.004
44791W        W17051   4.344   1.015   0.923
44792W        W17052   2.963  25.534  13.339
44793W        W17053  22.574   9.512   4.561
44794W        W17054   5.188  13.279  11.029
44795W        W17055   1.063  18.794  13.329
44796W        W17056  43.074  19.924   5.016
44797W        W17057  28.213  31.097  10.309
44798W        W17058  19.675  21.802  10.638
44799W        W17059  11.242  42.756  13.439
44800W        W17060  38.436  26.230  12.170
44801W        W17061  10.469  39.662  10.571
44802W        W17062  18.053   8.527  13.874
44803W        W17063  16.923   4.279   3.649
44804W        W17064  20.348  26.164  14.444
44805W        W17065  26.645   0.012   2.377
44806W        W17066   4.392  44.944   3.380
44807W        W17067  12.095  35.170   0.384
44808W        W17068  36.538  40.514   0.601
44809W        W17069  14.995  23.846  14.721
44810W        W17070  43.526  40.527   3.219
44811W        W17071  41.451   5.840  12.529
44812W        W17072  14.199  44.372  12.730
44813W        W17073  24.048  14.350   4.041
44814W        W17074   6.925  22.616  14.486
44815W        W17075  21.691  18.265  12.985
44816W        W17076  37.885  32.352  12.441
44817W        W17077  25.678  19.588   1.155
44818W        W17078  28.527  29.566   4.072
44819W        W17079  12.906   0.960   9.909
44820W        W17080  33.988  29.451  14.596
44821W        W17081  14.612  14.070  10.647
44822W        W17082   3.738  12.196   3.602
44823W        W17083  39.842  22.165  14.503
44824W        W17084   4.116   4.856   2.276
44825W        W17085  35.424  25.822  12.637
44826W        W17086   0.399   9.386   0.049
44827W        W17087  34.831  17.863   1.304
44828W        W17088  29.077  19.583  12.337
44829W        W17089  11.906  27.053  11.289
44830W        W17090  20.939  33.988  13.615
44831W        W17091  17.172   9.679   4.483
44832W        W17092  22.263  19.165  12.154
44833W        W17093  43.278  43.569  11.518
44834W        W17094  23.352   7.371   0.715
44835W        W17095  20.573  34.812   2.103
44836W        W17096  21.750  33.842  12.474
44837W        W17097  31.432  43.369  12.542
44838W        W17098  30.652  41.791  13.444
44839W        W17099  40.428   9.888   1.477
44840W        W17100  30.179   7.431  11.540
44841W        W17101  35.517  15.566  11.740
44842W        W17102   9.121   9.513   3.662
44843W        W17103  16.581  36.091  11.417
44844W        W17104  38.398  29.602  13.495
44845W        W17105  17.502   1.777  11.207
44846W        W17106  12.317  23.176   3.104
44847W        W17107  31.427   5.430   1.899
44848W        W17108  19.166   9.737  13.905
44849W        W17109  39.804  29.046   1.430
44850W        W17110  11.927   1.479  11.539
44851W        W17111   5.252  33.314  14.423
44852W        W17112  22.460  10.137   1.809
44853W        W17113   5.469  21.629  14.481
44854W        W17114  13.726   5.905  14.448
44855W        W17115  34.956  20.786   5.024
44856W        W17116  21.157   8.128   1.481
44857W        W17117  12.556  10.255  13.977
44858W        W17118  41.499   8.798   4.678
44859W        W17119  29.362  43.952   1.303
44860W        W17120  36.988  22.135   4.484
44861W        W17121  25.683   3.148   0.191
44862W        W17122  39.225  33.315   4.959
44863W        W17123  31.448  12.111   4.582
44864W        W17124  27.020  35.394  11.202
44865W        W17125   7.680  12.593  14.548
44866W        W17126  17.258   9.034   3.829
44867W        W17127  35.898  30.496  12.591
44868W        W17128  22.091  21.784   1.744
44869W        W17129   9.449  29.928  13.005
44870W        W17130  39.145  11.911   2.562
44871W        W17131  40.390   6.195  13.766
44872W        W17132   6.716  18.854  12.220
44873W        W17133  40.292  30.670  13.943
44874W        W17134  14.545  21.459  14.315
44875W        W17135  31.031  10.787  13.020
44876W        W17136  17.090  25.194   3.215
44877W        W17137   1.898  28.425   2.375
44878W        W17138   9.949   2.341  13.021
44879W        W17139  10.253   1.433   2.796
44880W        W17140  16.516  11.236  12.510
44881W        W17141  24.673   6.757  13.344
44882W        W17142  19.255  11.646   2.043
44883W        W17143  26.131   3.702  11.133
44884W        W17144  32.407  17.834   1.282
44885W        W17145  38.055  10.649   9.839
44886W        W17146  32.061  21.538   1.864
44887W        W17147  39.272  38.098   4.292
44888W        W17148  31.984   9.424  11.074
44889W        W17149   1.969   6.741  13.898
44890W        W17150   5.582  14.884  11.614
44891W        W17151  11.562  37.289   0.448
44892W        W17152  12.319  17.730  13.367
44893W        W17153   5.448  12.576   3.678
44894W        W17154  15.512   3.531   0.743
44895W        W17155  31.669  19.005  11.687
44896W        W17156  42.390  40.870   2.828
44897W        W17157  14.035  15.847   3.326
44898W        W17158  29.428  15.192   0.501
44899W        W17159  34.638  16.750   2.718
44900W        W17160  24.681  28.314  14.542
44901W        W17161  10.076  34.399   0.576
44902W        W17162  17.650  43.959  12.070
44903W        W17163  33.651   8.388  11.544
44904W        W17164  35.305  10.739  14.350
44905W        W17165  13.625  18.128   3.390
44906W        W17166   0.305  40.378  13.857
44907W        W17167   4.935  31.668   2.708
44908W        W17168   9.331  20.649   3.586
44909W        W17169  15.185  41.063  13.984
44910W        W17170  11.742  30.299   1.458
44911W        W17171   3.697  18.206   3.046
44912W        W17172  22.491   4.943   4.992
44913W        W17173  11.453  28.953   4.106
44914W        W17174  31.942  28.994  10.703
44915W        W17175  19.219  13.091   0.486
44916W        W17176   8.229   5.290  12.864
44917W        W17177  32.988  19.464  11.000
44918W        W17178  35.594  17.933   0.828
44919W        W17179  28.568  16.078  11.560
44920W        W17180  13.973  40.828   0.414
44921W        W17181  15.400  30.684   2.751
44922W        W17182  21.028   9.151  12.102
44923W        W17183  20.867   2.839   3.184
44924W        W17184  40.474  19.088  12.205
44925W        W17185  28.476   8.572  11.214
44926W        W17186   4.368  32.020  10.887
44927W        W17187  35.918  21.966  14.237
44928W        W17188  27.534   9.751   1.284
44929W        W17189  41.354  37.796  11.813
44930W        W17190  21.457   4.474  11.773
44931W        W17191  12.738  44.026  11.609
44932W        W17192   1.779  30.875  11.539
44933W        W17193   2.804  43.328   2.404
44934W        W17194  22.653  13.723   2.297
44935W        W17195   4.188  20.646   2.130
44936W        W17196  22.106  13.030  13.561
44937W        W17197  12.902  12.627  11.227
44938W        W17198  43.043  41.267  10.465
44939W        W17199   9.673  35.192   2.698
44940W        W17200  40.375  36.609   4.223
44941W        W17201  29.058  37.128  13.511
44942W        W17202  11.813  23.788   1.820
44943W        W17203  40.352  43.097  11.166
44944W        W17204  26.751  28.681  12.411
44945W        W17205  33.639  23.013   2.728
44946W        W17206  35.116  15.443  12.045
44947W        W17207  35.116  18.740   3.891
44948W        W17208  19.161  14.581   3.760
44949W        W17209  41.960  28.635  11.143
44950W        W17210  31.559  19.268   2.153
44951W        W17211  28.899  14.133  11.074
44952W        W17212  14.790   4.156   4.226
44953W        W17213   2.868  38.559  13.113
44954W        W17214   2.294  34.902   1.768
44955W        W17215  18.333  40.998   4.519
44956W        W17216  26.007  29.819   4.077
44957W        W17217   1.565   6.903  11.693
44958W        W17218  13.380  34.733  12.786
44959W        W17219  12.389  11.701   1.738
44960W        W17220  28.379  15.434  10.026
44961W        W17221  14.635  12.999  12.055
44962W        W17222   3.265  26.979   0.741
44963W        W17223  34.121  37.842   0.389
44964W        W17224   1.128  39.813   0.875
44965W        W17225  19.086   6.422  14.471
44966W        W17226  12.893   5.831  13.494
44967W        W17227  27.386   7.484   1.475
44968W        W17228  28.894  17.153   4.348
44969W        W17229  39.433  10.630  11.005
44970W        W17230  40.408   6.838   1.740
44971W        W17231   1.173  32.969  12.460
44972W        W17232  24.682   6.239  13.461
44973W        W17233  14.891  15.639   0.938
44974W        W17234  11.840  33.621   2.680
44975W        W17235  43.379   5.313  11.664
44976W        W17236  29.988  23.847   1.264
44977W        W17237  25.250  16.721  11.373
44978W        W17238  43.659  22.252   2.876
44979W        W17239  14.822  23.958   0.795
44980W        W17240  11.423   1.299  12.158
44981W        W17241  40.349   1.330  14.417
44982W        W17242   5.138  21.070   0.881
44983W        W17243   2.577  17.664  13.445
44984W        W17244  17.505  29.937  10.854
44985W        W17245   6.891  37.073   0.409
44986W        W17246  10.597  30.074   2.399
44987W        W17247  14.257   3.467   0.266
44988W        W17248  41.281  18.973  12.549
44989W        W17249  18.960  44.217   3.809
44990W        W17250  25.964  39.839  14.452
44991W        W17251  33.408  31.484   2.178
44992W        W17252   8.156  40.990   0.673
44993W        W17253  22.002  13.340   1.504
44994W        W17254  26.778  39.574   2.338
44995W        W17255  28.616  18.975  14.942
44996W        W17256   7.480  40.975  11.581
44997W        W17257  10.850   7.297  14.037
44998W        W17258  41.524  20.680   1.154
44999W        W17259   5.658  24.225  14.799
45000W        W17260  29.717  42.546   1.066
45001W        W17261  19.407  28.091  11.454
45002W        W17262   5.333   9.840  10.583
45003W        W17263   9.126   7.469   0.324
45004W        W17264  33.446  14.210  14.420
45005W        W17265  25.114  22.282  12.481
45006W        W17266   5.420  13.219   0.418
45007W        W17267  33.924  34.404   1.422
45008W        W17268  28.965  37.999  13.019
45009W        W17269  42.169  41.640  12.544
45010W        W17270  34.269  28.004  13.298
45011W        W17271  38.687  16.360  12.592
45012W        W17272  13.649  30.186  13.349
45013W        W17273  36.161  26.169  12.436
45014W        W17274  13.702  22.483   1.867
45015W        W17275   8.590  21.576   1.042
45016W        W17276   1.965  28.231  10.749
45017W        W17277  10.629   0.914   3.685
45018W        W17278  26.780   1.239  10.630
45019W        W17279  43.386   7.791   0.124
45020W        W17280   6.801   3.550  11.943
45021W        W17281  35.699  28.030  12.017
45022W        W17282  30.971  40.130   2.416
45023W        W17283  28.400  18.368  11.585
45024W        W17284   7.731  20.023   0.846
45025W        W17285  42.535  19.103   0.198
45026W        W17286  12.894  11.273   1.211
45027W        W17287  35.589   4.117  14.474
45028W        W17288  14.084  34.607  14.613
45029W        W17289   9.123   4.300  11.463
45030W        W17290  13.240  18.659   0.693
45031W        W17291  31.637  27.146  14.549
45032W        W17292  33.193  21.782  12.162
45033W        W17293  34.282  44.498  14.739
45034W        W17294  38.929  39.710   2.178
45035W        W17295  33.023  15.799   0.324
45036W        W17296  17.252  19.597   1.353
45037W        W17297  23.746  42.779  14.870
45038W        W17298  25.360  36.418   3.183
45039W        W17299  27.978  44.117  11.129
45040W        W17300  28.595   8.942  12.941
45041W        W17301  10.336  31.886   4.091
45042W        W17302  39.290   4.909  14.414
45043W        W17303  19.464  29.987   0.192
45044W        W17304  25.983  21.784   1.822
45045W        W17305  17.726  33.457   4.322
45046W        W17306  14.318  17.248   3.556
45047W        W17307   8.317  13.033  11.580
45048W        W17308  18.589  14.718  13.827
45049W        W17309  36.990  28.873   1.722
45050W        W17310   0.413  42.040   1.824
45051W        W17311  37.845  36.282  11.081
45052W        W17312  39.933  37.917   1.299
45053W        W17313  20.524   1.838   1.928
45054W        W17314  22.086   7.593   3.592
45055W        W17315  14.534  30.000  14.202
45056W        W17316  17.091   5.408  12.000
45057W        W17317  31.142   0.337   0.304
45058W        W17318  15.859  33.568  11.516
45059W        W17319  43.700   9.258   3.768
45060W        W17320  29.077  31.584  10.596
45061W        W17321  40.878  41.805   1.160
45062W        W17322  35.279  36.983   2.363
45063W        W17323   8.616  13.307  11.917
45064W        W17324  15.725  18.742   3.189
45065W        W17325  36.953  28.530  14.401
45066W        W17326  24.072  19.650   0.556
45067W        W17327   0.086  39.538   2.179
45068W        W17328  20.287  12.833  10.651
45069W        W17329  26.952  25.067   3.199
45070W        W17330   7.709  12.738   5.104
45071W        W17331  10.062   8.873  11.932
45072W        W17332  20.289  19.092  12.964
45073W        W17333  10.697  28.854  10.785
45074W        W17334  16.714  34.873   1.346
45075W        W17335  26.873  24.795  12.448
45076W        W17336  16.855  16.644  14.548
45077W        W17337  40.946  35.870   2.751
45078W        W17338   5.902  34.916  10.948
45079W        W17339  20.218  19.043   2.595
45080W        W17340   1.428  38.161  14.070
45081W        W17341  43.077   8.766  14.221
45082W        W17342  19.092   6.336   0.351
45083W        W17343   2.780   1.180  13.407
45084W        W17344   3.418  34.579   2.797
45085W        W17345  24.309  33.512  11.552
45086W        W17346  35.770  39.405  12.954
45087W        W17347  43.318  19.193   3.624
45088W        W17348  18.104  14.006  12.405
45089W        W17349  27.371   1.748   1.228
45090W        W17350  40.961  42.155   1.535
45091W        W17351  32.391  32.358  12.264
45092W        W17352  33.276  33.117   2.658
45093W        W17353  24.721  25.706  11.882
45094W        W17354  41.574  31.990   3.311
45095W        W17355  11.410  37.954  13.426
45096W        W17356  20.946  29.552   0.419
45097W        W17357  37.884  18.158  11.779
45098W        W17358  31.539  32.486   3.765
45099W        W17359   0.770  17.854   2.330
45100W        W17360  11.943  42.685  14.859
45101W        W17361  20.197   1.765  13.120
45102W        W17362   4.508  41.399   3.337
45103W        W17363  12.739  37.840   4.305
45104W        W17364  25.533   3.911  10.864
45105W        W17365   6.163  35.197   1.240
45106W        W17366  34.573   5.428   0.035
45107W        W17367  12.306   8.904   1.246
45108W        W17368  28.570  22.286  12.608
45109W        W17369  35.138   3.242   4.226
45110W        W17370  19.399  20.285  11.699
45111W        W17371   0.916  27.957  14.854
45112W        W17372  31.825  18.774  12.959
45113W        W17373  40.334  24.212   4.076
45114W        W17374  34.315   4.335   4.202
45115W        W17375  33.412  28.003  12.980
45116W        W17376   2.450  29.113  12.288
45117W        W17377  13.691  32.981  14.457
45118W        W17378  17.627  29.878   1.954
45119W        W17379  36.856   9.711  13.067
45120W        W17380  34.359  31.010  11.984
45121W        W17381   8.211  38.830  10.866
45122W        W17382  10.277  43.865   3.424
45123W        W17383   9.823   2.016  13.390
45124W        W17384  13.105  43.577   1.519
45125W        W17385   1.602   2.559   0.289
45126W        W17386  24.741  14.065  10.760
45127W        W17387   5.343  39.748   1.409
45128W        W17388  22.182   9.216   4.403
45129W        W17389  34.859  33.934   4.566
45130W        W17390   0.322   2.241   0.345
45131W        W17391   2.677  44.289  13.520
45132W        W17392  15.267  18.486  12.483
45133W        W17393  40.389   8.598   4.588
45134W        W17394  11.325   2.872  11.974
45135W        W17395  26.955   9.339   2.684
45136W        W17396  24.978  18.805   1.819
45137W        W17397   2.005   9.710   1.423
45138W        W17398   1.796  41.546   4.036
45139W        W17399   4.818  14.142   3.650
45140W        W17400   9.157  10.549   3.672
45141W        W17401  21.093  14.660   4.601
45142W        W17402  25.995  10.807   1.210
45143W        W17403  32.054   2.157   3.407
45144W        W17404  31.449  14.066  14.375
45145W        W17405  15.843  18.569   0.617
45146W        W17406  14.770  26.105   3.586
45147W        W17407   0.304   8.161  13.807
45148W        W17408  31.378  28.704   0.271
45149W        W17409  40.817  41.985  11.578
45150W        W17410  27.924   9.729  12.417
45151W        W17411  10.942  41.464   1.987
45152W        W17412  29.792  40.847   4.874
45153W        W17413  34.979  21.504  11.546
45154W        W17414  28.205  31.130  12.509
45155W        W17415  35.077  35.126   3.767
45156W        W17416  29.337   1.764  14.688
45157W        W17417  42.985  19.673   1.850
45158W        W17418  39.601   8.779  14.284
45159W        W17419   8.538  37.428   1.320
45160W        W17420  29.086   9.418   3.833
45161W        W17421  42.415  21.730   1.840
45162W        W17422  13.140  43.307   4.144
45163W        W17423   5.773  26.556   0.357
45164W        W17424  32.741  38.396   2.497
45165W        W17425  32.816   7.115   4.532
45166W        W17426   5.210  13.833  12.247
45167W        W17427  38.213  19.739   4.889
45168W        W17428   9.489   8.827   2.389
45169W        W17429  13.460  19.818  14.128
45170W        W17430   5.366  20.620   0.721
45171W        W17431   9.467  19.640  11.487
45172W        W17432   7.318  44.382   4.720
45173W        W17433  17.874   5.221   1.918
45174W        W17434  34.782   2.082  11.424
45175W        W17435   1.032   0.853   0.698
45176W        W17436  22.711   2.984   0.449
45177W        W17437   9.429   9.916   0.220
45178W        W17438   5.638  28.459   4.590
45179W        W17439  38.098   9.353   0.958
45180W        W17440  12.334   7.630  11.496
45181W        W17441  24.635   4.778  13.463
45182W        W17442  35.937  10.599  13.738
45183W        W17443  34.601  36.687   3.090
45184W        W17444  23.619   4.032  11.559
45185W        W17445  20.813  19.352   1.350
45186W        W17446  29.594  13.808  13.523
45187W        W17447  25.581  21.955   0.403
45188W        W17448  32.423  33.269  11.777
45189W        W17449  24.465  23.713   1.290
45190W        W17450  22.722  41.263  14.444
45191W        W17451  16.699   4.904  11.637
45192W        W17452  44.358  34.656  13.413
45193W        W17453  26.970  13.653  14.412
45194W        W17454  31.108  44.865   3.828
45195W        W17455  27.713  26.401  11.015
45196W        W17456  25.475  40.378  13.797
45197W        W17457  26.568  43.555  11.162
45198W        W17458  28.963  25.247   0.027
45199W        W17459  16.617   6.292   2.755
45200W        W17460  38.379  15.276  14.951
45201W        W17461   8.224  20.745  14.971
45202W        W17462  24.059  25.670  14.030
45203W        W17463  31.113  12.879   1.693
45204W        W17464  18.283   0.398  12.028
45205W        W17465  10.123   2.781  11.623
45206W        W17466  22.017  17.764  13.436
45207W        W17467  29.234  13.878   1.837
45208W        W17468  42.686  39.571   0.885
45209W        W17469  20.092  43.302   3.201
45210W        W17470  35.531  33.949  10.782
45211W        W17471   4.631  27.740   4.098
45212W        W17472  43.933  42.438  10.711
45213W        W17473  32.482  31.281   3.789
45214W        W17474  41.463   0.927  11.825
45215W        W17475  26.439  11.847  14.523
45216W        W17476  29.077  16.437  12.501
45217W        W17477  22.645  29.993  11.938
45218W        W17478   5.002  33.024   4.502
45219W        W17479   8.759   4.308   9.890
45220W        W17480  17.200   0.678  12.556
45221W        W17481  27.520  27.063   3.705
45222W        W17482  22.701   7.294  12.295
45223W        W17483  13.281  28.529  12.885
45224W        W17484  25.167  41.139   3.607
45225W        W17485  17.126  14.159  14.921
45226W        W17486  27.548  16.574   3.515
45227W        W17487   5.860  37.981  10.616
45228W        W17488  19.103  29.116   4.264
45229W        W17489  16.172  36.333   0.286
45230W        W17490  24.206  37.808   0.731
45231W        W17491  43.766  14.197  11.066
45232W        W17492  27.063  31.038   4.711
45233W        W17493  19.772  40.004  11.475
45234W        W17494   0.854  35.155   4.631
45235W        W17495  15.752  32.678  11.642
45236W        W17496  28.140   0.046   3.630
45237W        W17497  37.764  11.414  12.928
45238W        W17498  14.858  37.593  14.773
45239W        W17499  18.308  43.975   2.332
45240W        W17500  26.570  16.100  11.197
45241W        W17501   3.578  38.493   1.954
45242W        W17502   2.475  24.711  14.025
45243W        W17503  19.337  21.725  11.376
45244W        W17504   9.578  11.320   3.304
45245W        W17505   0.710  38.850  14.971
45246W        W17506  37.927   8.097  14.995
45247W        W17507  31.420  23.509  10.917
45248W        W17508  17.765  26.655   0.465
45249W        W17509   4.306  39.974  13.405
45250W        W17510  12.228  43.282   0.110
45251W        W17511   7.854  29.240  10.709
45252W        W17512   2.170  14.088  13.464
45253W        W17513  44.470  32.889   2.217
45254W        W17514  11.761  41.785   0.941
45255W        W17515  14.763  41.309  11.138
45256W        W17516  42.387  39.526  12.509
45257W        W17517   5.719  22.960   0.867
45258W        W17518  37.880  28.983  11.654
45259W        W17519   3.507   3.454  14.888
45260W        W17520  11.270  29.991  12.931
45261W        W17521  37.225  15.000  11.978
45262W        W17522   4.000  41.426   3.437
45263W        W17523  14.059  17.982   1.894
45264W        W17524  36.964  21.019   4.203
45265W        W17525  28.331  27.242  11.169
45266W        W17526  26.972  41.866  10.870
45267W        W17527  30.641  33.300  11.697
45268W        W17528  22.243  17.145   4.883
45269W        W17529  32.354   2.847   0.887
45270W        W17530  37.664  20.584   0.835
45271W        W17531   8.649  29.902   2.339
45272W        W17532   1.514  10.963  13.420
45273W        W17533  13.896   7.194   1.293
45274W        W17534  26.984  35.534   3.157
45275W        W17535  41.399  22.639  10.617
45276W        W17536  21.950   1.986  14.576
45277W        W17537  11.786  35.779  12.017
45278W        W17538  27.072  10.160  14.980
45279W        W17539  44.857   0.635  14.870
45280W        W17540  42.452  30.560  13.939
45281W        W17541  26.118  22.596  14.851
45282W        W17542  19.828  28.482  11.246
45283W        W17543  28.534  25.340  10.722
45284W        W17544  19.201   0.998   4.922
45285W        W17545  37.576  23.669   1.220
45286W        W17546  10.137  30.469  13.933
45287W        W17547   0.214  34.679   1.770
45288W        W17548   2.692   3.408  11.154
45289W        W17549  20.055  43.428  14.285
45290W        W17550  32.614  12.575   0.799
45291W        W17551  23.053  11.222   0.761
45292W        W17552  18.711   4.899   0.435
45293W        W17553  17.311  18.076  11.606
45294W        W17554   8.682  25.207  11.660
45295W        W17555   4.422   9.816  10.684
45296W        W17556  40.247  32.063   3.677
45297W        W17557  35.436  22.110  12.509
45298W        W17558   3.956  39.458   0.028
45299W        W17559  27.646  18.381   3.101
45300W        W17560   2.096  15.681   3.305
45301W        W17561  11.113  30.008   2.241
45302W        W17562  40.041   8.871  12.446
45303W        W17563  40.301  40.681  11.608
45304W        W17564  36.801  34.223  12.561
45305W        W17565  13.648  13.359  12.552
45306W        W17566  36.869   5.174  13.022
45307W        W17567  36.556  41.730  13.253
45308W        W17568  40.821  37.075  10.681
45309W        W17569   8.145  30.730  13.078
45310W        W17570  29.551  42.785  12.578
45311W        W17571  34.954  38.982   0.945
45312W        W17572  31.558   0.764  12.627
45313W        W17573  24.586  11.590   4.730
45314W        W17574  44.378  38.883   2.225
45315W        W17575   7.199  30.954  13.542
45316W        W17576  34.777   2.277   2.086
45317W        W17577  43.018  37.658   5.072
45318W        W17578   2.211  23.651   4.840
45319W        W17579   5.353  17.600   3.633
45320W        W17580  27.044  34.831  12.996
45321W        W17581  28.912   8.843  13.993
45322W        W17582  26.130   9.912   0.465
45323W        W17583  13.236  16.640   4.157
45324W        W17584  23.104   0.641  13.492
45325W        W17585  33.013  20.053  14.072
45326W        W17586  20.756  29.468  11.056
45327W        W17587  29.984  29.385   5.436
45328W        W17588  20.219  34.259   1.777
45329W        W17589   1.019   1.649  13.817
45330W        W17590  18.237  12.907  13.498
45331W        W17591  42.435   8.609  14.411
45332W        W17592   2.842   6.618  14.877
45333W        W17593   9.241  12.934   2.357
45334W        W17594  19.704  31.205   3.699
45335W        W17595   1.204  24.722   2.399
45336W        W17596  40.724  44.507   3.722
45337W        W17597  14.308  33.279  11.800
45338W        W17598   9.324  36.117  13.505
45339W        W17599  38.478   9.650  11.605
45340W        W17600  27.807  31.097  10.656
45341W        W17601  34.258  18.784   3.325
45342W        W17602  11.203  23.468  14.475
45343W        W17603  38.952  28.460   3.396
45344W        W17604   9.420  42.583  11.958
45345W        W17605   3.534  27.045   1.178
45346W        W17606  19.798  31.962   4.934
45347W        W17607  26.593  23.050   1.846
45348W        W17608  43.673  19.987  14.834
45349W        W17609  22.293   6.857  12.075
45350W        W17610  13.686  21.746   4.165
45351W        W17611  12.554  26.074  13.832
45352W        W17612  35.228  22.726  12.978
45353W        W17613  24.558   8.125  14.145
45354W        W17614   9.387   7.946   2.306
45355W        W17615  24.193  40.931   3.772
45356W        W17616  21.347   6.733   1.743
45357W        W17617   4.065   8.782  12.487
45358W        W17618   9.252  29.495   0.174
45359W        W17619  39.910  10.071   4.590
45360W        W17620  44.369  10.643  12.090
45361W        W17621  26.794   3.692  13.931
45362W        W17622   4.397  40.075  11.605
45363W        W17623   7.647   8.116   0.112
45364W        W17624  19.238  17.082   5.076
45365W        W17625  19.780  32.115   3.889
45366W        W17626   6.251  10.893  11.896
45367W        W17627   6.198  30.166   3.383
45368W        W17628   4.127  38.475  12.005
45369W        W17629  44.188  35.093   4.195
45370W        W17630  13.608  15.573   2.598
45371W        W17631  17.574  41.731  13.948
45372W        W17632   2.797  27.414  14.462
45373W        W17633   2.762   3.240  14.778
45374W        W17634  14.425  42.168  12.109
45375W        W17635   4.987  20.232  12.407
45376W        W17636  15.184  35.140   4.173
45377W        W17637  39.332  23.778  11.039
45378W        W17638  42.736  30.563   0.288
45379W        W17639  44.853   1.643   0.756
45380W        W17640  14.816  28.676  11.106
45381W        W17641  23.644   0.260  11.024
45382W        W17642   4.270  31.538   0.681
45383W        W17643   3.897  29.572  12.779
45384W        W17644  31.386  14.321   0.548
45385W        W17645  30.987   2.170  14.037
45386W        W17646  30.180  33.506  11.579
45387W        W17647  16.681   3.288   1.913
45388W        W17648  18.894  28.744   1.682
45389W        W17649   0.425  43.566  14.477
45390W        W17650  40.406  43.846   2.748
45391W        W17651  31.492  35.814  13.552
45392W        W17652  39.177  18.544  10.938
45393W        W17653   7.797  11.338   2.747
45394W        W17654   1.888   6.185   0.036
45395W        W17655  44.342   8.736   4.183
45396W        W17656  18.083  38.461   1.246
45397W        W17657  31.939   4.486   3.317
45398W        W17658   9.363  42.725  13.093
45399W        W17659  36.667  25.562  12.567
45400W        W17660  17.015  30.294  10.741
45401W        W17661  40.365  28.523   3.832
45402W        W17662  16.048  38.307   1.851
45403W        W17663  37.581   7.752   1.913
45404W        W17664  20.775  14.184  12.472
45405W        W17665   4.963  34.871  11.885
45406W        W17666  31.720  20.701  12.062
45407W        W17667   0.700  27.757   2.416
45408W        W17668  43.821   4.944   1.804
45409W        W17669   5.831  10.145   4.131
45410W        W17670  36.078  20.341  12.001
45411W        W17671   3.817   4.460   1.480
45412W        W17672   9.755  32.486  11.068
45413W        W17673   4.626  41.668  12.370
45414W        W17674   0.940  14.893   3.601
45415W        W17675   0.332  27.115   2.841
45416W        W17676  38.426  16.183   3.892
45417W        W17677  12.616  15.332   0.670
45418W        W17678  32.885   1.696   1.965
45419W        W17679  33.997   6.468   2.772
45420W        W17680  44.910  36.106   1.341
45421W        W17681  23.809   3.914  12.427
45422W        W17682   3.975  18.742   1.910
45423W        W17683  37.348   9.747   2.907
45424W        W17684   2.409  26.041   1.384
45425W        W17685   7.914  12.379  12.460
45426W        W17686   2.544  42.061  14.660
45427W        W17687  25.738  37.978  12.611
45428W        W17688  18.490  16.978   4.140
45429W        W17689  10.632  41.483   2.918
45430W        W17690  40.236  30.596  11.716
45431W        W17691  30.057   8.954   1.943
45432W        W17692  13.359  40.836   2.764
45433W        W17693  42.957  26.875   2.716
45434W        W17694  22.717   6.388   5.017
45435W        W17695  24.397  27.639  11.117
45436W        W17696  43.951  42.006   3.092
45437W        W17697  11.264  38.828  11.741
45438W        W17698  37.352  37.695  12.578
45439W        W17699  36.926  36.057   0.754
45440W        W17700  14.083  32.359  13.315
45441W        W17701   2.949  26.687   5.053
45442W        W17702  24.218  26.737   3.847
45443W        W17703  19.433  25.781  12.559
45444W        W17704   2.121  22.041  13.517
45445W        W17705  33.081  21.087   3.012
45446W        W17706  27.753  27.856   4.077
45447W        W17707   6.153  25.473  13.537
45448W        W17708  31.000  33.434  14.798
45449W        W17709  21.579  35.916   4.163
45450W        W17710  40.627  34.520   3.497
45451W        W17711  43.769  24.282   3.623
45452W        W17712  37.864  10.643  12.786
45453W        W17713  40.981  25.819  13.409
45454W        W17714  40.112  25.477  12.903
45455W        W17715  16.537   0.460  10.691
45456W        W17716   3.140  37.636   2.697
45457W        W17717   6.525  25.891  11.584
45458W        W17718  24.943   7.243  10.714
45459W        W17719  18.078  22.174  10.830
45460W        W17720  19.148  40.097  13.981
45461W        W17721   5.353  26.597  12.469
45462W        W17722  16.891   0.009   4.762
45463W        W17723  19.137   3.430  13.535
45464W        W17724  31.274  31.628  12.202
45465W        W17725  26.532  14.727  11.599
45466W        W17726  29.820  25.646  11.127
45467W        W17727  31.002  26.002  14.910
45468W        W17728  38.089  16.166  10.785
45469W        W17729  21.685  30.663  13.925
45470W        W17730  13.128  13.343   0.935
45471W        W17731  18.567  12.329   4.261
45472W        W17732   0.245  30.479  14.320
45473W        W17733  14.513  27.088  12.376
45474W        W17734   0.985  18.144  14.000
45475W        W17735  25.466   8.020  13.984
45476W        W17736  21.533  15.543  14.901
45477W        W17737  43.355   0.293  13.473
45478W        W17738  18.295  40.007  12.461
45479W        W17739  37.977  44.632  10.474
45480W        W17740  39.505  24.723  12.955
45481W        W17741  14.518  39.041   2.697
45482W        W17742  31.442  27.219   0.447
45483W        W17743   4.631  10.103   2.365
45484W        W17744  40.693  17.994   0.859
45485W        W17745   1.320  31.948   3.676
45486W        W17746  33.532   6.750   4.745
45487W        W17747  22.245   1.146  13.507
45488W        W17748  22.607   1.209  13.937
45489W        W17749  20.653   9.613  11.392
45490W        W17750  20.149  13.293  11.625
45491W        W17751  22.318  29.732   2.112
45492W        W17752   5.402  20.730  14.192
45493W        W17753  21.776  34.842  14.938
45494W        W17754  31.035  23.904  13.336
45495W        W17755  36.297  10.217  13.725
45496W        W17756  31.819   8.549  12.409
45497W        W17757  22.721  30.528  12.048
45498W        W17758  10.187  17.239   1.047
45499W        W17759  13.183  27.639  11.115
45500W        W17760  21.103  40.785  13.121
45501W        W17761   0.867  44.805  11.769
45502W        W17762   6.699  34.482  11.429
45503W        W17763   8.796  18.259  10.769
45504W        W17764  26.472  14.440  14.956
45505W        W17765   3.798  15.861  13.074
45506W        W17766  21.602  30.914   3.200
45507W        W17767   7.449  39.843   4.177
45508W        W17768  36.016  20.477   4.106
45509W        W17769  37.401  31.699   4.338
45510W        W17770  38.717  13.333  12.878
45511W        W17771  35.818  15.472  14.909
45512W        W17772  16.741  14.348  13.105
45513W        W17773  39.832  44.956  14.343
45514W        W17774   5.186  16.169   2.719
45515W        W17775   4.759  17.099   0.404
45516W        W17776  13.102  43.841  13.383
45517W        W17777   7.115  23.268  12.051
45518W        W17778  33.336  42.848   0.448
45519W        W17779   0.022  29.183   4.588
45520W        W17780  25.562  38.256  14.055
45521W        W17781  37.276  25.593  12.548
45522W        W17782  31.908   0.042  10.822
45523W        W17783  28.094  37.366   1.923
45524W        W17784  29.893  27.579  14.499
45525W        W17785  35.953  14.181   3.201
45526W        W17786  33.560   1.992   2.667
45527W        W17787  29.664  17.534   2.334
45528W        W17788  40.059   7.784   5.040
45529W        W17789  40.571   0.369  13.974
45530W        W17790   1.040  15.367   3.446
45531W        W17791  16.194  21.189   4.523
45532W        W17792   9.218  38.987   3.103
45533W        W17793  24.139   2.515   3.382
45534W        W17794  32.378   0.953  13.811
45535W        W17795  39.771  33.731   2.519
45536W        W17796  42.349   9.940   4.173
45537W        W17797  38.362  32.600  12.434
45538W        W17798  29.198  31.409  13.325
45539W        W17799  13.968   5.592  12.706
45540W        W17800   2.946  34.490   2.997
45541W        W17801  19.708  16.016   3.161
45542W        W17802  36.593  10.175  12.320
45543W        W17803  40.803  16.350  12.943
45544W        W17804  13.928  44.364  13.457
45545W        W17805  17.289  36.367   4.517
45546W        W17806  10.728   4.435   2.884
45547W        W17807  21.566   2.421  10.636
45548W        W17808  18.146  10.313  13.522
45549W        W17809  21.256  43.521   0.679
45550W        W17810  33.490  37.549  13.121
45551W        W17811   6.528  43.816  13.422
45552W        W17812  21.008  13.216  14.209
45553W        W17813  25.566  17.005   3.634
45554W        W17814  42.796   5.545   4.691
45555W        W17815  13.063  44.057  12.919
45556W        W17816  41.936  18.386   1.220
45557W        W17817  42.282  15.281  10.763
45558W        W17818  28.103  10.429  13.170
45559W        W17819  31.664  39.677  13.967
45560W        W17820  17.853  34.481  13.471
45561W        W17821  44.696  24.544   4.386
45562W        W17822  16.328  29.131  14.277
45563W        W17823   5.865  24.603   3.710
45564W        W17824   8.719  12.869  13.622
45565W        W17825  30.763  44.208   0.476
45566W        W17826  32.168   1.279  14.157
45567W        W17827  44.090  41.112  14.843
45568W        W17828   2.399   9.324   5.017
45569W        W17829   3.942  27.865   0.473
45570W        W17830   0.116  39.030   4.629
45571W        W17831  23.361   6.387   3.428
45572W        W17832   7.804   3.799  14.770
45573W        W17833   8.563  15.374  11.971
45574W        W17834  38.154  42.857   4.135
45575W        W17835   6.865  28.565  12.593
45576W        W17836  27.220  26.649   2.371
45577W        W17837  25.215   6.397   4.159
45578W        W17838   1.485  39.427   1.185
45579W        W17839  21.233  15.347   4.003
45580W        W17840   1.287  42.220  14.260
45581W        W17841   8.806  26.734   3.250
45582W        W17842  43.400  38.374  10.865
45583W        W17843   9.313  19.213  14.446
45584W        W17844   3.798  27.683   1.454
45585W        W17845  14.104  26.416  14.807
45586W        W17846  15.053  27.929   0.524
45587W        W17847  37.465  27.550   1.926
45588W        W17848  26.262   9.978   4.178
45589W        W17849   0.090   0.845   0.276
45590W        W17850  37.942  18.168   4.235
45591W        W17851  25.405  29.116   4.012
45592W        W17852  33.814  20.446   3.813
45593W        W17853  12.393  17.054  10.680
45594W        W17854  36.345  13.590  13.923
45595W        W17855  41.161  13.373  12.812
45596W        W17856   1.270  18.768   5.017
45597W        W17857  40.577  16.771  14.384
45598W        W17858   3.777  21.527   2.386
45599W        W17859   8.131   7.147  11.657
45600W        W17860  25.224   0.961   1.846
45601W        W17861  14.691  23.941  13.403
45602W        W17862  40.635  39.393   4.220
45603W        W17863  19.273  18.535  13.449
45604W        W17864  44.897  27.773  10.150
45605W        W17865  28.467   3.804   4.248
45606W        W17866  19.555  25.025   1.047
45607W        W17867  23.923  27.613  11.292
45608W        W17868   7.850  23.610  14.477
45609W        W17869  43.016  24.683  11.734
45610W        W17870  20.453  16.233   0.470
45611W        W17871  37.751  44.540  11.798
45612W        W17872  42.933   3.314   2.187
45613W        W17873  31.896  17.760   4.264
45614W        W17874  11.911  24.244   2.546
45615W        W17875  13.125   0.697   3.175
45616W        W17876  33.786  41.839   2.731
45617W        W17877  24.635  12.130  12.234
45618W        W17878  25.201  31.196   1.352
45619W        W17879  31.463  11.154   3.707
45620W        W17880  44.365   6.980   4.038
45621W        W17881   3.167   8.703   4.573
45622W        W17882  25.908  29.307   4.045
45623W        W17883  42.317   3.298   0.251
45624W        W17884  15.474  35.598   0.955
45625W        W17885  20.158  15.798   1.405
45626W        W17886  31.201  24.107   1.363
45627W        W17887  24.674  44.319  14.428
45628W        W17888  37.898   5.943  13.804
45629W        W17889  12.486  22.487   4.006
45630W        W17890  21.763  26.023   2.336
45631W        W17891  39.559  43.907  12.688
45632W        W17892  21.030  11.076   4.138
45633W        W17893   7.921  20.854  10.253
45634W        W17894  17.699  14.558  14.802
45635W        W17895  12.411  27.605  13.315
45636W        W17896  27.002  30.974   1.721
45637W        W17897  25.031  12.368  12.026
45638W        W17898  19.066  20.079   4.003
45639W        W17899   1.244  26.520   2.064
45640W        W17900  25.170  38.401   3.955
45641W        W17901  21.823  43.042  10.726
45642W        W17902  25.476  23.570   1.247
45643W        W17903  26.587  18.540  14.254
45644W        W17904  28.162   7.332   5.101
45645W        W17905  11.908  35.280  11.168
45646W        W17906  37.555  12.447   2.144
45647W        W17907  29.919  43.898  14.406
45648W        W17908  15.863  15.970   3.106
45649W        W17909   6.164  11.812   2.385
45650W        W17910  43.630   5.607  14.026
45651W        W17911  35.877  40.147  11.127
45652W        W17912  30.206   9.396   2.673
45653W        W17913  43.526   8.689   3.122
45654W        W17914  36.752  29.193  13.564
45655W        W17915  24.008  39.258  13.761
45656W        W17916   1.174  30.838   5.097
45657W        W17917  38.634  36.017  10.611
45658W        W17918  26.065  19.961  13.499
45659W        W17919  16.078  23.612  11.635
45660W        W17920  19.537  11.947  12.946
45661W        W17921  31.607  36.481  11.460
45662W        W17922  24.641  10.711   4.708
45663W        W17923  11.658   8.806   2.911
45664W        W17924  12.080  11.962  12.000
45665W        W17925   5.378  11.954   4.159
45666W        W17926   7.705  21.937   4.665
45667W        W17927  29.432  16.188   3.590
45668W        W17928   3.632   7.791   2.259
45669W        W17929  32.661  23.701  11.025
45670W        W17930  34.625  28.376   2.349
45671W        W17931  24.641  25.880   1.791
45672W        W17932  35.842  40.233  12.044
45673W        W17933   5.826  27.030  13.890
45674W        W17934  31.509  35.758   4.286
45675W        W17935  44.746  35.597   1.831
45676W        W17936  31.910  25.578  12.924
45677W        W17937   3.273  44.195   2.317
45678W        W17938   9.251  18.081   1.435
45679W        W17939  13.139  43.955  14.253
45680W        W17940  38.436  36.054   4.667
45681W        W17941  30.265  30.955   4.238
45682W        W17942   2.811  22.319   4.227
45683W        W17943  38.044  27.705  14.850
45684W        W17944  43.505  32.840   1.315
45685W        W17945  12.828   0.958   4.137
45686W        W17946   3.688   7.705  14.863
45687W        W17947  42.962   1.666   2.916
45688W        W17948  26.978  35.894  11.862
45689W        W17949  35.158  21.919  11.310
45690W        W17950  34.617  35.750  14.173
45691W        W17951   6.702  38.263   4.958
45692W        W17952   6.349  20.009   2.243
45693W        W17953  34.896   2.803   3.618
45694W        W17954  24.741  21.779   1.015
45695W        W17955  35.816  18.518   2.804
45696W        W17956   8.284  32.993  14.370
45697W        W17957  29.199   2.668  11.452
45698W        W17958  28.787  29.942  12.533
45699W        W17959  34.883  39.790   4.473
45700W        W17960  22.666   4.278  12.391
45701W        W17961  31.076  29.897   2.918
45702W        W17962  10.466  24.850  11.043
45703W        W17963  21.655  12.013  10.203
45704W        W17964  12.878  27.433  14.920
45705W        W17965  19.430  42.985   4.605
45706W        W17966  21.513   6.835   3.966
45707W        W17967  11.072  42.298  11.615
45708W        W17968  31.418  35.538  13.988
45709W        W17969  30.519  41.306  14.861
45710W        W17970   5.312  35.145  11.618
45711W        W17971  11.943  38.064   0.724
45712W        W17972  17.193  24.749   2.817
45713W        W17973   8.318  10.297  11.005
45714W        W17974  33.609  21.997   0.250
45715W        W17975  40.384  22.252  11.075
45716W        W17976   9.936   3.924   1.763
45717W        W17977  42.526  14.407   3.699
45718W        W17978  14.357  14.055  10.202
45719W        W17979  10.932  42.495   4.136
45720W        W17980  29.666  14.146  12.676
45721W        W17981  21.076  44.458   0.225
45722W        W17982  27.673   9.651  10.676
45723W        W17983  14.917  18.611  14.374
45724W        W17984  37.097  15.202  13.474
45725W        W17985   8.896  31.592  12.471
45726W        W17986   9.653  33.838  12.233
45727W        W17987  43.377  29.026  13.741
45728W        W17988   2.988  36.518   4.543
45729W        W17989  13.595  44.371   4.642
45730W        W17990  42.123  16.067   3.153
45731W        W17991  25.810  26.584   3.645
45732W        W17992   0.229  28.187  12.110
45733W        W17993  24.682  16.207  10.392
45734W        W17994  44.639  30.117   4.974
45735W        W17995  26.539  42.288   1.795
45736W        W17996  15.311  41.077   0.860
45737W        W17997  36.522  29.115   1.795
45738W        W17998  35.378   2.700  13.515
45739W        W17999  26.518  32.490  14.812
45740W        W18000  13.892  19.104   4.288
45741W        W18001   7.966  33.560  10.199
45742W        W18002  22.486  30.574  13.908
45743W        W18003  25.415  13.150   4.037
45744W        W18004  23.365  25.361   0.567
45745W        W18005  30.629  16.779   1.020
45746W        W18006  32.420  17.806  14.481
45747W        W18007  37.392   3.461   0.983
45748W        W18008  14.113   2.434  10.725
45749W        W18009  17.580  16.056  13.433
45750W        W18010  32.113   1.408   1.900
45751W        W18011  27.911  31.604  11.453
45752W        W18012  16.330  44.251   2.995
45753W        W18013   0.999  35.791  11.147
45754W        W18014  16.609   8.454   3.627
45755W        W18015  33.594  33.524   9.975
45756W        W18016  40.795  29.904  12.964
45757W        W18017  22.051  13.052  13.026
45758W        W18018  10.374  33.161   9.742
45759W        W18019   1.448  24.826   0.475
45760W        W18020  39.401  18.849   3.145
45761W        W18021  22.097  42.754  12.404
45762W        W18022  12.695  37.497  13.143
45763W        W18023  42.985  31.538  14.380
45764W        W18024   5.786  36.263  12.368
45765W        W18025  41.048   3.134  14.976
45766W        W18026  34.367  22.220   3.652
45767W        W18027  33.016  40.460   3.613
45768W        W18028  34.643  10.307   3.818
45769W        W18029  14.090  20.523   4.352
45770W        W18030   8.579  15.281  12.483
45771W        W18031  39.848   1.759   3.685
45772W        W18032   6.817  18.650   3.423
45773W        W18033   6.193  42.496   2.793
45774W        W18034  42.801  43.763   4.352
45775W        W18035   0.466  19.028   3.611
45776W        W18036  44.799   8.986   4.218
45777W        W18037  36.100   1.755  12.900
45778W        W18038  19.148   1.755   1.275
45779W        W18039  38.100  39.824  11.505
45780W        W18040  32.110  20.680   3.710
45781W        W18041  26.046  21.301   0.501
45782W        W18042   7.417  40.514  11.839
45783W        W18043   3.791  16.494   1.733
45784W        W18044   0.679  18.244  14.862
45785W        W18045  32.146  11.336  11.202
45786W        W18046   5.638  40.558  10.431
45787W        W18047  41.081  40.798   2.372
45788W        W18048  15.641  42.824  14.014
45789W        W18049  20.600  23.971  11.540
45790W        W18050  40.803  41.276  11.206
45791W        W18051  35.754  27.930  11.142
45792W        W18052  16.301  18.297  11.918
45793W        W18053  37.076  27.903  11.710
45794W        W18054  37.852  40.603   0.576
45795W        W18055  14.486  38.364   0.377
45796W        W18056  39.077   5.836  11.144
45797W        W18057  41.036   0.232  14.244
45798W        W18058  21.240   5.275   0.393
45799W        W18059  21.692  21.607   9.781
45800W        W18060  42.831  40.533   3.691
45801W        W18061  18.481  43.939  10.395
45802W        W18062  21.565  11.047  13.021
45803W        W18063  21.302  26.292  10.584
45804W        W18064  25.022  40.447   2.353
45805W        W18065  12.766  41.378  12.441
45806W        W18066   1.759  24.477  10.946
45807W        W18067   0.046  40.979  12.504
45808W        W18068  33.832   9.716   3.762
45809W        W18069  32.729   9.694  12.972
45810W        W18070   4.651  20.057  13.887
45811W        W18071  17.684  39.521   2.923
45812W        W18072  34.208  14.044  14.916
45813W        W18073  35.860  38.147   1.644
45814W        W18074  28.882  16.144   3.623
45815W        W18075   8.360   5.477  13.322
45816W        W18076  26.564  31.318   4.767
45817W        W18077  30.519  34.980   4.331
45818W        W18078  42.879   2.767  12.557
45819W        W18079  20.228  36.923   3.728
45820W        W18080  10.854  13.883  14.468
45821W        W18081  16.526  37.008   0.336
45822W        W18082  26.539  17.803  11.319
45823W        W18083  20.212   9.226  14.875
45824W        W18084  20.350   3.779  12.198
45825W        W18085  23.300  22.023   2.205
45826W        W18086  19.254  11.615   1.030
45827W        W18087  35.069  24.976   3.563
45828W        W18088  40.055   1.416  10.743
45829W        W18089  23.705   9.259   4.763
45830W        W18090  43.249  32.623   0.918
45831W        W18091  13.650  25.184   2.206
45832W        W18092  21.212  42.412   4.749
45833W        W18093  25.634  39.548  13.484
45834W        W18094  10.406  26.707  13.175
45835W        W18095  34.878  29.014  12.389
45836W        W18096   9.738   7.907   3.271
45837W        W18097  16.681  37.037   0.823
45838W        W18098  41.493   7.844  12.027
45839W        W18099  38.886  37.853   1.531
45840W        W18100  27.006  34.269  11.934
45841W        W18101  34.051  24.103   3.638
45842W        W18102  43.466  22.936   3.155
45843W        W18103  33.169  24.604   2.415
45844W        W18104  44.364  40.839   0.701
45845W        W18105  24.552   4.406  12.521
45846W        W18106   4.920  19.254  12.426
45847W        W18107   1.398  34.876  11.084
45848W        W18108  26.916  21.746   4.233
45849W        W18109  23.314  12.801  14.419
45850W        W18110  43.035  17.210  11.680
45851W        W18111  28.613  37.040  12.183
45852W        W18112  38.971  26.891   1.961
45853W        W18113  24.069  16.341  14.914
45854W        W18114  14.761  26.680  11.677
45855W        W18115  38.509  26.031   3.352
45856W        W18116  25.062  38.396  13.986
45857W        W18117  32.555   6.415  14.336
45858W        W18118  44.408  39.615  11.232
45859W        W18119  23.616  26.588   3.177
45860W        W18120  27.706   2.503   3.443
45861W        W18121  17.436  19.000  11.568
45862W        W18122  34.917   0.297   4.511
45863W        W18123  33.413  13.700  12.090
45864W        W18124   8.710   1.489  14.521
45865W        W18125  15.296  21.476  11.040
45866W        W18126   7.234   1.537  12.021
45867W        W18127  12.562  29.642   5.069
45868W        W18128  39.856  11.168   2.433
45869W        W18129  39.838   1.961  13.962
45870W        W18130  19.127  40.576   4.885
45871W        W18131  19.070  34.107  10.482
45872W        W18132   0.971  30.882  14.889
45873W        W18133  43.547   2.206   1.818
45874W        W18134  15.102  35.957  11.366
45875W        W18135  14.473  14.636  11.902
45876W        W18136  33.032   3.026  11.175
45877W        W18137  37.010   0.913   3.071
45878W        W18138  39.766   5.840   1.850
45879W        W18139   0.874  14.693   4.844
45880W        W18140   1.829  31.868   3.732
45881W        W18141  22.206  16.859   2.661
45882W        W18142   6.965  16.916  11.653
45883W        W18143  33.040  30.501   4.786
45884W        W18144  27.093  18.485  11.035
45885W        W18145  14.391  39.412  14.471
45886W        W18146   0.007  30.878   3.529
45887W        W18147  18.982   1.562  10.757
45888W        W18148  11.486   6.887   1.231
45889W        W18149  33.619  27.957  13.983
45890W        W18150  22.325  26.105  13.935
45891W        W18151  36.952   0.581  12.870
45892W        W18152  21.178  30.147  11.660
45893W        W18153  37.637  28.482   3.301
45894W        W18154  39.820   9.820   0.028
45895W        W18155  18.999   4.732  13.113
45896W        W18156  43.184  22.532   2.258
45897W        W18157  34.418  15.205  11.154
45898W        W18158   9.842   0.687   1.975
45899W        W18159  20.675  26.987   5.562
45900W        W18160  39.066  27.918  10.091
45901W        W18161  24.164  41.321   5.007
45902W        W18162  17.306  32.418  14.495
45903W        W18163  15.104   2.003  12.124
45904W        W18164  34.027   3.118   3.386
45905W        W18165  20.935  43.758   1.845
45906W        W18166  16.985  10.290  11.522
45907W        W18167  43.943  29.101   0.488
45908W        W18168  14.943  27.143  13.342
45909W        W18169  28.992  12.947  14.971
45910W        W18170  18.489  30.056  10.802
45911W        W18171   8.166  29.483  12.160
45912W        W18172  20.792  29.624   3.298
45913W        W18173   8.145   8.691   0.861
45914W        W18174  31.272  19.123  12.423
45915W        W18175  37.348  36.019  11.920
45916W        W18176   2.264  41.594  10.033
45917W        W18177   3.063  44.819  12.904
45918W        W18178  17.606  25.208   4.582
45919W        W18179   4.059  42.415   3.808
45920W        W18180  27.678  13.765   1.850
45921W        W18181   0.648  14.655   3.271
45922W        W18182   5.345   7.743   4.215
45923W        W18183  25.473   3.885   4.040
45924W        W18184  22.057  21.567   3.242
45925W        W18185  30.057  28.283  13.286
45926W        W18186  44.671   6.730  10.995
45927W        W18187  26.119   0.330  14.459
45928W        W18188   0.817  20.009   3.324
45929W        W18189   0.408  30.997  13.140
45930W        W18190  17.655  14.948  11.111
45931W        W18191  36.801   3.921  14.818
45932W        W18192   5.959  17.701  14.901
45933W        W18193  39.082   1.530   2.245
45934W        W18194  38.753  40.279   0.321
45935W        W18195   6.347  29.389   3.825
45936W        W18196  44.764  22.069  14.847
45937W        W18197  38.031  33.428   4.610
45938W        W18198   8.342  27.305   2.837
45939W        W18199   0.336  10.683   1.894
45940W        W18200  26.999  32.280   3.214
45941W        W18201  33.028  43.683   2.873
45942W        W18202  15.815  34.089   0.816
45943W        W18203  22.524  22.075  12.129
45944W        W18204  13.820  43.065   3.188
45945W        W18205   1.794  28.475   0.462
45946W        W18206  15.311  11.234   3.433
45947W        W18207   9.728  39.036  10.519
45948W        W18208  42.381   2.655   1.932
45949W        W18209  23.502  32.028   2.753
45950W        W18210  44.681  21.478  14.881
45951W        W18211  43.559  27.234   2.817
45952W        W18212  19.285  17.733  11.986
45953W        W18213   6.136   5.915   2.224
45954W        W18214  10.538  37.445   2.420
45955W        W18215   2.927  36.136  12.493
45956W        W18216  18.919  20.205  11.508
45957W        W18217  33.408  40.934   2.609
45958W        W18218   2.474  27.555  14.850
45959W        W18219   7.646  11.091  14.915
45960W        W18220   0.468  22.199  10.928
45961W        W18221  31.897  17.643  13.839
45962W        W18222  30.957  10.720   3.156
45963W        W18223  17.849   3.807  12.504
45964W        W18224  17.331  20.808   0.741
45965W        W18225  24.668  33.012   4.509
45966W        W18226  29.057  18.661  11.151
45967W        W18227  32.923   8.225  11.013
45968W        W18228  28.861  27.836   0.539
45969W        W18229   0.482  25.347  12.015
45970W        W18230  15.561  28.969  14.761
45971W        W18231  21.929  10.424   1.229
45972W        W18232  41.863  41.517  12.075
45973W        W18233  33.196  30.254  11.730
45974W        W18234  39.000  42.372   3.239
45975W        W18235  34.930  38.461  12.405
45976W        W18236  36.458  42.471   0.064
45977W        W18237   8.657   8.627  11.220
45978W        W18238  25.736  15.302   4.629
45979W        W18239  40.353  35.532   1.960
45980W        W18240  33.616  37.293  14.441
45981W        W18241  32.124  11.758  10.529
45982W        W18242  22.309  32.530   3.261
45983W        W18243  41.404  37.576   2.690
45984W        W18244  10.523   2.798   3.365
45985W        W18245   4.393  18.829   3.842
45986W        W18246  34.500   5.819   2.567
45987W        W18247   2.525  27.982  11.662
45988W        W18248  14.113   2.920   3.295
45989W        W18249   8.813  13.671  12.989
45990W        W18250  40.236  24.489   0.859
45991W        W18251   5.260  33.030  11.452
45992W        W18252  32.873   8.781   2.181
45993W        W18253   9.855  44.107  14.274
45994W        W18254  44.739  16.653  14.072
45995W        W18255  17.388  31.162  14.929
45996W        W18256  31.414  12.802   1.248
45997W        W18257  15.308  37.867   0.786
45998W        W18258  43.993  32.973   1.251
45999W        W18259  14.348  18.389  10.145
46000W        W18260   0.357  35.803  11.456
46001W        W18261   5.792  11.073  14.816
46002W        W18262  13.554   6.886  12.583
46003W        W18263  26.731  27.217  10.683
46004W        W18264  44.415  36.538   1.953
46005W        W18265  30.660  17.585   1.388
46006W        W18266  28.141  23.235  11.123
46007W        W18267  19.043  39.456   2.654
46008W        W18268   2.538  24.644   3.653
46009W        W18269  35.428  41.921  12.022
46010W        W18270  37.643   8.903  12.564
46011W        W18271   3.863   4.330   4.248
46012W        W18272  34.712  25.211   1.706
46013W        W18273  36.353  31.736  14.313
46014W        W18274   3.328  24.593  10.473
46015W        W18275  38.698  25.449  11.614
46016W        W18276  16.632  14.918  12.435
46017W        W18277  40.692  24.744   1.706
46018W        W18278  29.704   7.456  13.443
46019W        W18279  18.751  28.338   4.236
46020W        W18280   7.422  11.392  14.041
46021W        W18281  41.997  21.560  10.579
46022W        W18282  34.021  10.145  12.067
46023W        W18283   4.014  28.947  14.453
46024W        W18284   9.625   0.394  14.953
46025W        W18285  20.046  20.502   3.605
46026W        W18286   2.338  14.216  11.112
46027W        W18287  21.373   0.327  11.247
46028W        W18288  26.304  10.029   0.930
46029W        W18289  17.073  43.739   2.856
46030W        W18290   7.261   3.397   0.204
46031W        W18291   5.573  41.406  14.786
46032W        W18292  13.190  40.333   0.988
46033W        W18293  28.817  32.679   9.786
46034W        W18294  31.853  28.644   0.493
46035W        W18295  19.095   4.241   3.711
46036W        W18296  10.825   6.612   1.872
46037W        W18297  40.814  31.789  14.839
46038W        W18298   2.690   1.540  11.477
46039W        W18299   9.725  29.958  12.162
46040W        W18300  24.696  35.655  10.717
46041W        W18301  29.905  25.118   2.730
46042W        W18302  11.427  43.511   3.676
46043W        W18303  15.086   9.403   3.649
46044W        W18304  11.301  36.585  11.219
46045W        W18305  14.755  11.401   0.313
46046W        W18306  41.020  26.055   2.742
46047W        W18307  23.902  14.668  14.574
46048W        W18308  11.361  30.016  13.860
46049W        W18309   8.258  12.384   3.139
46050W        W18310  12.403   3.749  12.400
46051W        W18311   1.781   9.819   0.687
46052W        W18312  17.967   0.469  12.900
46053W        W18313  37.175  36.254   4.227
46054W        W18314   1.484  15.126  13.274
46055W        W18315  21.961  29.658   4.701
46056W        W18316  10.047  40.929  11.187
46057W        W18317  10.315  33.605  12.492
46058W        W18318   3.881   8.331  12.812
46059W        W18319  41.887  32.409   0.588
46060W        W18320  33.038  34.064   3.822
46061W        W18321   4.770   4.802  10.872
46062W        W18322   0.240  42.910   4.542
46063W        W18323  19.585  28.127  10.968
46064W        W18324  15.360  40.405  10.773
46065W        W18325  12.137   3.861  13.919
46066W        W18326   4.173  39.815  11.214
46067W        W18327  16.506  17.162  11.073
46068W        W18328  18.695  26.997   3.307
46069W        W18329  33.404  15.944  14.210
46070W        W18330  21.016  43.832  10.338
46071W        W18331  41.283  34.097  11.575
46072W        W18332  30.897   2.115  14.625
46073W        W18333  10.785  11.110  10.722
46074W        W18334  28.643  22.741   2.228
46075W        W18335  14.631  20.469   3.717
46076W        W18336  19.317  31.444   2.357
46077W        W18337  32.138  25.711  12.499
46078W        W18338  18.075  39.635   4.273
46079W        W18339  25.087  18.114   0.316
46080W        W18340  15.362  35.885  13.802
46081W        W18341  18.032  12.324  10.693
46082W        W18342  20.813  17.797  14.268
46083W        W18343  32.087   7.889  13.055
46084W        W18344  44.767  26.924  12.080
46085W        W18345  39.360   5.855  10.702
46086W        W18346  17.392  25.550  10.957
46087W        W18347  31.507  14.402   3.425
46088W        W18348   3.606  23.991  14.261
46089W        W18349   4.480  18.105   0.426
46090W        W18350  42.612  19.545   4.202
46091W        W18351   5.040   7.275  12.579
46092W        W18352   7.915  21.495   4.896
46093W        W18353  43.804  17.374   1.733
46094W        W18354  37.563  24.118   2.704
46095W        W18355  35.529   8.768   2.196
46096W        W18356   6.218  44.215  13.322
46097W        W18357  38.617   9.155   4.645
46098W        W18358  12.118  16.260   1.854
46099W        W18359  44.996  43.400   4.458
46100W        W18360  15.675  31.380   3.852
46101W        W18361  13.828   6.503  11.655
46102W        W18362   1.172  44.346   3.765
46103W        W18363  24.215  26.976  10.555
46104W        W18364  40.811   5.749   1.336
46105W        W18365  34.875  23.677   3.754
46106W        W18366  42.589  43.358  12.590
46107W        W18367  43.752  39.982  14.394
46108W        W18368   4.804  44.019  12.687
46109W        W18369   7.156  23.198   0.805
46110W        W18370   2.680  19.453   1.309
46111W        W18371  14.053  20.539  13.637
46112W        W18372  28.003  18.780   3.056
46113W        W18373   1.781   5.374   2.827
46114W        W18374   8.642  44.481   3.397
46115W        W18375  22.985  13.797  12.899
46116W        W18376  20.249  28.065   4.139
46117W        W18377   7.693   9.146   0.031
46118W        W18378  33.360  29.481   0.875
46119W        W18379  38.342  21.919   4.273
46120W        W18380  29.381  42.174  11.197
46121W        W18381  32.374  27.895   4.971
46122W        W18382  31.099  30.988   5.470
46123W        W18383   9.935  37.129  11.401
46124W        W18384   6.409   9.323   0.716
46125W        W18385  32.730   7.427  13.996
46126W        W18386  36.040  24.026   2.768
46127W        W18387  42.727  34.642   4.116
46128W        W18388  13.583   3.003  13.521
46129W        W18389  26.716  19.838  13.000
46130W        W18390  22.765  33.559   2.226
46131W        W18391  10.741  13.322   0.467
46132W        W18392   5.787   4.643   0.465
46133W        W18393  19.011  11.382   4.188
46134W        W18394   1.321  42.008   3.259
46135W        W18395  15.647  11.754   4.542
46136W        W18396   7.112  37.572   0.761
46137W        W18397  25.944  28.190   0.252
46138W        W18398  21.185  39.365  10.646
46139W        W18399  28.013   9.722   1.054
46140W        W18400  29.959  40.498   3.807
46141W        W18401   3.684  20.038   3.629
46142W        W18402  43.397  44.456   0.230
46143W        W18403   7.172  17.168  12.027
46144W        W18404  43.188  30.341  14.516
46145W        W18405   7.262   0.431   4.884
46146W        W18406  36.916  34.996   1.876
46147W        W18407   4.441  13.009  10.483
46148W        W18408  40.594   2.886  13.275
46149W        W18409  42.708  22.566  13.752
46150W        W18410  43.700  30.555   0.225
46151W        W18411  40.611  24.256  12.465
46152W        W18412  25.111  36.961  10.699
46153W        W18413   0.589  15.716   4.154
46154W        W18414  44.923  13.104   4.060
46155W        W18415  36.775  22.743  11.232
46156W        W18416   4.876  31.778  12.135
46157W        W18417  29.239   7.613  11.039
46158W        W18418  14.301  22.194   1.576
46159W        W18419  14.373  16.000  13.797
46160W        W18420  38.080  26.995   3.321
46161W        W18421  38.497  28.473   3.718
46162W        W18422  14.938  13.625  14.331
46163W        W18423  28.139  35.095   0.850
46164W        W18424   8.850  27.542  13.119
46165W        W18425  23.530  17.207  12.894
46166W        W18426   0.902  44.106  11.499
46167W        W18427  36.948  19.321  11.132
46168W        W18428  15.432  27.976   2.291
46169W        W18429  10.885  25.212   2.254
46170W        W18430  15.719  44.973   0.337
46171W        W18431   7.279  28.530  12.303
46172W        W18432   0.508  32.672  10.669
46173W        W18433  23.228   8.855  14.724
46174W        W18434   0.946  24.829   3.632
46175W        W18435  27.597   3.656  13.376
46176W        W18436  20.186   5.774   3.608
46177W        W18437  16.857  21.127  12.461
46178W        W18438  41.762  18.076   2.933
46179W        W18439  42.511  26.194   0.758
46180W        W18440  32.482  21.301  12.602
46181W        W18441  37.099  14.282   4.637
46182W        W18442  26.974  34.637  10.589
46183W        W18443  41.582  18.569  12.494
46184W        W18444   6.282   7.974   4.744
46185W        W18445  43.940  21.837   4.163
46186W        W18446  25.391   7.111  14.273
46187W        W18447  20.587  14.054  14.029
46188W        W18448   5.213  16.351   0.993
46189W        W18449  21.612  36.011   0.301
46190W        W18450  39.349   3.494  10.739
46191W        W18451  20.759  17.092   4.674
46192W        W18452  37.122  19.877   1.870
46193W        W18453  20.870  42.416  12.050
46194W        W18454  10.313  31.840   2.595
46195W        W18455  34.783  10.014   3.387
46196W        W18456  23.612  18.753  13.724
46197W        W18457  18.522  12.453  14.180
46198W        W18458  14.030  19.672  14.278
46199W        W18459  37.532  40.479   3.546
46200W        W18460  41.432   9.822   2.309
46201W        W18461   3.465  21.530  11.388
46202W        W18462  22.194  15.511   0.807
46203W        W18463  12.373  14.292  10.991
46204W        W18464   5.837  33.847   3.701
46205W        W18465   7.278   4.480  12.525
46206W        W18466  17.536   5.676  10.400
46207W        W18467  41.066  21.471   2.926
46208W        W18468  13.804   1.534  14.343
46209W        W18469  12.820  42.304   4.523
46210W        W18470   0.556   8.366  11.981
46211W        W18471  31.021  34.706   0.263
46212W        W18472  12.717  29.930   0.295
46213W        W18473  19.384   1.672  13.995
46214W        W18474  31.862  32.489   4.194
46215W        W18475  41.672   9.201   2.186
46216W        W18476  37.098  22.001  13.009
46217W        W18477  44.970  32.782   4.015
46218W        W18478   5.821   2.794   3.033
46219W        W18479  40.434  15.250  10.448
46220W        W18480  21.500   6.757   4.477
46221W        W18481  13.881  41.077  12.112
46222W        W18482  38.019  31.143   3.722
46223W        W18483  30.956  44.355   3.648
46224W        W18484  14.672   8.287  12.066
46225W        W18485  27.750  28.364   4.211
46226W        W18486  38.379  20.545   4.665
46227W        W18487  27.089  24.140  11.928
46228W        W18488  15.066  17.726  10.500
46229W        W18489  27.972  36.614   0.818
46230W        W18490   8.490   0.802   2.184
46231W        W18491   1.854  34.095   4.121
46232W        W18492   7.031  32.100   2.418
46233W        W18493   6.351  10.581   2.737
46234W        W18494  42.865   5.015   4.563
46235W        W18495   3.780  26.606   1.360
46236W        W18496   1.392   2.007   3.829
46237W        W18497  15.033  32.851   2.284
46238W        W18498  40.476  31.635   1.426
46239W        W18499  15.993   9.675  11.573
46240W        W18500  34.102   6.956   0.186
46241W        W18501  14.671  38.458   4.526
46242W        W18502  31.304  33.221   4.322
46243W        W18503   6.912  39.376   0.103
46244W        W18504   2.676  30.367   1.736
46245W        W18505  22.454  36.582   0.658
46246W        W18506  20.013  34.523   3.622
46247W        W18507  32.115  28.985   4.233
46248W        W18508   5.365  42.889  12.920
46249W        W18509  33.769  44.657   1.374
46250W        W18510   4.000  10.426   1.575
46251W        W18511  27.709  30.956   2.296
46252W        W18512  19.333  10.822  13.399
46253W        W18513  39.461  40.778  13.886
46254W        W18514  36.077   4.181   4.635
46255W        W18515  33.916   1.267  14.786
46256W        W18516  26.993  30.168   1.276
46257W        W18517  21.247  26.081  11.051
46258W        W18518   5.724  11.251  11.527
46259W        W18519  19.207  12.203   0.831
46260W        W18520  31.045  14.275   3.618
46261W        W18521  22.510  17.296  12.661
46262W        W18522  10.098  27.013   3.356
46263W        W18523  14.512   2.061   2.794
46264W        W18524  10.364  39.024   0.913
46265W        W18525  35.547  26.093  11.270
46266W        W18526  11.951  28.372   0.452
46267W        W18527  39.803  22.576   4.295
46268W        W18528  42.254  32.478   1.581
46269W        W18529  24.783  10.867   3.378
46270W        W18530  15.675  38.635   2.023
46271W        W18531  31.793  19.560   3.107
46272W        W18532  32.467   6.875   3.308
46273W        W18533  29.152  22.034  12.550
46274W        W18534  28.346   7.003  14.893
46275W        W18535  34.842  32.465  14.022
46276W        W18536  38.902  26.511  13.033
46277W        W18537  30.123  15.715   2.844
46278W        W18538   5.582  27.077  12.488
46279W        W18539  21.033  38.075   4.537
46280W        W18540  23.646  28.502   4.948
46281W        W18541   6.661  27.258   2.414
46282W        W18542  36.539  21.548  14.147
46283W        W18543   2.800  36.034   1.312
46284W        W18544  37.034   6.464  12.403
46285W        W18545   7.304  37.070  12.446
46286W        W18546   4.747  15.927   2.794
46287W        W18547  40.002   4.827   3.672
46288W        W18548  42.933  28.843   3.608
46289W        W18549   1.074  28.449  14.862
46290W        W18550  43.690  27.654   2.124
46291W        W18551  11.477  15.116  14.498
46292W        W18552  10.185  32.230   9.881
46293W        W18553  37.804  39.943   4.204
46294W        W18554   0.231   5.198  12.524
46295W        W18555  33.615  15.329  11.091
46296W        W18556   7.839  16.516   3.238
46297W        W18557  38.850  28.857   1.827
46298W        W18558  31.602   7.358  14.942
46299W        W18559  23.250  21.196  14.369
46300W        W18560  18.563   1.250  10.685
46301W        W18561  31.520  16.823  11.234
46302W        W18562  38.023  24.201   4.677
46303W        W18563  20.666  35.675  11.143
46304W        W18564  42.009  25.559   0.318
46305W        W18565  13.835  36.078  10.682
46306W        W18566  41.851  21.440   4.121
46307W        W18567   1.135   9.919   3.189
46308W        W18568  25.566  39.656   2.911
46309W        W18569   8.842  11.359   3.777
46310W        W18570  42.536  20.222  10.451
46311W        W18571  38.785  12.328   2.674
46312W        W18572  21.478  12.107  13.425
46313W        W18573  39.034   3.714  11.117
46314W        W18574   9.859  21.049   0.641
46315W        W18575  35.969  11.604  12.961
46316W        W18576  43.005  40.594   2.334
46317W        W18577  39.126  31.082  14.498
46318W        W18578  23.498  13.082   4.553
46319W        W18579  35.812   0.016  13.522
46320W        W18580   5.284  20.926  13.726
46321W        W18581  18.776   3.006  11.149
46322W        W18582  21.203   5.425  13.382
46323W        W18583  10.753  28.310   1.210
46324W        W18584  42.377  24.312   2.318
46325W        W18585   0.891  23.658  12.569
46326W        W18586  23.961   5.430   1.934
46327W        W18587  23.926  22.425   1.409
46328W        W18588  33.086  39.508  13.397
46329W        W18589  24.349   5.155  12.150
46330W        W18590  11.235  15.423  12.590
46331W        W18591  18.181  28.470  14.290
46332W        W18592  29.525  33.681   0.840
46333W        W18593  28.399   9.447   4.527
46334W        W18594   9.135  14.678  12.321
46335W        W18595  11.748  26.377   3.640
46336W        W18596  12.274  28.568   2.278
46337W        W18597  32.901  20.503  12.619
46338W        W18598  31.395  35.397   3.933
46339W        W18599  25.921   7.828   4.860
46340W        W18600  16.856  35.437  12.548
46341W        W18601   5.673  34.624   2.208
46342W        W18602   8.689  41.655  13.019
46343W        W18603  34.692   9.510  14.487
46344W        W18604   0.852  32.339   4.697
46345W        W18605  14.438  30.862   5.621
46346W        W18606  11.751  15.519   4.548
46347W        W18607   4.489  15.065   2.423
46348W        W18608  10.783   9.333   2.267
46349W        W18609  25.936   7.059   2.539
46350W        W18610  41.742  35.116  12.434
46351W        W18611  30.093  40.841  13.921
46352W        W18612  27.261  12.394  13.043
46353W        W18613   9.443  40.397   1.853
46354W        W18614  41.954   0.929  13.928
46355W        W18615  17.886  44.299  12.901
46356W        W18616  16.594  42.663  10.713
46357W        W18617   0.247   1.922   2.425
46358W        W18618  17.811  32.595  13.488
46359W        W18619  10.566   0.261  10.057
46360W        W18620  38.258  30.931   0.499
46361W        W18621  32.623   8.903   3.381
46362W        W18622  36.684  33.597   3.152
46363W        W18623  28.670  19.815   4.130
46364W        W18624  30.161  23.618  14.940
46365W        W18625  22.822  22.312   4.234
46366W        W18626  39.128  14.254   1.849
46367W        W18627  41.434  40.309  11.860
46368W        W18628  13.378   8.827  13.395
46369W        W18629  11.379  18.854  14.069
46370W        W18630   0.804  19.895   0.687
46371W        W18631   0.338   1.495   2.145
46372W        W18632   8.683  40.463  14.991
46373W        W18633  17.010   6.320  12.980
46374W        W18634   7.650  24.919   3.356
46375W        W18635  35.028  22.288  10.908
46376W        W18636   9.081   7.869   3.060
46377W        W18637   3.919  22.969   1.367
46378W        W18638  37.404  29.011  11.398
46379W        W18639  35.346  25.168  14.290
46380W        W18640  26.689  25.999  12.041
46381W        W18641  33.477  20.839   4.754
46382W        W18642   7.906  30.559  13.772
46383W        W18643  17.065  41.935   1.397
46384W        W18644   3.993   7.148   2.324
46385W        W18645  30.543  18.037   2.725
46386W        W18646  43.399  12.087  10.610
46387W        W18647  32.031  23.934   2.217
46388W        W18648  39.823  17.148   0.967
46389W        W18649  16.839  14.246   0.364
46390W        W18650   3.937  41.935  12.904
46391W        W18651  31.717  29.488  11.523
46392W        W18652   6.855  17.172   2.907
46393W        W18653  38.903  20.511  11.564
46394W        W18654  21.188  34.641   1.779
46395W        W18655  10.767   8.550   4.881
46396W        W18656  19.235  34.532  13.602
46397W        W18657  31.678  22.480  11.909
46398W        W18658  20.543  35.415  13.501
46399W        W18659   4.907  37.796   1.238
46400W        W18660   1.124  14.303  14.983
46401W        W18661  11.385  38.903  13.006
46402W        W18662   0.390  34.135  12.814
46403W        W18663  42.764  34.589  10.166
46404W        W18664  27.411  40.996   5.450
46405W        W18665   8.608   4.918  14.010
46406W        W18666   2.497  42.535   1.076
46407W        W18667   4.431  43.208  14.221
46408W        W18668  38.502  28.684   3.189
46409W        W18669  17.661  16.445   4.007
46410W        W18670  24.189  30.220  12.843
46411W        W18671  29.951  30.246  11.571
46412W        W18672  34.432  40.260  10.925
46413W        W18673   6.490  30.490  13.782
46414W        W18674  37.070  15.328   2.793
46415W        W18675  28.649  34.261   1.988
46416W        W18676  13.568  40.128  12.277
46417W        W18677  26.015   6.558  13.660
46418W        W18678   0.631  32.001   5.063
46419W        W18679  14.015  35.911   2.572
46420W        W18680  26.130  40.894  12.408
46421W        W18681  35.020  44.808   0.831
46422W        W18682  28.388  25.569   1.251
46423W        W18683  16.921  42.435   3.921
46424W        W18684   0.295  17.174  12.417
46425W        W18685   5.214  27.549  11.771
46426W        W18686  18.742   0.081  13.623
46427W        W18687  29.372  13.761  10.660
46428W        W18688  44.375  24.995   3.531
46429W        W18689  22.159   2.720   3.238
46430W        W18690   7.301  29.114  11.651
46431W        W18691  13.025   3.255  11.513
46432W        W18692  44.856  11.158  11.438
46433W        W18693   1.147  25.642   2.401
46434W        W18694  35.524  42.221   4.136
46435W        W18695  44.352   4.715  12.549
46436W        W18696  41.301  32.352  13.119
46437W        W18697  10.235  26.984  12.781
46438W        W18698  36.643   8.390   5.476
46439W        W18699  40.270  25.935   3.893
46440W        W18700  39.300  21.329  13.770
46441W        W18701  23.336  19.325   4.371
46442W        W18702  20.842   6.173   4.178
46443W        W18703   3.376  37.836   0.949
46444W        W18704   8.771  42.758  14.899
46445W        W18705  34.566  10.239   5.318
46446W        W18706  18.138  18.171  11.909
46447W        W18707  18.930   5.825  11.047
46448W        W18708  41.070   0.010   2.150
46449W        W18709  24.298   4.812   0.494
46450W        W18710  16.366  16.277   4.982
46451W        W18711  17.126  12.657   4.772
46452W        W18712   3.683  14.221   0.793
46453W        W18713  12.403  24.279   1.672
46454W        W18714   0.274  16.188  14.820
46455W        W18715   1.832   0.784  14.317
46456W        W18716  30.437   7.771  12.348
46457W        W18717  39.446  41.641  14.325
46458W        W18718  29.690  12.697   0.837
46459W        W18719  37.056  17.683  12.938
46460W        W18720  30.867  22.670   3.973
46461W        W18721   3.375  18.866  13.379
46462W        W18722  15.388  28.756   5.099
46463W        W18723  27.461  29.131   2.672
46464W        W18724   2.263  36.060   3.669
46465W        W18725  16.066  33.147  14.357
46466W        W18726  44.301   6.263  13.807
46467W        W18727   7.586  10.765  11.882
46468W        W18728  33.896   6.436   4.548
46469W        W18729  22.654   9.232   1.323
46470W        W18730   0.854  38.965  10.680
46471W        W18731  15.870   5.745  12.117
46472W        W18732  23.110  34.979   1.923
46473W        W18733  40.831  31.389  13.993
46474W        W18734  12.231  21.788   1.805
46475W        W18735   4.506  12.359   1.887
46476W        W18736  11.425  42.327   2.829
46477W        W18737   1.903  28.194   4.854
46478W        W18738  16.577   9.938  11.554
46479W        W18739  12.698  30.256   1.234
46480W        W18740  18.235   9.595  12.873
46481W        W18741  39.832  23.156  13.144
46482W        W18742  36.976  15.746  14.248
46483W        W18743   4.293   5.863  13.932
46484W        W18744   5.634  32.080  13.041
46485W        W18745  21.498  15.785  11.945
46486W        W18746   9.737  28.203  14.742
46487W        W18747  24.678   5.128   0.334
46488W        W18748  17.177  34.386   4.357
46489W        W18749   4.788   8.356   1.919
46490W        W18750  26.225   3.445  10.695
46491W        W18751   9.825  36.823   2.013
46492W        W18752   8.325  21.935   3.689
46493W        W18753  18.274   6.477   3.533
46494W        W18754  22.982  15.804  13.406
46495W        W18755  24.625  21.754  13.677
46496W        W18756  21.840  27.093   3.831
46497W        W18757   6.937  14.286   2.313
46498W        W18758  28.690   2.457  13.545
46499W        W18759   9.868   1.231   1.350
46500W        W18760  37.779  32.149  14.426
46501W        W18761   5.406  24.427  13.380
46502W        W18762  41.556   8.482  14.795
46503W        W18763  33.528  13.105   3.673
46504W        W18764  38.559  37.955   2.651
46505W        W18765   0.710  24.902  13.808
46506W        W18766  36.853  24.619   3.632
46507W        W18767  20.094  31.860   1.992
46508W        W18768   3.646  18.578   0.906
46509W        W18769  36.681  13.114   0.493
46510W        W18770   7.518  40.411  12.688
46511W        W18771  43.093  21.249   0.593
46512W        W18772   5.948  29.832   4.986
46513W        W18773  36.184   7.596  10.724
46514W        W18774  11.826  28.722  13.204
46515W        W18775  24.617  26.305   2.740
46516W        W18776  38.470  26.994   1.809
46517W        W18777   6.243   1.724   4.663
46518W        W18778   2.312  25.291  14.861
46519W        W18779  18.360  18.771   0.708
46520W        W18780  31.638  24.553  11.526
46521W        W18781  42.365  19.751   3.360
46522W        W18782  35.382  13.905  11.481
46523W        W18783   6.355   7.699  11.559
46524W        W18784  19.514   0.411   5.017
46525W        W18785  43.430  12.593   2.726
46526W        W18786  44.775  29.420  10.028
46527W        W18787  28.906  12.172   4.282
46528W        W18788  32.705  37.090  12.052
46529W        W18789  37.595  39.962   3.732
46530W        W18790  39.764   5.247  11.163
46531W        W18791  15.565   7.324  12.849
46532W        W18792   0.232   6.279   2.183
46533W        W18793  43.580  18.999   3.234
46534W        W18794  44.740   5.776  11.220
46535W        W18795  35.325  23.601   0.088
46536W        W18796  31.539   2.595  11.128
46537W        W18797  28.510  29.841   4.516
46538W        W18798  15.377  31.923  13.687
46539W        W18799  22.139   7.247   1.356
46540W        W18800  38.977  16.106   0.095
46541W        W18801  35.915   4.645  11.145
46542W        W18802  28.681  31.924   4.579
46543W        W18803  40.538  17.558   3.829
46544W        W18804   4.909  30.018  14.369
46545W        W18805  20.776  41.007   1.862
46546W        W18806  35.619   8.051  12.924
46547W        W18807  41.473  14.238  14.813
46548W        W18808  23.604  25.534  14.765
46549W        W18809  34.479  42.729   2.218
46550W        W18810  16.704  34.004  13.747
46551W        W18811  26.008   2.744   2.176
46552W        W18812  18.917  30.133  10.499
46553W        W18813   0.988  33.991   0.754
46554W        W18814   2.462  38.456   3.798
46555W        W18815  44.929  42.723  13.063
46556W        W18816  34.686  12.598  12.103
46557W        W18817  22.998  19.996  12.909
46558W        W18818  29.962   7.240   2.220
46559W        W18819  37.266  16.984  13.963
46560W        W18820  27.649   3.984   1.303
46561W        W18821  37.521  35.768  11.494
46562W        W18822  25.242  34.151   0.304
46563W        W18823  16.662  20.567  11.091
46564W        W18824  13.342   5.291   4.795
46565W        W18825   1.265  31.980   2.634
46566W        W18826  34.474  31.657   0.431
46567W        W18827  23.267   8.973   2.824
46568W        W18828  11.181  20.083  13.093
46569W        W18829   6.215  12.206   1.273
46570W        W18830   3.432  20.432  10.643
46571W        W18831  44.322  42.209  13.631
46572W        W18832  20.739  37.540   1.790
46573W        W18833  15.744  44.328   4.700
46574W        W18834  40.437   2.288  12.624
46575W        W18835  18.248  12.337   3.820
46576W        W18836  18.042  37.739  10.690
46577W        W18837  15.233  31.047  13.758
46578W        W18838   1.603  40.349   2.834
46579W        W18839  43.083   0.046  11.466
46580W        W18840  35.149  26.934   2.202
46581W        W18841   5.947  17.700   0.916
46582W        W18842  22.911   9.522  12.025
46583W        W18843  39.955  12.137  12.425
46584W        W18844   3.315  11.583   2.146
46585W        W18845  15.550   9.120  14.789
46586W        W18846  44.543  40.974  12.637
46587W        W18847  23.100  31.392   3.298
46588W        W18848  37.942  25.552  11.975
46589W        W18849  10.596  17.474  14.787
46590W        W18850  35.662   5.885  10.994
46591W        W18851  40.207   7.037  13.720
46592W        W18852  22.488  13.226   3.583
46593W        W18853  15.710  30.040   0.394
46594W        W18854  22.701  41.743  13.834
46595W        W18855  15.755  43.926   3.222
46596W        W18856   9.859  40.709   1.775
46597W        W18857   9.622  35.323   3.300
46598W        W18858   0.876  38.943  11.187
46599W        W18859   5.373  27.652  10.188
46600W        W18860  11.951  36.316   0.514
46601W        W18861  19.748   7.184  10.136
46602W        W18862  42.552  12.101  14.431
46603W        W18863  15.561  18.957   4.151
46604W        W18864  25.697  35.601   0.256
46605W        W18865  37.037  35.485   1.864
46606W        W18866  10.581   0.842  14.269
46607W        W18867  28.982   3.162  13.561
46608W        W18868  34.563  33.381  14.541
46609W        W18869  39.439  33.034  13.930
46610W        W18870  14.905  17.316  13.889
46611W        W18871  11.349  22.700  14.597
46612W        W18872  35.140  13.522  12.479
46613W        W18873  35.033  30.965   0.251
46614W        W18874   3.719  36.055  11.489
46615W        W18875  12.627  24.480   0.434
46616W        W18876  28.467  16.481   3.941
46617W        W18877  13.608   9.679   0.074
46618W        W18878   3.928  30.383   3.236
46619W        W18879  31.371   2.266   2.859
46620W        W18880   9.228  43.519   1.297
46621W        W18881   0.438  30.644   1.494
46622W        W18882  21.084   7.228   0.427
46623W        W18883   2.970  36.541   1.388
46624W        W18884  11.590  38.716   1.847
46625W        W18885  23.374  42.045   2.118
46626W        W18886  12.610  28.355  14.891
46627W        W18887  20.481  37.064   0.909
46628W        W18888  29.519  19.735  12.553
46629W        W18889  34.439  27.890   4.418
46630W        W18890  43.314  20.821  11.176
46631W        W18891  12.438  35.929   1.152
46632W        W18892  14.236   7.291   0.836
46633W        W18893   5.242   6.847  10.695
46634W        W18894  13.122  37.666   0.926
46635W        W18895  15.854  10.085   3.644
46636W        W18896  29.449  29.263  14.777
46637W        W18897  11.286   6.764   4.651
46638W        W18898  30.947  20.689  14.399
46639W        W18899  10.352  23.093   1.981
46640W        W18900  21.736  34.914   0.829
46641W        W18901   2.811  26.111   4.052
46642W        W18902  40.444  44.333  11.639
46643W        W18903  42.457   6.917  13.960
46644W        W18904  42.819  43.052   3.830
46645W        W18905   6.237   7.657   1.470
46646W        W18906  14.654  11.853   2.903
46647W        W18907  23.486  20.657  14.525
46648W        W18908   3.421  30.179  12.615
46649W        W18909  18.537  14.363   3.130
46650W        W18910  33.544  31.701   0.350
46651W        W18911  33.609  35.151  11.177
46652W        W18912  21.527  42.050   0.522
46653W        W18913  39.535  42.805  10.666
46654W        W18914  27.028  27.943   2.828
46655W        W18915   3.353  12.250   0.926
46656W        W18916  23.748   8.905  14.768
46657W        W18917  36.774  35.842  11.089
46658W        W18918  37.066  12.345  13.924
46659W        W18919  12.355  34.069  12.341
46660W        W18920  14.670  41.840  14.316
46661W        W18921  27.454  39.491  11.613
46662W        W18922  36.636  26.584   0.291
46663W        W18923  24.787   6.744   4.063
46664W        W18924  40.332  24.702  12.447
46665W        W18925  27.390  13.408   0.483
46666W        W18926   3.486  37.120   1.964
46667W        W18927  33.560  30.642   4.765
46668W        W18928  17.587  41.252  10.312
46669W        W18929  35.355  11.611  13.499
46670W        W18930  36.591  38.496   3.202
46671W        W18931   2.556   9.775  10.798
46672W        W18932  25.570  12.730  14.747
46673W        W18933  44.738  34.429   0.861
46674W        W18934  14.873   0.367   4.498
46675W        W18935  22.128  18.635  10.340
46676W        W18936   1.196  31.823   1.347
46677W        W18937  43.232  37.465   2.810
46678W        W18938  15.637  34.199   4.593
46679W        W18939  30.668  11.595   2.782
46680W        W18940  14.739  31.933  14.379
46681W        W18941  34.409  17.846   4.711
46682W        W18942  20.427  22.807  13.548
46683W        W18943   9.605   8.630  11.972
46684W        W18944   1.911   1.768   0.917
46685W        W18945  16.365  25.819  11.960
46686W        W18946  14.072   2.551   4.489
46687W        W18947  24.488   3.776  10.701
46688W        W18948  32.188  12.313  13.492
46689W        W18949  36.979  39.923   4.634
46690W        W18950  24.698   5.564  12.090
46691W        W18951  43.694  11.672   0.816
46692W        W18952  38.659  23.509   4.057
46693W        W18953  15.429  27.888  11.951
46694W        W18954  38.479  24.404  11.759
46695W        W18955  30.818  35.912   2.837
46696W        W18956  23.709   2.155  12.005
46697W        W18957  20.917  37.540   3.719
46698W        W18958  38.982   2.823   0.872
46699W        W18959  33.801  20.273  11.134
46700W        W18960  33.376  26.112  13.253
46701W        W18961  25.829  21.960   4.520
46702W        W18962   3.801  32.472  13.429
46703W        W18963  26.032  10.146   4.618
46704W        W18964  39.053  37.175  11.655
46705W        W18965   8.690  13.145   3.204
46706W        W18966  44.447  38.404  12.890
46707W        W18967  28.555  18.367  11.090
46708W        W18968  32.664  17.378  13.540
46709W        W18969  14.264  15.205   1.543
46710W        W18970  28.932  41.399  14.430
46711W        W18971  23.953  38.945  13.027
46712W        W18972  13.343  29.172  10.295
46713W        W18973  23.790  33.994  12.035
46714W        W18974  11.761  39.208   1.870
46715W        W18975   0.422  31.924   3.195
46716W        W18976   3.032  33.996   0.517
46717W        W18977  38.786  44.470   1.120
46718W        W18978  28.036  11.949  12.987
46719W        W18979  21.304  12.382  12.993
46720W        W18980  22.557   0.440   0.268
46721W        W18981   5.824  27.634   2.649
46722W        W18982  19.683  35.512  12.205
46723W        W18983   6.708   6.335   1.823
46724W        W18984  17.668   5.831   3.651
46725W        W18985   6.719  38.993   1.456
46726W        W18986  28.922  21.006  13.449
46727W        W18987   6.772  37.597  11.910
46728W        W18988  16.852  19.934  14.953
46729W        W18989  28.028   5.027   3.382
46730W        W18990  39.763  39.644  14.614
46731W        W18991   6.137  27.958   0.245
46732W        W18992  23.667  22.104   0.187
46733W        W18993   7.790  31.846  14.289
46734W        W18994  10.074  42.812   1.456
46735W        W18995   5.228  23.041   1.723
46736W        W18996  34.536  15.594   0.310
46737W        W18997  26.254  32.954  10.738
46738W        W18998  35.196  28.093   1.693
46739W        W18999  13.041  37.823  12.386
46740W        W19000  14.685  11.685  11.881
46741W        W19001  31.878  23.028   1.311
46742W        W19002  36.510  25.232  11.195
46743W        W19003   8.377  40.913  14.319
46744W        W19004   0.101  14.335  14.742
46745W        W19005   5.191  34.247   0.907
46746W        W19006  15.672  41.500   3.672
46747W        W19007  29.725  31.048   4.272
46748W        W19008  25.172   4.981   0.453
46749W        W19009  21.248  42.765  13.965
46750W        W19010   6.148   8.474   1.960
46751W        W19011  25.103   9.844   3.161
46752W        W19012  20.309  40.106  13.437
46753W        W19013  16.511  35.972  10.918
46754W        W19014  30.386  18.791  11.926
46755W        W19015  20.909   9.888  12.601
46756W        W19016  39.905  40.300  11.014
46757W        W19017  32.373  31.960   1.644
46758W        W19018  33.858  16.354  10.654
46759W        W19019  29.621  39.024   5.151
46760W        W19020  32.319  18.793  13.078
46761W        W19021   2.482   8.485  11.145
46762W        W19022   5.094  14.801   0.767
46763W        W19023  42.334  30.340   2.696
46764W        W19024  22.942   1.822  12.493
46765W        W19025  34.636  28.363  13.450
46766W        W19026  41.459  21.757   0.083
46767W        W19027  14.353  34.911   0.460
46768W        W19028   6.092  16.378   0.890
46769W        W19029  29.424  30.650   1.774
46770W        W19030  32.101  32.761  14.300
46771W        W19031  38.328  36.834   1.170
46772W        W19032  12.272  39.047   0.372
46773W        W19033   1.648  40.296  13.368
46774W        W19034  26.412  30.017  12.909
46775W        W19035   3.797  32.330  13.974
46776W        W19036   7.490  30.518   2.910
46777W        W19037  41.212   2.786   2.781
46778W        W19038   1.868  32.114   0.953
46779W        W19039  34.067   4.818   0.351
46780W        W19040  39.452  15.583   1.312
46781W        W19041  21.912  19.562  12.086
46782W        W19042  23.734  21.050  14.281
46783W        W19043   1.689  27.541  14.357
46784W        W19044   5.868  12.758   4.510
46785W        W19045  32.645  13.118   3.669
46786W        W19046  36.847  12.600  11.457
46787W        W19047   5.673  19.134  14.778
46788W        W19048  21.953   6.383  10.755
46789W        W19049  24.811  12.279   2.053
46790W        W19050  11.596   7.129   0.748
46791W        W19051  38.360  10.639   0.536
46792W        W19052  30.162  25.417   1.822
46793W        W19053  26.015  22.343   0.325
46794W        W19054  13.571  23.338  12.354
46795W        W19055  38.912   1.939  12.632
46796W        W19056  43.321  27.549  12.646
46797W        W19057   1.763  38.940  12.096
46798W        W19058  40.853  35.310   3.713
46799W        W19059  12.622  35.160  13.555
46800W        W19060   1.971   1.688  14.358
46801W        W19061  39.457  16.391  12.087
46802W        W19062  32.479  28.496  14.397
46803W        W19063   6.795  44.315  13.394
46804W        W19064  17.040  21.128  14.853
46805W        W19065   3.559  13.851   3.855
46806W        W19066  38.514  25.656  11.140
46807W        W19067  27.563  13.173  10.710
46808W        W19068  36.443  22.145   4.322
46809W        W19069  34.004  34.837   4.067
46810W        W19070  16.529  27.700   1.523
46811W        W19071  18.598  21.193  11.481
46812W        W19072   6.878   9.581  13.631
46813W        W19073   4.267   0.454  14.929
46814W        W19074   0.310  23.538  10.456
46815W        W19075  38.538  26.296   0.957
46816W        W19076  40.182  19.214   1.674
46817W        W19077  22.297  35.315   2.412
46818W        W19078  29.638  39.589  14.936
46819W        W19079  23.785  32.912  13.088
46820W        W19080   3.663  29.447  13.899
46821W        W19081   7.272  18.329  14.933
46822W        W19082   5.622  41.544   1.415
46823W        W19083  37.837  19.037  13.164
46824W        W19084  41.842  10.786  13.557
46825W        W19085   0.486   1.100  12.937
46826W        W19086  36.993   3.652   2.150
46827W        W19087  14.653  27.141  10.902
46828W        W19088  36.351  14.621   4.640
46829W        W19089   1.291  12.920  12.576
46830W        W19090  15.621  15.871  11.161
46831W        W19091  38.477  38.433   4.569
46832W        W19092  36.443   4.869  11.942
46833W        W19093  26.673  13.165   3.649
46834W        W19094  12.846   8.927  13.449
46835W        W19095  31.402   3.739  13.075
46836W        W19096  13.307  27.931   1.373
46837W        W19097   6.603   1.763  14.900
46838W        W19098   8.889  39.596  10.809
46839W        W19099  25.557   6.503  13.915
46840W        W19100  39.067   1.873   0.808
46841W        W19101  36.502  24.704   1.864
46842W        W19102   3.805  41.897  11.629
46843W        W19103  36.840   6.142  12.049
46844W        W19104  23.572   2.209  12.886
46845W        W19105  12.347  15.749   4.860
46846W        W19106  19.630  37.964   4.262
46847W        W19107  35.395  35.164   1.212
46848W        W19108  35.557   4.224   4.540
46849W        W19109  41.408   1.873   1.750
46850W        W19110  22.911  28.532   9.870
46851W        W19111  13.781  18.320   4.632
46852W        W19112   3.337  44.195   4.975
46853W        W19113  25.461  23.889  14.723
46854W        W19114   8.631  15.407   4.128
46855W        W19115  10.093  35.941   0.366
46856W        W19116  20.535  11.577   2.772
46857W        W19117  44.807  13.873  14.405
46858W        W19118  28.119  10.136  12.145
46859W        W19119  31.207  22.706   0.147
46860W        W19120  41.950  22.706   3.723
46861W        W19121  41.711  35.524   3.739
46862W        W19122  32.100  32.128   3.180
46863W        W19123  25.038   9.588  12.510
46864W        W19124   1.744  17.092  11.909
46865W        W19125   4.673  14.315  13.490
46866W        W19126  40.758  11.453  11.212
46867W        W19127  37.088  34.519  10.730
46868W        W19128  22.539  14.900  11.871
46869W        W19129  41.787  22.500   0.400
46870W        W19130  15.772  30.319  12.851
46871W        W19131   7.403  38.672   2.771
46872W        W19132  30.057  26.149   0.944
46873W        W19133  24.552  13.048  14.021
46874W        W19134  26.928  37.263  13.400
46875W        W19135   1.042  30.080  14.488
46876W        W19136   0.083  29.817   1.385
46877W        W19137   4.021   2.253  11.147
46878W        W19138  38.914   4.794   1.483
46879W        W19139  14.447  23.524   2.397
46880W        W19140  32.010   9.924   1.673
46881W        W19141  35.588  24.107  11.956
46882W        W19142  36.960  19.531  13.351
46883W        W19143   0.727  42.346   4.102
46884W        W19144  22.084  11.220  13.455
46885W        W19145  27.286   4.911   2.167
46886W        W19146   7.203   3.023  14.829
46887W        W19147  10.344  42.925   2.464
46888W        W19148  10.174  29.171   2.075
46889W        W19149  23.914  39.751   2.721
46890W        W19150  24.744  18.044  14.375
46891W        W19151   3.700  37.464   2.757
46892W        W19152  11.482  28.842  11.834
46893W        W19153   7.219   6.730   2.118
46894W        W19154  15.868   2.830   3.609
46895W        W19155  18.175  12.745  14.530
46896W        W19156   3.117  33.525   0.758
46897W        W19157  35.382  23.592  13.157
46898W        W19158  39.407   5.499  13.012
46899W        W19159  13.578  30.276  11.588
46900W        W19160  18.427  27.359   1.199
46901W        W19161  42.433  16.611   3.107
46902W        W19162  17.663   4.910  14.022
46903W        W19163  33.007  14.611   1.439
46904W        W19164  22.056  42.868   4.365
46905W        W19165  16.589  28.440   4.518
46906W        W19166  40.315  40.205  12.096
46907W        W19167   5.429  44.784   2.204
46908W        W19168  27.120  30.084   0.236
46909W        W19169   8.067  24.458  12.916
46910W        W19170  23.562  18.570  14.224
46911W        W19171  21.535  33.593   4.518
46912W        W19172  27.898  17.236  13.565
46913W        W19173   5.295   8.192  13.575
46914W        W19174  33.321   4.717  11.716
46915W        W19175  28.999   9.350   1.425
46916W        W19176  23.115  32.659   1.777
46917W        W19177  22.564  24.052  11.422
46918W        W19178   2.892  16.838   4.600
46919W        W19179   1.327  24.100  11.658
46920W        W19180  17.694  18.167   2.744
46921W        W19181  31.603   3.553  10.762
46922W        W19182  26.595  32.119  12.956
46923W        W19183  24.664  40.230  10.444
46924W        W19184  20.134   1.470   2.790
46925W        W19185  31.158   2.926  11.211
46926W        W19186  13.671  44.793   2.856
46927W        W19187  17.559  22.931   1.252
46928W        W19188  24.126  40.701  14.390
46929W        W19189  42.736  38.378  14.005
46930W        W19190   0.929  19.723   2.477
46931W        W19191   1.314  18.997  14.513
46932W        W19192  32.909  29.641   1.077
46933W        W19193  22.028  30.724   2.754
46934W        W19194  34.089  16.726   1.280
46935W        W19195  35.019  44.308   3.141
46936W        W19196  40.204  22.774   1.388
46937W        W19197  15.336   7.738   3.155
46938W        W19198  44.400   4.288   1.287
46939W        W19199   6.025  35.318   3.573
46940W        W19200   1.226  36.433  13.591
46941W        W19201  29.841  23.582  13.745
46942W        W19202  13.432  27.311   9.861
46943W        W19203  23.062  15.225   3.674
46944W        W19204   2.922  16.676  12.079
46945W        W19205  19.066  24.562  14.082
46946W        W19206  20.352  15.367   0.475
46947W        W19207   6.561   2.683   4.612
46948W        W19208  10.378  15.364   0.324
46949W        W19209  10.841  15.324   0.097
46950W        W19210   3.637  44.981  11.673
46951W        W19211  25.092   6.408   1.724
46952W        W19212  11.848   0.948  11.605
46953W        W19213  33.857  15.873   4.197
46954W        W19214  16.743   1.809  11.421
46955W        W19215   5.229  36.658  12.128
46956W        W19216   2.529   8.676  12.561
46957W        W19217  12.069  31.069   0.428
46958W        W19218  35.689  38.464   0.836
46959W        W19219  21.691  23.990  13.911
46960W        W19220   4.996   2.520  11.086
46961W        W19221   4.240  32.908   0.957
46962W        W19222  42.943   7.520  11.380
46963W        W19223   1.523  20.777  10.871
46964W        W19224   1.000  20.597  13.716
46965W        W19225  23.926  23.667  10.749
46966W        W19226  16.242  18.007   0.481
46967W        W19227  40.453   3.863   1.176
46968W        W19228  36.674  19.554   0.221
46969W        W19229  28.331  34.621  14.353
46970W        W19230  21.655  35.704   1.261
46971W        W19231  15.000  26.101   1.704
46972W        W19232  36.293  22.229  13.313
46973W        W19233  36.355  30.010  11.681
46974W        W19234  37.592  31.220   0.950
46975W        W19235  28.728  16.098   4.138
46976W        W19236  14.433   0.436  11.620
46977W        W19237   7.653  37.978   0.249
46978W        W19238  19.910   1.712  14.057
46979W        W19239  12.157  41.734   2.375
46980W        W19240  38.872  40.470   3.809
46981W        W19241  21.727  23.006  12.647
46982W        W19242  20.061   9.734  14.935
46983W        W19243  21.941  26.541  12.312
46984W        W19244  26.319   8.858   3.736
46985W        W19245   0.716   6.342   2.372
46986W        W19246  40.555  14.286   2.613
46987W        W19247  34.155   3.058  14.850
46988W        W19248  41.378   7.929   1.234
46989W        W19249   6.194   1.285  10.877
46990W        W19250  19.545  43.536  13.551
46991W        W19251  18.078  30.195   0.010
46992W        W19252  40.485  44.338   4.152
46993W        W19253  41.120  37.305  11.084
46994W        W19254   0.009   0.412   4.513
46995W        W19255  41.387  19.769  10.840
46996W        W19256  26.463  19.153  10.878
46997W        W19257  22.630  23.912  13.358
46998W        W19258  35.053  21.694  10.004
46999W        W19259  27.990  36.269  11.016
47000W        W19260  14.185  21.773  10.511
47001W        W19261  19.939  24.861   2.913
47002W        W19262  11.836  23.259   1.855
47003W        W19263  32.544  23.581  14.775
47004W        W19264  10.279  30.610   0.636
47005W        W19265  28.217   9.867  13.232
47006W        W19266  17.743  40.818   3.147
47007W        W19267  19.944  19.626   3.173
47008W        W19268   4.233  14.672   2.638
47009W        W19269   6.843  23.346   0.342
47010W        W19270   0.170   0.058   4.081
47011W        W19271   5.258  28.374  10.680
47012W        W19272  17.801   9.318  14.465
47013W        W19273  28.064  41.287  14.344
47014W        W19274  13.019   9.212   1.951
47015W        W19275   5.682  27.770   0.404
47016W        W19276   8.078   2.892   3.731
47017W        W19277   6.765  17.648  10.998
47018W        W19278  20.377   1.202  12.553
47019W        W19279  25.785   5.707  13.414
47020W        W19280  43.769  44.684  10.912
47021W        W19281   6.419  38.777   2.400
47022W        W19282  18.440  39.970   0.190
47023W        W19283  26.711  35.355   0.456
47024W        W19284  36.301  28.950  13.763
47025W        W19285  33.551  29.546  11.222
47026W        W19286  16.858  16.345  10.707
47027W        W19287  25.199  35.860  14.643
47028W        W19288  32.413   0.024   2.743
47029W        W19289   3.862   1.463   4.650
47030W        W19290  25.680  36.070  14.553
47031W        W19291  22.041  30.155   2.331
47032W        W19292  38.484  16.096  14.291
47033W        W19293   4.393   1.978  11.397
47034W        W19294  17.309   6.568   1.628
47035W        W19295  31.519  22.972  14.075
47036W        W19296   2.781  32.736   2.768
47037W        W19297  37.588  23.667  14.517
47038W        W19298  25.688  16.632  11.649
47039W        W19299  44.695   8.058   3.259
47040W        W19300  19.672   5.922   9.785
47041W        W19301   4.590  22.414  10.511
47042W        W19302   0.927  34.096   4.669
47043W        W19303  32.475   5.230  11.426
47044W        W19304  13.624  27.768  11.899
47045W        W19305  14.117  14.770  10.690
47046W        W19306  43.603   6.918  11.531
47047W        W19307  37.102   0.279  11.631
47048W        W19308  37.612  14.268   1.764
47049W        W19309  40.325   5.032  10.646
47050W        W19310   5.015   6.914  13.924
47051W        W19311   6.372  31.207  12.494
47052W        W19312   3.048  37.481   1.184
47053W        W19313  25.268  37.424  11.405
47054W        W19314  17.522  18.196  11.048
47055W        W19315   5.816  41.496  13.820
47056W        W19316  20.500  40.732  10.521
47057W        W19317  24.589  34.655   2.582
47058W        W19318   7.227  23.721  12.871
47059W        W19319  13.533  25.069   1.311
47060W        W19320  22.727  10.850   0.600
47061W        W19321   7.827  30.534  11.009
47062W        W19322  12.826  15.004   1.753
47063W        W19323  18.677  19.449  12.104
47064W        W19324   5.697   3.969   4.085
47065W        W19325   2.177   3.403   3.202
47066W        W19326  43.877  34.841  13.257
47067W        W19327  28.776  33.590   3.325
47068W        W19328  29.869  44.155  12.476
47069W        W19329   7.862   9.701   3.504
47070W        W19330   8.947  20.251   0.211
47071W        W19331  25.263  28.604  14.687
47072W        W19332  14.154  34.040   3.717
47073W        W19333  11.844  22.726  11.961
47074W        W19334  16.262   0.679  12.422
47075W        W19335  36.568   8.697   1.805
47076W        W19336  15.642  36.647  12.591
47077W        W19337  22.291  33.271   3.196
47078W        W19338  18.099  18.063  13.302
47079W        W19339   2.852  20.647   1.726
47080W        W19340  18.567  10.671   1.814
47081W        W19341   8.457  19.396  11.151
47082W        W19342  15.293  30.080  11.032
47083W        W19343  30.859  28.533  11.184
47084W        W19344  35.157  17.882   4.090
47085W        W19345  19.815  32.933  13.639
47086W        W19346  27.597  19.866  12.563
47087W        W19347  33.817  12.292  12.038
47088W        W19348  39.429  34.202   1.419
47089W        W19349  12.272  10.909   3.690
47090W        W19350   9.385  14.248  10.579
47091W        W19351  19.384  40.783  14.373
47092W        W19352   2.327  43.064  10.816
47093W        W19353  10.205   3.363   0.768
47094W        W19354  13.280  10.676   1.817
47095W        W19355  27.038   1.388   2.322
47096W        W19356   9.837  13.181  14.385
47097W        W19357  42.389   3.934  11.166
47098W        W19358   3.410  23.283  14.863
47099W        W19359  10.453  38.848  11.082
47100W        W19360   8.166  28.569  11.079
47101W        W19361  15.026   4.944  14.035
47102W        W19362   7.454  21.289   1.897
47103W        W19363  30.198  33.389  10.713
47104W        W19364  21.882  28.870  11.804
47105W        W19365  26.407  24.026  12.898
47106W        W19366  24.976  39.459  13.907
47107W        W19367  21.222  40.316  10.632
47108W        W19368  40.025  12.139  13.301
47109W        W19369  21.690  13.164   4.743
47110W        W19370  26.656  37.241   0.459
47111W        W19371  33.406  27.096   4.879
47112W        W19372  23.290   8.400   3.918
47113W        W19373  44.793  17.351  13.534
47114W        W19374  28.006  30.200  12.795
47115W        W19375  20.190  24.610   3.393
47116W        W19376  42.722   4.457   1.120
47117W        W19377  36.850  15.285  12.949
47118W        W19378  18.195   5.523   9.776
47119W        W19379  28.189  32.680   0.283
47120W        W19380  23.241  16.121  14.195
47121W        W19381  14.595  43.955   1.275
47122W        W19382   9.941  41.143  12.509
47123W        W19383  17.913   8.317   3.748
47124W        W19384  41.758  24.967  11.177
47125W        W19385  24.197  39.989  11.073
47126W        W19386  43.897  35.464   1.051
47127W        W19387   7.959  16.763   2.247
47128W        W19388  14.310  23.570  13.418
47129W        W19389  30.712  30.962  14.305
47130W        W19390  29.997  17.338   3.093
47131W        W19391  37.770  30.111   4.512
47132W        W19392  42.964  21.410   1.401
47133W        W19393  33.900  37.283  11.594
47134W        W19394  18.153   2.751   4.655
47135W        W19395  26.110  36.507   3.750
47136W        W19396   6.691  38.553  13.568
47137W        W19397   0.042  22.137   3.278
47138W        W19398  31.853  31.106  11.979
47139W        W19399   6.428  17.048  10.960
47140W        W19400  33.718   4.123   0.820
47141W        W19401  44.676  33.142   3.115
47142W        W19402  41.312  38.770  11.991
47143W        W19403   7.220  19.645  13.404
47144W        W19404  19.407  24.057  12.045
47145W        W19405  33.652  44.559  11.624
47146W        W19406  20.197  38.223  12.484
47147W        W19407  12.884   9.701   2.016
47148W        W19408  35.660  42.977  13.883
47149W        W19409  40.214   9.075   4.511
47150W        W19410   1.922   6.735  10.731
47151W        W19411  44.287   1.423  10.957
47152W        W19412  12.687  43.247   1.293
47153W        W19413  43.515  43.000  13.056
47154W        W19414  33.378  42.928  10.780
47155W        W19415   0.749  38.710  13.616
47156W        W19416  19.728  17.152   3.613
47157W        W19417  42.463  16.169  11.867
47158W        W19418  23.686  25.161   3.398
47159W        W19419  41.778  22.271  12.356
47160W        W19420   8.258   4.285   4.542
47161W        W19421   7.920   8.915  14.126
47162W        W19422  22.495  19.205  14.239
47163W        W19423   6.451  24.215   4.204
47164W        W19424   4.225  22.226   2.266
47165W        W19425  10.816  42.933   4.393
47166W        W19426  43.480  39.357   3.846
47167W        W19427  44.081   1.902  11.137
47168W        W19428  19.106  18.158  14.518
47169W        W19429   4.943  42.143   2.741
47170W        W19430   4.557  24.694  14.180
47171W        W19431   7.761  20.781   1.811
47172W        W19432  40.432  16.273  12.006
47173W        W19433  41.480  40.107   4.712
47174W        W19434  35.753  15.132  13.643
47175W        W19435  38.453  35.043   1.023
47176W        W19436  12.544  30.695  13.926
47177W        W19437  34.567  18.589   4.163
47178W        W19438  21.593  43.243  11.174
47179W        W19439   2.705   4.886   3.604
47180W        W19440  32.174  17.094  12.387
47181W        W19441   5.436  37.981   2.861
47182W        W19442  29.869  31.366  13.301
47183W        W19443  43.431   6.719   0.763
47184W        W19444   5.978  10.210   0.492
47185W        W19445  20.799   0.935   1.349
47186W        W19446  39.324  15.636   4.539
47187W        W19447  21.213  16.306  11.096
47188W        W19448  40.049   2.956  12.041
47189W        W19449  39.893  25.035  13.074
47190W        W19450  27.499  19.464   4.629
47191W        W19451  37.546  42.389   3.327
47192W        W19452  22.155  21.113  10.111
47193W        W19453   7.238  35.069  13.876
47194W        W19454  28.529  22.780  12.486
47195W        W19455  38.764   7.927  12.597
47196W        W19456  35.008  21.519  10.492
47197W        W19457  44.681  36.174  14.358
47198W        W19458  32.631  41.359  11.255
47199W        W19459   6.926  27.979  13.426
47200W        W19460  16.258  17.512   0.627
47201W        W19461   0.379  33.544  10.959
47202W        W19462  23.958  21.071   0.191
47203W        W19463  43.090  24.091   2.788
47204W        W19464  29.656  44.004  10.730
47205W        W19465  39.080  22.076  13.314
47206W        W19466  36.000  26.654   4.882
47207W        W19467  42.374  12.066  13.129
47208W        W19468  15.035  17.006  11.116
47209W        W19469  11.243   0.072   0.448
47210W        W19470  19.219  39.536  12.962
47211W        W19471  38.039  17.159   4.159
47212W        W19472   2.243  22.642  14.946
47213W        W19473  12.837  23.684  14.215
47214W        W19474  19.642  33.707   4.025
47215W        W19475  20.324  41.350   4.196
47216W        W19476  39.455   2.695   3.747
47217W        W19477  35.129  33.712   4.161
47218W        W19478  42.984  43.425   3.388
47219W        W19479  21.795   4.712   3.160
47220W        W19480  10.046  27.512   4.671
47221W        W19481  16.423  43.364   2.878
47222W        W19482  21.676  43.035   1.695
47223W        W19483   7.901  13.671   2.251
47224W        W19484  18.478   3.296  14.994
47225W        W19485  39.027  36.150   4.230
47226W        W19486   2.118  33.503   3.300
47227W        W19487  16.033  40.882   0.323
47228W        W19488  15.544  41.234  12.448
47229W        W19489  27.320  18.196  11.866
47230W        W19490  42.045   2.424  11.427
47231W        W19491   7.974  22.194  10.961
47232W        W19492   9.127  29.162  11.934
47233W        W19493  27.965   6.610  14.770
47234W        W19494   0.242  18.289   2.940
47235W        W19495   1.157  37.464  10.478
47236W        W19496  34.100  11.377  11.005
47237W        W19497  34.052  26.474  13.543
47238W        W19498  20.556  29.061  10.700
47239W        W19499   6.086   3.862  14.570
47240W        W19500  17.575   4.701  12.916
47241W        W19501  10.856  15.451   2.947
47242W        W19502   7.931  14.919   3.772
47243W        W19503  35.166  18.624   9.913
47244W        W19504  24.888  30.996   0.965
47245W        W19505  25.028  43.017   1.292
47246W        W19506   4.683  35.857   2.595
47247W        W19507   0.803  22.393   3.705
47248W        W19508  35.356  14.714   2.873
47249W        W19509  13.362  30.929   1.414
47250W        W19510  18.112  37.907  14.353
47251W        W19511   6.507  37.531   3.049
47252W        W19512  26.208  17.115  12.925
47253W        W19513  30.409   3.311  12.636
47254W        W19514  29.159   0.124  14.041
47255W        W19515  31.572  23.453  13.820
47256W        W19516   7.369  39.570  14.356
47257W        W19517  31.537  19.226   4.345
47258W        W19518  26.715  16.465  12.018
47259W        W19519  16.605  40.923  11.431
47260W        W19520  23.002  26.224   3.709
47261W        W19521  22.665   5.871   3.255
47262W        W19522   3.318  37.323  13.256
47263W        W19523   0.495  12.796   2.667
47264W        W19524  33.446  30.046   3.168
47265W        W19525   8.687  28.368   3.989
47266W        W19526  19.981   6.812   4.954
47267W        W19527  29.608  25.183  11.042
47268W        W19528  33.329  19.040   5.119
47269W        W19529  26.755  42.330  11.590
47270W        W19530  41.642  21.496  12.444
47271W        W19531  34.629  23.168  14.501
47272W        W19532  18.304  32.945   0.126
47273W        W19533  19.274  11.846   4.154
47274W        W19534  34.430   7.328  10.701
47275W        W19535  10.920  13.028   2.838
47276W        W19536  22.599  38.378   3.652
47277W        W19537  33.092  26.535  13.035
47278W        W19538   1.248   8.308   3.655
47279W        W19539  40.737  38.572   2.121
47280W        W19540  27.584  37.826   4.842
47281W        W19541  20.201   7.098   4.569
47282W        W19542   3.234  20.646   4.025
47283W        W19543  38.988  43.917  13.513
47284W        W19544  43.324  40.905   2.919
47285W        W19545   4.510  27.030  13.335
47286W        W19546   7.716   6.036  14.066
47287W        W19547  38.253  23.196  11.111
47288W        W19548   6.572  23.971  14.427
47289W        W19549  36.603   6.235  13.410
47290W        W19550  20.524  25.040   0.316
47291W        W19551   5.292  42.699   4.159
47292W        W19552  29.235  26.035  14.293
47293W        W19553  26.460  20.761   4.608
47294W        W19554   9.356  34.033  14.397
47295W        W19555  26.978  32.819  12.120
47296W        W19556   3.932  20.032  14.675
47297W        W19557  11.763  30.684   4.290
47298W        W19558   1.733  16.547  13.518
47299W        W19559  22.988  29.427  11.538
47300W        W19560  24.505  10.775  12.397
47301W        W19561  42.035  19.756  13.184
47302W        W19562  13.834   8.820   3.590
47303W        W19563   8.913  14.784   0.380
47304W        W19564  34.475  27.128  12.039
47305W        W19565   6.822  35.021   4.582
47306W        W19566  23.229  19.308   0.843
47307W        W19567  12.105  11.624   4.543
47308W        W19568  17.781  41.552   0.490
47309W        W19569  38.174  14.406  11.102
47310W        W19570  18.073  22.740   4.471
47311W        W19571   2.437  25.642  10.843
47312W        W19572  10.603  34.082  14.896
47313W        W19573  27.891  38.051   3.842
47314W        W19574  34.137  31.188  13.073
47315W        W19575  23.195  17.062  10.912
47316W        W19576  43.231  14.252  12.083
47317W        W19577   7.654  41.054   0.951
47318W        W19578  11.273  16.632  10.791
47319W        W19579  28.898  13.753   2.210
47320W        W19580   5.266  33.327   2.606
47321W        W19581  35.806  34.132   0.798
47322W        W19582  37.333  22.574   4.324
47323W        W19583  23.967   7.240  13.008
47324W        W19584  40.000   2.190  11.471
47325W        W19585   5.483  18.129   0.287
47326W        W19586  34.407   1.483  14.829
47327W        W19587  27.620  23.044   4.134
47328W        W19588  18.663  20.949   4.717
47329W        W19589   2.859  12.878  11.206
47330W        W19590  39.332  31.960   2.590
47331W        W19591  43.915   5.959  11.649
47332W        W19592  33.375  41.066   1.750
47333W        W19593  17.246  42.996   2.125
47334W        W19594  29.851  15.328  14.849
47335W        W19595  38.368  18.217   2.896
47336W        W19596   6.193  14.175   0.342
47337W        W19597  42.563  40.733  10.692
47338W        W19598  23.766  29.140  14.782
47339W        W19599  31.905  13.773   2.980
47340W        W19600   7.156  43.505   1.791
47341W        W19601  20.595   5.624   1.887
47342W        W19602  30.913  29.847   2.451
47343W        W19603  11.270  20.190  11.176
47344W        W19604  43.288   8.659  11.991
47345W        W19605  22.810  24.350  13.551
47346W        W19606  17.607  16.449  12.990
47347W        W19607  29.133  27.124  13.910
47348W        W19608  42.027  25.369  14.427
47349W        W19609  27.615  16.610  14.880
47350W        W19610  14.994  10.695   4.158
47351W        W19611  32.829  26.188   1.481
47352W        W19612  27.086  34.358   2.838
47353W        W19613   1.134  29.606  12.653
47354W        W19614  30.978  32.460  12.665
47355W        W19615   4.683  24.353   1.840
47356W        W19616   7.225  19.845  11.547
47357W        W19617  39.204   6.969  12.755
47358W        W19618   1.322  42.592  13.529
47359W        W19619  30.244  42.488  14.366
47360W        W19620  14.953  15.544  14.927
47361W        W19621  30.614  13.840  13.894
47362W        W19622  26.218  38.018  13.342
47363W        W19623   8.683  35.895  11.348
47364W        W19624  12.939  10.815  12.292
47365W        W19625  42.382  26.660  14.368
47366W        W19626   2.419  29.046  10.013
47367W        W19627  19.495  39.421  12.530
47368W        W19628   6.677  20.160  12.179
47369W        W19629   1.827  44.379   0.032
47370W        W19630  22.058   1.800   4.614
47371W        W19631  11.246   0.470  10.606
47372W        W19632   7.778  10.683   0.416
47373W        W19633  43.605  13.470   4.486
47374W        W19634   0.734  14.657   2.739
47375W        W19635   4.788  25.109  11.588
47376W        W19636   5.854  26.206  12.003
47377W        W19637  27.373  18.185  11.347
47378W        W19638  35.003  18.794   1.234
47379W        W19639  32.387   4.927   1.256
47380W        W19640  41.013  19.590   1.979
47381W        W19641  33.205  31.958   3.757
47382W        W19642  17.785  28.205   4.493
47383W        W19643  13.547  29.959  11.192
47384W        W19644  30.160  34.602   4.262
47385W        W19645   3.031  37.497  12.866
47386W        W19646  22.091  37.054   2.181
47387W        W19647  42.721  29.124  12.921
47388W        W19648  25.759  39.417  12.006
47389W        W19649   7.078  15.317   0.934
47390W        W19650  35.494  18.699   5.853
47391W        W19651   0.819  21.298   1.851
47392W        W19652  39.746  15.478   3.150
47393W        W19653  41.359  25.467  11.594
47394W        W19654  33.667  38.782  12.339
47395W        W19655  38.507  34.130   1.200
47396W        W19656  21.780  29.468   4.251
47397W        W19657  25.004  21.884   4.724
47398W        W19658  25.993  32.461  14.725
47399W        W19659  36.961  16.158  12.509
47400W        W19660  20.598   0.234   1.840
47401W        W19661  40.049  29.673   4.152
47402W        W19662  33.168  13.131   1.429
47403W        W19663  27.036  28.141  12.709
47404W        W19664   5.392  26.453   2.160
47405W        W19665   2.256  29.769   4.063
47406W        W19666  37.395  42.309  14.765
47407W        W19667  31.086  23.267  12.334
47408W        W19668  12.324  33.018  11.483
47409W        W19669  30.666  40.222   4.960
47410W        W19670  44.817  23.646  10.674
47411W        W19671  24.319  11.034   3.627
47412W        W19672  25.191  34.502   4.524
47413W        W19673  28.251  30.647  12.944
47414W        W19674  27.668  15.273   4.952
47415W        W19675  44.796  11.904   1.721
47416W        W19676  27.516   5.077  12.156
47417W        W19677  38.855  42.055   2.185
47418W        W19678  13.908  44.422  11.335
47419W        W19679   1.887  39.563   1.496
47420W        W19680  38.125  40.317   4.402
47421W        W19681  14.371   8.736  13.588
47422W        W19682   0.858  36.339  13.951
47423W        W19683  42.814  28.613   3.143
47424W        W19684  13.000  23.564  13.728
47425W        W19685   5.495   0.196   0.499
47426W        W19686  37.392  13.782   1.454
47427W        W19687  18.048  40.959   4.079
47428W        W19688  40.197  32.594  10.721
47429W        W19689  31.022   2.690   2.053
47430W        W19690   3.228  10.167  11.922
47431W        W19691  14.227  21.189   0.268
47432W        W19692   1.246   1.308  14.905
47433W        W19693  12.242  43.967   4.642
47434W        W19694  14.386   8.371   3.123
47435W        W19695  11.655  10.256   3.235
47436W        W19696  12.222   1.909   1.402
47437W        W19697  14.202  13.728  10.574
47438W        W19698  17.835  28.870   1.835
47439W        W19699  14.270   8.926   2.213
47440W        W19700  30.156  29.881   1.475
47441W        W19701  18.566  34.660  14.452
47442W        W19702  11.407  36.844  14.484
47443W        W19703  12.185  14.931   2.833
47444W        W19704  24.493   6.963   3.695
47445W        W19705  19.591  44.248   3.953
47446W        W19706  30.068  13.669   0.867
47447W        W19707  32.936  15.489  11.562
47448W        W19708  19.940  11.389  14.801
47449W        W19709   3.220  25.506   3.666
47450W        W19710  33.893  18.443   0.386
47451W        W19711  44.896   9.465   0.319
47452W        W19712  25.572  22.981   2.208
47453W        W19713  26.646  32.372   1.016
47454W        W19714  43.522  33.043   4.669
47455W        W19715   1.196  30.597   2.798
47456W        W19716  30.015  38.609   3.361
47457W        W19717   4.191  37.339   0.976
47458W        W19718   4.395  18.384   4.100
47459W        W19719  30.661  40.174  12.601
47460W        W19720  37.415  40.379   0.367
47461W        W19721   0.113  22.012  11.751
47462W        W19722  41.911  18.099  11.529
47463W        W19723   8.839   2.733   2.291
47464W        W19724  31.200  19.005  11.451
47465W        W19725  36.977  31.657   4.057
47466W        W19726  23.492  43.930  11.717
47467W        W19727  28.646   6.345   1.108
47468W        W19728  27.257  12.910   0.458
47469W        W19729  17.834  27.031  14.835
47470W        W19730  31.012   3.206   1.967
47471W        W19731  28.016  38.394   0.684
47472W        W19732  27.204  39.320  10.642
47473W        W19733  30.821  30.096   3.665
47474W        W19734  21.461  42.949   0.322
47475W        W19735  43.516  11.494  10.486
47476W        W19736  43.860   2.119   2.223
47477W        W19737  27.571  11.178   3.687
47478W        W19738  38.641  26.400  12.599
47479W        W19739  10.792  29.626   1.626
47480W        W19740  24.710  17.486  12.091
47481W        W19741  10.607  43.382   3.127
47482W        W19742   0.806  17.724   3.290
47483W        W19743  22.189   4.342   3.760
47484W        W19744  36.569   3.005   3.789
47485W        W19745  14.859  30.463   0.348
47486W        W19746   6.023  36.441   3.626
47487W        W19747  25.454  41.283   4.319
47488W        W19748  27.873   4.957  14.228
47489W        W19749   8.941  14.876  14.481
47490W        W19750  26.803   7.592   2.589
47491W        W19751  38.499  42.939   2.935
47492W        W19752  37.434   6.890   1.795
47493W        W19753  22.673   4.314   4.304
47494W        W19754   5.430  10.813   1.013
47495W        W19755  21.760  40.033  13.617
47496W        W19756  38.181  11.335   1.899
47497W        W19757   7.349  42.780   1.161
47498W        W19758   3.429  12.190   4.447
47499W        W19759  13.661  13.183  12.007
47500W        W19760   0.687  22.688   0.848
47501W        W19761  41.694  29.009  14.415
47502W        W19762  17.172   4.756  14.267
47503W        W19763  21.688  41.911  13.632
47504W        W19764   7.675  43.548   3.335
47505W        W19765  29.724  23.280  12.599
47506W        W19766  17.862  32.996   3.299
47507W        W19767  44.454  37.803  12.946
47508W        W19768  20.575  16.230  13.429
47509W        W19769   7.474  10.787   2.348
47510W        W19770  34.056  41.345  14.118
47511W        W19771  34.520  17.500   0.443
47512W        W19772  25.277   5.590  13.480
47513W        W19773   5.302   1.530  11.536
47514W        W19774  29.985  38.544   1.899
47515W        W19775  17.091  10.026   4.085
47516W        W19776   7.560  18.657   1.001
47517W        W19777   2.611  19.675   0.439
47518W        W19778   4.483  32.129  12.116
47519W        W19779   8.931  20.162   2.861
47520W        W19780  41.097   1.276  13.951
47521W        W19781   0.480   1.433  11.121
47522W        W19782  25.506  34.799   2.365
47523W        W19783  34.479  19.703  12.666
47524W        W19784  14.868  20.952   3.707
47525W        W19785   4.718  39.649   3.494
47526W        W19786  30.095  13.836  13.637
47527W        W19787  20.749   6.263  10.220
47528W        W19788   0.269   6.761   4.294
47529W        W19789  37.987  34.704   3.650
47530W        W19790  35.618  23.715   1.802
47531W        W19791  10.418   5.333  12.472
47532W        W19792  14.209  29.438  14.296
47533W        W19793  31.894  22.474   2.604
47534W        W19794   9.664   2.036  11.297
47535W        W19795   3.731  39.873   0.239
47536W        W19796  28.620   1.178  14.274
47537W        W19797   5.957  26.092   4.746
47538W        W19798  35.982  24.320  12.218
47539W        W19799   5.460  17.255  12.802
47540W        W19800  34.876  41.593  13.324
47541W        W19801  13.244  18.961  14.743
47542W        W19802  39.331  35.289  10.818
47543W        W19803  26.429  24.223   3.210
47544W        W19804  13.074   9.713  14.976
47545W        W19805  14.942  30.884   2.906
47546W        W19806  26.545   6.247  10.790
47547W        W19807  38.806   6.945  10.260
47548W        W19808  41.049  30.697   3.810
47549W        W19809  19.535   0.422   0.410
47550W        W19810  33.907  39.674  14.907
47551W        W19811  39.320  20.071   1.431
47552W        W19812  29.573   1.291  14.837
47553W        W19813  22.525  25.753   5.476
47554W        W19814  11.436  22.521   0.170
47555W        W19815  22.720  34.007   1.437
47556W        W19816   0.484  24.698   0.937
47557W        W19817  16.254  26.913  14.481
47558W        W19818  41.130   8.074   3.769
47559W        W19819  24.485  40.416   2.418
47560W        W19820  18.271  37.974   1.413
47561W        W19821  36.027  38.422  13.105
47562W        W19822  11.752  44.134  11.501
47563W        W19823   0.042   0.999  11.900
47564W        W19824  19.176  20.489   2.749
47565W        W19825  29.635  29.106  13.473
47566W        W19826   4.882   3.618   4.861
47567W        W19827   6.007   5.981   0.904
47568W        W19828  15.101  19.238   4.917
47569W        W19829  10.875   7.295  12.142
47570W        W19830   3.003  27.186  10.726
47571W        W19831  19.338  26.010  14.395
47572W        W19832   9.238  44.872  10.898
47573W        W19833   9.886  13.081   2.874
47574W        W19834  33.624  42.327  14.713
47575W        W19835  13.457  35.124   2.414
47576W        W19836  23.739   5.308   1.422
47577W        W19837  27.253   5.398   0.857
47578W        W19838  10.412  10.871   1.589
47579W        W19839  11.765  34.367  13.881
47580W        W19840   6.630  12.538   2.958
47581W        W19841  18.108  10.618  12.760
47582W        W19842  25.714   3.759  11.916
47583W        W19843  35.143   5.426   3.679
47584W        W19844  22.770  22.128   2.901
47585W        W19845   5.098   8.894   3.361
47586W        W19846  17.683  10.881   0.422
47587W        W19847  31.881  35.889  14.924
47588W        W19848  44.410   1.811   2.859
47589W        W19849  18.293  14.220  11.989
47590W        W19850  44.198  42.903  13.818
47591W        W19851  29.364   1.381   5.040
47592W        W19852   2.967  33.835  11.162
47593W        W19853  19.190  19.665   4.314
47594W        W19854   7.798  29.706  11.534
47595W        W19855  11.300  33.979  13.397
47596W        W19856  28.377  39.239  14.931
47597W        W19857   6.008  41.008  13.183
47598W        W19858  24.857  34.888  14.416
47599W        W19859  30.338  27.681   0.248
47600W        W19860  11.226  35.738  10.713
47601W        W19861  29.162  14.923   1.241
47602W        W19862  12.094  37.893  10.710
47603W        W19863  10.317  24.438  14.121
47604W        W19864   4.782  34.068   0.634
47605W        W19865  26.147  28.657   0.294
47606W        W19866  28.439   0.461  14.914
47607W        W19867  27.338  17.741  12.132
47608W        W19868  34.509  19.404  14.011
47609W        W19869  41.582  36.065  11.461
47610W        W19870  39.733  19.325   1.431
47611W        W19871   9.661  21.571  14.912
47612W        W19872  10.910  12.327  11.564
47613W        W19873  18.862  18.976   2.332
47614W        W19874  26.947  36.877   3.653
47615W        W19875  39.318   8.161   2.742
47616W        W19876  36.073  19.326  10.999
47617W        W19877  25.144  34.440  13.550
47618W        W19878  14.629  20.688  11.234
47619W        W19879  15.050  27.534   1.419
47620W        W19880  39.094  38.391   3.327
47621W        W19881  30.588  39.201  12.964
47622W        W19882   5.877  19.644   4.501
47623W        W19883   1.822  13.874  12.946
47624W        W19884  44.468   0.721  12.623
47625W        W19885  31.409  38.937   1.869
47626W        W19886  35.578  31.727  13.796
47627W        W19887  32.384  32.480  12.787
47628W        W19888  11.918  43.336  11.108
47629W        W19889  40.707  21.157  14.005
47630W        W19890  43.081  17.584  14.737
47631W        W19891   7.225   2.950  12.962
47632W        W19892  16.228  36.062   0.885
47633W        W19893  25.547  22.764   4.733
47634W        W19894   7.234  31.578  12.128
47635W        W19895  28.584   9.584  11.073
47636W        W19896  36.269  33.832   0.781
47637W        W19897  22.252   4.313  10.480
47638W        W19898  41.942  27.668   4.127
47639W        W19899  28.050  42.107  11.522
47640W        W19900  19.268  21.505   2.899
47641W        W19901  33.904  16.288   3.750
47642W        W19902  29.891  15.650  10.453
47643W        W19903  28.158  16.669  11.527
47644W        W19904  36.628  15.295   1.844
47645W        W19905  25.410  19.494   0.148
47646W        W19906  40.573   6.225  13.277
47647W        W19907  16.202  34.093  13.037
47648W        W19908  18.702  39.396   3.589
47649W        W19909  18.265  39.456   0.829
47650W        W19910  12.048  17.674  11.914
47651W        W19911   4.367  33.229   3.167
47652W        W19912   6.218  17.186   1.569
47653W        W19913  43.324  41.948  12.042
47654W        W19914   1.694   6.962  12.987
47655W        W19915   0.928  17.675   1.880
47656W        W19916   0.495  23.973  13.551
47657W        W19917  15.637  12.550  13.937
47658W        W19918  43.004   2.564   5.018
47659W        W19919  18.561  32.024   3.863
47660W        W19920  42.555  11.138  11.492
47661W        W19921   4.664  10.441  11.982
47662W        W19922  35.134  35.687   0.937
47663W        W19923   0.366  20.030  10.646
47664W        W19924  25.050   9.342  12.998
47665W        W19925  37.632  39.461   3.556
47666W        W19926  17.267  28.581  14.123
47667W        W19927  33.511  43.988   1.595
47668W        W19928   4.531  17.070   3.325
47669W        W19929  20.228  41.978  13.378
47670W        W19930   7.097  37.611  11.020
47671W        W19931  37.684  29.740   3.658
47672W        W19932   3.410  14.246   2.486
47673W        W19933  27.477  32.605   4.058
47674W        W19934  43.999  15.855   0.961
47675W        W19935  38.524  23.988  14.817
47676W        W19936  15.774  39.096   2.327
47677W        W19937  18.616   8.316  10.758
47678W        W19938   2.525  21.401   1.920
47679W        W19939  39.826  19.993   3.896
47680W        W19940  26.518  33.423   1.370
47681W        W19941  25.621  33.049  11.878
47682W        W19942  19.106  40.118   3.142
47683W        W19943  15.557  21.750   2.323
47684W        W19944   2.311  35.169  13.770
47685W        W19945  43.726  30.506   2.316
47686W        W19946  13.145  38.886   1.701
47687W        W19947  15.726  28.957   4.746
47688W        W19948  11.143   7.319   2.963
47689W        W19949  23.053  41.458   1.218
47690W        W19950  19.122   8.827  12.439
47691W        W19951  34.990   5.212  14.732
47692W        W19952  15.292   2.465  11.115
47693W        W19953  27.633  34.441   4.942
47694W        W19954   4.885  25.283   0.249
47695W        W19955  41.335  21.424   0.461
47696W        W19956  13.562  25.248  12.528
47697W        W19957  28.795  20.278  12.993
47698W        W19958  16.769  17.744  13.482
47699W        W19959   0.232  15.263  13.403
47700W        W19960   3.387  39.354  11.046
47701W        W19961  14.403  13.616  14.456
47702W        W19962  35.304  37.867   2.452
47703W        W19963  43.957  28.024  12.121
47704W        W19964  27.735  39.700   4.643
47705W        W19965  19.127  19.193  12.064
47706W        W19966  39.738  15.172   3.925
47707W        W19967  15.404  25.675  11.161
47708W        W19968   8.061   5.929   3.673
47709W        W19969  32.548  38.082  12.937
47710W        W19970  11.127  32.291   5.011
47711W        W19971  35.346   4.522   0.983
47712W        W19972  33.111  10.194   0.357
47713W        W19973  43.863  44.395  12.783
47714W        W19974  36.053  20.527  12.910
47715W        W19975  41.520  34.142  12.356
47716W        W19976  21.275  20.047   3.613
47717W        W19977   9.871  25.909  14.641
47718W        W19978   0.279   5.691   0.461
47719W        W19979  36.439   6.469  12.951
47720W        W19980  29.120  16.619   2.890
47721W        W19981  31.018   8.541   9.978
47722W        W19982   7.354  43.556  12.280
47723W        W19983  26.428  14.383   1.835
47724W        W19984  11.547  22.708  11.072
47725W        W19985   6.420  20.051  14.358
47726W        W19986  29.915  28.487   4.483
47727W        W19987  23.732  31.946  13.081
47728W        W19988  20.169  44.235  12.496
47729W        W19989  39.172   6.424   1.100
47730W        W19990  23.118   7.471   1.894
47731W        W19991  21.041  39.197  12.889
47732W        W19992  19.530  44.352  14.325
47733W        W19993  36.034  22.464   0.309
47734W        W19994   8.588  44.457  11.577
47735W        W19995  41.960  24.330   0.032
47736W        W19996  41.259  13.776   4.224
47737W        W19997  30.386  22.708  11.579
47738W        W19998  39.462  41.108  14.410
47739W        W19999  29.189   2.376   4.527
47740W        W20000  21.515  36.488  13.582
47741W        W20001  34.115  42.431   1.995
47742W        W20002  35.804  37.324  10.707
47743W        W20003   9.672  12.367  12.080
47744W        W20004  44.061  38.152  11.226
47745W        W20005  11.621   6.162   2.671
47746W        W20006  28.265  27.368  12.626
47747W        W20007  26.184  36.513   4.259
47748W        W20008  23.367   3.726  12.600
47749W        W20009   1.648   8.952   4.977
47750W        W20010  20.538  22.161   2.331
47751W        W20011  20.777  40.277  14.545
47752W        W20012  15.130  12.872  11.951
47753W        W20013   7.721  35.990  11.546
47754W        W20014  17.527  25.579   4.936
47755W        W20015   8.966  39.933  14.295
47756W        W20016  16.079  19.286   1.412
47757W        W20017  23.121  31.959  11.528
47758W        W20018  31.992  42.602  10.644
47759W        W20019  43.497  33.698   0.011
47760W        W20020  15.796  22.185  13.261
47761W        W20021  13.406   3.495   0.535
47762W        W20022  32.840  35.394  11.065
47763W        W20023  31.478   6.929   3.813
47764W        W20024   8.885   9.282   2.090
47765W        W20025  26.187  24.506  13.789
47766W        W20026   4.667  41.319  12.000
47767W        W20027  19.217  24.046  14.023
47768W        W20028  31.174  32.979   3.463
47769W        W20029   1.704  38.216   1.705
47770W        W20030  11.591  35.268  11.551
47771W        W20031  14.612  27.100  11.424
47772W        W20032   6.893  40.927  14.495
47773W        W20033  24.695  44.679  11.926
47774W        W20034  11.578  20.163  11.580
47775W        W20035  17.032  12.679  13.983
47776W        W20036   5.774  42.780  14.402
47777W        W20037  37.497  19.855  12.004
47778W        W20038  32.899  44.598  13.424
47779W        W20039  21.692   5.187  14.519
47780W        W20040  32.159  20.082  13.017
47781W        W20041   8.840  33.121   1.536
47782W        W20042  13.587  43.787  13.561
47783W        W20043  35.338  21.470   3.402
47784W        W20044   6.335  30.356  14.673
47785W        W20045  20.740  40.553   0.862
47786W        W20046  13.076  26.610  12.157
47787W        W20047   4.930  38.039  14.166
47788W        W20048  25.568  36.978  12.469
47789W        W20049  15.673  28.523   5.467
47790W        W20050  12.124  32.662   3.475
47791W        W20051  37.823  32.297   0.849
47792W        W20052  10.210   1.335  12.859
47793W        W20053  43.055  33.535  14.821
47794W        W20054  19.843  30.061  12.115
47795W        W20055  40.481  26.715  13.546
47796W        W20056   1.003  13.040  11.383
47797W        W20057  11.800  18.246   3.758
47798W        W20058   8.254  31.692  13.832
47799W        W20059  41.549  42.050   0.806
47800W        W20060   9.805  22.354   1.721
47801W        W20061  25.444   4.186  12.105
47802W        W20062  14.087   4.170  13.843
47803W        W20063  36.449  21.135   4.558
47804W        W20064   1.288   5.829   3.588
47805W        W20065   4.474  12.330  12.027
47806W        W20066  17.628   8.273  10.632
47807W        W20067  29.526  15.359  10.726
47808W        W20068  21.784  40.306   0.916
47809W        W20069  32.900  23.166  11.936
47810W        W20070   5.439  20.031   2.252
47811W        W20071   6.329  28.941  13.945
47812W        W20072  25.395  27.465  10.499
47813W        W20073  13.183  30.006   0.036
47814W        W20074  33.509  36.802  12.363
47815W        W20075  36.310   9.170   1.747
47816W        W20076  30.161  30.452   0.042
47817W        W20077  25.222  21.198  14.496
47818W        W20078  23.685   9.349  13.347
47819W        W20079  43.944   3.412   1.069
47820W        W20080  21.162  21.761   1.791
47821W        W20081  25.268  21.188  11.287
47822W        W20082  21.371  34.114   3.433
47823W        W20083   3.221  21.167   0.927
47824W        W20084  18.821  27.244   3.749
47825W        W20085  15.973  28.610  14.745
47826W        W20086   8.297  17.002  10.547
47827W        W20087   8.357  34.434  10.564
47828W        W20088  20.510  26.355   5.046
47829W        W20089  30.314  15.746  14.548
47830W        W20090  40.551  28.384   1.194
47831W        W20091  15.253   6.420   4.265
47832W        W20092  40.311   0.224   3.721
47833W        W20093  19.934   2.270   0.288
47834W        W20094   7.670  12.070  10.750
47835W        W20095  21.628  32.600   2.474
47836W        W20096  31.381   5.681  13.814
47837W        W20097  25.325  40.597   2.748
47838W        W20098   9.390  37.018   2.826
47839W        W20099  44.894  20.083   2.283
47840W        W20100  42.237  21.047   3.681
47841W        W20101  42.940   7.286  13.550
47842W        W20102  20.740  18.155  11.057
47843W        W20103  38.665  25.864   2.833
47844W        W20104  10.056  26.601   2.193
47845W        W20105  38.825  20.308   4.598
47846W        W20106  40.803  32.244   0.085
47847W        W20107  42.057  18.397  11.923
47848W        W20108  10.782  37.925   0.273
47849W        W20109  33.958   0.404  12.377
47850W        W20110  41.996   0.930   1.417
47851W        W20111  37.107  26.081   0.963
47852W        W20112  25.432  18.187  12.513
47853W        W20113  10.737   0.163   2.825
47854W        W20114  27.706  42.411  11.226
47855W        W20115  44.990  11.771   0.937
47856W        W20116   5.222  17.538   4.842
47857W        W20117  16.366  12.118  12.214
47858W        W20118   0.062  27.558  11.192
47859W        W20119  22.531  10.902   3.828
47860W        W20120  23.707  14.890  12.525
47861W        W20121  30.603  31.926  11.552
47862W        W20122  29.440  17.276   0.776
47863W        W20123  27.646  19.552   1.339
47864W        W20124  12.361  40.769   3.067
47865W        W20125  37.581   1.981   4.154
47866W        W20126  39.777  17.387  13.030
47867W        W20127   5.850  36.539  10.867
47868W        W20128  41.644  44.672  13.416
47869W        W20129  32.868   2.857   0.868
47870W        W20130   8.724  24.692  14.326
47871W        W20131  35.903  38.089   1.124
47872W        W20132  18.614  23.969   1.214
47873W        W20133  11.622   5.468   3.153
47874W        W20134  29.688  19.152   1.471
47875W        W20135  27.991  20.987  14.510
47876W        W20136   7.775  37.636  11.857
47877W        W20137   3.095   6.572   1.692
47878W        W20138  22.563  13.967  12.018
47879W        W20139  22.076  26.204  10.145
47880W        W20140   3.498  36.604   1.263
47881W        W20141  32.159  18.655   1.734
47882W        W20142  44.507  39.035   3.187
47883W        W20143  25.159  28.433   0.188
47884W        W20144  12.501  29.519   5.566
47885W        W20145   0.342   5.937  10.906
47886W        W20146  19.198  19.829  14.296
47887W        W20147  32.521  34.491   4.588
47888W        W20148  40.118  11.959   1.182
47889W        W20149  12.684   9.855  13.665
47890W        W20150  20.044   7.593  12.027
47891W        W20151  25.566  14.656  10.665
47892W        W20152  20.623  27.705   0.277
47893W        W20153  39.458  15.621  10.721
47894W        W20154  36.060  18.610  11.997
47895W        W20155  22.156  21.796   1.219
47896W        W20156   0.401  17.588   1.035
47897W        W20157  28.953  23.204   1.812
47898W        W20158   7.397  38.618   3.486
47899W        W20159   8.159  17.118   3.814
47900W        W20160  23.577   1.671   4.915
47901W        W20161  43.612   8.774   1.210
47902W        W20162  34.842  14.997  13.158
47903W        W20163  10.577   8.863  11.820
47904W        W20164  26.499  32.349   2.407
47905W        W20165  27.235  33.375  11.533
47906W        W20166  25.251  34.015   4.171
47907W        W20167  19.981   6.662  10.238
47908W        W20168  33.521  41.477   4.367
47909W        W20169  41.024  39.826  12.530
47910W        W20170   2.187  43.946  11.923
47911W        W20171  14.563   9.181   0.132
47912W        W20172  33.617  28.725  10.746
47913W        W20173  28.795   7.212  13.212
47914W        W20174  19.538   0.212  11.899
47915W        W20175  15.566  26.516   3.188
47916W        W20176  10.186  39.398   2.897
47917W        W20177   0.240   6.757   3.061
47918W        W20178  35.573  13.221  14.269
47919W        W20179   8.625  19.577   4.041
47920W        W20180  12.839  41.508  13.574
47921W        W20181   4.920  22.809  10.554
47922W        W20182  39.866  37.023  14.373
47923W        W20183  21.477  43.227  14.860
47924W        W20184  38.883  15.578  11.010
47925W        W20185  12.873  29.668  12.469
47926W        W20186  33.347  44.530   0.422
47927W        W20187  43.410  32.632  12.901
47928W        W20188  15.632  40.947   1.262
47929W        W20189   0.175   6.765  12.429
47930W        W20190  25.917  43.062  14.274
47931W        W20191  36.642  43.276   0.621
47932W        W20192  23.744  21.507  13.996
47933W        W20193  11.764   1.777   3.520
47934W        W20194  15.368   3.675  14.330
47935W        W20195  18.783   7.251   3.102
47936W        W20196  38.622  32.403  12.829
47937W        W20197  44.880  30.152   3.237
47938W        W20198  35.895  37.583   4.156
47939W        W20199  20.032  25.837   2.743
47940W        W20200   4.296  10.600   1.178
47941W        W20201  29.887   2.377  11.136
47942W        W20202  25.291   4.660  14.076
47943W        W20203  33.119  36.804  10.454
47944W        W20204   7.841  24.205  14.262
47945W        W20205  17.608  19.303  13.489
47946W        W20206  33.028  33.394  13.101
47947W        W20207  37.860   9.763   3.657
47948W        W20208  40.263   6.421  12.855
47949W        W20209   2.163  44.138   3.617
47950W        W20210  39.855   8.970   3.593
47951W        W20211  35.491  38.235   4.188
47952W        W20212   0.336  43.993   2.375
47953W        W20213  10.228  29.160   4.604
47954W        W20214   0.272  32.842   2.820
47955W        W20215  14.262  25.600   0.414
47956W        W20216   0.990   5.636  14.939
47957W        W20217  24.132  22.271  10.732
47958W        W20218  36.985  16.694  13.275
47959W        W20219  39.481  22.094   0.898
47960W        W20220  34.817  22.806   3.279
47961W        W20221   1.777  24.198  13.537
47962W        W20222  28.505  21.877  11.107
47963W        W20223  14.676  22.805   1.301
47964W        W20224  15.676   9.829   4.948
47965W        W20225  15.381   6.617   5.122
47966W        W20226   6.269  19.189   2.730
47967W        W20227  35.974  40.904  12.374
47968W        W20228  37.357  13.034   4.157
47969W        W20229  32.587  12.630  13.583
47970W        W20230  25.130  15.741   1.873
47971W        W20231  38.858  37.342   5.022
47972W        W20232   1.904  27.191  12.094
47973W        W20233  36.850  23.203  11.006
47974W        W20234  35.661  40.517  13.563
47975W        W20235  25.087  16.222  11.197
47976W        W20236  25.198  35.435  11.543
47977W        W20237  32.932  30.138   1.756
47978W        W20238  36.352  34.506   1.443
47979W        W20239  21.249  33.141   1.713
47980W        W20240  11.092   0.840  14.329
47981W        W20241  11.712  15.771   3.137
47982W        W20242  44.761  39.693  12.373
47983W        W20243  20.081  22.022  13.418
47984W        W20244   3.937  25.560  14.955
47985W        W20245   5.455   6.784   4.088
47986W        W20246  11.438   1.760  12.421
47987W        W20247  14.254  38.401   4.186
47988W        W20248  32.126  34.907  11.068
47989W        W20249   5.723  29.543   3.103
47990W        W20250  41.101  26.113   4.712
47991W        W20251  19.069  34.261   2.042
47992W        W20252   1.453  18.839  11.559
47993W        W20253  12.361   2.161   4.041
47994W        W20254  14.717  37.126   0.906
47995W        W20255  23.019  26.752   1.791
47996W        W20256  33.171   9.295   0.449
47997W        W20257  36.081  37.264  12.136
47998W        W20258  41.522  37.189   2.323
47999W        W20259  25.742  41.975   1.655
48000W        W20260  20.815  12.792  11.521
48001W        W20261  44.977  19.579   3.660
48002W        W20262  34.667  39.636   3.583
48003W        W20263  29.049  44.551   1.834
48004W        W20264   1.328  25.619   4.470
48005W        W20265   4.253  23.769   4.680
48006W        W20266  43.052  14.764  10.692
48007W        W20267  18.786   0.685  10.370
48008W        W20268  42.231  15.405  14.850
48009W        W20269   5.638   9.500  11.226
48010W        W20270  44.936  10.724   4.775
48011W        W20271  20.750  10.392  14.426
48012W        W20272   8.346  30.302   1.788
48013W        W20273  34.351  10.712   1.921
48014W        W20274  31.352  17.233   2.272
48015W        W20275  20.827  36.871  12.021
48016W        W20276  39.099  22.204   3.713
48017W        W20277  28.929  37.665   1.400
48018W        W20278  37.515  33.934  12.984
48019W        W20279  16.176  42.850   3.193
48020W        W20280   0.256   2.295   1.720
48021W        W20281  12.359  34.908   0.711
48022W        W20282   4.343  44.805   1.339
48023W        W20283  17.980  34.035   3.217
48024W        W20284   4.228   7.424  14.346
48025W        W20285   3.061  15.553  14.045
48026W        W20286  20.092  32.463   3.179
48027W        W20287  14.692  18.349   1.824
48028W        W20288  42.353  37.332   1.741
48029W        W20289  19.979   3.716  13.132
48030W        W20290  33.128  39.540   4.079
48031W        W20291  29.038  36.431  14.796
48032W        W20292  11.083  32.118   0.080
48033W        W20293  40.920   6.926   2.926
48034W        W20294  28.870  26.348  12.994
48035W        W20295  40.473  26.072  12.820
48036W        W20296  25.816   1.770   1.288
48037W        W20297  20.837  25.262  12.947
48038W        W20298   7.342   2.746  13.911
48039W        W20299   0.023  31.624  14.296
48040W        W20300  27.392   5.242   2.873
48041W        W20301  40.319  29.522   0.665
48042W        W20302  44.895  28.228  10.587
48043W        W20303  27.608   6.352   3.343
48044W        W20304  44.261  39.956  14.458
48045W        W20305  30.997   7.250   3.828
48046W        W20306  21.742  27.193  14.473
48047W        W20307   2.634  15.214   0.595
48048W        W20308  28.351   3.393   5.022
48049W        W20309  27.855  10.777   2.805
48050W        W20310  18.625  30.686   2.862
48051W        W20311  24.754  13.857   4.590
48052W        W20312  40.118  25.908   4.397
48053W        W20313   8.863  25.621   3.223
48054W        W20314   7.382  29.621  13.776
48055W        W20315   3.809  38.345  14.089
48056W        W20316   3.624  32.627   0.431
48057W        W20317   7.073  12.578  12.157
48058W        W20318   8.727  29.347   3.679
48059W        W20319  33.071  39.139   3.172
48060W        W20320  11.350  15.905   1.390
48061W        W20321  39.347  33.042  11.670
48062W        W20322  21.972  14.238   2.094
48063W        W20323  33.408  29.933  14.823
48064W        W20324  23.632  37.280   0.742
48065W        W20325  21.058  44.444   3.127
48066W        W20326  15.696   3.180  10.503
48067W        W20327  25.692  36.638   4.099
48068W        W20328  31.062  11.927   2.709
48069W        W20329  31.537  27.906   4.322
48070W        W20330   6.043   7.291  10.822
48071W        W20331  16.772  16.378  12.423
48072W        W20332   2.296  13.337  12.380
48073W        W20333  41.661   7.981  14.044
48074W        W20334  36.324  14.705   3.756
48075W        W20335  23.809  16.792   4.189
48076W        W20336   8.399  34.843   2.387
48077W        W20337  38.939   5.627   0.886
48078W        W20338  23.681   2.226   3.193
48079W        W20339  42.244  22.390   0.042
48080W        W20340  41.985  40.311  14.541
48081W        W20341  41.471  31.584   3.873
48082W        W20342  38.905  32.129   2.347
48083W        W20343  34.019  20.179  10.644
48084W        W20344  25.484  20.064   3.866
48085W        W20345  27.950  37.036  11.576
48086W        W20346   4.078   7.349  12.569
48087W        W20347  17.949  28.017   3.653
48088W        W20348  20.351  17.827  11.129
48089W        W20349  32.418  37.557   1.265
48090W        W20350  41.816  29.582   0.993
48091W        W20351  39.055   6.137   0.680
48092W        W20352  31.132  28.258   1.454
48093W        W20353  29.833  29.191  12.962
48094W        W20354  41.889  13.775   2.809
48095W        W20355   2.975   9.918  13.480
48096W        W20356   5.403  28.071  14.524
48097W        W20357  18.549  41.788   4.374
48098W        W20358  22.488  18.720   0.872
48099W        W20359  44.126   3.696  14.795
48100W        W20360  40.855  39.375   1.047
48101W        W20361  15.735  41.902   2.377
48102W        W20362  24.478  25.443  14.290
48103W        W20363  11.414  22.076   2.819
48104W        W20364  21.825  26.243   3.655
48105W        W20365   4.235   4.200   1.762
48106W        W20366  32.113  12.629  13.046
48107W        W20367  25.254   8.745   5.004
48108W        W20368  31.611  42.027  13.542
48109W        W20369   7.209  25.404  13.908
48110W        W20370  40.063  42.013   1.481
48111W        W20371  25.656  25.131  13.503
48112W        W20372  42.800   5.717   3.144
48113W        W20373  35.028  14.738  14.753
48114W        W20374  41.898  40.818   0.796
48115W        W20375  15.082  16.267   0.915
48116W        W20376  29.702  28.743   4.064
48117W        W20377  41.793   0.854   4.514
48118W        W20378  12.842  42.467  11.308
48119W        W20379  14.579   8.359  14.340
48120W        W20380  11.195  36.921   0.400
48121W        W20381  31.565  32.140   3.357
48122W        W20382  44.222  43.376   0.461
48123W        W20383  17.967  24.885   3.200
48124W        W20384   2.040   4.393  12.579
48125W        W20385   5.332  29.403   4.606
48126W        W20386  10.241  22.145   2.022
48127W        W20387   7.854  40.427  10.766
48128W        W20388  39.472  16.569  11.559
48129W        W20389  36.767  41.772  11.972
48130W        W20390   2.018  35.608   1.808
48131W        W20391   5.196  41.296  14.441
48132W        W20392  15.354  36.882  14.616
48133W        W20393  28.194  42.892  13.952
48134W        W20394   6.445  28.174   0.590
48135W        W20395  34.505   0.532  11.631
48136W        W20396  35.283  20.704   5.739
48137W        W20397   9.632  15.085   0.794
48138W        W20398  34.934  11.807   2.046
48139W        W20399   5.631  29.248  12.830
48140W        W20400  36.024  15.173  11.132
48141W        W20401  38.564  24.720  13.034
48142W        W20402   4.749  32.681  12.467
48143W        W20403  32.747  16.687   4.115
48144W        W20404   9.587  25.538   0.448
48145W        W20405  13.234  22.226   2.668
48146W        W20406  17.758  21.015  14.280
48147W        W20407   9.489  28.609   0.921
48148W        W20408  41.889   8.580   0.236
48149W        W20409  23.258   1.395   2.699
48150W        W20410  42.831  43.530  12.132
48151W        W20411  28.478  20.506  10.553
48152W        W20412  29.179  43.747  12.906
48153W        W20413  13.113  13.922   2.713
48154W        W20414  26.190  15.764   1.736
48155W        W20415   8.417  24.196   2.247
48156W        W20416  16.236  31.769  13.469
48157W        W20417  41.885  21.946   4.198
48158W        W20418  41.898  17.027   0.503
48159W        W20419   7.187   7.400   4.234
48160W        W20420  37.130   5.807   1.279
48161W        W20421  15.194  35.631   1.874
48162W        W20422  44.730   6.937   1.190
48163W        W20423  25.716  32.482   0.470
48164W        W20424  14.037  27.370   2.861
48165W        W20425  21.751  18.072  11.250
48166W        W20426  26.431  19.028   3.503
48167W        W20427  16.189  19.043   2.388
48168W        W20428  38.540  36.516  11.742
48169W        W20429  10.411  13.099   2.860
48170W        W20430  32.218  31.932  14.816
48171W        W20431  17.692  18.257   2.220
48172W        W20432   8.717  38.020  14.477
48173W        W20433  33.352   0.514  12.504
48174W        W20434  15.350  43.923   1.803
48175W        W20435  38.924  12.021  14.544
48176W        W20436  38.240  14.193  11.950
48177W        W20437  15.373   0.320   0.522
48178W        W20438  18.179  15.761  10.531
48179W        W20439  32.733  16.214   0.513
48180W        W20440  17.386  23.363   4.579
48181W        W20441  30.870  28.681   1.220
48182W        W20442  33.034  10.695  14.238
48183W        W20443  36.905  22.495   2.623
48184W        W20444   8.410  10.477  12.151
48185W        W20445   6.656  10.353  13.920
48186W        W20446  26.679  29.415  14.912
48187W        W20447   5.904  13.041   1.880
48188W        W20448  12.426  28.191   0.551
48189W        W20449  35.993  23.243   4.579
48190W        W20450  14.557  29.617   0.325
48191W        W20451   6.727  24.434  12.393
48192W        W20452  44.234   1.294  12.887
48193W        W20453  17.891  19.561   0.628
48194W        W20454   5.048   7.235  11.605
48195W        W20455  13.953  22.624   2.405
48196W        W20456  23.870  10.635  11.095
48197W        W20457  39.372   5.206  14.013
48198W        W20458  23.879  23.079  14.352
48199W        W20459   5.942   4.747  12.629
48200W        W20460  16.887  13.197   4.923
48201W        W20461  33.154  16.778  14.946
48202W        W20462  31.590  20.050  12.309
48203W        W20463  39.297   6.760   4.030
48204W        W20464  14.718  35.053   4.414
48205W        W20465   0.972   5.068   1.940
48206W        W20466  10.774  25.580  12.916
48207W        W20467  30.529  20.320   0.826
48208W        W20468   1.384  15.159   3.757
48209W        W20469  32.032  40.301  12.404
48210W        W20470   5.399  21.220  13.318
48211W        W20471  10.229  44.241   4.264
48212W        W20472  21.296  13.034  11.951
48213W        W20473  10.203  41.826   1.761
48214W        W20474  26.970  11.954  13.032
48215W        W20475  12.753   3.260   0.400
48216W        W20476  26.432   4.987  13.583
48217W        W20477   5.052  34.416   1.389
48218W        W20478  43.727  37.484  11.492
48219W        W20479  44.510  43.966   1.361
48220W        W20480  41.909  15.039   3.154
48221W        W20481  39.347   9.795  14.264
48222W        W20482  19.360  31.934   4.121
48223W        W20483  38.326  17.124  12.039
48224W        W20484   2.901  41.492   0.906
48225W        W20485  22.577   5.140  10.686
48226W        W20486  42.265   1.119   4.550
48227W        W20487  12.627  39.235  11.923
48228W        W20488   1.179  39.009  14.049
48229W        W20489  27.052  10.141  13.062
48230W        W20490  17.160   5.672   3.351
48231W        W20491  11.260  34.489  12.933
48232W        W20492  25.926  31.385   2.927
48233W        W20493   1.447  26.099  13.593
48234W        W20494  11.710  21.218  12.006
48235W        W20495  42.970  30.408   0.912
48236W        W20496  12.748  15.306  10.271
48237W        W20497  36.972  19.372   1.838
48238W        W20498  15.772  21.079  11.094
48239W        W20499   0.454  31.937  11.732
48240W        W20500  38.430  41.006  14.457
48241W        W20501  32.126   5.639  12.112
48242W        W20502  13.884  15.610  12.961
48243W        W20503  36.896  30.083   3.190
48244W        W20504  17.956  35.938   5.078
48245W        W20505  28.115  30.376   4.151
48246W        W20506  20.682  17.176   0.992
48247W        W20507   2.307   8.200   0.377
48248W        W20508  20.459  30.867   2.874
48249W        W20509  26.060  39.882  13.547
48250W        W20510  43.588  17.126  13.369
48251W        W20511  19.491  15.160  14.202
48252W        W20512  29.478  17.733   1.031
48253W        W20513  39.032  31.656   1.176
48254W        W20514   0.850   0.729  12.642
48255W        W20515  41.472  38.363  14.725
48256W        W20516  14.187  42.773   2.192
48257W        W20517  12.204  42.347  11.509
48258W        W20518  40.856  12.442   1.375
48259W        W20519   0.239  33.641   0.362
48260W        W20520  11.524   3.406  14.384
48261W        W20521  19.963   3.209   4.708
48262W        W20522  19.748   8.065   3.262
48263W        W20523  41.367   6.486  13.177
48264W        W20524  18.043  35.835   3.206
48265W        W20525  22.716  12.319   2.413
48266W        W20526  21.475  44.804   0.080
48267W        W20527  30.716  22.776  11.968
48268W        W20528   4.142  13.650  12.682
48269W        W20529   6.873  33.284   4.809
48270W        W20530   4.487  32.992   3.626
48271W        W20531  17.759  24.541  11.613
48272W        W20532  15.613  40.400  14.030
48273W        W20533  12.313  25.486  14.537
48274W        W20534  44.899  33.287   4.063
48275W        W20535  37.614  15.160  14.305
48276W        W20536  24.603  18.421  13.386
48277W        W20537  32.572  27.443   3.723
48278W        W20538   4.507   5.955  14.428
48279W        W20539   6.430  44.217   5.035
48280W        W20540  27.448  42.330  13.188
48281W        W20541  23.024  10.890   3.610
48282W        W20542  16.489  33.993   3.923
48283W        W20543   6.320   0.103   0.414
48284W        W20544  44.810  13.260   4.581
48285W        W20545  16.434   3.871   2.697
48286W        W20546  44.594   4.661   2.950
48287W        W20547  11.924  36.606  12.432
48288W        W20548  29.348   4.370  11.485
48289W        W20549  12.651  38.969   1.280
48290W        W20550  24.788   5.743   4.807
48291W        W20551   4.227  31.426   3.671
48292W        W20552   2.410  15.028   4.677
48293W        W20553  41.424   6.170   0.973
48294W        W20554  21.396  28.370   1.169
48295W        W20555  13.653   1.187  11.714
48296W        W20556   0.868  42.537  12.479
48297W        W20557  30.803  12.269  14.887
48298W        W20558  18.966  34.057   1.071
48299W        W20559  25.913  16.202  12.595
48300W        W20560  25.943  40.552  12.783
48301W        W20561   4.395  25.466  13.658
48302W        W20562  36.117  43.677   1.345
48303W        W20563  27.984  33.902   2.921
48304W        W20564  35.500   8.667   1.152
48305W        W20565  44.977   6.379   0.384
48306W        W20566   6.800  43.880   3.719
48307W        W20567  37.905   1.226   4.651
48308W        W20568   3.660   6.218  11.505
48309W        W20569  10.425  18.931   0.802
48310W        W20570  27.987  32.337  11.334
48311W        W20571   2.243  43.268   4.299
48312W        W20572  30.030  37.109   3.791
48313W        W20573  27.553  18.842   2.810
48314W        W20574  39.409  34.694  10.650
48315W        W20575  44.007  21.588   2.828
48316W        W20576  27.330  44.369  11.948
48317W        W20577  39.393  25.197  13.267
48318W        W20578  15.317  37.538  12.594
48319W        W20579  16.719  13.672  11.761
48320W        W20580  33.835  41.059  13.241
48321W        W20581  29.183  20.089   1.992
48322W        W20582  39.235   1.097   0.297
48323W        W20583  14.795  14.401   2.866
48324W        W20584  29.117   4.282   3.652
48325W        W20585  34.568  41.728   2.325
48326W        W20586   4.044  42.890  11.618
48327W        W20587   6.269  13.405   4.093
48328W        W20588  37.969  15.133   0.513
48329W        W20589  44.967  17.402   1.267
48330W        W20590  23.763  18.098   0.782
48331W        W20591  15.166  13.367   1.876
48332W        W20592  16.235   4.924  12.408
48333W        W20593  42.224   6.257  13.338
48334W        W20594  28.057   8.459  13.482
48335W        W20595  23.215  29.506   4.596
48336W        W20596   8.773  22.157  12.435
48337W        W20597  35.346   2.951   2.729
48338W        W20598  33.617   0.480   1.713
48339W        W20599  37.066  22.004   2.686
48340W        W20600  37.981  36.045  11.538
48341W        W20601  17.112  10.532  14.054
48342W        W20602  21.129   8.333   0.027
48343W        W20603  25.667  37.458  10.080
48344W        W20604  18.770  39.277   2.224
48345W        W20605   7.619   4.451   2.597
48346W        W20606  16.888  22.816   2.945
48347W        W20607  40.960   8.134   2.472
48348W        W20608   6.236  25.950   1.847
48349W        W20609  37.300  36.597  14.989
48350W        W20610  24.018  27.605  12.623
48351W        W20611  42.744   1.998  13.497
48352W        W20612  43.735  32.004  10.694
48353W        W20613  39.259  40.828   4.148
48354W        W20614  44.877  20.216   3.912
48355W        W20615   5.884  44.423  10.758
48356W        W20616  16.328  42.876   0.285
48357W        W20617  34.808  13.261  12.802
48358W        W20618   3.346   1.764   4.120
48359W        W20619  24.227  17.699   4.226
48360W        W20620  35.002  25.948   1.203
48361W        W20621  10.405   7.932  14.485
48362W        W20622  27.047  40.209   3.622
48363W        W20623  14.403  27.571  11.519
48364W        W20624   2.403  29.133  13.949
48365W        W20625  15.589  22.242   0.242
48366W        W20626  42.027  29.917  13.507
48367W        W20627  14.837  14.092  13.459
48368W        W20628  38.613  19.801  13.797
48369W        W20629  44.508   2.840   0.687
48370W        W20630  34.381   5.941  11.769
48371W        W20631  35.563   2.481  12.581
48372W        W20632   8.814  31.496   1.270
48373W        W20633  33.184  42.459   2.337
48374W        W20634   9.632  23.423   2.507
48375W        W20635  21.474  33.174   0.802
48376W        W20636  40.694  14.652  12.157
48377W        W20637  15.754   9.685  14.392
48378W        W20638  18.607  19.102   4.929
48379W        W20639  36.537  14.051   0.032
48380W        W20640  18.759  38.826  14.847
48381W        W20641  29.458   7.010   2.208
48382W        W20642   4.339  30.073   2.318
48383W        W20643  35.785  30.412  11.268
48384W        W20644  38.051  13.265  14.291
48385W        W20645  22.799  10.908   1.112
48386W        W20646  28.158  32.416   0.719
48387W        W20647  34.821  30.090  13.862
48388W        W20648  12.250  27.392  11.525
48389W        W20649   5.310  29.819   2.927
48390W        W20650  12.640   1.757   1.689
48391W        W20651  38.165  11.903  14.703
48392W        W20652  17.571  41.714   3.623
48393W        W20653  22.258  27.895  10.197
48394W        W20654   2.269  21.826  11.493
48395W        W20655  24.999   7.228   2.766
48396W        W20656   5.310  30.638   1.867
48397W        W20657   8.892  38.801  12.120
48398W        W20658  43.405  25.916  12.437
48399W        W20659   0.716  30.422   2.557
48400W        W20660  41.824   7.832   0.987
48401W        W20661  42.305  13.627   1.333
48402W        W20662  38.728  18.677  14.800
48403W        W20663  36.261   1.491   0.426
48404W        W20664  18.757  19.579   5.028
48405W        W20665  40.503  19.829   1.015
48406W        W20666  26.632  28.470   1.116
48407W        W20667  30.054  31.004   4.697
48408W        W20668  18.149  10.866  10.542
48409W        W20669  27.599  27.183  12.331
48410W        W20670  25.114  26.087  13.792
48411W        W20671  39.883  11.584   4.296
48412W        W20672  28.898   7.170  11.493
48413W        W20673  25.267  42.061   1.443
48414W        W20674  19.436  15.670   1.851
48415W        W20675  25.077  24.191   4.098
48416W        W20676  13.046   7.705  14.843
48417W        W20677  43.701  42.543  12.868
48418W        W20678  39.232   9.144  11.028
48419W        W20679   4.762  27.874   1.918
48420W        W20680  23.118  28.743  14.094
48421W        W20681  23.878  35.939   2.813
48422W        W20682  15.666  25.537   3.355
48423W        W20683  36.270  21.627  10.554
48424W        W20684  18.750  13.070   2.694
48425W        W20685  17.081  44.360  13.351
48426W        W20686  14.002  41.631  14.498
48427W        W20687  22.681   6.835  11.074
48428W        W20688   9.374  10.848  11.439
48429W        W20689   4.674   2.250   4.164
48430W        W20690  40.917  17.004   4.344
48431W        W20691  36.640  10.798  11.489
48432W        W20692  17.149  40.372  12.460
48433W        W20693   7.762  25.885  12.993
48434W        W20694   1.747  40.655   1.600
48435W        W20695  25.555   2.235  12.884
48436W        W20696  39.788  32.486  11.609
48437W        W20697   9.467  19.653   4.636
48438W        W20698   0.482  30.144   1.236
48439W        W20699  10.771   8.416  14.761
48440W        W20700  38.032   7.434   1.247
48441W        W20701  35.359  25.652   2.434
48442W        W20702  32.620  36.362   0.442
48443W        W20703   2.819  10.646   3.715
48444W        W20704  29.158  29.815  13.476
48445W        W20705  43.501  27.835   0.797
48446W        W20706  15.885   9.240  13.524
48447W        W20707   0.839  32.903  14.571
48448W        W20708  14.568  38.539  12.882
48449W        W20709  29.032  38.259  11.050
48450W        W20710   3.768  43.324   1.513
48451W        W20711  35.220  35.890  10.779
48452W        W20712   7.297  34.476   4.357
48453W        W20713  29.012  10.666  11.583
48454W        W20714  27.195   1.337   0.323
48455W        W20715   8.603  22.537   1.488
48456W        W20716  27.198  13.145  12.850
48457W        W20717  34.015  41.697  10.945
48458W        W20718  20.458  14.588   4.169
48459W        W20719  31.722   7.326   2.422
48460W        W20720  23.174  15.634  10.670
48461W        W20721  13.077  33.928  13.889
48462W        W20722  37.496  32.097   4.659
48463W        W20723  16.283  10.761  12.478
48464W        W20724  26.201  16.050   4.867
48465W        W20725  20.099  16.376   3.077
48466W        W20726  15.858   8.666  11.037
48467W        W20727  30.823  12.691   3.111
48468W        W20728  18.752  26.016   2.264
48469W        W20729  37.192  12.304  14.487
48470W        W20730  33.317  18.628  13.373
48471W        W20731  13.074  34.844   1.752
48472W        W20732  14.827   7.224  12.355
48473W        W20733  38.511  39.356   1.539
48474W        W20734  32.271  14.116  12.985
48475W        W20735  14.437  23.040  13.392
48476W        W20736  26.539  16.760   9.997
48477W        W20737  39.378  35.557  13.519
48478W        W20738  32.171   2.658   3.323
48479W        W20739  23.244  35.620   2.496
48480W        W20740  31.906  31.920   2.124
48481W        W20741  27.162  20.754  11.035
48482W        W20742  12.633  19.024   0.374
48483W        W20743   8.256   0.536  12.131
48484W        W20744  40.901   8.453   4.088
48485W        W20745   0.318  36.772  11.114
48486W        W20746  23.639   4.297  14.030
48487W        W20747  20.616  14.269   1.117
48488W        W20748  26.513   8.671  14.365
48489W        W20749   1.851  39.996   3.193
48490W        W20750  13.519  11.659  14.065
48491W        W20751  34.959   4.289   1.795
48492W        W20752  44.604  40.929  13.938
48493W        W20753  42.295  40.570   4.485
48494W        W20754   4.691   2.084   0.703
48495W        W20755  44.542  18.297   2.167
48496W        W20756   6.924  21.669  12.696
48497W        W20757  42.036  13.265  11.658
48498W        W20758  26.168  15.314  13.380
48499W        W20759   6.177  34.142   1.778
48500W        W20760  11.965  11.656  12.864
48501W        W20761   4.920  30.343  12.345
48502W        W20762  43.709  23.170   2.738
48503W        W20763  31.123   8.790  12.928
48504W        W20764  20.114   8.355  11.531
48505W        W20765  10.661  32.582   3.098
48506W        W20766  12.155  42.242   2.350
48507W        W20767  37.461   6.953  10.647
48508W        W20768  26.608  10.668   0.481
48509W        W20769   5.325  36.196  13.928
48510W        W20770  24.475  36.496   4.579
48511W        W20771   2.317  13.740   0.015
48512W        W20772  30.151   2.308  11.567
48513W        W20773   3.908  30.098  12.417
48514W        W20774  28.023   0.843   4.536
48515W        W20775  44.393  26.698   0.510
48516W        W20776   4.541  37.350  12.926
48517W        W20777  43.427  19.564  13.589
48518W        W20778  40.558  43.895  14.929
48519W        W20779  41.370   5.393  14.846
48520W        W20780  20.505  37.666   2.748
48521W        W20781  34.071   7.163  13.621
48522W        W20782  40.713  20.549  12.014
48523W        W20783   8.175  39.208   1.841
48524W        W20784  36.057   9.756  11.904
48525W        W20785  26.553  25.666  14.947
48526W        W20786   5.421  43.469   2.714
48527W        W20787  11.679  43.119  11.583
48528W        W20788  16.722  19.154  10.401
48529W        W20789  20.477   9.652   2.791
48530W        W20790  44.530  39.344  10.810
48531W        W20791  44.654  12.705  14.877
48532W        W20792  38.061  24.298  14.924
48533W        W20793  43.810  36.799  12.537
48534W        W20794  16.919   2.265   2.216
48535W        W20795   7.884   2.393  14.452
48536W        W20796  27.410  19.914   2.657
48537W        W20797   7.711  13.140  14.530
48538W        W20798   0.358   6.926  11.736
48539W        W20799   9.877  20.172   3.723
48540W        W20800  24.552  30.337   1.992
48541W        W20801  31.366  16.765   3.898
48542W        W20802  34.967  44.231  14.846
48543W        W20803  38.442  41.427  11.442
48544W        W20804  36.048  13.801   1.340
48545W        W20805  27.146   9.085  13.240
48546W        W20806  10.589  18.727   4.478
48547W        W20807  42.424  25.974  14.897
48548W        W20808  23.450  26.176   0.156
48549W        W20809   2.333   4.668  13.166
48550W        W20810  18.521  40.801   0.302
48551W        W20811  38.726  13.172   1.322
48552W        W20812  18.658  37.263   1.029
48553W        W20813  17.689   6.681   4.720
48554W        W20814   1.170   0.739   4.124
48555W        W20815   5.392  27.870  10.666
48556W        W20816  35.389  11.117   1.856
48557W        W20817  34.815  36.421   2.617
48558W        W20818  22.569   2.703   0.882
48559W        W20819  39.584  18.840  10.767
48560W        W20820  21.211  25.400   0.963
48561W        W20821   2.425  14.249  11.936
48562W        W20822   9.626  14.887  13.602
48563W        W20823  19.947  42.926   0.226
48564W        W20824  26.019  42.751  10.175
48565W        W20825   0.247  25.581   2.997
48566W        W20826  35.560  21.115   5.547
48567W        W20827  23.524   1.672  13.763
48568W        W20828  10.321  29.930   3.726
48569W        W20829  25.594   0.256   2.296
48570W        W20830  33.966  29.041   3.810
48571W        W20831  33.930  40.798   4.640
48572W        W20832  42.486  35.094  12.831
48573W        W20833  41.774  19.873   1.355
48574W        W20834  33.051  12.379  13.356
48575W        W20835  21.702  10.014   2.332
48576W        W20836   5.626  17.461  14.060
48577W        W20837  20.512  38.322  14.400
48578W        W20838  22.606   1.725  13.968
48579W        W20839   8.035  40.335  12.627
48580W        W20840  25.765  42.728  12.117
48581W        W20841  11.714  20.974   3.377
48582W        W20842  22.254  13.564  12.444
48583W        W20843  27.855   5.495  12.145
48584W        W20844  42.189  27.635   1.344
48585W        W20845   1.974   6.246   2.848
48586W        W20846  42.256  31.653   2.206
48587W        W20847  28.462  16.358   4.498
48588W        W20848  35.020  20.967  12.460
48589W        W20849   6.310  40.890   0.380
48590W        W20850  36.089  18.367  10.272
48591W        W20851  17.141  40.781   1.540
48592W        W20852   4.347  34.351   2.266
48593W        W20853  36.934   0.985   4.892
48594W        W20854  11.958  22.590   0.262
48595W        W20855  41.019   7.337   1.762
48596W        W20856  26.566  32.697   4.488
48597W        W20857  37.906  10.655  13.294
48598W        W20858   5.927   3.749  13.840
48599W        W20859  14.649  25.003   4.225
48600W        W20860   1.541  44.471  12.479
48601W        W20861  29.581  26.339   3.266
48602W        W20862  21.283  10.451  11.832
48603W        W20863  21.461  14.802   0.836
48604W        W20864  18.528  16.574  11.630
48605W        W20865  40.256  21.725  11.606
48606W        W20866  32.364   5.232  12.325
48607W        W20867  35.643  16.701   2.760
48608W        W20868  32.567  13.179   4.174
48609W        W20869  44.149   1.587   3.243
48610W        W20870  37.975  25.562  13.420
48611W        W20871  37.794   4.423   3.797
48612W        W20872  31.399   1.505  12.941
48613W        W20873   3.053  40.763  11.464
48614W        W20874  11.277   4.360   4.084
48615W        W20875  37.359  25.919  13.413
48616W        W20876  33.382   7.183  14.510
48617W        W20877  22.924  41.921   3.824
48618W        W20878  43.871  33.436  11.854
48619W        W20879  33.987  33.679  13.554
48620W        W20880   7.698  40.865  10.520
48621W        W20881  23.614  28.769   4.519
48622W        W20882  36.122  44.481   5.057
48623W        W20883   2.147  44.756   4.305
48624W        W20884  17.753  19.962  10.741
48625W        W20885  43.903  20.181  12.522
48626W        W20886   5.763  21.061   2.790
48627W        W20887  41.207   9.436  13.443
48628W        W20888  36.217  14.165  12.842
48629W        W20889  28.150  38.419   2.186
48630W        W20890   2.676  42.251  12.382
48631W        W20891  36.326   4.222   0.746
48632W        W20892  16.005  16.851  13.163
48633W        W20893  21.028  15.041   4.966
48634W        W20894  18.121   9.746   4.941
48635W        W20895  18.443  32.434  14.956
48636W        W20896  18.997  16.787   3.773
48637W        W20897  12.633  32.914   2.273
48638W        W20898  10.160  40.999   2.114
48639W        W20899   0.668  27.697   4.297
48640W        W20900  33.653  21.965   2.780
48641W        W20901  36.011  36.872   4.614
48642W        W20902  44.734  10.432   2.635
48643W        W20903   8.728   3.194   1.312
48644W        W20904   4.814  35.159  12.833
48645W        W20905  39.553  31.971   1.623
48646W        W20906  24.252  15.982  11.157
48647W        W20907  37.787  22.126  10.959
48648W        W20908  13.535  15.107   5.086
48649W        W20909  13.076   4.289  10.684
48650W        W20910  28.150   3.745   4.651
48651W        W20911   4.696  13.246   0.057
48652W        W20912   5.208  29.585  14.302
48653W        W20913  29.972  38.850   4.796
48654W        W20914  13.764  20.452   4.756
48655W        W20915  41.009  36.491  14.124
48656W        W20916  44.594  23.940   1.823
48657W        W20917  32.001  40.888   0.946
48658W        W20918  11.135  13.248   3.252
48659W        W20919  10.662  12.748  11.529
48660W        W20920  19.637  13.287  13.805
48661W        W20921   4.163  10.298   2.464
48662W        W20922  27.652  37.992   3.377
48663W        W20923  35.079  28.392  10.680
48664W        W20924   2.037  21.684  14.299
48665W        W20925  34.852  22.073   3.787
48666W        W20926  18.355  19.535  11.220
48667W        W20927  27.975  32.203  13.534
48668W        W20928  10.668   1.179   3.255
48669W        W20929   3.771  10.763  14.520
48670W        W20930   4.474  22.607   0.570
48671W        W20931  22.643  36.348   1.095
48672W        W20932  19.785   3.974   1.174
48673W        W20933   9.759  38.127   2.287
48674W        W20934   1.354  18.988   2.987
48675W        W20935  14.655  21.995  10.652
48676W        W20936   6.233  34.833   0.836
48677W        W20937  12.238  29.585   4.121
48678W        W20938  44.990  42.307   2.063
48679W        W20939  32.363   1.462   3.756
48680W        W20940  32.932  18.738  11.504
48681W        W20941  28.459   3.139   3.800
48682W        W20942  27.081  17.070   0.297
48683W        W20943  16.573  34.685   0.866
48684W        W20944  12.253  10.119  14.928
48685W        W20945  36.995  33.509   3.550
48686W        W20946  23.152  32.140  14.510
48687W        W20947   5.798  16.185  14.068
48688W        W20948   6.720  32.504  13.440
48689W        W20949  28.696  40.421  14.681
48690W        W20950  28.099  25.013  11.606
48691W        W20951  29.214  25.776   1.430
48692W        W20952   1.837  31.185   3.205
48693W        W20953   7.805  18.002   4.608
48694W        W20954  39.465  33.332  13.020
48695W        W20955  25.895   8.599   2.811
48696W        W20956  41.233  20.092   1.961
48697W        W20957  22.727   6.253   2.372
48698W        W20958   4.847  25.120   4.427
48699W        W20959   1.914  35.044   1.054
48700W        W20960  28.706  34.907   3.135
48701W        W20961  38.514  27.934  14.884
48702W        W20962  24.645  15.516   1.883
48703W        W20963  18.694  28.519  10.471
48704W        W20964  32.175  39.408   0.129
48705W        W20965  14.210  17.521   5.094
48706W        W20966  34.792  29.028  10.075
48707W        W20967  20.679   0.808   3.219
48708W        W20968  17.610  39.852   4.613
48709W        W20969   2.209  10.351   1.327
48710W        W20970  34.351  19.293   3.194
48711W        W20971  32.006  28.956  12.960
48712W        W20972   3.112   5.270  13.449
48713W        W20973   9.786  28.876   4.622
48714W        W20974  12.382  27.158  11.076
48715W        W20975  15.023  26.005   1.114
48716W        W20976  26.297  26.668  10.211
48717W        W20977   7.732  35.061  10.593
48718W        W20978   8.182  22.385   0.756
48719W        W20979  39.615  10.304   4.977
48720W        W20980  27.391   3.186   1.713
48721W        W20981  44.237   4.515  13.774
48722W        W20982   3.146  43.016  10.858
48723W        W20983  10.913  22.454  14.441
48724W        W20984  13.257   0.906   1.293
48725W        W20985  28.465  22.334   4.640
48726W        W20986  19.047  34.046  10.994
48727W        W20987  38.455   1.775   4.418
48728W        W20988  32.019  36.009  13.756
48729W        W20989  44.745   2.750  12.025
48730W        W20990  37.391  12.928   2.258
48731W        W20991  24.537  25.185  12.906
48732W        W20992  25.197  37.610   3.592
48733W        W20993  32.861  27.426   3.168
48734W        W20994  34.672  30.995   3.302
48735W        W20995  10.612  44.071   2.532
48736W        W20996  18.944  21.699   0.416
48737W        W20997   8.758   9.795  11.594
48738W        W20998  18.160  33.737  10.421
48739W        W20999  37.361   9.938   1.062
48740W        W21000  19.807   6.234   3.270
48741W        W21001   3.118  15.319   0.769
48742W        W21002   6.814   3.989  10.789
48743W        W21003  21.789  16.456   0.034
48744W        W21004  30.707  44.500   2.392
48745W        W21005  37.420  11.290  13.424
48746W        W21006  21.161   7.666  10.714
48747W        W21007   7.736  14.125  13.457
48748W        W21008  12.098  13.575   0.700
48749W        W21009  44.886  11.025  10.931
48750W        W21010  23.123  39.572   3.210
48751W        W21011  23.485  34.573  11.942
48752W        W21012  39.795  16.261   1.930
48753W        W21013  18.604  32.753  12.378
48754W        W21014   0.017   3.673  10.789
48755W        W21015   8.427  19.574   3.161
48756W        W21016  13.629  44.006  14.762
48757W        W21017   0.231  14.176  12.034
48758W        W21018   9.314  13.833  12.384
48759W        W21019  36.680  14.375   2.714
48760W        W21020   5.024  28.704  14.409
48761W        W21021  43.793   2.507   0.420
48762W        W21022  13.163   8.184  12.504
48763W        W21023   4.317  37.467   4.187
48764W        W21024  23.356   1.778  14.246
48765W        W21025  34.316  35.988  12.884
48766W        W21026  28.462   4.070  12.771
48767W        W21027  41.533  37.773  14.004
48768W        W21028  10.554   5.302   3.238
48769W        W21029  38.275  24.197   3.289
48770W        W21030  14.050  22.392  14.536
48771W        W21031  18.283  40.573   4.842
48772W        W21032   7.279   1.925   1.138
48773W        W21033  18.911  43.921   0.053
48774W        W21034   8.272  28.082  12.699
48775W        W21035  13.803   5.802   1.881
48776W        W21036  35.587   7.428   3.395
48777W        W21037  23.105  38.934   0.169
48778W        W21038  11.728  40.544  10.720
48779W        W21039  12.896  36.996  12.438
48780W        W21040  22.635  16.979   4.205
48781W        W21041   8.983  23.204   1.939
48782W        W21042  41.371  23.129  10.768
48783W        W21043   4.427  41.558  14.990
48784W        W21044  11.714  43.047   0.236
48785W        W21045  22.271  11.759  10.533
48786W        W21046  13.696   6.619  13.677
48787W        W21047   8.336   3.790  14.777
48788W        W21048  44.894  32.501  14.375
48789W        W21049  27.759  42.450   2.249
48790W        W21050  22.075  33.458  12.287
48791W        W21051   5.261   9.410  14.052
48792W        W21052  14.570  41.365  13.053
48793W        W21053  25.121  13.979  11.102
48794W        W21054  28.286  13.611  13.955
48795W        W21055   3.265  14.070  12.043
48796W        W21056  31.418   9.715   3.903
48797W        W21057  19.041  30.153  10.991
48798W        W21058  12.551  22.187  14.227
48799W        W21059  10.073  12.609   2.760
48800W        W21060  41.373  23.254   1.399
48801W        W21061  43.746   7.165   3.655
48802W        W21062  16.968   5.093  11.037
48803W        W21063  19.120  34.138  13.321
48804W        W21064   5.953  10.679   4.844
48805W        W21065  41.795  18.813  12.104
48806W        W21066  26.889  23.024   4.639
48807W        W21067  21.098   6.634   3.672
48808W        W21068  14.568  43.503   0.737
48809W        W21069   6.062  38.204   0.326
48810W        W21070  36.123  41.478   4.579
48811W        W21071  37.820  23.492  11.105
48812W        W21072  31.603  39.589   0.442
48813W        W21073   6.481  24.378   0.390
48814W        W21074  36.128   4.690   2.882
48815W        W21075   0.804  36.183   0.344
48816W        W21076  18.234  34.320   0.512
48817W        W21077  39.602  28.590  14.810
48818W        W21078  20.649   1.665  13.408
48819W        W21079   4.557  26.704   4.147
48820W        W21080  39.951  26.961   1.838
48821W        W21081  26.576  25.485  11.990
48822W        W21082   2.654  24.486  14.962
48823W        W21083  26.563  18.649  10.725
48824W        W21084  42.002  35.430  14.021
48825W        W21085  19.667   1.009  11.278
48826W        W21086  14.288  39.846   0.384
48827W        W21087  19.563   1.893  14.421
48828W        W21088   2.790   7.885   3.695
48829W        W21089  27.450  32.610  12.013
48830W        W21090  13.169   3.923   2.047
48831W        W21091  44.593  24.071  11.906
48832W        W21092  23.435  37.529  12.906
48833W        W21093  41.142  13.846  10.604
48834W        W21094  30.125  38.407  13.019
48835W        W21095  36.300  43.759  13.888
48836W        W21096  28.510  13.216   4.178
48837W        W21097  40.302   7.475   2.458
48838W        W21098  13.314  26.543  10.236
48839W        W21099   9.954   6.400  12.068
48840W        W21100  31.691   3.262  13.813
48841W        W21101  19.067  15.200   2.932
48842W        W21102  23.693  25.240   0.988
48843W        W21103  43.360  37.330  10.580
48844W        W21104  10.322   2.204  13.332
48845W        W21105  36.996  25.161   0.837
48846W        W21106  35.903  28.851   2.013
48847W        W21107  25.889  24.522  12.509
48848W        W21108  21.965  10.860  14.828
48849W        W21109  17.207  36.651  10.712
48850W        W21110   0.906  40.465   3.973
48851W        W21111  35.369  20.562   5.233
48852W        W21112  21.297  34.945  13.267
48853W        W21113  41.033  26.627   3.100
48854W        W21114   1.395  21.779   0.318
48855W        W21115  21.212  39.799   0.819
48856W        W21116  44.224  20.716   1.433
48857W        W21117  29.608  17.486  12.090
48858W        W21118  16.562  37.969  13.309
48859W        W21119  34.504  14.705   4.592
48860W        W21120  14.529  24.105  11.998
48861W        W21121  15.333  39.022   4.768
48862W        W21122  16.308  35.574  13.144
48863W        W21123  17.075  25.620   4.064
48864W        W21124  16.793  22.647  12.464
48865W        W21125  33.469   7.298   2.792
48866W        W21126  38.683  11.172   1.872
48867W        W21127  19.275  38.536   1.686
48868W        W21128  28.143  26.134  10.872
48869W        W21129  35.028  36.118  14.263
48870W        W21130  21.614   1.351  13.409
48871W        W21131  43.218   5.326  14.923
48872W        W21132   8.269  13.178   0.848
48873W        W21133  16.775   4.789   3.704
48874W        W21134   4.867  29.475  10.656
48875W        W21135  26.521  29.039  14.573
48876W        W21136   6.369  40.778  12.830
48877W        W21137  10.773  10.391   2.218
48878W        W21138  30.736  25.475  14.833
48879W        W21139   6.221  43.944   2.801
48880W        W21140  31.120  26.503   2.418
48881W        W21141  27.565  32.429   2.187
48882W        W21142  16.410  44.184   3.496
48883W        W21143  11.661  34.406   2.174
48884W        W21144  10.224   6.278  14.782
48885W        W21145  42.064  33.863  11.146
48886W        W21146  23.521   4.789  14.363
48887W        W21147   0.617  19.914  11.085
48888W        W21148   7.441  18.340  12.475
48889W        W21149  21.542  17.970   2.644
48890W        W21150  40.915  32.996  11.041
48891W        W21151   2.242  13.577   2.379
48892W        W21152  33.078   6.707   2.831
48893W        W21153  10.213  32.013   1.587
48894W        W21154  37.984   0.853   1.916
48895W        W21155  22.422   3.232  11.166
48896W        W21156   9.228  13.702   4.843
48897W        W21157  22.240  15.724   2.716
48898W        W21158  17.583  31.575  12.533
48899W        W21159  34.893  28.025   2.639
48900W        W21160   4.231  23.798   1.334
48901W        W21161  28.746  13.133   1.582
48902W        W21162  18.262  31.566   2.292
48903W        W21163  38.027  23.755  14.881
48904W        W21164  38.319   1.731   1.847
48905W        W21165  24.516  29.916   0.827
48906W        W21166  42.288  15.687  12.027
48907W        W21167  27.929  23.458  14.107
48908W        W21168  12.094  28.328   5.447
48909W        W21169  10.261  36.033  14.295
48910W        W21170  14.184  29.672  13.835
48911W        W21171   1.524  31.546   2.518
48912W        W21172   5.677   1.870  10.919
48913W        W21173  29.939  22.271   2.151
48914W        W21174  37.779  37.503   4.161
48915W        W21175  42.218  23.683   1.235
48916W        W21176   7.335  31.055  10.955
48917W        W21177  20.502  16.358  12.539
48918W        W21178  13.440  19.718   0.836
48919W        W21179  11.131  21.571  14.036
48920W        W21180  27.980  14.338  14.793
48921W        W21181  26.890  43.393  11.702
48922W        W21182  17.094  34.883  13.242
48923W        W21183  10.910  37.276   5.052
48924W        W21184  12.575  16.558   1.819
48925W        W21185  30.457   1.698   4.361
48926W        W21186  14.662   2.675   1.212
48927W        W21187  38.400  23.916   1.671
48928W        W21188  34.938  24.221   2.256
48929W        W21189  40.977  19.638   0.417
48930W        W21190  33.283  35.335  10.819
48931W        W21191  15.623  12.556  11.185
48932W        W21192   3.441  33.351   4.616
48933W        W21193  27.535  43.353   1.176
48934W        W21194  11.641  20.753  10.336
48935W        W21195  31.175   3.605  10.487
48936W        W21196  17.755  29.602   4.863
48937W        W21197  40.290  31.548  12.499
48938W        W21198   4.309  10.086  13.793
48939W        W21199  10.842  41.407   3.397
48940W        W21200   0.152  34.185  14.497
48941W        W21201  17.112   4.688  14.828
48942W        W21202  10.198  32.468   5.237
48943W        W21203  13.312  44.406   4.197
48944W        W21204  12.271  23.381   2.645
48945W        W21205  15.311  37.802  14.855
48946W        W21206   8.873   1.643   2.311
48947W        W21207  31.010  41.012   1.956
48948W        W21208  21.059  19.722  13.913
48949W        W21209  22.680  24.182   4.232
48950W        W21210  33.344  32.584  14.840
48951W        W21211   3.708  30.658  11.546
48952W        W21212   4.733   2.459  14.006
48953W        W21213   2.656  25.621  13.794
48954W        W21214  42.358   2.453   4.182
48955W        W21215  19.060  22.015  13.820
48956W        W21216  15.644  27.126   2.331
48957W        W21217  12.911  39.071   4.987
48958W        W21218  29.952  14.673  10.455
48959W        W21219  41.949  34.863  12.020
48960W        W21220   2.557   0.650   0.161
48961W        W21221   1.940   9.717   4.325
48962W        W21222  33.305  21.603  14.046
48963W        W21223  19.493   3.811  14.366
48964W        W21224   5.783  33.575  10.964
48965W        W21225   3.489  33.476   2.772
48966W        W21226   7.180   5.955  11.079
48967W        W21227  24.545  19.485   0.369
48968W        W21228  39.368   1.195   1.696
48969W        W21229  21.451   6.243   1.885
48970W        W21230   7.940  29.028  12.240
48971W        W21231  39.004   4.835   3.733
48972W        W21232   7.914  33.355   4.117
48973W        W21233  43.931   3.482   1.584
48974W        W21234  10.699  12.263  13.064
48975W        W21235  41.717  15.601  12.025
48976W        W21236  32.118   3.277   1.738
48977W        W21237  37.845  34.018   4.586
48978W        W21238  19.573  15.211   1.655
48979W        W21239  36.501   5.326  12.205
48980W        W21240  38.975  17.195   4.152
48981W        W21241  20.433  36.549  11.920
48982W        W21242  20.872   3.017   4.630
48983W        W21243  16.550  37.325   2.349
48984W        W21244  43.096  35.096   4.124
48985W        W21245  11.710  20.540   2.904
48986W        W21246  37.477   4.419   3.084
48987W        W21247  14.150  20.520  14.645
48988W        W21248  36.422  44.013   1.622
48989W        W21249  12.119  26.602  10.393
48990W        W21250  32.699  31.685   0.763
48991W        W21251  11.781  39.583   2.371
48992W        W21252   3.900  12.443   4.537
48993W        W21253  14.660  14.330  13.888
48994W        W21254   1.832   0.265  12.134
48995W        W21255  14.242  25.077  14.632
48996W        W21256  43.261  18.226   3.622
48997W        W21257   0.851  35.917  14.890
48998W        W21258  23.601   5.333  13.869
48999W        W21259  42.813  14.551   2.166
49000W        W21260  29.415  22.751  14.801
49001W        W21261  15.812  44.093  11.471
49002W        W21262  12.584  13.609  11.130
49003W        W21263  42.164  28.959   5.126
49004W        W21264  35.827  40.087   0.327
49005W        W21265  30.143  19.311  14.404
49006W        W21266  34.883  33.088   1.423
49007W        W21267  14.857  24.668  11.188
49008W        W21268  33.939  28.186  11.549
49009W        W21269   7.154  30.070   0.783
49010W        W21270  13.887  33.350  14.774
49011W        W21271  11.686   1.648  14.969
49012W        W21272  27.069   1.478  11.045
49013W        W21273  41.045   9.586   4.859
49014W        W21274   0.361  30.050   3.127
49015W        W21275  34.301   5.744   4.059
49016W        W21276  20.955  27.744   2.673
49017W        W21277  11.667   6.994  14.381
49018W        W21278  40.314  41.274  10.311
49019W        W21279  10.766   6.265  10.506
49020W        W21280  31.997  11.472   0.474
49021W        W21281  42.972  38.832  14.511
49022W        W21282  18.041  37.391  14.403
49023W        W21283  38.297  23.108   3.677
49024W        W21284  43.429  13.035  11.582
49025W        W21285  17.343  14.430   3.521
49026W        W21286   4.224  10.435  13.428
49027W        W21287  32.048  15.724  14.987
49028W        W21288  29.061   3.628   1.868
49029W        W21289  14.739   5.845   2.473
49030W        W21290  28.060   6.349   1.858
49031W        W21291   3.533  22.059   3.637
49032W        W21292  16.668  13.389   3.296
49033W        W21293  23.650  20.746   3.790
49034W        W21294  16.281  26.060  13.982
49035W        W21295  26.838  34.722  14.832
49036W        W21296   3.917   8.878   1.179
49037W        W21297   6.158  12.109   3.729
49038W        W21298  23.682  44.573   4.190
49039W        W21299   6.900   6.453   0.826
49040W        W21300  25.573  30.513   1.153
49041W        W21301  16.777  28.100  12.423
49042W        W21302   5.228  22.924   0.205
49043W        W21303  25.013  19.684   0.545
49044W        W21304  23.045  13.262  14.464
49045W        W21305   8.946  21.665  12.327
49046W        W21306   5.852   7.097   3.812
49047W        W21307  24.115  17.093  13.596
49048W        W21308  19.302   5.708   0.320
49049W        W21309  44.068  14.109   3.249
49050W        W21310   1.576  17.206  11.443
49051W        W21311   8.989   2.434   0.950
49052W        W21312  26.629  16.621   1.784
49053W        W21313   9.666  43.655  12.891
49054W        W21314  33.500   4.397  14.132
49055W        W21315  41.419  22.943  13.827
49056W        W21316   0.784  39.463   4.280
49057W        W21317   1.405  37.956  13.571
49058W        W21318  43.668  30.839  14.797
49059W        W21319  22.510  28.509  14.959
49060W        W21320  23.931  41.275  12.027
49061W        W21321  22.541  30.187  12.407
49062W        W21322   0.249   3.234   2.064
49063W        W21323  28.932  35.715  13.691
49064W        W21324  27.541  21.790   1.332
49065W        W21325  12.742   2.851  14.091
49066W        W21326   5.768  40.076  13.846
49067W        W21327   4.339  14.107   0.278
49068W        W21328  38.930   7.157  11.533
49069W        W21329  31.342  25.798  12.937
49070W        W21330  24.885  40.949   4.663
49071W        W21331  42.439  16.076   4.631
49072W        W21332  13.625  15.413  13.899
49073W        W21333  29.943  43.392  12.054
49074W        W21334  18.602  36.895  14.138
49075W        W21335  26.160   5.830  14.392
49076W        W21336  17.492   3.524   3.398
49077W        W21337  29.305  26.566   3.631
49078W        W21338  40.517  25.508  11.141
49079W        W21339  18.827  42.196   4.137
49080W        W21340   9.141  36.075   2.802
49081W        W21341  11.294  36.600   4.581
49082W        W21342  42.387  30.866  14.369
49083W        W21343  25.706  24.587   4.508
49084W        W21344  42.838   2.201   3.078
49085W        W21345  19.681  28.536   0.856
49086W        W21346  28.533  41.310   3.598
49087W        W21347   6.868  28.701   5.037
49088W        W21348   2.929  22.831  13.107
49089W        W21349  36.628  25.758  11.207
49090W        W21350  25.319   1.689  10.641
49091W        W21351  18.489  38.681   4.312
49092W        W21352  29.134  13.212  11.300
49093W        W21353  20.669  13.993  14.557
49094W        W21354  17.483   7.303   2.691
49095W        W21355  20.235   3.258  10.591
49096W        W21356  20.360   9.978  12.479
49097W        W21357  22.958  35.739   2.928
49098W        W21358  38.070  27.286  11.173
49099W        W21359  42.237  18.567  14.966
49100W        W21360  13.669  31.731   1.286
49101W        W21361  23.896  26.593  11.574
49102W        W21362   6.437  20.078   0.458
49103W        W21363  38.132  23.997  13.483
49104W        W21364  14.242  14.855   2.459
49105W        W21365  31.431   6.374   2.403
49106W        W21366  32.510   7.856  13.799
49107W        W21367  18.796  31.522   2.302
49108W        W21368   8.864  35.427   1.335
49109W        W21369  35.387  29.444  13.350
49110W        W21370  18.101   1.788   3.769
49111W        W21371  13.301  27.067  10.851
49112W        W21372  35.880  42.524  13.977
49113W        W21373  34.043  23.521   0.717
49114W        W21374  22.109  19.707   0.917
49115W        W21375  20.816  24.591  12.427
49116W        W21376  22.063   9.271  13.057
49117W        W21377  13.092  42.414   0.288
49118W        W21378  39.036  19.433   4.562
49119W        W21379   2.434  44.985   0.386
49120W        W21380  19.309  39.327  11.092
49121W        W21381  28.426  39.522   0.386
49122W        W21382  10.270  15.604   3.070
49123W        W21383  18.743  33.121   1.877
49124W        W21384  33.810  12.723   3.261
49125W        W21385   2.447  43.440   0.592
49126W        W21386   9.849  43.225   1.221
49127W        W21387  33.108  22.475  13.872
49128W        W21388  16.388   2.611   0.776
49129W        W21389  30.051  34.519   0.311
49130W        W21390  41.391  24.736   3.169
49131W        W21391   4.055   4.982  13.748
49132W        W21392  35.730  19.350  14.437
49133W        W21393  18.902   2.401   3.387
49134W        W21394  18.090  36.509   4.316
49135W        W21395  18.733  36.817  11.925
49136W        W21396  28.592  26.317  12.545
49137W        W21397  43.962  36.085   3.703
49138W        W21398  42.663  36.083   2.263
49139W        W21399  36.747  14.318   0.840
49140W        W21400   0.141   4.776   4.348
49141W        W21401  40.315   7.111   2.823
49142W        W21402  42.438  35.763  13.969
49143W        W21403  12.271  12.667   0.306
49144W        W21404  36.192  21.538   1.772
49145W        W21405  37.279   2.805  12.942
49146W        W21406  32.989  34.863  14.508
49147W        W21407   8.875  18.026   0.762
49148W        W21408  22.017   7.327  12.029
49149W        W21409  27.401   7.534  11.672
49150W        W21410  20.266  38.960   3.743
49151W        W21411  33.089  24.656  11.442
49152W        W21412  22.646   6.705  14.413
49153W        W21413   4.908  31.367   1.309
49154W        W21414  20.757  32.525  12.441
49155W        W21415  31.406  40.939  12.150
49156W        W21416  10.718  33.527   1.687
49157W        W21417  44.407  27.132  12.428
49158W        W21418  36.753  26.668  11.001
49159W        W21419  42.831  16.182  12.879
49160W        W21420   4.300  29.603  12.424
49161W        W21421   7.331  27.397  13.943
49162W        W21422  30.200  31.566  12.960
49163W        W21423  44.976  13.041  12.500
49164W        W21424  19.471  29.837  13.020
49165W        W21425   9.406   1.808  13.585
49166W        W21426  35.532  33.513   4.481
49167W        W21427  26.740  27.001  14.855
49168W        W21428   3.586  43.681  14.320
49169W        W21429  17.974  10.161   4.110
49170W        W21430  14.349  33.706  12.087
49171W        W21431  18.615  37.872   3.182
49172W        W21432  26.145   7.950  11.178
49173W        W21433  38.563   4.160   1.014
49174W        W21434  35.976  39.580   4.064
49175W        W21435  21.588   4.173   1.889
49176W        W21436  30.512   3.281   2.175
49177W        W21437  40.202  13.248  12.986
49178W        W21438   0.977  23.349  14.055
49179W        W21439  18.614  26.601  11.884
49180W        W21440  39.091  19.276   2.450
49181W        W21441  40.469  31.820   0.943
49182W        W21442   1.441  13.404   3.081
49183W        W21443   1.459  38.139  12.242
49184W        W21444  33.829   1.275  11.628
49185W        W21445   1.812  29.882  12.370
49186W        W21446  20.701  18.575  11.363
49187W        W21447  17.108  14.515  11.888
49188W        W21448  20.697  24.533  14.492
49189W        W21449  20.916  23.730  10.589
49190W        W21450  12.257  20.827   1.807
49191W        W21451  10.841  36.007  13.940
49192W        W21452  27.190   4.331   3.706
49193W        W21453  17.714  36.472   0.215
49194W        W21454  40.451  33.420   1.468
49195W        W21455  15.080  25.104   0.003
49196W        W21456  22.162  24.221  10.640
49197W        W21457  16.762  36.078   2.804
49198W        W21458  40.873  30.770  11.113
49199W        W21459  20.708  11.231   0.556
49200W        W21460  36.785  32.515  14.471
49201W        W21461  17.095  30.774   1.737
49202W        W21462  15.653  35.504   3.695
49203W        W21463   5.576  17.773   5.161
49204W        W21464  10.848  30.278  12.945
49205W        W21465  29.931  10.135  11.589
49206W        W21466  44.494  36.685   2.486
49207W        W21467   4.648  33.017  12.881
49208W        W21468   9.391  22.058   1.784
49209W        W21469   7.661   1.441  13.520
49210W        W21470  12.226  24.086  10.656
49211W        W21471  15.760  17.553   0.718
49212W        W21472  29.148  27.587  11.535
49213W        W21473  15.395  43.657   2.323
49214W        W21474  35.493   5.713   0.207
49215W        W21475   7.304  19.560   1.184
49216W        W21476  12.263  10.772  12.868
49217W        W21477   3.016  40.524  13.201
49218W        W21478  16.385  41.819   5.062
49219W        W21479  12.710   7.768   3.684
49220W        W21480  32.614  39.901   2.797
49221W        W21481   9.850   9.725   2.015
49222W        W21482  40.487  38.777   5.128
49223W        W21483  20.437  33.885   2.292
49224W        W21484  43.887  12.892   1.762
49225W        W21485  42.767  38.849  11.490
49226W        W21486  23.522  19.840   1.179
49227W        W21487  27.024  44.998  12.143
49228W        W21488   3.891  34.648   2.128
49229W        W21489  12.363   3.006  15.000
49230W        W21490  21.919  12.357   0.253
49231W        W21491  28.842   3.132  12.689
49232W        W21492  34.875  25.276   0.002
49233W        W21493  42.556  31.139  13.375
49234W        W21494   4.950  33.894   3.193
49235W        W21495  16.857  17.567  13.001
49236W        W21496   7.181  33.533  12.054
49237W        W21497  24.807  19.335  13.602
49238W        W21498  13.870   2.894  10.659
49239W        W21499  10.544  23.678  11.666
49240W        W21500  30.177   8.743  12.072
49241W        W21501  29.572  19.573  13.047
49242W        W21502   2.529  28.518  12.881
49243W        W21503  19.671   4.859   0.322
49244W        W21504  32.379  36.629   3.141
49245W        W21505  43.901  31.288  14.687
49246W        W21506  33.094  14.545  11.261
49247W        W21507  40.889  42.721   4.633
49248W        W21508  20.001  32.447   0.038
49249W        W21509  36.195  35.751   4.754
49250W        W21510  29.465  34.597   2.831
49251W        W21511  33.559   8.583   0.054
49252W        W21512  12.830   6.608  11.992
49253W        W21513  29.749  30.983  13.633
49254W        W21514   4.644  11.644  11.605
49255W        W21515  11.801  39.455  14.458
49256W        W21516  24.088   9.591  12.473
49257W        W21517   0.650  38.433   0.937
49258W        W21518  25.026  16.080  13.860
49259W        W21519   0.979  13.924   3.811
49260W        W21520   1.755  23.697  10.392
49261W        W21521  33.999  35.045  14.638
49262W        W21522  18.222  12.405   1.440
49263W        W21523  35.449  22.596   2.781
49264W        W21524  10.883  12.628  11.057
49265W        W21525  33.662  24.040  13.290
49266W        W21526  11.110  41.033   0.679
49267W        W21527  42.813  14.473   0.276
49268W        W21528  25.205   2.042  13.453
49269W        W21529   6.347  13.335  14.334
49270W        W21530  43.479  22.739  11.257
49271W        W21531  17.492   2.869  14.405
49272W        W21532  32.575  26.457  12.972
49273W        W21533  12.175  42.732   2.237
49274W        W21534  18.165  10.612   0.274
49275W        W21535  43.734  13.813  13.559
49276W        W21536  19.836  39.126  11.497
49277W        W21537   8.864  32.436  12.184
49278W        W21538  44.992   8.318   1.444
49279W        W21539  33.571   1.640  14.963
49280W        W21540  13.126   3.763   1.080
49281W        W21541  36.855  39.818  10.261
49282W        W21542  30.826  12.581  13.538
49283W        W21543  10.005  28.596   0.983
49284W        W21544   8.163  36.657   4.340
49285W        W21545  32.673  17.314  14.450
49286W        W21546   2.400  20.615   1.947
49287W        W21547  28.645  25.111   1.065
49288W        W21548  31.685  14.269  10.900
49289W        W21549   8.836   5.655   1.539
49290W        W21550   3.555  28.621  13.024
49291W        W21551  21.608  21.039   3.137
49292W        W21552  30.709   2.969  10.909
49293W        W21553  11.709  10.877  13.626
49294W        W21554  34.193  44.243  10.681
49295W        W21555  25.996  34.888  13.027
49296W        W21556  23.907  24.188  14.065
49297W        W21557  35.992  27.153  14.781
49298W        W21558  35.845  34.996   1.397
49299W        W21559   4.228   6.407  13.982
49300W        W21560  44.577  44.005  12.070
49301W        W21561  15.487  33.183  10.887
49302W        W21562  14.279  40.670  13.570
49303W        W21563   2.532  32.670   3.765
49304W        W21564  44.485  27.693  13.065
49305W        W21565  19.689  10.758  14.363
49306W        W21566  27.686  17.412   3.072
49307W        W21567   3.943  23.018  13.369
49308W        W21568   0.692  40.074   2.681
49309W        W21569   0.788   9.874  13.059
49310W        W21570  41.522  38.765   3.599
49311W        W21571  30.540  27.453  11.685
49312W        W21572  19.003  18.157  12.013
49313W        W21573  41.229  21.151   3.628
49314W        W21574  34.976  40.388   5.258
49315W        W21575  19.704   4.927  13.386
49316W        W21576  21.256  41.886  12.863
49317W        W21577  21.072  43.370  12.371
49318W        W21578  29.477  25.545   3.754
49319W        W21579  39.319  28.588  11.197
49320W        W21580  15.761  17.667  13.777
49321W        W21581  44.353  12.225   2.898
49322W        W21582  33.814  34.631  11.076
49323W        W21583  25.095  44.943   4.920
49324W        W21584  26.455  10.064   4.956
49325W        W21585  22.590  22.891   1.660
49326W        W21586  37.547  39.547  12.375
49327W        W21587  44.785  35.345   0.981
49328W        W21588  10.820  33.425   3.632
49329W        W21589  27.097   1.099   2.757
49330W        W21590  44.332  26.891  13.257
49331W        W21591  38.388   2.338  10.361
49332W        W21592  37.897  16.037   1.754
49333W        W21593  17.137  23.698  12.412
49334W        W21594  20.250  34.094   2.761
49335W        W21595  16.216  14.655   1.341
49336W        W21596  39.767  22.691  13.365
49337W        W21597  23.762  22.200  13.309
49338W        W21598  24.633  39.370   3.237
49339W        W21599   9.197  32.529   2.305
49340W        W21600  14.033   6.951  13.483
49341W        W21601  33.143  38.015  12.071
49342W        W21602  13.292  21.691  11.679
49343W        W21603   9.119  38.126  10.654
49344W        W21604  34.747  15.085  12.126
49345W        W21605  20.201  40.978  12.207
49346W        W21606  38.464  26.771  13.087
49347W        W21607  31.921   4.754   1.460
49348W        W21608  35.651   4.895  13.843
49349W        W21609  39.021   1.437   1.112
49350W        W21610  25.619  32.352   4.575
49351W        W21611  39.806  23.550   3.241
49352W        W21612  27.029  11.688  14.863
49353W        W21613  24.537  41.812  12.638
49354W        W21614  24.247  35.716  12.943
49355W        W21615   7.990  40.855  11.568
49356W        W21616  10.133  24.418  11.972
49357W        W21617   4.903  17.803  14.768
49358W        W21618  27.486   0.999   1.278
49359W        W21619  18.706  39.424  12.936
49360W        W21620   6.871   7.617  11.544
49361W        W21621  35.731  20.860  11.901
49362W        W21622  25.884  36.156   4.045
49363W        W21623  25.605  39.476  14.431
49364W        W21624  32.555  32.071  13.081
49365W        W21625   7.553  12.223   4.469
49366W        W21626  24.434   2.440   1.441
49367W        W21627  38.563  38.812   0.027
49368W        W21628   6.609  22.299  13.117
49369W        W21629  10.216  16.056   1.286
49370W        W21630  40.367  16.054   3.698
49371W        W21631  30.766  14.883   0.463
49372W        W21632  40.926  37.402   4.295
49373W        W21633  41.798  35.039   3.550
49374W        W21634  35.394  20.622  11.629
49375W        W21635  34.671   9.874  11.667
49376W        W21636   8.548  43.244   0.608
49377W        W21637  34.462   5.275  11.438
49378W        W21638  10.325   0.402  10.546
49379W        W21639  41.460  23.983   3.690
49380W        W21640  10.868  42.932   3.214
49381W        W21641  15.650  10.969   3.720
49382W        W21642   1.410  16.799   0.046
49383W        W21643   1.913  21.315  13.365
49384W        W21644  22.545  41.297   1.331
49385W        W21645  20.643  40.416   3.808
49386W        W21646  20.421   1.427  11.103
49387W        W21647  10.758  12.757  12.400
49388W        W21648  18.998  11.722   3.712
49389W        W21649  20.697   7.951   4.480
49390W        W21650  26.140  39.591   9.939
49391W        W21651  27.330  42.792  11.106
49392W        W21652  20.980  37.565   4.619
49393W        W21653  24.616   1.841   4.566
49394W        W21654   8.643  15.065   2.571
49395W        W21655  11.461  13.820  12.145
49396W        W21656  21.311  23.016  10.911
49397W        W21657  23.279  12.841   0.317
49398W        W21658  39.813   3.552  14.024
49399W        W21659   9.754  12.587  14.563
49400W        W21660  30.427  41.602  13.895
49401W        W21661  11.160   6.913  12.362
49402W        W21662  35.965  20.554  14.066
49403W        W21663  16.663  42.233   4.340
49404W        W21664  14.909  33.998  10.627
49405W        W21665   1.256   7.297   1.042
49406W        W21666  41.496   9.955   4.101
49407W        W21667  37.696   2.334   0.939
49408W        W21668  40.001   4.336  10.446
49409W        W21669   7.681  19.619   1.834
49410W        W21670  12.853  39.845  12.647
49411W        W21671  26.174  32.464   0.221
49412W        W21672  26.019   8.847  14.319
49413W        W21673  39.261  17.139   4.573
49414W        W21674  44.750  19.380  12.073
49415W        W21675  10.159   5.848   1.480
49416W        W21676  14.928   4.435   2.836
49417W        W21677   9.686  15.276   3.571
49418W        W21678  21.176   4.045   2.221
49419W        W21679  11.867  33.667  13.095
49420W        W21680  35.498  30.187  11.638
49421W        W21681  21.771  11.820  12.433
49422W        W21682   8.871  31.297  13.369
49423W        W21683   3.405  22.557  12.540
49424W        W21684  33.640  17.101  14.028
49425W        W21685   8.873  20.734   0.296
49426W        W21686  40.517  22.137   4.194
49427W        W21687  35.432  22.033   3.379
49428W        W21688  35.325   7.530  11.155
49429W        W21689  41.311  24.493  14.964
49430W        W21690  16.802  23.714   5.059
49431W        W21691   4.856   0.078   3.534
49432W        W21692  14.974  16.220   0.235
49433W        W21693  25.118  25.921  12.825
49434W        W21694   2.406  44.565  10.320
49435W        W21695  42.011  30.047  11.604
49436W        W21696   3.456  22.945   0.807
49437W        W21697  21.564  35.816   2.914
49438W        W21698  34.483  33.210   0.447
49439W        W21699  29.132   8.846  14.948
49440W        W21700  38.267   4.015  14.827
49441W        W21701  13.642  44.040   2.394
49442W        W21702  38.392  25.766   0.868
49443W        W21703  16.368  26.930  10.808
49444W        W21704  30.960  18.748  10.493
49445W        W21705  12.061  18.126   2.243
49446W        W21706  32.708   2.322  12.470
49447W        W21707  33.833  19.208   3.891
49448W        W21708  21.860   6.583   1.790
49449W        W21709  33.505  17.647   1.910
49450W        W21710  27.112   5.786  13.449
49451W        W21711   6.326  41.386   3.737
49452W        W21712  28.561  17.147  10.720
49453W        W21713  19.637  43.521   3.930
49454W        W21714  15.456   0.112   2.847
49455W        W21715  22.817  23.626  14.750
49456W        W21716  33.392  42.838  14.558
49457W        W21717  20.409  30.122  11.181
49458W        W21718  39.331  26.193   0.791
49459W        W21719  44.544  29.414  12.185
49460W        W21720  16.380  10.691  13.424
49461W        W21721   5.302  29.003   1.464
49462W        W21722  19.286  36.425  12.733
49463W        W21723  28.228  27.886  14.173
49464W        W21724  37.836   8.744   2.561
49465W        W21725   2.907   3.961   3.137
49466W        W21726  32.541  31.162  12.487
49467W        W21727  20.772  19.876  12.826
49468W        W21728  18.295  27.113  12.988
49469W        W21729  27.964  11.385   0.261
49470W        W21730   3.711  44.539   0.530
49471W        W21731  42.564  13.860  12.983
49472W        W21732  42.640  14.338   1.736
49473W        W21733  14.657  19.045   2.372
49474W        W21734  39.626  28.830  11.876
49475W        W21735  43.507   4.826   3.164
49476W        W21736  35.071  42.398  14.956
49477W        W21737  33.350  33.365   0.866
49478W        W21738  31.023  18.179  13.839
49479W        W21739  18.315  17.266   2.123
49480W        W21740  12.172  11.257  12.616
49481W        W21741   4.627  11.938  10.309
49482W        W21742   2.753  23.738   4.846
49483W        W21743  26.242  32.026  14.978
49484W        W21744  10.101  43.389   1.661
49485W        W21745  15.171   7.436   1.905
49486W        W21746  37.376  35.576   3.609
49487W        W21747  13.807  10.719   1.929
49488W        W21748   3.017  15.867   1.219
49489W        W21749   6.701   2.509   0.517
49490W        W21750  33.908  16.710  13.827
49491W        W21751   4.284   5.463  12.998
49492W        W21752  29.561  16.913  10.786
49493W        W21753  42.034   4.291  10.676
49494W        W21754   0.747   7.955  14.541
49495W        W21755  41.552  11.296  13.591
49496W        W21756  12.908  38.347   2.304
49497W        W21757  18.095  25.928  12.176
49498W        W21758  19.694  38.663  11.344
49499W        W21759  12.716  23.475   4.874
49500W        W21760  31.105  17.073  11.419
49501W        W21761  23.979  10.755  13.777
49502W        W21762   7.463  13.214  13.687
49503W        W21763  16.910   4.492   2.773
49504W        W21764  25.483   2.144   3.644
49505W        W21765   3.323   2.787  11.790
49506W        W21766  14.447  41.220   4.137
49507W        W21767  20.893  37.416   2.972
49508W        W21768  41.588  42.828  11.412
49509W        W21769  37.122  20.660  10.343
49510W        W21770  36.631  39.321  10.944
49511W        W21771  44.055  26.452   0.852
49512W        W21772  19.682  14.863  12.859
49513W        W21773   4.304   5.752   4.462
49514W        W21774   6.269  17.162  11.901
49515W        W21775  14.084  25.024   2.469
49516W        W21776  28.073  26.112   0.719
49517W        W21777  16.704  15.837   2.037
49518W        W21778   0.084  14.650  13.969
49519W        W21779  31.869  17.049  10.889
49520W        W21780  27.683  19.653  14.294
49521W        W21781  12.528   5.888  14.945
49522W        W21782   6.936  21.281  13.996
49523W        W21783  22.047   3.194   4.552
49524W        W21784  42.202  30.466   4.045
49525W        W21785  35.272  29.990   0.238
49526W        W21786   2.327   4.225  11.596
49527W        W21787   9.914  19.252   3.723
49528W        W21788  43.375  28.480   3.226
49529W        W21789  36.015   2.265  12.446
49530W        W21790  31.114  14.075   3.125
49531W        W21791  11.271   8.872   4.955
49532W        W21792  27.613  12.849   0.836
49533W        W21793  32.549  42.472   2.680
49534W        W21794   4.978  25.123  12.071
49535W        W21795  22.705   8.845   2.801
49536W        W21796  23.603  25.647   3.208
49537W        W21797  25.641  26.598  13.959
49538W        W21798  44.736  31.753  10.098
49539W        W21799  12.495  13.707   4.638
49540W        W21800   7.622  31.027   1.721
49541W        W21801  37.071  10.444  13.508
49542W        W21802  37.849   8.862   3.552
49543W        W21803  28.868  35.429   2.772
49544W        W21804   4.031  13.718  11.386
49545W        W21805  23.426   2.837  11.000
49546W        W21806  11.436  42.299  14.395
49547W        W21807  37.616  34.798  13.108
49548W        W21808  26.644   0.322  11.911
49549W        W21809  19.682   8.788   2.565
49550W        W21810   3.443  13.092   2.009
49551W        W21811  42.818  26.762  11.709
49552W        W21812   2.342  25.498   3.519
49553W        W21813   2.250  15.981  11.383
49554W        W21814  17.642  25.691   0.710
49555W        W21815   7.288  14.165  13.208
49556W        W21816  34.347  38.902  14.121
49557W        W21817  21.944   8.428  13.067
49558W        W21818  26.938  30.965  14.458
49559W        W21819  17.656  42.235  12.056
49560W        W21820   2.365   5.890   0.277
49561W        W21821  24.165  37.458  14.297
49562W        W21822  20.024   4.671  12.572
49563W        W21823  39.142  26.547   1.554
49564W        W21824  39.383   0.053   3.214
49565W        W21825  40.832  24.495   2.593
49566W        W21826  43.517   6.461   0.307
49567W        W21827   8.188  24.459   0.022
49568W        W21828  12.452  22.613   2.232
49569W        W21829  13.790  13.657   3.377
49570W        W21830  25.103  22.505  14.948
49571W        W21831  11.102  10.873  14.862
49572W        W21832  15.564   8.723  12.808
49573W        W21833  28.112  17.627  10.921
49574W        W21834  36.131  36.004  13.559
49575W        W21835  21.755  38.832   1.838
49576W        W21836  24.272  10.833  12.850
49577W        W21837  41.741  31.298  13.912
49578W        W21838   6.879  31.875  14.455
49579W        W21839  41.764  13.756  12.271
49580W        W21840  14.533  29.009   2.844
49581W        W21841  37.956  11.738  10.726
49582W        W21842   5.972  12.644   0.925
49583W        W21843   1.784  27.008   2.732
49584W        W21844  36.427  29.189  10.680
49585W        W21845  34.050   4.199   4.622
49586W        W21846   0.542   0.917  12.033
49587W        W21847  42.511  19.610   2.519
49588W        W21848  12.734  43.593  14.381
49589W        W21849  43.492   2.848  11.088
49590W        W21850  33.906  33.589   3.670
49591W        W21851  36.604  33.179  11.818
49592W        W21852   7.925  41.409   4.656
49593W        W21853  35.857  33.682   1.057
49594W        W21854  14.803   0.851   0.931
49595W        W21855  40.902   9.939  10.226
49596W        W21856  25.267   3.288  10.742
49597W        W21857  32.927  31.342   4.517
49598W        W21858  38.445  39.440  12.410
49599W        W21859   2.729  14.154   4.576
49600W        W21860  39.519  39.642   1.625
49601W        W21861  28.608  33.613   0.491
49602W        W21862   6.677  42.777  12.066
49603W        W21863  35.155  39.551   4.061
49604W        W21864   3.194  23.148  12.813
49605W        W21865  26.745   8.369  10.461
49606W        W21866  26.434  21.657   4.349
49607W        W21867  18.500  36.521   0.889
49608W        W21868  22.473  44.421   3.150
49609W        W21869  20.218   4.250   4.377
49610W        W21870   9.140   1.942   0.057
49611W        W21871   2.260  19.372  10.739
49612W        W21872  36.391  11.393  13.262
49613W        W21873  26.335   4.484   4.106
49614W        W21874  19.948  29.123   2.506
49615W        W21875  24.973  14.365   4.108
49616W        W21876  35.685  41.525  12.715
49617W        W21877  18.610  27.649  12.004
49618W        W21878   9.919  33.493  13.052
49619W        W21879   0.860  33.106   4.336
49620W        W21880  12.665  33.141   4.443
49621W        W21881  22.195  39.646   1.053
49622W        W21882  10.168  43.850  11.202
49623W        W21883  29.875  22.518   4.900
49624W        W21884  44.786  16.889   0.449
49625W        W21885  18.722   7.125   0.454
49626W        W21886  35.614  23.914  14.412
49627W        W21887  36.004  25.176  11.045
49628W        W21888  40.322  10.707  12.624
49629W        W21889  23.529  31.848  14.734
49630W        W21890  17.347   6.413   9.948
49631W        W21891   3.935  13.173   2.815
49632W        W21892  20.216  25.165   4.991
49633W        W21893  25.123  16.068   1.187
49634W        W21894  42.458  41.628   3.338
49635W        W21895   1.249  13.811   4.502
49636W        W21896  21.104   4.763   0.475
49637W        W21897  27.238  29.991  13.300
49638W        W21898  38.628  12.724  14.941
49639W        W21899  37.313  19.704   4.563
49640W        W21900  19.376  22.922  14.804
49641W        W21901  12.463  37.724   0.102
49642W        W21902   6.921  16.247   1.542
49643W        W21903  29.424  11.299   1.730
49644W        W21904  23.783  10.678   3.311
49645W        W21905   3.411   4.166   1.379
49646W        W21906  41.889   0.488   0.460
49647W        W21907  28.101  42.940  12.797
49648W        W21908   8.699  21.085   4.726
49649W        W21909  16.110   8.317   2.305
49650W        W21910   7.259  36.407  10.702
49651W        W21911  16.888  26.423   2.170
49652W        W21912   7.344   5.675   3.759
49653W        W21913  36.181  33.051  11.122
49654W        W21914  44.363  22.345   4.575
49655W        W21915  10.654  33.298  10.725
49656W        W21916  29.550  20.089   1.070
49657W        W21917  22.218   6.008  11.731
49658W        W21918   2.180  32.240   3.642
49659W        W21919   9.244  15.237   1.921
49660W        W21920  12.464   3.350   1.407
49661W        W21921  24.664  33.749   3.168
49662W        W21922  10.187  10.849  13.864
49663W        W21923  28.066  10.509   3.671
49664W        W21924   0.942  11.960   3.196
49665W        W21925  23.490  43.150   3.219
49666W        W21926  20.858  12.101  13.088
49667W        W21927  34.064  33.423  11.542
49668W        W21928   7.190  21.666  11.247
49669W        W21929   5.898  19.212  10.418
49670W        W21930  15.756   5.228  12.463
49671W        W21931   9.295  20.438   4.605
49672W        W21932  26.027  30.918  13.533
49673W        W21933  39.252  26.926  12.455
49674W        W21934   4.616  40.325   3.317
49675W        W21935  18.215  22.388  13.169
49676W        W21936   9.246  26.209   3.502
49677W        W21937  19.114  37.791  14.407
49678W        W21938   5.315  42.023  13.252
49679W        W21939  42.999  21.514   3.719
49680W        W21940  34.578  41.066  11.212
49681W        W21941  22.211   5.709   0.697
49682W        W21942  28.949   6.076   1.426
49683W        W21943  14.182  36.233   0.350
49684W        W21944   6.225   1.013  14.472
49685W        W21945  37.331  22.698   2.898
49686W        W21946   3.295  21.168   0.016
49687W        W21947  26.997   9.261   3.204
49688W        W21948  19.548  15.791  13.957
49689W        W21949  26.138   4.518  12.997
49690W        W21950  44.204   5.107  14.756
49691W        W21951  24.442  33.508  12.394
49692W        W21952  18.562  28.886  11.458
49693W        W21953  18.105  28.018   4.133
49694W        W21954  13.983  28.949   2.843
49695W        W21955  11.625   6.467  14.281
49696W        W21956  11.547  27.680   2.038
49697W        W21957  18.147  26.519   0.091
49698W        W21958   8.782  29.106   2.872
49699W        W21959   5.671  12.325  13.560
49700W        W21960   6.913  12.156   4.277
49701W        W21961  15.211   7.678  11.526
49702W        W21962  40.997  44.823   4.770
49703W        W21963   9.706  10.267  14.770
49704W        W21964   7.270  19.275  14.845
49705W        W21965  20.138  38.030  13.411
49706W        W21966  43.070  40.948  14.853
49707W        W21967  39.804  21.664   4.634
49708W        W21968  44.751  18.555   4.361
49709W        W21969  22.216  24.839  11.854
49710W        W21970   9.068  44.191   3.234
49711W        W21971  29.704  21.130   1.803
49712W        W21972  15.792  23.033  11.916
49713W        W21973  43.982   3.697   4.608
49714W        W21974  39.345  20.154   3.080
49715W        W21975  21.176  20.986  11.976
49716W        W21976   2.435  43.841   4.494
49717W        W21977  44.427  28.338   2.898
49718W        W21978  13.896  35.956  12.048
49719W        W21979  24.113  24.076  13.333
49720W        W21980  22.456  29.777   1.615
49721W        W21981  15.983   5.880  11.382
49722W        W21982  38.116   9.735   4.115
49723W        W21983   7.347  24.418  10.746
49724W        W21984   7.635  27.008  13.056
49725W        W21985  39.737  37.070  12.929
49726W        W21986  23.967  44.494   2.250
49727W        W21987  22.645   0.535  10.738
49728W        W21988  37.700  29.090  14.897
49729W        W21989  22.307  31.734   1.317
49730W        W21990  32.074  19.869   4.086
49731W        W21991  43.891  41.510   3.329
49732W        W21992  12.884   0.937  12.685
49733W        W21993  38.934  35.575   1.982
49734W        W21994  19.903  42.420   0.041
49735W        W21995  13.649  36.308  11.103
49736W        W21996  43.698  30.126   1.871
49737W        W21997  18.292  26.577   2.659
49738W        W21998  40.337  37.386  13.780
49739W        W21999  19.642  38.327   0.038
49740W        W22000  14.299  35.019   3.606
49741W        W22001   1.192   8.983   0.369
49742W        W22002   9.859   0.424  12.433
49743W        W22003   6.867  24.495  11.025
49744W        W22004  14.391  42.516   3.241
49745W        W22005  38.412  30.680   4.098
49746W        W22006   0.286  21.131   3.105
49747W        W22007  21.247  31.850   0.493
49748W        W22008  43.223  25.000   4.155
49749W        W22009  32.035  44.954   4.280
49750W        W22010  23.956  44.454   4.702
49751W        W22011  29.972  19.247  10.693
49752W        W22012  35.928  21.672   2.687
49753W        W22013  25.401  14.413   2.717
49754W        W22014  26.259  11.409   0.261
49755W        W22015   9.084  29.121   1.725
49756W        W22016  30.747   8.134   2.295
49757W        W22017   0.727  43.025   2.805
49758W        W22018  40.512  23.511   1.728
49759W        W22019  27.024   6.557  11.888
49760W        W22020  18.722  30.615   2.361
49761W        W22021  40.926  37.809   4.724
49762W        W22022  30.100  23.605  11.868
49763W        W22023  38.920  23.229   4.648
49764W        W22024  35.787  34.053  11.224
49765W        W22025  23.674  28.445  10.126
49766W        W22026   9.656  37.532  11.242
49767W        W22027  33.477  34.951   2.830
49768W        W22028   8.755   3.778  10.856
49769W        W22029  16.763  41.264   0.862
49770W        W22030  12.282  10.635  14.303
49771W        W22031  32.232   3.627   4.985
49772W        W22032  16.638   8.056  13.211
49773W        W22033  12.245  31.019  11.788
49774W        W22034  28.958   3.729   1.290
49775W        W22035  15.815  30.029  12.434
49776W        W22036  35.745  29.586  14.994
49777W        W22037  21.772   6.433   3.218
49778W        W22038  29.826  43.097  13.385
49779W        W22039  42.535   6.395   3.627
49780W        W22040  26.057  31.330  13.830
49781W        W22041  20.846  12.336  11.092
49782W        W22042  39.965  12.152  11.536
49783W        W22043  27.565  15.305  10.570
49784W        W22044   8.390  18.513   1.299
49785W        W22045  30.044   5.823   3.637
49786W        W22046  35.556  24.039   4.513
49787W        W22047  42.952  37.215  11.112
49788W        W22048   7.819  32.051  13.109
49789W        W22049  16.854  34.414  13.449
49790W        W22050  30.184  20.619  14.836
49791W        W22051   4.381   4.385   2.258
49792W        W22052  19.277   4.686   4.074
49793W        W22053  28.811  11.666  11.154
49794W        W22054  22.043  32.536   2.773
49795W        W22055  25.216  38.909   1.688
49796W        W22056  16.362  20.066  14.838
49797W        W22057  28.224   1.418   0.289
49798W        W22058  40.064  34.776  13.850
49799W        W22059  19.235  41.551  14.844
49800W        W22060  27.834   5.320  12.638
49801W        W22061  36.627  19.637  14.214
49802W        W22062   8.520  37.844   4.646
49803W        W22063  31.591  10.659   1.489
49804W        W22064  10.640   6.368   0.393
49805W        W22065   5.847  20.010   1.790
49806W        W22066  14.766   2.947  14.042
49807W        W22067   8.110  14.253   1.521
49808W        W22068  36.822   9.763  12.534
49809W        W22069   8.682   2.219  12.522
49810W        W22070  20.926  18.843   0.075
49811W        W22071  34.584  40.233  14.361
49812W        W22072   3.360   5.308   1.215
49813W        W22073  30.134   9.627  13.370
49814W        W22074  25.979  41.850  11.630
49815W        W22075  21.772   3.151   0.206
49816W        W22076   3.082   5.240   1.729
49817W        W22077  10.383  18.265  10.727
49818W        W22078   5.154  43.866  10.698
49819W        W22079  24.324  35.478  12.100
49820W        W22080  17.608  32.565  10.634
49821W        W22081  28.595  22.691  13.837
49822W        W22082   7.835  10.928  11.086
49823W        W22083   8.419  29.137   0.288
49824W        W22084   7.890  12.833   3.720
49825W        W22085   1.865  38.121  14.842
49826W        W22086  35.614  30.685  11.678
49827W        W22087  25.963  37.575  11.853
49828W        W22088  27.364  20.451  12.913
49829W        W22089   2.769  10.218  14.819
49830W        W22090  14.761  26.222   4.777
49831W        W22091  13.365  40.102   2.336
49832W        W22092   8.357   3.190  12.497
49833W        W22093   8.270  30.494   4.079
49834W        W22094  19.249   0.012  13.048
49835W        W22095  37.299  18.647  10.741
49836W        W22096  35.504  31.076   2.210
49837W        W22097   5.287   8.908   4.457
49838W        W22098  36.053  11.150  11.967
49839W        W22099  36.813  33.840  13.644
49840W        W22100  11.313   1.212   2.208
49841W        W22101  36.517   0.407   1.806
49842W        W22102  28.437  27.906   2.401
49843W        W22103  11.431  40.927  12.504
49844W        W22104  39.628  21.329   2.607
49845W        W22105  42.179  42.933   2.866
49846W        W22106  27.617   9.723  13.832
49847W        W22107  14.077  42.944  11.634
49848W        W22108  19.024  25.531  12.923
49849W        W22109  38.375  35.595   3.903
49850W        W22110  38.502  23.969  10.693
49851W        W22111  16.598  44.834   3.851
49852W        W22112  12.526  40.009  14.797
49853W        W22113  10.443  23.868  14.853
49854W        W22114  44.941  31.053   0.418
49855W        W22115  29.926  15.758   4.067
49856W        W22116  33.023  11.036   0.279
49857W        W22117   9.562  41.887   3.997
49858W        W22118   8.819  36.366  11.168
49859W        W22119  21.745  14.902   0.276
49860W        W22120  26.066  29.402  13.405
49861W        W22121  12.114  42.335  13.767
49862W        W22122  29.455   8.610  10.321
49863W        W22123  35.053   3.605   2.429
49864W        W22124  27.407  13.679   2.290
49865W        W22125  23.448  25.307   1.983
49866W        W22126  36.444  16.582   2.343
49867W        W22127  20.957  16.139   3.319
49868W        W22128  16.233  19.551  14.815
49869W        W22129  40.542   0.187   4.758
49870W        W22130  12.748  10.650  13.073
49871W        W22131  26.991  10.931   1.291
49872W        W22132  23.289  30.131  13.784
49873W        W22133  44.278  38.240   0.794
49874W        W22134  29.412   5.269   3.726
49875W        W22135  38.312  12.810  14.466
49876W        W22136  43.415  40.417  14.191
49877W        W22137  19.174  29.422   3.557
49878W        W22138   9.086  22.123  14.888
49879W        W22139   1.006   5.840   4.056
49880W        W22140  21.435  32.220  10.898
49881W        W22141  18.732  42.420   3.382
49882W        W22142   7.782  41.526   3.264
49883W        W22143   2.903  37.786   3.160
49884W        W22144  38.649  31.993   1.347
49885W        W22145   3.986  20.642   0.861
49886W        W22146  26.696  11.834   4.535
49887W        W22147  18.160  33.118  13.119
49888W        W22148  35.711  29.449  12.030
49889W        W22149  29.235   9.597  13.442
49890W        W22150  28.528  16.652   1.301
49891W        W22151  24.194  43.568   3.658
49892W        W22152  17.325  10.864   2.491
49893W        W22153  43.369  29.126  12.319
49894W        W22154   2.849  24.582  14.417
49895W        W22155  42.582  18.901  14.723
49896W        W22156   0.501  40.931   1.249
49897W        W22157  31.887  27.448   1.878
49898W        W22158  15.592  30.441   1.721
49899W        W22159  44.449  23.077  12.055
49900W        W22160  14.624  25.743  14.436
49901W        W22161  37.287  16.060  13.932
49902W        W22162   9.880  43.201  11.213
49903W        W22163  15.776  10.909   3.216
49904W        W22164  37.443  11.545  11.027
49905W        W22165  12.294  17.654  12.371
49906W        W22166   1.915  27.048   4.161
49907W        W22167   7.902  10.258  10.540
49908W        W22168  35.527  35.378   0.771
49909W        W22169  24.303  44.234  13.407
49910W        W22170   5.767  12.280  12.469
49911W        W22171  31.944  42.666   5.272
49912W        W22172  23.767  44.497  11.891
49913W        W22173   1.662  26.198  11.950
49914W        W22174  43.208  20.985  12.652
49915W        W22175   9.682  29.468  13.077
49916W        W22176  16.121   5.470  14.462
49917W        W22177   1.448  35.321   3.652
49918W        W22178  40.753  28.878   1.278
49919W        W22179  42.072  25.092   2.851
49920W        W22180  41.000  32.156   0.984
49921W        W22181  17.732  38.056  10.948
49922W        W22182  28.685   1.429  13.734
49923W        W22183  23.136  30.934  10.614
49924W        W22184  13.849  14.840   1.356
49925W        W22185  36.024   4.017  13.473
49926W        W22186  39.293  34.622  12.662
49927W        W22187  34.921  20.581  10.625
49928W        W22188  16.130  23.501   2.691
49929W        W22189  12.879  41.198  10.750
49930W        W22190  34.730   1.781   3.326
49931W        W22191  30.988  36.444   0.034
49932W        W22192  24.205  20.934   4.249
49933W        W22193  41.266  17.185   2.603
49934W        W22194   5.967  17.207   3.250
49935W        W22195  19.218   5.379   1.883
49936W        W22196  18.926  36.838  14.554
49937W        W22197   6.824  37.591  13.018
49938W        W22198  24.364  21.046  12.549
49939W        W22199  40.820   2.897   2.401
49940W        W22200  42.238   9.461  10.539
49941W        W22201  38.300  36.425  14.878
49942W        W22202  24.548   2.811   3.167
49943W        W22203  26.954  14.770  13.128
49944W        W22204  12.841  14.278   1.392
49945W        W22205  40.345  41.565  11.134
49946W        W22206  19.209  17.135  10.500
49947W        W22207   4.248  32.038  14.050
49948W        W22208  35.926   7.171   3.099
49949W        W22209  26.034   2.474  14.820
49950W        W22210  16.814  43.897   3.640
49951W        W22211   6.954  10.134   2.810
49952W        W22212  13.747  11.922   2.683
49953W        W22213  27.610  43.086  13.847
49954W        W22214   5.869  27.775  10.272
49955W        W22215  32.531  11.057   1.757
49956W        W22216  24.658  41.469  10.292
49957W        W22217  40.018  42.480  10.696
49958W        W22218  28.053  15.190  10.755
49959W        W22219   2.197  25.968   1.865
49960W        W22220   4.307  41.048  13.374
49961W        W22221   6.628   3.803   4.215
49962W        W22222   7.614  32.059  14.874
49963W        W22223  37.111  25.742  11.337
49964W        W22224   9.331  29.858  13.864
49965W        W22225  31.587  24.247   2.051
49966W        W22226  37.102  23.636   0.401
49967W        W22227  14.778   2.688  10.728
49968W        W22228  15.667  35.776   1.684
49969W        W22229  19.671  36.282  14.550
49970W        W22230  40.981  36.280   0.866
49971W        W22231  30.623  31.897   3.572
49972W        W22232   5.934  31.968  12.645
49973W        W22233   7.356  13.547  11.997
49974W        W22234  32.053  10.803   4.244
49975W        W22235  44.438  27.367  14.883
49976W        W22236   2.346  35.935  10.669
49977W        W22237   8.303  32.817  14.872
49978W        W22238  25.812  16.482  12.174
49979W        W22239  35.633  35.035   3.805
49980W        W22240  10.543  28.612  14.842
49981W        W22241  25.386  33.323  10.625
49982W        W22242  20.574  21.197   3.311
49983W        W22243  43.373   8.861  13.753
49984W        W22244  27.966   4.388  13.666
49985W        W22245  30.973  15.690  10.678
49986W        W22246  28.613   7.482  14.881
49987W        W22247  16.357  40.895   1.715
49988W        W22248  44.356  40.986   4.379
49989W        W22249   0.864   7.662  13.843
49990W        W22250  33.457  34.137   4.160
49991W        W22251  42.883  42.950   0.725
49992W        W22252  21.760   0.674   0.670
49993W        W22253  20.334  25.028   1.773
49994W        W22254  24.943  34.427   2.278
49995W        W22255   7.294  12.665   3.588
49996W        W22256  18.689  35.439  10.524
49997W        W22257  30.572  20.102   2.298
49998W        W22258  30.091  14.282   3.738
49999W        W22259  18.269  11.395  12.057
50000W        W22260   7.542  38.537   1.876
50001W        W22261  19.573   8.918   0.996
50002W        W22262  29.724  35.500   1.303
50003W        W22263  20.965  24.676  14.956
50004W        W22264  35.684   2.776   3.289
50005W        W22265  40.390   2.936   4.170
50006W        W22266  19.631  30.187   2.858
50007W        W22267  11.556   9.787   4.658
50008W        W22268  14.184  30.828  10.575
50009W        W22269  26.549  11.418   3.813
50010W        W22270  27.024  14.270   1.795
50011W        W22271   1.370  18.692   0.118
50012W        W22272  32.973  27.710  10.579
50013W        W22273  31.544  27.547   4.706
50014W        W22274  33.643   1.851   2.172
50015W        W22275  24.672   1.183   4.646
50016W        W22276  23.575  31.186   4.098
50017W        W22277   8.250  37.140  13.377
50018W        W22278  22.823  38.929  10.601
50019W        W22279  22.005  34.044   3.796
50020W        W22280  10.044  34.719  11.503
50021W        W22281  10.918  17.873  14.875
50022W        W22282  44.037  36.891  14.313
50023W        W22283  30.398  20.639   1.243
50024W        W22284  13.416  38.566   1.387
50025W        W22285  35.947  44.055   3.197
50026W        W22286   6.745   4.195  11.260
50027W        W22287  39.546  22.132   4.646
50028W        W22288  44.268  17.061   0.473
50029W        W22289  40.018  33.390  12.472
50030W        W22290  41.697  30.265  10.289
50031W        W22291   3.335  37.107   2.688
50032W        W22292   4.572  38.015   1.557
50033W        W22293  34.707  24.692   0.472
50034W        W22294  15.383  27.962   4.687
50035W        W22295  32.399  22.335  12.852
50036W        W22296  38.892   0.288   1.531
50037W        W22297  38.541  35.099  14.537
50038W        W22298  16.211  23.560  13.482
50039W        W22299  39.565  42.110   0.960
50040W        W22300  28.172  18.052  11.255
50041W        W22301   9.226  29.026  10.442
50042W        W22302  34.498  30.967  13.369
50043W        W22303  26.505  19.799   4.969
50044W        W22304   7.202   0.938   0.860
50045W        W22305  39.780  22.840   0.265
50046W        W22306  43.269   1.664   0.681
50047W        W22307  21.005  28.030   0.426
50048W        W22308  23.569  22.955  12.487
50049W        W22309  13.196  31.475  10.557
50050W        W22310  43.780  28.622   3.570
50051W        W22311  39.968   6.383  10.628
50052W        W22312  17.793  34.008   0.345
50053W        W22313  14.170   1.515   2.248
50054W        W22314  23.570   6.880   3.903
50055W        W22315  26.523   3.870  14.345
50056W        W22316  16.564  23.612   0.692
50057W        W22317  39.033  20.364   1.743
50058W        W22318  17.705  29.256   0.871
50059W        W22319  26.728  39.502  14.451
50060W        W22320  34.278   6.243   2.350
50061W        W22321  18.776  11.528   1.746
50062W        W22322  43.484  26.648  10.914
50063W        W22323  42.931  30.591  14.117
50064W        W22324  18.165   9.238   3.701
50065W        W22325  39.716  25.545  14.998
50066W        W22326  33.289  23.062  14.922
50067W        W22327  11.185  12.185  11.996
50068W        W22328  16.477  36.345  14.441
50069W        W22329  29.439  22.554  11.193
50070W        W22330  31.864  37.627  14.398
50071W        W22331  31.193  42.901  10.833
50072W        W22332  18.821  20.718  13.950
50073W        W22333  38.866  35.030   4.178
50074W        W22334  25.670  26.722  12.540
50075W        W22335   1.140  31.839   5.067
50076W        W22336   4.575  32.487   2.661
50077W        W22337  34.015  22.467   0.775
50078W        W22338  15.321  10.635   4.631
50079W        W22339   5.069  29.934  13.518
50080W        W22340   8.310  12.116   0.895
50081W        W22341  15.881   3.317  11.542
50082W        W22342  36.949   1.297  14.071
50083W        W22343  39.282  15.137   4.719
50084W        W22344  32.162  36.590   0.445
50085W        W22345   6.503  11.118   1.883
50086W        W22346  22.833  23.049   2.755
50087W        W22347  35.576  42.658  11.534
50088W        W22348  39.987  17.588   2.346
50089W        W22349  34.828  41.847  12.874
50090W        W22350  13.907   9.013  13.509
50091W        W22351   4.005  11.157   3.571
50092W        W22352  21.870  10.771   0.325
50093W        W22353  32.627  32.212   2.134
50094W        W22354  42.540  11.258   3.655
50095W        W22355  43.977   3.193   4.782
50096W        W22356  42.308  13.754  13.892
50097W        W22357  36.013  27.727   4.216
50098W        W22358  33.914  33.354  10.688
50099W        W22359  21.135  22.973   3.250
50100W        W22360  38.086   3.412  11.072
50101W        W22361  24.737  43.998   4.751
50102W        W22362  14.780  34.292  12.475
50103W        W22363  26.425  15.947   1.012
50104W        W22364  42.244  26.006   0.372
50105W        W22365   6.267   4.349  14.353
50106W        W22366  27.772  12.430  14.884
50107W        W22367  22.126  28.437   4.569
50108W        W22368  32.695  16.671  10.636
50109W        W22369  44.317  40.345   3.575
50110W        W22370  36.140  43.502   2.351
50111W        W22371  35.054  16.788   4.581
50112W        W22372  44.503  34.633   4.101
50113W        W22373  43.248  21.195  13.780
50114W        W22374  44.230   4.656  11.601
50115W        W22375  14.157  32.926   1.744
50116W        W22376  22.019  31.366  14.488
50117W        W22377  21.473   9.444  12.013
50118W        W22378  40.924   4.722  12.022
50119W        W22379  30.720  22.564  14.251
50120W        W22380  22.036  25.126  10.586
50121W        W22381  28.677  22.504   1.752
50122W        W22382  42.038  16.846   3.395
50123W        W22383   3.692  33.519   1.461
50124W        W22384   0.468   8.937   0.937
50125W        W22385  22.668  27.364   2.295
50126W        W22386   7.947  38.989  12.167
50127W        W22387  32.410  43.851   0.534
50128W        W22388  12.602  30.169  10.660
50129W        W22389   7.222  20.810   1.894
50130W        W22390  23.236  36.930   2.838
50131W        W22391  24.080  35.250   2.015
50132W        W22392  41.091   8.399   1.065
50133W        W22393  21.687  37.162   2.462
50134W        W22394  30.315  10.904   4.943
50135W        W22395  36.388  18.022  11.589
50136W        W22396  38.188   0.982   4.195
50137W        W22397  36.383   9.017   0.737
50138W        W22398   7.232  38.132  11.074
50139W        W22399  37.046  33.847   0.374
50140W        W22400  34.850  31.208  12.054
50141W        W22401   5.644  37.531  14.334
50142W        W22402  11.738  11.585   0.780
50143W        W22403   4.808  28.409  12.442
50144W        W22404  16.128  36.876   4.692
50145W        W22405  22.790  33.034  13.880
50146W        W22406  28.047  28.990  12.160
50147W        W22407  29.428  32.174  12.840
50148W        W22408  10.461  20.736  10.380
50149W        W22409  28.574  34.523  14.810
50150W        W22410   3.501  43.957  13.887
50151W        W22411  40.878  14.699  14.344
50152W        W22412   2.988  18.538  10.763
50153W        W22413   0.502  12.954  11.586
50154W        W22414  33.446  33.530   1.848
50155W        W22415  23.461   3.968   0.981
50156W        W22416  13.519  42.036   0.286
50157W        W22417  34.395  28.915   4.401
50158W        W22418  43.959   0.963   2.811
50159W        W22419  24.106  12.846  10.684
50160W        W22420   2.031   7.230  10.775
50161W        W22421  18.345   8.957  10.136
50162W        W22422  34.433  25.008  14.242
50163W        W22423  44.471  41.458   4.519
50164W        W22424  23.744  25.502   4.165
50165W        W22425  32.208  29.037   1.421
50166W        W22426  36.192   7.017  12.592
50167W        W22427  44.925  40.298   4.930
50168W        W22428  33.547  25.423   1.578
50169W        W22429  39.530  12.761   1.473
50170W        W22430  13.086  39.759   4.084
50171W        W22431  10.763  24.098   1.437
50172W        W22432   3.780  17.376  11.511
50173W        W22433  26.753  33.056  10.622
50174W        W22434  18.705  31.862  11.981
50175W        W22435  12.694   3.179   1.891
50176W        W22436  10.821  31.367   0.615
50177W        W22437  25.020  36.066  13.154
50178W        W22438  42.420  32.286   4.995
50179W        W22439  23.775  42.069  10.341
50180W        W22440  40.126  29.016   4.653
50181W        W22441  36.371  25.983  14.945
50182W        W22442  19.648   5.346   1.079
50183W        W22443  17.184  17.627  11.936
50184W        W22444  26.158   8.352   2.216
50185W        W22445  33.673  36.537   1.710
50186W        W22446  40.923   7.483   0.661
50187W        W22447  13.627  30.125  14.761
50188W        W22448  40.673  22.108   1.152
50189W        W22449  34.482  40.413  10.422
50190W        W22450  44.360  33.503   0.972
50191W        W22451  16.017  28.419   2.149
50192W        W22452  39.050   9.145   3.567
50193W        W22453  12.737  33.060  10.798
50194W        W22454  24.958  11.073  11.579
50195W        W22455  42.768  18.925  12.171
50196W        W22456   1.297  15.401   2.971
50197W        W22457  18.076  24.942  12.966
50198W        W22458  41.587   4.735  11.174
50199W        W22459  38.501  28.647  12.439
50200W        W22460  13.712  25.490   0.331
50201W        W22461  16.292  40.846  13.044
50202W        W22462  22.463   9.119   0.395
50203W        W22463  14.625   2.232  14.776
50204W        W22464  18.556  39.039  14.422
50205W        W22465  36.235  16.030  13.929
50206W        W22466  23.580   0.439   1.191
50207W        W22467  39.957   4.273   2.395
50208W        W22468  31.508   9.639   5.110
50209W        W22469  16.859  27.073   3.312
50210W        W22470   6.656  18.582   0.637
50211W        W22471  37.301  26.998  12.427
50212W        W22472   9.449   8.759  13.931
50213W        W22473   5.157  20.765  12.463
50214W        W22474   5.821   5.590  14.588
50215W        W22475   0.777  34.278  14.894
50216W        W22476  32.146  24.559  11.535
50217W        W22477  24.542  36.154  11.590
50218W        W22478  43.372  39.913  14.045
50219W        W22479  12.056   9.687   4.326
50220W        W22480   6.874  25.723  14.174
50221W        W22481   3.009  11.680  10.593
50222W        W22482  24.291  35.123  14.971
50223W        W22483  27.245  29.618   0.794
50224W        W22484  22.850   5.114   0.786
50225W        W22485   3.186  18.885   2.362
50226W        W22486  15.180  34.980   4.694
50227W        W22487  27.908  42.816   3.348
50228W        W22488  33.108  31.266   2.536
50229W        W22489   1.259  12.020   0.987
50230W        W22490   8.684  23.138  14.855
50231W        W22491   8.873  13.328   0.426
50232W        W22492  41.489  24.414  12.918
50233W        W22493   9.694  42.233   4.850
50234W        W22494  42.304  15.922   1.041
50235W        W22495  11.451   4.378  12.093
50236W        W22496   8.815  20.103   2.338
50237W        W22497   6.840  21.451  10.906
50238W        W22498  35.531  10.931   1.389
50239W        W22499  44.047   8.249   1.766
50240W        W22500  29.548  25.257  13.877
50241W        W22501  34.980  42.142   3.712
50242W        W22502  25.940   2.900  12.542
50243W        W22503  27.977  41.443   0.955
50244W        W22504   0.805  24.713  14.761
50245W        W22505  43.227   4.094  12.928
50246W        W22506  39.679  19.768   2.949
50247W        W22507   6.563  15.888   1.649
50248W        W22508   4.911   9.687  14.315
50249W        W22509  11.471  34.475  11.639
50250W        W22510  36.316  26.214   0.462
50251W        W22511  18.725  39.572   1.786
50252W        W22512  20.122  31.269   3.359
50253W        W22513   1.778   1.261  14.066
50254W        W22514  10.732  42.934  13.598
50255W        W22515  24.870  37.830  12.025
50256W        W22516  13.481  21.124  11.622
50257W        W22517  24.197  28.624   0.682
50258W        W22518  16.037  30.819   2.359
50259W        W22519  29.110  38.491   2.323
50260W        W22520  24.467  34.149  10.787
50261W        W22521  15.058  11.090  13.482
50262W        W22522  35.470  33.611   1.379
50263W        W22523  28.164   7.860  12.284
50264W        W22524  17.269  12.399  14.985
50265W        W22525  37.398   8.447  14.728
50266W        W22526   8.671   0.865  12.095
50267W        W22527   9.260  44.431  11.154
50268W        W22528  40.266  24.523  14.542
50269W        W22529  23.513  14.216   1.255
50270W        W22530   5.094  29.061   3.694
50271W        W22531  16.326  11.176   4.989
50272W        W22532   5.310   0.510   4.044
50273W        W22533   1.283  10.292  10.742
50274W        W22534  11.319  41.819  11.673
50275W        W22535  10.928  21.210  10.523
50276W        W22536   3.249  24.382  12.362
50277W        W22537  24.036  32.945   0.968
50278W        W22538  23.945  18.185  10.510
50279W        W22539   3.000  31.834  12.014
50280W        W22540  20.655  26.615   4.606
50281W        W22541  42.961  25.398  14.499
50282W        W22542  35.979   4.990   0.308
50283W        W22543  20.617   6.654   4.220
50284W        W22544  38.141  35.189   3.685
50285W        W22545  43.399  25.565  11.916
50286W        W22546   9.025  35.636   0.844
50287W        W22547  35.877  17.356  12.457
50288W        W22548  38.896  42.472  10.676
50289W        W22549  33.421  29.623  10.196
50290W        W22550  28.082  11.695  13.432
50291W        W22551  15.534  23.688  14.424
50292W        W22552   0.766  22.002   1.516
50293W        W22553  32.169  40.803   2.487
50294W        W22554  17.991  38.617  11.898
50295W        W22555  20.666  10.437   4.764
50296W        W22556  10.625  34.516   2.752
50297W        W22557   5.710  19.022  13.896
50298W        W22558  14.702  27.791  12.779
50299W        W22559  28.585  43.230   2.123
50300W        W22560  11.431  34.834   1.203
50301W        W22561  11.904   2.956   0.243
50302W        W22562  42.874  13.737   4.708
50303W        W22563  40.844   2.598  10.736
50304W        W22564  17.667   5.598   9.663
50305W        W22565   6.710  21.383   1.120
50306W        W22566  23.541  35.355  13.410
50307W        W22567  25.895   4.687   4.322
50308W        W22568  29.489  42.655   2.671
50309W        W22569  33.439  27.126  10.662
50310W        W22570  23.554  30.902  13.542
50311W        W22571  10.887  29.877  13.278
50312W        W22572   3.961  21.145   2.107
50313W        W22573  25.498  15.551  12.460
50314W        W22574  38.575  18.602   1.279
50315W        W22575  10.107  43.566  10.782
50316W        W22576  20.749  43.423  10.591
50317W        W22577   9.633  11.084  14.250
50318W        W22578  11.795  25.683  11.276
50319W        W22579  17.004   0.999   0.949
50320W        W22580  23.642  40.874  14.049
50321W        W22581   9.671  18.212  13.968
50322W        W22582  39.942   3.921  14.375
50323W        W22583  39.126  31.459   4.209
50324W        W22584  33.439   8.382  13.839
50325W        W22585  17.762  26.978   4.813
50326W        W22586  22.183  30.002  10.682
50327W        W22587   1.925  32.815   4.574
50328W        W22588  28.491  20.077  12.605
50329W        W22589  36.438  38.788  14.383
50330W        W22590   3.903   0.833  14.883
50331W        W22591  37.872  31.626   3.676
50332W        W22592   5.421  15.751  13.243
50333W        W22593  21.458  37.650   3.787
50334W        W22594   5.407  19.927  13.586
50335W        W22595  43.463  29.623   1.935
50336W        W22596  34.862  13.814  11.524
50337W        W22597  30.257   8.120   0.034
50338W        W22598   7.455  33.040   1.426
50339W        W22599  42.926  17.213   4.670
50340W        W22600  44.012  28.107  10.536
50341W        W22601   4.788  33.441  12.044
50342W        W22602  39.501  22.648  11.650
50343W        W22603  13.075  44.076   1.675
50344W        W22604  35.957  12.412  12.554
50345W        W22605   6.225  35.519   0.448
50346W        W22606   5.468  39.256   3.628
50347W        W22607  41.622  30.260  11.897
50348W        W22608  23.685   2.022  10.642
50349W        W22609  39.775  37.555  11.249
50350W        W22610  15.347  24.148  11.640
50351W        W22611   8.828  22.241  14.315
50352W        W22612   4.372  12.102  12.477
50353W        W22613  25.397  34.766   0.713
50354W        W22614  25.319  35.629   1.967
50355W        W22615  26.555  23.495  14.583
50356W        W22616  25.186  14.250  14.364
50357W        W22617  18.367  26.197  14.329
50358W        W22618  36.644  22.742  12.968
50359W        W22619  21.332  30.740  13.053
50360W        W22620  31.519  14.626   1.638
50361W        W22621  16.022   9.410  12.620
50362W        W22622  41.818  13.474   1.258
50363W        W22623   5.214  23.214  10.717
50364W        W22624  15.067   3.478  13.035
50365W        W22625  26.177   3.283   1.285
50366W        W22626   1.401   3.693   4.387
50367W        W22627  19.750  32.714  11.086
50368W        W22628  20.798  20.710   4.196
50369W        W22629  41.890  44.889   1.851
50370W        W22630  17.152  19.838   1.799
50371W        W22631   4.000   4.248  11.115
50372W        W22632   7.492   5.884   1.924
50373W        W22633  34.838  33.466  12.850
50374W        W22634  11.602  11.200   3.321
50375W        W22635  27.028   2.210   0.382
50376W        W22636   3.877  38.889   1.802
50377W        W22637  38.747  24.089  12.078
50378W        W22638   9.789  14.077   1.679
50379W        W22639  28.888  43.643  11.003
50380W        W22640  38.452  12.214   1.641
50381W        W22641  26.075  34.033   4.675
50382W        W22642  24.075   4.139  12.926
50383W        W22643  30.738  18.367  11.126
50384W        W22644  15.789  40.151  12.423
50385W        W22645  22.007  41.361  14.965
50386W        W22646  21.620   7.845   1.445
50387W        W22647  14.843  20.015  13.537
50388W        W22648  43.122  34.335   2.083
50389W        W22649   6.395   8.921  13.946
50390W        W22650  22.317   6.574  14.794
50391W        W22651  44.060  25.202   0.826
50392W        W22652  21.149  20.018  12.019
50393W        W22653  32.408   4.667  14.352
50394W        W22654  12.752  33.116   3.944
50395W        W22655  15.067  31.595  11.957
50396W        W22656  21.940  23.978   0.419
50397W        W22657   7.940   9.296   4.277
50398W        W22658  24.704   2.349   1.884
50399W        W22659  42.574  28.575  14.247
50400W        W22660  25.905  33.375  10.703
50401W        W22661  41.795  12.569  11.134
50402W        W22662   9.389  18.136  14.899
50403W        W22663  28.161  33.925  13.062
50404W        W22664  11.366  39.874  11.666
50405W        W22665   5.144  18.937   3.270
50406W        W22666  25.167  21.026   1.387
50407W        W22667  21.681  31.070   1.009
50408W        W22668   9.615  44.820   1.251
50409W        W22669  27.014   7.788   2.175
50410W        W22670   9.305  15.567   2.914
50411W        W22671  41.590   2.274   2.051
50412W        W22672  43.972  34.992  10.862
50413W        W22673  26.494   8.543   5.158
50414W        W22674   1.533  43.406   1.919
50415W        W22675  34.544   0.998  14.915
50416W        W22676   2.783  37.414   3.499
50417W        W22677  37.056  28.412  11.633
50418W        W22678  36.375  37.834   4.481
50419W        W22679  16.256  40.613  11.203
50420W        W22680  35.417   5.749   3.382
50421W        W22681   4.449  21.287   1.379
50422W        W22682  37.822  34.333  10.187
50423W        W22683   9.094  11.386  12.965
50424W        W22684   6.335  31.480   1.425
50425W        W22685  17.326  15.605   1.478
50426W        W22686  33.913  35.863   3.645
50427W        W22687  28.547  38.150   4.533
50428W        W22688  16.111  12.316   1.880
50429W        W22689  34.361  23.663   3.477
50430W        W22690  36.483  30.056   4.725
50431W        W22691   3.288   9.149  12.606
50432W        W22692  17.805  36.896  13.540
50433W        W22693  36.158  26.734   1.309
50434W        W22694  12.326  20.139  14.377
50435W        W22695   2.333  21.194   3.756
50436W        W22696   8.149  26.968  13.819
50437W        W22697  12.689   3.973   3.651
50438W        W22698   3.672  31.902   2.347
50439W        W22699  18.923  25.731  12.437
50440W        W22700  36.969  27.480   0.393
50441W        W22701  35.829  24.700   4.905
50442W        W22702  40.400  24.502   3.051
50443W        W22703  33.940   3.838  10.410
50444W        W22704  36.884  15.810   4.620
50445W        W22705  44.517  11.342  10.211
50446W        W22706  29.081   5.306   0.752
50447W        W22707  31.497   9.156   2.875
50448W        W22708  42.542   7.466  13.928
50449W        W22709   7.826  13.451  12.953
50450W        W22710  35.525  21.535   1.244
50451W        W22711   3.961  15.200  10.835
50452W        W22712   8.392  11.381   0.462
50453W        W22713  18.408  43.892  14.922
50454W        W22714   6.855  13.853   4.922
50455W        W22715  30.240  16.584  12.785
50456W        W22716  36.380  23.915  11.144
50457W        W22717   9.719  43.151   5.037
50458W        W22718  17.716  12.203  14.733
50459W        W22719  11.276  18.628   0.290
50460W        W22720  24.945  13.303   3.907
50461W        W22721  17.501  21.158  12.627
50462W        W22722  35.406   4.751   4.439
50463W        W22723  30.651  11.691   0.802
50464W        W22724  31.976  33.489  11.896
50465W        W22725  29.983  12.068  13.372
50466W        W22726   0.931  30.286  11.344
50467W        W22727  31.443  44.795  10.661
50468W        W22728   5.159  15.236  14.058
50469W        W22729  25.103   1.416   3.059
50470W        W22730  27.903  44.506   2.782
50471W        W22731  16.335  26.644   0.328
50472W        W22732  41.621  25.037  14.477
50473W        W22733  12.270  30.512   5.291
50474W        W22734   3.506  20.001   0.484
50475W        W22735  42.668  36.068   4.171
50476W        W22736  19.225   3.138  12.907
50477W        W22737  18.188   9.375  12.386
50478W        W22738  18.512  11.662   2.581
50479W        W22739  38.870  34.439   3.794
50480W        W22740   4.460   2.589   2.850
50481W        W22741  33.063  25.066   2.229
50482W        W22742  37.457   2.453   1.380
50483W        W22743  16.576  42.929  11.667
50484W        W22744  20.973  33.886   4.040
50485W        W22745  29.637   9.734  12.661
50486W        W22746  29.762  37.357   3.231
50487W        W22747  12.834  40.400   1.369
50488W        W22748  20.954   8.379   2.805
50489W        W22749   1.039   6.445  10.954
50490W        W22750  11.150  16.152   4.800
50491W        W22751  22.520  43.652  14.745
50492W        W22752  18.243  44.335   1.969
50493W        W22753   0.676  12.773   4.548
50494W        W22754  11.655   0.272   4.744
50495W        W22755   3.987  33.308  11.603
50496W        W22756  19.714  28.088  11.876
50497W        W22757  13.480  11.811  11.253
50498W        W22758  26.755  20.646   4.179
50499W        W22759  44.221  36.035   1.945
50500W        W22760  18.628   8.658   3.375
50501W        W22761   6.339  19.842  10.791
50502W        W22762   2.862  33.076   0.808
50503W        W22763   4.561   6.515  13.092
50504W        W22764  35.554  12.075   0.948
50505W        W22765  27.357  32.185   2.838
50506W        W22766  31.660   1.386  12.036
50507W        W22767   0.324  20.965  14.782
50508W        W22768  30.117  35.393   4.929
50509W        W22769  43.204   8.506   3.931
50510W        W22770  25.947  33.226   4.878
50511W        W22771  14.525  16.586   2.295
50512W        W22772  29.553  34.997   3.876
50513W        W22773  19.520  25.911   3.261
50514W        W22774  27.132  18.141   1.295
50515W        W22775  32.471  40.264  10.610
50516W        W22776  42.821   4.319  14.173
50517W        W22777  34.676  44.838   0.427
50518W        W22778  36.705  33.381  10.310
50519W        W22779   2.950  17.522  13.794
50520W        W22780  11.005   5.057  12.978
50521W        W22781  26.911   3.649   0.344
50522W        W22782  14.342   9.257   4.130
50523W        W22783   8.721  29.151  11.611
50524W        W22784   2.570  13.641   1.358
50525W        W22785  31.274  35.008  13.903
50526W        W22786  16.348   6.205   3.398
50527W        W22787   7.713   6.667  13.123
50528W        W22788  31.611  11.823  14.222
50529W        W22789  36.452  10.285  12.821
50530W        W22790  10.093   3.292  12.269
50531W        W22791  43.575  43.264  13.515
50532W        W22792   7.456  22.020  13.895
50533W        W22793  43.320  19.590   0.054
50534W        W22794  19.675  11.815  12.440
50535W        W22795  44.295  26.115   2.811
50536W        W22796  27.116  26.091   0.374
50537W        W22797  42.511   1.828   2.684
50538W        W22798  25.521  36.886  11.640
50539W        W22799  14.833  30.284  11.058
50540W        W22800  35.465  40.271   0.686
50541W        W22801  26.180   9.604   0.055
50542W        W22802   9.223  34.661  14.420
50543W        W22803  27.018  29.677   2.318
50544W        W22804  23.548   4.272   4.657
50545W        W22805  24.853   6.577   1.272
50546W        W22806  11.822  17.898  10.416
50547W        W22807  27.131  26.161   2.259
50548W        W22808  29.072  42.319   2.764
50549W        W22809  25.751  17.083   4.135
50550W        W22810  10.219   8.656   1.261
50551W        W22811  10.189  35.610  14.977
50552W        W22812  43.846   2.536   3.167
50553W        W22813  43.345  17.095  10.893
50554W        W22814  36.622  22.138  10.983
50555W        W22815  26.035  26.484  14.899
50556W        W22816  37.475   6.750  12.179
50557W        W22817   8.026  20.993   4.990
50558W        W22818   3.625  24.693   4.910
50559W        W22819  41.133  30.530  14.393
50560W        W22820  42.596  19.643  11.583
50561W        W22821  27.587  44.531  10.599
50562W        W22822   7.492  38.794   0.803
50563W        W22823   3.666  36.983   4.772
50564W        W22824  36.819  16.841   4.591
50565W        W22825  40.737   0.382  10.629
50566W        W22826  39.245  20.169   0.433
50567W        W22827  39.741  39.991  13.442
50568W        W22828   2.855  35.847   4.175
50569W        W22829  35.441  34.877  11.375
50570W        W22830  44.832   5.783   1.744
50571W        W22831   3.943  10.760   2.815
50572W        W22832  16.519  38.014  10.713
50573W        W22833   2.040  36.024   3.168
50574W        W22834  13.191   8.873   2.772
50575W        W22835  44.007   2.260   3.710
50576W        W22836   8.694   3.722  12.092
50577W        W22837   9.366   5.357   4.586
50578W        W22838   0.442   7.489  12.224
50579W        W22839  22.443  13.073   3.094
50580W        W22840  35.325  18.607   2.969
50581W        W22841  37.501  32.157  14.936
50582W        W22842  33.133  37.024   0.253
50583W        W22843  27.517   8.536   2.924
50584W        W22844  42.225  26.622   3.735
50585W        W22845   1.202  15.549  14.022
50586W        W22846  10.524   7.062  11.810
50587W        W22847  44.241  33.243  14.462
50588W        W22848  38.617  39.263   3.397
50589W        W22849  37.811  11.653  10.203
50590W        W22850  28.874  43.749   1.317
50591W        W22851  34.729  21.311  12.985
50592W        W22852  33.092  20.279   2.230
50593W        W22853  29.013  10.193   3.402
50594W        W22854  23.851  34.815  11.653
50595W        W22855  23.332  39.041  11.460
50596W        W22856  22.443  31.998   1.832
50597W        W22857  19.183   2.264  12.730
50598W        W22858   2.038  35.765  14.541
50599W        W22859  31.469   5.038  11.638
50600W        W22860   4.226  18.510   3.189
50601W        W22861  40.336  28.088  13.052
50602W        W22862  12.728  20.634  13.917
50603W        W22863  22.054  33.380   1.943
50604W        W22864  18.539  18.032  12.211
50605W        W22865  38.488  15.677   2.709
50606W        W22866  42.028  10.822   2.599
50607W        W22867   0.200  13.784   1.934
50608W        W22868  19.364  39.345  14.279
50609W        W22869   9.728  14.190   2.190
50610W        W22870   3.681  34.686   1.347
50611W        W22871  21.664  43.432   0.298
50612W        W22872   9.597   8.878   3.338
50613W        W22873  34.082  18.038  11.193
50614W        W22874  24.009  40.454   3.911
50615W        W22875  27.141  36.416  11.992
50616W        W22876   0.253   7.149  11.231
50617W        W22877  39.541  12.193   1.749
50618W        W22878  42.487  31.394   2.767
50619W        W22879  23.767  33.590   0.706
50620W        W22880  32.951  24.642   1.937
50621W        W22881  30.042  42.898   0.915
50622W        W22882  11.771  40.320   0.874
50623W        W22883   1.180  14.149  13.003
50624W        W22884   3.274  32.214  10.380
50625W        W22885  25.188  13.343  13.016
50626W        W22886  41.889  38.617   0.902
50627W        W22887  13.855  21.571  12.447
50628W        W22888  19.746  20.796  13.281
50629W        W22889  29.857  33.924   0.037
50630W        W22890   0.824  25.641  13.075
50631W        W22891  27.146  22.994  13.926
50632W        W22892  26.153  22.081  12.797
50633W        W22893   8.212  36.929   1.001
50634W        W22894   4.917  20.750   3.418
50635W        W22895  30.199  37.886   0.205
50636W        W22896  27.019   5.249  13.057
50637W        W22897   1.192  29.601   0.361
50638W        W22898  36.103  15.602   3.937
50639W        W22899  12.710  23.777   4.053
50640W        W22900  40.831  16.156  13.809
50641W        W22901  15.643  21.090  11.984
50642W        W22902  31.954   3.393  11.144
50643W        W22903  24.512  20.548  13.371
50644W        W22904  32.223  42.684   4.202
50645W        W22905  21.487  13.145   3.270
50646W        W22906  42.925  22.990   2.224
50647W        W22907  23.034  30.539  10.247
50648W        W22908  38.031  22.204  14.941
50649W        W22909  21.120  26.926  12.366
50650W        W22910   2.788  26.740  10.515
50651W        W22911   4.656  30.316   1.230
50652W        W22912   2.366   1.887   2.672
50653W        W22913   3.447  23.467   0.761
50654W        W22914  33.129  38.298   2.830
50655W        W22915  40.051  11.609  10.762
50656W        W22916  21.468  43.764  11.221
50657W        W22917  34.081   6.899  11.676
50658W        W22918  34.405   2.546   2.947
50659W        W22919  30.649   5.138  10.660
50660W        W22920  30.086   9.392   1.644
50661W        W22921   6.215  25.432   1.878
50662W        W22922  30.929  11.314   2.445
50663W        W22923  33.616  34.715   5.067
50664W        W22924  43.413   4.969   2.135
50665W        W22925  38.010  10.439  11.445
50666W        W22926   6.955  11.196  13.544
50667W        W22927  37.277  21.794  14.892
50668W        W22928  41.339  25.810  13.962
50669W        W22929  38.459  17.858  13.021
50670W        W22930   5.427  32.152  10.721
50671W        W22931   2.317  25.546   4.037
50672W        W22932  26.169  14.306   4.555
50673W        W22933  32.527  26.494   2.706
50674W        W22934  33.151  11.334   2.317
50675W        W22935  33.495  35.166   4.182
50676W        W22936  43.753  42.396  14.797
50677W        W22937  31.959   0.973  12.390
50678W        W22938   4.154   7.709   2.949
50679W        W22939  44.731  37.967  12.116
50680W        W22940  43.742  34.209   4.195
50681W        W22941  15.923  34.636  11.048
50682W        W22942  18.669  30.129  14.873
50683W        W22943  16.330   3.903   0.825
50684W        W22944  43.888  37.455  14.971
50685W        W22945  23.916  29.547   2.241
50686W        W22946  16.664   1.607   3.590
50687W        W22947   9.287   5.298  10.741
50688W        W22948  13.832  28.064  13.421
50689W        W22949  36.209  39.247   3.680
50690W        W22950  22.262  44.250   0.970
50691W        W22951  23.180  19.584   0.379
50692W        W22952  23.185  18.868  14.429
50693W        W22953   4.468  22.532  12.384
50694W        W22954  44.455   1.634   3.685
50695W        W22955  38.828  36.858  12.017
50696W        W22956  30.453   7.951   2.691
50697W        W22957   0.903   4.714  12.553
50698W        W22958  20.429  13.650  13.724
50699W        W22959  15.800  11.420   3.326
50700W        W22960  31.000  20.115   4.175
50701W        W22961  14.250  25.680   3.141
50702W        W22962   4.457  12.849  11.124
50703W        W22963  44.450  26.065  11.618
50704W        W22964  26.971  20.531  12.429
50705W        W22965  36.913   5.435  12.541
50706W        W22966   8.351  17.012  14.101
50707W        W22967   0.013  34.958  10.668
50708W        W22968   9.244  27.724  11.085
50709W        W22969  13.201  19.212   4.587
50710W        W22970  34.357   2.829  13.588
50711W        W22971  21.677  19.061  10.728
50712W        W22972   1.307  38.617  14.378
50713W        W22973  36.881  25.387   4.022
50714W        W22974  36.317  35.705  10.876
50715W        W22975  42.823  32.887   0.975
50716W        W22976  38.459  15.534   3.675
50717W        W22977  32.569  25.962  11.681
50718W        W22978  19.630  25.945   4.217
50719W        W22979  37.039  43.003  11.253
50720W        W22980  18.408   7.921   0.299
50721W        W22981  39.051  27.640   0.702
50722W        W22982  19.982  38.638   0.845
50723W        W22983  44.759  43.565  13.461
50724W        W22984  28.960   5.313  14.814
50725W        W22985  44.520  25.618   4.192
50726W        W22986  18.396  20.195  11.642
50727W        W22987  24.194  30.269   2.591
50728W        W22988  38.725  35.753   2.954
50729W        W22989  26.141  27.156  13.455
50730W        W22990  10.899  16.458  11.126
50731W        W22991  34.394   2.672   3.464
50732W        W22992  44.339  26.494   3.152
50733W        W22993   9.852   7.673   2.318
50734W        W22994  25.153  43.823   1.965
50735W        W22995  15.682  34.826  12.838
50736W        W22996  29.016  39.101  10.705
50737W        W22997  10.169  33.758  13.925
50738W        W22998  15.551  42.212  11.559
50739W        W22999  43.341   1.312  13.332
50740W        W23000  26.954  17.968  11.595
50741W        W23001  22.267   4.896   3.624
50742W        W23002   9.607   5.124   4.150
50743W        W23003  28.025  41.000   2.216
50744W        W23004  27.840  25.988   4.180
50745W        W23005   2.598  44.128   1.104
50746W        W23006  35.529  37.360   1.198
50747W        W23007   7.912  26.949   0.910
50748W        W23008  17.076  31.051  14.093
50749W        W23009  44.417  22.207   0.905
50750W        W23010   2.575   7.847   4.564
50751W        W23011  34.369  39.009  10.362
50752W        W23012  19.497  28.242   2.779
50753W        W23013  16.533  33.923   2.304
50754W        W23014  18.952  20.526   4.541
50755W        W23015  12.291  17.516   0.802
50756W        W23016  20.620  19.159   0.459
50757W        W23017  42.350   0.663   0.807
50758W        W23018   6.770  22.648   1.009
50759W        W23019  41.021  39.976  14.325
50760W        W23020   9.376   4.361  11.892
50761W        W23021   0.674   0.922   1.934
50762W        W23022  19.849  42.935   2.727
50763W        W23023  17.521  13.844  13.129
50764W        W23024  34.963  34.675   5.158
50765W        W23025   6.328  19.478   2.267
50766W        W23026   5.492  32.632   4.168
50767W        W23027   6.206  30.227  13.447
50768W        W23028  34.043  44.973  12.929
50769W        W23029  27.477  13.366   2.714
50770W        W23030  10.232  27.484   2.360
50771W        W23031  10.213  43.000  13.775
50772W        W23032   9.444  37.970  13.353
50773W        W23033  43.708  13.582  14.037
50774W        W23034   6.746  26.677   2.120
50775W        W23035  18.071   7.916  11.540
50776W        W23036   8.275   8.376  12.495
50777W        W23037  26.482   9.868  12.030
50778W        W23038   9.592  24.955  14.931
50779W        W23039  17.879  27.051   3.399
50780W        W23040  30.189  35.351  11.496
50781W        W23041  34.590   8.343   0.155
50782W        W23042  23.467  23.961  11.744
50783W        W23043  35.009   0.474  10.995
50784W        W23044  43.803  42.452   1.391
50785W        W23045  43.558  32.904   0.284
50786W        W23046  18.030  20.140  11.148
50787W        W23047  44.505  39.329   2.752
50788W        W23048  23.201   2.462   3.320
50789W        W23049   7.218  36.421   0.880
50790W        W23050  22.679  33.177   4.524
50791W        W23051  44.739  16.062   4.213
50792W        W23052  26.704  31.596   0.150
50793W        W23053  27.493   1.245  11.295
50794W        W23054  28.180  20.168  13.930
50795W        W23055  30.652  11.738  14.845
50796W        W23056  36.320  21.708  11.064
50797W        W23057  40.995  22.022   3.746
50798W        W23058   5.913  40.940  12.636
50799W        W23059   8.831  24.924  13.371
50800W        W23060  29.851  28.406   3.682
50801W        W23061  11.736  19.513  14.321
50802W        W23062  12.185  30.142   9.996
50803W        W23063  12.644  13.100   4.380
50804W        W23064  21.050  22.669  11.549
50805W        W23065  22.929  43.982  11.798
50806W        W23066   5.914   6.320   1.405
50807W        W23067   1.008   9.855   0.271
50808W        W23068  12.669  19.541   0.377
50809W        W23069  26.225   8.449   0.342
50810W        W23070   5.673  40.132  11.207
50811W        W23071  40.992   0.922  12.050
50812W        W23072  23.290  28.126   4.985
50813W        W23073  36.829  24.510   3.101
50814W        W23074  41.221  22.248   2.162
50815W        W23075   0.780  44.347   3.065
50816W        W23076  39.809  14.064  11.231
50817W        W23077  24.228  15.453  10.243
50818W        W23078  34.043  27.488  12.588
50819W        W23079  34.118  13.226  13.877
50820W        W23080  35.044  18.714  12.176
50821W        W23081  29.862  24.788  11.276
50822W        W23082   2.841  16.366   1.262
50823W        W23083  26.490  34.108  12.012
50824W        W23084  12.711  30.227   9.750
50825W        W23085  30.814  11.784   2.264
50826W        W23086  12.323  24.540   2.106
50827W        W23087  14.737  36.130  13.309
50828W        W23088  27.132  13.478   4.521
50829W        W23089   7.411   3.393   3.129
50830W        W23090  36.385  35.687   0.224
50831W        W23091  14.822  15.204  10.272
50832W        W23092   7.683  36.014   3.610
50833W        W23093   2.278  37.809  14.955
50834W        W23094  31.000  20.135  11.639
50835W        W23095  34.885  23.181   2.251
50836W        W23096  32.609   8.875  12.028
50837W        W23097  25.969  11.560  14.439
50838W        W23098  21.782  25.620   0.761
50839W        W23099   0.508  29.295  10.360
50840W        W23100  44.509  33.813  11.136
50841W        W23101  20.480  34.386  11.642
50842W        W23102  44.050  20.074   3.769
50843W        W23103  11.077   1.400  12.527
50844W        W23104  27.548  10.161  11.572
50845W        W23105  10.224  29.391   2.796
50846W        W23106  16.029  34.939   4.532
50847W        W23107  30.374  26.111  12.919
50848W        W23108  10.140   7.346  13.407
50849W        W23109  27.111   3.804  14.478
50850W        W23110  11.602   3.321  11.171
50851W        W23111  15.663   9.409  13.966
50852W        W23112  14.738  21.954   2.764
50853W        W23113  30.947  25.908   3.057
50854W        W23114   0.529  29.191  13.029
50855W        W23115  42.644  16.107   3.142
50856W        W23116   3.836   1.639  13.037
50857W        W23117  33.866  13.854  11.923
50858W        W23118  21.005  15.202  12.512
50859W        W23119   8.842   9.166  14.361
50860W        W23120  41.835   9.277  11.191
50861W        W23121   3.910  14.736  11.084
50862W        W23122  10.894  16.241   2.329
50863W        W23123  22.656  11.588   4.970
50864W        W23124  22.860   6.354   3.251
50865W        W23125  22.136  29.933  12.120
50866W        W23126  35.116  12.870   0.924
50867W        W23127  21.069  20.504   3.783
50868W        W23128   4.874  18.984   3.739
50869W        W23129  21.637   6.918   2.143
50870W        W23130   8.333  14.954  12.113
50871W        W23131  22.720   3.513   3.264
50872W        W23132   3.382  26.435  10.258
50873W        W23133  20.215  13.784   1.400
50874W        W23134  28.939  14.778   0.796
50875W        W23135  25.652  23.528  12.232
50876W        W23136  28.582   1.750   0.689
50877W        W23137  37.334  16.383   2.783
50878W        W23138  33.012  24.188   1.706
50879W        W23139  38.504  31.726   2.372
50880W        W23140  16.961   2.439   0.389
50881W        W23141   8.179  37.434   4.702
50882W        W23142  13.530  44.228   1.908
50883W        W23143  41.307   1.750  13.813
50884W        W23144  32.137  21.568  12.899
50885W        W23145  18.109  20.733   3.258
50886W        W23146   5.472  25.787  12.838
50887W        W23147  26.776  12.095   4.967
50888W        W23148   8.201   8.959  12.143
50889W        W23149  34.965   8.363  11.100
50890W        W23150  29.612  23.059   1.196
50891W        W23151   8.031  27.359  14.959
50892W        W23152  33.717  22.482   2.654
50893W        W23153  39.994   9.149  14.334
50894W        W23154   4.317  32.501  11.089
50895W        W23155  44.259  26.039  11.143
50896W        W23156  36.219  44.346   2.339
50897W        W23157   8.790  21.199   2.727
50898W        W23158   3.173  37.592   3.780
50899W        W23159  17.932   6.696   0.916
50900W        W23160   8.717  44.344  13.491
50901W        W23161  19.588  34.336  13.252
50902W        W23162  22.196   3.699   1.425
50903W        W23163  27.552  21.228   2.317
50904W        W23164  11.394   8.599   0.934
50905W        W23165  25.121  24.714   4.175
50906W        W23166  13.658  23.987  14.868
50907W        W23167  22.730  23.129  11.067
50908W        W23168  30.436  42.025   0.383
50909W        W23169  12.237  23.880  11.135
50910W        W23170  35.609   5.561   0.995
50911W        W23171  39.398  36.011  14.292
50912W        W23172  44.829  18.088   3.205
50913W        W23173  20.444   7.763   4.062
50914W        W23174  40.896  43.236   4.473
50915W        W23175   0.432  26.498   0.977
50916W        W23176   9.630  41.097   0.608
50917W        W23177  11.942   2.329   1.878
50918W        W23178   0.186   8.358  12.350
50919W        W23179  17.421  31.457   0.359
50920W        W23180  39.516  27.156  11.160
50921W        W23181  23.453  27.632   2.050
50922W        W23182  33.301  22.026  14.842
50923W        W23183  39.905  32.544  12.595
50924W        W23184  15.298  17.185   5.454
50925W        W23185   3.049  12.558   2.838
50926W        W23186  37.844  31.044  12.158
50927W        W23187  17.146  22.939   1.573
50928W        W23188  13.600  39.357   0.985
50929W        W23189  44.451  44.884   4.197
50930W        W23190  42.020  27.466  12.389
50931W        W23191  16.306  11.621  13.392
50932W        W23192  14.242  13.124  14.964
50933W        W23193  15.080  15.354  11.487
50934W        W23194  18.496  41.034   1.846
50935W        W23195  22.598  37.474  14.350
50936W        W23196  33.602   2.923  14.299
50937W        W23197  18.337  27.712   3.573
50938W        W23198   1.073   4.467   4.094
50939W        W23199  21.494  41.329  13.716
50940W        W23200  43.993  41.526  12.903
50941W        W23201  12.397  10.714   4.154
50942W        W23202  36.773  30.118  10.405
50943W        W23203  30.266  34.355   0.805
50944W        W23204  17.641  28.912  11.645
50945W        W23205  39.427  18.506   4.828
50946W        W23206   4.740   3.674   3.859
50947W        W23207  40.789  28.589  13.376
50948W        W23208  10.225  20.469  14.901
50949W        W23209   3.518  18.369  13.588
50950W        W23210  10.393  40.081  14.495
50951W        W23211  22.791  10.890  14.378
50952W        W23212  37.824   9.847  12.261
50953W        W23213  26.084  37.484  11.045
50954W        W23214  13.113  33.050   1.413
50955W        W23215   2.187  26.070  12.509
50956W        W23216  33.604  26.972   1.392
50957W        W23217  38.770   6.765  10.993
50958W        W23218   4.157  10.288   3.834
50959W        W23219  20.715  27.068   1.861
50960W        W23220  18.662  26.000   3.183
50961W        W23221  30.719  18.014   0.844
50962W        W23222   4.658  16.242   0.510
50963W        W23223  10.900   4.739   4.256
50964W        W23224  40.048  41.428  10.740
50965W        W23225  19.644  23.506   1.339
50966W        W23226   4.746  13.734  12.055
50967W        W23227  15.156  29.404   4.434
50968W        W23228  22.603  24.487  10.588
50969W        W23229  42.925   8.978   1.737
50970W        W23230  29.761  38.261   4.096
50971W        W23231   6.031  18.762  12.572
50972W        W23232  22.589  21.343   0.690
50973W        W23233  44.947  17.579   3.356
50974W        W23234  18.003   8.720   2.604
50975W        W23235   7.759  12.105   3.180
50976W        W23236  31.994  22.061  14.551
50977W        W23237   6.309  13.121   3.634
50978W        W23238  15.363  43.199  13.000
50979W        W23239   8.237  24.434   1.811
50980W        W23240  41.008  37.240  12.572
50981W        W23241  18.509  38.801   2.192
50982W        W23242   9.174  29.853   0.566
50983W        W23243  33.884   5.172  13.856
50984W        W23244  34.361  27.375   2.207
50985W        W23245  39.055  44.504   9.976
50986W        W23246  37.188   1.196   4.077
50987W        W23247  21.323  36.064   4.609
50988W        W23248  25.910  21.880  11.880
50989W        W23249  18.136  20.234   3.294
50990W        W23250  11.095   8.252  12.682
50991W        W23251  37.258  35.421   0.647
50992W        W23252  25.685  39.778  13.000
50993W        W23253  44.751  19.206   3.335
50994W        W23254  24.766   8.943  13.906
50995W        W23255  15.115  25.975  10.706
50996W        W23256   8.582   5.922   3.432
50997W        W23257  14.536   3.373   0.697
50998W        W23258  25.332  14.144  11.988
50999W        W23259  41.571  36.924   3.916
51000W        W23260  35.390  16.248   1.925
51001W        W23261  13.521  15.651   1.578
51002W        W23262  13.010  37.207  13.801
51003W        W23263   1.469  13.567  14.059
51004W        W23264  12.359   5.865  11.697
51005W        W23265  24.422  18.778   4.623
51006W        W23266  31.013   6.695  11.139
51007W        W23267  24.008  38.906  11.948
51008W        W23268  44.398  35.028  12.004
51009W        W23269  25.223  42.576   1.460
51010W        W23270  36.275  31.089   1.113
51011W        W23271  33.296  18.086   2.871
51012W        W23272  31.009   4.306   3.314
51013W        W23273  10.843  38.775   4.173
51014W        W23274  16.361  31.766  12.152
51015W        W23275  17.834  11.687  13.301
51016W        W23276  20.722  32.960  14.867
51017W        W23277  34.355   9.804   3.766
51018W        W23278  40.783  26.893   0.825
51019W        W23279  30.820  15.119  12.470
51020W        W23280   9.274  24.239   1.281
51021W        W23281  30.432  12.812  13.279
51022W        W23282  43.257  14.698   4.610
51023W        W23283   4.890  14.163  12.977
51024W        W23284  40.001  34.154  11.150
51025W        W23285   4.370  14.574   4.724
51026W        W23286  10.348  16.204  14.099
51027W        W23287  38.285  32.384  10.701
51028W        W23288  42.446  39.284   2.245
51029W        W23289  41.304  20.952   1.893
51030W        W23290  22.260  32.890  12.903
51031W        W23291  13.767  40.726  13.033
51032W        W23292  43.307   0.524  14.412
51033W        W23293  14.781  39.540   3.560
51034W        W23294  43.705  32.840   0.791
51035W        W23295  31.009  21.237   0.056
51036W        W23296  38.468  44.047   1.206
51037W        W23297   2.912  13.710   0.893
51038W        W23298  29.759  22.203   2.629
51039W        W23299  30.194  32.712   3.758
51040W        W23300  17.996   9.116  12.800
51041W        W23301  27.418  21.248  12.238
51042W        W23302  15.729  24.017   3.702
51043W        W23303  23.482  37.382  14.333
51044W        W23304  13.171   6.952   3.531
51045W        W23305  13.795  25.210  13.400
51046W        W23306   5.131  42.484   1.270
51047W        W23307  33.259  43.941  12.463
51048W        W23308  39.473  16.090   1.546
51049W        W23309  38.823   7.693   0.698
51050W        W23310  34.177  12.071   4.289
51051W        W23311  16.149  41.849   2.032
51052W        W23312  41.111  35.936  13.525
51053W        W23313  26.034  40.580   0.854
51054W        W23314  32.480  42.493  14.508
51055W        W23315  18.295  21.577  12.155
51056W        W23316  35.735  29.474   4.347
51057W        W23317  43.905  40.806   4.554
51058W        W23318  36.636  39.973  14.943
51059W        W23319  24.297  19.673   3.545
51060W        W23320  36.540  22.961  11.680
51061W        W23321  27.927  12.230  12.094
51062W        W23322  29.847  24.610  12.202
51063W        W23323   8.374  43.584   0.972
51064W        W23324  20.115  40.371  11.306
51065W        W23325  15.725   5.189  10.863
51066W        W23326   2.048  40.274  11.596
51067W        W23327  35.201  21.972  13.190
51068W        W23328  44.758   3.143   1.041
51069W        W23329  37.597   2.863   2.323
51070W        W23330  12.451  27.643  12.326
51071W        W23331  34.946  42.408   1.880
51072W        W23332  20.075  11.277   1.255
51073W        W23333   4.723   3.469   1.721
51074W        W23334   3.141   9.854   2.834
51075W        W23335  29.465  35.009  14.927
51076W        W23336  11.157  41.413  14.513
51077W        W23337  13.427  14.713  14.017
51078W        W23338  14.848  30.620  10.230
51079W        W23339  36.933  25.951   1.957
51080W        W23340   9.166  30.574   1.494
51081W        W23341  13.741  16.388  13.914
51082W        W23342  22.776  44.926   1.353
51083W        W23343  26.646  40.668  12.334
51084W        W23344  11.787  29.013   4.519
51085W        W23345  42.439  21.285   2.648
51086W        W23346  42.531  33.641  12.952
51087W        W23347  20.127  29.967  13.483
51088W        W23348   7.903  30.502  14.279
51089W        W23349  28.394  39.164  12.545
51090W        W23350  36.500  36.546   4.257
51091W        W23351  42.662  12.089   4.334
51092W        W23352  11.232  37.260   2.671
51093W        W23353   5.965  37.825   1.260
51094W        W23354  25.489  26.631  11.539
51095W        W23355  41.519   5.389   1.828
51096W        W23356  41.077  32.642  14.912
51097W        W23357  29.639   9.848  12.172
51098W        W23358   4.530   0.743  14.061
51099W        W23359  21.219  44.741   1.381
51100W        W23360  37.924  38.836  10.759
51101W        W23361  28.190   1.304   3.758
51102W        W23362   1.716  17.551   4.976
51103W        W23363  39.991  40.092   2.757
51104W        W23364  38.912   8.953  13.036
51105W        W23365  19.150  33.602   1.204
51106W        W23366  34.360  14.329   3.706
51107W        W23367  17.636  29.681   4.157
51108W        W23368  40.094  34.900   0.314
51109W        W23369  22.006   6.386   0.206
51110W        W23370  30.706  27.096  11.036
51111W        W23371  43.941  17.157   3.194
51112W        W23372  14.314  15.648   1.816
51113W        W23373   2.957   2.936  11.011
51114W        W23374  18.226  27.081  11.451
51115W        W23375  10.362  19.652  11.417
51116W        W23376  15.565  26.403  13.012
51117W        W23377  44.932  40.806  11.696
51118W        W23378  37.987   5.431  13.827
51119W        W23379  42.684  40.002   2.800
51120W        W23380  28.825  40.689  14.249
51121W        W23381   4.940   1.847   3.956
51122W        W23382  36.425  20.040   3.336
51123W        W23383  13.131  34.270  11.406
51124W        W23384  41.995  37.337   0.393
51125W        W23385  21.342  35.271   1.272
51126W        W23386  30.718   8.075   3.286
51127W        W23387  10.143  18.697  10.553
51128W        W23388  31.036  11.363  11.399
51129W        W23389  34.928  37.591  14.994
51130W        W23390  12.175  44.279  13.956
51131W        W23391  11.933  42.978  10.721
51132W        W23392  33.156   8.378  14.801
51133W        W23393  15.962  17.575  11.618
51134W        W23394   3.472  42.056  13.798
51135W        W23395  41.419  13.131  11.142
51136W        W23396  22.936  37.354  11.152
51137W        W23397  36.954  26.762   4.426
51138W        W23398   7.763  44.602   3.149
51139W        W23399  11.884  20.306  10.529
51140W        W23400  19.948  35.085  12.902
51141W        W23401  13.255  16.525  11.170
51142W        W23402   0.355  11.055  13.152
51143W        W23403   4.838  44.848   1.478
51144W        W23404   5.943  32.901  12.173
51145W        W23405  22.089  44.741   0.919
51146W        W23406  23.648  15.053  10.629
51147W        W23407  18.766  39.804  10.582
51148W        W23408  26.096  25.587  11.679
51149W        W23409  25.417   1.776  11.977
51150W        W23410  27.133  40.170  13.954
51151W        W23411   1.676  37.264  12.437
51152W        W23412  41.432  24.583  13.472
51153W        W23413  29.331  30.087   0.298
51154W        W23414   7.236  44.737   0.044
51155W        W23415   1.356  40.750   2.563
51156W        W23416   3.978  37.081   3.401
51157W        W23417  21.207  20.113  13.047
51158W        W23418  25.038   5.111   1.124
51159W        W23419  17.404  24.164  10.650
51160W        W23420  37.862  26.443  14.248
51161W        W23421  25.327  16.118  11.999
51162W        W23422  19.730  28.039   0.999
51163W        W23423  12.804  42.738   1.254
51164W        W23424  38.486  33.326  14.394
51165W        W23425   9.334  21.146  10.712
51166W        W23426  15.645  26.014  11.883
51167W        W23427  39.037  13.279   4.339
51168W        W23428  26.502  27.689  10.689
51169W        W23429   7.771  43.326  13.023
51170W        W23430  20.614  34.869  11.490
51171W        W23431  27.044   8.294   2.937
51172W        W23432  39.260  23.630   4.583
51173W        W23433   0.782  32.412   1.294
51174W        W23434  29.046   3.652  11.229
51175W        W23435  23.171  15.296   2.476
51176W        W23436  26.544  30.887  11.981
51177W        W23437   3.364  15.144  11.606
51178W        W23438  16.548  12.784  10.606
51179W        W23439   4.889  41.314  11.033
51180W        W23440  26.511   4.701   2.698
51181W        W23441  32.657  36.537  12.346
51182W        W23442   4.343  29.191  14.096
51183W        W23443   7.998  12.280   0.503
51184W        W23444   7.173  36.164  12.900
51185W        W23445  17.058  27.973  11.019
51186W        W23446  39.823  12.682   4.622
51187W        W23447  35.950  42.473   4.915
51188W        W23448   5.483  13.583  13.063
51189W        W23449  12.297  16.319  11.962
51190W        W23450   8.705  29.855   1.376
51191W        W23451   4.972  43.678   1.735
51192W        W23452   4.936  42.459  12.535
51193W        W23453  42.053  15.329  14.356
51194W        W23454  19.735  17.682   4.047
51195W        W23455  41.210  16.258  12.470
51196W        W23456   0.413  35.987  12.419
51197W        W23457   4.829  42.200   3.259
51198W        W23458  16.115  39.566   0.370
51199W        W23459  19.760  27.455   4.248
51200W        W23460   2.475  35.946   2.231
51201W        W23461  32.357  26.797   4.388
51202W        W23462  32.941  33.953  13.930
51203W        W23463  23.882  27.146  10.199
51204W        W23464   5.167  29.656   3.405
51205W        W23465   1.475  13.396   1.089
51206W        W23466  20.301   0.877   3.566
51207W        W23467  19.076  44.923   1.829
51208W        W23468  20.456  34.923  10.836
51209W        W23469  26.856   3.741   4.002
51210W        W23470  11.775   7.892  14.549
51211W        W23471  35.636   8.401   0.324
51212W        W23472  44.183  31.519   1.378
51213W        W23473  40.409  30.456  12.699
51214W        W23474   7.835  17.567   0.184
51215W        W23475   8.721  27.233  13.926
51216W        W23476  14.588  26.611   4.401
51217W        W23477   0.314  25.034  12.963
51218W        W23478   3.955  10.229   1.064
51219W        W23479  44.121  18.288  12.442
51220W        W23480  35.361  39.133   9.938
51221W        W23481  21.196   5.263  12.887
51222W        W23482  14.020  23.493   2.043
51223W        W23483  19.218  17.294   3.694
51224W        W23484  18.880  12.723   3.998
51225W        W23485   4.945  23.766   4.002
51226W        W23486  36.628  23.473  11.830
51227W        W23487  35.748  32.234  13.788
51228W        W23488   8.613  21.256   3.232
51229W        W23489   7.407   8.313  11.988
51230W        W23490  32.440  17.451   3.451
51231W        W23491   7.321  34.459  12.157
51232W        W23492  10.645  16.824   3.712
51233W        W23493  43.540   3.929   1.364
51234W        W23494   4.963  30.408   2.216
51235W        W23495  20.997  24.489   2.943
51236W        W23496   3.881  31.868  10.695
51237W        W23497   1.816  39.902   0.693
51238W        W23498  15.666  18.811  14.743
51239W        W23499  30.197  22.204  11.100
51240W        W23500  13.647  24.358  13.568
51241W        W23501   4.896  17.707   0.799
51242W        W23502  12.288  35.421   0.878
51243W        W23503  11.238  37.724   0.469
51244W        W23504  33.659  10.781   1.327
51245W        W23505   3.290  25.574   0.697
51246W        W23506  35.866  18.581   0.053
51247W        W23507  23.743   0.808  13.974
51248W        W23508   6.320  15.737  12.225
51249W        W23509  14.289  18.076  12.293
51250W        W23510   9.858   1.517  10.653
51251W        W23511  43.594   7.820  11.626
51252W        W23512  25.495  40.579   0.380
51253W        W23513  37.524  35.593   3.117
51254W        W23514   0.956  11.076  12.380
51255W        W23515  17.694  32.989  12.376
51256W        W23516   2.527   4.195  14.448
51257W        W23517   2.005   9.592   0.244
51258W        W23518  24.628  41.266  14.898
51259W        W23519  38.035  36.078   0.794
51260W        W23520  29.970  11.048  12.230
51261W        W23521  19.311   8.786   2.175
51262W        W23522   0.426  43.253   0.838
51263W        W23523   4.308  17.530   3.304
51264W        W23524  15.109   3.979   2.968
51265W        W23525  11.835   0.872   5.055
51266W        W23526   3.403  17.866  13.833
51267W        W23527  26.030  32.432   2.217
51268W        W23528   3.895  31.492  12.449
51269W        W23529   8.455  29.129   4.200
51270W        W23530  20.762  41.878   0.397
51271W        W23531  44.955   1.339   4.171
51272W        W23532  14.735   2.336  11.095
51273W        W23533  44.042  44.838   3.240
51274W        W23534  19.657  17.747  12.413
51275W        W23535  41.799  23.072  11.753
51276W        W23536  43.346   0.674   2.233
51277W        W23537  13.398  38.334  13.767
51278W        W23538  29.627  26.962  14.787
51279W        W23539  27.394  35.588   3.922
51280W        W23540  42.905  44.668   1.800
51281W        W23541  42.016   0.106  10.934
51282W        W23542  30.357   9.747   3.637
51283W        W23543  44.405  18.216   1.190
51284W        W23544   5.029  22.680  12.102
51285W        W23545  16.526  38.929  14.258
51286W        W23546  21.106  13.443   3.100
51287W        W23547   0.059   4.717   2.277
51288W        W23548  20.611   4.956  10.768
51289W        W23549  18.776  42.727  10.647
51290W        W23550   3.292  42.857   4.618
51291W        W23551  15.547   6.369  12.811
51292W        W23552  21.393  23.864  10.132
51293W        W23553  32.249  26.768  11.728
51294W        W23554  23.578  27.162   0.375
51295W        W23555  19.550  35.435  14.910
51296W        W23556  28.980  18.302   2.163
51297W        W23557  38.594  37.517   2.352
51298W        W23558  33.373  41.366  14.371
51299W        W23559  14.922  25.383  13.744
51300W        W23560  11.157  29.564   5.395
51301W        W23561  25.072  35.197  14.074
51302W        W23562   4.257  15.828   1.178
51303W        W23563   4.328  29.589   3.128
51304W        W23564   1.921  12.690   2.747
51305W        W23565  39.007  11.980   0.060
51306W        W23566   9.691  26.135   3.730
51307W        W23567  32.136  32.115  14.037
51308W        W23568  21.977  29.504   9.805
51309W        W23569   0.930  10.639   0.711
51310W        W23570  38.477  40.118   3.724
51311W        W23571  23.994  41.981  11.501
51312W        W23572  38.069   5.755  13.323
51313W        W23573  38.551  39.776   3.337
51314W        W23574  28.648  40.249  11.143
51315W        W23575  22.637  13.381   1.834
51316W        W23576  34.115  41.850   3.742
51317W        W23577  44.914  10.416  14.182
51318W        W23578  13.121   9.206   0.125
51319W        W23579  28.976  44.232  11.991
51320W        W23580  42.778   5.969   0.886
51321W        W23581  40.792  22.103   2.373
51322W        W23582  39.015  27.107   3.435
51323W        W23583  13.889   6.454  10.664
51324W        W23584   4.266  31.424  14.688
51325W        W23585  18.247  17.043  10.814
51326W        W23586  19.033   0.656   3.247
51327W        W23587  38.415  14.153  12.448
51328W        W23588  34.601  27.069  14.813
51329W        W23589   2.814  36.581   3.750
51330W        W23590   2.320  31.087   3.842
51331W        W23591  43.456  10.156   2.999
51332W        W23592   2.759  19.073   1.676
51333W        W23593  37.915  17.069  11.685
51334W        W23594   7.388   9.398  11.150
51335W        W23595   1.184  33.436   0.307
51336W        W23596  10.892  40.005  12.618
51337W        W23597  40.225  13.664  14.718
51338W        W23598  25.621  25.654  13.454
51339W        W23599  35.944  22.042   3.141
51340W        W23600  17.214  17.048   2.750
51341W        W23601   8.322  33.843   2.379
51342W        W23602  15.464  30.194   2.623
51343W        W23603  35.532  40.028   2.338
51344W        W23604  21.465  25.561   2.316
51345W        W23605  32.481   0.342   2.206
51346W        W23606  35.586  24.219   1.826
51347W        W23607  41.597  13.220  13.549
51348W        W23608  31.365  42.320  13.879
51349W        W23609  29.334  21.099   4.145
51350W        W23610  32.174  26.265  11.545
51351W        W23611  43.362  42.946  10.824
51352W        W23612  41.965  30.066   1.156
51353W        W23613  36.085  21.530   3.149
51354W        W23614  24.728  19.806  10.584
51355W        W23615   5.499  39.265   1.445
51356W        W23616   5.431  13.354  12.443
51357W        W23617  14.591   6.011  10.205
51358W        W23618  21.583  25.651   4.391
51359W        W23619  11.056  33.553  13.529
51360W        W23620  36.001  39.895   2.113
51361W        W23621  29.515  40.981  12.009
51362W        W23622   3.939  21.545  11.141
51363W        W23623  17.829   6.623  13.500
51364W        W23624  41.521   6.949  11.175
51365W        W23625  34.330  31.983  13.456
51366W        W23626  27.081  36.416   4.150
51367W        W23627  27.598  30.672   5.085
51368W        W23628  36.287  20.397  10.349
51369W        W23629  15.136  10.778   3.632
51370W        W23630  32.978   0.452  13.157
51371W        W23631   5.182  34.068  10.658
51372W        W23632  36.284  42.257  10.590
51373W        W23633   4.319  38.565   4.225
51374W        W23634  31.658  23.896   1.662
51375W        W23635   8.095  28.909   0.759
51376W        W23636  35.235  12.448  14.746
51377W        W23637  30.106  10.884  14.935
51378W        W23638  18.927   0.936   2.455
51379W        W23639  21.720  16.931  12.612
51380W        W23640  23.970   6.066   0.762
51381W        W23641  38.115  28.967   1.699
51382W        W23642  12.319  37.602   4.077
51383W        W23643  10.746  22.582  13.611
51384W        W23644  40.054  39.092  11.499
51385W        W23645  10.493  37.217   2.896
51386W        W23646  26.715  37.612  14.765
51387W        W23647  12.267  26.580   2.369
51388W        W23648  41.370   0.204  11.274
51389W        W23649  44.637   8.596   2.392
51390W        W23650  14.729  28.505   1.788
51391W        W23651  34.454   7.897   0.382
51392W        W23652  10.858   4.309  14.517
51393W        W23653   7.856  38.304   1.479
51394W        W23654  25.900  41.890  12.504
51395W        W23655  41.483  35.075   4.459
51396W        W23656  21.710   5.226  12.818
51397W        W23657  35.380  26.565  11.161
51398W        W23658  15.372   9.236  13.595
51399W        W23659  20.456   3.418  11.050
51400W        W23660  42.327   8.926  14.823
51401W        W23661  15.237  25.478  12.922
51402W        W23662  28.506   3.351  14.988
51403W        W23663   1.029   7.234  10.586
51404W        W23664  23.961  26.783   4.739
51405W        W23665  28.036  28.024   3.660
51406W        W23666  30.013  25.508  12.518
51407W        W23667  19.279  14.225   1.485
51408W        W23668  40.530  37.511  12.352
51409W        W23669  12.897  21.451   3.084
51410W        W23670   3.670  18.278  12.785
51411W        W23671  25.183   4.200  10.477
51412W        W23672   9.317  29.090  12.403
51413W        W23673  15.186  38.284  10.550
51414W        W23674  43.482  39.601   0.867
51415W        W23675  36.421  14.570   0.025
51416W        W23676  11.816  26.291   2.273
51417W        W23677   8.534  33.953   1.565
51418W        W23678  39.869   0.234  14.811
51419W        W23679  19.857  28.463   1.918
51420W        W23680  16.597  18.295  10.828
51421W        W23681   3.511  13.692  11.746
51422W        W23682   6.190   9.941   1.910
51423W        W23683  36.018  22.124   3.674
51424W        W23684  27.639  41.906   3.763
51425W        W23685  21.184  32.314  11.672
51426W        W23686  22.528  19.138  13.383
51427W        W23687  42.024  13.252   0.132
51428W        W23688  42.307  10.299   1.777
51429W        W23689  13.815  26.598  11.001
51430W        W23690  16.251  40.350  14.704
51431W        W23691  20.661  44.548   2.814
51432W        W23692   4.420  36.895   0.798
51433W        W23693  33.670  21.282  13.378
51434W        W23694  38.309  32.890   0.189
51435W        W23695  36.516  33.259  14.775
51436W        W23696   3.134   1.209   1.179
51437W        W23697  33.705  27.787  11.736
51438W        W23698  21.025  25.894  12.366
51439W        W23699  40.036  31.103   4.524
51440W        W23700   7.456  30.626  13.986
51441W        W23701  26.014  26.667   5.019
51442W        W23702  17.442  28.502   1.886
51443W        W23703  25.193  28.736   1.393
51444W        W23704  25.500   0.824  12.933
51445W        W23705  23.314  42.883   0.170
51446W        W23706  24.005  29.397  13.794
51447W        W23707  13.222   6.645  13.891
51448W        W23708  34.685   2.343   3.727
51449W        W23709  32.900  32.961   0.407
51450W        W23710  24.207   2.016   3.241
51451W        W23711  40.536   3.044  11.942
51452W        W23712  27.092  36.420   0.678
51453W        W23713  11.350  14.708  12.948
51454W        W23714  33.706  39.907  14.477
51455W        W23715  15.051   1.231  12.840
51456W        W23716  36.017  18.077   0.426
51457W        W23717  34.413   3.034   0.789
51458W        W23718   9.964  43.018   0.357
51459W        W23719  12.336  36.542   3.841
51460W        W23720  35.037  33.338  10.482
51461W        W23721  12.435  44.816  14.935
51462W        W23722  21.475  22.768   0.349
51463W        W23723   5.860   9.236   4.530
51464W        W23724   1.357  37.991  14.914
51465W        W23725   2.711  23.793   1.831
51466W        W23726  19.496  17.298  10.926
51467W        W23727  33.386  19.180   0.469
51468W        W23728  40.440  30.942  11.417
51469W        W23729  28.976  42.092  11.752
51470W        W23730  27.500  10.683   0.310
51471W        W23731  43.811  14.214   2.408
51472W        W23732  28.188  19.326   0.052
51473W        W23733  35.718  24.931   2.431
51474W        W23734  19.804  17.077  13.085
51475W        W23735  30.684  23.344   0.791
51476W        W23736  25.414  28.953  11.176
51477W        W23737  26.988  33.010   4.826
51478W        W23738   3.801  16.268  12.127
51479W        W23739  27.510  33.590   0.946
51480W        W23740  29.826   2.805  12.848
51481W        W23741  37.053  17.619  11.992
51482W        W23742  23.105  34.599  14.699
51483W        W23743  28.578   6.725  13.935
51484W        W23744   3.164  18.205   0.031
51485W        W23745  16.810  28.122   1.196
51486W        W23746  10.317  29.182  12.541
51487W        W23747  42.398  14.823   1.821
51488W        W23748  24.684   7.824   1.383
51489W        W23749  35.461   6.681   2.934
51490W        W23750  37.136  41.090   2.432
51491W        W23751  44.421  40.765  13.465
51492W        W23752  42.757  18.509   0.015
51493W        W23753  20.283  35.782   0.814
51494W        W23754  32.247  44.005   4.608
51495W        W23755  34.614   7.643   4.125
51496W        W23756  22.485  44.832  13.482
51497W        W23757  44.406  17.527  13.126
51498W        W23758  12.632   8.628  11.125
51499W        W23759  22.167  24.312  11.170
51500W        W23760  17.276  28.028  14.536
51501W        W23761  28.274  12.501  14.843
51502W        W23762  17.054  24.017  14.877
51503W        W23763   8.658  28.687  14.023
51504W        W23764   1.436  31.049   1.660
51505W        W23765  35.634  26.008   2.184
51506W        W23766  29.261  31.862  12.456
51507W        W23767   1.797   6.475  13.260
51508W        W23768  26.776  31.150   3.117
51509W        W23769  22.160  36.228   0.999
51510W        W23770  42.486  36.769   4.884
51511W        W23771  21.793  41.264   2.754
51512W        W23772   6.797  13.847  10.660
51513W        W23773  24.605  36.482   2.693
51514W        W23774  12.800  35.928  13.997
51515W        W23775  39.336  21.976   3.318
51516W        W23776  39.267  12.385  12.964
51517W        W23777   8.016   7.681  10.736
51518W        W23778  36.797   7.813  13.840
51519W        W23779  27.466  16.420  10.935
51520W        W23780  30.951  41.035   3.887
51521W        W23781   7.018   0.926  14.099
51522W        W23782  25.268   6.717   3.222
51523W        W23783  17.276   3.037  12.592
51524W        W23784  15.799   8.612   3.101
51525W        W23785  40.146  21.682   1.686
51526W        W23786  22.132   6.359  13.892
51527W        W23787   3.332  17.249   0.961
51528W        W23788   7.777  32.015   1.322
51529W        W23789  12.794   1.838  14.326
51530W        W23790   4.694  42.009  10.681
51531W        W23791  38.025  22.020  13.084
51532W        W23792  38.012   8.777  11.094
51533W        W23793  40.758   5.647   0.061
51534W        W23794  18.323  34.967   3.667
51535W        W23795  43.046   3.375   4.787
51536W        W23796   9.621  23.954   0.930
51537W        W23797  15.260  31.362  11.497
51538W        W23798  20.797   1.557  10.744
51539W        W23799  16.181  37.988  12.924
51540W        W23800  10.434  34.864  11.180
51541W        W23801   0.689  24.287   0.020
51542W        W23802  15.809   9.885  14.867
51543W        W23803  44.262  33.653  13.631
51544W        W23804   9.340  28.634   2.341
51545W        W23805  18.167  42.420   0.815
51546W        W23806  26.435  35.603  14.887
51547W        W23807  42.365  25.654  14.149
51548W        W23808  32.040   5.594  11.204
51549W        W23809  37.012   3.010  14.837
51550W        W23810   6.319  30.673  11.102
51551W        W23811  41.525  34.385  14.902
51552W        W23812  14.720  12.709  10.731
51553W        W23813   3.395   8.178  13.654
51554W        W23814  42.116  24.136  12.435
51555W        W23815  18.646  42.233   4.632
51556W        W23816  42.543  23.757   3.212
51557W        W23817  44.651   8.451   5.080
51558W        W23818   5.248  10.927   4.135
51559W        W23819  11.045   5.603  13.417
51560W        W23820  10.915  19.186   3.608
51561W        W23821  42.031  28.625  12.671
51562W        W23822   0.911  12.505   2.652
51563W        W23823  39.931  39.624   1.934
51564W        W23824  34.936  27.339   0.389
51565W        W23825  27.545  44.071  12.928
51566W        W23826  20.074  41.995   1.327
51567W        W23827   1.692   7.402  11.619
51568W        W23828  11.552  23.660  11.672
51569W        W23829   8.320  30.712   1.427
51570W        W23830  23.863  26.073   3.389
51571W        W23831  13.780  15.343   0.205
51572W        W23832   6.704  39.902  13.913
51573W        W23833  37.376  36.873   3.392
51574W        W23834   0.916  32.166  13.708
51575W        W23835  22.664   2.476   3.233
51576W        W23836  31.367  44.251  12.519
51577W        W23837   3.259  22.869  11.413
51578W        W23838  29.529   2.467  12.522
51579W        W23839  22.589  32.227   2.306
51580W        W23840  38.039  41.516   5.029
51581W        W23841   9.944  24.227   4.593
51582W        W23842  13.693  23.190  12.842
51583W        W23843  15.237  14.637   2.645
51584W        W23844  38.350  34.113   3.297
51585W        W23845  22.648  35.473  13.452
51586W        W23846   4.211  42.119  10.457
51587W        W23847   0.777   0.283  10.549
51588W        W23848  29.574  43.164  10.436
51589W        W23849  29.370  26.472  14.555
51590W        W23850  29.769  34.131   1.040
51591W        W23851   7.356  37.290  13.716
51592W        W23852  42.829  17.624  11.911
51593W        W23853  17.232  10.839   4.160
51594W        W23854  38.426   0.752  12.020
51595W        W23855  22.062  23.871  11.526
51596W        W23856   8.592  27.588  14.297
51597W        W23857  37.404   0.413  14.981
51598W        W23858  30.490  13.783  11.907
51599W        W23859  23.268  11.768  10.606
51600W        W23860  10.373  11.886  13.011
51601W        W23861  20.751  18.039   1.988
51602W        W23862   3.835   6.211   4.814
51603W        W23863  15.314  10.094   0.101
51604W        W23864  31.550  41.179   0.441
51605W        W23865   8.793   3.445  12.533
51606W        W23866   6.886  16.498  13.625
51607W        W23867  28.114  40.757  13.330
51608W        W23868  28.499  35.253  11.531
51609W        W23869  16.359   7.980   3.887
51610W        W23870  28.073  18.249  14.585
51611W        W23871  12.368  20.028   1.412
51612W        W23872  16.985  39.169   1.020
51613W        W23873   7.926  10.386  11.939
51614W        W23874   9.106  25.493   0.251
51615W        W23875  44.307  24.944   1.194
51616W        W23876  44.062  15.824  14.935
51617W        W23877  26.949  34.513  11.487
51618W        W23878   5.678  11.698   0.967
51619W        W23879  13.312  39.598   3.217
51620W        W23880  21.178   5.062   2.383
51621W        W23881  35.141  28.229  13.269
51622W        W23882   3.521  35.849  11.956
51623W        W23883   0.440  42.930   2.376
51624W        W23884  21.123  37.924   1.720
51625W        W23885   4.918  11.229  13.533
51626W        W23886  13.703  16.245   3.337
51627W        W23887   7.752  12.700  13.626
51628W        W23888   9.175  36.372   1.914
51629W        W23889  25.545  41.034  11.541
51630W        W23890  11.436  31.010   1.215
51631W        W23891  27.257  42.704  13.904
51632W        W23892   9.182  32.386   3.247
51633W        W23893  38.759  29.484  13.862
51634W        W23894  14.885  19.234  14.908
51635W        W23895   2.298  16.463   1.463
51636W        W23896  34.954  16.822   0.589
51637W        W23897  27.125  22.621   2.825
51638W        W23898  38.920  44.972   0.998
51639W        W23899  21.075  33.867   1.390
51640W        W23900  44.138  12.128   3.749
51641W        W23901  21.610  40.898   3.712
51642W        W23902  19.205  29.230   1.679
51643W        W23903   7.101  33.477   3.320
51644W        W23904  42.206  12.384  12.766
51645W        W23905  11.333  23.521   2.741
51646W        W23906   2.857  32.565   0.873
51647W        W23907  24.439   5.068  11.197
51648W        W23908  37.711  15.793  13.802
51649W        W23909  28.726  28.906   3.859
51650W        W23910  34.393  18.620  12.599
51651W        W23911  29.871  36.560  11.089
51652W        W23912   2.920  31.051  11.563
51653W        W23913   4.972  19.656  13.800
51654W        W23914  32.322  26.581  14.346
51655W        W23915  43.514  20.070  13.462
51656W        W23916  11.895   1.513  13.418
51657W        W23917  15.782  16.948   5.428
51658W        W23918  37.030  26.739  10.571
51659W        W23919  19.816  22.709  10.716
51660W        W23920   4.559   8.702  12.617
51661W        W23921  11.111  18.645   3.704
51662W        W23922   0.477  18.745  10.523
51663W        W23923   2.733  32.024  12.517
51664W        W23924  27.001  34.962   4.783
51665W        W23925  11.293  14.807  10.904
51666W        W23926  42.511  26.495  12.507
51667W        W23927  44.288   7.981  11.135
51668W        W23928  12.662  43.491  11.515
51669W        W23929  25.434  30.413   4.151
51670W        W23930  28.397  32.902  12.385
51671W        W23931   2.700  29.143   0.936
51672W        W23932  36.377  13.856   1.800
51673W        W23933  40.705  28.638  11.538
51674W        W23934   2.882  35.140  14.494
51675W        W23935  23.745  43.669   0.425
51676W        W23936   7.321  12.382   2.261
51677W        W23937  17.838  36.628  11.190
51678W        W23938   1.817  27.568   3.414
51679W        W23939   8.195  36.860   0.000
51680W        W23940  11.174  18.231  13.113
51681W        W23941   2.859  39.876  13.827
51682W        W23942  20.839   1.950  13.802
51683W        W23943  44.515  15.271   0.370
51684W        W23944  22.068  29.885   4.232
51685W        W23945  34.022  35.058   2.781
51686W        W23946   4.571   5.779  13.478
51687W        W23947   1.237  34.367  11.977
51688W        W23948  35.984   3.189  10.799
51689W        W23949  18.481  10.929  12.090
51690W        W23950  40.966   7.777   4.720
51691W        W23951  40.983   4.206   2.757
51692W        W23952   7.867  28.531   3.169
51693W        W23953  20.504   9.673  12.873
51694W        W23954  25.351  22.797  13.837
51695W        W23955  43.959  40.105  14.848
51696W        W23956   4.170  26.714  12.019
51697W        W23957  35.898  25.576  10.727
51698W        W23958  10.632   0.421  11.486
51699W        W23959  42.432  18.754  11.772
51700W        W23960  38.493  37.762  11.134
51701W        W23961  27.969  24.900  12.645
51702W        W23962  22.607  25.876   3.658
51703W        W23963  30.428   4.069  14.743
51704W        W23964   0.439  26.215  10.693
51705W        W23965  16.101  35.848   0.408
51706W        W23966  18.689   2.151  12.596
51707W        W23967  27.647  38.499  14.354
51708W        W23968   7.061  34.576   1.297
51709W        W23969  21.786  13.669  10.729
51710W        W23970  27.764   3.559   4.350
51711W        W23971  44.259   5.001  13.526
51712W        W23972  24.754  37.316   2.305
51713W        W23973  19.754   7.335  13.021
51714W        W23974  42.013  42.134  12.661
51715W        W23975  26.100  37.944   4.363
51716W        W23976  26.024   6.159  13.983
51717W        W23977  21.115  37.007   1.268
51718W        W23978  14.621  32.896  11.973
51719W        W23979   3.062   8.680  12.661
51720W        W23980  12.418  29.363   3.682
51721W        W23981  41.494  25.612   0.379
51722W        W23982  32.465  35.593  13.404
51723W        W23983  24.956  30.360   2.307
51724W        W23984  16.573  43.316  14.567
51725W        W23985  14.078  15.130  13.040
51726W        W23986  12.826  19.010  12.005
51727W        W23987  33.585  16.602   0.829
51728W        W23988  35.405   0.541   4.690
51729W        W23989   6.632   8.274   0.140
51730W        W23990  20.545  11.251   4.163
51731W        W23991  36.530  21.810   1.437
51732W        W23992  33.382  12.715  14.598
51733W        W23993  22.454   2.745   1.440
51734W        W23994  16.571  15.447   4.068
51735W        W23995   5.374  27.974   4.591
51736W        W23996  20.718  44.217   1.935
51737W        W23997  32.102  19.630  14.335
51738W        W23998  36.019  15.129  10.632
51739W        W23999  19.204  35.314  11.858
51740W        W24000   3.865  21.197  12.888
51741W        W24001  26.866   4.344  12.182
51742W        W24002  14.762  32.149  10.331
51743W        W24003   1.032  12.099  13.963
51744W        W24004  16.156   9.981   4.745
51745W        W24005  34.096  40.165  14.125
51746W        W24006  11.584   9.893   4.134
51747W        W24007   6.931  16.730   3.827
51748W        W24008  24.657  41.243  12.471
51749W        W24009  37.426  29.180  14.469
51750W        W24010   4.239  30.431   4.549
51751W        W24011  36.102   4.470  13.171
51752W        W24012  36.359   7.866   4.642
51753W        W24013  10.409  42.135   4.911
51754W        W24014   2.799  20.542   3.628
51755W        W24015   7.775  43.722  11.996
51756W        W24016   5.972  20.466  12.022
51757W        W24017  31.492  17.350  12.139
51758W        W24018   2.615  21.232   0.211
51759W        W24019  40.428  28.859   3.374
51760W        W24020   0.423  16.659   1.164
51761W        W24021  33.887   5.951  14.393
51762W        W24022   1.462  23.313   2.342
51763W        W24023  26.118  38.458  14.859
51764W        W24024  35.984  44.435  14.766
51765W        W24025  36.950  21.307   1.563
51766W        W24026  36.957  39.569  11.554
51767W        W24027  39.872  30.085  10.705
51768W        W24028  16.152  18.173  13.296
51769W        W24029  31.013   7.876   4.766
51770W        W24030  36.987  36.741   1.284
51771W        W24031  11.712  32.529   1.004
51772W        W24032  10.627  33.063   4.880
51773W        W24033  17.040  35.947  12.436
51774W        W24034  31.501  40.448   3.568
51775W        W24035  15.318  30.035  12.321
51776W        W24036  11.889   5.634   0.660
51777W        W24037   8.293   8.964  11.155
51778W        W24038  44.201  23.168   1.348
51779W        W24039  24.787  28.118   4.188
51780W        W24040  21.973  33.579  11.792
51781W        W24041  19.051  31.164  12.872
51782W        W24042  26.123  42.767  11.733
51783W        W24043  21.612  37.400  13.610
51784W        W24044   5.665  16.846   2.619
51785W        W24045   5.745  33.955   4.789
51786W        W24046  44.052  44.367   0.817
51787W        W24047   0.243   3.950  14.021
51788W        W24048   6.275   1.974  13.136
51789W        W24049  42.231  25.159  12.422
51790W        W24050  21.651  18.314   3.548
51791W        W24051  39.446  16.167   2.367
51792W        W24052   3.242  37.393   0.717
51793W        W24053  37.028  18.504   3.233
51794W        W24054   2.686  33.429  10.984
51795W        W24055   7.318  32.640  14.392
51796W        W24056  33.943  38.294   1.771
51797W        W24057  31.099  38.010   4.316
51798W        W24058  27.615  25.206  14.372
51799W        W24059  33.472   5.212   4.587
51800W        W24060  41.321  22.771   2.174
51801W        W24061  18.731  21.228   2.840
51802W        W24062   5.866  25.466  12.651
51803W        W24063   5.795  10.700   0.212
51804W        W24064  21.515  38.525  14.936
51805W        W24065  13.631  26.149  13.900
51806W        W24066   4.678  33.015  14.211
51807W        W24067  44.362  11.606   1.862
51808W        W24068  41.265   5.784   3.639
51809W        W24069   7.123  26.627   1.318
51810W        W24070  41.005  19.786  13.000
51811W        W24071  33.370  27.986   2.840
51812W        W24072  17.251  12.249  12.616
51813W        W24073   2.990   2.851   2.436
51814W        W24074   8.881   8.361   4.105
51815W        W24075  28.539  35.009   2.658
51816W        W24076  12.504   5.747  12.189
51817W        W24077  44.458  13.371  11.111
51818W        W24078  42.440  18.022   2.285
51819W        W24079  31.461  38.828  12.180
51820W        W24080  23.304  25.713   0.935
51821W        W24081  11.091  43.895   3.529
51822W        W24082  28.910  36.638   3.281
51823W        W24083  27.926  16.374  13.092
51824W        W24084  18.019  44.094   3.815
51825W        W24085  22.588  18.273   4.571
51826W        W24086  22.739  39.541  14.875
51827W        W24087   5.600   7.177   1.844
51828W        W24088  39.605  42.022   4.170
51829W        W24089  27.384  15.105  11.441
51830W        W24090  36.091  39.955   0.807
51831W        W24091  40.368  27.414   2.233
51832W        W24092  33.041   4.926   4.584
51833W        W24093  23.549  40.178  12.661
51834W        W24094  29.466  36.910  11.125
51835W        W24095   5.765   6.167   0.464
51836W        W24096  33.992  42.051  13.539
51837W        W24097  43.290  40.921  14.271
51838W        W24098   6.959   5.245   1.843
51839W        W24099  14.607  35.087   0.926
51840W        W24100  23.998  20.190   0.766
51841W        W24101  18.644   5.322  10.595
51842W        W24102  10.190  12.389  12.068
51843W        W24103  20.968  29.411   1.888
51844W        W24104   4.727  21.091  12.572
51845W        W24105   6.829  20.448  11.171
51846W        W24106  34.880   4.627   2.389
51847W        W24107  20.852  28.188   2.411
51848W        W24108  11.158   7.298   0.500
51849W        W24109  15.690  29.602   0.063
51850W        W24110  43.193  28.484  11.680
51851W        W24111  13.837  18.299  10.993
51852W        W24112  30.104  17.408   2.548
51853W        W24113   6.177   1.363  14.026
51854W        W24114  44.287   8.209  11.898
51855W        W24115  43.496   8.912  12.419
51856W        W24116  43.698   5.745   0.775
51857W        W24117   4.296   7.709   3.824
51858W        W24118   5.422  22.755   2.479
51859W        W24119  24.104   4.989   2.146
51860W        W24120  15.132  42.910  14.042
51861W        W24121  34.614  18.078   4.272
51862W        W24122  18.573  11.028  14.045
51863W        W24123  39.009  21.028   0.760
51864W        W24124  26.443  31.594  14.713
51865W        W24125   3.267  34.578  13.847
51866W        W24126  14.061  30.480   9.884
51867W        W24127  33.407  30.948   4.311
51868W        W24128  26.141   7.439   0.208
51869W        W24129  37.133  38.670  11.471
51870W        W24130  34.334  22.668   4.385
51871W        W24131  11.336  18.749  12.848
51872W        W24132  36.764   2.226  14.106
51873W        W24133  29.688  20.112   3.385
51874W        W24134   6.119  22.178  12.984
51875W        W24135  24.181  26.867   1.415
51876W        W24136  25.201  40.044  11.111
51877W        W24137   3.339  23.871  10.609
51878W        W24138  31.401  24.293  13.394
51879W        W24139  31.136  22.070   2.078
51880W        W24140  15.661  14.053   4.146
51881W        W24141  13.546  13.241   4.193
51882W        W24142  12.838  18.512  12.916
51883W        W24143  23.718  44.711   0.486
51884W        W24144   0.636  42.430   1.284
51885W        W24145  16.521  41.893  13.440
51886W        W24146  10.884   3.918  11.155
51887W        W24147  29.697   5.208   3.274
51888W        W24148   8.384  26.183  14.675
51889W        W24149   1.962   7.048   1.977
51890W        W24150  12.293  19.191  13.570
51891W        W24151  39.849   7.295  14.685
51892W        W24152  34.447  32.564  10.667
51893W        W24153  39.373   5.917   4.147
51894W        W24154  22.249  34.445   4.718
51895W        W24155  18.666  14.268   9.873
51896W        W24156  23.473   4.769   2.719
51897W        W24157  14.843  34.884   2.222
51898W        W24158  13.755  13.252  13.434
51899W        W24159  25.754  15.667   2.681
51900W        W24160   3.305   9.335   4.492
51901W        W24161  16.858  31.817  12.102
51902W        W24162  43.020  10.978   3.604
51903W        W24163  37.122  28.479  10.798
51904W        W24164  39.791  32.354   1.379
51905W        W24165  10.320  16.749  13.279
51906W        W24166  19.774  20.148   2.719
51907W        W24167  35.721  44.003  11.609
51908W        W24168  33.368  32.921   1.215
51909W        W24169  17.688  17.598   4.026
51910W        W24170  14.950  14.864  11.974
51911W        W24171  42.442  24.258   3.278
51912W        W24172  21.786  20.430   0.476
51913W        W24173   5.173   2.242   1.452
51914W        W24174  19.997  16.635   3.598
51915W        W24175  43.678  16.877   2.823
51916W        W24176  44.276   6.451  11.172
51917W        W24177  41.978  22.143   0.773
51918W        W24178  30.462  21.077  10.751
51919W        W24179  15.530  21.212   2.285
51920W        W24180  42.819   6.508   0.888
51921W        W24181  26.374   8.743   0.777
51922W        W24182   1.452  17.488  13.302
51923W        W24183   8.742  29.531   0.553
51924W        W24184  37.120  26.114   1.503
51925W        W24185  19.622  41.227   0.590
51926W        W24186  31.154   9.696  12.917
51927W        W24187  36.818  11.769  13.272
51928W        W24188  44.476  18.757   0.015
51929W        W24189  20.663  22.524   1.808
51930W        W24190  37.492  19.600   1.136
51931W        W24191  14.669  10.160   3.331
51932W        W24192  26.991   1.886  13.368
51933W        W24193  37.636  10.747  10.117
51934W        W24194  36.456  27.681   2.199
51935W        W24195  32.664   3.728   1.692
51936W        W24196   7.936  26.439   0.920
51937W        W24197   9.464  24.659  11.203
51938W        W24198  20.487  16.500   2.730
51939W        W24199  11.063  31.039  11.226
51940W        W24200   0.295  33.661  10.464
51941W        W24201  28.429   7.819   2.121
51942W        W24202  13.101  14.239   4.140
51943W        W24203  39.536  44.895   2.340
51944W        W24204  27.526  38.005  11.202
51945W        W24205  38.381  36.862   3.133
51946W        W24206  42.834   8.168   2.166
51947W        W24207   9.231  11.744  11.536
51948W        W24208   9.384   2.635  14.441
51949W        W24209  29.665  32.159   3.386
51950W        W24210  42.047  32.991   2.317
51951W        W24211  43.389  43.707  12.506
51952W        W24212  17.802   2.896   1.042
51953W        W24213  19.227   2.182  13.851
51954W        W24214  18.310  35.019   3.002
51955W        W24215  17.223  42.384   0.431
51956W        W24216  35.916  38.855   0.529
51957W        W24217  19.122  31.444   1.864
51958W        W24218  31.922  41.817   3.766
51959W        W24219  34.036  11.607   1.794
51960W        W24220   5.389  25.475  12.453
51961W        W24221  29.655   2.496  14.001
51962W        W24222   8.149   4.389   2.604
51963W        W24223  30.694  43.346   0.356
51964W        W24224   6.407  21.614  10.640
51965W        W24225  44.838  31.516  12.800
51966W        W24226  40.858   5.764  10.637
51967W        W24227  33.933   4.663   2.230
51968W        W24228  17.750  11.392  12.893
51969W        W24229  21.774   4.292  14.393
51970W        W24230  40.881  38.855   0.896
51971W        W24231   5.518  18.162  13.023
51972W        W24232  17.677   9.304   3.982
51973W        W24233  43.742  32.218  11.602
51974W        W24234  30.119   9.561  13.887
51975W        W24235  30.936  11.143  13.385
51976W        W24236   7.293  24.525   0.493
51977W        W24237  43.953  15.356  12.603
51978W        W24238  38.644  29.081  11.922
51979W        W24239  23.402  26.444  11.708
51980W        W24240   5.730  28.752  11.290
51981W        W24241  19.838  21.226   2.309
51982W        W24242   4.839  36.548   2.319
51983W        W24243  38.137   1.761  12.958
51984W        W24244   6.345   2.746  11.959
51985W        W24245   9.208  30.995  11.564
51986W        W24246  41.545  28.658   2.201
51987W        W24247  15.389  34.066  10.769
51988W        W24248  15.371  28.212   5.145
51989W        W24249   6.827   7.039  14.038
51990W        W24250  25.902  25.539  12.565
51991W        W24251  10.312   7.290  12.858
51992W        W24252  30.829   3.468  11.045
51993W        W24253   4.614  10.872  12.596
51994W        W24254  11.152  22.565   3.686
51995W        W24255   7.065  28.296  14.884
51996W        W24256  23.486  22.567  11.147
51997W        W24257  16.328   2.508  12.533
51998W        W24258  39.337   2.225  11.198
51999W        W24259  33.155  21.662  10.774
52000W        W24260  42.071  18.461  12.422
52001W        W24261  25.415  21.608  13.193
52002W        W24262  44.905  38.680   2.277
52003W        W24263  22.256  17.789   4.229
52004W        W24264  38.071   0.137  12.547
52005W        W24265   3.340  44.534   0.886
52006W        W24266  20.190  22.942   0.899
52007W        W24267  31.904  35.095  12.507
52008W        W24268  16.218   0.328   2.283
52009W        W24269  30.501  35.276   0.909
52010W        W24270  30.982  13.552  13.617
52011W        W24271  14.167  26.386   2.006
52012W        W24272  16.828  17.218  13.456
52013W        W24273  25.847  25.593   3.279
52014W        W24274  32.641  10.143   0.565
52015W        W24275   6.914   1.938  12.491
52016W        W24276   3.077  25.171  12.842
52017W        W24277  44.436  33.121  14.926
52018W        W24278  12.025   4.421   4.771
52019W        W24279  21.266  34.336  13.806
52020W        W24280  33.497  23.637   4.154
52021W        W24281  40.576  32.971  10.629
52022W        W24282  21.661  10.163   2.824
52023W        W24283  30.914  10.529   0.380
52024W        W24284  36.482  37.554  12.844
52025W        W24285  18.183  14.653  14.580
52026W        W24286   9.298   0.409   0.416
52027W        W24287  28.758   2.456   4.254
52028W        W24288  18.809  21.710  11.422
52029W        W24289  22.585  22.498   0.370
52030W        W24290  34.836  24.766  14.941
52031W        W24291  34.144  23.082  13.697
52032W        W24292  34.995  44.258   4.715
52033W        W24293  42.163  35.746  14.414
52034W        W24294   6.384  28.658  12.418
52035W        W24295  37.309  10.732   5.118
52036W        W24296  30.616  33.866  12.944
52037W        W24297   8.193  10.265   4.571
52038W        W24298  40.282  11.742  11.209
52039W        W24299  18.263   2.506  13.882
52040W        W24300  13.378   9.358   2.765
52041W        W24301  16.033  32.930   1.153
52042W        W24302  40.430  29.273   1.561
52043W        W24303  15.833  32.332   4.152
52044W        W24304   5.334  14.769   4.401
52045W        W24305  37.210   0.567   0.726
52046W        W24306  12.095   0.668   3.741
52047W        W24307   4.149  26.632   2.660
52048W        W24308  16.010  25.230   0.399
52049W        W24309  23.631  37.174  11.549
52050W        W24310  13.025  11.906   5.103
52051W        W24311  36.577   4.658  12.407
52052W        W24312  37.163  41.495   3.542
52053W        W24313  18.726  39.668   0.931
52054W        W24314  38.950  17.252  14.792
52055W        W24315  33.616  28.096  12.128
52056W        W24316  32.000  41.490  12.499
52057W        W24317   7.360   7.170   0.872
52058W        W24318   9.247   1.947   4.238
52059W        W24319  24.529  40.006   1.440
52060W        W24320  29.188  25.104  12.890
52061W        W24321  34.465   5.810   3.092
52062W        W24322  11.369  20.137  14.580
52063W        W24323  24.175  15.286   2.276
52064W        W24324   5.249  23.586  12.053
52065W        W24325  39.333  12.025  10.354
52066W        W24326  33.464  33.969  11.178
52067W        W24327  30.577  31.848  10.648
52068W        W24328  26.694  15.708  11.547
52069W        W24329  10.279  28.447   1.946
52070W        W24330   4.624   7.082  14.304
52071W        W24331  30.270   0.929   0.973
52072W        W24332  30.717  25.440   5.039
52073W        W24333  33.952  43.493  11.993
52074W        W24334  18.200   8.296   3.308
52075W        W24335  22.438   1.422   1.340
52076W        W24336   3.541  21.836  11.009
52077W        W24337  33.104  13.703   4.779
52078W        W24338  43.032   5.166   1.056
52079W        W24339  40.509  26.405   4.129
52080W        W24340  26.075  32.580   4.742
52081W        W24341  22.052  44.269  12.574
52082W        W24342  17.158  39.437   2.773
52083W        W24343  29.377  34.884  10.686
52084W        W24344  36.575   3.956   2.790
52085W        W24345  24.707  38.284   4.112
52086W        W24346  29.522  27.550  13.120
52087W        W24347  36.463  25.996  13.503
52088W        W24348  30.226  27.068  12.434
52089W        W24349  29.586  23.605  11.798
52090W        W24350  33.544   9.525  14.828
52091W        W24351  35.852  15.833   1.477
52092W        W24352  11.855  31.608  14.492
52093W        W24353  42.479  41.459   4.958
52094W        W24354  44.298  28.602  10.538
52095W        W24355  26.665  22.937  13.740
52096W        W24356  27.157  15.702  10.743
52097W        W24357   4.892  11.753   4.197
52098W        W24358  34.385   1.479  11.806
52099W        W24359   7.953  17.504   0.677
52100W        W24360  19.520  10.724  13.876
52101W        W24361  29.748  18.817   4.527
52102W        W24362  44.986   4.708   3.853
52103W        W24363  25.154  19.788   1.917
52104W        W24364  37.081   4.172  12.981
52105W        W24365   8.381  21.048  13.063
52106W        W24366   7.785  16.102   4.206
52107W        W24367  19.019  12.179  13.440
52108W        W24368  31.484  11.620   2.739
52109W        W24369  33.101  33.068   3.131
52110W        W24370   9.737   6.028  14.834
52111W        W24371  13.095  11.164   1.793
52112W        W24372  18.295  41.470  14.784
52113W        W24373  32.391   5.550   1.841
52114W        W24374  10.766  16.060   3.189
52115W        W24375  31.045  44.338   4.576
52116W        W24376  22.681  18.723  14.395
52117W        W24377   0.112   8.245   0.811
52118W        W24378   5.721  42.800  13.583
52119W        W24379  44.559  14.218   4.546
52120W        W24380  32.647   4.230  13.394
52121W        W24381   6.325   7.309  14.129
52122W        W24382  28.522  37.753   2.204
52123W        W24383  26.546  43.817   2.802
52124W        W24384  44.855  21.791   1.747
52125W        W24385   9.963  37.958   4.354
52126W        W24386   0.514   0.562   4.517
52127W        W24387  25.000   4.394  13.340
52128W        W24388  12.302  14.512   4.125
52129W        W24389   7.683  31.711   2.915
52130W        W24390   8.714  24.180  14.370
52131W        W24391  31.978  14.322   4.191
52132W        W24392  20.199  25.592  11.388
52133W        W24393  38.794  35.241   2.913
52134W        W24394  11.181   4.683  14.320
52135W        W24395   7.621  14.931  11.613
52136W        W24396  22.990  43.298   1.932
52137W        W24397  15.777  18.109   3.725
52138W        W24398  37.858  15.093  12.964
52139W        W24399  39.566  29.846  13.461
52140W        W24400  19.520  38.842   0.813
52141W        W24401  40.833  12.116  10.642
52142W        W24402  26.375  29.892  14.796
52143W        W24403  15.201  42.036   0.703
52144W        W24404   6.720   8.849  10.874
52145W        W24405  12.686  28.699  13.969
52146W        W24406  17.969  19.972   0.299
52147W        W24407  40.329  10.276  12.940
52148W        W24408  29.492  21.992   2.244
52149W        W24409  12.401   4.861   0.456
52150W        W24410  21.558   1.821  11.161
52151W        W24411  12.385   6.267  12.012
52152W        W24412  36.607  27.576  10.620
52153W        W24413  14.324   4.687  12.635
52154W        W24414  32.000   6.507  14.870
52155W        W24415  34.942   6.934   3.751
52156W        W24416  17.566  13.176   1.334
52157W        W24417  32.765  20.709   2.361
52158W        W24418  21.700   6.956   1.440
52159W        W24419  34.383  34.939   0.974
52160W        W24420  28.287  44.924   1.382
52161W        W24421  29.456  27.937  14.191
52162W        W24422  21.114  43.319   1.169
52163W        W24423  18.520  14.685  13.309
52164W        W24424  22.037  18.671  10.839
52165W        W24425  28.944  40.216   3.814
52166W        W24426  32.109  38.938  14.885
52167W        W24427   1.220  40.985   4.046
52168W        W24428  38.750  11.999  12.029
52169W        W24429  32.533  18.750  14.108
52170W        W24430  42.929  17.829   0.161
52171W        W24431  43.262  41.882   4.693
52172W        W24432  29.970  29.581  12.112
52173W        W24433  22.953  22.154   3.747
52174W        W24434  40.475  27.364   3.336
52175W        W24435  13.724  27.652  13.738
52176W        W24436  25.966  32.638   3.731
52177W        W24437  12.895  38.483   1.386
52178W        W24438  11.065   5.328   2.303
52179W        W24439  23.096  19.732   4.574
52180W        W24440  14.272   4.231   4.105
52181W        W24441  36.589  42.915   1.751
52182W        W24442  26.214  27.523   0.831
52183W        W24443  17.070  30.952  13.602
52184W        W24444   3.725  22.521   0.882
52185W        W24445  26.956  28.280   0.739
52186W        W24446  39.435   0.486  12.867
52187W        W24447  16.265  43.784   3.181
52188W        W24448  35.986  14.185  13.935
52189W        W24449  13.212  16.847   5.170
52190W        W24450  37.636  27.016   3.708
52191W        W24451  12.896   5.491  13.860
52192W        W24452  27.626  23.215   0.755
52193W        W24453  41.538   5.719  14.445
52194W        W24454  28.622   0.072  12.095
52195W        W24455  28.621  40.461  12.123
52196W        W24456  27.423  29.690   1.972
52197W        W24457   4.046   0.018  12.520
52198W        W24458  44.205  29.069  11.227
52199W        W24459  38.175  43.291   0.705
52200W        W24460  41.962   5.935   0.268
52201W        W24461  43.879  10.796  12.138
52202W        W24462  27.493  10.468  14.835
52203W        W24463   7.927  18.657   3.242
52204W        W24464   5.746   1.016  12.439
52205W        W24465   0.877  28.923   2.840
52206W        W24466  14.182  24.710   4.210
52207W        W24467  14.232  33.687  10.971
52208W        W24468   8.121   1.182  12.537
52209W        W24469  25.504  17.342  13.847
52210W        W24470  40.242  36.976  12.973
52211W        W24471  12.561  20.590  14.397
52212W        W24472   4.275  39.937   3.592
52213W        W24473  42.891   8.432   1.711
52214W        W24474  32.948  40.737   1.772
52215W        W24475   4.380  25.236   1.821
52216W        W24476  17.162   8.883   2.003
52217W        W24477  43.922  12.563   0.650
52218W        W24478  21.674  29.550   2.737
52219W        W24479  24.669  40.885  11.087
52220W        W24480  15.490  43.928   2.775
52221W        W24481  41.329   9.781   0.280
52222W        W24482  24.475   1.408  10.593
52223W        W24483  11.669  23.050  12.428
52224W        W24484  16.024  24.776   5.011
52225W        W24485  33.873  25.709   1.261
52226W        W24486  42.305  12.883  14.875
52227W        W24487   2.499  23.678  12.641
52228W        W24488  14.597  29.167   0.077
52229W        W24489  10.815  14.494   2.701
52230W        W24490  18.078  25.849   1.476
52231W        W24491   6.408  25.519   4.162
52232W        W24492  27.099  29.264   4.279
52233W        W24493  39.796  23.056  14.011
52234W        W24494   7.002  30.162  11.043
52235W        W24495   0.460  37.787  13.231
52236W        W24496  17.407   7.329   0.034
52237W        W24497  24.088  33.591  13.955
52238W        W24498   7.349  11.673   0.459
52239W        W24499  28.395  43.869   4.204
52240W        W24500  17.230   3.517   0.719
52241W        W24501  30.053  42.658  14.812
52242W        W24502   0.052  43.352   1.829
52243W        W24503  26.997  38.076  11.335
52244W        W24504  37.262  33.501   4.033
52245W        W24505  16.400  16.692   9.870
52246W        W24506   6.437  36.864  13.404
52247W        W24507   5.684  26.574   1.253
52248W        W24508  18.239   8.447   1.977
52249W        W24509  31.141  15.693  14.741
52250W        W24510   5.758  43.354  13.653
52251W        W24511  11.397  43.968   3.962
52252W        W24512  33.430  39.523  14.279
52253W        W24513  21.201  35.420  13.064
52254W        W24514  43.040  26.988   1.714
52255W        W24515  17.722  42.776   1.699
52256W        W24516  33.666  27.539   3.599
52257W        W24517  27.132  18.729   2.180
52258W        W24518  42.526  33.410  13.943
52259W        W24519   5.438   4.482  14.571
52260W        W24520  25.263  20.744   0.953
52261W        W24521   0.884  17.516   4.564
52262W        W24522  23.854  34.504   0.394
52263W        W24523  39.421  22.526  12.966
52264W        W24524  32.903  13.099  12.308
52265W        W24525  31.104  25.233  10.613
52266W        W24526  33.063  35.362  12.747
52267W        W24527  30.931  23.231  11.845
52268W        W24528  39.349  20.783  11.493
52269W        W24529  29.283  41.369   3.200
52270W        W24530  32.324  13.397  12.545
52271W        W24531  25.929  30.809   5.066
52272W        W24532  29.516   4.607   4.036
52273W        W24533  18.070  44.369  11.058
52274W        W24534  36.085   4.223  10.879
52275W        W24535   2.350  18.382   3.311
52276W        W24536  44.777   6.775   1.702
52277W        W24537  28.552   4.991  13.038
52278W        W24538  24.165   9.211  13.509
52279W        W24539   8.096   1.796  13.413
52280W        W24540   7.176  30.445  12.629
52281W        W24541  21.247   1.943   0.746
52282W        W24542  34.998  42.736  11.663
52283W        W24543  27.200  43.272   2.039
52284W        W24544  27.476  30.643  14.821
52285W        W24545  10.375  42.551  13.497
52286W        W24546  12.316  34.061  13.502
52287W        W24547  43.350  21.623  14.317
52288W        W24548  24.525  13.334  12.904
52289W        W24549  25.673  23.116   5.110
52290W        W24550  13.220  15.834   2.891
52291W        W24551  40.475  39.375  11.557
52292W        W24552  10.385   7.888  12.627
52293W        W24553  15.862  10.802   2.226
52294W        W24554  40.108  11.352   0.562
52295W        W24555  38.805  41.977  13.840
52296W        W24556  30.666   7.845  14.859
52297W        W24557  34.362  40.422  12.882
52298W        W24558   4.569  11.315  12.346
52299W        W24559  34.273  41.701   2.741
52300W        W24560  16.763  26.147  12.551
52301W        W24561  23.302  12.130   4.674
52302W        W24562  32.348   6.498  12.045
52303W        W24563  17.142   2.793   3.085
52304W        W24564  15.297  36.781   3.768
52305W        W24565  14.640   1.750   2.401
52306W        W24566  29.734  26.283  11.578
52307W        W24567  38.468   7.817   3.298
52308W        W24568  23.451  15.575   3.773
52309W        W24569  38.784   9.942  11.992
52310W        W24570  41.997  27.060   4.917
52311W        W24571  24.219  15.376  11.500
52312W        W24572   7.336  24.518  14.429
52313W        W24573  42.223   4.393  11.842
52314W        W24574  16.346  32.110  13.054
52315W        W24575  22.144  31.188   4.648
52316W        W24576  22.577  36.489  12.256
52317W        W24577   1.664  23.219  12.864
52318W        W24578  18.240  30.684   3.228
52319W        W24579  25.129   6.131   1.270
52320W        W24580  23.478   6.856   0.536
52321W        W24581  16.837   3.496   1.440
52322W        W24582  14.831  37.948   1.058
52323W        W24583  18.869  39.459  14.352
52324W        W24584  38.016  29.945  14.511
52325W        W24585   8.158   4.795  14.414
52326W        W24586   2.505   4.360   3.583
52327W        W24587  25.542  25.627  14.914
52328W        W24588  13.118  40.709  10.705
52329W        W24589  32.883   7.757   2.941
52330W        W24590  20.830  25.728  13.613
52331W        W24591  25.582   2.119   3.129
52332W        W24592  37.533  24.437   0.861
52333W        W24593  13.615  30.367   0.856
52334W        W24594   6.307  10.793  12.969
52335W        W24595  31.076  39.329   1.954
52336W        W24596  44.229  34.502  10.263
52337W        W24597  43.299  25.806   3.805
52338W        W24598  21.330   6.254   0.964
52339W        W24599  38.772   9.300  10.847
52340W        W24600   2.677  25.109   1.495
52341W        W24601  24.455  36.784  12.430
52342W        W24602  43.805  11.370   2.765
52343W        W24603  18.677   4.531   2.848
52344W        W24604  29.235   6.369  12.079
52345W        W24605  41.757  17.615  11.411
52346W        W24606  33.408  35.412   3.052
52347W        W24607   1.973  27.239  10.714
52348W        W24608  14.163   9.842  12.350
52349W        W24609  15.534  31.921   2.007
52350W        W24610   2.677  18.222  14.882
52351W        W24611   2.676  44.404  14.021
52352W        W24612  13.693   2.353   2.401
52353W        W24613  14.448  17.758   4.668
52354W        W24614   7.184  36.143   1.335
52355W        W24615  15.995   6.392   1.970
52356W        W24616   0.930  25.263  13.447
52357W        W24617   3.900  24.483   3.909
52358W        W24618  13.328  14.597  14.529
52359W        W24619  39.781  38.075   1.770
52360W        W24620   2.771  41.322   5.071
52361W        W24621   9.571   9.501  11.461
52362W        W24622  28.633  28.942   3.348
52363W        W24623   5.916   3.770   1.398
52364W        W24624   9.609  16.129   4.045
52365W        W24625   1.030  39.996  13.164
52366W        W24626  30.965  21.077   0.909
52367W        W24627   5.207  18.107   3.654
52368W        W24628  26.345   8.153   4.831
52369W        W24629  28.625  31.597  12.811
52370W        W24630  32.645  37.054   3.329
52371W        W24631  39.777  38.057   4.260
52372W        W24632   6.159  20.253   4.631
52373W        W24633  18.110  10.354   2.756
52374W        W24634  16.340  30.747   2.749
52375W        W24635  35.580  17.017  13.729
52376W        W24636  15.329   7.295  14.960
52377W        W24637   6.739  10.715  14.284
52378W        W24638  19.994   7.042   5.460
52379W        W24639   4.471  41.945  11.943
52380W        W24640  13.093  28.341   0.874
52381W        W24641  18.603  36.517   3.596
52382W        W24642   5.655  29.285   5.794
52383W        W24643   9.016  17.026  12.371
52384W        W24644   0.036  33.156  11.089
52385W        W24645  36.442  10.898   4.426
52386W        W24646  26.837   9.079  14.496
52387W        W24647  39.826  42.824  14.069
52388W        W24648  43.297   9.133  11.179
52389W        W24649   3.709  27.925  10.832
52390W        W24650  13.266  20.721  14.750
52391W        W24651   5.285  43.603   3.709
52392W        W24652   7.934   2.513   4.069
52393W        W24653  23.743  11.756  10.929
52394W        W24654  43.780  16.177  12.370
52395W        W24655  11.791   8.693  11.429
52396W        W24656  14.343   9.026  11.047
52397W        W24657  23.934  16.052   1.726
52398W        W24658   4.153  34.642  13.798
52399W        W24659  41.502  43.025   1.176
52400W        W24660   5.973   9.837  13.722
52401W        W24661   2.471  40.774   1.784
52402W        W24662   4.151   7.942   3.406
52403W        W24663  10.616  19.563  12.688
52404W        W24664   3.653  30.586  10.047
52405W        W24665  43.707  14.248  13.215
52406W        W24666  27.022  11.599   2.785
52407W        W24667  16.311  40.364  12.885
52408W        W24668   9.725  20.315  12.919
52409W        W24669  41.372  41.501  14.940
52410W        W24670   3.447  12.482  14.893
52411W        W24671  29.940  42.750   3.431
52412W        W24672  35.935  43.776   3.659
52413W        W24673  31.491  29.907  11.355
52414W        W24674  33.927  27.705  14.548
52415W        W24675   0.877  41.986  14.519
52416W        W24676  23.132  16.564  12.885
52417W        W24677  33.119  40.385  13.355
52418W        W24678  36.344  40.561   3.296
52419W        W24679  44.023  25.060   4.670
52420W        W24680  13.767  36.052   1.481
52421W        W24681  40.546   5.303   1.931
52422W        W24682  41.421   7.302   3.321
52423W        W24683  43.435  33.665   0.890
52424W        W24684  34.962  11.564  11.717
52425W        W24685  13.132  15.134  10.561
52426W        W24686  12.805  18.689  11.582
52427W        W24687  16.175  25.995  11.517
52428W        W24688   4.400  30.557   3.112
52429W        W24689   0.082  25.097   0.920
52430W        W24690  43.632  11.782  12.976
52431W        W24691   4.853   8.467   1.371
52432W        W24692  29.008  34.507  10.766
52433W        W24693   3.711  12.387  12.443
52434W        W24694  15.724   1.058   3.640
52435W        W24695  11.132  14.174  13.950
52436W        W24696  24.488  38.782  12.084
52437W        W24697  31.629  38.172  13.814
52438W        W24698  38.761  22.488  13.431
52439W        W24699  23.938  28.391   4.160
52440W        W24700  30.888  29.211   0.934
52441W        W24701   5.700  26.242   4.282
52442W        W24702  21.934  11.911   4.535
52443W        W24703  22.141  15.545  11.315
52444W        W24704   0.993  21.519   3.911
52445W        W24705  38.273  21.938   3.288
52446W        W24706  11.694  11.557   3.702
52447W        W24707  23.926  14.405  13.794
52448W        W24708  14.334  31.726  10.936
52449W        W24709   3.907  37.726   2.328
52450W        W24710  27.945  14.559  14.052
52451W        W24711   6.659  22.808  13.198
52452W        W24712  23.255  27.059  14.507
52453W        W24713  38.528  19.137   3.381
52454W        W24714  40.427  33.555   1.956
52455W        W24715  39.302  27.227  14.771
52456W        W24716   5.367  22.707  10.767
52457W        W24717   3.951  38.556   3.416
52458W        W24718  35.785  38.276   2.857
52459W        W24719  33.513  33.570   2.781
52460W        W24720  32.651  19.133  14.930
52461W        W24721  11.455  11.826  13.783
52462W        W24722  26.909  26.365   5.017
52463W        W24723   7.342  28.506  12.879
52464W        W24724  24.993   0.081  11.778
52465W        W24725  23.697  38.687  14.417
52466W        W24726  29.718   3.908   2.430
52467W        W24727  20.226  10.121  11.092
52468W        W24728  27.596   0.904  14.393
52469W        W24729  28.391   6.764   2.929
52470W        W24730   4.363  24.961  13.099
52471W        W24731  43.857   6.347  10.474
52472W        W24732  43.558  24.561  13.438
52473W        W24733  35.502  17.848  12.034
52474W        W24734  27.206  36.611  11.515
52475W        W24735   2.966   4.456   3.374
52476W        W24736  34.298   2.033   4.529
52477W        W24737  14.089  10.297  12.572
52478W        W24738  39.996  31.128  11.608
52479W        W24739  40.357   9.194  12.199
52480W        W24740  34.096   8.860  12.379
52481W        W24741  40.090  30.375   0.880
52482W        W24742  11.732  18.814  10.773
52483W        W24743  42.386  12.044   2.654
52484W        W24744  30.413  39.637  11.654
52485W        W24745  42.358  25.911   3.180
52486W        W24746  19.586  35.096   1.829
52487W        W24747  19.012  23.570  12.170
52488W        W24748  14.857  38.270  10.949
52489W        W24749  14.205   0.558   2.903
52490W        W24750  30.501  28.875   0.879
52491W        W24751   1.410   0.805  11.577
52492W        W24752  39.099  27.196  13.910
52493W        W24753  24.473   8.797  13.411
52494W        W24754  33.899  15.246  13.316
52495W        W24755  27.482  36.571  11.066
52496W        W24756  16.155   0.770   0.230
52497W        W24757  17.613  22.697  11.033
52498W        W24758  26.897  30.902  12.994
52499W        W24759  15.842  18.483  11.159
52500W        W24760  43.025   6.710   1.971
52501W        W24761  41.893  10.029  11.622
52502W        W24762  13.041  20.655  11.117
52503W        W24763  13.209   8.801   1.154
52504W        W24764  20.499  25.262  14.415
52505W        W24765  42.388  43.407  13.098
52506W        W24766  14.169  43.427  10.715
52507W        W24767  42.355  32.945  13.791
52508W        W24768  30.852  23.940  12.861
52509W        W24769  26.333  18.744   1.561
52510W        W24770  17.117  34.244  13.925
52511W        W24771  26.475   4.868   1.727
52512W        W24772  24.125  44.045  13.877
52513W        W24773  20.158  19.746   0.826
52514W        W24774   9.924  11.870   1.831
52515W        W24775  25.880  40.148   1.687
52516W        W24776  11.154  27.215   2.709
52517W        W24777   9.469  16.007  14.066
52518W        W24778  24.652  31.429  11.120
52519W        W24779   3.243  34.073  11.529
52520W        W24780  29.567  38.546  14.960
52521W        W24781  40.480  17.816   4.289
52522W        W24782   9.250   6.760  11.009
52523W        W24783  32.997  43.761  13.809
52524W        W24784   2.361  26.496   3.714
52525W        W24785  25.024  20.505  12.573
52526W        W24786  42.599  11.938  11.159
52527W        W24787   4.974  22.047   0.017
52528W        W24788  24.868  21.663   1.780
52529W        W24789  13.675  27.591  11.021
52530W        W24790   8.146  28.597   1.309
52531W        W24791  28.457  24.524   1.089
52532W        W24792  30.397   8.269   3.736
52533W        W24793  40.952  18.736   4.594
52534W        W24794  31.454  13.930  10.586
52535W        W24795  17.925  24.665  13.392
52536W        W24796  10.622   0.386  14.995
52537W        W24797  40.184  14.891   0.952
52538W        W24798  31.642  37.419   1.740
52539W        W24799  11.828   3.457   2.317
52540W        W24800  17.643  27.475   3.146
52541W        W24801  19.435  16.656  14.804
52542W        W24802  42.926  38.351   3.061
52543W        W24803  21.298   3.294   2.787
52544W        W24804   3.482   8.620  11.079
52545W        W24805  16.462  21.581   4.770
52546W        W24806   9.452  34.144  11.157
52547W        W24807  38.626  35.121  11.652
52548W        W24808  40.044  17.503   4.060
52549W        W24809  16.160  33.436   4.591
52550W        W24810  20.744  41.049   0.652
52551W        W24811  10.411  42.920   3.481
52552W        W24812   3.010  14.351   1.681
52553W        W24813  24.496  28.669   2.787
52554W        W24814  16.260   0.858   1.411
52555W        W24815  25.966  34.646   0.965
52556W        W24816  34.553  33.580   2.876
52557W        W24817  44.809   3.345   4.530
52558W        W24818  44.349   3.246   1.358
52559W        W24819  25.866   3.513   0.874
52560W        W24820  23.175  23.928   2.309
52561W        W24821  22.537   6.796  11.571
52562W        W24822  15.859  26.499  12.576
52563W        W24823  24.424  12.056   0.304
52564W        W24824  23.980  41.694   0.799
52565W        W24825  26.532  19.761   2.631
52566W        W24826   7.886  26.958   4.555
52567W        W24827  37.763  11.596   3.259
52568W        W24828  26.776  12.774  10.675
52569W        W24829  32.074  21.993  12.626
52570W        W24830  19.209  26.495  14.014
52571W        W24831  11.978  27.841   1.782
52572W        W24832  10.296  34.699   3.930
52573W        W24833   5.788  29.062   2.837
52574W        W24834  14.583  33.990   0.864
52575W        W24835  43.882  26.578  14.823
52576W        W24836  27.104  33.353   3.064
52577W        W24837  42.852  13.040   4.566
52578W        W24838  25.472   3.031  12.362
52579W        W24839  35.223   2.293   4.563
52580W        W24840   3.291   9.653   0.884
52581W        W24841  33.374  11.227  10.627
52582W        W24842  23.653  17.887  12.034
52583W        W24843  23.571  44.492   0.916
52584W        W24844  23.304  36.155  14.336
52585W        W24845  23.143  28.018   1.428
52586W        W24846  30.591  30.685   2.881
52587W        W24847  36.327  43.932  11.865
52588W        W24848  35.141  24.970  13.675
52589W        W24849  41.898  13.985   1.162
52590W        W24850  23.706  27.155   1.390
52591W        W24851  19.628  35.159   2.734
52592W        W24852   3.967  19.122   3.738
52593W        W24853  21.447  10.320   0.226
52594W        W24854  16.143  23.251  11.081
52595W        W24855   3.806  38.049   1.892
52596W        W24856  20.608  12.241   3.131
52597W        W24857   5.615  24.991   0.706
52598W        W24858  40.042  41.043   3.680
52599W        W24859   6.460  17.113   0.343
52600W        W24860  24.485  44.033   1.412
52601W        W24861  10.315  22.147  10.757
52602W        W24862   8.770   0.929   1.756
52603W        W24863  25.060  17.797   0.740
52604W        W24864  14.327   0.394  12.501
52605W        W24865  30.706  11.649   4.153
52606W        W24866  31.720  15.988  14.212
52607W        W24867  40.295  44.316   2.299
52608W        W24868  10.960  31.444   2.595
52609W        W24869   3.403  28.033   3.736
52610W        W24870  10.848  35.493   1.440
52611W        W24871  27.984  30.440   2.292
52612W        W24872   1.869  35.256   2.519
52613W        W24873  23.524   7.657   2.587
52614W        W24874  11.831  10.704   3.442
52615W        W24875  31.680   2.536  14.446
52616W        W24876  27.486  35.505  14.998
52617W        W24877  26.545  33.499   0.833
52618W        W24878  11.735  36.431   1.685
52619W        W24879   5.958  37.988   1.968
52620W        W24880  37.867  18.158  13.757
52621W        W24881  25.759  15.164  14.829
52622W        W24882  30.019  16.713  14.288
52623W        W24883  17.744   3.047  11.873
52624W        W24884  39.458  40.847  11.042
52625W        W24885  10.642  28.922  13.497
52626W        W24886  15.160  19.172   2.421
52627W        W24887  21.301  27.944  11.558
52628W        W24888  14.110  14.855   3.403
52629W        W24889   1.701  28.972  11.149
52630W        W24890  16.523  15.238  11.089
52631W        W24891  19.297  21.634  11.897
52632W        W24892  16.144  14.523   0.842
52633W        W24893  33.382  16.016   4.115
52634W        W24894  17.761   8.817  13.151
52635W        W24895  11.680  38.315  14.381
52636W        W24896  24.057  42.242  11.970
52637W        W24897  20.757   3.892  11.924
52638W        W24898   1.297  29.855   1.622
52639W        W24899  14.899  28.339   3.319
52640W        W24900  39.527  42.270  11.543
52641W        W24901  30.501  36.870   4.838
52642W        W24902  11.322  18.513   0.814
52643W        W24903  21.379  34.466   4.764
52644W        W24904  43.271  35.428  10.397
52645W        W24905   7.763   4.115  11.893
52646W        W24906  39.076   8.194  11.592
52647W        W24907   0.472   6.034  13.330
52648W        W24908  12.081  17.027   0.837
52649W        W24909  17.602  31.986  11.447
52650W        W24910  28.698  12.842   0.637
52651W        W24911  38.342  25.018  14.257
52652W        W24912  26.342   1.852   2.124
52653W        W24913   1.235  38.828   2.359
52654W        W24914  34.635  39.504   4.080
52655W        W24915  21.671  23.450  13.104
52656W        W24916  13.547   9.350  14.052
52657W        W24917  26.416  41.849  10.696
52658W        W24918  31.095  26.389   2.903
52659W        W24919  22.050  40.574   1.279
52660W        W24920  36.140   5.979   2.644
52661W        W24921   1.311  28.439  12.853
52662W        W24922  41.873  25.913  12.983
52663W        W24923  33.397   6.674   3.864
52664W        W24924  40.022   1.966   0.780
52665W        W24925  43.344  29.633   4.294
52666W        W24926  33.568  21.118   4.275
52667W        W24927  36.245  21.993   0.481
52668W        W24928  40.796  40.560   2.740
52669W        W24929  15.475  24.239   1.292
52670W        W24930  12.256   4.875  12.866
52671W        W24931  17.046  15.864  14.537
52672W        W24932  18.658  43.224  13.967
52673W        W24933  33.644  24.054  10.863
52674W        W24934  23.282  39.391   4.061
52675W        W24935   8.424   1.960  13.785
52676W        W24936  14.792  24.605  13.103
52677W        W24937  28.914  44.129  11.148
52678W        W24938  27.688  33.407   2.455
52679W        W24939   1.395  12.865   4.062
52680W        W24940  44.217  37.286  12.045
52681W        W24941  29.461   9.270  12.503
52682W        W24942  32.159  22.446  11.171
52683W        W24943   5.444  41.760   0.743
52684W        W24944  13.919  10.208  11.649
52685W        W24945  35.926   7.009   0.804
52686W        W24946   3.035  37.285   3.079
52687W        W24947  10.937  20.330  14.767
52688W        W24948  30.969   3.519   5.041
52689W        W24949  16.467  28.000  13.282
52690W        W24950  26.057  32.810  12.066
52691W        W24951  17.665  31.020   3.908
52692W        W24952  17.927  21.888   2.645
52693W        W24953   6.358  19.201   1.799
52694W        W24954  38.822  43.857   0.438
52695W        W24955  15.554  19.482   2.628
52696W        W24956   5.934   7.611  12.942
52697W        W24957  44.035  13.889   1.872
52698W        W24958   4.807  42.305  14.547
52699W        W24959  37.640  17.093   2.440
52700W        W24960  12.877  16.313  13.372
52701W        W24961   5.194  18.164   0.729
52702W        W24962  38.500  34.063   4.147
52703W        W24963  42.286   4.753   2.646
52704W        W24964  30.143  14.542   3.300
52705W        W24965  14.730  10.668  14.807
52706W        W24966   6.750  32.556   4.837
52707W        W24967  15.679  31.116   0.955
52708W        W24968  21.943   5.323  12.361
52709W        W24969  22.182  12.215   2.348
52710W        W24970  12.230  43.437   1.141
52711W        W24971  33.234   0.813   1.567
52712W        W24972  24.759  39.994   2.415
52713W        W24973  32.586  32.584  14.227
52714W        W24974  11.801  38.928   0.621
52715W        W24975  26.561  23.455   4.082
52716W        W24976   2.341  13.242  12.889
52717W        W24977  23.147  40.405  11.395
52718W        W24978  28.211  32.839   4.465
52719W        W24979  33.596  26.990  12.051
52720W        W24980  23.639   4.653   3.265
52721W        W24981  21.724  36.679   3.693
52722W        W24982  44.825  37.861  11.599
52723W        W24983  21.650   1.799   1.978
52724W        W24984  30.847  42.031   1.271
52725W        W24985  35.650  32.380   1.423
52726W        W24986   3.950   6.712   4.069
52727W        W24987   3.349  23.255   1.242
52728W        W24988  16.317  20.559  11.513
52729W        W24989  30.117  13.329   2.744
52730W        W24990   9.385  13.191   2.780
52731W        W24991   1.920  38.275  13.923
52732W        W24992  19.080   5.828   2.148
52733W        W24993  14.632  23.104   0.174
52734W        W24994  35.281  24.691  14.121
52735W        W24995  10.278  21.479   1.874
52736W        W24996  34.804  40.492   4.113
52737W        W24997   1.747   0.502  13.025
52738W        W24998   0.318  18.603  12.061
52739W        W24999  41.354  22.285  12.861
52740W        W25000   7.323  17.210  11.093
52741W        W25001  25.630  40.960  12.489
52742W        W25002  34.781  17.179  11.299
52743W        W25003  14.133  36.807   4.345
52744W        W25004  32.997  27.357   2.120
52745W        W25005  12.199   2.429  13.109
52746W        W25006  14.737   6.300   4.124
52747W        W25007   3.798  15.332  10.362
52748W        W25008  10.565   6.803   3.421
52749W        W25009  31.874  12.318  10.967
52750W        W25010  26.591  44.321   2.825
52751W        W25011   8.748  21.998  10.628
52752W        W25012   4.650  38.971   3.775
52753W        W25013  18.711  41.813   1.222
52754W        W25014   6.438   7.204   1.308
52755W        W25015  14.704   0.929   1.440
52756W        W25016  15.068  28.501   4.209
52757W        W25017  35.887  43.925   1.748
52758W        W25018  10.791   8.192   3.332
52759W        W25019  29.578  40.355   9.979
52760W        W25020  33.053  25.496   1.936
52761W        W25021  28.020   4.908   4.431
52762W        W25022  12.615   7.394   0.544
52763W        W25023  39.439   5.840  12.588
52764W        W25024  39.902   5.506   0.809
52765W        W25025  24.701  24.701   4.472
52766W        W25026  13.010  29.084  13.839
52767W        W25027  17.641   2.013   0.841
52768W        W25028  41.750  15.577  12.872
52769W        W25029  14.245  42.368   4.140
52770W        W25030   9.150  39.853   4.723
52771W        W25031  31.024  35.941  12.425
52772W        W25032  29.455   2.980   1.284
52773W        W25033  10.194  12.797   3.218
52774W        W25034  11.581   2.305   2.770
52775W        W25035  38.103  26.514  13.377
52776W        W25036  18.369  36.508  13.008
52777W        W25037  37.221  21.430   5.074
52778W        W25038   0.316  10.088  10.389
52779W        W25039  41.951  26.429  13.036
52780W        W25040  39.827  31.933   2.761
52781W        W25041  34.343  42.989   0.306
52782W        W25042  26.393  29.523  14.431
52783W        W25043  14.380  40.261  13.273
52784W        W25044  29.034  17.796  14.443
52785W        W25045  38.443  37.848   3.163
52786W        W25046  38.319   9.753   3.231
52787W        W25047  35.471  41.272  13.141
52788W        W25048  10.116   5.482   2.312
52789W        W25049  30.942  27.546  11.079
52790W        W25050  31.532  17.039   2.701
52791W        W25051  30.837  19.974  14.821
52792W        W25052  26.309   3.250  14.506
52793W        W25053  32.003  37.378  14.845
52794W        W25054  12.035  44.763  13.917
52795W        W25055  28.429   6.201  11.583
52796W        W25056  19.178  32.868   1.683
52797W        W25057  28.408  38.859   2.275
52798W        W25058  15.601   7.796  13.505
52799W        W25059  40.951   7.224  14.281
52800W        W25060  22.188  27.693   0.667
52801W        W25061  26.539  17.756  12.818
52802W        W25062  38.831  22.605  12.476
52803W        W25063  14.647  33.852   3.654
52804W        W25064   4.715  40.910   4.576
52805W        W25065  25.075  27.513  11.835
52806W        W25066  35.999  26.058  11.020
52807W        W25067  11.566  34.120   1.253
52808W        W25068  13.778   3.251   0.283
52809W        W25069  22.950   1.398  13.039
52810W        W25070   4.305  18.700   4.481
52811W        W25071   7.418  42.466   4.086
52812W        W25072  37.486  22.118  12.109
52813W        W25073  29.894  19.411  12.416
52814W        W25074  32.812  30.348   4.225
52815W        W25075  34.403  42.260   0.542
52816W        W25076  22.794  40.504  10.693
52817W        W25077   8.305  34.303  14.826
52818W        W25078  32.240  25.759   1.287
52819W        W25079  16.343   2.925  12.889
52820W        W25080  33.002  39.396   4.579
52821W        W25081   0.377  24.953   4.009
52822W        W25082  32.109  33.275  14.321
52823W        W25083  21.124  24.449  13.369
52824W        W25084  29.862  32.426   4.046
52825W        W25085  27.229  20.999   2.749
52826W        W25086   4.756  17.151   0.934
52827W        W25087  34.512   2.398   1.246
52828W        W25088  19.311  10.468  11.259
52829W        W25089  12.362  31.223   1.384
52830W        W25090  12.024   7.963  12.964
52831W        W25091  42.783  18.460  10.820
52832W        W25092  21.825   5.724  11.084
52833W        W25093  24.023  21.327  12.804
52834W        W25094  21.602  12.832   4.203
52835W        W25095   5.239   9.899   3.195
52836W        W25096  20.049  29.909  11.650
52837W        W25097  32.138  24.544   0.545
52838W        W25098  16.407   2.181  11.214
52839W        W25099  37.516   6.133  11.085
52840W        W25100  10.238  37.759   5.189
52841W        W25101  30.947  36.590   4.635
52842W        W25102  33.468   8.483  12.012
52843W        W25103  35.430  33.928   3.290
52844W        W25104  17.128  40.068   0.741
52845W        W25105  12.689  43.888   4.416
52846W        W25106  12.834   2.713   0.437
52847W        W25107  37.519  34.625   0.070
52848W        W25108  11.306  11.243   1.933
52849W        W25109  30.158   8.733  13.287
52850W        W25110  17.375   4.269   2.730
52851W        W25111  32.501   1.689   4.189
52852W        W25112  21.169  36.504  14.910
52853W        W25113  17.289   9.232   1.186
52854W        W25114  43.333  33.409  12.352
52855W        W25115  16.589  15.073   1.648
52856W        W25116  37.953   0.833   2.422
52857W        W25117  39.963  29.581  10.772
52858W        W25118  34.502  42.823  10.816
52859W        W25119   6.649  28.469   4.618
52860W        W25120  19.699   8.259  10.284
52861W        W25121  20.574  27.987  14.455
52862W        W25122  42.287   8.135  14.268
52863W        W25123  43.992  10.667  14.957
52864W        W25124  39.189   9.374  10.559
52865W        W25125   1.553  13.764   2.733
52866W        W25126  38.012  19.965  14.951
52867W        W25127   7.312   2.260   4.329
52868W        W25128   7.850  26.937  12.523
52869W        W25129  13.061  32.868   4.696
52870W        W25130  23.811  36.045  14.941
52871W        W25131   1.888  18.590  14.983
52872W        W25132  17.206   5.789  14.188
52873W        W25133   3.745   8.928  14.787
52874W        W25134  12.070  12.393  12.273
52875W        W25135  35.515  31.976   3.242
52876W        W25136  35.534  23.153   0.707
52877W        W25137   7.266  34.663   0.433
52878W        W25138  40.329  22.722  11.426
52879W        W25139  13.686  38.309   0.990
52880W        W25140  26.735  38.794  13.759
52881W        W25141  39.576  36.155  12.463
52882W        W25142  14.687  22.585   1.773
52883W        W25143  44.259   1.918   4.082
52884W        W25144  35.962  20.145   0.015
52885W        W25145  40.534  18.967   9.906
52886W        W25146  29.112  36.115  14.379
52887W        W25147  10.720  33.928  13.405
52888W        W25148  25.786  40.943  11.092
52889W        W25149  24.044  37.138  12.412
52890W        W25150   1.821  35.987  10.671
52891W        W25151  42.348   0.611   0.246
52892W        W25152  29.469  29.140   2.778
52893W        W25153  13.867   1.833  10.638
52894W        W25154  26.166  25.315   1.505
52895W        W25155  15.053  24.950   2.341
52896W        W25156   9.222  25.584  10.722
52897W        W25157   7.648   6.628   4.653
52898W        W25158  39.625  36.472  14.458
52899W        W25159  19.501  18.059  13.373
52900W        W25160  28.575  39.328   1.392
52901W        W25161  18.042  22.153  13.988
52902W        W25162  23.785  40.317   0.841
52903W        W25163  35.101  17.184   3.556
52904W        W25164  34.171   5.661  14.761
52905W        W25165  21.557  22.049   4.196
52906W        W25166  27.473  14.912   2.380
52907W        W25167  16.082  35.080   2.624
52908W        W25168  40.963  42.782  12.090
52909W        W25169   5.477  41.905  13.814
52910W        W25170  33.153  31.501   1.737
52911W        W25171  44.716  22.021  12.117
52912W        W25172  36.438  23.156   0.153
52913W        W25173   5.392   0.329  12.617
52914W        W25174   2.220   9.824  12.113
52915W        W25175  33.360  17.853  11.263
52916W        W25176  15.064  21.896   4.488
52917W        W25177  41.755  28.055  14.313
52918W        W25178   1.722  41.979   4.617
52919W        W25179  22.569  23.677   4.587
52920W        W25180  43.668  22.662  14.471
52921W        W25181  19.418  10.577   1.412
52922W        W25182  14.821  29.423   1.448
52923W        W25183   5.527  32.091   1.274
52924W        W25184  17.669   7.840  13.116
52925W        W25185  11.767   4.770   3.131
52926W        W25186  10.952  32.737   1.554
52927W        W25187   4.883  24.137   2.274
52928W        W25188  43.351  32.101   2.790
52929W        W25189  37.867   1.911   1.670
52930W        W25190  11.182   9.759  12.245
52931W        W25191  11.613  11.395   0.306
52932W        W25192  41.369  39.083   5.065
52933W        W25193  16.842   3.430   4.561
52934W        W25194  31.952  36.054   1.477
52935W        W25195  40.378  29.679   2.316
52936W        W25196   6.524  11.792   5.033
52937W        W25197  33.666  31.001  11.485
52938W        W25198  11.786   9.752   3.164
52939W        W25199   7.851  14.759  12.059
52940W        W25200  20.557   1.002  14.089
52941W        W25201  38.667  31.510  11.082
52942W        W25202   6.435  23.304   4.091
52943W        W25203  28.413  14.146   1.183
52944W        W25204  14.272  13.910  11.059
52945W        W25205  43.521   6.956   2.179
52946W        W25206  40.970  25.619   4.632
52947W        W25207   6.201  31.394   4.535
52948W        W25208  17.279  30.957   0.407
52949W        W25209  37.210   9.540   5.352
52950W        W25210  39.917  36.176  12.871
52951W        W25211  34.589  40.227  12.441
52952W        W25212  38.379   6.870  14.117
52953W        W25213  32.961  44.756  11.610
52954W        W25214  24.191  37.461   4.429
52955W        W25215  19.990  31.070   2.725
52956W        W25216  10.888  25.485   3.718
52957W        W25217  14.329  16.111   1.590
52958W        W25218  41.467  14.658  11.190
52959W        W25219  13.577  19.772   2.782
52960W        W25220  42.547  10.376  14.005
52961W        W25221  25.455  42.581  10.504
52962W        W25222   1.967  41.437   3.538
52963W        W25223  19.253   1.850  14.854
52964W        W25224   6.764  36.059   3.607
52965W        W25225   8.735  11.100   1.435
52966W        W25226   0.211   8.168   3.205
52967W        W25227  34.406  37.637   2.297
52968W        W25228  39.038  31.188  13.632
52969W        W25229  41.840  28.983  13.922
52970W        W25230  39.780  15.894  12.965
52971W        W25231  24.272  43.489   0.369
52972W        W25232   8.897   9.233   3.157
52973W        W25233   7.583  10.896  13.989
52974W        W25234  33.383  43.303   1.133
52975W        W25235  38.100   9.189   3.892
52976W        W25236   1.795  35.631   2.871
52977W        W25237   2.303  24.629   4.530
52978W        W25238  38.386   9.329  14.787
52979W        W25239  11.330  14.344  11.100
52980W        W25240  24.227   3.861   4.237
52981W        W25241  32.400  31.764   2.187
52982W        W25242  33.334   4.998   5.054
52983W        W25243  37.382   8.565  12.931
52984W        W25244  44.436  21.270   4.643
52985W        W25245  26.512  42.108   3.829
52986W        W25246  43.296  11.221   4.045
52987W        W25247   8.769  33.457   4.933
52988W        W25248  24.068  31.292   2.733
52989W        W25249  15.175  42.526   4.255
52990W        W25250  16.127  30.571  13.799
52991W        W25251  40.009  12.689  11.479
52992W        W25252  33.649  26.214  11.083
52993W        W25253  34.431  12.398   3.356
52994W        W25254  26.413  12.354   2.797
52995W        W25255   1.846  12.699   1.365
52996W        W25256  40.318   9.207   9.844
52997W        W25257  24.965  25.651  14.947
52998W        W25258  16.068  27.563   1.721
52999W        W25259  37.856  35.889  13.305
53000W        W25260  36.940  24.291  12.824
53001W        W25261  12.876   3.986   3.127
53002W        W25262  42.741  22.103  12.613
53003W        W25263  35.036  28.874  10.537
53004W        W25264  11.599  26.310  12.014
53005W        W25265  35.180  21.277   2.910
53006W        W25266  24.794  11.086   4.379
53007W        W25267  22.976  42.551  11.102
53008W        W25268  40.597  19.863  14.338
53009W        W25269  18.796   5.358   4.249
53010W        W25270   1.529   6.862   1.111
53011W        W25271  37.524  18.542   2.629
53012W        W25272  28.597  22.247  11.667
53013W        W25273   8.746  31.044  10.684
53014W        W25274   6.111  41.518   4.191
53015W        W25275  11.631   7.767   3.459
53016W        W25276  41.187  15.958   3.277
53017W        W25277  26.518  10.335   4.505
53018W        W25278  33.337   4.226  11.835
53019W        W25279  25.865  29.108   2.217
53020W        W25280  24.708  32.232  13.386
53021W        W25281  31.358  32.741  12.892
53022W        W25282  36.603  10.674   1.827
53023W        W25283   3.915  17.635   2.919
53024W        W25284  26.756   7.229   2.225
53025W        W25285  19.581  29.663  13.844
53026W        W25286  44.497  21.705   3.703
53027W        W25287  23.660  23.019  10.951
53028W        W25288  15.574  12.242  14.347
53029W        W25289  14.718  14.532  14.363
53030W        W25290  20.248  15.348   4.403
53031W        W25291  41.041  23.246   1.814
53032W        W25292   6.528  13.835   4.090
53033W        W25293  43.451  14.412  11.659
53034W        W25294   6.326   3.029   0.054
53035W        W25295   6.600  17.276  13.901
53036W        W25296  30.246  28.427  11.831
53037W        W25297  42.181   8.614   0.669
53038W        W25298  42.368  19.243   4.583
53039W        W25299  38.083  28.710   0.002
53040W        W25300   0.010  30.671  13.870
53041W        W25301  28.561  28.980  14.990
53042W        W25302   7.259  30.330   3.884
53043W        W25303  11.641  29.764   5.321
53044W        W25304  35.977  35.701   1.925
53045W        W25305  15.041  35.068  11.527
53046W        W25306   0.482   8.160   2.736
53047W        W25307  28.364  25.856  11.285
53048W        W25308  35.003  25.117  13.029
53049W        W25309  42.456  21.968  11.610
53050W        W25310  27.569  28.709  11.493
53051W        W25311  31.318  23.649   2.729
53052W        W25312   0.312  15.724   3.734
53053W        W25313  34.916  12.694  12.625
53054W        W25314  18.358  42.620   1.305
53055W        W25315   3.281  39.698   4.232
53056W        W25316   1.003  39.583   1.321
53057W        W25317  19.593  20.735   3.719
53058W        W25318   9.913   8.735   2.104
53059W        W25319  36.307  11.204  11.502
53060W        W25320   2.084  35.142   3.732
53061W        W25321   7.173  23.169   1.735
53062W        W25322  12.597  27.374  11.916
53063W        W25323  13.913  31.669  13.646
53064W        W25324  12.869  19.169   2.688
53065W        W25325  10.527   1.454   3.677
53066W        W25326   0.445  26.912   3.294
53067W        W25327   6.768  35.805   4.089
53068W        W25328  16.875  41.322   0.352
53069W        W25329   3.239   3.533   4.143
53070W        W25330  36.847  40.974  12.988
53071W        W25331  24.030   3.194   2.254
53072W        W25332  12.632  26.094   2.695
53073W        W25333  26.152  34.155  11.501
53074W        W25334  15.175  19.201   4.385
53075W        W25335  11.597  21.655   1.008
53076W        W25336  36.824   6.966   4.175
53077W        W25337  13.413  32.093  12.478
53078W        W25338  35.874  13.319   1.294
53079W        W25339  39.095  44.818   1.983
53080W        W25340  23.527  20.309   1.960
53081W        W25341  39.606  43.416  12.882
53082W        W25342  24.548  33.659  10.671
53083W        W25343  29.598  28.568  13.409
53084W        W25344  36.098  44.772   3.670
53085W        W25345  16.152   1.768   1.241
53086W        W25346  19.419  37.856  12.461
53087W        W25347  40.318   6.353   4.107
53088W        W25348   4.006  42.999   0.824
53089W        W25349  42.874  19.478   0.922
53090W        W25350  41.919  21.042  10.464
53091W        W25351  24.950   1.164   1.448
53092W        W25352  16.018  44.345   2.077
53093W        W25353  14.882  23.251   1.205
53094W        W25354  18.466  28.155   3.806
53095W        W25355  14.331  34.931   1.360
53096W        W25356  31.537  22.785  11.496
53097W        W25357   0.858  25.617   3.097
53098W        W25358  37.295  42.308   1.741
53099W        W25359  12.946  35.860   1.268
53100W        W25360  39.457  29.492  10.757
53101W        W25361  22.641  27.228  13.412
53102W        W25362  16.739  21.256   4.466
53103W        W25363  41.358  30.607  11.217
53104W        W25364  18.088   7.372  14.375
53105W        W25365  21.702   2.988  11.638
53106W        W25366   4.863   1.569  14.359
53107W        W25367   2.101   3.909  11.945
53108W        W25368  35.347  33.444  13.788
53109W        W25369  28.297  28.607  11.932
53110W        W25370   0.733  21.048  14.432
53111W        W25371  31.070  12.251  12.658
53112W        W25372  17.405  16.907   0.962
53113W        W25373  11.197  13.414  14.328
53114W        W25374  29.642  44.490  10.563
53115W        W25375  23.577   8.347  13.424
53116W        W25376  29.564  38.910   3.697
53117W        W25377   6.901   9.263   0.963
53118W        W25378  18.710  17.209   3.700
53119W        W25379  15.350  21.349  11.513
53120W        W25380   0.278   2.359   3.161
53121W        W25381  16.507  28.134  11.958
53122W        W25382  32.007  13.079   0.231
53123W        W25383  19.300  24.529  12.689
53124W        W25384  37.495   3.206  12.546
53125W        W25385  18.688   6.843   1.418
53126W        W25386  11.082  34.580   0.896
53127W        W25387  35.401   1.628   3.594
53128W        W25388  36.015  10.166  14.573
53129W        W25389  31.451  22.554  12.356
53130W        W25390  24.387  18.038   3.312
53131W        W25391   8.899  31.081   2.711
53132W        W25392  28.510   1.757  10.590
53133W        W25393   6.437  35.781   2.929
53134W        W25394   4.795  32.376   3.126
53135W        W25395  17.184  43.294  12.952
53136W        W25396  28.489  32.520   5.494
53137W        W25397  12.386  39.716  12.441
53138W        W25398  37.809  11.063   3.185
53139W        W25399   3.469  10.261   3.219
53140W        W25400   6.441   3.919  12.620
53141W        W25401  13.256  37.096  11.197
53142W        W25402   4.757  17.145  13.408
53143W        W25403  10.171  31.400  12.053
53144W        W25404  33.550  16.698   4.598
53145W        W25405  30.659  41.589  11.180
53146W        W25406  44.965  19.040   3.756
53147W        W25407   7.683  30.416   4.594
53148W        W25408  40.618  41.415  13.822
53149W        W25409  28.084  10.072  12.784
53150W        W25410  28.971  41.671   4.917
53151W        W25411   5.716  38.580  11.371
53152W        W25412   9.049  13.482   3.067
53153W        W25413   4.459  35.972   4.354
53154W        W25414   3.679  38.952   3.625
53155W        W25415  43.402  35.086   4.611
53156W        W25416   1.321  10.291  13.272
53157W        W25417  44.045  44.854  11.771
53158W        W25418  39.196  10.144   4.115
53159W        W25419  23.721  42.748  13.976
53160W        W25420  17.230  23.414   0.410
53161W        W25421  16.803  43.894  11.413
53162W        W25422   6.498  34.657  13.980
53163W        W25423  11.157  12.381   2.592
53164W        W25424  34.840  33.398  13.944
53165W        W25425   5.260   7.598  11.320
53166W        W25426  43.732  14.619  12.846
53167W        W25427  21.500  40.632  12.835
53168W        W25428  34.441   1.177   3.290
53169W        W25429   5.847  14.603  11.228
53170W        W25430  10.902  36.498   1.381
53171W        W25431  42.177  12.722   4.526
53172W        W25432   3.292   4.710  14.491
53173W        W25433  26.270  30.432   3.275
53174W        W25434  19.525  16.786   2.797
53175W        W25435  44.593  39.769  13.334
53176W        W25436  30.994  36.268  12.876
53177W        W25437  14.044  11.790   0.797
53178W        W25438   7.323  24.058   3.586
53179W        W25439  35.476   7.759  10.712
53180W        W25440  35.831  39.050   1.522
53181W        W25441  27.416   2.343  14.346
53182W        W25442  19.338  28.100   4.670
53183W        W25443  27.438  32.048  10.633
53184W        W25444  29.279  15.663  13.461
53185W        W25445   7.557  27.441  14.764
53186W        W25446  30.867   1.446  12.984
53187W        W25447  27.524  26.868   3.244
53188W        W25448  31.127   9.532  10.944
53189W        W25449  32.069  27.683  14.260
53190W        W25450  23.779  34.033   1.646
53191W        W25451  36.899  39.914  12.852
53192W        W25452   7.018   6.267  13.662
53193W        W25453  19.445   5.359  11.626
53194W        W25454  21.515  34.365   1.482
53195W        W25455  37.581  19.744   4.112
53196W        W25456  14.642  40.995   0.444
53197W        W25457  19.027  21.523  14.523
53198W        W25458  18.955   8.995  11.950
53199W        W25459  12.212  22.039  10.978
53200W        W25460  40.815  38.862   4.201
53201W        W25461  28.116  14.523  11.007
53202W        W25462  19.068  32.629  12.125
53203W        W25463   8.221  18.165   4.337
53204W        W25464  42.349  42.386  10.767
53205W        W25465  30.572   8.852  13.559
53206W        W25466  19.161   7.149  13.751
53207W        W25467  35.117  20.450  13.029
53208W        W25468  15.856   7.666   0.352
53209W        W25469  35.089  35.110  13.574
53210W        W25470   1.886  22.201  14.969
53211W        W25471  30.445  31.330  12.540
53212W        W25472  35.091  28.083   3.656
53213W        W25473  28.524  29.482  10.823
53214W        W25474  12.636  36.087   4.569
53215W        W25475  34.078  20.347   1.368
53216W        W25476   5.685   6.687   0.447
53217W        W25477   5.254  29.909   0.944
53218W        W25478  11.043   3.986   2.837
53219W        W25479  32.421  23.115   4.258
53220W        W25480  33.888  22.499  11.653
53221W        W25481  38.127  11.867   1.977
53222W        W25482  13.824  27.841  12.400
53223W        W25483  41.060  23.094  12.540
53224W        W25484  36.405  43.728  10.893
53225W        W25485  20.006   0.125  13.898
53226W        W25486  39.871  16.272   3.665
53227W        W25487  30.894  24.204  10.699
53228W        W25488  26.629  26.689  12.391
53229W        W25489   1.963  30.173   2.279
53230W        W25490  29.598  26.502  12.020
53231W        W25491  19.213   9.351   5.520
53232W        W25492  39.159  25.908   2.701
53233W        W25493  32.881  24.650  10.961
53234W        W25494  39.042  42.952  12.233
53235W        W25495  42.241  17.316  14.995
53236W        W25496   9.372  35.830  13.929
53237W        W25497  16.334  20.990  10.677
53238W        W25498  25.576  40.404   2.317
53239W        W25499  35.381  32.289   1.850
53240W        W25500  14.491   3.298   3.240
53241W        W25501  28.832  27.305  11.166
53242W        W25502  17.772  13.849  14.076
53243W        W25503  22.608  19.160  14.727
53244W        W25504  18.308  38.084  14.788
53245W        W25505  11.697  19.359  13.346
53246W        W25506  31.644  37.133   0.733
53247W        W25507  24.043  17.656   0.674
53248W        W25508   7.301  11.909  13.471
53249W        W25509  44.695  33.027  13.851
53250W        W25510  35.833  19.145  11.432
53251W        W25511  22.683  30.863   0.054
53252W        W25512   0.956  44.532   4.199
53253W        W25513  44.500  21.590  11.862
53254W        W25514   1.127  36.931   2.060
53255W        W25515  13.922  43.332   3.665
53256W        W25516  26.176  38.791  14.455
53257W        W25517  12.618   5.363  14.918
53258W        W25518  25.463   8.135   0.024
53259W        W25519  18.066  27.505  12.710
53260W        W25520  39.771  31.015   4.066
53261W        W25521  10.455   3.520  11.951
53262W        W25522  34.568  32.013  11.515
53263W        W25523   0.497  25.998   1.205
53264W        W25524  11.747   5.803   2.158
53265W        W25525  40.309  15.205   4.432
53266W        W25526  42.921  13.243  14.450
53267W        W25527  23.777   9.302   3.524
53268W        W25528  30.529  37.838  14.332
53269W        W25529   0.970  23.742  11.586
53270W        W25530  16.136   9.110  13.963
53271W        W25531  44.532  10.061   2.294
53272W        W25532  38.528  12.644   4.113
53273W        W25533  24.184  13.060   1.738
53274W        W25534  18.662  18.228  11.186
53275W        W25535   5.419  40.865  12.446
53276W        W25536  34.074  13.809   3.836
53277W        W25537  18.365   0.242  14.386
53278W        W25538  31.735  44.893   4.689
53279W        W25539  13.941   5.860  13.930
53280W        W25540  39.362  19.295   2.867
53281W        W25541  40.747  41.171   2.424
53282W        W25542  26.411   1.492  14.044
53283W        W25543  39.740  20.468   4.161
53284W        W25544  38.941  44.383   5.022
53285W        W25545  18.052  23.044   1.304
53286W        W25546  21.238  29.577   4.535
53287W        W25547  22.386  22.910  14.396
53288W        W25548  26.203   7.921   0.384
53289W        W25549  19.666  11.342   1.900
53290W        W25550  21.536  35.068  13.882
53291W        W25551  40.628  31.033   0.940
53292W        W25552  24.038  33.284  10.034
53293W        W25553  19.008  32.760   2.149
53294W        W25554   8.406  24.352   3.175
53295W        W25555  26.283  26.047  10.509
53296W        W25556  11.323  40.350  13.819
53297W        W25557  39.551  32.321  12.940
53298W        W25558  11.157  26.957   3.281
53299W        W25559  18.717   6.404   2.132
53300W        W25560  41.078  27.488   2.741
53301W        W25561  22.696  40.267  14.551
53302W        W25562  32.096  29.995  10.712
53303W        W25563  29.651   6.321  13.925
53304W        W25564  25.254   3.744   1.307
53305W        W25565  11.316  44.013   4.484
53306W        W25566   9.828  43.705   3.084
53307W        W25567  44.750  25.795   3.031
53308W        W25568  25.129  11.602  12.437
53309W        W25569  42.309  35.011  11.167
53310W        W25570  44.910  42.808  11.531
53311W        W25571  10.223  32.415  12.028
53312W        W25572  18.563  11.908   0.307
53313W        W25573  31.631  23.552  12.313
53314W        W25574  23.323  13.138  14.885
53315W        W25575  11.832  14.070   5.104
53316W        W25576   7.305  27.914  13.930
53317W        W25577   1.365  24.912  13.041
53318W        W25578  32.289  30.883   3.538
53319W        W25579  35.442  34.903  10.867
53320W        W25580  11.859  36.564  11.167
53321W        W25581   9.118  36.433   2.420
53322W        W25582  38.593   0.777  13.855
53323W        W25583  42.958  32.099  12.081
53324W        W25584   7.288   1.263  14.366
53325W        W25585   5.170  38.778  12.599
53326W        W25586  41.717  10.739   0.354
53327W        W25587  42.048   7.286   4.120
53328W        W25588  41.452   7.166  14.470
53329W        W25589   3.436  37.487  11.522
53330W        W25590  11.441  33.538  10.495
53331W        W25591  22.081  22.844  11.937
53332W        W25592   0.782  34.901  12.848
53333W        W25593  28.519   4.895  12.513
53334W        W25594  31.240  32.564  13.364
53335W        W25595  31.113  40.441   4.806
53336W        W25596  44.747  17.533   0.820
53337W        W25597  16.535  40.053   2.374
53338W        W25598  11.378  13.301  13.007
53339W        W25599   3.269  38.321  12.848
53340W        W25600  34.153  42.498  14.809
53341W        W25601  41.085  36.723  10.970
53342W        W25602   9.557  28.192   3.608
53343W        W25603  37.495  40.339   2.572
53344W        W25604  12.132  36.485   2.892
53345W        W25605   0.604   8.927   4.686
53346W        W25606  13.412  22.183  12.920
53347W        W25607  10.929  36.024   0.636
53348W        W25608  27.399  32.207  12.871
53349W        W25609   6.128   3.322  12.426
53350W        W25610  42.131  41.437  10.467
53351W        W25611  30.838  24.570   1.340
53352W        W25612   2.221  34.671   1.273
53353W        W25613  17.104   2.320   3.411
53354W        W25614  43.837  24.099  12.606
53355W        W25615  18.026   9.738   2.490
53356W        W25616  32.480  15.823  13.406
53357W        W25617  24.056  14.594  13.314
53358W        W25618  27.438  32.964   0.740
53359W        W25619  41.762  27.081  10.540
53360W        W25620   9.625  20.186   4.245
53361W        W25621  23.206  41.265   1.694
53362W        W25622  20.992  41.313  11.628
53363W        W25623  33.838  32.189   5.175
53364W        W25624  29.941  17.956   1.035
53365W        W25625  30.403  28.470   1.297
53366W        W25626   7.175  28.894  11.201
53367W        W25627  28.706  37.880  11.573
53368W        W25628  29.409  36.573   2.682
53369W        W25629   9.368  32.696  11.933
53370W        W25630  37.350  33.429   1.360
53371W        W25631   2.573  38.365   1.754
53372W        W25632  27.505  38.938   2.652
53373W        W25633  31.130  41.424   2.261
53374W        W25634  17.198  43.274  11.357
53375W        W25635  38.172  39.360  11.264
53376W        W25636   0.218  37.074   3.282
53377W        W25637  32.493  14.180  13.448
53378W        W25638  23.164  41.083   4.947
53379W        W25639  15.812  38.956   4.965
53380W        W25640  18.114  36.866   1.872
53381W        W25641  30.178  34.109  14.169
53382W        W25642  16.040   9.598   1.056
53383W        W25643  17.233  27.034  11.060
53384W        W25644  18.631  23.537   3.256
53385W        W25645   2.572  39.325  14.952
53386W        W25646  20.829  27.766  13.305
53387W        W25647   3.945   5.456  13.944
53388W        W25648  33.332  28.839   3.085
53389W        W25649   5.517   2.539  13.423
53390W        W25650  22.194  15.117  14.037
53391W        W25651  13.270   0.682   2.693
53392W        W25652  21.090  42.101  13.294
53393W        W25653   3.976   8.770   2.187
53394W        W25654   9.269  25.138  11.018
53395W        W25655   4.359  21.427   1.898
53396W        W25656  18.205  17.121   0.029
53397W        W25657  15.844  16.148   2.134
53398W        W25658  37.586  33.942   2.718
53399W        W25659  34.767  18.922   5.029
53400W        W25660   9.094  10.197   4.725
53401W        W25661  23.235  44.869  13.929
53402W        W25662  16.290   8.040   4.396
53403W        W25663  26.422  23.672   4.977
53404W        W25664  19.861   6.453   4.144
53405W        W25665   3.509   5.760   0.949
53406W        W25666  33.280   5.840   4.144
53407W        W25667  10.188   1.923   1.918
53408W        W25668  40.368  36.596   3.701
53409W        W25669  24.349  34.812  14.498
53410W        W25670  39.050  13.374  13.493
53411W        W25671   5.606  21.578  11.587
53412W        W25672   7.268  38.239  11.568
53413W        W25673   2.282  21.620   0.292
53414W        W25674  41.309  36.980   2.785
53415W        W25675  41.239   4.778   3.386
53416W        W25676  30.536  21.982  14.461
53417W        W25677  41.493  36.408  14.811
53418W        W25678   4.476  17.092   1.476
53419W        W25679  38.420  39.089  14.579
53420W        W25680   6.832  39.421   4.591
53421W        W25681  39.700   4.204   3.839
53422W        W25682  31.124  29.602  13.315
53423W        W25683  37.481  21.583   0.916
53424W        W25684   7.737  17.372  10.804
53425W        W25685  39.468   4.399  11.636
53426W        W25686  22.684   7.664  13.990
53427W        W25687  16.089  40.573  12.460
53428W        W25688  15.769  39.528  11.153
53429W        W25689  24.478  21.654  14.497
53430W        W25690  25.692  41.279   3.323
53431W        W25691  24.095  32.122  12.144
53432W        W25692  15.538  31.376  11.970
53433W        W25693  29.368  40.529   2.437
53434W        W25694  14.747  25.673   1.880
53435W        W25695   1.259  27.158  11.069
53436W        W25696  22.728  12.169  14.844
53437W        W25697   3.901  35.421   1.704
53438W        W25698  23.859  19.828  13.704
53439W        W25699  29.392  29.923   3.160
53440W        W25700  24.008   0.980   0.561
53441W        W25701   2.078  23.321  10.171
53442W        W25702  31.604  17.807   3.712
53443W        W25703   5.268  34.849   3.323
53444W        W25704  11.967  11.897  13.774
53445W        W25705  30.434  23.697   3.314
53446W        W25706  28.095   6.954  12.069
53447W        W25707  38.160  10.336   2.807
53448W        W25708  33.668  19.282   0.031
53449W        W25709  24.645  44.629  11.116
53450W        W25710  37.105  43.794  11.634
53451W        W25711   7.757  29.638   2.427
53452W        W25712  16.649   8.171  10.745
53453W        W25713  21.150   6.958  12.837
53454W        W25714  14.689  29.425   4.169
53455W        W25715  23.266  14.761  12.215
53456W        W25716  39.103  39.414   3.535
53457W        W25717   0.899  10.116   0.798
53458W        W25718  29.186   6.297  12.997
53459W        W25719  40.754  24.777   4.860
53460W        W25720   8.788  18.156   1.672
53461W        W25721   3.962  27.888  13.083
53462W        W25722  39.850  11.402  11.187
53463W        W25723  36.775  33.726   0.833
53464W        W25724  17.458  30.623   0.934
53465W        W25725  29.964   5.226  13.475
53466W        W25726  22.789  10.270   4.980
53467W        W25727  29.226  31.732  11.608
53468W        W25728   0.044   4.202   2.385
53469W        W25729  29.979  12.878  13.016
53470W        W25730  39.357  33.608  10.687
53471W        W25731  10.182  37.492   0.951
53472W        W25732  41.887  14.831   1.911
53473W        W25733  11.122  17.470  11.993
53474W        W25734  20.403  16.580  14.821
53475W        W25735  20.687   9.934  10.937
53476W        W25736   6.451   4.577   2.183
53477W        W25737  21.745  36.581  12.051
53478W        W25738  42.120  25.222  14.924
53479W        W25739  29.657  30.377   2.160
53480W        W25740  44.501  26.010  12.526
53481W        W25741  24.244  37.601  12.492
53482W        W25742  38.228  18.182  13.366
53483W        W25743  38.979   5.193  12.844
53484W        W25744  19.816  13.099  10.853
53485W        W25745  24.754  31.908   4.731
53486W        W25746  21.201  19.287  10.890
53487W        W25747   3.034  39.257   0.918
53488W        W25748  16.074  24.567  10.582
53489W        W25749  17.088  38.097  12.282
53490W        W25750  17.249   7.610   1.413
53491W        W25751   5.288  26.628  11.473
53492W        W25752  11.738  12.053  10.723
53493W        W25753  34.493  38.203  14.012
53494W        W25754  27.629  22.047   4.437
53495W        W25755  14.985  32.551  12.053
53496W        W25756   7.043  31.587  14.850
53497W        W25757  10.298  19.645  11.916
53498W        W25758  40.930  19.535   0.942
53499W        W25759  41.238  17.730   3.208
53500W        W25760  29.977   3.867   4.155
53501W        W25761  18.071  40.910   3.548
53502W        W25762   1.198  28.485  11.566
53503W        W25763  29.366   7.802   0.502
53504W        W25764  42.830  39.022  10.992
53505W        W25765  20.118   1.128   4.880
53506W        W25766  38.255  20.493   3.285
53507W        W25767  36.395  29.359  12.871
53508W        W25768  14.795   7.680   0.432
53509W        W25769  20.278  22.468  14.774
53510W        W25770  25.158  18.002  10.760
53511W        W25771   1.892  35.623   3.879
53512W        W25772  15.819  41.748  11.589
53513W        W25773  12.077   1.806   1.881
53514W        W25774  30.054  14.507   1.404
53515W        W25775  37.336  27.082   4.154
53516W        W25776  18.220  40.041  13.479
53517W        W25777  10.456   4.764   1.865
53518W        W25778  35.540  12.803   3.826
53519W        W25779  22.951  42.000  13.431
53520W        W25780  23.193   9.377  14.660
53521W        W25781   7.873  42.866   1.578
53522W        W25782   4.673   7.691  13.498
53523W        W25783  20.550  14.560  12.208
53524W        W25784   3.388  28.915   3.871
53525W        W25785  43.145  37.819  13.247
53526W        W25786  19.265  32.032   0.022
53527W        W25787  22.010   4.653  10.140
53528W        W25788  40.801  14.749   2.710
53529W        W25789  18.091   8.305   0.419
53530W        W25790   9.953  11.905  12.046
53531W        W25791   4.952  43.127  13.144
53532W        W25792   0.500  24.026   3.287
53533W        W25793  29.755  16.254  14.366
53534W        W25794  32.641   7.208   3.655
53535W        W25795   2.958   2.805   3.785
53536W        W25796   8.893  42.827   3.218
53537W        W25797  37.443  26.966  13.958
53538W        W25798  41.545  11.878  12.041
53539W        W25799  32.132   2.907   3.802
53540W        W25800  40.339  17.198   5.245
53541W        W25801  37.798  30.193   1.401
53542W        W25802   0.924  44.402   5.065
53543W        W25803   4.685  34.157   0.146
53544W        W25804  30.817  26.028   0.406
53545W        W25805  39.897  35.102   2.316
53546W        W25806  17.542  27.586   0.474
53547W        W25807  34.014  27.070  11.315
53548W        W25808   7.796  37.195   0.877
53549W        W25809  29.770   9.759  11.184
53550W        W25810  24.093   4.380  13.793
53551W        W25811   3.759   6.214   4.262
53552W        W25812  37.317  40.812  12.953
53553W        W25813  29.214  31.005   4.217
53554W        W25814  33.994  24.182  12.010
53555W        W25815  37.593  24.772  12.938
53556W        W25816  28.506  22.581   4.173
53557W        W25817  29.438  16.667   1.613
53558W        W25818  36.109  25.859  14.485
53559W        W25819  42.566  23.764   4.672
53560W        W25820   1.439  32.983  12.922
53561W        W25821  17.316  32.612  11.152
53562W        W25822   6.992  34.622  13.875
53563W        W25823  13.518  10.804  14.234
53564W        W25824  44.341  32.408   2.359
53565W        W25825  31.915   4.916   4.424
53566W        W25826   4.434   2.917  11.197
53567W        W25827  32.856   4.415   1.987
53568W        W25828  36.586  30.158  14.771
53569W        W25829  42.943  10.933  11.143
53570W        W25830  26.604   0.798   3.788
53571W        W25831  20.985  35.064   0.332
53572W        W25832   9.371  25.815  14.800
53573W        W25833  39.302  34.362   3.249
53574W        W25834  39.404   1.177   2.442
53575W        W25835  36.996  14.055   1.213
53576W        W25836   3.579  38.583   4.532
53577W        W25837  36.600  38.058  12.917
53578W        W25838  30.126  18.949   4.133
53579W        W25839  22.227  44.831   2.288
53580W        W25840  28.635  43.257   0.356
53581W        W25841  22.451  14.269   1.713
53582W        W25842  12.938  31.923  12.594
53583W        W25843   8.673  42.513  10.637
53584W        W25844  43.933  44.742   4.200
53585W        W25845  44.692   2.592   2.422
53586W        W25846  19.256   6.781  11.005
53587W        W25847  32.191  15.166  14.327
53588W        W25848  11.932  10.645   3.970
53589W        W25849  36.232   6.745   3.135
53590W        W25850  37.829  29.187   3.663
53591W        W25851  27.551   0.013  11.409
53592W        W25852   0.690   6.610   3.255
53593W        W25853  14.136  37.888   4.134
53594W        W25854  33.970   9.138  14.040
53595W        W25855  15.358  10.054   2.900
53596W        W25856  21.293   3.359  10.368
53597W        W25857  40.032  35.855  13.743
53598W        W25858   7.830  37.524   0.032
53599W        W25859   4.611   8.656  14.875
53600W        W25860  25.888  18.639   4.411
53601W        W25861   7.470  25.639  11.294
53602W        W25862   2.773  26.618   4.251
53603W        W25863   3.255  36.126  10.617
53604W        W25864  17.093   6.783   5.469
53605W        W25865  26.045  29.912   0.713
53606W        W25866  43.521  15.801  14.789
53607W        W25867  42.903  14.842   1.132
53608W        W25868  22.265   9.949   0.335
53609W        W25869   4.739  38.521   1.675
53610W        W25870   1.441  44.234   0.812
53611W        W25871   2.396  28.898   3.946
53612W        W25872  19.774  42.377  13.267
53613W        W25873  10.376  15.631  10.552
53614W        W25874   0.494  42.721   0.822
53615W        W25875  41.375  31.852  10.549
53616W        W25876  17.918  37.010   4.166
53617W        W25877  33.425  25.556  14.977
53618W        W25878  32.164  38.404  11.096
53619W        W25879  38.871  17.305   3.671
53620W        W25880  32.602  12.047   0.806
53621W        W25881  10.221  21.994   3.359
53622W        W25882   0.772  33.613   4.520
53623W        W25883   7.659  33.915   0.573
53624W        W25884  21.271  36.354   2.359
53625W        W25885  14.875   3.983  13.003
53626W        W25886  25.170  37.868  11.624
53627W        W25887  25.030   2.965  13.283
53628W        W25888  40.098  29.945  12.040
53629W        W25889  20.129  14.344   1.343
53630W        W25890  44.387  29.863  11.518
53631W        W25891  33.164  28.591  13.531
53632W        W25892   0.683  32.970   3.215
53633W        W25893  38.424   8.349   5.129
53634W        W25894  13.846  41.483  11.419
53635W        W25895  43.279  32.048   4.725
53636W        W25896  37.882  29.866   3.195
53637W        W25897  15.219  30.907   0.941
53638W        W25898  22.781  13.150   2.698
53639W        W25899   8.813  43.297  11.025
53640W        W25900  20.953  14.393  14.827
53641W        W25901  38.584  11.374  13.986
53642W        W25902  17.755  15.503   0.022
53643W        W25903  17.400  40.980  10.712
53644W        W25904  42.563  31.035   4.819
53645W        W25905  20.101   3.832  12.654
53646W        W25906  26.884  37.899   1.710
53647W        W25907  17.602  16.163   2.748
53648W        W25908  37.788  36.501  14.896
53649W        W25909  41.588   4.189   2.056
53650W        W25910  17.586  40.926   2.292
53651W        W25911  40.393   2.356   0.004
53652W        W25912   4.831  17.570   3.274
53653W        W25913  33.952  31.643  12.339
53654W        W25914  32.978  36.344   4.888
53655W        W25915   5.936  20.823   2.206
53656W        W25916  25.458  36.957   3.693
53657W        W25917  31.854  21.766  14.957
53658W        W25918  30.470  44.872  11.228
53659W        W25919   7.731  36.926  13.790
53660W        W25920  44.216   9.816  13.046
53661W        W25921   7.333   5.221  10.580
53662W        W25922  23.208  11.775  13.171
53663W        W25923  11.902  32.063  13.828
53664W        W25924  11.114  12.402   0.746
53665W        W25925  19.151  19.640  11.409
53666W        W25926  13.805  24.254  11.492
53667W        W25927  39.583  31.642   0.250
53668W        W25928  25.063  17.516  10.520
53669W        W25929  21.978   4.732   1.467
53670W        W25930  23.164  19.255  12.643
53671W        W25931  38.407   3.932  11.044
53672W        W25932  12.979  22.648   0.476
53673W        W25933  43.587   3.944   3.254
53674W        W25934  27.011  17.612  13.023
53675W        W25935  40.114  43.512  13.809
53676W        W25936  21.780  25.062  14.855
53677W        W25937  40.864   9.390  14.522
53678W        W25938  34.392  23.144   4.167
53679W        W25939  30.973  44.277   1.767
53680W        W25940  15.181  25.360   5.085
53681W        W25941  28.186  31.862   9.949
53682W        W25942  15.743   0.567   3.792
53683W        W25943  42.975  21.378  11.853
53684W        W25944  39.431   6.466   3.141
53685W        W25945  34.954  26.509   0.794
53686W        W25946   3.910  36.557  11.549
53687W        W25947  25.309  18.059   3.128
53688W        W25948  14.721   8.294   0.644
53689W        W25949  11.829  14.567   2.828
53690W        W25950  29.102  25.140  10.939
53691W        W25951  37.535  13.387  14.298
53692W        W25952  23.521  22.428  13.837
53693W        W25953   6.905  23.508  10.707
53694W        W25954  16.242  40.068  13.728
53695W        W25955  20.033  26.152  10.738
53696W        W25956  20.450  21.618  12.872
53697W        W25957  29.673  19.235   2.860
53698W        W25958  17.863   0.687  14.870
53699W        W25959  30.550  40.019  10.636
53700W        W25960  18.167  29.705  11.610
53701W        W25961   8.789  12.716   2.443
53702W        W25962  17.163  39.522   4.587
53703W        W25963  24.014  15.015  13.616
53704W        W25964   5.808  28.671  10.259
53705W        W25965  28.421  16.349  11.976
53706W        W25966  13.149  37.795  11.526
53707W        W25967  23.550  41.847  11.200
53708W        W25968  13.826   5.197   3.552
53709W        W25969  11.097  21.685  10.374
53710W        W25970  30.023  35.908  10.642
53711W        W25971  38.836  27.045  14.910
53712W        W25972  10.888  26.231   2.146
53713W        W25973  17.742   6.836  10.993
53714W        W25974  23.754  40.789  12.094
53715W        W25975  38.165   0.414   2.652
53716W        W25976   3.828  10.310   2.071
53717W        W25977  28.440   2.048  13.358
53718W        W25978  17.867   4.261   2.832
53719W        W25979  22.914  20.257   2.832
53720W        W25980  16.091  36.006  14.325
53721W        W25981  37.366  35.798   1.025
53722W        W25982  14.777  23.081   2.238
53723W        W25983  31.477   8.224  12.726
53724W        W25984  20.557  11.736  12.830
53725W        W25985  14.062  38.516  13.577
53726W        W25986  11.537  14.648   1.814
53727W        W25987  30.652  44.006   3.261
53728W        W25988   6.285  35.925   2.440
53729W        W25989   8.254   6.140   3.129
53730W        W25990  42.329  30.994   1.433
53731W        W25991  41.186  34.006   2.899
53732W        W25992  33.011  23.730   1.965
53733W        W25993  25.841  26.774   2.814
53734W        W25994  12.819  36.387  10.816
53735W        W25995   2.687  10.277  10.820
53736W        W25996   0.779  10.043  12.477
53737W        W25997   6.225  38.444  11.737
53738W        W25998   2.866  19.353  11.764
53739W        W25999   3.330  35.555  12.888
53740W        W26000  30.494   9.246   1.952
53741W        W26001  15.074  23.933   2.223
53742W        W26002  13.846  25.551  11.964
53743W        W26003  25.837  13.131  14.880
53744W        W26004  21.421  23.846   0.299
53745W        W26005  12.215  17.221  12.085
53746W        W26006   6.616   6.060   4.093
53747W        W26007  23.595  12.561   3.772
53748W        W26008   9.587  37.126   2.359
53749W        W26009  13.083   9.387  12.955
53750W        W26010  28.461  10.130   2.981
53751W        W26011  42.813  28.610  12.016
53752W        W26012  18.776  21.749   2.825
53753W        W26013  40.950  31.045  14.416
53754W        W26014  13.454  35.965  12.727
53755W        W26015  32.498  13.131   1.717
53756W        W26016  15.481  41.352  10.697
53757W        W26017   6.336  20.601   0.688
53758W        W26018  27.673  22.623   2.763
53759W        W26019  35.493  27.725   3.263
53760W        W26020  21.404  12.731  10.700
53761W        W26021  39.991   3.876  11.259
53762W        W26022  17.179  11.693   0.479
53763W        W26023  39.299  37.427  13.970
53764W        W26024  22.150  10.634   1.674
53765W        W26025   9.103   2.610  10.632
53766W        W26026  14.834  41.434  14.034
53767W        W26027  26.591  39.300  13.749
53768W        W26028   9.304  15.240  14.606
53769W        W26029   6.668  37.041   1.293
53770W        W26030  35.876   7.975   0.037
53771W        W26031  36.723  20.847  11.087
53772W        W26032  10.070   1.067  11.912
53773W        W26033  41.530  20.428  11.706
53774W        W26034  39.140  22.674  12.076
53775W        W26035   6.801  31.040   4.518
53776W        W26036   9.259  36.787   1.625
53777W        W26037  33.439   2.444  14.460
53778W        W26038  12.191  21.081   2.286
53779W        W26039  23.556   9.747   3.722
53780W        W26040  26.634   6.132   2.865
53781W        W26041  31.208  40.404   2.765
53782W        W26042   0.456  12.129   0.986
53783W        W26043  21.181  43.697  10.804
53784W        W26044   8.133  40.064  10.550
53785W        W26045  12.151  35.040   1.705
53786W        W26046  12.656  22.597  11.562
53787W        W26047  37.907  13.898   0.039
53788W        W26048  15.145  31.589  14.451
53789W        W26049  28.636  41.788   0.373
53790W        W26050  25.580  23.543   3.114
53791W        W26051  30.131  21.604   3.833
53792W        W26052  11.901  29.217   4.066
53793W        W26053  14.694  14.879  11.511
53794W        W26054  26.891   0.070   0.934
53795W        W26055  27.196  40.914   0.487
53796W        W26056   4.140  39.060   4.338
53797W        W26057  24.934  14.638   0.513
53798W        W26058  32.711   6.961   0.285
53799W        W26059  31.891  25.209  13.277
53800W        W26060  39.443  10.154  10.193
53801W        W26061  37.118  33.168  11.131
53802W        W26062  15.985   0.858   3.251
53803W        W26063   4.971  29.617  10.169
53804W        W26064  12.140  35.826  13.394
53805W        W26065  37.506  33.021  14.042
53806W        W26066  41.672  42.401   1.767
53807W        W26067  44.197  43.796   4.425
53808W        W26068  39.077  41.277  12.813
53809W        W26069  41.235  18.722  12.102
53810W        W26070  13.753  23.152   0.180
53811W        W26071  35.036  11.329   4.275
53812W        W26072  29.389  37.864  14.352
53813W        W26073  35.197  14.172   2.952
53814W        W26074  16.894  44.045  12.975
53815W        W26075  13.802  17.231   3.479
53816W        W26076  17.901  22.541   1.315
53817W        W26077  37.963  20.583  13.101
53818W        W26078  11.585  35.505  14.518
53819W        W26079  19.484  32.553   1.363
53820W        W26080  44.609  35.138  11.563
53821W        W26081   5.360  29.334   2.781
53822W        W26082  29.981  14.827   3.760
53823W        W26083  33.579  17.655   2.869
53824W        W26084  36.106   0.703  12.012
53825W        W26085  39.317   2.431   2.913
53826W        W26086  26.339   1.551   1.708
53827W        W26087  10.295  13.569  13.820
53828W        W26088  19.826   4.930   0.802
53829W        W26089   4.827   8.842  11.338
53830W        W26090   1.376  29.493  11.659
53831W        W26091  33.649   1.956  12.502
53832W        W26092  12.129  20.192   4.333
53833W        W26093  12.267  23.110  12.633
53834W        W26094  16.735   9.252  10.942
53835W        W26095   6.672   5.914  14.964
53836W        W26096  40.016  19.166  10.727
53837W        W26097   7.844  25.356  14.306
53838W        W26098  25.463  30.174   2.906
53839W        W26099  23.766   2.919   3.852
53840W        W26100  22.511  10.878  11.076
53841W        W26101  30.008   3.757  14.883
53842W        W26102   6.448  12.902   4.077
53843W        W26103  16.115  38.612   0.777
53844W        W26104  33.449   9.890   2.317
53845W        W26105  19.090  38.955   0.502
53846W        W26106  19.071  39.107   3.352
53847W        W26107   8.896  35.994   1.728
53848W        W26108  15.478  15.447  14.902
53849W        W26109   2.779   7.796  10.543
53850W        W26110   8.393  26.227   4.561
53851W        W26111  12.713  28.334  10.155
53852W        W26112  13.586  41.982   1.192
53853W        W26113   4.988  16.607  11.636
53854W        W26114  42.279  41.486  14.747
53855W        W26115  33.893  31.812  11.079
53856W        W26116  31.854  35.724   2.497
53857W        W26117  26.093  27.517   2.923
53858W        W26118  14.318  33.594  14.913
53859W        W26119  24.581   5.307   4.600
53860W        W26120  35.276  24.816  14.664
53861W        W26121   9.389  35.326  11.409
53862W        W26122  23.448  13.222   1.344
53863W        W26123  24.711  44.350   3.623
53864W        W26124  25.989  18.111   0.348
53865W        W26125  39.785   7.857   4.598
53866W        W26126   0.762  36.485   0.770
53867W        W26127  12.526  23.427   1.216
53868W        W26128  25.943   3.441  11.540
53869W        W26129  38.909   1.324  11.455
53870W        W26130  18.323  38.594  14.672
53871W        W26131  30.688  39.992   1.235
53872W        W26132  29.350  41.011   2.293
53873W        W26133   0.068  28.883   1.687
53874W        W26134  30.138  18.807  14.254
53875W        W26135  36.670  35.979  12.423
53876W        W26136   3.164  39.923  11.151
53877W        W26137  32.120  27.183   1.005
53878W        W26138  17.172   4.908   2.650
53879W        W26139  14.629  33.047   1.027
53880W        W26140  37.006  14.735  13.735
53881W        W26141  12.552  42.045  13.567
53882W        W26142  26.558  36.594  11.228
53883W        W26143  38.559  15.757   2.176
53884W        W26144  14.412   9.063  12.158
53885W        W26145   3.483  19.049   0.554
53886W        W26146  25.966  12.600   2.856
53887W        W26147   0.754  29.081   1.200
53888W        W26148   4.929  13.195   3.355
53889W        W26149  31.123   0.042   1.064
53890W        W26150  42.853  42.737  11.721
53891W        W26151  31.353   7.734   3.183
53892W        W26152  15.752  13.246  12.382
53893W        W26153  36.844  14.095   3.127
53894W        W26154  38.179  43.721   1.497
53895W        W26155  43.991  36.513  10.668
53896W        W26156  11.758  24.475  13.783
53897W        W26157  27.881  25.205   5.052
53898W        W26158  37.306  25.248   1.862
53899W        W26159  12.319  21.624   4.540
53900W        W26160  36.288  14.027   0.914
53901W        W26161  24.717  36.769   1.284
53902W        W26162  25.964  44.245  13.630
53903W        W26163   3.272  28.929  11.956
53904W        W26164  16.597   5.300  11.330
53905W        W26165  41.726  16.230  12.436
53906W        W26166  34.435  22.523   0.022
53907W        W26167  31.969   5.759   2.701
53908W        W26168  22.827  28.335   5.066
53909W        W26169  18.358  39.532  14.356
53910W        W26170  38.124  30.593   1.318
53911W        W26171   0.208  12.615   4.669
53912W        W26172  10.354  37.869  13.071
53913W        W26173   5.671  44.470  11.223
53914W        W26174   2.891  30.597  10.679
53915W        W26175  40.670   4.306  13.507
53916W        W26176  18.249  41.233   0.311
53917W        W26177  26.461  12.383  11.564
53918W        W26178  16.667  16.137   2.737
53919W        W26179  22.797   8.247   0.208
53920W        W26180   3.873  27.979   1.896
53921W        W26181  37.344  30.042  12.257
53922W        W26182  35.317  35.018  14.020
53923W        W26183   7.915  42.350   0.713
53924W        W26184  20.678  12.285   4.154
53925W        W26185  15.802   1.833  10.480
53926W        W26186  31.407  14.540  11.244
53927W        W26187  14.484   3.348  12.424
53928W        W26188  28.145  35.045   4.261
53929W        W26189  34.432   4.855   5.006
53930W        W26190  26.971  30.586  13.420
53931W        W26191  38.405  10.962   2.850
53932W        W26192  30.454   9.204   4.710
53933W        W26193  14.956  20.484  12.443
53934W        W26194  24.611  14.328   2.333
53935W        W26195  41.077  22.478   2.610
53936W        W26196  44.700  38.407  14.446
53937W        W26197  11.363  13.231   3.769
53938W        W26198  40.674  26.447  11.109
53939W        W26199  32.107  37.011  10.846
53940W        W26200  43.676  35.950   4.118
53941W        W26201  17.507   3.285  14.737
53942W        W26202  41.340  35.383  14.715
53943W        W26203  43.969  18.264  10.485
53944W        W26204  40.259  31.594   2.237
53945W        W26205  26.625  43.023   4.006
53946W        W26206   4.692  14.376  10.403
53947W        W26207  28.067  27.927  10.310
53948W        W26208  10.227  44.713   0.558
53949W        W26209  40.128  34.337  13.576
53950W        W26210  18.758   1.072  11.152
53951W        W26211  21.711  29.998   0.029
53952W        W26212  16.388  26.531   2.107
53953W        W26213  24.017  31.518  14.226
53954W        W26214   4.820  17.376  10.542
53955W        W26215   8.713   4.414  13.925
53956W        W26216  16.427  23.286  14.473
53957W        W26217  18.239  34.852   2.146
53958W        W26218  30.525  27.447  12.197
53959W        W26219   5.811  22.579  11.524
53960W        W26220  11.380  35.648  14.990
53961W        W26221  36.128  44.997  10.813
53962W        W26222  24.476  25.381   3.240
53963W        W26223  19.541  16.773  12.712
53964W        W26224  41.668   5.856  12.013
53965W        W26225  29.283  34.403   4.542
53966W        W26226   7.398  30.420   0.515
53967W        W26227  19.463  12.821   1.848
53968W        W26228  16.015   3.351  12.750
53969W        W26229  35.479   9.446   2.406
53970W        W26230  24.888  43.193   4.396
53971W        W26231  41.547  31.128   3.651
53972W        W26232  40.793  25.320  10.768
53973W        W26233  10.709  26.422   1.608
53974W        W26234  39.413  16.128   4.227
53975W        W26235  14.266  16.415   4.523
53976W        W26236  44.757   1.333  10.771
53977W        W26237  44.475  25.038  11.919
53978W        W26238  39.048  25.081   4.624
53979W        W26239  35.459  17.634  10.636
53980W        W26240  19.986  15.069  13.230
53981W        W26241  35.024  42.274  12.626
53982W        W26242  34.923  14.479   2.640
53983W        W26243  39.061  14.923   2.331
53984W        W26244  37.462   8.685   5.329
53985W        W26245  44.287  24.892   3.037
53986W        W26246  40.851  34.083  13.063
53987W        W26247   3.097  20.848  14.046
53988W        W26248  39.972  15.347  10.725
53989W        W26249  19.044  15.007  13.961
53990W        W26250  20.474   1.159   4.000
53991W        W26251  24.106   4.143  10.893
53992W        W26252  44.556   5.514   4.207
53993W        W26253  12.610  33.518  12.636
53994W        W26254  40.352   2.428   2.620
53995W        W26255  41.981  34.372  11.128
53996W        W26256   4.670   5.096  10.145
53997W        W26257  37.923  34.353   3.133
53998W        W26258   8.051   8.885   5.060
53999W        W26259  17.201  17.989   2.430
54000W        W26260  21.805  30.416   3.241
54001W        W26261  13.384  31.638   4.191
54002W        W26262  33.861  29.552   2.450
54003W        W26263   5.094   5.826  13.421
54004W        W26264  42.064  11.239   1.443
54005W        W26265  34.257   7.630   1.244
54006W        W26266  36.498  18.029   3.565
54007W        W26267  19.044  15.402   2.444
54008W        W26268   5.439  42.221  11.511
54009W        W26269  35.082  37.080   1.296
54010W        W26270  44.758  31.502   0.231
54011W        W26271  37.512   8.404  14.210
54012W        W26272   8.978  44.179   1.845
54013W        W26273  25.723  16.044  14.491
54014W        W26274   7.191  14.793   0.990
54015W        W26275  37.837  43.287  10.480
54016W        W26276   3.295   2.004  13.792
54017W        W26277   9.297   1.510  11.644
54018W        W26278   9.731  34.673   2.674
54019W        W26279  22.426  44.403  12.916
54020W        W26280  33.932  17.207   3.731
54021W        W26281  41.007  22.626   3.628
54022W        W26282  33.662  28.662  13.411
54023W        W26283   6.191   8.492   4.778
54024W        W26284  26.932  35.644   2.213
54025W        W26285  42.187  33.591   3.739
54026W        W26286  31.693  28.141   0.401
54027W        W26287  14.805  33.615   2.647
54028W        W26288  38.804  26.929  14.383
54029W        W26289  17.978  43.593  12.341
54030W        W26290  17.643  19.792  13.345
54031W        W26291  16.537  37.972   4.119
54032W        W26292  13.530  26.094  11.092
54033W        W26293  37.140  14.689   4.195
54034W        W26294  22.702  36.979  11.447
54035W        W26295   1.542   9.197   1.676
54036W        W26296  24.998   1.928   1.819
54037W        W26297  29.597   4.117  14.927
54038W        W26298  14.612  18.218  14.250
54039W        W26299  39.442   3.874  14.380
54040W        W26300  33.157  20.813  11.156
54041W        W26301   0.904   5.498   2.874
54042W        W26302  28.668   6.665  11.513
54043W        W26303   8.146  42.156  12.003
54044W        W26304   2.968  18.110  11.193
54045W        W26305  13.687  36.462   3.690
54046W        W26306  44.998  40.832   2.182
54047W        W26307   3.305  24.106   2.586
54048W        W26308  10.352   4.356  10.759
54049W        W26309  15.117  41.261   4.898
54050W        W26310  38.406   3.695   2.669
54051W        W26311  37.134  10.777  11.188
54052W        W26312  22.879  29.061  12.877
54053W        W26313   5.755  31.309   2.218
54054W        W26314  23.259  40.276  10.500
54055W        W26315  36.059  41.465  11.517
54056W        W26316  37.752   0.709   1.489
54057W        W26317   4.475  29.578   0.986
54058W        W26318  19.571  23.080   0.244
54059W        W26319  25.738  34.601  14.277
54060W        W26320  13.664  35.451   1.816
54061W        W26321  23.419  20.109  13.795
54062W        W26322  30.509   3.018   3.658
54063W        W26323  19.021  22.289   3.206
54064W        W26324  20.201  37.461   1.452
54065W        W26325  34.404  26.543   3.182
54066W        W26326   1.558   1.940  10.962
54067W        W26327   6.777  15.466  12.553
54068W        W26328  44.215  30.167   0.855
54069W        W26329  41.317  41.627   0.976
54070W        W26330  38.765  38.707  11.100
54071W        W26331   7.724  37.926   2.290
54072W        W26332  12.119  37.970  11.965
54073W        W26333  42.759  18.699  14.080
54074W        W26334  13.062   1.944  13.748
54075W        W26335  17.772  21.774   3.771
54076W        W26336  17.900  23.974  10.725
54077W        W26337  25.993   2.513  12.896
54078W        W26338   0.188  44.250  14.720
54079W        W26339  34.429  17.537   2.418
54080W        W26340  10.297  23.465   2.716
54081W        W26341  20.804  18.065  13.821
54082W        W26342  39.833  13.237   0.496
54083W        W26343  34.300   5.267   1.413
54084W        W26344  17.608   0.338   4.703
54085W        W26345   8.069  38.715   1.701
54086W        W26346  11.449  27.204  14.145
54087W        W26347   7.290  43.570  11.787
54088W        W26348  41.365   7.983  14.835
54089W        W26349  32.560  11.170   0.455
54090W        W26350  15.706  18.156  10.470
54091W        W26351   6.828   1.282   0.683
54092W        W26352  11.584   0.003  14.701
54093W        W26353  36.345  38.979  12.560
54094W        W26354  25.106  13.581   0.827
54095W        W26355  41.490   7.289  12.386
54096W        W26356  13.259  32.161   0.475
54097W        W26357   1.259  42.871   4.552
54098W        W26358  26.213  32.388   0.731
54099W        W26359  28.571  20.520   2.998
54100W        W26360   8.303   2.900   4.187
54101W        W26361  30.990  38.353   0.925
54102W        W26362   7.813   3.467   0.995
54103W        W26363  12.084   5.419   1.339
54104W        W26364  14.602  44.434   3.753
54105W        W26365  17.930   9.917  11.642
54106W        W26366  30.238  25.953   0.466
54107W        W26367  19.270   1.316  11.121
54108W        W26368  17.967  23.136  12.620
54109W        W26369  28.182   8.752   3.340
54110W        W26370  13.099   8.873  11.097
54111W        W26371  30.686  26.700   3.719
54112W        W26372  12.631  39.469   1.506
54113W        W26373  39.693   1.423  10.372
54114W        W26374   1.920  11.838   2.238
54115W        W26375  18.223  12.616   2.294
54116W        W26376  41.448  36.974   1.441
54117W        W26377  35.600  39.042   0.141
54118W        W26378  12.834  12.206  14.800
54119W        W26379  15.031  21.549   4.900
54120W        W26380  25.731   5.900  14.719
54121W        W26381  22.315  29.760   0.291
54122W        W26382   7.845   0.101   1.733
54123W        W26383  31.439  15.009  13.929
54124W        W26384  17.575  37.904   0.427
54125W        W26385  39.567  15.347  12.430
54126W        W26386   6.314  15.356  14.741
54127W        W26387  22.157  40.796  14.257
54128W        W26388   2.973  26.601  14.894
54129W        W26389  11.431  32.394  11.017
54130W        W26390   5.034  33.873  11.984
54131W        W26391   0.402  22.752  14.997
54132W        W26392  12.625   9.422   1.627
54133W        W26393  26.834  35.498   0.932
54134W        W26394  42.373  32.641   0.937
54135W        W26395  42.349  35.776   4.500
54136W        W26396  39.482  21.578   1.417
54137W        W26397   5.186  28.219   9.754
54138W        W26398  34.520  13.883   1.289
54139W        W26399   9.860   5.397   4.655
54140W        W26400  35.858   7.408  12.623
54141W        W26401  39.469  19.078  12.559
54142W        W26402   7.214   3.137  14.276
54143W        W26403   4.040  44.519  13.327
54144W        W26404  32.509  20.938   1.938
54145W        W26405  22.348  38.361   3.193
54146W        W26406   4.304  15.802  11.936
54147W        W26407   8.911  34.171   1.863
54148W        W26408  36.028  35.476   3.766
54149W        W26409  28.861  22.065   1.433
54150W        W26410   6.350  38.381  12.224
54151W        W26411  10.356   3.040  10.643
54152W        W26412  15.748  37.789   3.220
54153W        W26413   0.695  44.236   4.561
54154W        W26414  36.859  33.552  12.090
54155W        W26415  11.626  33.882   2.203
54156W        W26416  43.404  32.538  12.098
54157W        W26417  40.809  13.713   1.897
54158W        W26418   7.559  15.683   4.730
54159W        W26419   4.810  13.302   1.854
54160W        W26420  11.251  38.188   4.795
54161W        W26421  23.818   0.799   4.413
54162W        W26422  27.175  35.577  12.540
54163W        W26423   5.001  18.678  14.943
54164W        W26424  39.299  20.732  12.415
54165W        W26425   4.167  40.375   1.472
54166W        W26426  35.326  23.730   4.055
54167W        W26427  18.037  11.274   4.535
54168W        W26428  20.773  16.598  11.161
54169W        W26429  38.575   2.170  11.630
54170W        W26430  25.132  19.963  14.912
54171W        W26431  44.239  30.520  12.802
54172W        W26432   1.092   5.747   0.956
54173W        W26433  24.119  20.141   3.754
54174W        W26434  41.970   5.345  10.649
54175W        W26435  35.926  19.866  12.157
54176W        W26436  29.053  26.442  11.224
54177W        W26437  41.144  29.461   0.286
54178W        W26438  21.813  38.981  10.638
54179W        W26439  42.041   6.236   2.731
54180W        W26440   1.375   8.233   4.636
54181W        W26441   3.501   6.817   1.461
54182W        W26442  24.415   8.779   3.827
54183W        W26443  21.081  24.199   1.686
54184W        W26444   7.170  28.378   2.133
54185W        W26445  20.756  20.611  13.599
54186W        W26446   2.801  19.806   2.854
54187W        W26447  42.521  18.469  12.184
54188W        W26448  29.498   0.528  13.972
54189W        W26449  42.521  13.577   3.095
54190W        W26450  44.853   8.776   1.931
54191W        W26451   7.440   3.473  12.507
54192W        W26452  36.421  33.108   4.076
54193W        W26453   9.574   6.246   2.666
54194W        W26454  18.467  28.926  14.855
54195W        W26455  28.505  33.185   4.075
54196W        W26456   1.744  30.770  13.191
54197W        W26457  28.171  41.317   3.216
54198W        W26458  30.620  32.980  14.583
54199W        W26459  33.504  28.952   4.040
54200W        W26460  25.244  20.040  12.629
54201W        W26461   2.942  13.043  10.438
54202W        W26462  19.873   1.175   3.170
54203W        W26463  17.846  12.199   2.278
54204W        W26464  36.490  17.121   1.004
54205W        W26465  24.713  40.881   2.338
54206W        W26466  43.972  20.788   0.258
54207W        W26467  34.320  10.249  11.649
54208W        W26468  27.690  14.115  13.059
54209W        W26469  37.530   7.253  12.902
54210W        W26470  44.216  43.669   1.724
54211W        W26471  22.736   5.664  10.626
54212W        W26472  25.160  15.528   0.879
54213W        W26473  33.907  33.029   0.226
54214W        W26474  10.746  29.697   3.989
54215W        W26475   4.147  21.348   3.569
54216W        W26476  33.555  14.178   4.827
54217W        W26477  37.369  39.864   1.703
54218W        W26478  10.416   3.551  10.652
54219W        W26479  35.403  16.560  11.294
54220W        W26480  38.810  42.461   4.664
54221W        W26481  16.982  24.682   3.338
54222W        W26482   3.947  29.417   2.730
54223W        W26483  29.567  44.971   3.575
54224W        W26484  41.801   8.945  14.888
54225W        W26485  25.573  12.281  14.497
54226W        W26486  25.007  43.815   0.929
54227W        W26487  27.810  29.013   2.285
54228W        W26488  10.764  23.192  10.846
54229W        W26489  10.373  30.503   1.958
54230W        W26490  37.560  22.495  11.239
54231W        W26491  17.089  41.187   3.285
54232W        W26492  12.872  31.421  13.344
54233W        W26493  16.222  28.362  10.354
54234W        W26494  21.074  29.483   3.705
54235W        W26495  43.971  26.109   0.466
54236W        W26496  24.890   7.914   3.758
54237W        W26497  10.114   8.637   0.231
54238W        W26498  29.061   7.320   4.854
54239W        W26499  13.113  25.483   2.164
54240W        W26500  23.644  24.299   2.341
54241W        W26501  34.701  38.300  12.946
54242W        W26502  25.865  12.756  12.034
54243W        W26503  26.660  31.127  14.909
54244W        W26504  39.705  40.802   4.406
54245W        W26505  44.978   4.165   3.148
54246W        W26506  31.926   5.133  11.390
54247W        W26507   9.642  31.400   3.224
54248W        W26508  38.533  41.413   4.106
54249W        W26509  37.563  44.944  14.701
54250W        W26510  10.301   7.857  11.159
54251W        W26511   8.748  34.601   4.829
54252W        W26512  43.955  30.621  13.238
54253W        W26513  44.672  35.984  13.545
54254W        W26514  19.709   5.764  11.874
54255W        W26515  35.855  35.922  11.013
54256W        W26516  40.489   4.274  14.007
54257W        W26517  44.826   5.872   0.302
54258W        W26518  11.545  18.667  12.011
54259W        W26519  13.309  38.621  12.867
54260W        W26520  12.797   7.121  12.030
54261W        W26521  41.736   9.246   4.836
54262W        W26522  32.164  36.928   4.191
54263W        W26523  36.026  25.548  13.248
54264W        W26524  32.354  13.077  10.803
54265W        W26525  38.017  42.541   3.145
54266W        W26526  20.520  15.801   3.578
54267W        W26527   3.666  11.359   0.418
54268W        W26528  36.415  29.651  14.818
54269W        W26529  28.249  18.759  12.308
54270W        W26530  30.427   1.396   2.808
54271W        W26531   4.297  20.121  11.117
54272W        W26532   0.280  37.457  12.856
54273W        W26533   7.429  23.990  14.493
54274W        W26534  24.514   4.362   4.196
54275W        W26535  35.767  42.288  12.181
54276W        W26536  15.233   6.177  11.518
54277W        W26537  11.325  37.626  14.215
54278W        W26538  14.116  21.442  10.936
54279W        W26539   9.887  10.827   3.187
54280W        W26540  32.889  21.958  11.157
54281W        W26541  31.402  34.126  11.166
54282W        W26542  37.274   6.552  14.863
54283W        W26543  37.559  11.275   2.766
54284W        W26544   2.888  12.296   0.707
54285W        W26545   5.273   3.468   3.157
54286W        W26546  41.145  40.617   1.858
54287W        W26547  11.731  29.205  13.091
54288W        W26548  35.978  42.754  13.523
54289W        W26549  36.504   5.671  14.879
54290W        W26550  42.359   3.648   0.628
54291W        W26551  21.545   4.974   1.278
54292W        W26552  27.794  30.211  12.308
54293W        W26553  42.400  20.503  10.884
54294W        W26554  36.847   0.400   3.804
54295W        W26555  39.972  39.293   1.009
54296W        W26556   5.285  41.450  13.005
54297W        W26557  23.873  35.512  11.190
54298W        W26558   1.702  41.532  14.032
54299W        W26559  15.242  36.875  14.094
54300W        W26560  36.480   0.042  14.283
54301W        W26561  27.039  27.926   1.773
54302W        W26562  12.769  34.483   2.449
54303W        W26563  11.851   6.500   3.324
54304W        W26564  17.707  35.353  10.609
54305W        W26565  25.649  35.990   1.267
54306W        W26566   8.207  28.377  10.326
54307W        W26567  32.692  21.227   4.209
54308W        W26568  25.881  31.086   2.100
54309W        W26569   4.977  33.904  11.110
54310W        W26570  18.928   2.232  11.517
54311W        W26571  10.612  31.374  13.941
54312W        W26572  14.540  27.466  13.236
54313W        W26573  38.865  42.512   3.710
54314W        W26574   4.866  35.867   1.632
54315W        W26575   4.256  39.138   0.364
54316W        W26576  24.234   1.501   4.661
54317W        W26577  23.267  33.086   2.861
54318W        W26578  34.630  41.534  12.504
54319W        W26579   8.346  41.167  13.457
54320W        W26580  27.812  33.629   4.721
54321W        W26581  38.819  26.041   2.263
54322W        W26582  33.646  17.648  13.393
54323W        W26583   7.638   9.562  11.599
54324W        W26584  39.333  25.058   3.638
54325W        W26585  41.567  30.618   1.700
54326W        W26586  36.613  36.977  12.664
54327W        W26587  17.664   4.728   1.859
54328W        W26588   4.799  38.988  11.022
54329W        W26589  38.137   2.395  13.519
54330W        W26590  21.268  35.940   0.737
54331W        W26591  43.349  34.520  11.920
54332W        W26592  23.731  10.751   0.828
54333W        W26593  34.442  12.835   1.332
54334W        W26594  34.181  23.044  12.767
54335W        W26595  24.693  15.418   1.375
54336W        W26596  22.786   4.804  13.798
54337W        W26597   4.801   0.968   0.336
54338W        W26598  13.630  42.537  10.611
54339W        W26599  42.013  24.940  12.015
54340W        W26600  15.429  23.766   3.369
54341W        W26601  19.217  44.141  14.691
54342W        W26602   2.933   8.251  12.942
54343W        W26603   2.666  36.911  11.615
54344W        W26604  24.673  35.843  11.204
54345W        W26605  28.427  22.978  14.903
54346W        W26606   9.746  43.585   2.600
54347W        W26607   1.760  40.361   4.202
54348W        W26608  40.863  42.508  11.516
54349W        W26609   2.606  36.330   4.137
54350W        W26610  22.693  31.187   4.025
54351W        W26611   1.386  19.523   1.423
54352W        W26612  21.091  25.593  10.873
54353W        W26613  40.450  15.856  12.501
54354W        W26614  33.640   2.948   2.538
54355W        W26615  41.296  29.199  13.044
54356W        W26616  15.529  36.711  11.291
54357W        W26617  20.519  44.518   0.255
54358W        W26618  24.718  17.618   4.339
54359W        W26619  38.322  13.112   2.729
54360W        W26620  23.039  13.618   4.243
54361W        W26621  11.353  36.161  10.449
54362W        W26622  13.136  42.916   0.436
54363W        W26623  29.097  10.855   0.809
54364W        W26624  19.621  25.462   1.376
54365W        W26625  41.005  22.312   0.305
54366W        W26626  22.815   3.311   4.180
54367W        W26627  36.974  27.583   2.139
54368W        W26628   6.461  24.096   2.211
54369W        W26629  12.434  42.877  14.855
54370W        W26630  24.016  32.075   0.548
54371W        W26631  42.566   9.679   0.689
54372W        W26632  18.584  32.107  12.947
54373W        W26633  40.071  37.821   4.632
54374W        W26634  19.829  19.418  10.761
54375W        W26635  35.234   1.354   2.692
54376W        W26636  19.179  26.631  10.065
54377W        W26637  21.172  20.590  12.839
54378W        W26638   4.654  39.431   4.837
54379W        W26639  23.509  33.228  12.473
54380W        W26640  27.496  32.150   9.626
54381W        W26641  36.913  24.488   2.100
54382W        W26642  12.319  25.227   3.304
54383W        W26643  32.352  16.229   1.370
54384W        W26644  15.820  27.245   0.262
54385W        W26645  36.539  15.244  10.977
54386W        W26646   7.226  39.902   3.718
54387W        W26647   2.205  28.831   4.447
54388W        W26648  12.519   6.208   2.696
54389W        W26649  21.430  38.112   3.321
54390W        W26650  23.250  26.107  10.571
54391W        W26651   3.676   7.780   3.201
54392W        W26652  38.428  37.117   4.827
54393W        W26653  33.863  38.827   0.873
54394W        W26654  30.094  29.332  13.392
54395W        W26655  23.939  13.715   0.289
54396W        W26656   7.346  42.385  13.976
54397W        W26657  30.545   2.413  12.414
54398W        W26658  20.071  14.009  13.955
54399W        W26659   1.416  39.434  14.292
54400W        W26660  33.491  19.957   2.221
54401W        W26661  12.824  16.841  14.545
54402W        W26662  33.019  14.489  12.284
54403W        W26663  15.200  41.436   2.928
54404W        W26664  11.378  36.913  10.531
54405W        W26665  37.580  27.403  10.998
54406W        W26666  23.145  13.860  13.410
54407W        W26667  43.375   2.791  13.782
54408W        W26668  43.429   4.577  10.624
54409W        W26669   7.457  32.497  11.632
54410W        W26670  16.259   7.242   4.572
54411W        W26671  44.206  37.211   1.309
54412W        W26672  37.153  29.870   3.624
54413W        W26673  31.499  40.865   0.851
54414W        W26674  42.641  35.545  12.651
54415W        W26675  39.453   4.707   4.606
54416W        W26676  17.282   5.145   0.012
54417W        W26677   2.853  43.042  11.985
54418W        W26678  19.567   1.810  12.040
54419W        W26679  22.217   8.388   3.944
54420W        W26680  22.470  19.569   3.276
54421W        W26681  18.866  26.927  14.796
54422W        W26682  11.581   7.143  12.208
54423W        W26683  36.963  43.880  11.124
54424W        W26684  18.649  39.008  12.052
54425W        W26685  41.388  37.318   1.842
54426W        W26686  28.171  19.534   1.322
54427W        W26687  31.663   0.334   4.380
54428W        W26688  16.217  28.029   1.870
54429W        W26689  11.905  12.776  11.190
54430W        W26690   2.218   9.382   2.733
54431W        W26691  35.768   1.893   4.485
54432W        W26692  37.165  20.635   0.909
54433W        W26693  36.551  36.362   1.976
54434W        W26694   6.777   5.635   4.863
54435W        W26695  28.863  43.371   0.802
54436W        W26696  27.613  37.911  14.522
54437W        W26697  15.410  38.939  11.464
54438W        W26698  13.845  32.512   0.199
54439W        W26699   3.971  27.177   1.406
54440W        W26700   2.265  26.723  13.907
54441W        W26701   3.458  30.061   1.524
54442W        W26702  17.521  42.874  13.424
54443W        W26703  33.618  10.499   0.875
54444W        W26704  15.623   8.468   3.568
54445W        W26705  39.490  39.064   4.550
54446W        W26706  23.588   3.274  12.751
54447W        W26707  42.058   5.792  14.227
54448W        W26708  33.602  23.455   0.049
54449W        W26709  16.224   0.682   2.820
54450W        W26710  17.326   7.314   4.558
54451W        W26711  29.558  15.770  11.636
54452W        W26712  32.439   9.277  14.013
54453W        W26713  43.526  44.847  10.468
54454W        W26714   8.307   1.844   4.555
54455W        W26715   5.578  10.190   4.572
54456W        W26716  17.655  44.465   4.613
54457W        W26717  43.265   8.194   2.954
54458W        W26718  16.296   3.382  11.250
54459W        W26719  34.794   0.739   0.913
54460W        W26720  24.535  21.059  13.454
54461W        W26721  39.081   3.876   1.638
54462W        W26722  34.496  28.229   0.020
54463W        W26723  14.214  27.232   0.769
54464W        W26724  44.431   0.796   2.989
54465W        W26725  26.186  23.201  11.554
54466W        W26726  37.130   8.422  13.423
54467W        W26727  14.841  14.887   0.453
54468W        W26728  37.200  13.789  14.414
54469W        W26729  39.643  37.551   4.692
54470W        W26730  17.614  22.871   2.605
54471W        W26731  14.696  34.938  13.022
54472W        W26732  23.952  22.632  13.535
54473W        W26733  40.841  39.805   0.726
54474W        W26734   7.386  18.277   4.708
54475W        W26735   2.248  42.183   1.916
54476W        W26736   6.344  22.498   1.235
54477W        W26737  22.674   7.055  10.604
54478W        W26738  13.567  21.170  14.747
54479W        W26739  38.501  10.966   5.570
54480W        W26740  17.271   7.873   1.882
54481W        W26741  33.814  11.685  12.030
54482W        W26742  23.107  26.591  14.997
54483W        W26743  27.178  39.941  12.632
54484W        W26744   5.243  35.319   1.503
54485W        W26745  18.093  10.900  13.863
54486W        W26746   6.255  21.469   0.085
54487W        W26747  15.269  15.927  12.878
54488W        W26748  27.270   9.958  13.493
54489W        W26749  41.495  23.535  11.900
54490W        W26750  27.220  14.737   1.933
54491W        W26751  26.158  26.981  14.334
54492W        W26752  26.955  39.093   2.345
54493W        W26753  20.300  41.025  14.339
54494W        W26754  30.765  29.071   4.491
54495W        W26755  17.040  36.879  14.051
54496W        W26756  41.519  38.826  10.234
54497W        W26757  20.155  42.939   2.280
54498W        W26758  26.562   9.727  11.529
54499W        W26759  24.932  31.001   3.677
54500W        W26760   8.281  28.131   0.536
54501W        W26761  23.036  38.043   4.224
54502W        W26762  24.192  33.926   2.918
54503W        W26763  21.099  27.944   4.364
54504W        W26764  27.680  41.723   2.776
54505W        W26765   6.606   4.450  13.912
54506W        W26766   1.172  34.378  11.125
54507W        W26767  26.152  10.251   2.229
54508W        W26768  34.099  25.373   2.358
54509W        W26769  25.775  28.872  10.367
54510W        W26770  19.009  32.626  14.000
54511W        W26771  26.025  15.060  12.956
54512W        W26772  33.360  44.521   3.425
54513W        W26773   8.754  11.624   4.230
54514W        W26774  32.127   8.192  11.471
54515W        W26775  31.387  44.430   2.690
54516W        W26776   6.863  40.513   4.523
54517W        W26777  38.988  30.087  14.690
54518W        W26778  35.410  26.626  12.096
54519W        W26779  26.461  33.854   3.087
54520W        W26780  41.019  32.043   1.985
54521W        W26781  14.065   9.279   3.673
54522W        W26782  16.710   1.234   2.377
54523W        W26783  42.601   3.931   3.302
54524W        W26784   0.514  19.103   0.414
54525W        W26785   7.287  16.929  14.909
54526W        W26786  10.087  42.740   5.024
54527W        W26787   2.021  33.935   2.201
54528W        W26788  17.249  20.627   3.834
54529W        W26789  28.034   9.416  14.019
54530W        W26790  15.376  18.734   0.767
54531W        W26791  37.726   2.271  14.558
54532W        W26792  33.391   4.315   0.457
54533W        W26793  39.240  18.809  13.976
54534W        W26794  27.909  35.278   3.214
54535W        W26795   6.446  28.012   3.753
54536W        W26796   4.542   5.497   1.950
54537W        W26797  21.311  22.479   4.107
54538W        W26798  35.098  30.363   3.662
54539W        W26799   6.191  28.904  11.120
54540W        W26800   4.393  29.153  12.723
54541W        W26801  31.440  21.667   2.231
54542W        W26802   1.597  14.922  12.447
54543W        W26803  35.673  35.254  12.969
54544W        W26804  38.609  18.373  13.057
54545W        W26805   5.939  12.510  14.435
54546W        W26806  31.387  13.542  11.519
54547W        W26807  14.759  41.995  12.474
54548W        W26808  27.391  24.011  14.977
54549W        W26809  13.394  33.708   4.064
54550W        W26810   8.568  25.705  12.080
54551W        W26811  44.996  12.691   0.756
54552W        W26812  43.536  30.638  12.351
54553W        W26813  26.764  37.224   2.837
54554W        W26814  12.564  27.948   2.948
54555W        W26815  34.535  30.945   1.820
54556W        W26816  11.216  36.395  14.307
54557W        W26817  27.405  32.418   1.710
54558W        W26818  37.888  29.509  13.443
54559W        W26819  30.464  12.253   3.158
54560W        W26820  22.439   5.310   2.876
54561W        W26821  19.787   7.514  11.565
54562W        W26822  18.517  21.506  14.442
54563W        W26823  27.001  24.797   2.777
54564W        W26824  18.514  25.008  13.439
54565W        W26825  40.751  31.270  11.150
54566W        W26826  18.137  31.896   0.501
54567W        W26827  21.077   6.228  11.144
54568W        W26828   0.228  25.626   0.874
54569W        W26829  37.836   8.800  11.584
54570W        W26830  25.479  24.031   2.328
54571W        W26831  20.108  23.706   3.727
54572W        W26832  10.902  23.065  13.853
54573W        W26833  39.734  36.028  13.330
54574W        W26834  22.826  34.255   0.393
54575W        W26835   8.212  33.636  12.487
54576W        W26836  29.987   5.730  12.123
54577W        W26837  41.409  40.409  13.832
54578W        W26838  40.429  18.502  13.388
54579W        W26839  15.890  25.719   4.175
54580W        W26840   0.720   6.658   1.930
54581W        W26841  39.836  43.862  11.985
54582W        W26842  42.214  19.422  12.438
54583W        W26843  25.534   2.372  14.074
54584W        W26844  36.812   0.166  14.884
54585W        W26845  31.151  41.775  13.489
54586W        W26846  19.167  22.557  12.509
54587W        W26847  38.073   2.673   0.758
54588W        W26848  38.613  16.590  14.464
54589W        W26849  22.322   7.633  14.346
54590W        W26850  24.151  24.621  12.076
54591W        W26851   0.316  10.208   1.395
54592W        W26852  23.266  31.154  13.925
54593W        W26853  33.489  36.571  11.225
54594W        W26854  26.387  40.861  14.944
54595W        W26855  17.262  23.559  14.323
54596W        W26856  21.450   0.372   3.236
54597W        W26857  16.545   7.116   1.772
54598W        W26858  21.648  25.612   1.834
54599W        W26859  38.806  43.988  11.961
54600W        W26860  37.975  10.789   3.584
54601W        W26861  26.486  35.591   2.871
54602W        W26862  24.039  33.484  11.096
54603W        W26863  25.796   8.454  11.941
54604W        W26864  12.377  24.966   0.416
54605W        W26865  12.831  30.020  12.038
54606W        W26866  38.783  26.957  13.554
54607W        W26867  34.066  30.642   4.208
54608W        W26868  33.489  24.475   2.813
54609W        W26869   9.133  40.809  11.064
54610W        W26870  12.890  41.765   2.837
54611W        W26871   3.498  23.604   2.645
54612W        W26872  43.914  30.599  13.923
54613W        W26873  23.114  29.958  10.588
54614W        W26874  42.446  43.864   2.453
54615W        W26875   6.360  30.401  12.987
54616W        W26876  26.469  33.087  13.897
54617W        W26877  11.570  44.740  12.265
54618W        W26878  15.703  32.864   1.531
54619W        W26879  29.619  36.924   2.360
54620W        W26880  14.370   8.596  12.403
54621W        W26881  27.495  44.515   2.390
54622W        W26882  41.084  20.245   3.722
54623W        W26883  15.344  12.661  12.953
54624W        W26884  32.880   0.955  11.100
54625W        W26885  16.060   9.126  13.046
54626W        W26886   9.845  38.579   1.032
54627W        W26887  39.911  38.829   2.366
54628W        W26888  10.879  31.914   2.838
54629W        W26889  29.494  42.846   0.158
54630W        W26890   0.901  14.102  13.854
54631W        W26891  10.911  17.755   4.662
54632W        W26892  25.650  11.761   0.915
54633W        W26893  14.074  19.136  10.701
54634W        W26894  12.184  31.337  11.146
54635W        W26895  31.290   8.557   4.150
54636W        W26896  32.647  21.986   3.689
54637W        W26897  22.517  17.852  14.820
54638W        W26898   6.677  20.613  12.531
54639W        W26899  39.892  23.526  10.551
54640W        W26900  34.116   9.629   0.801
54641W        W26901   7.739  19.159   2.747
54642W        W26902   9.297  20.619   4.104
54643W        W26903  43.439  13.357  14.422
54644W        W26904  11.701  34.932  13.494
54645W        W26905  14.620  10.738   3.823
54646W        W26906   7.366  16.614  13.982
54647W        W26907   6.349  23.422   3.108
54648W        W26908  32.769   8.957   4.196
54649W        W26909  20.292  22.506  10.195
54650W        W26910   9.847  10.028   0.527
54651W        W26911  20.072  10.081   1.951
54652W        W26912  26.945  11.295  10.352
54653W        W26913  18.766  17.308  12.733
54654W        W26914  28.974   3.236  12.206
54655W        W26915  10.282  27.712   2.831
54656W        W26916  42.369  18.104  13.053
54657W        W26917  41.006  17.237   0.447
54658W        W26918  36.369   6.346   2.343
54659W        W26919  42.527  21.148  14.919
54660W        W26920   1.204   3.843   1.401
54661W        W26921  43.372  43.458   0.266
54662W        W26922  31.172  31.873  13.956
54663W        W26923  15.154  44.874  14.618
54664W        W26924  15.703  29.198   3.778
54665W        W26925  15.269  34.686  14.600
54666W        W26926  30.551  27.469  10.711
54667W        W26927  37.915  37.772   4.908
54668W        W26928   9.374  34.500  10.715
54669W        W26929  19.687  36.929   4.390
54670W        W26930  40.514   2.251  11.546
54671W        W26931  19.503   8.268   5.078
54672W        W26932  34.779  18.339   0.302
54673W        W26933  32.587  10.817   4.393
54674W        W26934  24.043   8.469  14.525
54675W        W26935  25.224  41.936  13.016
54676W        W26936  44.497  15.342  14.408
54677W        W26937  27.557  42.977  11.986
54678W        W26938  31.460  32.922   1.904
54679W        W26939  22.555  19.732  10.532
54680W        W26940  31.468   5.616   1.371
54681W        W26941  22.101  26.670   3.578
54682W        W26942  31.388   9.225  13.034
54683W        W26943   6.337  39.248  11.470
54684W        W26944   6.598  30.306   4.998
54685W        W26945  28.108   8.851  14.299
54686W        W26946  44.427  20.263  12.501
54687W        W26947  40.529   9.920   2.400
54688W        W26948  40.765  15.727   1.374
54689W        W26949  24.449  10.662  11.136
54690W        W26950  22.900  11.510  13.530
54691W        W26951  29.875   9.177  13.124
54692W        W26952  13.773  16.566   2.928
54693W        W26953   9.221  43.048   1.128
54694W        W26954  22.601  34.112  10.806
54695W        W26955  36.910  21.174  13.376
54696W        W26956  18.878  26.231  14.306
54697W        W26957  43.721   0.909   3.677
54698W        W26958  32.098  19.628  13.281
54699W        W26959  17.580   9.296  13.053
54700W        W26960   4.483   8.837   4.097
54701W        W26961  16.298  35.543  14.481
54702W        W26962  30.643  34.200  13.912
54703W        W26963  43.479  44.169   3.966
54704W        W26964  31.625  11.327  14.670
54705W        W26965  18.402   9.395   4.611
54706W        W26966  43.427  44.374  10.612
54707W        W26967  40.173  21.290   4.616
54708W        W26968  43.019  35.751  11.095
54709W        W26969  21.583  40.465   1.465
54710W        W26970   3.025   4.887  11.995
54711W        W26971  28.103  18.624  13.285
54712W        W26972  32.307  39.918   1.890
54713W        W26973  38.750  10.499  11.929
54714W        W26974   5.287  29.197   0.350
54715W        W26975  23.172  37.432  11.596
54716W        W26976   2.368  22.633   4.798
54717W        W26977   2.385  24.596  11.811
54718W        W26978  42.492  41.812  11.470
54719W        W26979  12.275   9.107   3.163
54720W        W26980  35.550  34.137   1.302
54721W        W26981  43.040  29.482   2.818
54722W        W26982   5.799  21.526  13.415
54723W        W26983  26.462  25.924  12.829
54724W        W26984  28.546  14.231   3.819
54725W        W26985  40.025  29.525   2.724
54726W        W26986  21.251   8.753  11.174
54727W        W26987  31.036  44.255   1.237
54728W        W26988  20.670  39.220  12.019
54729W        W26989  19.652  39.797  14.716
54730W        W26990  28.002  19.215   1.730
54731W        W26991  29.215   3.805   2.918
54732W        W26992  44.682  29.666  10.597
54733W        W26993  28.518  23.988   1.257
54734W        W26994   0.855   6.899   2.854
54735W        W26995  19.612  12.655   2.913
54736W        W26996  25.432   1.247  12.000
54737W        W26997  12.776   1.547  13.489
54738W        W26998  29.180   5.094   3.303
54739W        W26999  29.608  24.251   4.440
54740W        W27000  16.192  20.356   2.811
54741W        W27001  44.872  23.289  13.478
54742W        W27002  26.140  10.641   1.684
54743W        W27003  11.661  35.525   3.366
54744W        W27004  44.718  38.873   1.816
54745W        W27005  25.054   1.451  12.968
54746W        W27006   5.310   8.627  12.699
54747W        W27007  23.829  16.622  14.535
54748W        W27008  12.826  27.946  13.324
54749W        W27009   6.888  24.160   3.878
54750W        W27010  44.661   6.090  14.374
54751W        W27011  13.838  34.009   2.911
54752W        W27012  20.250   3.860  14.859
54753W        W27013   6.099   5.942   4.074
54754W        W27014  23.149  36.408   1.005
54755W        W27015  38.814  43.039  13.163
54756W        W27016  33.177  28.833  12.276
54757W        W27017  10.620  40.742   2.341
54758W        W27018  42.733  12.087   1.171
54759W        W27019   3.809   9.180   4.559
54760W        W27020   2.872   8.737   1.428
54761W        W27021  25.542  22.797   0.619
54762W        W27022  41.994  36.461   3.350
54763W        W27023  14.714   5.730  13.453
54764W        W27024  17.541  28.862   3.429
54765W        W27025  17.614  14.953  12.440
54766W        W27026   8.703  40.054   4.504
54767W        W27027  22.503  19.601  13.603
54768W        W27028  13.387  15.154  13.415
54769W        W27029  25.614   4.029   0.513
54770W        W27030   4.054  35.997   0.851
54771W        W27031  16.206  38.392  11.037
54772W        W27032  27.423  24.982   3.573
54773W        W27033   0.808  33.369  11.702
54774W        W27034  15.941  28.527  10.990
54775W        W27035  35.503  44.269   4.287
54776W        W27036  37.402   6.114  13.876
54777W        W27037  13.919  42.001  12.123
54778W        W27038  33.409   0.127   2.218
54779W        W27039  31.461  24.488  12.880
54780W        W27040  16.111   6.357   2.934
54781W        W27041  13.740  27.254   0.034
54782W        W27042  13.687  13.266   2.740
54783W        W27043  10.753  34.615  11.823
54784W        W27044  18.604  18.048  14.443
54785W        W27045   0.456   3.784   3.686
54786W        W27046  27.983  11.173  10.710
54787W        W27047  37.336  44.810  11.969
54788W        W27048   1.398  25.400  12.863
54789W        W27049   6.383  23.546  10.722
54790W        W27050  38.340  36.800   2.327
54791W        W27051  40.374   8.760   1.028
54792W        W27052  18.904  19.158   3.030
54793W        W27053  27.458  20.650  13.896
54794W        W27054  19.672   9.728  13.791
54795W        W27055   9.350  38.560  14.781
54796W        W27056  38.917  24.752   3.752
54797W        W27057  16.542  19.016   4.205
54798W        W27058   8.392  24.939   0.891
54799W        W27059  22.249  36.800  12.986
54800W        W27060  18.115  39.267   0.362
54801W        W27061  28.673  13.207   0.265
54802W        W27062  36.321  43.023   2.193
54803W        W27063  15.471  12.029   4.946
54804W        W27064  15.681  17.186  10.633
54805W        W27065  29.658   9.317  12.005
54806W        W27066  34.262  30.487   2.392
54807W        W27067   5.097  41.342   0.673
54808W        W27068   6.668  22.002   4.676
54809W        W27069  16.195  10.343   1.823
54810W        W27070  36.428  42.076  14.747
54811W        W27071  19.526  21.120  14.840
54812W        W27072  11.783   2.954  14.339
54813W        W27073  31.534  26.021  12.078
54814W        W27074  33.068   0.060  12.206
54815W        W27075  29.123  40.909  10.720
54816W        W27076  26.271  19.311   2.824
54817W        W27077  44.794   2.691   1.357
54818W        W27078   5.816   9.119  10.949
54819W        W27079   4.354  29.678  13.592
54820W        W27080   4.690   4.476  14.762
54821W        W27081  19.583  19.829  14.626
54822W        W27082  34.308  44.630  10.323
54823W        W27083   0.262   9.241   1.524
54824W        W27084  27.687  10.764   3.373
54825W        W27085  17.709  44.886  11.717
54826W        W27086  43.943  44.912  12.903
54827W        W27087  12.698  24.134  14.991
54828W        W27088  37.043  18.750   2.781
54829W        W27089   8.091   7.879  11.204
54830W        W27090  43.344  40.011   3.186
54831W        W27091  29.357   5.621   1.993
54832W        W27092  36.813  42.510   2.031
54833W        W27093   5.481  37.094  12.128
54834W        W27094  14.815  14.247  11.987
54835W        W27095  36.207  20.531   3.252
54836W        W27096  44.958   7.944   2.816
54837W        W27097  34.434  29.448  14.345
54838W        W27098   4.873  43.464  10.549
54839W        W27099  44.467   4.795  13.070
54840W        W27100  16.720   4.807  13.186
54841W        W27101  41.276  40.788  14.616
54842W        W27102   2.403   3.274   2.724
54843W        W27103   4.720  40.917  14.792
54844W        W27104   4.864  16.428  14.201
54845W        W27105  32.269  40.422   1.763
54846W        W27106  13.911  28.852   3.694
54847W        W27107  35.507   2.199  13.519
54848W        W27108  10.840  35.531   0.070
54849W        W27109  42.754  26.093  12.993
54850W        W27110   1.771   6.039   1.680
54851W        W27111  22.929  41.319  12.005
54852W        W27112  14.067  44.670   4.597
54853W        W27113  44.451  31.015  12.657
54854W        W27114  13.078  35.914   2.071
54855W        W27115  28.072  34.129   1.801
54856W        W27116  30.935  10.876  12.033
54857W        W27117   8.466  41.748   2.797
54858W        W27118  35.523  31.538   2.957
54859W        W27119  12.323  29.405   1.274
54860W        W27120  43.363  20.459   1.685
54861W        W27121   1.478   4.851  14.793
54862W        W27122  38.347  26.176   2.470
54863W        W27123  24.557  22.146   4.587
54864W        W27124   5.776   1.810  13.351
54865W        W27125  15.865   6.437   2.476
54866W        W27126   3.384  10.073   2.372
54867W        W27127  13.071  26.244  13.831
54868W        W27128  32.859  11.584  13.039
54869W        W27129   9.092  35.145  14.506
54870W        W27130  42.339  18.471   4.774
54871W        W27131  37.171  31.912  11.204
54872W        W27132   7.433  31.259   2.794
54873W        W27133  23.453  19.583   3.127
54874W        W27134  33.966  33.003   4.219
54875W        W27135  26.734  29.122   3.929
54876W        W27136  30.425   3.708   1.239
54877W        W27137  13.294  42.522  13.800
54878W        W27138  19.610  30.025  13.466
54879W        W27139   0.897  33.293   2.380
54880W        W27140  40.465  16.428   2.684
54881W        W27141   0.653  39.341   9.961
54882W        W27142  27.062  44.807   0.506
54883W        W27143  42.332  26.766   4.232
54884W        W27144  12.789  17.120  13.256
54885W        W27145  42.568  34.145  12.032
54886W        W27146  39.575  14.996   2.268
54887W        W27147   0.719  24.186  11.702
54888W        W27148   1.476  44.471   4.164
54889W        W27149  24.962  20.772   3.653
54890W        W27150  32.493  22.099  10.852
54891W        W27151  23.769  27.972   3.285
54892W        W27152  41.423   5.700   1.356
54893W        W27153  29.525  23.679  11.297
54894W        W27154  13.677  18.925   0.529
54895W        W27155  16.658  42.904   1.393
54896W        W27156  24.801  36.116   4.680
54897W        W27157  15.554  30.471  14.830
54898W        W27158  30.033  19.117   1.904
54899W        W27159  10.586  24.494   2.864
54900W        W27160  40.265  32.678  11.786
54901W        W27161   6.235  20.804  14.305
54902W        W27162  10.064  38.864   4.556
54903W        W27163  26.875  24.286  14.963
54904W        W27164   4.332   8.421   3.308
54905W        W27165  23.642  33.112  14.935
54906W        W27166   9.840  12.239   4.572
54907W        W27167  38.140   5.935   3.430
54908W        W27168   1.967   6.681  12.122
54909W        W27169  21.552  23.159  14.393
54910W        W27170   8.032  13.446   1.230
54911W        W27171  40.267  27.838   4.587
54912W        W27172   6.714  13.542  14.043
54913W        W27173  26.076  25.442  13.585
54914W        W27174  28.040  34.485  13.138
54915W        W27175  38.027  42.859   1.001
54916W        W27176   9.263  25.717   4.439
54917W        W27177  24.645   9.904  12.533
54918W        W27178   8.770  30.963   2.209
54919W        W27179  28.130  44.719   1.845
54920W        W27180  43.235   1.846  12.425
54921W        W27181  33.753  37.302  10.835
54922W        W27182  43.110  22.450  11.048
54923W        W27183  39.555  12.789   2.310
54924W        W27184  17.132  21.683   4.234
54925W        W27185  17.973  26.603   3.612
54926W        W27186  42.782  42.230   4.244
54927W        W27187  34.845   2.792   4.130
54928W        W27188  16.997   0.896   3.235
54929W        W27189   5.998  10.064  12.095
54930W        W27190   8.804  21.066  10.187
54931W        W27191   2.968  26.482   3.125
54932W        W27192  11.452  31.356   2.406
54933W        W27193  20.019  20.609  12.882
54934W        W27194  40.829  28.751   3.674
54935W        W27195  15.953  17.083   4.046
54936W        W27196  24.626  20.712   4.027
54937W        W27197  39.253  19.101   1.467
54938W        W27198  44.676  33.994  14.523
54939W        W27199  20.130  27.750   2.412
54940W        W27200   2.294  43.059   0.986
54941W        W27201  15.145  16.571   2.694
54942W        W27202  24.483  10.323   0.395
54943W        W27203   5.333   0.088  11.944
54944W        W27204  12.925   4.666   0.412
54945W        W27205  44.262  37.251  12.953
54946W        W27206  21.203  21.267  14.000
54947W        W27207  26.453  13.776   2.334
54948W        W27208  16.454  36.990  12.030
54949W        W27209   4.436  44.452   2.686
54950W        W27210  32.464  40.987  14.216
54951W        W27211  11.910  12.882  12.235
54952W        W27212   8.701  44.687   1.319
54953W        W27213  21.988  21.404  11.872
54954W        W27214  34.048  35.961  13.378
54955W        W27215  43.869  12.477  14.770
54956W        W27216  33.497  21.227   2.203
54957W        W27217  37.377  28.165   1.260
54958W        W27218  11.445   0.760   0.785
54959W        W27219  26.196   7.745  12.809
54960W        W27220   4.237  37.595  14.380
54961W        W27221   3.308   7.762   4.635
54962W        W27222   9.467  42.937   3.696
54963W        W27223  11.251  28.397   0.948
54964W        W27224  40.760   9.872   2.981
54965W        W27225   2.991  27.112   0.288
54966W        W27226   4.001  37.506   1.429
54967W        W27227  13.510  23.826  11.614
54968W        W27228  24.024  30.654   3.579
54969W        W27229  23.927  21.192  11.520
54970W        W27230  15.329   5.473  10.689
54971W        W27231  24.402  38.434  14.223
54972W        W27232  36.029  25.548   3.154
54973W        W27233   8.833  30.133   1.816
54974W        W27234  43.912  23.544   3.839
54975W        W27235  20.193  15.016  12.017
54976W        W27236  40.795  11.702   0.543
54977W        W27237   7.504  31.085   4.068
54978W        W27238  30.176  16.914  12.389
54979W        W27239  20.069  38.142   0.904
54980W        W27240  35.133   4.060  12.550
54981W        W27241  11.725   7.194  11.079
54982W        W27242   4.678  11.732  14.840
54983W        W27243  30.112  36.776  14.953
54984W        W27244  19.020  20.540  11.984
54985W        W27245  41.896  37.024   1.778
54986W        W27246  21.258   4.916  11.298
54987W        W27247   7.756  27.963  13.346
54988W        W27248   6.193  34.503  11.579
54989W        W27249  16.483  41.010   3.628
54990W        W27250   1.558  20.758  14.800
54991W        W27251  37.388   7.064  14.871
54992W        W27252   7.312  36.769  13.552
54993W        W27253  31.915  36.609   1.410
54994W        W27254  30.045   4.273   2.596
54995W        W27255  43.685  29.359  12.806
54996W        W27256  11.222  11.895  10.676
54997W        W27257  13.634  38.985   3.878
54998W        W27258  14.365  11.682  14.178
54999W        W27259  38.618  40.987  14.948
55000W        W27260   1.318  38.533   0.362
55001W        W27261  13.239  17.357  13.410
55002W        W27262  44.392  34.164   4.865
55003W        W27263  20.010  17.090  10.820
55004W        W27264  35.123  10.685  11.528
55005W        W27265  10.176  13.935   3.682
55006W        W27266   4.405  13.795   1.243
55007W        W27267  24.640  15.262  10.539
55008W        W27268  24.983  12.222   2.832
55009W        W27269  13.276  33.587   0.718
55010W        W27270  11.598  11.625  14.804
55011W        W27271   6.642  37.034   3.283
55012W        W27272  34.011  20.490  12.494
55013W        W27273   4.002   5.856  10.759
55014W        W27274  20.754  22.673  13.911
55015W        W27275  41.635  20.628  11.224
55016W        W27276  28.992  20.984   3.702
55017W        W27277  19.103   8.554   1.717
55018W        W27278  27.223  18.228  12.374
55019W        W27279  18.802  32.434   3.614
55020W        W27280  11.873  26.984   4.583
55021W        W27281  22.138  14.705   4.555
55022W        W27282  20.903  28.031  12.558
55023W        W27283  23.319  36.397  11.844
55024W        W27284  40.111   7.221  11.122
55025W        W27285  34.007  43.821   4.735
55026W        W27286  21.013  31.415   1.407
55027W        W27287  25.932  10.663  13.306
55028W        W27288  33.439  31.451   4.519
55029W        W27289  40.263  30.360   4.160
55030W        W27290  14.128  22.020  12.367
55031W        W27291  41.998  26.157  10.587
55032W        W27292   2.003  25.758  14.410
55033W        W27293  22.017  41.299  11.490
55034W        W27294  25.396  40.933   4.676
55035W        W27295  19.293   4.957   0.766
55036W        W27296  13.155  36.065  11.084
55037W        W27297  20.160  27.058  10.570
55038W        W27298  42.841  14.657  14.371
55039W        W27299  22.836  40.613   4.835
55040W        W27300   8.166  11.913   2.250
55041W        W27301  14.622  13.584  10.848
55042W        W27302  13.921  24.636   2.888
55043W        W27303  36.475   4.722   1.309
55044W        W27304   9.268   9.391  11.060
55045W        W27305  37.836  37.598   1.094
55046W        W27306  32.948  24.198   0.701
55047W        W27307  25.457   2.727   0.473
55048W        W27308   7.888  29.922  12.032
55049W        W27309  18.134  44.321   2.901
55050W        W27310   5.735  17.083   1.308
55051W        W27311  20.460  33.575   2.731
55052W        W27312   6.174  25.590   3.679
55053W        W27313  42.511  27.896   2.313
55054W        W27314  12.403   1.019  13.949
55055W        W27315  26.965  20.457  10.660
55056W        W27316   0.288  30.394   0.100
55057W        W27317  25.308  22.093  13.408
55058W        W27318  11.240  26.227   3.599
55059W        W27319  10.274   9.223   2.441
55060W        W27320  37.888  41.817  11.193
55061W        W27321  37.277  11.671   3.096
55062W        W27322  31.617  34.487  13.887
55063W        W27323  39.807   9.794   0.569
55064W        W27324  28.876  19.053  13.445
55065W        W27325  24.937  39.956   1.789
55066W        W27326  13.243  29.723   3.419
55067W        W27327   0.896  27.212  12.870
55068W        W27328   7.214  36.922  14.037
55069W        W27329  33.827  19.733  10.485
55070W        W27330  39.374  23.373  10.695
55071W        W27331  28.419  22.038   3.313
55072W        W27332  38.403  16.813   1.086
55073W        W27333  21.996  11.319   2.251
55074W        W27334  26.927  19.070  11.768
55075W        W27335  39.275  15.607   0.263
55076W        W27336  25.207  44.734  13.477
55077W        W27337  21.258   5.795  12.283
55078W        W27338  26.666  22.247  14.386
55079W        W27339  44.841  44.789  10.626
55080W        W27340  17.257  33.952  10.522
55081W        W27341  20.987  21.309  11.601
55082W        W27342   2.424  17.847   3.227
55083W        W27343  18.944  18.574   0.516
55084W        W27344  37.821  43.394   3.099
55085W        W27345  31.018  24.361   4.663
55086W        W27346  21.249  15.801  11.083
55087W        W27347  26.622   1.948   0.826
55088W        W27348  15.236  44.753   0.490
55089W        W27349  22.037  13.841   4.150
55090W        W27350   8.951  14.615   2.736
55091W        W27351  23.584  42.410  12.072
55092W        W27352  35.303   1.466  10.486
55093W        W27353   7.353   7.239  13.631
55094W        W27354   2.555  28.010  10.230
55095W        W27355  27.526  14.751   4.342
55096W        W27356  10.157  26.282  13.332
55097W        W27357  29.601  22.390   0.640
55098W        W27358  34.894  40.666   1.435
55099W        W27359  43.935   9.264   4.716
55100W        W27360  39.709   9.312  10.643
55101W        W27361  28.445   6.967   3.414
55102W        W27362   6.812   0.034  12.401
55103W        W27363  18.501  38.469   3.849
55104W        W27364  10.074   6.146   2.001
55105W        W27365  15.872  38.385  12.972
55106W        W27366  14.094  32.987   0.196
55107W        W27367  31.699   6.938   1.694
55108W        W27368  32.958  33.388   1.741
55109W        W27369  29.016  26.141  14.784
55110W        W27370  32.497  36.116  10.482
55111W        W27371  27.658  40.455   3.285
55112W        W27372  31.156  35.058  12.080
55113W        W27373  30.174   1.283   4.526
55114W        W27374   9.691  32.210  10.165
55115W        W27375  29.014   8.523   2.519
55116W        W27376  14.532  42.533  14.694
55117W        W27377  13.255   5.781   4.575
55118W        W27378  37.821  16.781  13.480
55119W        W27379  24.458   8.603  12.930
55120W        W27380   5.159  17.806   1.641
55121W        W27381  16.082  12.060  14.312
55122W        W27382   0.823   6.815  13.102
55123W        W27383  11.255  30.656   4.427
55124W        W27384   8.510   7.655  10.932
55125W        W27385  40.557  23.782  14.926
55126W        W27386  17.906  42.863  14.417
55127W        W27387  35.820  33.469   2.994
55128W        W27388  12.174  42.796   0.314
55129W        W27389  27.066   9.385  14.136
55130W        W27390  13.753   8.222  10.677
55131W        W27391   0.401  12.391   0.542
55132W        W27392  19.014   0.444   0.306
55133W        W27393  28.229   2.705  12.156
55134W        W27394   1.759   2.927   1.110
55135W        W27395  42.552  36.071   0.240
55136W        W27396   2.006  15.337   2.394
55137W        W27397  17.290  39.942  10.722
55138W        W27398  10.269  17.612  13.526
55139W        W27399  27.313  40.612  11.903
55140W        W27400  19.406  31.098   4.093
55141W        W27401  35.075  37.402   4.523
55142W        W27402  25.558  10.355  14.750
55143W        W27403  16.188  24.777  12.085
55144W        W27404  10.354  20.195   4.579
55145W        W27405  44.281  11.968   0.359
55146W        W27406  35.465  35.596  11.905
55147W        W27407  11.135  24.969  11.953
55148W        W27408  19.992  12.822   0.027
55149W        W27409  26.053   1.804   4.252
55150W        W27410  38.430  11.378   1.439
55151W        W27411  30.913  32.906   4.414
55152W        W27412  36.422  44.174  14.835
55153W        W27413  39.847  39.311  11.941
55154W        W27414  38.467   6.923  11.651
55155W        W27415  18.197  22.082   3.619
55156W        W27416  16.947  17.174  12.040
55157W        W27417  35.387  30.462  12.665
55158W        W27418  19.723  25.000  12.925
55159W        W27419  41.033   4.657  13.994
55160W        W27420   2.482  42.856  14.947
55161W        W27421  28.088  17.830   4.546
55162W        W27422   5.873  24.252  11.176
55163W        W27423  21.125  33.022  12.101
55164W        W27424  22.388  14.493  10.550
55165W        W27425   0.943   1.959   1.625
55166W        W27426  17.287  11.732   4.026
55167W        W27427  38.078  18.157  12.280
55168W        W27428  19.193  10.967  11.359
55169W        W27429  19.731  18.960   0.004
55170W        W27430  15.245  34.503   3.467
55171W        W27431  17.808  29.753   0.763
55172W        W27432   5.966  44.479   0.866
55173W        W27433  18.042  29.605  13.890
55174W        W27434  31.081   9.287   4.536
55175W        W27435  44.395  21.299   2.635
55176W        W27436   0.302  27.458   3.333
55177W        W27437  22.691  11.306   0.372
55178W        W27438  32.706  19.146   5.118
55179W        W27439  20.908  42.386   2.788
55180W        W27440  13.743  15.946   3.751
55181W        W27441  14.751  15.774   0.416
55182W        W27442  36.818  41.024   2.901
55183W        W27443  24.730  37.027  12.970
55184W        W27444  33.644  21.191  13.917
55185W        W27445  43.316  16.617   4.135
55186W        W27446  26.532  19.335   4.746
55187W        W27447  19.652   4.255   3.672
55188W        W27448  17.126  10.395   3.307
55189W        W27449  42.822   6.737   3.359
55190W        W27450  33.498   3.911   2.639
55191W        W27451  27.161  36.069  13.806
55192W        W27452  24.680  27.226  11.982
55193W        W27453  43.907   3.395  14.399
55194W        W27454  44.807  23.751   3.578
55195W        W27455   7.727  18.029  13.532
55196W        W27456  29.132  39.342  11.660
55197W        W27457  28.014  21.707  10.960
55198W        W27458   3.692  42.944   0.415
55199W        W27459   2.429   4.695  14.303
55200W        W27460  42.115  25.510   1.194
55201W        W27461  18.294  40.510   4.307
55202W        W27462  32.794  24.122  14.269
55203W        W27463  44.245  23.711  11.462
55204W        W27464   3.053  24.804   1.826
55205W        W27465  20.192  26.491  11.654
55206W        W27466  21.013  10.443   1.979
55207W        W27467  24.473  14.207   3.681
55208W        W27468  41.945  19.278  13.026
55209W        W27469  20.083  23.734   4.574
55210W        W27470   3.981  13.150  10.676
55211W        W27471   0.582  24.439   3.778
55212W        W27472  44.235   6.695   3.095
55213W        W27473  21.433  10.293   0.732
55214W        W27474  43.828  28.646   0.297
55215W        W27475   2.603  42.765   5.063
55216W        W27476  43.373  14.657   1.296
55217W        W27477  36.056   2.956   4.516
55218W        W27478  15.613  37.078   0.236
55219W        W27479  31.583   1.476   1.818
55220W        W27480  14.921  19.506  10.729
55221W        W27481  40.636  31.956   5.060
55222W        W27482  18.811   7.317   1.296
55223W        W27483  28.532  31.165   4.027
55224W        W27484  43.602  14.372   4.745
55225W        W27485   0.995   4.261  14.672
55226W        W27486  27.380   6.426   2.156
55227W        W27487  14.614  10.180  13.496
55228W        W27488   7.953  41.487   3.911
55229W        W27489  37.951  27.025   2.799
55230W        W27490  35.815  23.703  14.003
55231W        W27491  28.988  27.622  10.639
55232W        W27492  36.538  25.100   3.768
55233W        W27493  10.848   4.449  10.855
55234W        W27494  18.680  19.322  13.949
55235W        W27495  38.650  16.502   0.351
55236W        W27496   5.753  17.683  12.907
55237W        W27497  42.994  17.286   3.532
55238W        W27498  39.036  31.074  11.183
55239W        W27499  36.452  10.295   0.298
55240W        W27500  27.563  28.743   1.918
55241W        W27501  26.626  11.374  13.422
55242W        W27502  17.664  18.055  13.817
55243W        W27503  43.488  26.628   3.418
55244W        W27504   2.035  19.662   2.055
55245W        W27505  26.075  27.904  14.835
55246W        W27506   3.175  21.691   0.010
55247W        W27507  40.344  23.778  13.620
55248W        W27508   1.945  25.206   2.324
55249W        W27509  30.163  41.953  12.442
55250W        W27510  43.956  20.211  14.373
55251W        W27511  29.828  18.161  12.195
55252W        W27512  22.059  38.322  12.172
55253W        W27513   1.681  36.491   4.348
55254W        W27514  44.700  16.718  10.283
55255W        W27515  28.446   3.206  12.354
55256W        W27516   6.799  12.702  14.009
55257W        W27517   7.201  12.119   3.661
55258W        W27518  28.001  20.477  14.337
55259W        W27519   9.746  37.724   0.266
55260W        W27520  23.927  15.793  11.529
55261W        W27521  40.261  40.547   2.784
55262W        W27522  41.986  29.062   3.733
55263W        W27523  17.253   0.698  13.454
55264W        W27524  15.924  20.711  12.428
55265W        W27525  21.731   4.420  10.551
55266W        W27526  33.475  24.200   2.376
55267W        W27527   9.245   1.349  10.746
55268W        W27528  44.722   3.365   2.568
55269W        W27529   6.120  11.067   2.720
55270W        W27530   2.796  18.022   2.356
55271W        W27531   8.646   2.485   5.137
55272W        W27532  24.772  39.099  11.315
55273W        W27533   9.387  38.574   3.361
55274W        W27534  29.708  20.216   1.964
55275W        W27535  21.222  29.504  13.164
55276W        W27536  39.268  38.067  10.729
55277W        W27537  11.636  43.789  10.995
55278W        W27538  34.332  40.509   4.413
55279W        W27539  19.598   9.306  14.086
55280W        W27540  32.958  14.692  14.534
55281W        W27541  10.419  28.555   3.796
55282W        W27542  35.458  29.948  11.190
55283W        W27543  33.364   4.349  10.940
55284W        W27544  37.875  41.529   0.221
55285W        W27545  10.128  39.458   3.407
55286W        W27546  36.846   1.506   2.271
55287W        W27547  28.309  15.605   3.372
55288W        W27548  38.565  25.054  12.524
55289W        W27549  35.333  26.367  14.400
55290W        W27550  37.000  17.226  11.683
55291W        W27551   3.869   2.329  14.834
55292W        W27552   5.784   4.723   2.717
55293W        W27553   1.504  34.480   4.137
55294W        W27554  10.584  22.411   4.265
55295W        W27555  32.672  38.820  12.541
55296W        W27556   8.849  21.818   1.419
55297W        W27557  37.798  19.236   0.654
55298W        W27558   1.763  40.490  11.233
55299W        W27559  36.001  13.761   4.093
55300W        W27560  44.549   3.855   3.116
55301W        W27561  33.033  10.934  11.038
55302W        W27562  32.870  37.522   0.962
55303W        W27563   8.970  21.305  14.467
55304W        W27564  32.134  42.513   0.837
55305W        W27565   6.619  42.820  13.052
55306W        W27566  29.384  13.585   4.566
55307W        W27567  16.773   9.623  10.593
55308W        W27568  41.777  17.615  14.939
55309W        W27569   3.160  22.034  12.415
55310W        W27570  19.568  39.331   0.963
55311W        W27571  38.929  15.702  11.947
55312W        W27572   0.806  21.174   4.995
55313W        W27573  39.911  29.168   4.203
55314W        W27574  36.289  18.899   5.501
55315W        W27575  39.299  38.618  10.545
55316W        W27576   3.681  10.773   1.822
55317W        W27577  24.076  15.264  13.149
55318W        W27578  20.271   8.837   2.140
55319W        W27579  20.168  36.281   2.987
55320W        W27580  39.124  26.083   4.751
55321W        W27581  19.078  43.513  13.890
55322W        W27582  14.531  21.253   2.428
55323W        W27583   1.400  41.908   1.053
55324W        W27584   6.190  31.569   0.869
55325W        W27585   2.294  13.684  13.157
55326W        W27586  33.853  30.748  14.538
55327W        W27587  25.124   7.495   1.564
55328W        W27588  44.433  23.579  11.919
55329W        W27589  32.362  32.445   4.024
55330W        W27590  13.710  17.077   2.969
55331W        W27591  44.990  31.512  10.514
55332W        W27592  23.476  15.318  12.368
55333W        W27593   4.267  41.472   2.873
55334W        W27594  44.507   3.410  11.930
55335W        W27595  16.697   2.495   1.358
55336W        W27596   5.817  27.241   0.296
55337W        W27597  37.510   7.088   4.572
55338W        W27598  20.172  21.996  14.985
55339W        W27599  24.814  25.182   1.266
55340W        W27600  29.228  12.809   1.775
55341W        W27601   4.100  35.621  11.104
55342W        W27602  42.728   8.435   1.213
55343W        W27603  36.017  18.261   3.577
55344W        W27604   0.447  18.016   0.265
55345W        W27605  23.459  24.987  14.040
55346W        W27606  20.690   0.154  13.365
55347W        W27607   1.262   7.691  10.661
55348W        W27608   3.881   1.967   4.822
55349W        W27609  25.149  40.421  10.504
55350W        W27610   2.659  29.039   4.376
55351W        W27611  30.653  25.242   2.240
55352W        W27612  16.063  35.593   2.695
55353W        W27613  12.588  44.042  12.109
55354W        W27614   8.787  19.043   2.196
55355W        W27615  21.936  26.476   1.341
55356W        W27616   0.419   5.643  12.390
55357W        W27617  37.515  32.956   3.199
55358W        W27618  36.587   1.043   2.309
55359W        W27619  11.385  17.556  13.530
55360W        W27620  12.433  17.351   2.827
55361W        W27621  12.149  16.775  13.496
55362W        W27622   6.249  40.550  11.896
55363W        W27623  16.569  23.541  11.688
55364W        W27624   1.475  41.960   4.164
55365W        W27625   1.902  13.306  13.898
55366W        W27626  37.337  44.609   4.419
55367W        W27627  23.255  22.009   4.157
55368W        W27628  25.461  20.782  14.318
55369W        W27629  36.336   3.316  14.430
55370W        W27630  33.432   5.783   0.315
55371W        W27631  23.077  23.065   1.680
55372W        W27632  21.024   9.665  12.122
55373W        W27633  33.604   3.998   1.608
55374W        W27634   3.479  35.020   4.071
55375W        W27635  44.941  21.254   4.775
55376W        W27636   4.195  19.075  12.905
55377W        W27637   3.771  11.971  11.155
55378W        W27638  18.751  21.055  12.960
55379W        W27639  37.924   9.270  12.985
55380W        W27640  43.279   0.378   1.374
55381W        W27641  33.561  18.562  12.524
55382W        W27642  16.700  24.129   3.378
55383W        W27643   9.661  26.633   4.594
55384W        W27644  24.295  12.293   0.723
55385W        W27645  39.411   2.514   0.187
55386W        W27646  38.938  11.296  11.239
55387W        W27647  37.350  23.149   3.772
55388W        W27648  44.489   0.729   4.720
55389W        W27649  24.118   5.266  13.900
55390W        W27650  11.090  16.264  13.005
55391W        W27651  43.359  16.024   1.907
55392W        W27652  18.631  40.284   2.489
55393W        W27653  22.360  15.857  12.553
55394W        W27654  28.226  28.563   2.584
55395W        W27655   2.173  18.537   1.511
55396W        W27656  21.905  36.456  13.961
55397W        W27657  40.049  29.404  13.951
55398W        W27658  15.227  22.075   0.562
55399W        W27659  36.021  22.095   2.123
55400W        W27660  34.642  30.622   3.664
55401W        W27661  29.206  42.412  13.100
55402W        W27662  37.422  14.157   4.251
55403W        W27663   7.695  21.321  11.972
55404W        W27664   6.830  43.779  13.001
55405W        W27665  28.398  28.516   0.240
55406W        W27666   4.450  30.075   4.888
55407W        W27667  35.483  19.165  13.458
55408W        W27668  40.904  17.663   2.208
55409W        W27669  40.729  44.833   2.846
55410W        W27670   4.980   4.680  14.382
55411W        W27671  12.932  34.403   1.472
55412W        W27672  20.723  33.108   1.665
55413W        W27673  37.984  21.406  13.838
55414W        W27674  11.283  37.417  11.184
55415W        W27675   5.392  24.434   3.604
55416W        W27676  42.734  23.321   4.214
55417W        W27677   2.670  44.693  13.199
55418W        W27678   7.381  19.030   4.059
55419W        W27679   2.108  22.413  14.229
55420W        W27680   3.774   7.854   1.267
55421W        W27681  14.772  12.872  12.581
55422W        W27682  40.671  15.603  12.095
55423W        W27683   2.634  19.093   0.096
55424W        W27684  37.381  37.117   4.312
55425W        W27685   1.975  20.973  10.696
55426W        W27686  14.290  26.486  11.647
55427W        W27687  20.839  23.692  11.928
55428W        W27688   4.241  44.032  11.992
55429W        W27689  44.752  13.207   2.440
55430W        W27690   4.405  30.088   3.402
55431W        W27691  29.070  44.715  14.693
55432W        W27692  38.283  15.535   0.402
55433W        W27693  36.636  13.611   0.808
55434W        W27694  30.093   0.882  14.662
55435W        W27695  32.691  22.576   1.225
55436W        W27696  19.013  21.097  14.819
55437W        W27697  41.882  38.984  11.427
55438W        W27698  31.073   1.285   1.714
55439W        W27699  23.501   6.685   1.008
55440W        W27700  21.686  22.501   9.784
55441W        W27701   6.831   5.370  11.202
55442W        W27702  31.554  25.522  10.788
55443W        W27703  33.553  14.675   1.796
55444W        W27704   5.416  14.668   2.665
55445W        W27705  24.931   1.674  13.855
55446W        W27706  24.099  32.060  10.629
55447W        W27707   6.060  41.356   3.269
55448W        W27708  30.465  29.531   1.199
55449W        W27709   7.105  16.978   4.239
55450W        W27710   2.035  40.547  14.769
55451W        W27711  13.279  39.184  13.544
55452W        W27712  38.297  30.096   0.465
55453W        W27713  29.660  15.747   0.152
55454W        W27714  33.087  14.182   3.925
55455W        W27715  24.133   0.398  12.245
55456W        W27716  11.895   0.473  13.509
55457W        W27717  35.929  29.120  12.899
55458W        W27718  22.707  27.739  13.422
55459W        W27719  15.612  18.697  11.579
55460W        W27720  26.408  43.992  13.586
55461W        W27721   0.084  24.553   3.867
55462W        W27722  24.906  16.181   3.619
55463W        W27723   4.252  38.340   1.819
55464W        W27724  35.097  14.279  14.483
55465W        W27725  41.029  27.016  11.913
55466W        W27726  16.516  29.031   0.796
55467W        W27727  19.083  13.247  14.668
55468W        W27728  18.233   7.244   2.237
55469W        W27729  44.067  15.849  13.566
55470W        W27730  22.498  25.090  12.618
55471W        W27731  31.642   4.170  13.923
55472W        W27732  24.488   6.169  12.969
55473W        W27733   9.280   5.394  13.312
55474W        W27734  35.564  26.191  11.796
55475W        W27735  39.466  18.697   4.211
55476W        W27736   0.236  32.556  11.098
55477W        W27737  44.533  13.957   3.146
55478W        W27738  25.501   0.751  11.908
55479W        W27739  31.465  42.272   1.735
55480W        W27740  25.739  13.971   4.528
55481W        W27741  42.534  14.477   2.631
55482W        W27742  19.442  10.665  12.142
55483W        W27743  42.296  28.116   4.409
55484W        W27744   9.820   9.287  11.045
55485W        W27745  27.122  32.594  13.507
55486W        W27746  35.286  31.801   1.806
55487W        W27747  12.821   9.917  11.501
55488W        W27748  44.849  26.010   0.003
55489W        W27749  37.351  40.982  14.237
55490W        W27750  34.536  41.084   1.732
55491W        W27751  26.127   5.959   3.706
55492W        W27752  34.152  17.656  13.524
55493W        W27753  37.390  38.356   2.833
55494W        W27754  37.109  30.174  13.512
55495W        W27755  23.191  14.622   4.549
55496W        W27756  34.358  37.322  13.837
55497W        W27757  38.370  30.909  12.117
55498W        W27758  23.190  34.909   3.271
55499W        W27759   7.248   6.759  13.869
55500W        W27760  23.273  30.593   2.370
55501W        W27761  18.403   3.379  10.240
55502W        W27762  42.806  25.257   5.022
55503W        W27763   4.401  36.283   2.316
55504W        W27764  11.329  18.067  13.560
55505W        W27765   0.902   8.452   4.660
55506W        W27766  34.191  21.137  10.717
55507W        W27767  43.998  14.259  12.591
55508W        W27768  22.576  15.659  14.774
55509W        W27769   0.029  18.516   2.353
55510W        W27770  22.938  24.095   1.312
55511W        W27771  30.417  10.730   1.229
55512W        W27772  12.230  35.166  11.582
55513W        W27773  35.407  28.689  11.582
55514W        W27774  15.686   6.654  11.084
55515W        W27775  14.949  10.095   2.008
55516W        W27776  12.264   5.811  11.204
55517W        W27777   3.965  16.005   1.738
55518W        W27778  44.569  23.559  14.747
55519W        W27779  12.537   3.803   4.276
55520W        W27780   8.742  43.940  14.848
55521W        W27781  37.561  17.818  12.031
55522W        W27782  12.002  13.898  12.914
55523W        W27783   4.008  27.782  14.952
55524W        W27784  27.902  19.817   4.564
55525W        W27785  29.485   0.996   4.625
55526W        W27786   0.433  19.200   1.431
55527W        W27787  10.371   6.260   3.674
55528W        W27788  40.910   8.114  14.569
55529W        W27789   3.858  13.369   4.208
55530W        W27790   1.303  16.092  11.073
55531W        W27791  27.569   6.163   4.243
55532W        W27792  18.620  27.771   1.467
55533W        W27793   5.232   1.653  11.033
55534W        W27794  19.340  19.184  11.580
55535W        W27795  10.810  15.618   4.170
55536W        W27796   8.834   4.337   2.712
55537W        W27797  13.158  17.638  11.009
55538W        W27798  36.466  22.729  14.363
55539W        W27799  23.383   8.059   3.050
55540W        W27800  27.226  29.411  11.925
55541W        W27801  43.365  18.243  11.702
55542W        W27802   6.372  39.304   3.793
55543W        W27803  10.819  16.997  11.945
55544W        W27804  41.789  28.150   4.179
55545W        W27805  22.522  20.889   1.937
55546W        W27806   3.521  39.710  10.690
55547W        W27807  16.810  11.660  11.354
55548W        W27808   8.223  39.948  11.627
55549W        W27809   4.345   1.432  14.468
55550W        W27810  25.529  12.320  12.183
55551W        W27811  32.349   9.203   0.926
55552W        W27812   8.718  21.611  13.631
55553W        W27813  20.189  26.131   2.358
55554W        W27814  32.942  17.738  14.525
55555W        W27815  17.228  42.141   3.569
55556W        W27816  38.078  20.470  10.851
55557W        W27817  29.483  29.684  11.926
55558W        W27818  30.383   1.756   1.510
55559W        W27819  27.894   3.344   1.761
55560W        W27820   9.327  19.276   1.872
55561W        W27821   0.893  23.899  10.743
55562W        W27822  32.627  29.730  12.439
55563W        W27823   0.500  42.039   2.701
55564W        W27824   9.130   3.325   0.032
55565W        W27825   7.480  28.025   2.361
55566W        W27826  14.450  20.628  12.491
55567W        W27827  37.961  26.475  12.883
55568W        W27828  20.447  44.532  13.953
55569W        W27829   3.770  13.302  14.629
55570W        W27830  32.549   2.991   2.645
55571W        W27831   2.921   6.354   4.933
55572W        W27832  16.556  17.214   4.207
55573W        W27833  21.416  41.837  11.031
55574W        W27834  42.000  37.991   3.597
55575W        W27835   9.815  35.581  12.071
55576W        W27836  39.809  32.684   4.576
55577W        W27837   8.492   1.053   4.889
55578W        W27838  41.171   5.260  14.315
55579W        W27839  15.849  20.803  14.842
55580W        W27840  30.991  28.446   2.631
55581W        W27841   3.992   7.008   1.417
55582W        W27842  20.241  38.785  12.492
55583W        W27843  33.297  26.231   4.314
55584W        W27844  23.303   8.820   1.905
55585W        W27845  22.318  19.868  12.012
55586W        W27846  20.532  26.519  10.221
55587W        W27847   3.437  17.443  13.527
55588W        W27848   2.943  42.590   0.778
55589W        W27849   1.504  24.627  11.718
55590W        W27850  16.785  15.376   4.953
55591W        W27851  26.409  21.009   3.725
55592W        W27852  42.550   3.427   9.813
55593W        W27853  42.551  28.269  13.805
55594W        W27854  30.432   4.940  11.102
55595W        W27855  29.915  43.368   0.800
55596W        W27856  22.242   5.041  12.048
55597W        W27857  40.090  21.142  12.216
55598W        W27858  35.999  44.806   0.128
55599W        W27859  42.336  16.389  12.802
55600W        W27860  10.247  22.364   0.885
55601W        W27861  36.083   6.005  12.458
55602W        W27862  32.213  24.185  11.864
55603W        W27863  11.166  13.224   0.954
55604W        W27864  20.685  37.778   1.336
55605W        W27865  11.148   9.073  12.847
55606W        W27866  30.429  13.104  11.530
55607W        W27867   4.192  27.169   4.941
55608W        W27868  30.053  21.688   4.830
55609W        W27869  35.393  28.532  12.923
55610W        W27870  26.291  35.106  13.843
55611W        W27871  43.384  18.030  14.957
55612W        W27872  37.501  18.719   1.479
55613W        W27873  23.626   4.287  11.132
55614W        W27874  32.160  12.654   4.404
55615W        W27875  38.965  13.384  12.412
55616W        W27876  39.480  32.613  14.891
55617W        W27877  13.360  20.095   4.885
55618W        W27878  22.545  24.477  13.996
55619W        W27879  37.947  34.402  11.137
55620W        W27880  30.852  27.585   0.236
55621W        W27881  18.764  13.123  11.866
55622W        W27882  30.942  43.326  10.707
55623W        W27883  18.004  15.364   2.860
55624W        W27884   5.945   7.954   0.207
55625W        W27885  31.097  37.604   4.636
55626W        W27886  38.116  40.614  13.604
55627W        W27887  10.877  41.480  13.241
55628W        W27888  25.097  12.073  14.493
55629W        W27889  43.480  26.189   2.679
55630W        W27890  13.114  31.088   2.918
55631W        W27891  37.074  29.143   3.251
55632W        W27892  28.374  21.504  12.884
55633W        W27893  17.336  43.131   3.882
55634W        W27894   9.278  33.361  10.083
55635W        W27895   3.769  18.144   3.546
55636W        W27896  13.884   4.289   4.496
55637W        W27897   1.762   5.263  14.617
55638W        W27898  42.000  12.554   0.873
55639W        W27899  17.372   7.409  13.291
55640W        W27900  19.404  28.434   0.388
55641W        W27901   1.191  26.627  13.771
55642W        W27902   5.157  41.981   0.332
55643W        W27903  34.811  28.022   4.086
55644W        W27904  20.997  33.369   1.276
55645W        W27905  37.423  17.015  11.440
55646W        W27906  38.310  22.719  13.717
55647W        W27907   7.379   7.918   2.301
55648W        W27908  16.065   7.661   0.833
55649W        W27909  36.655  36.998  10.601
55650W        W27910   7.178  27.715   5.638
55651W        W27911   4.746  20.745  12.167
55652W        W27912  15.134  20.486  14.354
55653W        W27913  36.352  20.597   3.727
55654W        W27914  39.079  37.313  12.173
55655W        W27915  43.806   7.807   1.611
55656W        W27916  43.669  25.571   1.605
55657W        W27917  13.708  11.632   0.440
55658W        W27918  15.702   9.088   2.858
55659W        W27919  22.717  33.854  12.213
55660W        W27920  26.724  15.064  10.889
55661W        W27921   7.374  44.486  12.182
55662W        W27922  19.528  39.401   4.961
55663W        W27923   3.445  26.412  12.545
55664W        W27924  16.572  27.673   1.011
55665W        W27925  43.245   7.148   1.772
55666W        W27926  14.124   1.494  14.946
55667W        W27927   2.935  35.516   1.343
55668W        W27928  32.550   9.663   0.774
55669W        W27929   4.923  42.961  11.649
55670W        W27930  12.726  15.329  11.699
55671W        W27931  19.641   4.141  13.959
55672W        W27932   7.126  28.110  12.569
55673W        W27933  43.200  28.647   0.485
55674W        W27934   3.662  11.782  11.620
55675W        W27935  38.857  31.708   3.794
55676W        W27936  44.869  21.012   0.055
55677W        W27937   0.020  15.862  13.161
55678W        W27938  26.391  33.419   4.291
55679W        W27939   8.221  36.637  13.520
55680W        W27940  41.276   7.176  11.560
55681W        W27941  39.153   3.465   1.953
55682W        W27942  37.477   2.212  11.619
55683W        W27943  30.692   0.328   4.185
55684W        W27944  29.902   7.460   0.249
55685W        W27945  12.726   9.709   2.520
55686W        W27946   5.761  15.832   3.213
55687W        W27947  34.433  23.180   3.213
55688W        W27948  24.153  13.561  13.385
55689W        W27949   7.104  16.420  11.657
55690W        W27950   7.827  12.580   4.160
55691W        W27951   4.030  32.012   1.512
55692W        W27952  44.722  12.721   3.230
55693W        W27953  44.084  28.206   4.073
55694W        W27954   5.764   3.633   4.500
55695W        W27955   6.199  37.396  11.256
55696W        W27956   2.857  22.755   2.719
55697W        W27957  14.334  40.573  10.729
55698W        W27958  20.215  15.069   0.884
55699W        W27959  17.269  37.506   1.799
55700W        W27960   1.979  27.576  13.914
55701W        W27961  42.965  39.996   1.164
55702W        W27962  42.900  12.081   1.916
55703W        W27963  35.849  35.593  12.226
55704W        W27964  31.692  34.571  12.418
55705W        W27965  22.097   8.343   0.334
55706W        W27966  23.899   6.688   4.246
55707W        W27967  25.882   5.456   1.886
55708W        W27968  23.303   5.268  13.449
55709W        W27969  42.414  22.466   3.557
55710W        W27970   9.344  31.028   1.306
55711W        W27971  37.557  22.097   1.259
55712W        W27972   4.670  15.641  13.056
55713W        W27973  40.588  32.385   2.627
55714W        W27974  33.778   7.311   4.303
55715W        W27975   2.398  12.182  11.292
55716W        W27976  32.387   8.311  13.045
55717W        W27977  19.592  27.427   3.227
55718W        W27978  29.893  34.754  10.719
55719W        W27979  21.044  39.400   1.667
55720W        W27980  31.073  43.459   3.727
55721W        W27981  15.646  14.399  11.536
55722W        W27982  29.552  44.607   5.067
55723W        W27983  37.287  34.071  12.555
55724W        W27984   2.151  35.007   5.010
55725W        W27985  42.979  37.853  12.767
55726W        W27986  26.121  30.096   2.137
55727W        W27987  11.055   5.862  14.624
55728W        W27988   9.073  29.468  11.152
55729W        W27989   6.829   5.651   3.800
55730W        W27990  33.043   1.885   3.913
55731W        W27991   9.106  12.645   1.753
55732W        W27992  18.673   1.640  12.657
55733W        W27993  28.755  22.920   1.397
55734W        W27994  34.560  11.760   1.676
55735W        W27995   7.847  15.627  11.917
55736W        W27996   8.771  30.133  11.624
55737W        W27997  27.795   5.517   4.551
55738W        W27998  10.247  33.565   1.084
55739W        W27999  41.079  26.464  14.380
55740W        W28000  36.641   4.197  12.695
55741W        W28001   9.331  39.506   1.423
55742W        W28002  42.466  26.711   1.974
55743W        W28003  25.276  14.257  12.880
55744W        W28004  38.844   3.527  10.647
55745W        W28005  20.703  25.528   2.770
55746W        W28006   6.672  23.049  11.826
55747W        W28007  20.014  11.639   2.764
55748W        W28008   1.490  40.417  14.794
55749W        W28009  43.332  43.409  13.943
55750W        W28010  35.471   6.714  13.848
55751W        W28011   3.880   9.358   1.582
55752W        W28012  10.021  33.410   4.648
55753W        W28013  25.058   7.979  11.393
55754W        W28014  27.481  23.323  10.526
55755W        W28015   3.213  43.533   3.193
55756W        W28016   2.939  30.054  11.660
55757W        W28017  37.460  33.569   0.200
55758W        W28018  21.705  37.196   3.833
55759W        W28019  30.158  32.338  12.453
55760W        W28020  19.273   7.284   2.235
55761W        W28021  40.881  36.396   1.600
55762W        W28022  24.810   2.387  13.524
55763W        W28023   7.494  18.119  14.449
55764W        W28024  32.052  11.592  13.035
55765W        W28025  39.053  43.551  12.051
55766W        W28026  12.588  42.940  13.563
55767W        W28027  28.365  14.248  12.346
55768W        W28028  17.839  42.783   2.815
55769W        W28029  31.093  23.022  14.426
55770W        W28030   5.794  41.420   0.950
55771W        W28031   1.098   2.504  13.108
55772W        W28032   5.285  11.180  11.814
55773W        W28033   2.785  36.957  13.970
55774W        W28034  21.637  35.597  10.976
55775W        W28035  12.680  12.221   1.382
55776W        W28036  24.172  10.109   3.759
55777W        W28037  14.358  43.080   3.017
55778W        W28038  19.510  22.677  11.160
55779W        W28039   1.361  20.310  10.730
55780W        W28040  35.540  19.618  11.533
55781W        W28041  44.841  39.419  10.387
55782W        W28042  17.110  29.433   3.404
55783W        W28043   4.719   1.971   0.193
55784W        W28044   2.419  34.454  14.487
55785W        W28045  19.498  11.335   2.391
55786W        W28046  20.674   4.340  14.104
55787W        W28047  32.456  43.186   3.046
55788W        W28048   5.883   1.294  12.894
55789W        W28049  14.667  26.449   0.839
55790W        W28050  13.323   7.442  13.418
55791W        W28051  34.498  29.126   3.494
55792W        W28052  24.979  15.674   2.375
55793W        W28053   7.458  41.354  11.933
55794W        W28054  35.655  40.056   4.678
55795W        W28055   3.725  21.751  14.189
55796W        W28056  25.679  16.876  14.667
55797W        W28057  24.939   4.281   0.074
55798W        W28058  29.906  20.343  12.653
55799W        W28059  14.149  29.954   2.166
55800W        W28060  34.472  12.853  11.650
55801W        W28061  33.344  22.598  14.415
55802W        W28062  22.506  39.408   2.092
55803W        W28063   4.459  25.930  11.633
55804W        W28064  36.069  36.825   3.704
55805W        W28065  19.351  20.981   5.028
55806W        W28066   3.021   3.702   1.302
55807W        W28067  18.497   3.302  13.631
55808W        W28068  28.797   8.186   2.194
55809W        W28069  28.493  31.141  12.073
55810W        W28070  34.550  28.864  13.521
55811W        W28071  42.448  10.622  12.370
55812W        W28072  36.864  12.426   3.766
55813W        W28073  35.864   9.720   2.218
55814W        W28074  25.015  24.985  11.066
55815W        W28075  22.093  36.323  14.970
55816W        W28076  39.526  15.702   0.768
55817W        W28077  43.539  39.569   2.818
55818W        W28078  18.075   0.984   1.941
55819W        W28079  22.659  35.468  14.326
55820W        W28080  29.647  40.169  12.599
55821W        W28081  34.053  28.693   2.335
55822W        W28082  16.718  22.048  14.490
55823W        W28083  35.543  13.713   0.033
55824W        W28084  16.819   5.360  13.918
55825W        W28085   3.314  29.263   1.875
55826W        W28086  41.520  13.884   4.662
55827W        W28087   5.443  38.979  12.206
55828W        W28088   8.435  28.534   0.852
55829W        W28089  39.848  43.964  13.859
55830W        W28090  18.046  33.552  13.905
55831W        W28091  15.321  19.207   1.927
55832W        W28092   3.508  26.953   4.680
55833W        W28093  42.274  30.984  12.967
55834W        W28094  34.173  25.941   0.863
55835W        W28095  12.244   7.797  10.633
55836W        W28096   9.628   4.904   4.630
55837W        W28097   1.746   4.725   2.254
55838W        W28098  13.200  26.567  12.685
55839W        W28099  14.536  39.105   3.723
55840W        W28100  25.200  13.109   1.964
55841W        W28101  15.847  30.966   2.861
55842W        W28102   9.779  34.670   0.910
55843W        W28103  33.639  34.227  10.759
55844W        W28104   2.404  26.171  11.383
55845W        W28105   0.215  43.903   0.432
55846W        W28106  16.677  12.863   1.470
55847W        W28107  13.164  17.866  13.367
55848W        W28108  20.995  19.718  13.282
55849W        W28109  17.404  23.330  10.138
55850W        W28110  41.915   2.705   4.293
55851W        W28111  25.261  26.878   2.200
55852W        W28112  13.707  44.175  10.919
55853W        W28113   0.331  36.348   0.504
55854W        W28114   1.311  23.635   1.941
55855W        W28115  14.640  11.848   0.044
55856W        W28116  21.946  14.685   0.708
55857W        W28117  14.771   0.008  14.017
55858W        W28118  29.790  11.330  14.823
55859W        W28119   6.717   3.359  14.108
55860W        W28120   9.977  16.677   2.311
55861W        W28121  42.076  28.323  11.871
55862W        W28122  33.651  18.778   3.660
55863W        W28123  19.072  15.950   3.374
55864W        W28124   9.761  34.559  13.796
55865W        W28125   8.006  30.945   4.037
55866W        W28126  14.164  15.817  13.362
55867W        W28127  15.908  33.751  12.764
55868W        W28128   3.465  42.092   2.982
55869W        W28129   2.983  14.915  11.914
55870W        W28130   3.788   6.457   1.846
55871W        W28131  31.120  31.604   0.480
55872W        W28132  20.605  40.624  14.187
55873W        W28133   3.385  43.539  11.043
55874W        W28134  37.921   0.851  11.691
55875W        W28135  32.070  33.006  12.100
55876W        W28136  41.276  16.624  11.595
55877W        W28137  38.473  32.906  12.908
55878W        W28138  28.402  32.601   9.481
55879W        W28139   0.696  17.053   2.788
55880W        W28140  44.841  12.826  10.675
55881W        W28141  27.589  41.481  12.097
55882W        W28142  23.983   2.197   2.402
55883W        W28143  24.047  14.167   1.293
55884W        W28144  23.975  34.348   4.200
55885W        W28145   9.132  20.455  14.584
55886W        W28146  39.375  34.033   4.563
55887W        W28147  11.606   5.690  12.385
55888W        W28148  30.446  43.284   0.819
55889W        W28149   0.368  34.902  11.069
55890W        W28150  15.149   1.838  11.226
55891W        W28151  39.633  10.287  10.664
55892W        W28152  23.173  39.447  12.471
55893W        W28153   5.260   0.948  12.239
55894W        W28154   7.163  42.767   2.920
55895W        W28155  35.087   7.959  12.929
55896W        W28156  44.538  15.719   0.105
55897W        W28157  30.172  32.228  11.604
55898W        W28158  14.192  39.091   3.136
55899W        W28159  13.269  40.490  12.071
55900W        W28160  16.807  29.083   1.227
55901W        W28161  41.349  37.100  10.638
55902W        W28162  20.961  42.737  12.441
55903W        W28163  22.708   7.776   1.933
55904W        W28164  23.427   2.663  14.728
55905W        W28165   0.750   3.730   1.628
55906W        W28166  16.232  24.235   0.438
55907W        W28167  29.038   3.870   0.085
55908W        W28168  27.941  32.958  12.645
55909W        W28169  34.083  22.217   4.507
55910W        W28170  35.595   7.132   3.811
55911W        W28171  19.512   4.139  14.868
55912W        W28172  17.016  38.827  11.113
55913W        W28173   5.469  10.705  10.678
55914W        W28174  44.780   1.818   4.054
55915W        W28175  23.018  21.316   2.786
55916W        W28176   4.407  24.551   0.572
55917W        W28177  33.490  42.731  12.937
55918W        W28178  22.472  32.365  10.099
55919W        W28179  20.630  19.519   0.864
55920W        W28180  20.174   7.333  14.019
55921W        W28181   0.387  17.060  14.307
55922W        W28182  30.911  24.896   1.774
55923W        W28183  12.671  41.610  11.605
55924W        W28184   0.768  11.260  10.478
55925W        W28185  15.391  31.187   2.858
55926W        W28186   8.302  32.340  10.600
55927W        W28187  21.756   2.661   3.623
55928W        W28188  35.070  23.120   3.859
55929W        W28189  35.096  33.095   0.961
55930W        W28190  32.928  24.536   3.354
55931W        W28191  21.330  38.033  14.761
55932W        W28192  11.192  27.377   4.098
55933W        W28193  27.344   5.555  12.060
55934W        W28194  15.238  11.192  12.988
55935W        W28195   0.574  12.632  13.534
55936W        W28196  14.696  21.029  12.159
55937W        W28197  31.798   2.443   3.765
55938W        W28198  11.967   4.137  11.492
55939W        W28199  28.073  18.031   1.415
55940W        W28200  13.515  23.643   2.130
55941W        W28201   2.265  42.577  12.366
55942W        W28202  30.886   5.075   2.810
55943W        W28203  21.099  16.503  11.555
55944W        W28204   4.251  44.907  14.966
55945W        W28205  25.909  25.430   2.415
55946W        W28206  22.529  31.487   1.738
55947W        W28207  14.463  29.971   0.962
55948W        W28208   8.041  43.831  13.554
55949W        W28209  39.532  12.818  13.059
55950W        W28210  19.334  27.857   1.275
55951W        W28211  14.809  41.256   0.874
55952W        W28212  43.392  40.245   1.434
55953W        W28213   3.848  28.448   2.764
55954W        W28214  35.617   0.718   2.267
55955W        W28215  10.372  25.585  11.579
55956W        W28216   2.453  18.352  12.508
55957W        W28217  37.146  40.415   4.659
55958W        W28218  32.444  30.163   4.573
55959W        W28219  10.686  43.837  11.287
55960W        W28220  27.477  17.296  12.365
55961W        W28221  21.057  13.693  14.370
55962W        W28222   7.484  44.015  11.516
55963W        W28223  25.051  22.770   0.383
55964W        W28224   4.750   7.454  11.214
55965W        W28225   5.394  39.520   4.175
55966W        W28226  33.392   8.310  12.795
55967W        W28227  11.694  40.498  12.461
55968W        W28228  44.520  38.850  10.912
55969W        W28229  26.905  26.557   1.948
55970W        W28230   8.418   1.360  11.706
55971W        W28231  20.320  12.614   1.298
55972W        W28232   0.869  39.428  10.961
55973W        W28233  36.867  18.352  14.942
55974W        W28234  40.847  29.945   0.262
55975W        W28235  25.793  21.981   3.622
55976W        W28236  37.334  41.837  14.519
55977W        W28237  24.196  13.867  11.386
55978W        W28238  26.624  28.726  11.502
55979W        W28239  39.767  34.298   0.797
55980W        W28240  37.851  44.734  12.915
55981W        W28241  19.516  27.230  13.398
55982W        W28242  44.422  18.086  13.957
55983W        W28243   3.325  13.798  13.604
55984W        W28244  33.093  14.141   2.898
55985W        W28245  19.942  43.416  10.960
55986W        W28246  19.661  12.622   4.761
55987W        W28247  13.166  16.037  11.315
55988W        W28248  26.083  34.153  14.385
55989W        W28249   9.786  13.493  11.181
55990W        W28250  37.480  39.322   2.556
55991W        W28251  43.210  11.195   2.106
55992W        W28252  21.305  17.317  11.206
55993W        W28253  16.711   1.321  10.685
55994W        W28254  13.672  16.449   3.815
55995W        W28255   0.928   5.055   4.719
55996W        W28256  44.387   7.699  11.984
55997W        W28257  10.553   3.754   0.821
55998W        W28258  22.838  34.805  11.391
55999W        W28259  16.155  34.468   1.901
56000W        W28260  29.377  10.189  12.540
56001W        W28261  23.058  15.519   4.172
56002W        W28262  25.571  27.626   3.399
56003W        W28263   1.786  14.259   5.041
56004W        W28264  27.938  10.226  14.847
56005W        W28265  16.809   6.198  11.593
56006W        W28266  13.291   8.355   3.419
56007W        W28267  20.553  31.352  11.010
56008W        W28268  21.716  30.967  14.634
56009W        W28269  28.453  17.211   0.718
56010W        W28270   3.746  12.791  14.368
56011W        W28271  33.153  10.344  13.311
56012W        W28272   4.467  33.109   4.495
56013W        W28273  31.918  35.079   5.142
56014W        W28274  23.015   4.940  14.497
56015W        W28275  40.656  33.617   3.649
56016W        W28276  10.391  12.313   1.267
56017W        W28277  44.855  23.970  11.126
56018W        W28278  35.536  21.079  12.410
56019W        W28279  41.745  18.456  13.395
56020W        W28280  34.118  18.238   5.050
56021W        W28281  16.558  21.140   3.059
56022W        W28282  43.501  21.149   2.835
56023W        W28283  41.718  31.958  14.894
56024W        W28284  33.390   4.936   1.309
56025W        W28285   6.147  15.836  14.883
56026W        W28286  31.047  24.490   3.176
56027W        W28287  33.110   4.132  10.531
56028W        W28288   3.070  35.406  11.140
56029W        W28289   6.240   0.939   4.031
56030W        W28290  29.074  41.914  14.521
56031W        W28291  30.795  16.777   1.802
56032W        W28292  44.371  43.827   3.071
56033W        W28293  18.513   0.690   1.856
56034W        W28294   8.808  38.780   3.372
56035W        W28295  19.750  42.826  12.953
56036W        W28296  40.301  11.877   4.107
56037W        W28297  22.298  41.593   0.329
56038W        W28298  39.563  41.383  12.095
56039W        W28299  20.500  35.789   1.298
56040W        W28300   4.217   9.148  14.878
56041W        W28301   7.118  15.147   1.776
56042W        W28302   0.330  13.847   4.967
56043W        W28303  13.066  41.723   0.826
56044W        W28304  10.278  44.255  14.627
56045W        W28305  38.905  30.545   4.823
56046W        W28306  21.542  17.368  13.512
56047W        W28307  40.835  26.141   2.263
56048W        W28308  38.878  27.088  13.071
56049W        W28309   6.972   5.817   1.921
56050W        W28310   3.856  18.771   4.737
56051W        W28311  22.402  14.076  14.035
56052W        W28312  11.679  43.274   2.716
56053W        W28313  32.749  30.410   2.708
56054W        W28314   9.179   3.231   1.775
56055W        W28315  18.687  25.759  14.363
56056W        W28316   9.823  25.122  11.981
56057W        W28317  31.678  10.926  10.436
56058W        W28318  17.991  20.053   3.768
56059W        W28319  43.796  15.282   4.535
56060W        W28320   1.458  28.556   0.905
56061W        W28321  37.071  13.010  11.252
56062W        W28322  27.642  41.885  12.968
56063W        W28323  33.188  25.157  12.065
56064W        W28324  18.670  26.311   1.835
56065W        W28325   2.153  38.805   2.873
56066W        W28326  11.838  18.559   2.394
56067W        W28327  36.202  44.515  10.982
56068W        W28328  30.612  40.456   4.508
56069W        W28329  41.396  20.901  11.611
56070W        W28330  11.333  21.573  11.368
56071W        W28331  27.506  41.528  14.775
56072W        W28332  17.480  19.792   0.408
56073W        W28333  39.514  41.460   1.301
56074W        W28334  33.470  39.398  14.778
56075W        W28335  11.553   4.450   2.253
56076W        W28336  27.907  41.395   4.148
56077W        W28337   3.483  27.223   0.328
56078W        W28338  11.272  39.028   2.125
56079W        W28339  26.268  15.323   4.611
56080W        W28340  34.799  34.244  13.030
56081W        W28341  22.233  24.719  10.848
56082W        W28342  42.797  39.840  12.871
56083W        W28343  33.349  39.947  13.530
56084W        W28344  18.711  37.897  11.202
56085W        W28345  37.319  14.816  14.533
56086W        W28346  23.086  41.986  11.404
56087W        W28347  23.248  40.110   9.971
56088W        W28348  23.216  42.406   3.642
56089W        W28349  40.883  18.549  10.612
56090W        W28350  38.905   8.057   3.361
56091W        W28351  41.051  41.893   0.635
56092W        W28352  36.846  43.345  13.405
56093W        W28353  31.545  27.689   3.032
56094W        W28354  14.862  32.086  13.862
56095W        W28355  16.308  39.602  11.160
56096W        W28356   2.011  37.945  13.514
56097W        W28357  13.982  21.892   1.235
56098W        W28358   1.279  36.458   4.740
56099W        W28359  19.622  33.817  12.657
56100W        W28360  12.536  44.247  12.914
56101W        W28361   7.391   0.719  13.025
56102W        W28362  44.937  10.627   2.214
56103W        W28363  18.050  38.417   3.628
56104W        W28364   3.320  42.443   3.398
56105W        W28365  37.176  11.313  10.546
56106W        W28366  17.852  11.654   0.867
56107W        W28367   6.800  18.234   2.326
56108W        W28368  42.402  12.894   0.820
56109W        W28369  15.227  16.380   4.874
56110W        W28370   8.983  38.140  12.893
56111W        W28371   4.308  36.875   4.118
56112W        W28372  21.946  40.660   3.368
56113W        W28373  22.040  15.506   3.590
56114W        W28374  28.017   1.705   1.759
56115W        W28375  42.700  32.964  14.202
56116W        W28376   2.178  18.102   4.476
56117W        W28377  16.803  36.138   4.537
56118W        W28378  41.505   5.644  10.730
56119W        W28379  13.279   7.184  13.895
56120W        W28380   6.223  44.280   2.342
56121W        W28381   7.642  21.108  10.616
56122W        W28382  18.117  14.174  14.860
56123W        W28383  22.166  11.293   0.487
56124W        W28384  31.921  43.928  12.914
56125W        W28385   6.317  27.514  10.862
56126W        W28386  11.761   8.337   4.742
56127W        W28387   5.585  16.879   3.128
56128W        W28388  16.357  40.321  10.803
56129W        W28389  13.665  24.441   0.574
56130W        W28390  40.415  35.638   0.442
56131W        W28391  16.463  33.701  11.909
56132W        W28392  44.976   9.980   0.339
56133W        W28393  30.076   7.907   1.320
56134W        W28394  27.964  37.084  14.436
56135W        W28395  37.876  31.947  13.398
56136W        W28396  34.610  18.388   3.248
56137W        W28397  25.933  22.753  14.388
56138W        W28398  15.069   0.619  12.117
56139W        W28399  40.995  15.717   2.849
56140W        W28400  29.292  28.239   3.444
56141W        W28401   8.548  30.678  12.777
56142W        W28402  28.142  36.780   3.730
56143W        W28403  11.695  29.201   1.843
56144W        W28404  39.771  18.604  12.170
56145W        W28405  15.556  24.700   0.696
56146W        W28406  41.882  17.509  14.398
56147W        W28407   4.849  25.943  12.949
56148W        W28408  42.216  23.562  10.359
56149W        W28409  27.288  18.755  12.524
56150W        W28410  17.376  38.432  11.037
56151W        W28411  36.988  16.042  10.764
56152W        W28412   8.454  38.183   0.852
56153W        W28413   1.361  35.310   2.715
56154W        W28414  39.371  15.843  14.327
56155W        W28415   1.333  18.148   2.458
56156W        W28416  14.068   5.478  10.587
56157W        W28417  31.501  14.807  10.820
56158W        W28418   6.763  39.825  12.106
56159W        W28419  17.248  15.365  14.929
56160W        W28420  23.137   8.812  14.233
56161W        W28421  43.480   1.944   4.558
56162W        W28422   4.243  14.729   2.116
56163W        W28423   8.180   2.282  12.541
56164W        W28424   1.034   7.191   4.106
56165W        W28425  42.253   8.369   4.430
56166W        W28426  36.575  34.576   3.204
56167W        W28427  43.897  25.010   2.352
56168W        W28428   5.123  37.521  14.338
56169W        W28429  18.175  32.641  11.597
56170W        W28430  24.939  18.305  12.624
56171W        W28431  20.770  31.459  11.465
56172W        W28432  19.416  30.310  10.510
56173W        W28433  21.059  39.482   5.195
56174W        W28434   9.780  35.395  13.589
56175W        W28435  19.255   9.553   0.218
56176W        W28436   9.073  18.134  11.637
56177W        W28437   8.312  38.541   3.238
56178W        W28438  14.073  32.730  14.184
56179W        W28439   6.589  34.372   1.477
56180W        W28440   8.196  26.042  11.246
56181W        W28441  25.999  22.129  12.305
56182W        W28442   1.998  35.468   0.336
56183W        W28443   5.798   7.131  12.959
56184W        W28444  19.816  39.861   2.681
56185W        W28445  22.189  31.031  10.926
56186W        W28446  18.598  27.465  12.796
56187W        W28447  34.675   0.736   3.199
56188W        W28448  25.790  44.815   2.062
56189W        W28449  14.079   5.693   1.289
56190W        W28450  28.505  39.157  13.541
56191W        W28451  11.319   6.355   0.990
56192W        W28452  37.569   8.116  12.732
56193W        W28453  17.336  13.435  13.444
56194W        W28454  25.073  22.310  10.528
56195W        W28455  30.943  21.435  13.082
56196W        W28456  31.678  25.694  13.355
56197W        W28457   1.141   8.740   2.439
56198W        W28458   0.842   7.979   3.687
56199W        W28459  29.185  19.200  14.377
56200W        W28460  37.326   5.083   0.173
56201W        W28461  19.024   8.054  12.919
56202W        W28462  31.593  37.066  14.856
56203W        W28463  20.339   5.744  11.992
56204W        W28464  27.250  24.060  10.446
56205W        W28465  12.109   1.714   2.678
56206W        W28466   9.345  40.183   4.364
56207W        W28467  29.587  24.548  13.360
56208W        W28468  43.771  21.110  13.851
56209W        W28469  37.503  28.550   0.855
56210W        W28470  35.061  19.319  10.986
56211W        W28471  26.033  36.898  11.663
56212W        W28472   4.672   4.665  10.396
56213W        W28473  40.033  13.079   2.789
56214W        W28474  25.623  26.117  13.766
56215W        W28475  40.289  21.007   0.296
56216W        W28476  21.345  31.381   2.389
56217W        W28477  32.022  27.162  14.037
56218W        W28478  44.511  38.893   1.331
56219W        W28479   5.798  42.704  12.101
56220W        W28480  28.703  36.516  12.828
56221W        W28481  15.541  41.215   4.125
56222W        W28482  25.051  25.391  12.135
56223W        W28483  34.202  27.441  10.522
56224W        W28484  23.568  33.675  14.227
56225W        W28485  36.072  35.568  11.767
56226W        W28486  33.342   9.013  14.888
56227W        W28487   2.849  14.850   0.269
56228W        W28488  11.131  38.827   3.681
56229W        W28489  22.036  12.677  13.934
56230W        W28490  30.325  42.977   3.141
56231W        W28491   0.508  11.908  11.604
56232W        W28492  25.876  42.581   9.639
56233W        W28493  34.570  35.987  13.324
56234W        W28494  18.822  20.120  10.730
56235W        W28495  37.105  24.291  13.650
56236W        W28496  24.513  27.541   4.820
56237W        W28497  10.093  10.402   3.392
56238W        W28498   5.662  23.134  12.596
56239W        W28499  29.944  38.133   3.602
56240W        W28500  42.683  30.578  11.729
56241W        W28501   8.667  19.917   3.578
56242W        W28502  32.575  32.866  12.063
56243W        W28503  37.276  22.681  14.779
56244W        W28504  27.662   5.920  10.998
56245W        W28505   3.354   4.361  13.902
56246W        W28506   3.383  39.286  12.873
56247W        W28507  12.839  27.330  10.936
56248W        W28508  28.918  28.474   3.700
56249W        W28509  40.733  25.379   0.891
56250W        W28510  12.679  40.234   0.291
56251W        W28511  11.641   3.630  11.602
56252W        W28512  24.457  19.426   3.093
56253W        W28513  37.590  20.108   3.761
56254W        W28514  18.554   4.272  14.836
56255W        W28515  27.128   9.019   5.080
56256W        W28516  29.703  31.816  11.021
56257W        W28517  11.480  38.495   3.957
56258W        W28518   2.453  20.880   4.803
56259W        W28519  31.004  25.742  13.907
56260W        W28520  40.544  35.935  12.860
56261W        W28521  38.790  28.746  14.497
56262W        W28522  34.700  13.793   2.167
56263W        W28523  17.446   0.447   0.364
56264W        W28524  18.182  29.071   4.214
56265W        W28525  38.666  29.744   0.440
56266W        W28526  37.622  41.903  14.964
56267W        W28527   2.924  42.821   1.253
56268W        W28528  38.306  20.133  14.487
56269W        W28529  19.346  32.891   0.389
56270W        W28530   7.666  13.083   4.118
56271W        W28531  20.677  30.129  12.588
56272W        W28532   8.333  39.913   2.683
56273W        W28533   2.839   5.636   0.266
56274W        W28534  33.919  22.565   3.610
56275W        W28535  23.957  35.132  14.564
56276W        W28536  42.812  25.770   0.820
56277W        W28537  42.537  33.482   4.104
56278W        W28538  21.106  24.723   1.811
56279W        W28539  36.834  32.503  10.869
56280W        W28540  14.607   6.117  14.973
56281W        W28541  30.087   4.479   3.520
56282W        W28542  10.196   5.655  10.997
56283W        W28543  29.723  29.945  10.642
56284W        W28544  24.982  17.768   2.801
56285W        W28545  26.278   5.812  10.697
56286W        W28546   4.268  32.897   1.923
56287W        W28547  22.448  16.319  14.263
56288W        W28548  11.204  22.148  14.746
56289W        W28549   0.955  41.049   2.741
56290W        W28550  19.117  20.484   3.664
56291W        W28551  14.713  29.855  12.427
56292W        W28552  24.004  41.307   2.669
56293W        W28553  24.842   2.298   4.537
56294W        W28554   1.157   2.214   4.252
56295W        W28555  20.020  33.279   2.803
56296W        W28556  28.746   5.348  12.695
56297W        W28557  44.594   2.995   4.165
56298W        W28558  44.336  13.763   0.800
56299W        W28559   9.206   7.597   2.646
56300W        W28560  24.438  22.272  13.807
56301W        W28561  20.773  36.972  13.073
56302W        W28562  18.265  44.900   3.002
56303W        W28563   3.508  28.016   0.793
56304W        W28564  41.994   1.921  14.917
56305W        W28565   8.601  29.217   2.031
56306W        W28566  32.147   7.625  13.479
56307W        W28567  28.242  33.080   1.158
56308W        W28568  32.055  39.351   3.217
56309W        W28569  28.480  18.465  14.854
56310W        W28570  25.466  32.424  10.697
56311W        W28571  44.427  29.045   0.278
56312W        W28572  10.813  23.092   0.637
56313W        W28573  20.669  18.778  12.706
56314W        W28574  24.716  21.976  12.486
56315W        W28575   2.285  26.746  14.432
56316W        W28576  30.880  15.756   2.437
56317W        W28577  29.501  32.917   4.706
56318W        W28578  29.850  33.127  11.463
56319W        W28579  27.939  38.121  12.173
56320W        W28580  23.933   0.879   3.896
56321W        W28581  27.587  18.647  11.167
56322W        W28582  14.274   0.270   1.552
56323W        W28583   4.435  41.894  12.812
56324W        W28584   6.428  28.444  14.319
56325W        W28585   1.080  40.345   3.008
56326W        W28586  24.920  19.796  11.062
56327W        W28587   6.316  18.626   2.714
56328W        W28588  44.770  24.924   2.777
56329W        W28589  19.619  27.553   1.676
56330W        W28590  41.057   3.359   2.235
56331W        W28591  37.929  27.556   2.702
56332W        W28592  22.565  43.368   2.292
56333W        W28593  38.493   3.421   2.230
56334W        W28594  14.349  13.504  13.942
56335W        W28595   9.856  16.744   4.220
56336W        W28596  23.131   7.927  13.880
56337W        W28597  13.033   1.066   4.896
56338W        W28598  27.722  40.440  13.353
56339W        W28599  24.151  32.640   1.737
56340W        W28600  11.071   2.602  12.852
56341W        W28601  38.543  20.694  10.905
56342W        W28602  21.808  17.122   0.764
56343W        W28603  42.998   4.255  12.087
56344W        W28604  39.002  27.810  12.391
56345W        W28605  25.740  16.712   1.832
56346W        W28606  44.037   6.377   0.389
56347W        W28607   9.032  27.650  14.880
56348W        W28608  43.362  18.301  13.800
56349W        W28609   2.560  40.464  11.488
56350W        W28610   6.502   2.290   1.838
56351W        W28611  31.874  24.516   3.626
56352W        W28612  37.115   4.698  12.999
56353W        W28613  33.161  35.481   1.140
56354W        W28614  26.452  40.760   1.168
56355W        W28615  23.195  12.735   1.448
56356W        W28616  32.276  20.689  10.732
56357W        W28617  44.748  33.787   0.417
56358W        W28618  42.881   1.798   3.402
56359W        W28619   8.770  19.007   5.053
56360W        W28620   0.160  24.708  11.645
56361W        W28621  27.435  44.915  13.961
56362W        W28622  16.241  15.681   1.412
56363W        W28623  12.807  44.416   2.588
56364W        W28624  25.012   3.773  10.731
56365W        W28625   9.579  43.406   1.643
56366W        W28626  29.651   3.129   0.101
56367W        W28627   4.462   4.470  11.074
56368W        W28628  36.649  10.238   4.998
56369W        W28629  43.168  32.683   0.011
56370W        W28630   5.321  25.100  13.830
56371W        W28631  39.964  21.360   2.997
56372W        W28632  29.872   7.666   3.120
56373W        W28633   6.216  35.534   2.093
56374W        W28634  11.984   4.911   1.278
56375W        W28635  32.386  15.499  14.677
56376W        W28636  21.900  14.636  10.733
56377W        W28637  28.604  24.515  11.085
56378W        W28638   5.143   1.406   3.231
56379W        W28639  14.199  27.852   2.687
56380W        W28640  31.574  22.135  12.681
56381W        W28641   4.996  34.363  11.932
56382W        W28642  31.099  17.407  12.971
56383W        W28643  26.996  16.083   0.482
56384W        W28644   5.059  15.806   3.622
56385W        W28645  17.387  23.471  13.816
56386W        W28646  38.554  18.066  10.607
56387W        W28647  15.242  23.735   2.881
56388W        W28648  15.860  36.351  13.008
56389W        W28649   1.054  42.960  14.890
56390W        W28650  17.250  42.377  14.000
56391W        W28651  14.096  37.598   0.830
56392W        W28652  32.496   0.522   0.690
56393W        W28653  19.703  17.226   1.400
56394W        W28654   6.467  37.821  11.431
56395W        W28655  36.815  19.099   4.103
56396W        W28656  27.453  41.316   5.046
56397W        W28657  30.177  44.396  13.523
56398W        W28658  35.276  30.432  11.226
56399W        W28659   3.319  23.139  13.338
56400W        W28660  41.535   0.381  14.051
56401W        W28661   1.676  16.266  11.394
56402W        W28662  10.699  42.981  12.728
56403W        W28663  14.115   8.096  11.040
56404W        W28664  23.252   7.858  12.553
56405W        W28665  20.570  15.806   4.115
56406W        W28666  10.303  11.747  13.913
56407W        W28667   8.788  15.713  12.277
56408W        W28668  39.191  38.930   3.275
56409W        W28669  14.044   8.782   3.124
56410W        W28670  32.333  24.760  10.257
56411W        W28671  40.232  26.616  14.572
56412W        W28672   2.249  35.812  11.517
56413W        W28673  19.756  29.086  12.393
56414W        W28674  26.138  15.740   3.989
56415W        W28675  29.668  15.748  13.116
56416W        W28676  25.907  26.479  13.504
56417W        W28677   2.778  20.376   4.110
56418W        W28678  26.949  13.885   2.240
56419W        W28679  16.855  25.236  12.557
56420W        W28680  37.139  13.737   0.792
56421W        W28681  14.701   0.364  14.399
56422W        W28682  39.740   2.275   3.755
56423W        W28683   3.411  30.357   0.624
56424W        W28684  22.209  29.301  13.353
56425W        W28685  32.957  20.664  14.020
56426W        W28686  31.500  22.673   2.343
56427W        W28687  37.762  33.755  13.883
56428W        W28688  42.975  44.360   2.756
56429W        W28689  25.686  29.721   2.736
56430W        W28690  26.445  11.067  11.133
56431W        W28691  32.641  34.921  11.132
56432W        W28692   2.185  43.699   4.024
56433W        W28693  30.151  41.817  13.357
56434W        W28694   0.968  19.134   4.802
56435W        W28695  37.989   4.687   1.912
56436W        W28696  18.942   1.602   3.029
56437W        W28697  12.022  33.002  14.866
56438W        W28698   6.927  39.470  14.615
56439W        W28699  40.536   8.763  12.446
56440W        W28700  38.108  29.583   2.196
56441W        W28701  24.007  11.779   1.323
56442W        W28702   8.640  21.505  10.460
56443W        W28703  20.126  18.730   4.878
56444W        W28704  38.100  33.884  12.993
56445W        W28705  22.009  33.596  14.938
56446W        W28706  35.974  14.283  13.372
56447W        W28707  29.108  44.549  10.619
56448W        W28708  40.954   3.794   3.970
56449W        W28709  40.115  27.168  13.890
56450W        W28710  19.354  24.887   4.168
56451W        W28711  39.799  33.424   0.257
56452W        W28712  16.082  26.562   3.392
56453W        W28713   1.048  13.640   2.696
56454W        W28714  32.432   1.814  13.320
56455W        W28715  30.589   9.381  13.581
56456W        W28716   7.659   3.204  10.829
56457W        W28717  40.356  27.367   3.844
56458W        W28718   6.053   0.467  10.738
56459W        W28719  25.670  23.807  11.286
56460W        W28720   6.424   4.866  14.358
56461W        W28721  33.802  25.454  11.480
56462W        W28722  26.398  30.871  11.136
56463W        W28723   6.964  20.731   3.247
56464W        W28724  21.377  18.577  12.044
56465W        W28725  40.073  40.742   3.242
56466W        W28726  26.966  25.351  14.987
56467W        W28727  16.751   7.692  13.572
56468W        W28728  40.554  42.990  14.765
56469W        W28729  21.659  20.151   1.971
56470W        W28730  16.338  39.704   2.730
56471W        W28731  17.351  16.739   4.317
56472W        W28732   5.893  15.267   1.108
56473W        W28733   2.181  19.798  11.618
56474W        W28734  37.353  15.875   1.535
56475W        W28735  24.356  37.921  12.102
56476W        W28736   3.414  22.411  11.141
56477W        W28737  13.050  31.018   4.370
56478W        W28738  28.251  25.666  12.861
56479W        W28739  41.018  23.998   3.362
56480W        W28740   4.752   9.208   2.144
56481W        W28741   4.981   3.174  14.825
56482W        W28742   1.223  36.940   3.079
56483W        W28743  21.606  14.559  14.462
56484W        W28744  36.734  30.225  10.909
56485W        W28745  17.556  23.718  11.884
56486W        W28746   7.469  23.965   1.297
56487W        W28747  18.557  10.496  13.024
56488W        W28748  34.051   9.100  13.057
56489W        W28749   1.673  38.962   2.774
56490W        W28750  27.434  22.597   2.286
56491W        W28751  10.626   3.750   4.402
56492W        W28752   1.761  33.814   3.646
56493W        W28753   4.288  44.051   1.853
56494W        W28754  34.443  31.520  12.158
56495W        W28755  10.339   2.197  14.856
56496W        W28756  42.575  35.123   2.727
56497W        W28757  31.950   5.483   3.574
56498W        W28758   2.833  29.850   2.597
56499W        W28759  19.058  29.479  13.789
56500W        W28760  20.944  18.713   1.882
56501W        W28761  36.660  26.133   3.701
56502W        W28762  32.592   2.906   0.413
56503W        W28763  22.247  37.829  10.879
56504W        W28764  23.516   2.654   4.231
56505W        W28765  24.081  22.598  14.553
56506W        W28766  10.640  15.303   2.357
56507W        W28767  41.277  24.181  14.443
56508W        W28768  43.536  24.743   1.712
56509W        W28769  34.022  17.161   2.384
56510W        W28770  16.719  21.079  11.107
56511W        W28771  20.502  26.288   3.198
56512W        W28772   2.719  31.713  13.886
56513W        W28773  22.587  34.320  13.469
56514W        W28774  43.379  38.322  14.814
56515W        W28775  34.210  31.153  11.514
56516W        W28776  15.685   2.200   1.922
56517W        W28777  28.978   5.727   1.044
56518W        W28778  11.499  34.043  11.928
56519W        W28779  37.001   8.885   2.644
56520W        W28780  39.887  38.326   2.215
56521W        W28781  17.292  41.368   0.729
56522W        W28782   5.507  30.208   4.068
56523W        W28783  33.064   3.165   0.506
56524W        W28784   6.376  38.287   1.889
56525W        W28785   0.684  32.912  11.506
56526W        W28786  15.628  36.864  11.943
56527W        W28787  29.870  22.203   3.137
56528W        W28788   0.167  29.430  14.986
56529W        W28789  30.385  20.734   4.070
56530W        W28790  13.697  14.414   0.672
56531W        W28791  43.301  42.742  12.612
56532W        W28792  34.713  44.444  13.422
56533W        W28793   3.652  30.535   1.552
56534W        W28794  17.709   7.117  13.577
56535W        W28795   9.830  24.258  11.276
56536W        W28796  13.268   2.914   1.707
56537W        W28797  16.278  16.184  12.544
56538W        W28798  14.251  31.808  14.511
56539W        W28799  44.012   7.368   4.109
56540W        W28800   9.400  10.038  12.992
56541W        W28801  27.462  34.553  11.481
56542W        W28802  16.902  39.654   5.051
56543W        W28803  20.489  17.175  12.082
56544W        W28804   4.586  36.443   4.142
56545W        W28805  24.051  41.738   0.277
56546W        W28806  32.419   3.929   0.370
56547W        W28807  31.855  35.656   3.797
56548W        W28808  33.993  11.334   0.814
56549W        W28809  38.881   5.954   1.777
56550W        W28810   7.625  33.058  11.564
56551W        W28811  20.104  18.113  11.955
56552W        W28812  31.911  44.500   4.087
56553W        W28813  18.999  12.598   1.788
56554W        W28814  15.548  21.112   3.182
56555W        W28815  34.064  15.126  10.322
56556W        W28816   3.781  36.853   4.235
56557W        W28817   2.358   8.000   2.543
56558W        W28818   8.652   0.376  11.374
56559W        W28819  27.975  26.941   4.444
56560W        W28820  10.827  21.897  14.469
56561W        W28821  41.428  18.304  10.762
56562W        W28822  42.674  23.256  10.621
56563W        W28823  28.505  37.733   0.052
56564W        W28824  43.335  36.353  11.265
56565W        W28825  11.705  44.891   0.203
56566W        W28826  30.210  10.898  10.975
56567W        W28827  11.689   1.307  13.851
56568W        W28828  35.795  36.646  14.408
56569W        W28829  39.492  28.427   2.937
56570W        W28830   0.794  28.082   1.247
56571W        W28831  32.456  11.726  11.314
56572W        W28832  44.659  44.093  11.236
56573W        W28833  30.583   7.327  14.841
56574W        W28834  22.097  22.711   2.754
56575W        W28835  20.215   5.257  10.633
56576W        W28836  14.670  35.377   1.487
56577W        W28837  10.939  29.361  13.437
56578W        W28838  14.014  39.979  11.971
56579W        W28839   0.777  33.825  13.005
56580W        W28840   4.691  24.643  13.361
56581W        W28841  31.599  14.368  14.762
56582W        W28842  37.146  17.019   3.245
56583W        W28843  40.807  44.991   4.352
56584W        W28844  44.595  13.745   4.344
56585W        W28845  20.517  35.775   3.710
56586W        W28846   9.461  28.482  10.756
56587W        W28847  27.949  14.266   1.420
56588W        W28848  44.822   6.932  12.830
56589W        W28849   8.310  17.334  13.689
56590W        W28850   8.619   8.869  14.934
56591W        W28851  29.029   1.544  11.736
56592W        W28852  37.873  43.184   3.787
56593W        W28853   7.113  17.329  12.500
56594W        W28854  26.928  27.077   4.917
56595W        W28855   4.125  25.954  12.489
56596W        W28856  16.807  31.466  14.306
56597W        W28857   7.149   3.886  13.395
56598W        W28858  28.642  10.700  12.856
56599W        W28859  21.517  44.263  11.461
56600W        W28860  42.403  30.029   4.260
56601W        W28861  21.573  10.706   4.594
56602W        W28862   0.886  18.608   4.514
56603W        W28863  24.592  32.947  14.817
56604W        W28864  29.116  44.009  10.687
56605W        W28865  12.555  17.265   0.413
56606W        W28866   8.168  11.084   0.828
56607W        W28867  22.295  17.032  13.849
56608W        W28868   3.606   9.277   1.097
56609W        W28869  25.845  17.526   1.373
56610W        W28870  44.428  11.081   1.942
56611W        W28871  24.142  20.031  14.712
56612W        W28872   6.094  43.839   0.300
56613W        W28873  35.860  14.641  11.978
56614W        W28874   2.231  11.414  13.704
56615W        W28875   0.885  43.238   4.550
56616W        W28876  28.438  40.778  10.427
56617W        W28877  25.584  35.146   1.793
56618W        W28878  26.391   2.336   4.201
56619W        W28879  38.856   7.230   5.482
56620W        W28880  41.856  12.612  14.401
56621W        W28881  11.023   2.889   3.256
56622W        W28882   5.152  32.172   4.206
56623W        W28883  14.557  22.479   2.676
56624W        W28884   0.244  18.200  13.370
56625W        W28885  31.116  34.879   2.812
56626W        W28886  42.579  25.747   4.182
56627W        W28887  16.326  39.943  11.578
56628W        W28888  42.029  36.489  14.957
56629W        W28889  12.408  24.015   0.499
56630W        W28890  28.960  23.417   4.025
56631W        W28891  18.066  25.481  11.956
56632W        W28892  15.375  39.881  13.324
56633W        W28893   5.880   4.843   3.230
56634W        W28894  39.617  24.301  13.277
56635W        W28895  42.758  32.097  11.552
56636W        W28896  14.868   5.729   2.982
56637W        W28897  37.991  20.197   4.735
56638W        W28898  44.333   2.326   1.452
56639W        W28899  37.451  30.001   4.045
56640W        W28900  42.373  38.362  11.836
56641W        W28901  22.500  11.546  11.768
56642W        W28902  24.067  19.065  10.403
56643W        W28903  27.591  36.390   0.541
56644W        W28904  38.229   0.443   0.320
56645W        W28905   6.372  30.662   0.711
56646W        W28906  42.354  39.546   4.592
56647W        W28907   0.778   8.868  13.612
56648W        W28908  16.287  36.869   2.385
56649W        W28909  35.239  33.558   2.220
56650W        W28910  13.684   7.782   3.272
56651W        W28911  40.910  23.804   4.422
56652W        W28912  21.307  11.828  10.557
56653W        W28913   9.374   5.770   2.779
56654W        W28914  39.030  26.118  10.549
56655W        W28915  43.853  21.120  14.889
56656W        W28916  11.109   8.621  13.049
56657W        W28917   4.230  26.907  10.647
56658W        W28918  42.801  21.086   2.321
56659W        W28919   0.626  19.500   3.395
56660W        W28920  26.155  16.755  14.383
56661W        W28921  30.122  32.238   5.593
56662W        W28922  11.332  40.574   0.733
56663W        W28923  10.154  15.853  12.842
56664W        W28924  26.382  42.332  10.436
56665W        W28925  40.197  30.016   3.781
56666W        W28926  30.018  44.798   3.305
56667W        W28927  17.534  23.440  12.650
56668W        W28928  41.913  12.399   4.217
56669W        W28929   4.178   6.274   2.987
56670W        W28930  28.949  42.210   0.439
56671W        W28931  35.165  12.204   4.073
56672W        W28932  26.875  31.575  11.644
56673W        W28933  23.981  19.029   1.195
56674W        W28934  44.505  16.467   3.286
56675W        W28935  42.222  26.755  13.472
56676W        W28936  37.783  38.800  11.255
56677W        W28937  27.196  31.871   4.589
56678W        W28938  40.260  33.041  11.017
56679W        W28939  11.316  36.101  11.052
56680W        W28940   1.003  32.548  11.640
56681W        W28941  22.017  34.749   3.217
56682W        W28942  11.026  28.709  12.576
56683W        W28943  25.479   2.660   3.578
56684W        W28944  36.656  32.160  12.165
56685W        W28945  39.771   2.297   2.340
56686W        W28946  34.130   0.954  10.127
56687W        W28947  23.191  16.600  13.761
56688W        W28948  19.166  34.690   4.476
56689W        W28949  23.619   7.751  14.006
56690W        W28950  25.155  37.383   4.044
56691W        W28951  43.768  37.087  12.983
56692W        W28952  11.251   3.367   0.876
56693W        W28953   7.361  36.119  11.131
56694W        W28954   8.442  21.189   1.636
56695W        W28955  25.150   1.760   3.856
56696W        W28956   9.567   3.959   2.799
56697W        W28957  30.010  43.403   2.104
56698W        W28958  24.026   2.744   4.270
56699W        W28959  22.337  43.961   0.538
56700W        W28960  21.280   2.320  11.117
56701W        W28961  38.297  20.760  12.458
56702W        W28962  31.360   7.315   0.396
56703W        W28963   7.900  24.690  13.563
56704W        W28964  24.469   8.411   2.303
56705W        W28965  36.088  10.689   1.830
56706W        W28966   8.113  37.949  12.057
56707W        W28967  40.073  11.738   2.073
56708W        W28968   1.690  14.733   1.833
56709W        W28969  12.583  10.706  11.826
56710W        W28970  36.629  35.162  13.560
56711W        W28971   8.862  20.895  13.049
56712W        W28972  15.736   3.605   3.375
56713W        W28973  25.137   3.482   2.038
56714W        W28974  21.453  43.745   4.540
56715W        W28975   9.853  39.783  14.766
56716W        W28976   3.200  36.992   4.540
56717W        W28977  27.153   2.767   1.905
56718W        W28978  16.158  31.535  11.455
56719W        W28979   9.740   3.439   4.803
56720W        W28980  11.973  27.306  10.755
56721W        W28981  28.568  20.235   4.482
56722W        W28982   6.899  27.524   3.270
56723W        W28983  35.579  24.560   4.441
56724W        W28984  14.405  14.494   3.782
56725W        W28985  42.413  43.538   4.626
56726W        W28986  16.597  34.877  13.409
56727W        W28987  14.642  24.036   4.888
56728W        W28988  40.397  44.857   4.071
56729W        W28989   2.672  34.893  12.906
56730W        W28990  31.953  42.262  12.145
56731W        W28991  11.529  27.707  14.505
56732W        W28992  28.404  18.834  11.834
56733W        W28993  18.205  39.012  11.617
56734W        W28994  33.694  35.978   0.572
56735W        W28995  32.911   4.508   4.164
56736W        W28996  14.705  24.900   0.795
56737W        W28997  32.729   2.848  12.548
56738W        W28998   3.633  17.280   5.079
56739W        W28999   3.414  38.047  11.150
56740W        W29000   9.307   6.678   2.874
56741W        W29001  18.576  44.457   1.138
56742W        W29002  30.691   2.183   1.463
56743W        W29003  43.954   1.775  13.761
56744W        W29004  17.326  20.811   4.830
56745W        W29005   5.136  29.068  13.047
56746W        W29006   5.185  22.342  10.432
56747W        W29007  38.221  37.495   0.719
56748W        W29008  34.168  41.781  12.328
56749W        W29009  30.169  34.292  14.851
56750W        W29010  39.928   2.988   1.930
56751W        W29011  16.084  34.043  14.828
56752W        W29012  21.719  40.187   1.907
56753W        W29013  36.406   0.853   1.336
56754W        W29014  30.607  43.956   1.173
56755W        W29015  12.256   1.844  14.304
56756W        W29016  30.830  36.059   1.627
56757W        W29017  18.699  12.062  13.852
56758W        W29018  38.441  39.630   2.395
56759W        W29019   6.431  13.575  12.350
56760W        W29020   6.524  19.182  14.471
56761W        W29021  35.875  14.729   2.864
56762W        W29022  33.433  43.827   2.592
56763W        W29023  42.357  41.707   0.215
56764W        W29024   5.215  25.630  10.903
56765W        W29025  42.041  40.349   0.573
56766W        W29026   6.901  11.834   1.718
56767W        W29027   3.282  36.418   2.161
56768W        W29028  35.876  20.623   1.307
56769W        W29029  21.471  28.938  13.315
56770W        W29030  21.714  25.136   2.076
56771W        W29031  30.113  17.785  11.970
56772W        W29032  31.385   9.844  13.357
56773W        W29033  44.981  16.815  10.782
56774W        W29034  33.531   8.306   3.620
56775W        W29035  20.546   8.851  14.384
56776W        W29036  37.662  37.384   4.648
56777W        W29037  18.173  31.424   4.767
56778W        W29038  36.400  19.142   0.016
56779W        W29039  23.044   2.957  10.314
56780W        W29040  17.656  15.235  14.042
56781W        W29041  13.518   2.980  14.353
56782W        W29042  29.468  20.599  13.940
56783W        W29043  14.149  36.554  11.951
56784W        W29044  38.161   5.507   4.714
56785W        W29045   8.151  32.478  11.078
56786W        W29046  26.488   1.097  13.309
56787W        W29047  34.938  29.379  10.419
56788W        W29048  16.784  31.839  12.940
56789W        W29049  30.016   7.453  10.665
56790W        W29050  31.443   0.446   0.744
56791W        W29051  11.654  27.698  10.871
56792W        W29052  43.351  21.955   4.545
56793W        W29053  42.369  28.923  11.143
56794W        W29054  31.414  14.838  13.443
56795W        W29055  41.036   1.797  14.664
56796W        W29056   4.959  38.204  11.481
56797W        W29057  29.017  14.256  13.292
56798W        W29058  26.506   5.824  12.584
56799W        W29059   5.115  20.219  14.986
56800W        W29060  13.191  17.748   1.755
56801W        W29061   4.662  25.314   0.738
56802W        W29062  26.000   8.162  14.970
56803W        W29063  32.754  10.490  11.095
56804W        W29064  26.112   4.456  10.649
56805W        W29065  15.513  21.718  14.530
56806W        W29066  16.749  30.133  14.219
56807W        W29067  42.986  16.701  11.562
56808W        W29068  16.027  44.280  12.707
56809W        W29069  38.417  17.294   0.904
56810W        W29070   8.970   5.437  11.133
56811W        W29071  42.677   8.776   0.803
56812W        W29072   2.165   3.381  11.108
56813W        W29073   1.414  42.380   4.689
56814W        W29074  27.527  26.699  11.531
56815W        W29075  30.071   6.858   4.235
56816W        W29076  19.544  28.552  11.658
56817W        W29077  29.115  42.255  14.933
56818W        W29078   5.874  28.196  14.355
56819W        W29079  39.092  17.170   5.060
56820W        W29080   0.454  10.201   0.514
56821W        W29081   7.343  20.839   0.957
56822W        W29082  12.304  31.537   1.849
56823W        W29083  14.299  29.425   4.513
56824W        W29084   3.257   0.244   3.606
56825W        W29085  32.990  33.578   3.676
56826W        W29086  38.845   6.937  14.356
56827W        W29087  39.477  12.380  11.642
56828W        W29088  28.499  31.553  11.457
56829W        W29089  39.095  11.674   3.303
56830W        W29090  26.575  17.100   1.502
56831W        W29091   2.317   9.949  13.927
56832W        W29092  10.215  24.528   5.020
56833W        W29093  19.506  36.143   4.367
56834W        W29094   9.022   6.713  12.331
56835W        W29095  41.809  12.733  10.303
56836W        W29096   6.518  36.473  14.158
56837W        W29097  20.678  40.092   1.738
56838W        W29098  23.123   4.704   0.918
56839W        W29099  37.509   5.965   0.953
56840W        W29100  42.850  10.098  14.340
56841W        W29101   1.157   2.406  14.392
56842W        W29102  35.132   4.465   2.815
56843W        W29103  10.528   3.836  11.538
56844W        W29104   0.126  33.838  12.491
56845W        W29105   7.894  40.800   0.261
56846W        W29106   4.458  28.615   4.028
56847W        W29107  33.996  21.967  10.718
56848W        W29108  41.297  11.899   3.857
56849W        W29109  44.459   0.615  11.551
56850W        W29110  21.633  33.899   1.284
56851W        W29111  30.176  22.062  10.600
56852W        W29112  44.365  29.872   0.333
56853W        W29113  25.825   3.757   2.173
56854W        W29114  34.899  39.026  10.186
56855W        W29115  23.122  39.463  13.436
56856W        W29116   0.215  31.025   0.860
56857W        W29117  14.546  25.680  13.928
56858W        W29118   6.791  33.129  14.739
56859W        W29119  28.192  31.550  14.244
56860W        W29120  30.099  15.741  12.774
56861W        W29121  24.112  21.652   3.744
56862W        W29122   3.398  35.362  14.482
56863W        W29123   3.406   6.268   5.115
56864W        W29124  31.982   3.639   0.338
56865W        W29125  41.062  24.949   0.880
56866W        W29126  19.298  44.049  10.710
56867W        W29127  31.777  41.015  11.574
56868W        W29128  23.064   9.365   4.068
56869W        W29129   9.785   1.721  13.914
56870W        W29130  31.461  31.145  10.670
56871W        W29131  24.609   7.203   3.180
56872W        W29132  28.600  26.290  11.052
56873W        W29133  19.187  43.403   3.702
56874W        W29134   5.419  18.362   1.186
56875W        W29135  14.760   3.710   1.115
56876W        W29136  36.904  22.525   3.238
56877W        W29137  35.114  44.291   0.642
56878W        W29138   4.306  29.900   1.366
56879W        W29139  21.207   0.840   3.164
56880W        W29140  25.152  38.926   2.642
56881W        W29141   8.396  18.703  11.573
56882W        W29142  42.325   1.125  12.904
56883W        W29143  22.465  20.940  13.499
56884W        W29144   6.314  17.183   2.767
56885W        W29145  32.362  11.938  14.313
56886W        W29146  38.813   8.230   2.788
56887W        W29147   3.983  28.519   3.257
56888W        W29148  15.500  10.120  12.422
56889W        W29149   6.017  42.433   0.274
56890W        W29150  42.718  24.630   4.845
56891W        W29151  22.682  42.090  12.197
56892W        W29152  16.109  42.083  11.040
56893W        W29153   6.051  43.765   4.054
56894W        W29154  26.498  40.952  11.486
56895W        W29155  28.738   6.464   4.131
56896W        W29156  29.425  31.043  14.574
56897W        W29157  31.464  29.590   2.717
56898W        W29158  43.969  41.822  12.447
56899W        W29159  23.952  26.059  14.398
56900W        W29160  39.927   1.174  13.555
56901W        W29161  10.121  25.153  12.451
56902W        W29162  43.721  25.074  13.506
56903W        W29163  38.854  20.335   4.082
56904W        W29164  16.794   9.756   0.294
56905W        W29165  25.660  30.591   2.690
56906W        W29166  17.104  13.623  10.569
56907W        W29167  34.399  13.853  10.696
56908W        W29168  44.081  28.678   2.705
56909W        W29169  20.600  17.888  12.460
56910W        W29170  35.818  27.951  14.345
56911W        W29171  38.081   7.952   5.136
56912W        W29172  37.272   7.379   1.742
56913W        W29173  17.232  13.213  12.952
56914W        W29174  27.093   0.577   2.668
56915W        W29175   0.964  12.317   4.515
56916W        W29176  20.126   2.200  10.574
56917W        W29177   0.145   6.578  14.441
56918W        W29178  17.633   5.318  10.762
56919W        W29179  16.734   3.767   0.433
56920W        W29180  25.053  23.739   2.362
56921W        W29181  19.242  12.837  11.542
56922W        W29182  15.634  19.809  12.425
56923W        W29183  26.144  29.697   1.187
56924W        W29184  27.029  15.275  10.473
56925W        W29185   9.013  42.701  14.456
56926W        W29186  15.280  27.413  14.073
56927W        W29187  21.386  28.867  11.588
56928W        W29188  27.978  44.392  12.886
56929W        W29189  37.071  39.036  13.875
56930W        W29190  40.904  37.579  14.788
56931W        W29191   3.152  34.548   1.990
56932W        W29192   3.392   8.265  12.610
56933W        W29193  29.455   9.159   0.239
56934W        W29194  42.770  38.964   3.838
56935W        W29195  17.779  24.966  12.529
56936W        W29196  10.270  36.802   1.277
56937W        W29197  20.615  26.539   2.740
56938W        W29198  12.414  21.294   0.906
56939W        W29199  20.852   5.817  11.944
56940W        W29200  27.948  21.630   3.265
56941W        W29201  32.079  42.504  12.575
56942W        W29202  24.442   3.936   0.976
56943W        W29203   0.905   4.555   4.582
56944W        W29204  38.573  12.213  14.848
56945W        W29205   9.105  39.852  12.094
56946W        W29206  32.518   2.563  12.915
56947W        W29207  24.894  43.624  11.167
56948W        W29208  16.792   9.044  12.580
56949W        W29209  17.820  17.305   4.955
56950W        W29210  33.689  13.089  10.697
56951W        W29211  40.341   8.900   0.518
56952W        W29212  41.442  39.488  13.644
56953W        W29213  42.157  26.967  12.464
56954W        W29214  32.410  41.334   3.689
56955W        W29215  11.715   2.877   4.830
56956W        W29216  24.775  10.933   2.216
56957W        W29217  33.228  22.457   4.637
56958W        W29218  30.525  12.914  14.319
56959W        W29219  26.595   3.154   4.553
56960W        W29220  10.084  11.139  10.265
56961W        W29221  25.994  36.898  14.942
56962W        W29222   3.459   1.857  11.826
56963W        W29223  33.715   1.269  10.149
56964W        W29224   7.012  16.147   2.417
56965W        W29225   7.831  19.508   0.938
56966W        W29226  44.469  17.294  13.963
56967W        W29227   4.098   1.351   3.643
56968W        W29228  34.528   7.743  10.993
56969W        W29229  14.284  30.569   4.104
56970W        W29230  31.048  29.361  10.579
56971W        W29231  25.930  42.283  11.913
56972W        W29232  32.153  43.906  13.389
56973W        W29233  27.909   5.185   1.909
56974W        W29234  20.086  11.082  14.376
56975W        W29235  39.264  39.556   4.529
56976W        W29236   7.843  20.692   3.765
56977W        W29237  10.065   5.746  12.053
56978W        W29238   0.921  13.772  12.435
56979W        W29239   0.440  25.087  10.987
56980W        W29240   0.033  15.284  14.421
56981W        W29241  32.559  10.707   1.380
56982W        W29242  20.806  11.663   2.255
56983W        W29243  37.342  11.090   4.116
56984W        W29244   1.222  43.712  12.630
56985W        W29245   5.804   7.644  14.264
56986W        W29246  16.531  38.516  11.516
56987W        W29247  32.023  40.565  10.598
56988W        W29248  30.113  39.863   4.532
56989W        W29249   6.400  41.457  11.924
56990W        W29250  37.616  33.996  12.105
56991W        W29251  17.073   3.855  10.420
56992W        W29252  15.307  32.347  11.507
56993W        W29253   5.716  22.162   3.902
56994W        W29254   9.323  31.870   1.652
56995W        W29255  24.279  26.013  11.508
56996W        W29256  26.602  34.603  11.899
56997W        W29257  18.048  20.730  12.082
56998W        W29258  18.552  16.568   0.845
56999W        W29259   7.494   9.068  11.528
57000W        W29260   2.287  44.852   3.784
57001W        W29261  44.010  29.454  12.401
57002W        W29262  32.691  24.660   4.758
57003W        W29263  40.710  23.421  13.524
57004W        W29264  42.481   4.313   3.655
57005W        W29265  16.497   7.235   5.032
57006W        W29266  20.615   0.964  10.925
57007W        W29267   8.178  38.497  13.298
57008W        W29268   9.786   4.463  11.602
57009W        W29269  40.300   5.873   1.909
57010W        W29270  18.361  20.289  12.468
57011W        W29271   4.966  18.400  12.973
57012W        W29272  21.702  30.623   4.101
57013W        W29273  44.744  32.024   0.916
57014W        W29274  16.294  37.515   2.763
57015W        W29275   4.698   3.895   2.882
57016W        W29276  36.458   1.988   3.626
57017W        W29277  37.121  41.448  14.227
57018W        W29278  30.103  21.804  14.221
57019W        W29279  16.773  40.692   0.858
57020W        W29280  40.957   6.715   3.820
57021W        W29281  33.634   4.717  10.217
57022W        W29282  29.337   9.878   2.704
57023W        W29283  43.368   7.695   1.919
57024W        W29284  30.125  10.614   3.757
57025W        W29285  42.787  25.953   3.741
57026W        W29286  41.001  43.847   1.998
57027W        W29287   7.749  39.536   0.934
57028W        W29288  20.684  17.429   3.784
57029W        W29289  43.713  15.817  12.752
57030W        W29290  35.665  14.255   2.780
57031W        W29291  24.126   1.049  11.156
57032W        W29292  30.622  30.363   0.355
57033W        W29293  38.115  32.526  12.899
57034W        W29294  43.017  16.642  12.457
57035W        W29295   9.399  41.140  12.562
57036W        W29296  41.828  34.286   4.606
57037W        W29297   8.591  39.814  11.302
57038W        W29298   6.382  36.874  12.864
57039W        W29299  13.763  23.481  14.790
57040W        W29300  10.911  30.527  11.112
57041W        W29301   7.462  26.651   4.571
57042W        W29302   2.826  31.993   3.383
57043W        W29303   3.427   0.838   1.665
57044W        W29304  12.777  44.237  10.679
57045W        W29305  35.536  25.157   0.597
57046W        W29306  35.506   1.806   3.119
57047W        W29307  34.825  28.997   4.084
57048W        W29308  31.580   1.969   0.630
57049W        W29309  27.192  42.079   0.991
57050W        W29310  27.407  38.969   3.178
57051W        W29311  13.230  24.000  10.784
57052W        W29312  36.459   0.420  11.695
57053W        W29313  20.373  39.886  10.669
57054W        W29314  22.751   0.036  10.674
57055W        W29315  37.931   9.912  10.517
57056W        W29316  42.386  23.978  13.637
57057W        W29317   2.904  28.064  12.047
57058W        W29318  42.361  22.533   1.815
57059W        W29319   3.062  39.423  14.990
57060W        W29320  18.907  35.933  10.020
57061W        W29321   8.625  18.027  11.180
57062W        W29322  15.454  43.015   5.139
57063W        W29323  34.009   1.402   0.736
57064W        W29324  32.438  32.454  14.740
57065W        W29325   2.313  35.428  10.670
57066W        W29326   1.582  18.828  13.250
57067W        W29327  23.692  24.668   1.603
57068W        W29328  42.023   1.625   4.259
57069W        W29329   5.216  36.456  14.356
57070W        W29330  20.822  44.090   1.438
57071W        W29331   9.297  33.929  13.001
57072W        W29332  37.688  20.655  11.125
57073W        W29333  41.536  42.559   0.899
57074W        W29334  18.642   2.333   0.796
57075W        W29335  20.882  10.744   1.497
57076W        W29336  16.195   2.697  13.912
57077W        W29337   9.278  23.523   1.671
57078W        W29338  29.400  31.672   4.100
57079W        W29339  22.052   7.219   0.503
57080W        W29340   3.249  42.044   5.000
57081W        W29341   8.381  14.802   0.418
57082W        W29342   6.921  39.008  11.944
57083W        W29343  15.774   4.779   4.667
57084W        W29344  42.540  12.748  10.504
57085W        W29345  32.599  10.956  14.385
57086W        W29346  43.501  41.243  11.156
57087W        W29347  11.647   7.400   3.077
57088W        W29348  15.818  21.585  11.105
57089W        W29349  44.486  42.395   1.989
57090W        W29350  26.061  19.176  14.370
57091W        W29351  39.425  36.613   3.638
57092W        W29352  30.467  38.899   2.587
57093W        W29353  18.396  15.490  12.466
57094W        W29354  35.815  27.576   2.271
57095W        W29355  19.816   3.239   1.706
57096W        W29356   2.373  35.174  13.225
57097W        W29357  32.704  35.901   4.969
57098W        W29358  20.274  10.824   4.129
57099W        W29359  39.461  28.056  12.452
57100W        W29360   8.427  18.823  14.330
57101W        W29361  19.271  16.356  12.916
57102W        W29362  41.912  40.018  13.872
57103W        W29363  24.923  39.575   2.190
57104W        W29364  28.656  24.496  13.617
57105W        W29365   6.357   7.563  14.579
57106W        W29366  14.180  12.095  10.662
57107W        W29367  11.680  20.611  11.341
57108W        W29368  41.900  27.193  14.770
57109W        W29369  42.065  43.313  14.917
57110W        W29370  13.864  37.864   0.029
57111W        W29371  44.457  33.158   4.666
57112W        W29372  21.945   0.823  14.496
57113W        W29373  15.053  16.100   2.854
57114W        W29374  27.718   1.398  13.514
57115W        W29375  22.114  25.020   0.621
57116W        W29376  10.422   8.321   2.764
57117W        W29377  20.061   5.693   1.826
57118W        W29378  18.304  21.666  13.943
57119W        W29379   9.370  18.130   0.908
57120W        W29380  18.078  44.392   0.979
57121W        W29381  13.544  18.991   3.199
57122W        W29382  31.445  18.099  12.403
57123W        W29383  39.617  32.854   1.613
57124W        W29384   9.562   2.784  14.922
57125W        W29385  40.416  12.640   1.024
57126W        W29386  28.132  18.059  12.598
57127W        W29387  37.089   2.367   3.268
57128W        W29388  14.101  18.211  14.319
57129W        W29389  39.468   5.226   3.080
57130W        W29390  12.781  37.943   1.341
57131W        W29391   2.196   5.878  12.409
57132W        W29392  13.394  37.046  14.138
57133W        W29393  16.733  38.443   4.118
57134W        W29394   8.260  24.631  11.179
57135W        W29395  24.999   7.575  13.766
57136W        W29396   8.387  37.581   3.866
57137W        W29397  15.485  20.607   3.236
57138W        W29398  36.335  41.853   2.990
57139W        W29399  12.616  17.831  11.021
57140W        W29400   6.335  34.276   4.198
57141W        W29401  37.937  31.857  14.834
57142W        W29402   6.392  24.254  11.977
57143W        W29403  41.883  24.813   3.723
57144W        W29404   0.521   9.705  11.562
57145W        W29405  21.212  38.634  12.213
57146W        W29406   8.898   7.704   2.241
57147W        W29407  22.684  21.896   5.051
57148W        W29408   8.221  37.590   3.386
57149W        W29409  29.662   1.738   2.228
57150W        W29410   6.670  39.996  12.593
57151W        W29411   9.304  16.288  13.232
57152W        W29412  36.175   8.124   3.602
57153W        W29413  40.344  19.760   1.507
57154W        W29414  18.899  37.573   1.981
57155W        W29415   5.617  37.142   3.336
57156W        W29416  10.259  32.883   1.962
57157W        W29417   6.206  18.625  13.447
57158W        W29418  12.804  44.510   3.119
57159W        W29419   1.374   3.752  11.256
57160W        W29420   1.810  26.765  10.495
57161W        W29421  20.974   3.859  13.463
57162W        W29422  15.624  42.272   4.166
57163W        W29423  27.247  20.596   4.333
57164W        W29424  18.134   8.193  10.642
57165W        W29425  33.024  44.250   3.096
57166W        W29426   2.520  39.982  10.325
57167W        W29427  38.794  21.646  10.772
57168W        W29428  10.779  21.161  13.350
57169W        W29429  13.936  42.463  14.671
57170W        W29430  14.928  44.169   4.084
57171W        W29431  20.157   9.937   0.490
57172W        W29432  17.256   1.135   4.580
57173W        W29433  15.107  13.206   4.104
57174W        W29434  17.013  30.444   9.964
57175W        W29435   2.821  21.102   3.476
57176W        W29436  24.561  25.487   3.757
57177W        W29437  10.311  30.400  12.914
57178W        W29438  26.206  32.064  13.322
57179W        W29439  29.790  42.963   4.470
57180W        W29440   8.746  30.144  10.746
57181W        W29441  33.367   1.813   3.114
57182W        W29442   5.909  19.067   0.751
57183W        W29443  25.655  24.771   3.635
57184W        W29444  26.919   4.816   4.519
57185W        W29445  17.982  32.636  14.852
57186W        W29446  10.795  20.488   1.110
57187W        W29447  13.935  36.937   1.214
57188W        W29448  42.015  21.424   3.358
57189W        W29449   4.665  27.343   1.955
57190W        W29450  39.840   6.156   3.236
57191W        W29451  25.446  11.301  11.592
57192W        W29452   8.202   9.157  14.986
57193W        W29453  11.790   9.889  13.740
57194W        W29454  32.073  38.884   2.937
57195W        W29455  20.880  28.630  13.378
57196W        W29456  18.286  31.581   3.544
57197W        W29457   6.640  44.138  11.121
57198W        W29458  30.081   5.471  12.567
57199W        W29459  32.465   6.767  14.854
57200W        W29460  13.820  44.488   4.184
57201W        W29461  26.520  18.273   3.365
57202W        W29462   4.669  42.455   0.050
57203W        W29463  38.839  25.079  14.379
57204W        W29464  23.669  22.702   4.081
57205W        W29465  33.846  23.658  11.588
57206W        W29466  13.947  32.966  11.500
57207W        W29467   2.728  15.814  11.216
57208W        W29468  42.981  15.750   1.639
57209W        W29469  41.740   9.438  10.341
57210W        W29470   0.424  24.830  12.085
57211W        W29471  17.442  43.495   4.759
57212W        W29472  31.859   7.372  13.093
57213W        W29473   2.195  43.847  12.948
57214W        W29474  37.672  23.248  14.222
57215W        W29475   8.443   4.056   1.363
57216W        W29476  24.798  41.535   3.668
57217W        W29477  20.148  31.061   0.770
57218W        W29478  29.158  19.727  14.328
57219W        W29479  26.454  42.974  13.513
57220W        W29480   9.394  30.642  12.526
57221W        W29481  43.779  15.137  13.552
57222W        W29482   7.044  27.709   5.109
57223W        W29483  16.211   5.204   4.547
57224W        W29484  44.909  16.835  13.516
57225W        W29485  32.899  17.124  10.756
57226W        W29486  35.730  10.097   2.550
57227W        W29487  38.608  23.585  14.334
57228W        W29488  20.398  26.736  11.244
57229W        W29489   9.469  44.290   1.918
57230W        W29490  20.424  16.703   1.212
57231W        W29491  11.354  14.767  11.411
57232W        W29492  30.740   1.424   1.321
57233W        W29493  22.615   3.499   0.706
57234W        W29494  21.034   7.104   3.402
57235W        W29495  31.845  37.802  12.456
57236W        W29496   9.290   2.447  11.911
57237W        W29497  26.585  28.212   3.766
57238W        W29498  20.090  32.986  12.514
57239W        W29499  16.656  16.692   3.714
57240W        W29500  24.935  42.502  12.177
57241W        W29501  22.553   5.268   3.374
57242W        W29502  13.154   7.787   4.647
57243W        W29503  42.230  28.137   4.928
57244W        W29504  42.758  42.536   2.648
57245W        W29505  24.687  42.862  10.779
57246W        W29506  14.292  36.434  13.353
57247W        W29507  37.589   1.802   0.584
57248W        W29508  33.484  14.412   0.414
57249W        W29509  36.790  31.647   2.804
57250W        W29510  33.554  11.633  13.463
57251W        W29511  30.903   4.780  10.969
57252W        W29512   0.474   2.474  14.889
57253W        W29513  23.739   0.370   2.753
57254W        W29514  17.643  10.561   0.842
57255W        W29515  29.951  20.589  13.730
57256W        W29516  16.715   8.741   3.209
57257W        W29517  22.670   9.941  14.354
57258W        W29518  20.064   4.444   0.735
57259W        W29519   0.020  30.054  12.937
57260W        W29520  41.036   9.581   0.695
57261W        W29521  26.468  40.444  11.483
57262W        W29522  21.549  24.958  10.719
57263W        W29523  26.912  11.498   4.188
57264W        W29524  14.775  30.992   1.865
57265W        W29525  15.266  15.791   0.240
57266W        W29526  25.755  25.716  12.074
57267W        W29527  10.962   0.780  12.920
57268W        W29528  18.094  16.397   1.270
57269W        W29529  36.419  15.482   9.928
57270W        W29530  30.620  21.231  13.784
57271W        W29531  23.800  36.488  11.935
57272W        W29532  29.653   8.099   0.966
57273W        W29533  37.307  23.575  14.936
57274W        W29534   9.162  42.005  11.595
57275W        W29535  15.279  27.256   3.355
57276W        W29536  38.920  44.954  11.053
57277W        W29537  18.352  18.230  14.023
57278W        W29538  39.915  33.560   2.044
57279W        W29539  35.285   5.262   3.204
57280W        W29540  41.736  17.827   1.861
57281W        W29541   1.753   0.343  14.070
57282W        W29542  26.824   0.724   0.416
57283W        W29543  23.944  23.188  11.803
57284W        W29544  40.944  26.195  13.042
57285W        W29545  15.259  41.408   0.474
57286W        W29546  23.957  38.031   4.639
57287W        W29547  11.267  18.238  12.106
57288W        W29548  41.369  36.283  13.820
57289W        W29549  37.974   1.884   3.239
57290W        W29550  24.703  43.783   3.703
57291W        W29551   0.465  18.690   3.214
57292W        W29552  36.269  30.155   2.413
57293W        W29553  12.084  28.520  14.821
57294W        W29554   3.435   0.834  14.645
57295W        W29555  44.343  31.301  11.099
57296W        W29556  25.083  22.190   0.386
57297W        W29557  15.091   6.737  10.640
57298W        W29558  36.116   2.771  12.495
57299W        W29559  31.452  40.136   3.144
57300W        W29560  19.584  41.790   4.032
57301W        W29561   2.910  42.058   1.739
57302W        W29562   6.183   4.757  13.913
57303W        W29563   6.195  44.464  14.166
57304W        W29564  12.326  16.992   1.300
57305W        W29565  21.653  18.240   0.086
57306W        W29566   3.186  32.400   4.562
57307W        W29567  19.593  28.240  13.972
57308W        W29568   8.690  11.807  10.684
57309W        W29569   9.487  15.045  12.408
57310W        W29570  24.287  44.886  14.106
57311W        W29571  17.968  41.945   0.780
57312W        W29572  41.361  25.900  13.048
57313W        W29573  16.593  22.509   3.260
57314W        W29574   3.791  29.400   3.286
57315W        W29575  20.711  14.733   2.490
57316W        W29576   3.794  25.020   2.563
57317W        W29577  30.030  41.228   4.590
57318W        W29578  44.763  30.963  13.537
57319W        W29579  22.166  12.194  12.405
57320W        W29580  13.092   0.415   0.310
57321W        W29581  30.489  41.872  14.873
57322W        W29582  34.325  15.001  13.527
57323W        W29583   2.266  38.544   4.835
57324W        W29584   1.207  23.273  11.620
57325W        W29585  29.125  22.539   1.469
57326W        W29586  32.908   1.783   1.465
57327W        W29587  22.091  15.330  13.575
57328W        W29588  36.871  43.581   3.276
57329W        W29589  24.134   5.038   1.623
57330W        W29590  19.566   9.280   4.728
57331W        W29591  34.356   1.030  13.438
57332W        W29592  23.586  35.617  11.621
57333W        W29593   3.768  20.293   4.098
57334W        W29594  42.637  36.547  12.096
57335W        W29595  42.916   3.953  13.406
57336W        W29596  42.901  33.807   0.755
57337W        W29597  42.934  17.331   2.493
57338W        W29598   5.258  26.921  10.411
57339W        W29599   4.315   7.306  10.474
57340W        W29600  30.139   2.289  14.267
57341W        W29601  26.963  41.797  13.433
57342W        W29602  13.571  18.291   0.496
57343W        W29603  39.703  30.453   0.042
57344W        W29604  28.233  16.772   0.897
57345W        W29605  25.871  42.889   4.697
57346W        W29606  16.886  42.917   3.723
57347W        W29607  37.791  41.010   0.243
57348W        W29608  44.315  18.433   3.133
57349W        W29609  26.579   3.276  11.054
57350W        W29610  43.073  10.303  13.897
57351W        W29611  28.029  42.803   4.124
57352W        W29612  14.166  38.025   4.628
57353W        W29613  33.682  33.095  11.605
57354W        W29614  40.944  30.939   2.992
57355W        W29615  21.114  35.402  12.515
57356W        W29616   5.375  22.205  10.892
57357W        W29617  38.323   8.503  13.146
57358W        W29618  31.993  14.601   2.698
57359W        W29619   2.510   8.663   0.218
57360W        W29620  15.606  31.942  11.155
57361W        W29621  34.207  41.714   1.383
57362W        W29622   9.890  38.356   1.592
57363W        W29623   6.242  11.589   1.906
57364W        W29624  30.701  13.883  11.101
57365W        W29625   7.090  21.323  13.503
57366W        W29626  19.519  11.458  11.535
57367W        W29627   2.296  29.103  14.875
57368W        W29628  10.322  22.312  12.548
57369W        W29629  12.845  40.274   4.169
57370W        W29630  20.720  39.430   4.778
57371W        W29631  39.800  14.593   2.887
57372W        W29632  29.818  22.009  12.763
57373W        W29633   9.451  11.782   2.751
57374W        W29634  27.700  17.570   3.721
57375W        W29635  10.175  13.667   1.751
57376W        W29636  22.457  22.067   3.830
57377W        W29637  33.210   2.724  12.455
57378W        W29638  19.674  18.397   0.752
57379W        W29639  34.359  28.694   3.209
57380W        W29640  31.072  19.022   4.257
57381W        W29641  30.400  25.058   4.867
57382W        W29642   2.943  32.182  13.851
57383W        W29643   8.305  11.407   2.287
57384W        W29644  30.410  34.452  13.539
57385W        W29645   9.132  19.721   2.626
57386W        W29646  20.020  21.208  14.942
57387W        W29647  26.914   5.511  12.608
57388W        W29648  29.546  22.928   4.702
57389W        W29649  28.743   7.225   3.834
57390W        W29650   8.699  40.832   2.263
57391W        W29651  34.785   3.377  11.684
57392W        W29652  32.189  42.862  11.051
57393W        W29653  23.959  37.588  12.934
57394W        W29654  39.797   0.661   2.735
57395W        W29655  36.499  21.949   1.973
57396W        W29656  33.864   9.127   4.868
57397W        W29657   4.370  42.712   4.092
57398W        W29658   1.045   6.193   0.283
57399W        W29659  11.115   3.939   2.292
57400W        W29660  16.132  26.905   2.376
57401W        W29661  15.587  23.693  11.624
57402W        W29662   1.193  33.453  13.018
57403W        W29663   8.752   5.741   4.149
57404W        W29664   6.678   1.827  13.416
57405W        W29665  35.691  43.532  14.514
57406W        W29666  28.484   3.346  10.956
57407W        W29667  20.491  34.854   0.355
57408W        W29668  14.799  41.640   5.061
57409W        W29669  42.060  34.810  12.928
57410W        W29670  30.655  15.375   2.186
57411W        W29671  38.446  28.605   2.624
57412W        W29672  18.173  43.520  12.878
57413W        W29673  17.047  20.405   2.677
57414W        W29674  44.236   5.213  12.461
57415W        W29675  28.447  18.876  10.907
57416W        W29676  18.282   1.734   0.712
57417W        W29677  37.897   9.375  12.474
57418W        W29678   2.216  27.128   0.031
57419W        W29679  28.181  20.779  14.937
57420W        W29680   6.359   6.484   0.848
57421W        W29681   1.218  12.462  10.600
57422W        W29682  20.677  38.032  12.765
57423W        W29683   2.435   1.833   1.176
57424W        W29684  30.319  39.354   1.761
57425W        W29685  20.403  21.271   2.298
57426W        W29686   4.328  23.309   2.725
57427W        W29687  36.327  33.453   1.142
57428W        W29688  20.375   1.939   3.941
57429W        W29689   2.704  40.912   4.091
57430W        W29690  24.216  42.529  14.861
57431W        W29691  36.808  16.375   0.822
57432W        W29692  36.404  28.642   2.227
57433W        W29693  38.080  35.953  14.916
57434W        W29694  33.562  14.617   3.645
57435W        W29695   7.280  18.576   3.766
57436W        W29696  42.898  40.253  12.573
57437W        W29697   4.151   5.001  12.105
57438W        W29698   1.557   4.257  12.572
57439W        W29699  44.635  27.204  12.945
57440W        W29700   0.589  15.599   3.307
57441W        W29701   2.216  20.690   0.413
57442W        W29702  30.719  35.302  13.582
57443W        W29703  16.646  38.796  11.947
57444W        W29704  31.597  15.639  12.367
57445W        W29705  11.152  41.981   0.221
57446W        W29706  27.716   9.844  11.949
57447W        W29707  13.158  40.959  11.565
57448W        W29708  10.955   6.922  11.019
57449W        W29709  19.706   8.582   3.358
57450W        W29710  28.234  13.395  14.933
57451W        W29711  22.586  15.784  11.193
57452W        W29712  20.606  36.585   2.854
57453W        W29713  35.168  22.068  14.555
57454W        W29714  20.106  19.706  13.792
57455W        W29715  29.016  18.059  14.966
57456W        W29716  13.114  41.011  13.313
57457W        W29717  32.862  12.624  14.501
57458W        W29718   3.177  10.765   1.722
57459W        W29719   9.421  25.096   1.527
57460W        W29720  14.833  24.177  11.584
57461W        W29721  30.974  13.812  12.630
57462W        W29722  14.685   5.774  14.580
57463W        W29723  33.009  22.160   4.262
57464W        W29724  42.744  40.121  11.335
57465W        W29725  11.821   7.254   5.025
57466W        W29726  14.462  20.205  14.915
57467W        W29727   9.362  10.416   1.919
57468W        W29728  33.315  40.099   3.179
57469W        W29729  38.825  27.553   2.634
57470W        W29730  23.595  40.511   1.301
57471W        W29731   0.699  38.423   1.888
57472W        W29732  15.813  10.193  14.371
57473W        W29733   4.181   7.416   3.400
57474W        W29734  36.532   7.028  12.157
57475W        W29735  44.495   0.850  10.747
57476W        W29736  13.244  17.046  12.981
57477W        W29737  30.618  39.148   1.373
57478W        W29738   9.915  36.194  11.585
57479W        W29739   7.677  27.618   0.269
57480W        W29740   4.798  37.826  13.056
57481W        W29741  28.990  29.816  12.069
57482W        W29742  24.217  24.797   4.633
57483W        W29743  39.817  41.425  12.549
57484W        W29744   4.331   6.256   2.485
57485W        W29745  31.414  29.083  13.020
57486W        W29746   4.307  18.253   3.623
57487W        W29747  14.620  28.322   3.746
57488W        W29748  28.516  22.732  11.587
57489W        W29749  25.770  21.584   0.907
57490W        W29750  17.066  15.172   1.287
57491W        W29751  30.690  16.290   3.204
57492W        W29752  15.146  24.070  13.716
57493W        W29753  32.042  12.113   1.309
57494W        W29754  28.701  28.185  13.489
57495W        W29755  11.879  21.454   3.253
57496W        W29756  26.912   5.789   0.319
57497W        W29757   7.260   4.491   1.428
57498W        W29758  28.871  44.512   2.701
57499W        W29759  29.623  15.221   1.000
57500W        W29760  27.461  16.895  12.669
57501W        W29761   2.764  30.633   4.542
57502W        W29762  38.374  18.353  11.906
57503W        W29763   9.371  44.001  10.897
57504W        W29764  20.216   0.680  11.545
57505W        W29765  12.884   8.051  12.896
57506W        W29766   1.680  40.297  12.531
57507W        W29767   9.512   9.524   0.579
57508W        W29768  30.144  36.372  11.513
57509W        W29769  19.840  43.921   3.639
57510W        W29770  18.643   5.965   3.427
57511W        W29771  41.380  33.579   2.578
57512W        W29772  12.555   4.343   3.313
57513W        W29773  38.333  40.372  12.786
57514W        W29774  20.696  15.286   0.916
57515W        W29775  12.220  22.151   2.326
57516W        W29776  20.539  35.335   3.319
57517W        W29777  30.968   9.585  12.417
57518W        W29778  23.951  27.660   2.242
57519W        W29779  17.512  24.198   4.683
57520W        W29780  33.846   0.355   2.377
57521W        W29781  26.647   5.737  14.891
57522W        W29782  39.008  10.105  14.965
57523W        W29783  11.576   3.327   1.712
57524W        W29784  41.100   4.137  14.807
57525W        W29785  16.394   8.663   0.169
57526W        W29786  38.940  19.750   0.501
57527W        W29787  41.007  31.689  11.470
57528W        W29788  37.972  10.201  13.046
57529W        W29789  39.763  41.074  13.004
57530W        W29790  44.474  31.050  12.142
57531W        W29791  19.736  21.193   0.858
57532W        W29792  31.462  36.867  13.536
57533W        W29793  20.717   2.187   4.248
57534W        W29794  15.942  42.350   2.240
57535W        W29795  43.280  14.761   0.239
57536W        W29796   8.485  22.770  12.429
57537W        W29797  16.293   3.484   0.507
57538W        W29798  30.748  11.399   0.237
57539W        W29799  43.916  17.167  12.561
57540W        W29800  27.010   2.965   2.368
57541W        W29801  38.750  30.798  11.659
57542W        W29802   8.361  43.819   1.444
57543W        W29803  33.310   4.431   1.576
57544W        W29804   5.343  43.045  11.091
57545W        W29805  24.535   2.414  14.589
57546W        W29806  38.665  43.446   3.656
57547W        W29807  39.742  26.543  10.038
57548W        W29808  36.941  35.770  13.245
57549W        W29809   7.647  40.609  14.139
57550W        W29810  36.531  26.918  11.937
57551W        W29811  39.136  43.505   1.252
57552W        W29812  38.890  42.204  11.928
57553W        W29813   5.091  41.789   3.547
57554W        W29814   3.134  38.540  11.109
57555W        W29815  39.466   9.837  11.441
57556W        W29816  26.753  17.485  10.989
57557W        W29817  40.029  25.988  11.594
57558W        W29818  27.077  44.427  10.736
57559W        W29819  16.852  16.277   2.212
57560W        W29820  30.707  44.517  13.544
57561W        W29821  14.533  40.252  12.560
57562W        W29822   1.200  20.876   1.317
57563W        W29823  29.800  39.940  11.611
57564W        W29824   4.988  23.596  10.058
57565W        W29825  30.021  14.681   0.894
57566W        W29826  42.487  37.969  12.673
57567W        W29827  19.701  10.478  11.708
57568W        W29828  18.551  19.553   2.248
57569W        W29829  16.274   1.697   4.508
57570W        W29830  39.464   9.118  10.202
57571W        W29831  23.040  13.821   3.195
57572W        W29832  31.990  16.596  12.479
57573W        W29833  12.685  20.013  14.008
57574W        W29834   3.237  22.177   2.238
57575W        W29835  40.186  30.616   2.604
57576W        W29836  17.788   3.942  13.443
57577W        W29837  43.094  17.213   0.300
57578W        W29838  34.566  40.089   1.877
57579W        W29839  19.517  18.389  14.246
57580W        W29840  34.910  36.254   3.641
57581W        W29841  40.137  33.938   0.863
57582W        W29842   0.886  34.826  11.037
57583W        W29843   9.094  21.619  10.701
57584W        W29844  11.411  36.635  12.127
57585W        W29845  10.298  43.280  14.410
57586W        W29846  11.604  27.051   4.137
57587W        W29847   8.432  33.614   0.298
57588W        W29848  14.436  15.037   2.971
57589W        W29849  33.015  30.972  12.478
57590W        W29850  16.820  41.384   2.888
57591W        W29851  19.463  44.763   0.787
57592W        W29852   8.125  35.193   4.034
57593W        W29853   5.348  40.637   2.800
57594W        W29854  37.505  19.834  14.731
57595W        W29855  38.375  24.070  14.318
57596W        W29856  28.126  41.734   4.622
57597W        W29857  21.649  40.592  14.317
57598W        W29858  17.744  43.744   4.085
57599W        W29859  15.765  13.917  11.638
57600W        W29860   0.960  37.657  14.376
57601W        W29861   3.369  39.962   1.443
57602W        W29862   4.160  32.993  13.037
57603W        W29863   1.391  37.323  11.975
57604W        W29864  10.079  40.968  10.657
57605W        W29865  10.826  18.504   2.300
57606W        W29866   8.409  20.254   2.852
57607W        W29867   5.744  16.095  14.562
57608W        W29868  30.634   2.502  13.808
57609W        W29869  20.252  19.702  10.965
57610W        W29870  31.421  21.264   0.881
57611W        W29871  44.354   2.140   5.126
57612W        W29872   7.917  33.649   3.664
57613W        W29873   1.262  30.047   3.521
57614W        W29874  43.558  35.214   2.664
57615W        W29875   6.948  39.773   4.201
57616W        W29876  23.979  42.982  11.472
57617W        W29877  27.110  15.185  14.289
57618W        W29878  13.619  37.468  14.341
57619W        W29879   3.684  41.283  14.853
57620W        W29880  19.594  15.376  11.109
57621W        W29881  12.585  23.919   1.328
57622W        W29882  23.007  34.862  11.893
57623W        W29883  29.632   9.941   4.151
57624W        W29884  41.447  32.113   1.701
57625W        W29885  40.881  24.224  12.013
57626W        W29886   4.542  11.168   3.481
57627W        W29887  14.117  36.998  13.368
57628W        W29888  33.420  32.195  14.479
57629W        W29889  10.998  17.706  10.745
57630W        W29890   6.722   7.672   1.313
57631W        W29891  33.622  10.391  13.048
57632W        W29892  28.896  14.088   1.423
57633W        W29893  17.357  38.970   0.719
57634W        W29894  31.866  44.033  14.861
57635W        W29895  20.564   8.835   3.926
57636W        W29896  30.866  30.406   4.651
57637W        W29897  18.285  37.432  13.030
57638W        W29898   3.172  22.118   4.557
57639W        W29899  28.053  40.170   4.637
57640W        W29900  27.970  10.755   0.013
57641W        W29901  23.279  37.908  12.155
57642W        W29902   0.359  36.024   0.060
57643W        W29903  10.393  32.587  13.362
57644W        W29904  44.191  13.585   3.150
57645W        W29905  24.622  42.526  13.227
57646W        W29906   5.043  14.299   2.632
57647W        W29907  24.579  28.851   1.824
57648W        W29908  38.640  40.821  12.004
57649W        W29909  21.937   5.478   2.812
57650W        W29910  19.989  25.064   2.205
57651W        W29911  41.741  44.389  12.043
57652W        W29912  23.669   8.732   4.842
57653W        W29913  37.646  41.899   4.141
57654W        W29914  12.471  38.590  11.143
57655W        W29915  20.544   3.666   3.098
57656W        W29916  22.132  32.456  12.632
57657W        W29917  16.183  34.867   0.122
57658W        W29918  30.330  12.112  14.997
57659W        W29919  12.643  33.360   0.506
57660W        W29920  39.644   6.768  10.741
57661W        W29921  38.903   8.383   0.343
57662W        W29922  32.514  21.772  13.793
57663W        W29923   1.796  16.580   4.419
57664W        W29924  10.824  13.852   0.487
57665W        W29925   5.296  41.242  11.601
57666W        W29926   7.397  44.915   3.405
57667W        W29927  35.497   8.456   4.305
57668W        W29928   4.731   1.877  11.969
57669W        W29929  37.938  13.708  13.078
57670W        W29930  23.906  15.871   0.048
57671W        W29931   9.399   7.303   3.589
57672W        W29932   0.370  32.164  10.759
57673W        W29933  27.876  39.619  13.807
57674W        W29934  33.880  34.656   1.858
57675W        W29935  40.100  39.999   4.640
57676W        W29936  44.537   1.773  11.991
57677W        W29937   6.310  44.023   3.671
57678W        W29938  29.463  44.334   3.757
57679W        W29939  35.089  20.636  14.965
57680W        W29940   6.163  39.030  10.687
57681W        W29941  20.183   6.565  14.018
57682W        W29942   9.359  12.882  13.815
57683W        W29943  13.140  17.870   3.981
57684W        W29944  37.797   0.363   2.269
57685W        W29945   1.027  34.434   0.341
57686W        W29946  33.649  39.476   3.900
57687W        W29947  42.015   8.790   4.738
57688W        W29948  20.931   8.743  14.010
57689W        W29949  17.376  39.125  11.706
57690W        W29950  36.883  43.723   1.865
57691W        W29951  16.110  44.968  14.479
57692W        W29952  15.374  31.508   1.200
57693W        W29953   0.082   2.278   1.203
57694W        W29954  14.608  37.595   0.752
57695W        W29955  13.955  34.955  11.718
57696W        W29956  33.839  40.342   0.685
57697W        W29957   2.948  28.432  14.716
57698W        W29958   9.719  23.413  10.630
57699W        W29959  23.225  44.733  14.836
57700W        W29960  14.791  38.960  12.605
57701W        W29961   7.394  31.947  10.438
57702W        W29962  13.761  24.740  14.568
57703W        W29963   5.184  23.775  12.978
57704W        W29964  39.512  20.268  11.487
57705W        W29965  13.094  14.844   4.835
57706W        W29966   3.825  44.335   1.805
57707W        W29967  29.444  15.079   0.013
57708W        W29968   6.350  21.421   3.348
57709W        W29969  23.084  19.828   0.836
57710W        W29970  18.979  43.476   1.344
57711W        W29971  20.654  31.004  13.451
57712W        W29972  10.644  26.674   0.750
57713W        W29973  31.688  26.555  13.328
57714W        W29974   7.005  22.228  14.807
57715W        W29975  29.474  20.162   3.845
57716W        W29976  22.952  34.555  12.589
57717W        W29977  26.550  15.062  13.960
57718W        W29978  41.340  42.393   2.774
57719W        W29979  31.116   9.348   3.178
57720W        W29980   0.860  37.065  13.544
57721W        W29981  44.211  42.438   0.059
57722W        W29982  22.652  16.197  12.846
57723W        W29983  32.325  43.252  11.420
57724W        W29984  31.925   0.232  12.942
57725W        W29985  12.460  36.823  11.507
57726W        W29986  35.034  39.261   3.662
57727W        W29987  40.461   4.435  12.487
57728W        W29988  16.146  11.315  11.123
57729W        W29989  31.562   6.862  10.797
57730W        W29990  20.071   5.753  10.699
57731W        W29991   6.611  36.854   4.189
57732W        W29992  35.512  13.834   3.860
57733W        W29993   4.953  10.192   2.785
57734W        W29994  38.982  27.136  12.074
57735W        W29995  35.945  32.730   0.655
57736W        W29996  18.507   9.967   4.210
57737W        W29997   0.225   3.000   1.226
57738W        W29998  34.972   8.318  10.577
57739W        W29999  24.559  37.706  11.615
57740W        W30000  10.780  23.020   1.672
57741W        W30001  25.146  18.634   4.995
57742W        W30002  24.109  17.188   1.279
57743W        W30003  19.218  37.060   1.252
57744W        W30004   8.535  11.177   3.405
57745W        W30005  36.866  37.871   0.355
57746W        W30006  28.955  30.357  10.705
57747W        W30007   7.341  43.902   3.567
57748W        W30008  42.997  22.707   0.891
57749W        W30009   7.286   3.701  10.654
57750W        W30010  25.059  32.245  14.049
57751W        W30011  27.149   8.693  14.695
57752W        W30012  11.622   5.868  14.709
57753W        W30013  21.262   2.604   0.557
57754W        W30014  15.694  21.267  14.713
57755W        W30015  26.193  15.203   2.231
57756W        W30016  33.154  19.192   1.400
57757W        W30017  42.969  33.623  12.649
57758W        W30018  30.190  33.661   0.386
57759W        W30019  18.173  27.194   4.477
57760W        W30020  43.457  44.895   1.483
57761W        W30021  27.093  23.327   0.717
57762W        W30022  31.649  15.514   2.718
57763W        W30023  24.481   2.899   2.227
57764W        W30024  38.755  41.508  13.607
57765W        W30025  33.807  32.475  13.950
57766W        W30026  38.830  15.179   3.407
57767W        W30027  30.470  21.151   1.398
57768W        W30028   8.000  20.283   1.241
57769W        W30029  36.537  22.304  14.650
57770W        W30030   0.663  32.475   2.174
57771W        W30031  15.624  44.983  13.805
57772W        W30032  16.181  40.999   4.048
57773W        W30033  20.133  14.635   3.745
57774W        W30034  17.514  25.447  13.751
57775W        W30035  37.992  25.946  14.293
57776W        W30036  42.717  39.591   1.901
57777W        W30037   1.895  39.959  13.918
57778W        W30038  14.643  28.307  12.762
57779W        W30039  32.952  10.217   9.966
57780W        W30040  10.872  41.487   4.356
57781W        W30041   9.825  36.030   2.011
57782W        W30042  18.759   8.895  11.392
57783W        W30043  35.086   9.815  14.308
57784W        W30044   4.887   7.020   4.755
57785W        W30045  23.466  20.272   0.857
57786W        W30046  22.735  28.237  13.292
57787W        W30047  38.055  35.752   0.397
57788W        W30048  27.017  14.657   0.777
57789W        W30049  28.598  30.899  11.615
57790W        W30050  31.036  18.193   0.314
57791W        W30051  37.474  10.144   3.725
57792W        W30052   7.078  19.710   5.017
57793W        W30053  41.752  25.582  10.632
57794W        W30054  15.753   3.305  13.592
57795W        W30055  16.872   5.832  12.917
57796W        W30056  11.766  21.528   0.352
57797W        W30057  26.283   9.345  12.241
57798W        W30058  35.938  18.216  13.494
57799W        W30059   4.974  22.533   5.210
57800W        W30060  42.238  37.758   0.156
57801W        W30061  39.535  30.777  12.279
57802W        W30062  37.589  21.956   2.712
57803W        W30063  32.411  13.655   1.880
57804W        W30064   4.957  18.146   0.268
57805W        W30065  26.195   6.715   4.295
57806W        W30066  21.424  38.629   2.188
57807W        W30067  31.922  23.385  11.012
57808W        W30068  16.456  22.150  12.400
57809W        W30069  41.408  10.838  13.850
57810W        W30070  44.525  40.009   4.532
57811W        W30071  25.206  44.294   2.172
57812W        W30072   7.800  24.087   3.282
57813W        W30073  40.540  16.536   0.796
57814W        W30074   3.275  17.979  12.653
57815W        W30075  16.409   0.794   2.330
57816W        W30076  44.645  24.073   2.542
57817W        W30077  36.056  23.015   4.117
57818W        W30078  37.363   4.738  11.194
57819W        W30079  40.305  40.926   0.692
57820W        W30080   0.213  26.513  14.173
57821W        W30081  39.990   9.851   2.562
57822W        W30082  44.993  25.422   5.038
57823W        W30083  28.155  41.251  14.888
57824W        W30084  22.640  23.009  12.608
57825W        W30085  40.322  12.384   3.202
57826W        W30086  38.057  23.010  14.527
57827W        W30087  22.761  36.015  11.282
57828W        W30088  14.517  32.028   3.009
57829W        W30089  17.549  15.885   3.208
57830W        W30090  40.633  20.018  10.742
57831W        W30091  15.566  13.527  11.107
57832W        W30092  25.854   7.335   2.126
57833W        W30093  35.889  34.017  14.823
57834W        W30094   5.935  29.097  14.274
57835W        W30095  13.698  10.109  12.095
57836W        W30096  42.558  35.009  10.704
57837W        W30097  28.393  11.272  13.409
57838W        W30098  36.460   5.325   3.379
57839W        W30099   6.108   7.785  11.122
57840W        W30100  36.549  15.686   2.225
57841W        W30101  35.871   4.878   3.291
57842W        W30102  29.245  28.606   2.751
57843W        W30103  20.232  34.671  12.015
57844W        W30104  35.404  41.309  14.522
57845W        W30105   4.168  19.844  13.894
57846W        W30106  42.265  29.497  12.783
57847W        W30107  36.258  40.729  11.944
57848W        W30108  35.984  20.994  12.687
57849W        W30109  17.747  11.765  11.450
57850W        W30110   7.655  44.957   0.307
57851W        W30111   6.224  32.394   3.453
57852W        W30112  35.554  29.636   0.502
57853W        W30113  40.706  38.335  14.088
57854W        W30114  26.206   5.007  14.732
57855W        W30115   2.661  41.761   4.818
57856W        W30116  31.715  40.400   0.807
57857W        W30117  16.271  24.067   3.696
57858W        W30118  36.826  21.817   0.188
57859W        W30119  20.582  33.076   1.132
57860W        W30120  40.511  41.637  14.921
57861W        W30121   7.392   7.091   3.880
57862W        W30122  15.101  25.170   0.521
57863W        W30123   9.742  10.486  10.611
57864W        W30124  42.077  23.710   0.747
57865W        W30125  12.355  19.426  11.188
57866W        W30126  44.176  27.553   1.289
57867W        W30127   5.775  40.556   1.754
57868W        W30128  29.391  34.550   3.689
57869W        W30129  20.563   1.037  11.437
57870W        W30130  33.577  14.835   9.982
57871W        W30131   1.078   0.309   2.733
57872W        W30132  36.027  37.894   0.162
57873W        W30133  17.923  34.911   3.339
57874W        W30134  28.922  30.850   1.756
57875W        W30135  14.864  23.660  13.843
57876W        W30136  31.390   4.196  11.406
57877W        W30137   4.985  18.093  12.145
57878W        W30138  11.359  33.088   2.602
57879W        W30139  36.479  28.206   9.724
57880W        W30140  15.170   6.851  14.770
57881W        W30141  42.887   5.703  14.349
57882W        W30142  32.572  42.773  12.625
57883W        W30143  24.709   2.101   1.107
57884W        W30144   2.021  30.137   3.787
57885W        W30145   5.684   7.802   2.739
57886W        W30146  31.940   5.739   1.217
57887W        W30147   6.385   0.035   1.448
57888W        W30148   9.607  11.222   0.854
57889W        W30149  40.932  15.230  14.140
57890W        W30150  38.961  37.305  10.693
57891W        W30151  12.228  37.414  13.380
57892W        W30152  13.659  15.572   3.107
57893W        W30153  10.216  11.661  12.565
57894W        W30154  12.754  36.339   1.249
57895W        W30155  34.015  26.957  10.327
57896W        W30156   8.872  32.887   3.229
57897W        W30157   9.593  35.118  12.152
57898W        W30158  10.749  27.082  12.994
57899W        W30159   8.152  20.043   4.907
57900W        W30160  10.835   1.749   0.290
57901W        W30161  29.664   0.317  11.076
57902W        W30162   2.336  27.816   4.661
57903W        W30163   5.076  40.661   1.200
57904W        W30164  41.903   3.841   0.795
57905W        W30165  20.483  42.041  14.372
57906W        W30166  16.620  26.605  14.924
57907W        W30167  12.271   4.863  14.043
57908W        W30168  17.639  18.150  11.994
57909W        W30169   1.770  43.766   0.554
57910W        W30170  18.280  14.238  12.819
57911W        W30171   0.770  37.572  10.106
57912W        W30172  24.282  10.384   4.169
57913W        W30173  40.860   3.313  13.140
57914W        W30174  17.763  30.273  13.916
57915W        W30175  20.027   8.844  10.726
57916W        W30176  16.166  29.884  12.087
57917W        W30177  42.531  25.555   0.189
57918W        W30178  40.453   8.111   2.859
57919W        W30179   9.141  27.893  10.518
57920W        W30180  34.833  12.695   3.191
57921W        W30181  21.800   3.422   4.155
57922W        W30182  13.892  35.363  11.039
57923W        W30183  44.505   6.756   0.712
57924W        W30184   1.932   7.300  12.521
57925W        W30185  30.495  28.442  10.825
57926W        W30186  42.001  18.480  14.476
57927W        W30187  18.877  11.057   1.958
57928W        W30188  23.593  15.700  13.973
57929W        W30189  26.592  21.266   1.244
57930W        W30190   1.266  33.462  10.463
57931W        W30191  38.871   3.192  12.812
57932W        W30192  18.960  32.475  14.974
57933W        W30193   5.363  33.469  13.151
57934W        W30194  11.697   4.230   0.335
57935W        W30195   3.254   3.307  11.618
57936W        W30196  40.002  25.190  11.154
57937W        W30197   6.424  44.647  13.180
57938W        W30198   6.897  18.889   4.263
57939W        W30199   3.475  21.616  12.402
57940W        W30200  27.110  35.056   0.834
57941W        W30201  22.682  12.237   3.933
57942W        W30202  17.628   6.729   2.718
57943W        W30203  24.021  35.802   1.991
57944W        W30204   0.921   5.683  11.602
57945W        W30205  22.466  35.921  12.067
57946W        W30206  28.902   6.352  13.480
57947W        W30207  28.281  41.834   5.100
57948W        W30208  12.216   3.706  11.624
57949W        W30209  17.770  29.551  13.427
57950W        W30210  12.632  15.842  13.377
57951W        W30211  18.999  18.560   3.281
57952W        W30212   4.344   4.972  12.772
57953W        W30213  17.766  30.133   4.323
57954W        W30214  18.776  17.799   2.724
57955W        W30215  35.859  29.524   0.912
57956W        W30216  14.382  41.009  12.056
57957W        W30217  18.246   0.361   0.765
57958W        W30218  36.549  37.385  12.345
57959W        W30219   1.700   8.002   1.090
57960W        W30220   3.060  28.460   1.602
57961W        W30221  14.561  41.415   1.746
57962W        W30222  38.977   3.568  14.438
57963W        W30223  13.824   4.664   0.288
57964W        W30224  21.839  32.325   3.258
57965W        W30225   7.627  17.587   4.331
57966W        W30226  12.528  15.560  12.118
57967W        W30227  29.941  23.385   2.923
57968W        W30228  20.737   0.336  14.240
57969W        W30229  16.541  16.779   1.504
57970W        W30230  19.781   7.410   2.311
57971W        W30231  40.858  42.927   1.929
57972W        W30232  21.585  25.030  12.422
57973W        W30233   5.580  40.575   1.267
57974W        W30234   4.166  12.879   0.891
57975W        W30235  15.511  39.396  10.728
57976W        W30236   1.450  32.408   2.868
57977W        W30237  30.504  29.026   3.161
57978W        W30238  32.009  23.708  13.565
57979W        W30239  32.586   6.420  13.703
57980W        W30240  20.575  12.334  11.528
57981W        W30241  21.728  23.279   4.079
57982W        W30242  26.229  29.905  13.409
57983W        W30243  30.052   0.556   0.084
57984W        W30244  17.139  30.254   1.870
57985W        W30245  38.134  41.829   1.480
57986W        W30246  36.880   9.115   0.692
57987W        W30247   4.757  19.264   3.324
57988W        W30248  18.128  40.449   3.315
57989W        W30249  22.637  28.092   1.717
57990W        W30250  35.507   6.744   0.267
57991W        W30251   3.891  34.674  14.920
57992W        W30252  19.182  12.845   1.363
57993W        W30253  18.700  25.103  12.966
57994W        W30254  10.841  14.209  13.463
57995W        W30255  23.599  13.744  12.055
57996W        W30256  22.653  37.119  11.995
57997W        W30257  43.075   1.000  10.919
57998W        W30258  40.603   6.489  11.090
57999W        W30259   4.411  25.591   4.076
58000W        W30260  22.230  38.133   2.162
58001W        W30261  10.294   5.194   3.681
58002W        W30262  21.761  22.551   3.676
58003W        W30263  14.839  30.126  10.110
58004W        W30264  38.909  36.030   0.372
58005W        W30265  18.165  21.168  11.862
58006W        W30266  13.646  40.530  12.581
58007W        W30267  25.001   6.951  11.163
58008W        W30268  27.563   1.498  12.612
58009W        W30269  40.610   1.391  14.880
58010W        W30270  12.855  11.704   1.525
58011W        W30271  34.142  42.547  11.125
58012W        W30272  25.110  20.524   1.403
58013W        W30273  27.025  34.266  14.325
58014W        W30274  33.179  17.537  10.538
58015W        W30275  26.854   3.772   3.498
58016W        W30276  43.532   3.365   4.611
58017W        W30277  20.720  35.564   0.526
58018W        W30278  19.107  38.633   3.155
58019W        W30279  16.086  37.839   0.300
58020W        W30280  40.085   9.732   1.059
58021W        W30281  30.018  21.445  13.849
58022W        W30282  12.216  34.994   4.187
58023W        W30283  35.300  23.532   3.068
58024W        W30284  30.952   4.409   1.368
58025W        W30285  29.467  35.797  10.680
58026W        W30286  20.683  44.054   4.175
58027W        W30287  17.813   4.309   4.242
58028W        W30288  25.164   9.156  14.950
58029W        W30289  28.497   9.795   0.877
58030W        W30290  15.404  41.944   3.652
58031W        W30291   8.352  37.415  10.676
58032W        W30292  27.015  30.428   1.752
58033W        W30293  22.836  18.233  13.530
58034W        W30294  37.730   9.400   4.168
58035W        W30295  33.892  28.075   3.708
58036W        W30296   7.322   0.218  13.123
58037W        W30297  30.180  24.595   4.652
58038W        W30298  13.779  18.863  12.658
58039W        W30299  37.918  21.782   4.556
58040W        W30300  37.074  41.602  13.728
58041W        W30301  12.638  25.654  11.420
58042W        W30302  35.841  15.150   3.163
58043W        W30303  13.332  12.869   2.711
58044W        W30304  10.312  44.329  11.106
58045W        W30305   6.697  39.006   0.375
58046W        W30306  26.001  40.210  11.518
58047W        W30307  44.807  29.952  12.451
58048W        W30308   8.345  27.889  10.307
58049W        W30309  31.542  12.114  12.884
58050W        W30310  32.193   7.539   2.332
58051W        W30311  24.000  17.817  13.991
58052W        W30312  26.532  15.647   4.978
58053W        W30313   8.902   9.771  12.904
58054W        W30314  24.532  29.357   1.625
58055W        W30315  41.954   1.436  11.653
58056W        W30316   0.336  10.649  14.345
58057W        W30317   3.300  11.062  12.020
58058W        W30318  28.749  33.317  10.621
58059W        W30319  11.749   0.151   9.953
58060W        W30320   1.036   9.687  10.728
58061W        W30321  15.661   2.092  12.863
58062W        W30322  26.529   7.158   5.079
58063W        W30323  17.817  10.651  11.450
58064W        W30324  37.788  25.178   0.490
58065W        W30325  41.221  44.429   2.120
58066W        W30326  19.621  30.494  10.944
58067W        W30327  24.468  19.855  11.971
58068W        W30328  34.009   5.910   3.657
58069W        W30329  43.724   6.331   4.906
58070W        W30330  39.391  14.556  12.633
58071W        W30331  20.145  44.862   3.425
58072W        W30332  36.117  33.974  14.275
58073W        W30333   5.683  16.606  14.620
58074W        W30334  32.061  26.660   0.791
58075W        W30335  42.851  21.043   4.626
58076W        W30336  42.478  14.472   0.894
58077W        W30337  21.054   9.747  13.837
58078W        W30338  24.238  10.133  12.331
58079W        W30339  13.718  33.149  11.983
58080W        W30340   2.552  42.872   2.287
58081W        W30341  11.911  31.540  10.339
58082W        W30342  38.570  41.339  14.068
58083W        W30343  21.987  42.360   0.736
58084W        W30344  41.748   2.797   3.753
58085W        W30345   9.293   9.046   2.834
58086W        W30346  35.248  10.261  12.175
58087W        W30347  29.119  31.750   5.094
58088W        W30348   6.342  22.497   0.273
58089W        W30349  34.389  18.890  10.272
58090W        W30350  23.522  34.801  13.392
58091W        W30351  17.139  22.913   0.573
58092W        W30352  10.210  15.269  11.479
58093W        W30353   5.931  15.735   3.702
58094W        W30354  41.595  16.896  14.497
58095W        W30355   6.988  36.587  14.345
58096W        W30356  32.420  39.779   0.853
58097W        W30357   9.777  15.207   4.530
58098W        W30358  21.144  20.904   2.705
58099W        W30359   1.884  17.195  11.025
58100W        W30360   5.228   7.328   2.828
58101W        W30361  26.306  32.155   2.855
58102W        W30362  16.112   9.317   3.739
58103W        W30363   4.620   2.532   1.587
58104W        W30364   9.640  35.881   1.243
58105W        W30365   5.558  15.642  11.527
58106W        W30366   3.138   3.672  12.045
58107W        W30367  43.880  13.529   0.918
58108W        W30368  32.900  19.309   2.325
58109W        W30369  14.290   6.534  12.490
58110W        W30370  36.263  11.569   2.776
58111W        W30371  10.186   2.971   1.093
58112W        W30372   7.316   0.345  14.014
58113W        W30373  18.106   8.940   1.755
58114W        W30374   4.960  19.161   1.042
58115W        W30375  34.156   8.084  12.623
58116W        W30376  23.473  22.673  13.341
58117W        W30377   6.928  42.215   1.754
58118W        W30378  33.371  16.890  12.957
58119W        W30379  26.361   7.682   2.803
58120W        W30380  39.007  28.115  14.786
58121W        W30381   7.709  33.014   0.937
58122W        W30382  16.026  24.093  14.283
58123W        W30383  27.026  23.594  10.600
58124W        W30384   2.851  40.475  11.051
58125W        W30385  41.957  28.221   3.229
58126W        W30386   0.468   3.088  10.399
58127W        W30387  34.563  33.419  11.526
58128W        W30388   3.235  20.504   0.412
58129W        W30389   7.373  39.808   0.710
58130W        W30390  34.376  23.725   0.364
58131W        W30391  31.771  20.669  10.588
58132W        W30392  34.031  38.840  11.506
58133W        W30393   4.667  12.978  12.586
58134W        W30394  21.590  39.771   1.625
58135W        W30395  42.907   9.452   2.763
58136W        W30396  34.050  30.961   1.375
58137W        W30397  12.179  43.985  12.412
58138W        W30398   7.187  26.013   2.680
58139W        W30399  37.298  42.763   2.136
58140W        W30400   5.606  41.384   4.262
58141W        W30401  20.766  25.142  14.848
58142W        W30402   6.269   1.200  12.479
58143W        W30403  29.746  24.306   2.987
58144W        W30404  16.822  31.982   2.352
58145W        W30405   1.773  44.759  12.100
58146W        W30406  24.078  20.793   4.761
58147W        W30407   8.183   8.497  10.970
58148W        W30408  31.399   1.467   3.714
58149W        W30409  19.685   8.017  11.764
58150W        W30410  20.038  15.685  11.562
58151W        W30411  30.416  27.020  13.381
58152W        W30412  26.082  35.684  12.482
58153W        W30413   7.874  16.122  11.992
58154W        W30414  32.354  27.408   3.246
58155W        W30415  12.640  21.262   0.151
58156W        W30416  19.810   8.738   9.859
58157W        W30417  20.072   5.635  11.546
58158W        W30418  12.050  42.931  12.431
58159W        W30419  42.681  16.441   3.536
58160W        W30420   6.182  40.394  11.397
58161W        W30421   5.435  20.838   1.222
58162W        W30422  40.447   6.439  11.923
58163W        W30423  37.416  20.430  13.402
58164W        W30424  26.181  18.640  14.567
58165W        W30425  40.337  34.183  11.553
58166W        W30426   8.017  15.640   4.990
58167W        W30427  40.453   4.356   4.746
58168W        W30428   3.662   7.921  10.423
58169W        W30429  19.067  19.045   0.258
58170W        W30430  30.929  36.938  13.391
58171W        W30431  44.543  18.800  13.449
58172W        W30432  14.790  18.531   2.289
58173W        W30433   7.824   5.067  13.103
58174W        W30434  30.588  33.471   4.072
58175W        W30435  25.433  39.160  11.107
58176W        W30436  41.884  30.390  13.355
58177W        W30437  35.639  14.227   5.151
58178W        W30438  20.078  16.328  13.487
58179W        W30439   9.391   0.951   2.263
58180W        W30440  32.099   1.974   3.908
58181W        W30441  17.229  31.758   1.947
58182W        W30442  29.069  29.591   3.397
58183W        W30443   4.229  38.303  11.060
58184W        W30444  41.884  23.206  13.902
58185W        W30445  33.192  18.003  10.767
58186W        W30446  17.893  22.766  12.991
58187W        W30447  18.077  40.477   3.844
58188W        W30448  12.621  14.314  13.940
58189W        W30449  39.050  11.151  12.546
58190W        W30450   4.632  32.876   0.602
58191W        W30451  36.439   0.322  12.982
58192W        W30452   0.060  41.586   1.821
58193W        W30453  10.352   4.276  14.367
58194W        W30454  33.523  37.503   2.678
58195W        W30455  24.725   7.688  13.191
58196W        W30456  28.933  36.008   0.913
58197W        W30457  13.576  43.052  11.499
58198W        W30458  24.296  31.598  13.804
58199W        W30459  43.872  22.414  12.600
58200W        W30460   7.667   1.421  14.052
58201W        W30461  25.333  27.084   0.982
58202W        W30462  20.996  27.739  10.687
58203W        W30463  43.370  16.368  11.604
58204W        W30464  43.909  31.405   1.808
58205W        W30465   2.957  24.221  10.629
58206W        W30466   5.749  37.574  11.399
58207W        W30467   6.195  22.038   4.157
58208W        W30468  14.703  29.725  13.798
58209W        W30469   6.885  10.643  13.371
58210W        W30470  33.418   9.789   4.666
58211W        W30471  41.679  40.592   1.789
58212W        W30472  28.605  42.731   0.300
58213W        W30473  20.472  34.542  14.062
58214W        W30474  22.358  21.600   0.308
58215W        W30475  16.341  44.949   2.601
58216W        W30476  34.231  42.322   3.373
58217W        W30477   4.403   8.190   2.319
58218W        W30478   7.702  28.507   4.599
58219W        W30479  24.852  44.250  12.172
58220W        W30480  36.142  19.550  11.445
58221W        W30481  35.882  17.682   0.100
58222W        W30482   5.969   0.438  13.460
58223W        W30483  43.490  31.433   0.529
58224W        W30484  41.995   6.946  12.625
58225W        W30485   3.274  24.009  12.735
58226W        W30486   6.048   4.233   0.777
58227W        W30487  16.635  43.469  13.620
58228W        W30488  13.249   8.730   4.529
58229W        W30489  34.495  14.220  11.559
58230W        W30490  38.475  34.216   1.708
58231W        W30491  29.301  21.815  10.480
58232W        W30492  34.591  14.271  13.916
58233W        W30493  43.458  23.245  11.087
58234W        W30494  14.857  15.314   2.806
58235W        W30495  28.444   6.809   3.902
58236W        W30496  35.297  14.612   1.902
58237W        W30497   9.751   3.216   3.271
58238W        W30498  12.677  20.781  12.058
58239W        W30499  28.076   7.734  12.775
58240W        W30500  18.588  22.034  13.019
58241W        W30501   0.872  37.786  12.558
58242W        W30502   3.525  36.378  14.582
58243W        W30503   0.878  14.061  11.603
58244W        W30504  10.309   0.858  13.694
58245W        W30505   0.715  20.382   0.479
58246W        W30506  22.672  16.730   3.744
58247W        W30507   4.739  20.590   2.933
58248W        W30508  26.728  41.834   0.572
58249W        W30509  31.104  21.999  11.756
58250W        W30510   6.395  20.065  13.476
58251W        W30511   7.745  36.698   0.762
58252W        W30512  18.316  42.907   0.879
58253W        W30513  31.669  20.142   1.337
58254W        W30514  26.552  42.578  10.848
58255W        W30515  33.930  37.788   1.825
58256W        W30516  18.693   3.437   3.116
58257W        W30517  22.966  39.107  14.704
58258W        W30518  19.326  41.248  12.192
58259W        W30519  39.527   2.326   4.980
58260W        W30520   6.082  41.315  12.322
58261W        W30521  42.386  33.898   0.290
58262W        W30522   8.691  16.669  12.594
58263W        W30523  36.686   5.507   2.917
58264W        W30524  37.370   2.786  14.377
58265W        W30525   1.484  15.141   2.455
58266W        W30526  37.499  28.487   2.808
58267W        W30527  25.628   0.290   4.631
58268W        W30528  28.531  33.440   2.858
58269W        W30529  31.533  32.571  10.289
58270W        W30530  26.222  28.669  12.488
58271W        W30531  35.058  12.840   1.848
58272W        W30532   4.445  19.553  12.010
58273W        W30533  27.487   1.492   3.381
58274W        W30534  30.762  21.194   4.079
58275W        W30535  37.394  39.993  12.658
58276W        W30536  27.093  24.214   4.617
58277W        W30537   5.191   3.224   1.738
58278W        W30538  41.012  22.014  11.135
58279W        W30539   8.677  38.274   2.390
58280W        W30540  35.810  24.547  14.046
58281W        W30541  13.094   6.563   4.994
58282W        W30542  41.543  41.633   3.262
58283W        W30543  13.043   4.216   0.666
58284W        W30544  27.626  21.589  10.528
58285W        W30545   8.553   6.941   1.920
58286W        W30546  20.449  20.514   1.771
58287W        W30547  36.605   6.920  14.449
58288W        W30548   6.667  27.668   2.086
58289W        W30549  34.099   0.482  12.877
58290W        W30550   4.000  39.185   0.944
58291W        W30551   9.207  38.850   5.084
58292W        W30552   5.757  40.084   0.096
58293W        W30553  39.255  31.059   2.770
58294W        W30554  28.516   1.387  12.389
58295W        W30555   0.270  43.497  11.848
58296W        W30556  29.681  36.282  10.696
58297W        W30557  37.010   5.916   0.781
58298W        W30558   5.822  23.412  14.445
58299W        W30559  20.762   1.565  12.488
58300W        W30560  41.216  22.201  14.427
58301W        W30561  16.841   0.359  12.032
58302W        W30562   4.351  18.365   1.856
58303W        W30563  23.329   0.184  13.467
58304W        W30564  23.552  11.210   0.993
58305W        W30565   5.905   6.143   3.076
58306W        W30566  34.628  32.567  12.133
58307W        W30567  27.852  17.709  12.964
58308W        W30568  11.720  16.835  10.977
58309W        W30569  36.414   8.989   2.215
58310W        W30570  14.724  16.052   1.226
58311W        W30571   1.388   8.712   1.820
58312W        W30572  20.052  22.760   0.435
58313W        W30573  40.125   2.397  14.026
58314W        W30574  23.438   0.414   1.694
58315W        W30575  31.384  36.396  11.913
58316W        W30576  29.811   6.430  12.397
58317W        W30577  18.603  44.248   0.279
58318W        W30578  19.658  27.653   2.200
58319W        W30579  34.466  22.512   0.528
58320W        W30580  13.100  25.079   1.047
58321W        W30581   0.016  19.584  11.656
58322W        W30582  44.444  23.348   0.923
58323W        W30583  13.839   1.226   4.577
58324W        W30584  23.834  11.145   3.777
58325W        W30585   3.205  41.463  11.115
58326W        W30586  14.013  15.236  11.142
58327W        W30587  15.324  35.147  11.951
58328W        W30588  10.812   2.693   0.706
58329W        W30589  11.044  40.037  12.088
58330W        W30590   7.715  12.852  14.105
58331W        W30591  19.554   6.258  12.080
58332W        W30592  36.820  25.697  14.892
58333W        W30593  21.625   1.755  12.151
58334W        W30594  35.047  20.113  14.185
58335W        W30595  43.301  22.034  12.562
58336W        W30596  13.697  32.106  11.500
58337W        W30597  23.822  17.209   0.802
58338W        W30598  20.908  37.819  12.346
58339W        W30599   1.276  10.111  12.730
58340W        W30600  32.443  24.745  11.178
58341W        W30601  26.513  23.972   4.068
58342W        W30602  40.437   9.134  14.673
58343W        W30603  27.014  19.169  12.254
58344W        W30604   9.346  11.066   3.755
58345W        W30605  18.503  41.796  14.394
58346W        W30606  27.378  26.115  12.752
58347W        W30607  19.091   1.431   4.064
58348W        W30608  33.385  23.973   1.394
58349W        W30609  33.831  22.007  14.773
58350W        W30610  34.216  28.633  14.792
58351W        W30611  26.519  21.978  13.857
58352W        W30612  39.237  38.783   4.204
58353W        W30613   2.486  39.089  11.191
58354W        W30614  44.527  23.610  12.426
58355W        W30615  21.568   8.045  13.880
58356W        W30616   7.831  35.180  14.654
58357W        W30617  17.690  14.755  10.636
58358W        W30618  32.038  16.321   2.722
58359W        W30619  27.973  12.793   3.590
58360W        W30620  28.395   1.804   3.626
58361W        W30621  37.558  30.067  13.740
58362W        W30622  30.429  37.514   1.349
58363W        W30623  29.537   2.222   4.170
58364W        W30624  33.498  25.624  13.036
58365W        W30625  33.557  42.325  13.356
58366W        W30626  21.351   5.900  11.793
58367W        W30627   9.745   6.413  12.962
58368W        W30628  13.564  14.855  14.967
58369W        W30629  21.280  10.719   3.299
58370W        W30630  16.742  38.389  13.567
58371W        W30631  15.114  37.647   2.328
58372W        W30632  25.036  39.750  11.678
58373W        W30633   5.125   3.643   9.873
58374W        W30634  30.774  18.569   1.910
58375W        W30635  27.154  13.701   4.055
58376W        W30636   8.265  23.043  14.490
58377W        W30637  23.967   1.802  12.292
58378W        W30638  31.636  43.876   0.991
58379W        W30639  18.722  38.557  13.472
58380W        W30640  14.160  18.677   3.002
58381W        W30641   9.849  44.182   4.773
58382W        W30642  10.202  24.872  10.220
58383W        W30643   3.505   5.360  10.605
58384W        W30644  24.156  42.446  13.986
58385W        W30645  44.812  36.669   1.162
58386W        W30646  29.069  12.917  13.179
58387W        W30647  43.875  29.714  13.697
58388W        W30648  15.462   6.405  14.836
58389W        W30649  38.001  25.423  14.313
58390W        W30650  19.399  12.723   3.908
58391W        W30651  12.676  43.503   4.077
58392W        W30652  18.325  42.788   2.656
58393W        W30653  35.492  21.121   4.079
58394W        W30654  25.908  24.123   3.194
58395W        W30655  36.020  23.788   4.590
58396W        W30656  27.365   3.867   3.544
58397W        W30657   9.244  33.339   3.230
58398W        W30658  40.123   6.737  10.994
58399W        W30659  16.092  14.708   9.857
58400W        W30660   5.977  12.257   4.659
58401W        W30661   7.732  39.946  12.432
58402W        W30662  15.172   5.921  10.912
58403W        W30663  40.324  32.129   1.363
58404W        W30664  29.503  10.290  13.850
58405W        W30665  26.549  24.574   2.862
58406W        W30666  11.295  40.167   0.359
58407W        W30667  22.197  18.117  13.052
58408W        W30668  26.115  33.756  11.123
58409W        W30669  15.525  13.138   0.907
58410W        W30670  41.884  23.044  10.384
58411W        W30671  40.490  14.972  13.406
58412W        W30672   8.172   6.989   2.286
58413W        W30673  33.347  24.216   3.260
58414W        W30674   3.824  26.031  13.599
58415W        W30675  23.023  39.317  12.943
58416W        W30676   3.505  34.345   2.332
58417W        W30677  36.318  15.590   0.079
58418W        W30678   8.104  31.578   2.159
58419W        W30679  44.465  28.093   1.869
58420W        W30680   4.400  30.446   0.004
58421W        W30681  32.028  27.537   3.815
58422W        W30682  26.164  17.733   1.900
58423W        W30683  16.113  12.108   1.410
58424W        W30684   5.726   3.359   0.844
58425W        W30685  43.435  10.095   0.990
58426W        W30686  44.993  18.065   5.095
58427W        W30687  12.771  33.753   1.895
58428W        W30688   1.697  26.444  10.025
58429W        W30689   6.859   8.685  12.134
58430W        W30690  22.704  25.083   2.222
58431W        W30691  35.264   4.855  14.163
58432W        W30692  27.092  33.064  11.153
58433W        W30693  40.539  29.256  14.131
58434W        W30694  28.014  32.620   1.184
58435W        W30695  27.344  15.143   1.468
58436W        W30696  32.307  16.161  12.357
58437W        W30697  30.255   5.590  14.509
58438W        W30698  24.940  30.891   3.168
58439W        W30699  25.232  41.031  11.114
58440W        W30700  11.103  22.516  10.896
58441W        W30701  19.173  38.595  13.854
58442W        W30702  37.839  23.580   0.797
58443W        W30703  41.557  23.574   4.629
58444W        W30704  28.669   9.314  11.546
58445W        W30705  20.618  21.120  14.948
58446W        W30706   5.167  25.240   0.797
58447W        W30707  38.191  12.420  12.806
58448W        W30708  14.066  21.628   0.507
58449W        W30709  13.752  24.625   1.445
58450W        W30710   1.985  36.584   1.726
58451W        W30711  19.153   0.020   2.823
58452W        W30712  16.737  22.474   2.199
58453W        W30713  24.269   2.835   3.775
58454W        W30714  21.731   6.182  11.611
58455W        W30715  19.536   8.796  13.934
58456W        W30716  44.593  43.784  10.805
58457W        W30717   5.067  28.652   2.310
58458W        W30718  23.417  27.851   3.654
58459W        W30719  15.965   8.693  14.309
58460W        W30720  37.280  15.154   3.305
58461W        W30721  24.025   7.816  12.053
58462W        W30722  12.709  11.145   3.811
58463W        W30723   3.858  12.235  10.728
58464W        W30724  22.717  39.047  12.422
58465W        W30725  18.655  33.499   2.226
58466W        W30726  13.659  16.801   1.037
58467W        W30727   8.723   8.361   4.601
58468W        W30728  20.706  13.178  13.804
58469W        W30729  26.076  31.865  13.997
58470W        W30730  32.316  23.987   4.267
58471W        W30731  36.402  33.648  13.344
58472W        W30732  37.392  24.190  14.517
58473W        W30733  33.342  41.002   3.118
58474W        W30734  41.466  11.596  11.116
58475W        W30735  16.761  28.231  12.929
58476W        W30736  38.385  42.180  14.511
58477W        W30737  12.726  16.075  12.059
58478W        W30738   0.053  36.670   0.186
58479W        W30739  31.836  36.623  14.557
58480W        W30740  42.939  30.866   0.680
58481W        W30741  35.382  39.705  13.774
58482W        W30742  18.140  30.413   2.789
58483W        W30743  29.032   7.597  12.276
58484W        W30744   3.421   6.800  13.865
58485W        W30745  15.538  26.128  12.411
58486W        W30746  36.932  16.731   2.286
58487W        W30747   7.396  16.067  13.800
58488W        W30748  17.565  41.881   2.663
58489W        W30749   0.427  26.026  14.349
58490W        W30750  40.521  42.181   1.229
58491W        W30751  41.711  38.238   2.206
58492W        W30752  20.565  39.556   2.647
58493W        W30753  42.893  10.742  12.118
58494W        W30754  30.228  22.305  14.208
58495W        W30755  24.750  26.029   2.347
58496W        W30756   7.009  27.025   0.995
58497W        W30757  18.145  39.084  12.170
58498W        W30758  26.574  15.484   4.104
58499W        W30759  13.781   9.284   4.474
58500W        W30760  13.858  11.585  13.281
58501W        W30761  42.733   6.880  11.924
58502W        W30762  20.784  16.980   3.500
58503W        W30763  20.085  33.175  13.997
58504W        W30764   9.313  30.135   3.695
58505W        W30765  28.676   7.901   1.677
58506W        W30766  23.806  17.579  14.446
58507W        W30767  18.999  12.655  11.971
58508W        W30768   3.269  40.890  12.956
58509W        W30769  12.084  20.129  11.927
58510W        W30770  43.869  11.661   0.276
58511W        W30771  10.362   6.982   2.415
58512W        W30772  12.849  24.174  14.459
58513W        W30773  44.845  36.436  14.780
58514W        W30774  19.763  10.866   4.125
58515W        W30775  33.596  42.777   2.389
58516W        W30776  17.629   7.495  11.158
58517W        W30777   9.139  20.107   1.744
58518W        W30778  44.286  35.027  13.833
58519W        W30779  14.869  39.865  12.436
58520W        W30780   7.184  36.487   2.706
58521W        W30781  42.889   5.689   0.277
58522W        W30782  11.056  37.830   1.827
58523W        W30783  42.403   9.419  11.858
58524W        W30784  10.081  36.173   4.268
58525W        W30785   7.738  30.021  12.858
58526W        W30786  14.373  37.429  12.647
58527W        W30787  21.028  23.321   1.933
58528W        W30788  41.650  34.549   5.059
58529W        W30789  33.806  25.514   3.664
58530W        W30790  14.067  42.854  10.811
58531W        W30791  25.348   7.197   4.566
58532W        W30792  30.041   6.310   3.845
58533W        W30793  15.653  41.442   4.617
58534W        W30794  22.230  10.772   0.701
58535W        W30795  20.167  37.079   0.064
58536W        W30796  40.977  34.959   4.406
58537W        W30797  42.903  30.178  13.247
58538W        W30798  11.572   5.353   2.316
58539W        W30799  39.797  34.089   3.656
58540W        W30800   8.881  15.583  12.784
58541W        W30801  31.436  29.974   4.684
58542W        W30802  27.171  36.853   2.755
58543W        W30803  23.694   6.173  13.900
58544W        W30804  18.766  11.603   4.610
58545W        W30805  10.777  29.978  14.672
58546W        W30806  28.200  14.100  13.296
58547W        W30807   2.706  39.959  12.948
58548W        W30808  32.674  20.996  10.576
58549W        W30809  26.224   0.866   2.203
58550W        W30810   5.151  41.545   1.141
58551W        W30811  31.077  31.370  13.891
58552W        W30812   9.757  19.688  13.761
58553W        W30813  11.899  21.810  11.938
58554W        W30814  28.496  43.405  11.204
58555W        W30815  24.211   4.336   0.717
58556W        W30816   5.343  24.160   4.049
58557W        W30817  19.478   3.253   3.766
58558W        W30818  20.230  37.853  11.510
58559W        W30819   1.396  18.791  10.756
58560W        W30820  10.003  25.659  12.503
58561W        W30821  43.063  23.481   2.310
58562W        W30822   9.788  29.081  13.901
58563W        W30823   5.719  38.799  10.871
58564W        W30824   3.504  26.136   1.357
58565W        W30825  23.402  19.174   5.625
58566W        W30826  16.756   2.564  13.024
58567W        W30827   3.724  31.626   4.578
58568W        W30828  37.931  41.846  14.416
58569W        W30829   8.841  35.537  13.169
58570W        W30830  34.944  21.000  11.513
58571W        W30831  13.767  29.862   3.817
58572W        W30832   0.723  26.099  12.833
58573W        W30833  17.821  44.576   3.790
58574W        W30834  42.229   4.394  14.441
58575W        W30835  35.521  36.010   3.191
58576W        W30836  26.467  15.236  11.702
58577W        W30837  33.667  22.654  13.023
58578W        W30838   9.386  10.834   3.291
58579W        W30839   5.919  12.076   1.691
58580W        W30840  40.455  24.998  11.033
58581W        W30841  25.500  10.133  14.262
58582W        W30842  29.930  23.395   0.905
58583W        W30843  31.626   6.172   1.352
58584W        W30844  38.818  27.544   2.136
58585W        W30845  37.484  35.017   0.868
58586W        W30846  43.220  17.709  11.559
58587W        W30847  19.845  28.673  14.863
58588W        W30848  25.583  27.931  10.723
58589W        W30849  16.756  38.423   2.037
58590W        W30850   7.054  19.189  14.358
58591W        W30851   1.936  14.886  12.062
58592W        W30852  41.030  34.387   3.755
58593W        W30853  19.966  24.717   3.859
58594W        W30854   4.299  11.184   4.500
58595W        W30855  12.836  39.364  13.368
58596W        W30856  39.514  21.253   4.034
58597W        W30857  11.735  22.228  11.096
58598W        W30858  22.567  14.167  13.552
58599W        W30859  28.760  23.934  13.299
58600W        W30860   9.656  10.079   3.454
58601W        W30861  33.146   1.200   4.538
58602W        W30862  12.238   3.703   3.593
58603W        W30863  30.144  29.986   2.948
58604W        W30864  29.872  26.678  10.819
58605W        W30865   6.994  43.418   2.275
58606W        W30866  20.792  32.524   2.923
58607W        W30867  38.523   9.559   5.405
58608W        W30868  21.685  22.682   1.778
58609W        W30869  35.346   1.975  10.381
58610W        W30870  28.401  11.309  11.547
58611W        W30871  28.217  10.918  13.063
58612W        W30872  34.152  22.555  12.115
58613W        W30873   1.052  29.588   4.203
58614W        W30874  17.302  17.319   4.765
58615W        W30875   2.815  24.708   4.639
58616W        W30876  31.212  23.936   0.440
58617W        W30877  24.008  17.088  13.083
58618W        W30878  26.411   9.329  14.322
58619W        W30879  41.448  27.893  11.111
58620W        W30880   3.741  16.698   3.105
58621W        W30881  27.510  26.967   1.536
58622W        W30882  32.910   8.446   4.280
58623W        W30883  18.156  24.080   3.597
58624W        W30884   9.851  12.395   1.740
58625W        W30885   0.747  31.038   0.791
58626W        W30886  26.470   0.351  11.122
58627W        W30887   0.879  27.928   2.886
58628W        W30888  25.660   0.674   3.780
58629W        W30889   6.335  13.850   0.726
58630W        W30890  13.933  20.572  12.499
58631W        W30891  26.753  29.381  12.667
58632W        W30892  30.671  36.249   2.476
58633W        W30893   8.188  22.903   0.823
58634W        W30894  26.728  38.493  13.234
58635W        W30895  21.253  22.266   4.970
58636W        W30896  19.641  17.072  13.569
58637W        W30897   9.681   1.839  11.765
58638W        W30898  43.776  24.409   4.132
58639W        W30899  13.201  36.270  12.378
58640W        W30900  44.509  11.182  12.975
58641W        W30901  38.861  41.507  10.641
58642W        W30902   7.318  27.648  12.421
58643W        W30903  31.923  15.635   4.122
58644W        W30904  27.035  37.097  11.501
58645W        W30905  34.560  11.876  11.646
58646W        W30906  32.953  43.295  13.592
58647W        W30907  30.100  19.975   4.165
58648W        W30908  43.738  12.277  12.998
58649W        W30909  14.623  23.164  14.285
58650W        W30910  21.411  42.330   2.731
58651W        W30911   5.347  38.391   4.527
58652W        W30912  12.075  40.290   2.797
58653W        W30913  31.914   9.906  13.373
58654W        W30914  25.336   5.974  12.061
58655W        W30915  13.795  25.192  11.585
58656W        W30916  42.042  19.180   0.816
58657W        W30917  39.192   4.789   0.370
58658W        W30918  44.985   4.659   3.312
58659W        W30919  20.942  22.180  11.814
58660W        W30920   2.314  42.299  13.368
58661W        W30921  16.284   0.300   3.811
58662W        W30922  28.976   3.274  10.829
58663W        W30923  21.027  14.469   3.887
58664W        W30924  38.025  18.628   1.321
58665W        W30925   2.607  38.962   4.555
58666W        W30926  37.057  13.758  14.918
58667W        W30927   6.903   7.513  13.803
58668W        W30928  17.556  23.918   2.891
58669W        W30929   4.696  34.367  14.490
58670W        W30930  11.314   2.693   3.643
58671W        W30931  23.179  25.431   4.750
58672W        W30932   8.443  35.875  14.184
58673W        W30933   6.257  38.908  14.580
58674W        W30934  37.143  19.132  12.483
58675W        W30935   0.747  15.132   3.095
58676W        W30936  32.378   4.414   1.299
58677W        W30937  35.437  22.763   3.720
58678W        W30938  25.122  24.999   2.816
58679W        W30939  10.126  18.638   1.626
58680W        W30940  44.287   0.881   0.713
58681W        W30941  27.579   4.329   3.337
58682W        W30942  37.449  22.464  10.698
58683W        W30943   8.287  19.211  10.689
58684W        W30944  23.880  31.981   4.905
58685W        W30945  44.248  10.308  11.713
58686W        W30946   5.568  22.027   0.870
58687W        W30947  23.554   5.985   0.202
58688W        W30948   7.697  16.017   3.386
58689W        W30949   7.408  34.116   3.983
58690W        W30950  25.310  40.403  14.891
58691W        W30951  40.946  23.004   1.255
58692W        W30952   0.898   6.960  11.008
58693W        W30953  24.410  14.709  14.534
58694W        W30954   9.202  37.885   4.087
58695W        W30955  19.872  16.990   3.150
58696W        W30956  12.179  15.854   2.781
58697W        W30957   4.188   2.015   0.880
58698W        W30958   8.571  12.740   2.901
58699W        W30959   2.136  28.484   0.062
58700W        W30960  42.295  41.973  14.316
58701W        W30961  26.967  10.433  11.920
58702W        W30962  38.277  14.818   2.729
58703W        W30963  25.059  17.258   1.896
58704W        W30964  38.314  36.588  13.930
58705W        W30965  36.098   8.185   0.460
58706W        W30966  27.036   5.827   1.635
58707W        W30967  37.001   3.671   4.679
58708W        W30968  11.951   8.593   4.319
58709W        W30969  28.320  35.443  11.975
58710W        W30970  25.554  35.394   2.893
58711W        W30971  38.330   5.586   3.727
58712W        W30972  25.813   5.979   3.299
58713W        W30973   5.066  44.839  12.718
58714W        W30974  17.323  18.131   0.376
58715W        W30975  39.524  44.895  11.565
58716W        W30976  35.312  43.750  14.241
58717W        W30977   2.418  17.800   0.053
58718W        W30978  14.287  37.565   3.774
58719W        W30979  39.800  44.486   4.691
58720W        W30980  16.337  33.080  13.290
58721W        W30981  26.439  38.356   4.402
58722W        W30982  19.016  36.236   4.309
58723W        W30983  29.571  37.896  13.400
58724W        W30984  23.597   0.379  10.517
58725W        W30985   1.872  44.933  13.732
58726W        W30986  32.386  30.672  11.695
58727W        W30987   4.817  40.083   0.355
58728W        W30988   6.853   7.941   2.272
58729W        W30989  14.314   8.767   0.332
58730W        W30990  10.280  26.226   4.317
58731W        W30991   4.197  13.320  11.109
58732W        W30992  22.462  23.931   5.019
58733W        W30993  18.090  25.461   3.823
58734W        W30994  35.194  19.292   1.236
58735W        W30995   9.619  26.430   0.913
58736W        W30996   9.372  27.780  12.438
58737W        W30997   3.804  35.680   2.173
58738W        W30998  35.176  26.290  10.677
58739W        W30999  29.645   3.847  13.590
58740W        W31000  33.439  21.220  10.986
58741W        W31001  20.541  12.324  10.661
58742W        W31002  41.276  11.122   2.382
58743W        W31003  15.759  39.264   4.558
58744W        W31004  36.117   8.923  13.540
58745W        W31005   7.005  30.878  11.593
58746W        W31006  31.474  11.113   1.711
58747W        W31007  29.442  26.066  11.197
58748W        W31008  40.980  15.310   3.237
58749W        W31009   1.456   6.485   0.023
58750W        W31010  24.166   2.708  14.357
58751W        W31011  26.329   1.809   1.244
58752W        W31012  38.082  30.577   4.497
58753W        W31013   1.352  30.055  12.528
58754W        W31014  30.137  20.709  11.116
58755W        W31015  26.711  17.143  13.040
58756W        W31016  37.467  21.534  10.889
58757W        W31017  16.304  43.535   4.287
58758W        W31018  14.619  44.310   2.439
58759W        W31019   8.168  21.037   3.958
58760W        W31020   1.518  39.506   0.681
58761W        W31021  10.263   2.837  14.338
58762W        W31022  28.426  37.637   4.587
58763W        W31023  30.175  36.826  11.709
58764W        W31024   4.169  32.082   2.434
58765W        W31025  40.885  42.851  12.999
58766W        W31026  28.930  36.162   4.547
58767W        W31027  36.957   8.449   2.899
58768W        W31028  11.851  27.043   0.055
58769W        W31029  10.331  29.421   0.892
58770W        W31030  10.811   6.227   2.269
58771W        W31031  30.987  28.256  10.763
58772W        W31032  40.351  21.479  10.742
58773W        W31033  34.213  11.819   1.296
58774W        W31034  10.130  41.325   1.641
58775W        W31035  39.370  39.112   0.034
58776W        W31036   5.865  30.946  14.146
58777W        W31037  21.166  20.179  11.010
58778W        W31038  27.438  14.063   1.472
58779W        W31039  14.729  20.585  12.929
58780W        W31040  40.781  27.129   4.333
58781W        W31041  17.102  28.417   4.694
58782W        W31042  18.331   6.509  13.847
58783W        W31043  31.986  38.103   1.728
58784W        W31044   6.868  10.726   1.979
58785W        W31045  19.286  44.345   1.043
58786W        W31046   3.475  12.947  13.404
58787W        W31047  37.456   3.566   2.381
58788W        W31048  40.990  21.022   3.178
58789W        W31049  31.514  38.316  10.812
58790W        W31050  36.216  28.628  14.988
58791W        W31051  13.428  21.657  14.886
58792W        W31052  14.496  22.589   0.316
58793W        W31053  10.219   0.015   2.776
58794W        W31054  10.612  26.580   4.909
58795W        W31055  15.909   9.345   3.251
58796W        W31056  29.489  14.063   2.768
58797W        W31057  21.514  26.532   1.655
58798W        W31058   1.396   8.224   4.128
58799W        W31059   7.923  31.992   2.475
58800W        W31060  16.014  28.740  14.076
58801W        W31061  43.859  15.932  14.040
58802W        W31062  33.963   8.483  11.146
58803W        W31063  10.360  19.448   0.877
58804W        W31064   8.367  33.047  13.335
58805W        W31065  25.501  11.264  12.537
58806W        W31066  29.030   8.331  11.544
58807W        W31067   9.585  22.879   2.374
58808W        W31068  40.780  31.436   3.167
58809W        W31069  13.125  35.605   3.463
58810W        W31070  21.247  17.568   2.430
58811W        W31071   8.798  25.276   0.966
58812W        W31072  23.281  37.849   4.635
58813W        W31073  27.149  38.636  14.018
58814W        W31074  40.427  32.643  14.911
58815W        W31075  24.482  31.378  12.985
58816W        W31076  38.591  16.211   2.829
58817W        W31077   0.740  25.718   0.839
58818W        W31078  22.338  38.460   1.346
58819W        W31079  19.568  37.624  12.895
58820W        W31080  18.655  12.152   1.129
58821W        W31081  32.582  29.950   0.574
58822W        W31082  18.268  42.518   3.114
58823W        W31083   8.506  27.530  14.825
58824W        W31084   6.058   1.835   3.191
58825W        W31085  13.357  25.227   1.769
58826W        W31086  31.445  44.883  12.928
58827W        W31087   7.348  29.510   0.231
58828W        W31088   3.166  43.258  14.298
58829W        W31089  11.653  23.198  10.951
58830W        W31090  32.303  22.594  14.306
58831W        W31091   8.170  43.814  13.028
58832W        W31092  36.084  26.633  13.035
58833W        W31093  10.229  31.015  13.549
58834W        W31094  10.594  11.342   3.213
58835W        W31095  42.915  23.606   2.818
58836W        W31096  20.308  27.880  14.868
58837W        W31097  38.015  43.007   2.033
58838W        W31098  41.052  44.294  11.215
58839W        W31099  22.730  39.752  12.777
58840W        W31100   7.010  17.308   1.205
58841W        W31101   0.051  34.947  14.953
58842W        W31102   7.685  23.598   4.647
58843W        W31103  15.364  14.355  10.199
58844W        W31104   0.200  24.477   3.354
58845W        W31105  13.907   4.716   1.353
58846W        W31106  16.311   8.929  13.469
58847W        W31107   7.840  33.018   3.279
58848W        W31108  31.630  17.233   4.639
58849W        W31109  39.104   2.062  10.769
58850W        W31110  15.304  15.305   0.942
58851W        W31111  18.156   4.444   1.156
58852W        W31112  40.835  15.342  13.135
58853W        W31113   2.224  30.599   3.834
58854W        W31114  14.172  26.240   4.391
58855W        W31115  23.648  24.074  13.622
58856W        W31116  24.929  35.920   2.881
58857W        W31117  28.166  34.336  12.652
58858W        W31118  27.839  11.687   4.941
58859W        W31119  36.021  38.656  11.112
58860W        W31120  27.102  44.780   3.161
58861W        W31121  14.613  43.470   1.862
58862W        W31122   1.641   2.524  14.486
58863W        W31123  11.224  32.308   3.747
58864W        W31124  31.018  18.351  14.446
58865W        W31125  40.572  14.642  11.653
58866W        W31126  17.968  37.168  14.912
58867W        W31127  44.912  15.236   0.710
58868W        W31128  39.740   5.953  14.429
58869W        W31129   2.260  24.004   1.338
58870W        W31130  40.742  18.725  14.891
58871W        W31131   7.935   3.433   3.202
58872W        W31132  16.557  21.041   2.196
58873W        W31133   2.284  10.910   1.908
58874W        W31134  14.790  44.191  11.056
58875W        W31135  29.559  28.414  14.407
58876W        W31136   7.095  28.859   2.308
58877W        W31137  24.770  23.977   2.729
58878W        W31138  18.128  32.799   2.343
58879W        W31139   3.962   6.757   3.173
58880W        W31140  20.144  16.361   2.360
58881W        W31141  34.289  22.972  14.830
58882W        W31142  23.076  14.451   1.445
58883W        W31143  21.138   9.401  12.548
58884W        W31144   0.028  18.067   3.671
58885W        W31145  43.767  10.297  12.319
58886W        W31146  13.516   3.904  13.142
58887W        W31147  17.191  11.803   3.119
58888W        W31148  18.716  31.047  10.893
58889W        W31149  32.892  11.316  12.495
58890W        W31150  21.255  39.343   4.694
58891W        W31151  11.033  19.256  14.054
58892W        W31152  19.213  25.062  12.892
58893W        W31153   4.828  42.509   1.952
58894W        W31154  13.379  13.297  13.008
58895W        W31155  31.679   5.317  10.442
58896W        W31156  16.782  37.300  11.115
58897W        W31157  16.234  25.289   1.773
58898W        W31158   4.717  17.742   2.356
58899W        W31159   1.217  11.309  11.002
58900W        W31160  34.650  17.594  11.676
58901W        W31161  31.605  25.014  14.006
58902W        W31162   9.227  11.395  11.954
58903W        W31163  39.169  33.392   3.185
58904W        W31164   9.129  43.959  12.999
58905W        W31165  19.307  33.710  14.638
58906W        W31166   4.972  12.806   3.710
58907W        W31167  21.147  37.359  12.401
58908W        W31168  13.186  18.973  10.971
58909W        W31169  23.103  38.278   3.528
58910W        W31170  22.652   7.987   4.819
58911W        W31171  26.825  35.260  13.441
58912W        W31172   1.816   5.304  13.394
58913W        W31173  26.514  28.491  14.339
58914W        W31174  24.577  32.729   2.109
58915W        W31175   3.889  38.504   1.474
58916W        W31176  37.179   5.792   3.160
58917W        W31177  36.643  17.805   4.165
58918W        W31178  17.884  11.848   4.731
58919W        W31179  23.129  25.138  14.727
58920W        W31180  31.180  15.304   2.329
58921W        W31181   2.170  29.980  11.988
58922W        W31182  12.283   8.210   4.170
58923W        W31183  11.619   0.449  11.738
58924W        W31184  41.386   2.309   4.528
58925W        W31185  18.379  13.692   0.931
58926W        W31186  41.071   3.627  13.915
58927W        W31187  25.872   0.572   0.337
58928W        W31188   7.614  27.703   4.207
58929W        W31189  32.262  20.416   2.769
58930W        W31190   3.546  12.762   1.638
58931W        W31191  27.221   2.769   4.192
58932W        W31192  33.845  36.965  12.006
58933W        W31193   3.931  27.467  14.000
58934W        W31194  44.075  11.122   3.657
58935W        W31195  42.437  31.012   0.474
58936W        W31196   0.247  35.030  13.568
58937W        W31197   8.494  36.574  13.950
58938W        W31198   6.747  15.581  13.476
58939W        W31199  18.764  32.462  14.503
58940W        W31200   4.199  35.971  13.344
58941W        W31201  34.581  32.130   1.353
58942W        W31202   6.833  41.909   0.251
58943W        W31203  27.474  15.541   3.672
58944W        W31204   1.805  38.926  13.557
58945W        W31205  16.398   7.511  11.123
58946W        W31206  40.098  18.773  11.053
58947W        W31207   9.807   9.233   2.198
58948W        W31208   6.693   0.048  13.848
58949W        W31209  14.770  34.852  14.621
58950W        W31210  34.878  16.240   1.948
58951W        W31211  12.866  31.077   1.360
58952W        W31212  36.375  43.749   0.732
58953W        W31213  35.782  13.147   4.144
58954W        W31214  38.980  24.973  12.067
58955W        W31215  13.786   9.717   2.124
58956W        W31216   0.848  38.141   0.377
58957W        W31217   1.808  18.435  10.694
58958W        W31218   6.055  44.629  13.608
58959W        W31219  21.641  18.222  14.122
58960W        W31220   1.742  26.695  14.384
58961W        W31221  29.923  38.941  13.908
58962W        W31222  28.533   2.180   2.550
58963W        W31223   1.782  15.530  13.396
58964W        W31224  20.158  33.593   4.585
58965W        W31225  19.207  12.182  12.052
58966W        W31226   8.873   9.734   4.368
58967W        W31227  30.899  16.198  10.610
58968W        W31228   9.151  33.849  10.286
58969W        W31229   5.237  27.135  12.965
58970W        W31230  24.471   6.225  14.374
58971W        W31231  13.830  21.534   1.971
58972W        W31232  25.483  40.616   1.207
58973W        W31233  27.433  21.601   3.177
58974W        W31234  34.842   9.206  12.406
58975W        W31235   5.207  33.992   4.738
58976W        W31236   2.910  21.611  13.577
58977W        W31237  41.889   5.942  11.547
58978W        W31238  24.599  43.791   2.775
58979W        W31239   6.389  13.636  13.273
58980W        W31240  39.804  24.795   0.759
58981W        W31241  11.379  42.443  11.208
58982W        W31242  29.623  37.796  10.615
58983W        W31243  12.528  38.722  14.210
58984W        W31244   6.304  44.373  14.659
58985W        W31245  35.662   2.076  11.650
58986W        W31246  44.261  11.695  11.013
58987W        W31247   3.453  32.965   2.543
58988W        W31248  10.905  32.505   4.145
58989W        W31249  36.095  27.556  13.081
58990W        W31250  44.257  26.659  14.387
58991W        W31251  28.096  25.534  11.611
58992W        W31252  17.574  19.114  11.053
58993W        W31253  26.496   1.054   4.227
58994W        W31254  21.941  28.047  14.447
58995W        W31255  29.167  24.806  13.579
58996W        W31256  36.902  34.128   4.966
58997W        W31257  16.233  35.625  10.634
58998W        W31258  41.382   2.447  10.693
58999W        W31259  40.650  27.586  10.768
59000W        W31260   7.169   9.832  14.533
59001W        W31261  21.755   7.072  12.391
59002W        W31262  26.009  21.783   4.069
59003W        W31263  40.216   2.127   3.799
59004W        W31264  11.835  26.863   2.272
59005W        W31265  16.723  39.833  14.797
59006W        W31266   5.158  20.083  14.025
59007W        W31267  36.367  22.058  11.425
59008W        W31268  23.613  39.532   0.380
59009W        W31269   8.626   3.296  10.702
59010W        W31270  24.120  13.371  10.694
59011W        W31271   7.156  36.880  11.617
59012W        W31272  31.877  40.779   0.441
59013W        W31273  32.143  38.107   4.152
59014W        W31274   2.527  11.200  11.367
59015W        W31275  44.289   9.359  13.819
59016W        W31276   3.619  13.270  11.012
59017W        W31277  20.031  27.046  13.429
59018W        W31278  33.454  34.133   0.673
59019W        W31279  22.366  21.400   1.976
59020W        W31280   8.788  31.574  14.280
59021W        W31281  19.618  38.962  12.314
59022W        W31282  42.935  24.219   5.088
59023W        W31283  36.994  20.698  13.568
59024W        W31284  24.914   8.278  12.864
59025W        W31285  17.977   0.426   0.316
59026W        W31286   8.620  41.184   2.653
59027W        W31287   2.555  43.675   1.939
59028W        W31288   0.076  30.561   0.651
59029W        W31289  13.089  10.791  11.752
59030W        W31290  12.189  14.343  13.031
59031W        W31291   4.248   3.967   4.130
59032W        W31292  19.616  22.107   1.288
59033W        W31293  42.700  21.593   2.266
59034W        W31294  11.263  30.886  12.124
59035W        W31295  19.580  43.481  14.050
59036W        W31296  19.357   7.753   2.421
59037W        W31297   0.421   4.776   3.587
59038W        W31298  10.467  15.627  14.885
59039W        W31299  20.047  36.541   3.425
59040W        W31300  42.380  19.050  12.763
59041W        W31301  36.050  34.538   2.019
59042W        W31302   9.704  38.962  12.932
59043W        W31303   5.892   4.694  14.402
59044W        W31304  27.257  27.447   1.677
59045W        W31305  15.045  18.349   0.989
59046W        W31306  29.691  15.304  13.466
59047W        W31307   0.888  17.009   4.733
59048W        W31308  18.811  28.525   3.214
59049W        W31309  17.123  28.247  14.972
59050W        W31310  38.846  40.634   3.318
59051W        W31311   7.670  42.822   0.701
59052W        W31312  16.132   2.120   1.624
59053W        W31313  33.688   6.255   0.346
59054W        W31314  12.897  14.745  14.069
59055W        W31315  16.425  30.487   3.621
59056W        W31316  28.163  44.314  14.579
59057W        W31317  39.039  32.478  11.132
59058W        W31318  41.747  30.526   1.238
59059W        W31319  12.644  13.978   0.333
59060W        W31320  33.506  18.001  14.016
59061W        W31321  40.574  27.480   2.827
59062W        W31322   8.685  20.238   4.548
59063W        W31323   5.814  26.563  14.370
59064W        W31324  29.173   3.246   0.905
59065W        W31325  40.043  21.343  12.686
59066W        W31326  36.329  26.890   3.288
59067W        W31327   4.854   3.679   4.355
59068W        W31328  36.063  20.073  10.703
59069W        W31329  23.047  16.201  12.470
59070W        W31330   7.965   9.183   1.840
59071W        W31331   1.924  10.266  12.001
59072W        W31332   2.960  28.094   4.841
59073W        W31333  43.785   5.252  10.873
59074W        W31334  30.974  41.327   2.755
59075W        W31335  36.590   1.695  11.415
59076W        W31336  25.639   7.223  14.737
59077W        W31337  44.824  30.602   0.203
59078W        W31338  33.511  19.872   9.766
59079W        W31339  36.847   3.179  12.079
59080W        W31340  15.248  41.878   1.617
59081W        W31341   7.313  26.008  11.904
59082W        W31342  33.316  19.154   3.849
59083W        W31343  42.543  37.215  14.311
59084W        W31344   4.277  30.245  13.787
59085W        W31345   3.500  23.936  12.282
59086W        W31346  22.714   8.894  13.523
59087W        W31347  39.950  33.211   2.452
59088W        W31348  21.058  14.801  11.359
59089W        W31349  19.021  44.685   2.349
59090W        W31350  18.690  40.769  14.800
59091W        W31351   4.624   5.960   4.099
59092W        W31352  40.386  36.044   0.767
59093W        W31353  38.093  19.547  12.999
59094W        W31354   6.400  36.071   4.335
59095W        W31355  35.525   2.061   3.834
59096W        W31356  29.982  14.020  14.436
59097W        W31357   4.698  43.974  12.203
59098W        W31358  25.180  35.171  13.168
59099W        W31359  34.463  26.703  12.298
59100W        W31360  41.148   6.294  11.224
59101W        W31361   4.485  20.704   1.264
59102W        W31362  38.490   7.836   0.337
59103W        W31363  41.846   6.882  14.872
59104W        W31364   0.869  21.786   4.325
59105W        W31365   8.787  25.327   2.769
59106W        W31366  11.562   2.892   3.158
59107W        W31367  13.056  13.327  10.989
59108W        W31368  23.463  29.902  13.282
59109W        W31369  11.719  11.755  14.281
59110W        W31370  23.554   2.014  11.525
59111W        W31371  30.620   1.482   4.802
59112W        W31372  27.946   1.513  13.994
59113W        W31373  15.488   6.665   1.595
59114W        W31374  26.889  29.741   4.123
59115W        W31375  23.657  35.914   1.251
59116W        W31376   5.493  15.346   0.397
59117W        W31377  43.750  33.566  14.585
59118W        W31378  25.542  32.946  13.063
59119W        W31379  34.636  34.321  13.565
59120W        W31380  12.056   1.483   3.172
59121W        W31381  42.964  21.089  11.428
59122W        W31382  11.910  31.684  12.440
59123W        W31383   1.958  17.094   0.573
59124W        W31384   2.337  15.322  13.029
59125W        W31385  26.367  27.564  13.212
59126W        W31386  27.389  40.672  10.254
59127W        W31387  23.308  23.612  12.094
59128W        W31388   6.338   5.386  14.402
59129W        W31389   2.267  44.546   1.894
59130W        W31390  11.867  11.790   3.273
59131W        W31391   7.226  20.666   0.473
59132W        W31392  36.077  40.735   3.701
59133W        W31393   2.710  20.974   2.175
59134W        W31394  31.372  14.316  13.412
59135W        W31395  37.329  23.371  11.197
59136W        W31396  34.075   5.294  12.852
59137W        W31397  16.551  37.710   3.630
59138W        W31398  23.220  14.762   1.034
59139W        W31399   2.945  31.880  13.413
59140W        W31400  42.220  19.992  10.811
59141W        W31401  40.797  19.534   4.910
59142W        W31402  24.789  25.894  11.384
59143W        W31403  41.508  10.310  10.693
59144W        W31404  38.159  38.702  10.081
59145W        W31405  39.347  11.514  12.029
59146W        W31406   7.798   2.032   4.800
59147W        W31407  38.111  13.106   4.406
59148W        W31408  12.619  32.644   4.219
59149W        W31409  17.642  28.926  14.324
59150W        W31410  24.501  19.488   4.013
59151W        W31411   1.405  41.437   4.369
59152W        W31412  18.313  36.499  11.062
59153W        W31413  36.629  35.342  11.159
59154W        W31414  19.966  24.522  14.864
59155W        W31415  32.871  32.798  13.839
59156W        W31416  11.756  17.975  14.437
59157W        W31417  29.499  26.706   5.099
59158W        W31418  43.331  15.136   4.373
59159W        W31419   9.388   1.278  14.794
59160W        W31420  31.671  35.607  12.525
59161W        W31421  31.622   6.525  12.052
59162W        W31422  38.654  30.420   1.242
59163W        W31423   8.849  18.311  12.102
59164W        W31424  17.120  13.670  13.991
59165W        W31425  30.534  37.052  14.843
59166W        W31426  40.980   0.411   3.610
59167W        W31427   8.921   4.248  10.988
59168W        W31428  26.498  44.055  10.333
59169W        W31429  23.274   5.022   3.115
59170W        W31430  31.652  33.446  11.519
59171W        W31431  13.851  13.894   0.691
59172W        W31432  40.701  35.707  13.310
59173W        W31433   6.255  36.495   4.093
59174W        W31434  11.919  41.317   2.635
59175W        W31435   9.403  44.364  14.280
59176W        W31436  38.806  35.327  10.602
59177W        W31437  21.026  39.036   3.058
59178W        W31438  43.078  36.338   3.738
59179W        W31439  31.598  19.329  12.093
59180W        W31440  15.164  39.296   3.315
59181W        W31441   5.308  32.574  13.139
59182W        W31442  21.655  36.970   0.487
59183W        W31443  42.973  38.309  14.460
59184W        W31444  19.066  36.458   2.295
59185W        W31445  16.155  33.414   2.779
59186W        W31446   5.400  29.502   2.272
59187W        W31447  15.028   0.745  14.367
59188W        W31448  13.174  30.907  10.721
59189W        W31449  40.370  41.493   4.567
59190W        W31450  15.600  28.035  14.165
59191W        W31451  21.658  42.259  11.142
59192W        W31452   2.262  19.595   0.847
59193W        W31453  28.591  41.388  13.590
59194W        W31454  40.384   0.250  14.898
59195W        W31455  38.891  40.096  13.412
59196W        W31456  37.863  34.500  14.235
59197W        W31457   8.115  26.537  14.935
59198W        W31458  16.489  26.241   3.820
59199W        W31459  10.820   3.809   3.271
59200W        W31460   0.411  37.294   3.736
59201W        W31461  17.679  41.249  14.037
59202W        W31462  35.037   1.606   0.864
59203W        W31463   2.335  22.271   4.443
59204W        W31464  40.544  10.729  10.735
59205W        W31465  34.947  16.502  12.997
59206W        W31466  30.933   8.498   1.897
59207W        W31467  16.648  24.150  14.575
59208W        W31468  40.154  22.009   1.082
59209W        W31469  22.491  26.523  10.162
59210W        W31470  29.200   8.398   0.937
59211W        W31471  24.273  26.035   2.131
59212W        W31472  29.520  16.762  14.372
59213W        W31473  44.732   7.348  14.010
59214W        W31474  17.351  40.092  11.579
59215W        W31475  17.716  34.076  11.163
59216W        W31476   2.411  25.449  14.347
59217W        W31477  21.112  14.819  11.905
59218W        W31478   8.199   6.700  12.888
59219W        W31479  16.147  12.679   4.660
59220W        W31480   0.337  42.621  13.418
59221W        W31481  32.142  15.140  10.799
59222W        W31482  22.774  24.393  14.458
59223W        W31483  28.398  15.100   0.282
59224W        W31484  22.549  41.048   4.917
59225W        W31485  37.122  12.264   2.443
59226W        W31486  44.916  23.238   3.654
59227W        W31487   1.917  43.065   1.871
59228W        W31488   4.346  24.491   4.153
59229W        W31489  24.273  27.943   5.037
59230W        W31490  43.175  29.145   4.253
59231W        W31491  44.263  37.286   4.066
59232W        W31492  16.213  16.813   5.113
59233W        W31493  11.169  31.067   3.642
59234W        W31494  35.360   6.766   1.198
59235W        W31495  39.545  32.630   3.624
59236W        W31496   4.326  32.899  11.680
59237W        W31497  11.202  15.573  14.363
59238W        W31498  17.318  10.896  13.760
59239W        W31499   7.815  42.008   0.300
59240W        W31500  10.909  44.320   2.863
59241W        W31501  34.998  31.882   4.079
59242W        W31502   6.552   0.755  12.645
59243W        W31503   0.461  37.260  13.290
59244W        W31504  31.337  37.934  11.590
59245W        W31505  35.285  31.571  13.385
59246W        W31506   7.796  27.442  12.427
59247W        W31507  37.070   4.288   0.505
59248W        W31508  33.591  29.111  12.113
59249W        W31509   6.535  15.253   0.966
59250W        W31510  22.496  27.038   0.924
59251W        W31511  37.432  21.027   4.779
59252W        W31512  39.010   5.006  10.854
59253W        W31513  36.772  16.598   4.120
59254W        W31514  41.531  11.191  11.577
59255W        W31515   4.636   4.867   2.321
59256W        W31516  43.747   0.853   0.735
59257W        W31517  22.494  27.565   1.811
59258W        W31518  32.617   9.226   3.779
59259W        W31519  15.241  23.225  13.623
59260W        W31520  17.541   8.706   0.681
59261W        W31521  24.286  27.205   4.035
59262W        W31522  22.692   9.643   1.692
59263W        W31523  35.578  11.629   0.201
59264W        W31524  32.494  15.753   0.639
59265W        W31525  17.502  21.210  13.152
59266W        W31526  19.797  32.423   2.382
59267W        W31527  13.407  11.292   4.703
59268W        W31528   5.882   5.425  13.235
59269W        W31529   6.978  16.933  13.938
59270W        W31530  34.049  27.921  12.326
59271W        W31531  40.436  12.115   4.561
59272W        W31532  38.135  11.597   0.149
59273W        W31533  43.808  17.264   4.520
59274W        W31534  44.819  23.612   2.191
59275W        W31535  44.346  38.314  12.036
59276W        W31536  35.799  34.567   3.623
59277W        W31537  15.066  31.110   1.425
59278W        W31538  31.150  43.806   2.972
59279W        W31539  27.146   6.659   4.224
59280W        W31540  33.559   0.300  13.419
59281W        W31541  41.446  17.772  14.535
59282W        W31542  30.358  17.255  13.418
59283W        W31543  40.569  41.412  12.944
59284W        W31544  38.843  36.041   1.215
59285W        W31545   0.244   9.699   1.886
59286W        W31546  41.578   0.739  13.347
59287W        W31547   3.112  14.674  11.500
59288W        W31548  44.952  26.068  14.099
59289W        W31549  30.401  28.195   1.751
59290W        W31550   3.065  13.611   3.865
59291W        W31551  43.958  40.529  11.942
59292W        W31552  13.262  40.827  12.460
59293W        W31553  33.597  44.469   0.883
59294W        W31554  38.624   0.293   2.504
59295W        W31555  31.040  39.076  10.683
59296W        W31556  16.128  14.120   3.352
59297W        W31557  21.613  19.102  13.930
59298W        W31558  12.308  10.735   3.211
59299W        W31559  26.611  41.851   2.125
59300W        W31560   0.719  36.126  11.650
59301W        W31561  17.064  15.630  14.014
59302W        W31562  17.324  10.651  14.580
59303W        W31563  36.995  20.592  14.483
59304W        W31564  31.850  11.944   2.269
59305W        W31565  12.891  41.306   1.043
59306W        W31566  41.302  42.845  10.973
59307W        W31567  42.409  30.051   1.438
59308W        W31568  11.962  12.578   0.834
59309W        W31569   1.518  29.422   2.430
59310W        W31570   7.898  18.663  11.384
59311W        W31571   5.925  44.899  11.038
59312W        W31572  14.137  32.892  14.686
59313W        W31573  33.396  11.570   3.577
59314W        W31574  18.761  26.758   2.822
59315W        W31575   1.453   9.425  14.019
59316W        W31576  23.992  17.496  12.106
59317W        W31577  24.721  28.116  14.068
59318W        W31578  18.131  28.220  12.055
59319W        W31579  22.553   2.748  11.086
59320W        W31580  43.006  34.213  13.669
59321W        W31581  19.498  13.550  12.101
59322W        W31582  38.701   5.893  14.386
59323W        W31583  41.491  18.589  12.981
59324W        W31584   1.211  33.660  14.426
59325W        W31585   1.005  34.435   4.146
59326W        W31586   9.816  30.458  12.225
59327W        W31587  28.480  14.661   4.620
59328W        W31588   4.731  24.444  10.456
59329W        W31589   5.918  22.450   0.866
59330W        W31590  36.054   0.692  12.975
59331W        W31591  27.853  29.903   1.731
59332W        W31592  20.548  37.849  10.661
59333W        W31593  30.932  33.729   0.218
59334W        W31594  28.182  25.259  14.286
59335W        W31595  28.699  40.438   4.231
59336W        W31596  19.187  10.166   3.719
59337W        W31597  23.292  43.903  12.979
59338W        W31598  25.514  24.282   0.077
59339W        W31599  38.379  24.540  12.592
59340W        W31600  39.197  35.050  14.567
59341W        W31601   9.073  34.475  11.140
59342W        W31602  38.598  33.181   1.485
59343W        W31603  14.367  36.153  12.187
59344W        W31604  11.656  10.554  12.178
59345W        W31605  15.816  39.539  14.084
59346W        W31606  15.652   4.019   3.100
59347W        W31607   5.404  13.621  11.366
59348W        W31608  15.150   8.889  10.572
59349W        W31609  10.867  43.726   1.646
59350W        W31610   4.069  36.455  11.074
59351W        W31611  12.849  36.598  14.486
59352W        W31612  30.492  14.608   0.097
59353W        W31613  30.878  38.943   3.900
59354W        W31614  12.153  10.597   1.180
59355W        W31615  24.234  11.789  10.712
59356W        W31616  33.900  33.196  12.398
59357W        W31617  28.883  41.515   4.108
59358W        W31618  10.839  36.343   4.582
59359W        W31619  43.231  20.506  10.733
59360W        W31620   9.709  42.738   4.667
59361W        W31621  43.159  24.025   0.665
59362W        W31622   9.981  22.280  12.135
59363W        W31623  43.156  12.093  12.025
59364W        W31624  37.667  18.261   2.232
59365W        W31625  17.708   9.504  12.573
59366W        W31626  27.211   0.793  11.736
59367W        W31627  27.871  31.517  10.167
59368W        W31628  14.667  29.870  11.828
59369W        W31629   3.061  31.296   2.865
59370W        W31630  15.021  33.881   2.192
59371W        W31631  29.696  12.437  11.713
59372W        W31632  37.458  21.085   1.727
59373W        W31633  16.532  30.595  10.712
59374W        W31634   3.012  35.840  12.025
59375W        W31635  44.464  38.388  10.161
59376W        W31636  16.390  39.282   1.723
59377W        W31637  27.565  32.634  13.785
59378W        W31638  17.767  28.717  12.943
59379W        W31639   3.177  13.636  14.105
59380W        W31640  24.240  11.833   4.131
59381W        W31641  26.472  21.781   2.974
59382W        W31642  42.222  30.615   3.115
59383W        W31643  14.353  18.575  13.463
59384W        W31644  19.307  43.857   1.233
59385W        W31645  37.173  16.585  12.261
59386W        W31646  15.624  20.575  11.104
59387W        W31647  28.636  29.453   3.127
59388W        W31648  17.258  30.781  11.597
59389W        W31649  20.718  40.377   2.677
59390W        W31650  40.022  23.508   2.753
59391W        W31651  21.637  11.184   0.487
59392W        W31652  15.696  20.044   4.163
59393W        W31653  42.421  12.718  13.743
59394W        W31654   3.173  29.600   2.260
59395W        W31655   5.016   5.743   0.988
59396W        W31656  10.371   2.716  13.378
59397W        W31657  25.404  43.487  12.507
59398W        W31658   2.565  32.571   0.447
59399W        W31659  32.532  42.859  11.725
59400W        W31660  36.467  23.218   2.832
59401W        W31661  44.846  13.386   1.938
59402W        W31662  41.423  39.057   4.560
59403W        W31663  32.512  12.323   1.239
59404W        W31664  16.717  25.496   1.763
59405W        W31665  43.585  20.591   3.618
59406W        W31666  24.549  33.772   4.684
59407W        W31667  41.427  28.941  12.085
59408W        W31668   9.770  11.427  13.345
59409W        W31669   4.430  32.537  13.288
59410W        W31670   9.569  21.424   5.070
59411W        W31671  31.157  11.304  11.882
59412W        W31672  40.543  38.651   2.873
59413W        W31673  42.870   3.684  10.798
59414W        W31674  39.485   1.837   2.284
59415W        W31675  13.616  44.221   0.269
59416W        W31676  31.590  18.685   0.852
59417W        W31677  13.668  26.031  12.010
59418W        W31678  37.113  42.338   2.964
59419W        W31679  32.194  23.957   1.355
59420W        W31680  23.230  44.463   1.664
59421W        W31681  13.642   1.388  13.020
59422W        W31682  26.157  21.562   1.395
59423W        W31683   9.217   7.203  13.804
59424W        W31684  13.050  15.584   1.376
59425W        W31685  40.560  28.671   4.685
59426W        W31686   3.454  28.636   3.124
59427W        W31687  37.342  15.808  12.931
59428W        W31688  40.980  44.062  13.102
59429W        W31689  32.015  38.049  13.458
59430W        W31690  21.163  18.172   3.800
59431W        W31691  15.555  33.261  11.876
59432W        W31692  14.316  37.309   1.213
59433W        W31693  14.924  36.062   2.016
59434W        W31694   0.379  44.862  11.178
59435W        W31695  29.371  19.251  10.744
59436W        W31696  26.464  36.477   1.551
59437W        W31697  41.265  40.008  12.996
59438W        W31698   0.278  33.164  10.613
59439W        W31699  39.553   6.248   2.674
59440W        W31700  27.876  30.743  10.173
59441W        W31701   4.856  12.102  10.740
59442W        W31702  31.723   1.478  14.296
59443W        W31703  38.366  29.851  13.973
59444W        W31704   0.033  22.472   2.825
59445W        W31705   1.915  32.187   0.233
59446W        W31706  24.128  41.183  13.278
59447W        W31707   2.508  39.404  11.636
59448W        W31708  30.431  36.052   3.204
59449W        W31709  31.237   4.934   1.877
59450W        W31710  33.360   1.432   3.770
59451W        W31711   0.871  26.685   9.859
59452W        W31712   8.856  26.467   3.703
59453W        W31713  10.894  40.797   4.042
59454W        W31714  31.858  39.039   0.918
59455W        W31715  32.653  20.794   2.870
59456W        W31716  37.286   5.274   1.361
59457W        W31717  10.382  12.543  11.169
59458W        W31718  17.357   6.853   0.285
59459W        W31719  39.637  13.644  14.484
59460W        W31720  29.369   8.453  11.154
59461W        W31721  29.251  32.728  12.062
59462W        W31722   4.743  19.553   0.158
59463W        W31723   1.254   7.779  12.070
59464W        W31724  44.258  43.830  13.880
59465W        W31725  24.012  22.483  12.477
59466W        W31726  43.203  28.930  11.142
59467W        W31727   5.531  26.197  11.593
59468W        W31728  36.288   0.315   0.946
59469W        W31729   5.307  27.139  11.463
59470W        W31730  23.038  21.523   5.029
59471W        W31731  21.418  44.238  12.387
59472W        W31732  41.460  38.452   3.203
59473W        W31733  34.503  29.606   2.670
59474W        W31734  44.912  18.332  11.272
59475W        W31735  27.493  29.555   0.350
59476W        W31736  36.927   6.042  14.919
59477W        W31737  30.452  31.712   4.507
59478W        W31738  29.212  32.514   2.245
59479W        W31739  20.555  10.145   0.216
59480W        W31740   1.299   7.115   3.674
59481W        W31741   5.279  10.042   1.165
59482W        W31742  41.338  37.025   4.907
59483W        W31743  35.117  42.764   2.864
59484W        W31744  44.878  15.503   1.177
59485W        W31745  14.908  37.184   2.321
59486W        W31746  21.302  37.887  14.269
59487W        W31747  18.125  12.754  10.427
59488W        W31748  34.003  18.016   0.695
59489W        W31749  39.324   3.943   2.086
59490W        W31750   9.074  15.108   2.837
59491W        W31751  30.497  42.270   1.616
59492W        W31752  37.587  31.101  11.692
59493W        W31753  37.270  43.226   3.147
59494W        W31754  31.218  42.561  12.979
59495W        W31755  20.186  39.466  13.896
59496W        W31756   8.528  24.164  12.913
59497W        W31757   3.269  18.240  13.146
59498W        W31758   6.333  30.068   4.215
59499W        W31759   1.349  33.132  14.346
59500W        W31760  12.563  29.976   4.219
59501W        W31761  37.083  33.177   2.260
59502W        W31762  20.332  39.116  11.636
59503W        W31763  31.609  35.428  11.625
59504W        W31764  36.112  10.743   4.842
59505W        W31765  27.883  36.148   4.532
59506W        W31766  43.314  35.491   0.336
59507W        W31767  32.432  43.303  10.928
59508W        W31768  13.666  30.470   2.871
59509W        W31769  27.976   3.355   0.803
59510W        W31770   9.751  20.096  13.408
59511W        W31771  32.245  29.272   5.009
59512W        W31772   4.596   2.406  12.957
59513W        W31773  20.982  27.251  13.997
59514W        W31774  14.793  14.028  11.118
59515W        W31775  24.963  40.000  10.121
59516W        W31776  12.714   6.748  10.805
59517W        W31777  20.671  43.762   3.203
59518W        W31778  15.133  21.242  11.945
59519W        W31779   6.709  39.290   3.327
59520W        W31780   8.471  27.012   1.500
59521W        W31781  38.800  20.229  12.913
59522W        W31782  43.100   1.915  10.939
59523W        W31783  10.214  33.092  12.457
59524W        W31784  30.466   8.301  12.464
59525W        W31785   5.773   1.280   0.371
59526W        W31786   4.478  24.757   3.705
59527W        W31787   9.790  22.969   0.739
59528W        W31788   7.109  17.439  13.976
59529W        W31789   6.717  26.979  13.298
59530W        W31790  17.258  37.088  11.716
59531W        W31791  36.498  16.071  14.891
59532W        W31792  20.679  15.061   3.278
59533W        W31793  31.542   9.494  14.525
59534W        W31794  11.086   2.513   2.700
59535W        W31795   3.762  39.542   3.199
59536W        W31796  29.444  44.031  13.244
59537W        W31797  33.998  35.580  10.989
59538W        W31798   9.302  24.827   3.198
59539W        W31799  19.964  12.212   4.737
59540W        W31800   2.790  24.566   1.407
59541W        W31801   2.753  11.949  12.021
59542W        W31802   0.531  14.170   3.143
59543W        W31803  39.376  24.818  12.424
59544W        W31804  35.891  31.404  13.488
59545W        W31805   8.009  21.716  12.158
59546W        W31806  39.575  18.338   1.220
59547W        W31807   0.439  19.809   3.794
59548W        W31808  13.866  37.614  11.469
59549W        W31809  39.358  12.980  10.769
59550W        W31810  33.845  39.980  13.703
59551W        W31811  16.439   9.845   2.218
59552W        W31812  19.222  44.380  11.561
59553W        W31813  37.995  40.816   4.295
59554W        W31814  37.969  10.233   4.657
59555W        W31815  18.662  21.304   3.702
59556W        W31816  25.571  11.599  12.103
59557W        W31817  22.327  10.619   4.201
59558W        W31818  26.466  32.093  13.760
59559W        W31819  32.579  29.301  13.472
59560W        W31820  10.275   0.410  14.345
59561W        W31821  25.737  37.105  10.897
59562W        W31822  11.328  16.520   4.339
59563W        W31823  27.423  28.495  13.304
59564W        W31824  13.190  28.669   4.467
59565W        W31825  18.692  20.426   4.081
59566W        W31826  11.386  43.355   2.272
59567W        W31827  24.524  10.374  12.743
59568W        W31828  43.499  28.105  10.705
59569W        W31829   9.487  37.315   0.905
59570W        W31830  39.600   6.659   2.327
59571W        W31831  29.894   9.865   1.515
59572W        W31832  16.081  39.232  13.429
59573W        W31833  29.787  33.909   1.953
59574W        W31834  40.764  41.221   4.362
59575W        W31835  30.845  41.950  13.935
59576W        W31836  24.633  37.337  13.386
59577W        W31837  24.163  42.337   3.681
59578W        W31838  34.678  21.987   2.797
59579W        W31839   4.911  33.557  13.937
59580W        W31840   4.146   7.949  11.071
59581W        W31841  19.267   9.637  10.714
59582W        W31842  14.085  24.613   0.325
59583W        W31843   2.492  17.305   3.211
59584W        W31844   2.867  13.331   0.246
59585W        W31845   7.793  43.590  12.547
59586W        W31846  31.477  31.639   2.374
59587W        W31847  27.574  30.099   2.909
59588W        W31848   1.514  23.178  11.146
59589W        W31849  42.272  13.530  14.751
59590W        W31850  32.827  38.994  10.967
59591W        W31851  22.511  22.189  13.930
59592W        W31852  38.789   8.066  14.970
59593W        W31853  16.127   2.330  13.382
59594W        W31854  24.585  28.601  11.132
59595W        W31855   3.687  32.586   1.460
59596W        W31856  31.161  17.147  12.511
59597W        W31857  26.996   7.395  11.283
59598W        W31858  41.064  42.262   1.006
59599W        W31859  31.656   3.051  10.907
59600W        W31860   0.386  11.146   1.200
59601W        W31861  17.680   1.866  12.686
59602W        W31862  26.662  17.822   3.148
59603W        W31863  36.951  17.714   2.339
59604W        W31864  36.602  30.263  14.267
59605W        W31865  26.940  22.716   3.730
59606W        W31866  34.209  22.635  13.959
59607W        W31867  34.961  42.601  13.572
59608W        W31868  36.518  15.767  14.457
59609W        W31869  41.790  17.067  14.983
59610W        W31870  22.033   5.196  14.923
59611W        W31871  43.734  38.011  11.613
59612W        W31872   0.822  23.954   1.263
59613W        W31873  34.154  17.066  14.181
59614W        W31874  32.824  36.893   2.268
59615W        W31875  17.639  13.207  12.075
59616W        W31876  26.459  37.325  12.426
59617W        W31877  32.416  38.350  14.369
59618W        W31878  29.293   2.345  12.960
59619W        W31879  22.049   1.493  12.036
59620W        W31880  36.984  19.707   2.781
59621W        W31881  29.255  32.874  10.067
59622W        W31882  38.204  37.492  10.224
59623W        W31883  31.516  27.500  10.714
59624W        W31884  19.227  25.726  11.690
59625W        W31885  33.965  44.861   4.568
59626W        W31886  19.665   5.930   4.814
59627W        W31887  31.526  11.567   1.952
59628W        W31888  13.177  25.937  14.523
59629W        W31889  35.105   2.031   1.157
59630W        W31890  10.733   1.505  11.196
59631W        W31891  39.244  37.841  14.517
59632W        W31892   0.356   2.167  14.020
59633W        W31893  18.750  43.372   3.017
59634W        W31894  27.017  42.416   1.979
59635W        W31895  23.008  33.092   2.133
59636W        W31896  30.545  23.056   3.825
59637W        W31897   5.313  21.138   0.397
59638W        W31898  37.784  37.517   0.459
59639W        W31899  19.743  24.638   1.978
59640W        W31900  42.813   2.346  12.124
59641W        W31901  35.909  31.904  11.328
59642W        W31902  28.911   8.155  13.245
59643W        W31903   7.169  41.860  11.131
59644W        W31904  10.854  13.160   1.498
59645W        W31905   1.825  22.787  13.168
59646W        W31906  22.180  37.194  13.409
59647W        W31907  32.000   9.784  12.025
59648W        W31908  20.733  32.877   3.304
59649W        W31909  20.062  42.314   3.348
59650W        W31910  42.741  21.069   3.764
59651W        W31911  42.943  12.846   2.780
59652W        W31912   2.235  10.154   0.789
59653W        W31913  17.197  28.152  11.484
59654W        W31914  34.784   1.748   1.919
59655W        W31915   7.781   1.352  14.553
59656W        W31916  22.667  34.113   4.061
59657W        W31917   3.795  40.404   1.930
59658W        W31918  27.885   6.418  10.993
59659W        W31919  11.838  44.382   0.666
59660W        W31920  40.586  15.716  11.184
59661W        W31921  21.079  21.149   0.346
59662W        W31922  26.246   7.424   0.810
59663W        W31923  25.717  42.591   3.776
59664W        W31924   0.398   1.113  11.555
59665W        W31925  12.765  44.069  14.587
59666W        W31926   7.819   7.190  13.385
59667W        W31927  13.275  21.756  14.039
59668W        W31928  19.041  37.608  12.131
59669W        W31929  36.327   7.779   0.222
59670W        W31930  22.126   0.296  12.768
59671W        W31931  37.280  31.882   2.781
59672W        W31932  36.283  30.655   0.832
59673W        W31933   1.347  42.459  10.833
59674W        W31934  35.931  25.290   0.283
59675W        W31935  40.589   2.703  12.341
59676W        W31936  25.562  12.514   1.484
59677W        W31937   0.431  35.138  14.590
59678W        W31938  22.701  37.377  12.470
59679W        W31939   2.918  28.709   4.072
59680W        W31940  36.913   5.684  14.537
59681W        W31941   8.337  24.500   2.693
59682W        W31942  30.461  41.393  10.761
59683W        W31943  26.311  21.789  11.481
59684W        W31944  29.260  12.109  12.885
59685W        W31945  20.194  18.816  11.073
59686W        W31946   9.119  26.927  10.477
59687W        W31947   9.934  32.158   4.352
59688W        W31948  11.290  16.064   3.770
59689W        W31949   3.474  10.785  10.587
59690W        W31950  39.739   6.876  13.886
59691W        W31951  44.376  23.262  11.134
59692W        W31952  13.154   0.163   0.747
59693W        W31953  18.973  28.731   0.336
59694W        W31954  38.720  36.131  13.505
59695W        W31955   1.713   4.211  12.090
59696W        W31956  24.462  25.914   4.023
59697W        W31957   7.484   2.337   3.320
59698W        W31958  22.235  34.055  11.153
59699W        W31959  16.377  16.077   3.149
59700W        W31960  14.296  35.050  14.448
59701W        W31961  11.169  20.095  12.119
59702W        W31962  23.068  41.489   2.172
59703W        W31963   2.976   3.316   3.771
59704W        W31964   1.898  12.176   1.397
59705W        W31965  29.417  29.958   4.662
59706W        W31966   0.898   2.043  12.949
59707W        W31967   0.496  34.884   0.775
59708W        W31968  42.769   0.961   4.603
59709W        W31969  10.703  40.082   2.849
59710W        W31970  36.426  38.532  12.816
59711W        W31971  15.725  21.556   3.410
59712W        W31972   0.254  19.627  14.478
59713W        W31973  36.519  38.279  14.505
59714W        W31974  30.632  15.786   1.366
59715W        W31975  37.690  11.667   1.762
59716W        W31976  22.642  37.494  11.592
59717W        W31977  32.180   3.652  12.068
59718W        W31978  30.352  23.289   4.271
59719W        W31979  43.423  30.244  12.026
59720W        W31980   7.440  19.660   3.241
59721W        W31981  40.923  29.601   3.481
59722W        W31982   7.697  42.897  11.606
59723W        W31983  15.160  36.595   4.244
59724W        W31984  30.714  24.729   2.249
59725W        W31985  43.931  42.881  14.808
59726W        W31986  11.876  25.490  12.445
59727W        W31987  12.819  25.625  10.555
59728W        W31988  36.933  18.293   3.719
59729W        W31989  25.750  26.064  10.467
59730W        W31990  14.834  38.979  10.194
59731W        W31991  15.694  41.462   2.719
59732W        W31992  19.772  18.346  13.770
59733W        W31993  17.665  23.017   3.305
59734W        W31994   8.565   2.892   3.592
59735W        W31995   7.394  32.809   3.728
59736W        W31996  20.769  41.511   1.881
59737W        W31997  21.478  26.687   5.090
59738W        W31998  36.822  15.819  12.855
59739W        W31999  20.155   7.576   3.320
59740W        W32000   5.807  12.216  12.997
59741W        W32001  17.752  26.130   4.343
59742W        W32002  20.250  37.672  13.800
59743W        W32003  43.353  16.574   3.173
59744W        W32004  28.121  40.310  11.155
59745W        W32005   8.726  24.476  14.869
59746W        W32006   9.090  31.990  14.432
59747W        W32007   6.469  20.967   5.048
59748W        W32008  43.937  29.608   4.129
59749W        W32009  41.442  40.341  14.368
59750W        W32010  27.916   5.503  11.106
59751W        W32011  32.452   8.409  11.959
59752W        W32012  27.005  39.811   0.376
59753W        W32013  41.404  25.280  14.000
59754W        W32014  19.349   1.937  10.624
59755W        W32015  13.296  32.294  10.645
59756W        W32016   6.920  27.360  10.011
59757W        W32017  37.109   6.114   1.707
59758W        W32018  21.046  44.506  11.529
59759W        W32019  28.573   1.852  11.116
59760W        W32020  38.107  31.622   1.556
59761W        W32021  28.628  34.373   1.484
59762W        W32022  17.741  21.577   0.822
59763W        W32023   7.907  22.041   4.194
59764W        W32024  20.499  33.211   3.623
59765W        W32025  10.359  41.615  13.949
59766W        W32026  38.535  31.775  11.969
59767W        W32027  35.313  12.617  14.257
59768W        W32028  11.303  33.287   3.467
59769W        W32029  16.944   6.845   1.951
59770W        W32030  37.253  44.209   3.076
59771W        W32031  37.021  14.241   5.145
59772W        W32032   4.859   9.176  14.325
59773W        W32033  21.913  25.639  10.613
59774W        W32034   6.142  40.470   3.328
59775W        W32035  26.926  24.845   0.949
59776W        W32036  40.355  14.305  10.765
59777W        W32037  43.976  15.190  12.082
59778W        W32038   7.178  17.670  11.715
59779W        W32039  39.339  43.050   2.227
59780W        W32040  13.572  31.830   9.732
59781W        W32041  17.964  14.383   2.281
59782W        W32042  38.128  39.972   0.014
59783W        W32043  27.583  16.283  13.983
59784W        W32044   7.208  27.393   0.165
59785W        W32045  17.975  17.753   1.328
59786W        W32046  41.815  42.598   2.676
59787W        W32047   9.589   5.441  12.900
59788W        W32048  35.182  23.966   0.418
59789W        W32049  33.383  37.088  11.186
59790W        W32050  22.195  21.354  12.781
59791W        W32051   8.597  15.095   0.864
59792W        W32052  13.712  14.422  12.316
59793W        W32053  33.403  17.113  10.698
59794W        W32054  37.089  24.580  10.716
59795W        W32055  22.689   5.850  14.579
59796W        W32056  44.290   2.249  14.863
59797W        W32057  30.595  22.250  12.834
59798W        W32058  32.069  30.857   0.585
59799W        W32059  11.952  40.836  14.256
59800W        W32060   4.228  12.084   0.439
59801W        W32061   4.288  38.322  13.853
59802W        W32062   2.233  22.094   2.336
59803W        W32063  18.121  16.874  12.539
59804W        W32064   1.450  26.001   4.129
59805W        W32065   4.338  11.275  11.901
59806W        W32066  32.657  13.790   0.270
59807W        W32067  32.570  39.493  12.045
59808W        W32068  37.280  39.868   0.327
59809W        W32069  20.024  34.646   0.270
59810W        W32070  34.076   4.453   2.836
59811W        W32071  16.232  28.639   0.209
59812W        W32072   6.462  39.494   1.392
59813W        W32073  28.692   6.020   0.709
59814W        W32074  25.822  14.817   3.698
59815W        W32075  12.777   1.662  11.509
59816W        W32076  19.728  34.423  13.722
59817W        W32077   1.419  27.805   4.730
59818W        W32078  19.969  32.690  14.106
59819W        W32079  42.992  18.619  14.559
59820W        W32080  34.285   6.338  10.690
59821W        W32081   8.338  19.069  12.937
59822W        W32082  37.908  37.291  14.510
59823W        W32083  43.568  21.687   1.961
59824W        W32084  35.483  44.896  14.967
59825W        W32085  12.214   1.576   3.694
59826W        W32086  27.598   7.551  12.485
59827W        W32087  34.618  40.288  13.359
59828W        W32088  16.539  16.824  13.286
59829W        W32089  40.368  12.931   3.196
59830W        W32090  34.655  32.630   1.297
59831W        W32091  21.698   7.626   2.889
59832W        W32092  41.328   8.222  12.440
59833W        W32093  41.146  35.304  11.985
59834W        W32094  14.054  40.427  11.626
59835W        W32095  33.815  36.255   2.929
59836W        W32096  21.919  44.406  10.611
59837W        W32097  43.232  44.900   2.757
59838W        W32098  24.669  37.507   3.554
59839W        W32099  39.482  23.830  12.490
59840W        W32100  36.115  36.006  11.464
59841W        W32101  19.728  44.406   4.443
59842W        W32102  25.033  22.204   0.916
59843W        W32103  16.849  18.436   3.821
59844W        W32104   6.890  15.612   2.492
59845W        W32105  37.808  25.528   1.509
59846W        W32106  10.643  22.570   3.743
59847W        W32107  23.167  12.336  11.932
59848W        W32108  22.107  39.429  11.606
59849W        W32109  28.886   0.405  13.052
59850W        W32110  17.489   2.910   2.019
59851W        W32111  20.343   7.103   3.221
59852W        W32112  41.358   4.845   4.309
59853W        W32113  16.719  36.436  13.999
59854W        W32114  17.280   6.465   4.340
59855W        W32115  37.961  34.795   4.154
59856W        W32116  19.076  12.594   3.536
59857W        W32117  17.558  26.183  14.463
59858W        W32118  40.579  22.910  13.552
59859W        W32119  11.681  29.642   2.758
59860W        W32120  44.335  31.634   4.467
59861W        W32121  25.718   3.534  10.583
59862W        W32122   6.795  28.676  12.051
59863W        W32123  16.802  42.237  13.722
59864W        W32124  41.563  26.215  12.681
59865W        W32125  30.560   9.083   0.023
59866W        W32126  11.686  24.565   3.879
59867W        W32127  13.771  27.923   5.048
59868W        W32128  41.469  35.771   3.340
59869W        W32129   7.743   0.558   1.454
59870W        W32130  16.908  28.594   1.859
59871W        W32131  43.375   9.186   0.452
59872W        W32132  38.923  11.359  10.211
59873W        W32133  16.287  25.383   4.048
59874W        W32134  33.240  38.389   0.511
59875W        W32135  17.845   4.289  10.617
59876W        W32136   3.448  42.333  14.965
59877W        W32137  29.860  44.114   1.203
59878W        W32138   6.533  26.569   4.235
59879W        W32139  23.773  27.651   0.353
59880W        W32140  22.646   7.648   2.429
59881W        W32141  43.879  42.340  12.444
59882W        W32142  11.126   0.972  10.442
59883W        W32143  28.891  35.454  10.291
59884W        W32144  18.239  42.845   1.794
59885W        W32145   1.957  21.224   2.799
59886W        W32146  17.227  36.505   1.661
59887W        W32147  10.692  35.031   4.133
59888W        W32148  25.615  37.322   2.387
59889W        W32149  17.233  43.184  14.901
59890W        W32150  26.276  37.786  10.631
59891W        W32151  44.732   9.854   1.853
59892W        W32152  21.049   9.396   0.129
59893W        W32153   0.372  39.098  13.454
59894W        W32154  31.614  24.781   2.267
59895W        W32155  13.732  30.677  10.778
59896W        W32156   2.936  40.924  13.529
59897W        W32157  13.960  16.812   4.703
59898W        W32158  17.116  22.949   3.413
59899W        W32159  17.640  25.027   2.255
59900W        W32160  44.249  22.075  11.950
59901W        W32161  33.963  13.004  12.446
59902W        W32162  41.357   6.587  10.854
59903W        W32163   7.384  36.836   3.344
59904W        W32164   7.214  29.072   1.826
59905W        W32165   5.961  11.939  13.830
59906W        W32166   9.012   6.157   3.614
59907W        W32167   2.230   9.908   2.748
59908W        W32168  31.508  26.226   3.777
59909W        W32169  22.239  42.014  13.816
59910W        W32170  11.385   6.613  11.076
59911W        W32171  20.636  23.666   1.929
59912W        W32172  21.586  11.129   3.172
59913W        W32173  13.335   0.224  11.118
59914W        W32174  15.338  16.786  11.504
59915W        W32175   4.531  23.100   3.251
59916W        W32176  20.688  38.608   2.914
59917W        W32177  43.805  28.087  13.150
59918W        W32178  40.341  11.352   2.323
59919W        W32179  36.564  26.155  14.465
59920W        W32180  14.705  28.111   2.148
59921W        W32181  15.948  12.104  12.546
59922W        W32182  18.730  29.088  13.518
59923W        W32183  22.634   6.627   0.960
59924W        W32184  32.191   4.632   3.733
59925W        W32185  17.842  36.523  12.907
59926W        W32186  28.159  15.792   2.922
59927W        W32187   3.006   4.484  11.527
59928W        W32188   3.146  36.608   2.645
59929W        W32189  44.520  33.571   2.789
59930W        W32190   7.585   4.367   1.809
59931W        W32191  22.807  13.862   4.850
59932W        W32192  32.112   5.175  13.686
59933W        W32193  27.641  28.883  14.819
59934W        W32194  25.930  24.030   0.224
59935W        W32195  35.315  10.629  11.055
59936W        W32196  36.446  16.269  14.373
59937W        W32197  15.071  23.702  11.592
59938W        W32198  26.947  39.764   3.269
59939W        W32199  14.131   8.742   0.875
59940W        W32200  38.368   7.607  12.771
59941W        W32201  43.881  30.135  11.606
59942W        W32202  17.613  30.383   2.049
59943W        W32203  12.415  14.822   3.710
59944W        W32204   7.888  32.522   0.789
59945W        W32205  11.718   6.213   1.350
59946W        W32206  11.279  23.183   1.884
59947W        W32207  37.636   2.270   4.925
59948W        W32208  32.369   4.680  14.912
59949W        W32209  13.303  28.119   0.376
59950W        W32210   4.317  15.074   4.642
59951W        W32211  20.326  40.841   0.969
59952W        W32212  44.739   7.746  13.384
59953W        W32213  25.077   4.661   0.886
59954W        W32214   2.706  41.378  11.249
59955W        W32215   7.859  29.641  13.531
59956W        W32216  14.985  33.018  14.700
59957W        W32217  31.190  28.247   0.475
59958W        W32218  32.543  34.945  13.015
59959W        W32219  25.987  15.745   4.486
59960W        W32220   1.212  15.379  11.573
59961W        W32221  25.444   8.832  10.416
59962W        W32222  13.830  30.974  12.361
59963W        W32223  41.799  43.568   2.804
59964W        W32224  17.945  30.634   1.763
59965W        W32225  38.056  41.339  12.075
59966W        W32226  12.159  24.732   0.007
59967W        W32227  38.436  15.027  13.640
59968W        W32228  10.034  33.919   1.377
59969W        W32229  32.273  27.611  11.107
59970W        W32230  38.035  18.127   1.502
59971W        W32231   6.216  22.695  12.957
59972W        W32232  22.249   1.672   0.913
59973W        W32233  14.292  38.965  12.814
59974W        W32234  31.240  44.818  13.746
59975W        W32235  19.171  16.393   4.632
59976W        W32236  11.563   5.854  10.661
59977W        W32237  42.491   1.934  11.913
59978W        W32238  39.828  44.872   3.403
59979W        W32239  43.320  16.751   1.287
59980W        W32240   4.838  32.126  11.737
59981W        W32241  29.765  14.351  12.221
59982W        W32242  41.490  34.334  14.029
59983W        W32243  39.976  40.496   2.360
59984W        W32244  19.219  40.344  11.104
59985W        W32245  16.399  44.343  10.746
59986W        W32246   3.406  27.964   2.292
59987W        W32247  17.703  19.660   1.112
59988W        W32248  20.112  22.900  13.159
59989W        W32249   0.418  36.140   0.965
59990W        W32250  14.896  14.589   4.171
59991W        W32251  18.891  41.023   1.244
59992W        W32252  35.600  16.072   4.676
59993W        W32253  40.625   5.165   2.433
59994W        W32254  44.892  20.844   0.679
59995W        W32255  38.528  27.002   0.403
59996W        W32256  25.797  20.202   3.471
59997W        W32257  15.744  10.316   4.705
59998W        W32258  32.715  18.599   0.983
59999W        W32259  41.415   0.260   3.884
60000W        W32260  22.802  40.390   1.722
60001W        W32261   2.748  34.477   0.481
60002W        W32262   7.626  17.312  14.776
60003W        W32263   8.983   4.784   9.993
60004W        W32264  43.798  13.785  13.028
60005W        W32265  16.883  37.616  10.591
60006W        W32266  40.506  30.325  13.177
60007W        W32267  37.419   6.860  13.213
60008W        W32268  29.535   6.709  13.030
60009W        W32269  11.760   7.697   4.750
60010W        W32270  41.305  40.977  10.521
60011W        W32271  35.987   6.112   0.962
60012W        W32272  35.418  27.014  13.995
60013W        W32273  15.487  32.458  12.033
60014W        W32274  22.250  44.972  11.041
60015W        W32275  24.170   7.837   0.326
60016W        W32276  26.746  41.904  14.765
60017W        W32277  32.278  31.798   3.575
60018W        W32278  33.172   2.758   2.679
60019W        W32279   6.674  40.989  11.083
60020W        W32280  39.850   6.853   2.734
60021W        W32281  25.103   6.565  13.571
60022W        W32282  26.148   5.672   2.696
60023W        W32283   0.777   9.790   4.660
60024W        W32284  22.174  21.813   2.273
60025W        W32285   5.440   6.278  11.129
60026W        W32286  10.342   2.507   1.249
60027W        W32287   4.480  38.116  12.048
60028W        W32288  29.644  21.700   0.508
60029W        W32289   6.805   6.770  13.597
60030W        W32290   2.151  22.949  11.517
60031W        W32291   8.285   9.791  14.345
60032W        W32292  16.982  34.934  14.571
60033W        W32293   9.817  30.984  14.849
60034W        W32294  42.368  18.548   2.334
60035W        W32295  31.033  31.048   4.611
60036W        W32296  14.300  14.193  13.564
60037W        W32297  39.601   1.535  12.687
60038W        W32298   7.850  16.874  10.770
60039W        W32299  41.555   3.984  10.650
60040W        W32300   5.177  22.225   2.400
60041W        W32301  36.671   9.966   1.035
60042W        W32302   6.498  38.402  12.699
60043W        W32303  20.134  31.232  14.049
60044W        W32304   4.828  13.559   0.899
60045W        W32305  24.733  16.701   3.591
60046W        W32306  17.628  38.599   2.328
60047W        W32307   1.346  43.386   4.368
60048W        W32308  32.877  32.525   0.078
60049W        W32309  38.243  40.819  10.288
60050W        W32310   6.688  21.811   3.419
60051W        W32311  23.644  29.690   3.089
60052W        W32312   8.588  43.178  12.011
60053W        W32313  33.721  27.578  11.253
60054W        W32314  31.573  29.218  11.129
60055W        W32315  39.770  14.593  11.158
60056W        W32316   8.213   8.314   2.285
60057W        W32317  31.825  10.656   2.866
60058W        W32318   0.940  12.167   1.383
60059W        W32319  27.237  10.124   1.038
60060W        W32320  22.795  39.096  13.621
60061W        W32321   7.160   4.180   2.623
60062W        W32322   5.318   7.020   0.267
60063W        W32323   2.812  24.082  12.531
60064W        W32324   3.885   1.668  14.534
60065W        W32325   0.920   6.145  14.774
60066W        W32326  39.541  37.483  12.010
60067W        W32327  44.109  15.212   2.682
60068W        W32328  20.164  22.705  11.580
60069W        W32329  30.972  43.068  14.386
60070W        W32330  16.052   7.172  12.853
60071W        W32331  40.284  13.724  11.650
60072W        W32332  16.783  38.303  11.927
60073W        W32333  33.570  36.572  13.981
60074W        W32334  34.032   5.727  13.128
60075W        W32335  33.426  34.988  14.066
60076W        W32336   6.638  33.810  12.994
60077W        W32337  42.296   2.685   4.651
60078W        W32338  21.099  26.726   2.874
60079W        W32339  21.184  26.104  10.090
60080W        W32340  24.181   6.221  14.807
60081W        W32341  26.940  32.523  12.942
60082W        W32342  35.139  24.949   0.325
60083W        W32343  43.185  26.623  11.376
60084W        W32344  38.095  21.728   0.212
60085W        W32345  33.943  28.778  12.957
60086W        W32346  24.592  33.178  13.324
60087W        W32347  40.511  39.799  11.857
60088W        W32348  20.445  32.093  10.595
60089W        W32349  11.268  43.507   1.346
60090W        W32350  14.121  16.552   0.237
60091W        W32351  17.095  21.067  11.855
60092W        W32352  14.844  36.971   1.390
60093W        W32353  37.363  30.150  12.804
60094W        W32354  27.573  31.936   5.440
60095W        W32355  36.509  18.067  10.100
60096W        W32356  34.669  13.282  14.075
60097W        W32357  41.565  37.599  10.577
60098W        W32358  34.368  20.060   1.665
60099W        W32359  17.545  39.542   2.420
60100W        W32360  25.176  19.618   3.239
60101W        W32361  10.534  24.109  13.323
60102W        W32362  41.570  12.855  10.747
60103W        W32363  43.877  38.302   0.487
60104W        W32364  16.698   4.559  14.540
60105W        W32365  14.805   2.421  12.890
60106W        W32366  36.758  43.294  12.316
60107W        W32367   7.955  16.028   4.670
60108W        W32368  33.472  22.173   3.746
60109W        W32369  18.948  26.454   0.547
60110W        W32370   2.161  25.649   2.614
60111W        W32371  26.414  42.349   2.870
60112W        W32372  10.454  18.790   0.289
60113W        W32373  10.094  34.878   1.321
60114W        W32374  10.109   5.035   4.408
60115W        W32375   1.445  31.168  14.339
60116W        W32376  21.187  22.215  14.497
60117W        W32377   2.860  15.563   4.272
60118W        W32378   1.067   2.811   1.738
60119W        W32379  14.532  30.748   3.215
60120W        W32380   4.354  43.882  11.476
60121W        W32381  37.150  25.290   1.315
60122W        W32382   9.608   4.923  12.982
60123W        W32383  22.615   4.509   3.437
60124W        W32384  19.019   5.040  11.572
60125W        W32385  41.459  11.347   0.946
60126W        W32386   0.019   7.723  13.809
60127W        W32387   3.793  28.964  11.982
60128W        W32388  33.808  14.306   0.842
60129W        W32389  37.819   7.817  14.135
60130W        W32390  19.019  41.951  10.604
60131W        W32391  31.367  37.540   2.389
60132W        W32392  13.835  11.383   0.008
60133W        W32393  10.216  39.250  12.936
60134W        W32394   9.149  30.365  12.919
60135W        W32395   8.304  44.731   0.847
60136W        W32396  38.028   7.342   2.156
60137W        W32397  26.238  24.707   4.470
60138W        W32398  27.272  12.394  14.977
60139W        W32399  34.805  37.721  11.908
60140W        W32400   1.915   2.794   4.603
60141W        W32401  15.984  40.811  14.475
60142W        W32402  20.329  32.076  14.802
60143W        W32403  40.554  24.629   3.902
60144W        W32404  20.828  22.657   4.162
60145W        W32405  10.281  17.095  14.954
60146W        W32406  24.977  26.528   2.437
60147W        W32407   8.688   4.907   3.277
60148W        W32408  32.423   9.222  12.925
60149W        W32409  10.408  27.451  12.341
60150W        W32410  44.282  31.717  14.602
60151W        W32411   1.280  38.868   3.709
60152W        W32412  22.041  25.658  12.885
60153W        W32413  31.455   3.314   3.634
60154W        W32414  43.852   7.121  12.948
60155W        W32415  35.905   6.437  14.983
60156W        W32416  15.289   2.679  10.576
60157W        W32417  32.644  39.467  11.134
60158W        W32418   4.173  14.953   0.605
60159W        W32419  19.186   0.956  14.281
60160W        W32420  28.575  14.388   0.762
60161W        W32421  35.867  36.206   1.961
60162W        W32422  21.474  35.422  13.506
60163W        W32423  40.522  20.815   0.763
60164W        W32424  26.448   2.358  14.557
60165W        W32425  23.632  34.291  13.303
60166W        W32426   2.252   1.270  12.303
60167W        W32427   7.862   6.176   4.476
60168W        W32428  10.452   0.874   2.926
60169W        W32429  33.017  23.261   1.748
60170W        W32430  28.057   8.195  14.986
60171W        W32431  33.892   9.354  11.507
60172W        W32432  33.921  42.945   1.597
60173W        W32433  32.402  15.602   3.201
60174W        W32434   7.157  32.541   3.338
60175W        W32435  23.590  37.083  13.920
60176W        W32436  25.991  39.821   1.299
60177W        W32437  39.317  21.794  11.593
60178W        W32438   7.462   5.404  13.255
60179W        W32439  23.730  17.609   4.353
60180W        W32440   7.716  44.410  13.071
60181W        W32441  24.027   4.864  14.496
60182W        W32442  32.605  44.224  14.752
60183W        W32443  25.244  33.356   0.768
60184W        W32444  29.269   8.047  12.369
60185W        W32445  26.715  30.454  12.869
60186W        W32446  42.376  24.620   0.893
60187W        W32447   1.200   3.552   0.442
60188W        W32448  23.616  43.498  12.992
60189W        W32449  25.539  24.815  13.028
60190W        W32450  15.603  33.914   2.209
60191W        W32451  12.028  23.491   1.392
60192W        W32452  12.138  14.831  12.524
60193W        W32453  11.022   8.829  12.115
60194W        W32454  35.582  18.797  12.127
60195W        W32455  13.773  12.879  10.610
60196W        W32456  40.910  16.519   4.191
60197W        W32457  44.937  40.409  12.036
60198W        W32458  33.116   7.429  14.923
60199W        W32459  19.646  41.211   0.002
60200W        W32460  12.723   6.522  14.552
60201W        W32461  18.608   8.769  14.302
60202W        W32462  43.120  35.404  12.779
60203W        W32463  32.299   7.250   4.654
60204W        W32464  37.102  38.105  12.838
60205W        W32465  15.879   3.997  11.905
60206W        W32466  26.927  16.789  13.400
60207W        W32467  24.972  14.891   4.048
60208W        W32468  40.338  29.619  14.856
60209W        W32469  21.624   9.596  10.617
60210W        W32470  38.544  29.690   1.297
60211W        W32471  33.460  11.251  11.607
60212W        W32472  15.859  15.194   2.201
60213W        W32473  37.267  33.499  12.892
60214W        W32474  43.090  31.053  13.254
60215W        W32475   0.750  42.510   2.679
60216W        W32476  29.396  28.067  12.403
60217W        W32477  23.022  18.717  13.461
60218W        W32478  38.307   0.006  13.001
60219W        W32479  41.078  39.770   4.292
60220W        W32480   4.954   8.401  11.095
60221W        W32481  10.764   5.834   3.315
60222W        W32482  23.613  21.148  14.777
60223W        W32483  27.656  10.726   3.901
60224W        W32484  20.799  16.253  12.950
60225W        W32485  12.177  25.060  14.064
60226W        W32486   1.034  35.917  10.256
60227W        W32487  38.945  18.328   4.986
60228W        W32488  24.204  28.664   2.311
60229W        W32489  36.089  12.850  14.730
60230W        W32490  32.329  32.050  13.551
60231W        W32491   9.248  31.961  11.451
60232W        W32492  36.448  21.361  14.644
60233W        W32493  31.468   3.996   1.789
60234W        W32494  13.566  33.436   2.236
60235W        W32495  35.886  16.861   3.174
60236W        W32496  31.312   4.988  10.695
60237W        W32497  24.141  12.758  13.892
60238W        W32498  30.149   9.270  12.181
60239W        W32499  29.122  43.693  11.978
60240W        W32500  19.622   8.900   4.345
60241W        W32501  10.753  35.741  14.411
60242W        W32502  29.441  19.679   5.036
60243W        W32503  21.126   2.117   2.679
60244W        W32504  39.772  21.542  13.877
60245W        W32505  16.806  18.178   1.669
60246W        W32506   1.945  20.022   3.383
60247W        W32507  41.171   1.368  14.895
60248W        W32508  11.337  41.445   3.577
60249W        W32509  33.655  19.221  10.539
60250W        W32510  22.290  17.703  14.364
60251W        W32511  26.901  10.889   3.208
60252W        W32512  37.601  32.544   2.659
60253W        W32513  11.660  43.523  13.994
60254W        W32514  29.585  25.175   3.405
60255W        W32515  38.821  32.848  12.514
60256W        W32516  22.991  24.655  14.895
60257W        W32517  22.816  38.079  14.439
60258W        W32518   9.781   5.001  11.593
60259W        W32519  39.060  19.150  14.929
60260W        W32520   9.873   3.828   4.473
60261W        W32521  10.659  41.942   0.479
60262W        W32522  31.434  35.376   2.072
60263W        W32523  20.748  34.022   2.699
60264W        W32524  34.388  23.641  14.517
60265W        W32525  39.453  20.674   1.387
60266W        W32526  44.776  39.547   0.755
60267W        W32527  37.552   2.058   0.077
60268W        W32528  13.778  44.265   2.828
60269W        W32529  16.842  23.602  14.622
60270W        W32530   5.195  12.785   3.240
60271W        W32531  29.355  18.625  14.574
60272W        W32532  42.765  26.760  14.805
60273W        W32533  27.982  25.099  12.136
60274W        W32534  23.668  27.221   4.620
60275W        W32535  41.253  27.933   2.340
60276W        W32536  43.385  18.167   4.625
60277W        W32537  16.459   9.858  13.692
60278W        W32538  22.305   0.179  11.505
60279W        W32539  42.578  17.005   2.320
60280W        W32540   6.241  31.379   2.813
60281W        W32541  38.324   9.433   4.951
60282W        W32542  15.900  31.882  14.479
60283W        W32543   8.059  39.022  11.680
60284W        W32544  44.011  25.829  12.483
60285W        W32545  42.665  26.688   0.843
60286W        W32546   5.746  42.283   4.392
60287W        W32547  24.578  29.412  13.052
60288W        W32548   0.343  10.149  10.894
60289W        W32549   0.356   3.307   0.302
60290W        W32550   7.467   3.226   1.769
60291W        W32551  40.898  41.283  14.813
60292W        W32552  11.337  15.222  11.216
60293W        W32553  18.260  40.000  12.971
60294W        W32554  12.437  32.263  10.971
60295W        W32555  19.624  25.507  14.587
60296W        W32556  11.775  41.578  11.555
60297W        W32557   3.411   6.671  11.279
60298W        W32558  15.300   3.485   0.235
60299W        W32559  34.237   6.416  11.644
60300W        W32560  14.300  28.969  10.453
60301W        W32561  24.286  26.042  13.721
60302W        W32562  21.318  13.107   2.764
60303W        W32563   7.004  37.090  11.147
60304W        W32564   5.779  30.062  10.682
60305W        W32565  44.280  17.784  11.536
60306W        W32566  44.403   2.431   4.705
60307W        W32567  13.772  19.585   2.338
60308W        W32568  39.938   3.411   3.781
60309W        W32569  28.662  42.014   0.877
60310W        W32570   0.892  18.653  10.812
60311W        W32571  37.846  41.997   0.460
60312W        W32572  43.320  36.864   3.911
60313W        W32573  11.798  12.897   0.433
60314W        W32574  33.942   8.543   1.377
60315W        W32575  39.921  42.489  13.215
60316W        W32576  44.430   4.683  14.963
60317W        W32577  25.242   5.906   1.721
60318W        W32578   9.848  39.112   0.910
60319W        W32579  13.221  24.774  14.816
60320W        W32580  33.493  22.991   1.827
60321W        W32581  20.268  33.089  13.003
60322W        W32582   7.731  33.366  14.563
60323W        W32583  40.640  38.449  10.636
60324W        W32584  38.905   9.607   3.748
60325W        W32585  15.354  26.611   5.038
60326W        W32586   5.433  21.542   2.911
60327W        W32587   8.710  15.832  11.772
60328W        W32588  34.680  42.536   3.241
60329W        W32589  20.048  23.516   1.668
60330W        W32590   6.797  12.559  14.585
60331W        W32591  22.544  11.725  13.867
60332W        W32592   7.181  10.896   4.124
60333W        W32593   3.297  36.757   4.099
60334W        W32594  32.627  35.488  11.567
60335W        W32595  24.081  35.926  11.833
60336W        W32596  31.328   9.082   5.018
60337W        W32597  18.017  21.299  12.992
60338W        W32598  34.022   5.752  12.078
60339W        W32599   6.946  28.578  13.485
60340W        W32600   3.928  38.363   2.928
60341W        W32601  14.275  35.937   1.351
60342W        W32602  37.029   5.953  11.046
60343W        W32603  13.787  44.515  12.442
60344W        W32604  24.656  22.658   4.350
60345W        W32605  18.199   8.754   3.076
60346W        W32606   2.735   8.885  13.026
60347W        W32607  44.543  41.988  14.858
60348W        W32608  11.871  31.331   1.269
60349W        W32609  39.383  42.390  13.178
60350W        W32610  31.878  33.046  13.922
60351W        W32611  19.665  35.462   4.600
60352W        W32612  32.648  12.619   4.542
60353W        W32613  28.732  36.266   1.309
60354W        W32614  37.064  42.085  11.603
60355W        W32615  10.395  23.267   0.382
60356W        W32616   2.018  16.701  13.902
60357W        W32617  29.445  23.758   0.512
60358W        W32618  16.547  11.844  12.932
60359W        W32619  16.676  18.516   0.855
60360W        W32620  13.580  43.412   1.202
60361W        W32621  31.765  36.071   4.659
60362W        W32622  21.999  17.342  12.509
60363W        W32623  21.459   9.296   3.205
60364W        W32624   3.888  25.700   1.305
60365W        W32625   0.212   9.293  11.532
60366W        W32626  38.100  12.208  11.550
60367W        W32627  14.884  26.234   2.538
60368W        W32628  26.395  29.894  11.111
60369W        W32629  38.157  40.593  14.134
60370W        W32630  42.047   0.416  13.935
60371W        W32631  28.065   3.694   1.182
60372W        W32632  37.722   0.200  13.612
60373W        W32633   6.716   4.069  12.043
60374W        W32634  43.988   9.384  12.147
60375W        W32635   5.187  36.133   0.777
60376W        W32636  37.206  11.831   4.653
60377W        W32637  10.606   7.957  14.964
60378W        W32638   3.692  39.893   0.776
60379W        W32639  29.569   1.054  13.935
60380W        W32640  18.714  23.477   2.376
60381W        W32641   5.869  30.568  10.334
60382W        W32642  25.185  37.612   2.193
60383W        W32643  23.522  27.501   4.075
60384W        W32644  14.329  25.011   2.000
60385W        W32645  34.704  19.844   2.503
60386W        W32646  25.839   4.946  12.378
60387W        W32647   4.767  18.986   5.216
60388W        W32648  16.223  21.384  14.923
60389W        W32649  34.447   0.083   4.588
60390W        W32650  33.594   1.915   0.880
60391W        W32651  26.576  29.857   1.461
60392W        W32652  26.041  29.942  14.393
60393W        W32653  30.863  44.237  12.547
60394W        W32654   7.282  14.593   0.265
60395W        W32655  32.862  34.398  14.259
60396W        W32656  26.124   0.536   3.004
60397W        W32657  17.554  15.920   4.153
60398W        W32658  42.176  11.069   2.160
60399W        W32659  32.430  37.595  12.999
60400W        W32660  34.383  33.819   4.748
60401W        W32661  25.763   9.707  14.310
60402W        W32662  20.079  38.662   0.023
60403W        W32663  27.577   7.296  10.453
60404W        W32664  28.122  44.860  12.027
60405W        W32665   5.870   3.158  14.024
60406W        W32666  23.432  37.364  11.123
60407W        W32667  12.673   9.791  14.190
60408W        W32668  11.706  37.283  10.369
60409W        W32669   9.800  12.107   3.635
60410W        W32670  15.133  14.607   0.789
60411W        W32671  18.167   4.276  11.788
60412W        W32672  35.998  29.560  13.191
60413W        W32673  39.892  14.707   3.738
60414W        W32674  26.203  37.332  13.103
60415W        W32675   9.662   6.134   0.387
60416W        W32676  28.034  32.307   9.707
60417W        W32677  41.610  13.266   2.818
60418W        W32678  10.702  23.421   4.002
60419W        W32679   4.627  34.773  13.136
60420W        W32680  22.918  13.280   3.865
60421W        W32681  29.669  31.689  12.939
60422W        W32682  32.859  35.816   3.649
60423W        W32683  16.128  18.313   4.027
60424W        W32684   1.909  32.199  10.857
60425W        W32685  43.817  37.038   0.697
60426W        W32686  40.330  18.278   4.095
60427W        W32687  40.658  11.964   1.221
60428W        W32688  15.714   2.977   4.989
60429W        W32689  17.880  36.522  13.887
60430W        W32690  17.207  25.562  12.059
60431W        W32691  30.935  13.846   2.499
60432W        W32692   2.253  32.841   1.769
60433W        W32693   8.681  36.767   2.282
60434W        W32694   9.689  20.132   0.907
60435W        W32695  38.237  16.050   2.472
60436W        W32696  36.265  40.515  11.120
60437W        W32697   8.250  37.967   2.298
60438W        W32698  30.849   2.596  14.839
60439W        W32699  28.232  11.327   2.207
60440W        W32700   4.952  24.724   2.742
60441W        W32701  20.799   5.544   0.527
60442W        W32702  32.631  34.052   2.925
60443W        W32703  34.377  21.067  14.468
60444W        W32704  36.016  28.471  14.313
60445W        W32705  14.231   8.665  11.875
60446W        W32706   6.502  43.236  11.146
60447W        W32707  28.380   4.788  12.017
60448W        W32708  33.621  29.100  14.373
60449W        W32709  19.929  21.146   1.351
60450W        W32710  37.114  40.111   3.738
60451W        W32711  24.930  26.110  14.323
60452W        W32712  13.697  39.994   2.884
60453W        W32713   1.538   8.457  10.996
60454W        W32714  38.500   6.491   4.053
60455W        W32715   0.557  22.285   0.239
60456W        W32716   0.651   5.609  11.166
60457W        W32717  36.835   8.913  11.586
60458W        W32718  23.715  36.920   1.437
60459W        W32719   2.942  35.610  12.502
60460W        W32720  38.486  40.572   2.171
60461W        W32721  20.306  34.986  14.744
60462W        W32722  38.277  18.162  11.439
60463W        W32723  30.001  24.139  14.858
60464W        W32724   0.075  14.541   4.543
60465W        W32725  17.419   3.376   5.018
60466W        W32726  17.256  30.724   3.796
60467W        W32727  32.751  24.545   3.841
60468W        W32728  42.131  38.404  10.803
60469W        W32729  35.646  34.967  14.439
60470W        W32730   6.190  35.011  12.288
60471W        W32731  40.538  29.104  12.275
60472W        W32732   1.320   8.353   1.177
60473W        W32733  17.528  44.924  14.198
60474W        W32734  18.120   3.265   3.991
60475W        W32735   9.162   1.284  14.318
60476W        W32736  31.393  13.794  13.378
60477W        W32737   6.197   5.203  12.848
60478W        W32738  19.101  42.325   2.180
60479W        W32739  32.359   2.794   1.818
60480W        W32740  24.582   0.261  12.461
60481W        W32741   5.919  26.656   2.298
60482W        W32742  19.150  21.051  12.085
60483W        W32743   8.834  22.702  14.570
60484W        W32744  29.778  11.063  13.533
60485W        W32745  44.500   1.954   0.519
60486W        W32746  44.381   5.657  11.575
60487W        W32747   7.679  20.136   4.544
60488W        W32748  16.163  18.494   3.310
60489W        W32749  43.149   1.901   1.652
60490W        W32750  15.560  19.741  11.476
60491W        W32751  33.959  34.158  13.920
60492W        W32752  26.958  36.857   0.928
60493W        W32753  14.650  15.056   4.086
60494W        W32754   7.920  34.065  12.541
60495W        W32755  12.118  39.943   4.081
60496W        W32756  35.682  36.370  12.200
60497W        W32757   4.475  42.555  11.658
60498W        W32758   8.377   0.390  10.757
60499W        W32759   3.672   7.832  12.886
60500W        W32760  20.929   9.912   1.865
60501W        W32761  36.924  15.012  10.650
60502W        W32762   2.963   6.900  11.121
60503W        W32763  30.201   5.849   2.158
60504W        W32764   0.325  27.693  13.488
60505W        W32765  29.864  40.891   2.138
60506W        W32766  24.678  41.030   5.480
60507W        W32767  25.827  39.809  10.280
60508W        W32768  20.158  30.981  13.619
60509W        W32769  19.819  36.551   0.549
60510W        W32770   1.345   3.039   0.326
60511W        W32771  36.062  34.603   4.079
60512W        W32772  29.114  28.316  11.053
60513W        W32773  14.191   8.138  11.894
60514W        W32774   3.904  19.488  12.974
60515W        W32775  41.013  44.560   4.131
60516W        W32776   3.504  24.877  14.474
60517W        W32777  17.192  23.024   0.055
60518W        W32778  33.063  13.711  13.007
60519W        W32779  20.489  21.645   9.630
60520W        W32780  14.764  32.151   4.071
60521W        W32781  11.336   1.657  14.575
60522W        W32782  42.962  13.330  12.504
60523W        W32783  26.032   0.011   0.395
60524W        W32784  34.569  19.940  14.867
60525W        W32785  34.894   9.900  12.108
60526W        W32786   7.945   4.731  13.455
60527W        W32787  22.752   2.832  12.998
60528W        W32788  35.764  30.073   1.121
60529W        W32789  38.627  25.226   2.130
60530W        W32790  16.595  14.120   4.524
60531W        W32791  36.138  40.988   4.140
60532W        W32792  38.201  31.422   3.311
60533W        W32793  17.976   3.839  11.570
60534W        W32794  23.585  44.248   1.361
60535W        W32795   3.728  25.216   4.506
60536W        W32796  32.153  28.417   2.417
60537W        W32797  36.984  28.573   4.091
60538W        W32798  28.695  35.450   0.337
60539W        W32799  13.125  12.176   1.110
60540W        W32800   7.133  42.424  13.515
60541W        W32801  14.126  23.947   4.955
60542W        W32802  34.786  33.261  11.078
60543W        W32803   1.143  18.138   3.452
60544W        W32804  28.568  12.419  12.471
60545W        W32805  32.580   2.834  11.709
60546W        W32806   9.464  26.584  14.444
60547W        W32807  35.577  10.635   1.843
60548W        W32808  41.862  16.589   4.216
60549W        W32809  20.422   9.869  13.354
60550W        W32810  11.608  12.309  11.135
60551W        W32811  43.516  34.069  11.110
60552W        W32812  29.590  15.706   2.784
60553W        W32813  41.432  40.847  14.133
60554W        W32814  19.168  38.605   4.657
60555W        W32815  29.613   9.570  14.035
60556W        W32816  27.890  10.362   4.182
60557W        W32817  27.654   9.198   1.828
60558W        W32818  11.596  41.124  10.736
60559W        W32819  27.079  17.735  14.416
60560W        W32820  44.345   2.440   0.389
60561W        W32821  17.215  28.882   4.061
60562W        W32822  19.170  14.887   3.334
60563W        W32823  40.947  17.204  13.947
60564W        W32824   2.653  24.609   4.152
60565W        W32825  32.739  37.019  14.380
60566W        W32826  43.759  14.563   0.878
60567W        W32827  17.861   6.173   0.857
60568W        W32828   1.748  23.038   4.116
60569W        W32829   9.750  27.039   2.905
60570W        W32830  31.982  24.586  14.010
60571W        W32831  23.165  38.578  14.755
60572W        W32832  32.660   3.645   4.592
60573W        W32833  21.072  26.686   3.759
60574W        W32834  27.493  38.043  13.022
60575W        W32835   0.139  24.003  13.951
60576W        W32836   5.028   7.612   1.256
60577W        W32837  22.120  27.399   3.141
60578W        W32838   9.174  26.528  10.822
60579W        W32839  36.497  17.989   1.701
60580W        W32840  31.209  12.600   0.802
60581W        W32841   8.704  10.747  12.595
60582W        W32842  14.625  38.845   3.268
60583W        W32843   6.915  10.891   1.490
60584W        W32844  34.960  17.409   3.991
60585W        W32845  43.908  15.572   1.969
60586W        W32846   0.967  26.589  13.026
60587W        W32847  14.147  44.166  14.789
60588W        W32848   0.240  43.973  12.635
60589W        W32849  10.476  16.617  14.936
60590W        W32850  17.655  16.703   2.075
60591W        W32851  35.817   6.967   2.637
60592W        W32852  23.694  29.275   4.512
60593W        W32853  31.631   8.791  12.828
60594W        W32854  31.920  20.194  13.464
60595W        W32855  35.945   4.946  13.358
60596W        W32856  16.024  11.827  10.964
60597W        W32857  23.652  41.747  12.581
60598W        W32858   8.914  31.250   4.135
60599W        W32859  19.775  41.549   3.498
60600W        W32860  31.057  30.166   0.977
60601W        W32861   0.223  37.032  12.557
60602W        W32862  29.434  18.810   2.998
60603W        W32863   1.326  16.291   3.204
60604W        W32864  34.487  24.392  14.057
60605W        W32865  22.369  26.929   3.206
60606W        W32866   4.764  30.027  11.951
60607W        W32867   6.133  41.818  11.144
60608W        W32868   6.323  27.023   4.071
60609W        W32869  36.399  19.239   5.034
60610W        W32870  16.907  23.420   3.263
60611W        W32871  27.868  44.607  11.043
60612W        W32872  21.968  33.965  14.256
60613W        W32873  26.750  29.880  13.300
60614W        W32874  39.474  24.977   1.605
60615W        W32875  32.985  35.566   2.745
60616W        W32876   0.430  13.637  13.463
60617W        W32877  29.694  22.109  11.121
60618W        W32878  20.094  39.760   1.699
60619W        W32879  34.645  13.517   0.447
60620W        W32880   1.485  23.473   3.909
60621W        W32881  10.862   2.179  13.051
60622W        W32882  14.642  24.491   4.070
60623W        W32883  11.186   6.406   0.458
60624W        W32884   5.978  20.681   4.354
60625W        W32885   4.937   8.206   3.863
60626W        W32886  24.967   9.329   1.381
60627W        W32887  37.841  17.280  10.757
60628W        W32888  24.686   9.325  11.269
60629W        W32889   6.417  22.411   4.449
60630W        W32890  19.501  37.444  14.474
60631W        W32891  29.946  36.526   4.623
60632W        W32892  26.676  10.213   3.104
60633W        W32893  19.712   2.337   4.573
60634W        W32894  10.458  23.121  12.962
60635W        W32895  10.831  10.095  12.086
60636W        W32896  27.168   6.147   3.067
60637W        W32897  41.579  44.891   2.280
60638W        W32898  43.630  20.642   2.756
60639W        W32899   9.180  22.718  13.236
60640W        W32900  24.520   1.465  11.413
60641W        W32901  38.987  16.248   3.616
60642W        W32902  37.600  43.204  12.081
60643W        W32903  19.624  37.027  12.955
60644W        W32904  40.258   3.769  14.772
60645W        W32905  20.579  21.818  13.351
60646W        W32906   4.987  12.489  13.327
60647W        W32907  39.882   9.988   3.592
60648W        W32908  29.760  19.104  13.090
60649W        W32909  18.044  32.198  11.341
60650W        W32910   6.423  12.424  14.248
60651W        W32911  30.769   4.931   9.825
60652W        W32912  21.368  15.669   0.519
60653W        W32913   1.257   4.649   2.924
60654W        W32914  12.259   8.185   0.536
60655W        W32915  42.710  11.915   3.649
60656W        W32916   4.232  35.814   3.445
60657W        W32917   4.747  29.318  12.387
60658W        W32918  23.529  32.058   0.737
60659W        W32919  34.758  10.258   2.826
60660W        W32920  24.124  29.381   4.252
60661W        W32921  14.254   6.487  13.382
60662W        W32922  41.632   9.101  11.652
60663W        W32923   0.035   6.019  13.076
60664W        W32924   4.776  28.661  14.867
60665W        W32925   9.217  14.067   2.700
60666W        W32926  44.566  17.547   2.755
60667W        W32927   4.240  32.957  13.545
60668W        W32928  44.715  10.815  14.442
60669W        W32929  41.249  12.247  13.891
60670W        W32930  12.334  22.198  12.847
60671W        W32931  30.972  35.731  12.896
60672W        W32932  21.180  13.257  11.490
60673W        W32933  25.215   2.049   1.350
60674W        W32934  28.059  10.229  11.411
60675W        W32935  27.158  42.450   4.682
60676W        W32936   0.862  27.417  14.660
60677W        W32937  32.038  33.349  10.384
60678W        W32938  34.853   8.796   0.015
60679W        W32939  30.049  11.129   3.801
60680W        W32940   9.219  35.382  14.926
60681W        W32941  31.532  40.071   4.813
60682W        W32942  19.024   8.775   5.557
60683W        W32943  30.904   2.170   5.066
60684W        W32944  16.764   4.825   1.854
60685W        W32945  30.566   6.177  13.775
60686W        W32946  16.238  24.498   2.705
60687W        W32947   3.248   3.975   0.918
60688W        W32948  36.471   1.733   1.654
60689W        W32949  23.111  30.598   3.778
60690W        W32950   2.717  19.129  10.670
60691W        W32951  19.064  38.562  13.007
60692W        W32952  40.440  24.954  11.964
60693W        W32953  40.517  11.148   0.828
60694W        W32954  20.105   5.513   1.322
60695W        W32955  37.995  15.019  11.729
60696W        W32956  18.963  39.803   2.294
60697W        W32957  11.590  25.131  12.669
60698W        W32958  24.018  15.252   1.319
60699W        W32959  30.469  35.258  11.070
60700W        W32960  36.455  43.019   2.690
60701W        W32961   0.580   4.453  13.409
60702W        W32962  30.032  21.729  10.989
60703W        W32963  12.299   2.642   3.573
60704W        W32964  25.628  15.389   0.678
60705W        W32965  42.420  19.303   1.180
60706W        W32966  20.472   6.638  10.022
60707W        W32967  32.368  28.581   0.400
60708W        W32968  37.245   9.436  14.192
60709W        W32969  17.690  23.698   4.158
60710W        W32970   8.614   4.823  10.385
60711W        W32971  29.736  24.103   0.303
60712W        W32972  13.071  22.124  12.432
60713W        W32973  33.034  35.505  11.942
60714W        W32974   2.460  42.463  12.830
60715W        W32975  37.710  21.414   0.421
60716W        W32976  40.410  10.130   3.769
60717W        W32977  33.678  23.295   1.003
60718W        W32978  23.591  39.267  11.088
60719W        W32979  20.444  11.372   1.958
60720W        W32980   7.376  40.609   4.471
60721W        W32981  37.079  33.062  12.044
60722W        W32982  26.896  44.050   0.827
60723W        W32983   9.145  44.863   5.021
60724W        W32984  11.134  19.787   4.227
60725W        W32985  19.547  35.455   3.154
60726W        W32986  14.356  26.438  13.408
60727W        W32987   1.516   6.773  13.611
60728W        W32988  39.325   1.918  13.974
60729W        W32989  28.326  33.036   3.600
60730W        W32990   3.525   5.901  10.591
60731W        W32991  12.056  40.016  13.315
60732W        W32992  30.720   4.844   1.808
60733W        W32993  17.812   1.760  12.193
60734W        W32994  16.238   7.315   1.401
60735W        W32995  10.621  30.354  11.520
60736W        W32996  37.022  42.609  11.688
60737W        W32997  19.002  24.539   4.021
60738W        W32998  41.929   9.675   2.314
60739W        W32999  19.997   3.636   0.272
60740W        W33000  27.739  30.593  12.958
60741W        W33001  38.802  25.169   5.100
60742W        W33002  29.066  28.910   5.051
60743W        W33003  38.176  29.105   2.370
60744W        W33004   7.004  33.018   2.716
60745W        W33005  21.984  20.724   0.095
60746W        W33006   9.766  11.877   4.111
60747W        W33007   5.438  22.154   1.751
60748W        W33008  18.837  36.063   3.389
60749W        W33009  31.461  29.479  13.716
60750W        W33010  41.783  29.968   2.001
60751W        W33011  37.460  34.519  14.563
60752W        W33012  11.456   3.081   5.295
60753W        W33013  12.757  23.567   2.639
60754W        W33014  33.516  23.126  14.457
60755W        W33015  44.003  38.116   2.286
60756W        W33016  24.628  32.396  12.897
60757W        W33017  43.366   9.643  11.205
60758W        W33018  11.552   2.384   4.654
60759W        W33019   4.392  25.473   0.156
60760W        W33020  21.132  14.300   0.902
60761W        W33021   2.644  10.486  10.238
60762W        W33022  36.051   2.418  11.553
60763W        W33023  18.631  13.578  11.609
60764W        W33024   5.305   1.559  13.476
60765W        W33025  13.539  44.962   3.339
60766W        W33026  36.884  25.374   4.531
60767W        W33027  42.616  23.163  12.506
60768W        W33028  31.933  35.381  12.941
60769W        W33029  30.861   4.311  14.446
60770W        W33030   2.973  11.050  11.543
60771W        W33031  26.728   4.848   2.177
60772W        W33032   2.790  25.239   1.983
60773W        W33033  12.538   4.238  12.297
60774W        W33034  14.868  27.488   4.242
60775W        W33035  42.985   8.620   4.512
60776W        W33036  33.289  30.679  10.338
60777W        W33037  43.706   6.823  10.620
60778W        W33038  22.347  44.716  10.616
60779W        W33039  37.517  17.075  14.886
60780W        W33040  41.079  43.774  11.182
60781W        W33041  13.956   9.844  13.294
60782W        W33042   2.632  40.397   4.322
60783W        W33043  19.528  26.269  14.822
60784W        W33044  31.028  27.762  10.634
60785W        W33045   7.153  42.903   3.953
60786W        W33046   7.765  28.171  13.881
60787W        W33047  29.196  10.311   4.764
60788W        W33048  15.219  42.527   2.989
60789W        W33049  44.421  12.813   1.414
60790W        W33050  27.550   5.353  10.769
60791W        W33051   1.730  37.985  13.084
60792W        W33052  28.266  19.491  12.999
60793W        W33053  11.529  22.712   3.140
60794W        W33054  44.541  41.364  11.974
60795W        W33055  23.797  28.766  10.504
60796W        W33056  38.708   4.752   4.175
60797W        W33057  28.770   0.817   0.780
60798W        W33058  37.397  17.657   1.599
60799W        W33059   0.825  22.868  10.732
60800W        W33060  30.997   7.397   1.648
60801W        W33061  27.681  23.512   2.812
60802W        W33062  15.005  42.042  11.027
60803W        W33063  31.659  30.674  11.096
60804W        W33064  36.902  30.185  11.406
60805W        W33065  33.839   8.908   2.269
60806W        W33066   7.378  10.763  11.206
60807W        W33067  24.255  19.188  11.409
60808W        W33068  25.508  35.839   4.182
60809W        W33069  37.765   5.590  12.934
60810W        W33070  17.355  37.521   2.649
60811W        W33071   1.134   1.088   1.734
60812W        W33072  18.346  23.471   1.211
60813W        W33073  10.452   2.453  12.894
60814W        W33074  22.114  20.366  12.898
60815W        W33075   5.543  28.682   9.727
60816W        W33076  24.654  20.238   1.408
60817W        W33077  43.913  44.213  14.008
60818W        W33078  32.141  36.529  12.411
60819W        W33079  28.568  41.774   3.793
60820W        W33080  12.019  11.315  14.993
60821W        W33081  23.414  29.606   2.303
60822W        W33082  39.233  32.213   3.593
60823W        W33083  35.843   9.813  13.273
60824W        W33084  12.758   8.454   4.206
60825W        W33085  26.720   8.628   1.717
60826W        W33086  39.971  22.713  12.879
60827W        W33087  44.477   1.454  14.361
60828W        W33088  41.863  32.013   2.422
60829W        W33089  16.990  33.944   4.580
60830W        W33090   4.551  20.733  11.186
60831W        W33091  19.632  16.525   3.235
60832W        W33092  26.294   7.388   2.394
60833W        W33093  36.560  31.072  12.595
60834W        W33094  10.127   0.296  14.877
60835W        W33095  39.142  17.671   0.971
60836W        W33096  22.901   4.678   0.457
60837W        W33097   4.949  40.927  12.224
60838W        W33098  11.203  20.785  12.448
60839W        W33099  31.124   6.840  13.399
60840W        W33100  43.988  16.673   0.097
60841W        W33101  37.670   8.229   2.292
60842W        W33102   3.658  16.429   0.335
60843W        W33103   2.713  31.393   3.856
60844W        W33104  40.779  40.906  13.017
60845W        W33105  12.253  22.341   1.785
60846W        W33106  33.152   5.380  11.069
60847W        W33107   2.913  44.345  12.613
60848W        W33108  14.111  33.034   3.848
60849W        W33109  35.980   2.627   2.698
60850W        W33110  32.963  26.362   4.701
60851W        W33111  25.781  28.311  12.892
60852W        W33112  30.503  42.075  12.054
60853W        W33113  20.636  25.142  12.487
60854W        W33114  12.134  41.287   3.169
60855W        W33115  17.736  37.829   2.853
60856W        W33116  31.377   1.212  11.661
60857W        W33117  12.779   2.444   0.917
60858W        W33118  22.311   9.230   1.732
60859W        W33119  33.479  24.976   1.287
60860W        W33120  18.298   8.363   0.953
60861W        W33121  23.883  19.480   5.047
60862W        W33122  29.882  27.411  13.459
60863W        W33123  35.880  27.545   3.740
60864W        W33124   8.188   9.744   3.084
60865W        W33125  39.156   1.574  10.579
60866W        W33126  24.444  10.133  11.598
60867W        W33127  44.335  15.589  10.503
60868W        W33128  24.819  34.011  13.603
60869W        W33129  41.411  16.340   4.075
60870W        W33130   8.871   3.648   3.509
60871W        W33131   2.485   0.535   2.934
60872W        W33132  33.964  29.397   2.920
60873W        W33133   4.854  44.241  14.908
60874W        W33134  15.517  24.695  14.318
60875W        W33135  28.944  17.295  13.924
60876W        W33136  13.633  30.668  14.765
60877W        W33137  40.633  34.181  13.526
60878W        W33138  10.120  44.709   3.822
60879W        W33139  15.794  25.393   5.092
60880W        W33140  43.639  16.165   3.379
60881W        W33141  25.032  31.639   2.748
60882W        W33142  44.031  30.597   1.147
60883W        W33143   5.637  22.005  12.859
60884W        W33144  32.329   5.481  14.086
60885W        W33145  23.166  43.733  10.876
60886W        W33146  22.270  36.352  13.625
60887W        W33147   8.804  26.579  11.652
60888W        W33148  23.999   7.948  11.119
60889W        W33149  19.945   9.719   4.619
60890W        W33150  44.842  35.938  14.927
60891W        W33151  13.170   1.910   0.014
60892W        W33152  31.748  16.327   3.161
60893W        W33153  32.236  10.305   1.423
60894W        W33154  28.589  32.888   2.726
60895W        W33155  41.750  20.651  12.171
60896W        W33156  31.548  10.671  13.925
60897W        W33157  27.696  42.735   2.854
60898W        W33158  26.558   2.343   2.099
60899W        W33159  34.684   6.090   4.098
60900W        W33160  19.578   9.471   3.816
60901W        W33161  17.089   4.262  14.369
60902W        W33162  43.122   0.240   2.392
60903W        W33163  33.328  34.500   2.644
60904W        W33164  30.619  35.513   1.761
60905W        W33165  28.897  23.424  13.346
60906W        W33166   1.924  42.875   1.328
60907W        W33167  42.015  34.075   3.617
60908W        W33168  41.722  30.204  14.372
60909W        W33169  31.005  34.213  12.899
60910W        W33170  18.970  42.758  11.595
60911W        W33171  14.277  13.922  14.881
60912W        W33172   1.892  10.654   1.681
60913W        W33173  24.019  17.648   3.196
60914W        W33174  41.094  21.827   1.272
60915W        W33175  30.473  27.023  12.871
60916W        W33176   5.783   5.885   0.025
60917W        W33177  10.926  43.688   4.567
60918W        W33178  21.370   3.474   0.295
60919W        W33179  32.476  26.027  10.670
60920W        W33180  25.729  42.531  10.953
60921W        W33181  28.571  30.628   4.039
60922W        W33182   2.887  42.794   2.734
60923W        W33183  32.829   8.777  11.582
60924W        W33184   1.451  35.096  12.390
60925W        W33185  16.195  34.121   1.498
60926W        W33186   9.327  34.454  13.080
60927W        W33187  38.786   5.673  11.544
60928W        W33188   9.905  34.237  11.370
60929W        W33189   9.791  28.178  13.768
60930W        W33190  13.602  24.508  11.083
60931W        W33191   0.841  35.632   4.395
60932W        W33192  29.984  41.762   4.519
60933W        W33193   8.661  27.750  10.723
60934W        W33194  19.010  44.374  13.943
60935W        W33195  40.695  14.149  12.865
60936W        W33196  16.836  24.593   2.141
60937W        W33197  22.970  23.039  13.026
60938W        W33198  15.722  15.714  12.945
60939W        W33199  35.387  21.053   5.067
60940W        W33200  27.539  44.512  14.760
60941W        W33201  20.716  26.106   4.511
60942W        W33202   3.288   6.733   2.683
60943W        W33203  37.046  30.536  10.590
60944W        W33204   6.630  41.214   1.774
60945W        W33205  13.350  22.098   0.518
60946W        W33206   9.315  15.291  13.008
60947W        W33207  12.750  26.407   0.836
60948W        W33208  20.645  40.204   0.446
60949W        W33209   9.680  10.134   2.310
60950W        W33210  15.360  35.937   3.803
60951W        W33211  13.991  25.101   3.105
60952W        W33212  17.222  17.378   0.871
60953W        W33213  15.301  30.481   4.092
60954W        W33214  17.238   0.533   0.880
60955W        W33215   6.985   7.811  12.917
60956W        W33216  18.669  21.817   3.666
60957W        W33217  10.116  19.708  10.087
60958W        W33218  27.606  22.542   4.303
60959W        W33219  13.629  29.978  14.244
60960W        W33220  18.743  40.176   1.870
60961W        W33221  14.670  42.972  14.922
60962W        W33222   8.956  26.061   1.356
60963W        W33223   7.334  33.032   3.182
60964W        W33224  36.655  23.960  10.277
60965W        W33225  42.254  35.553  12.984
60966W        W33226  30.154  29.994   0.970
60967W        W33227  37.999   2.497   2.311
60968W        W33228  26.311   4.949  10.693
60969W        W33229   1.282   3.002  13.057
60970W        W33230  18.767  14.824  11.384
60971W        W33231   8.973   0.726  11.612
60972W        W33232  32.948  23.190   4.199
60973W        W33233  10.813  24.471   1.880
60974W        W33234  39.783  27.987   3.776
60975W        W33235  16.176  16.248  10.072
60976W        W33236  15.690   3.309   2.385
60977W        W33237  15.347   8.867   1.320
60978W        W33238   4.227  25.999   3.053
60979W        W33239  33.620   0.135   1.284
60980W        W33240  44.156   7.819  14.269
60981W        W33241  20.106  34.950  11.560
60982W        W33242  13.273  30.061   4.696
60983W        W33243  23.266  16.652   0.340
60984W        W33244   8.084  31.442   0.890
60985W        W33245  43.723  34.573  11.590
60986W        W33246  16.298  18.364  14.279
60987W        W33247  14.148  25.934  14.588
60988W        W33248  25.278  10.856  12.884
60989W        W33249   8.099   7.022  12.488
60990W        W33250  19.709  12.369   1.922
60991W        W33251  21.253  33.964   2.727
60992W        W33252  42.587  10.429   0.508
60993W        W33253  16.388  38.457  12.836
60994W        W33254  31.387  21.191   3.626
60995W        W33255  12.424  38.950  12.808
60996W        W33256   8.871  17.258   3.155
60997W        W33257  35.932  26.472  12.025
60998W        W33258  23.500  20.611  12.482
60999W        W33259  37.214  41.960  12.897
61000W        W33260  12.440  25.224  10.668
61001W        W33261  21.219   9.089   1.864
61002W        W33262  31.181  17.748  10.691
61003W        W33263   9.220  19.258   2.904
61004W        W33264  19.419  39.380  13.428
61005W        W33265  44.734  42.656   2.892
61006W        W33266  29.411  38.072  14.825
61007W        W33267  23.578  25.890  12.518
61008W        W33268  37.053  12.586   2.865
61009W        W33269  32.661  43.494  10.518
61010W        W33270  38.948  33.405   0.188
61011W        W33271  30.399  38.942   4.134
61012W        W33272  25.053  17.541   2.333
61013W        W33273  31.368  22.535   1.165
61014W        W33274  17.630  13.247   0.817
61015W        W33275  42.443   6.330  13.806
61016W        W33276  24.990   6.186   4.599
61017W        W33277  29.007  21.005  11.560
61018W        W33278  24.154  38.616  11.455
61019W        W33279   9.231  14.352   3.581
61020W        W33280  41.851  29.872  12.967
61021W        W33281  10.595  40.531   4.347
61022W        W33282  40.366  38.362   2.419
61023W        W33283  27.170  26.212   1.658
61024W        W33284  24.715  15.706  12.916
61025W        W33285  13.665  31.857   0.680
61026W        W33286  31.198   3.655   1.176
61027W        W33287  21.455   9.711   2.719
61028W        W33288  35.862  12.327  13.442
61029W        W33289   2.179  18.309   4.961
61030W        W33290  10.987  18.226   3.180
61031W        W33291  30.560  14.094  10.662
61032W        W33292   4.848  38.997  14.246
61033W        W33293  10.249  33.991  11.654
61034W        W33294  11.931  38.252  11.179
61035W        W33295   4.917  42.281  13.503
61036W        W33296  29.986  14.171   0.741
61037W        W33297  44.117   3.439   0.272
61038W        W33298  30.578  25.131   3.862
61039W        W33299  33.175  26.182   1.085
61040W        W33300  40.941  22.150  13.966
61041W        W33301   3.743   1.390   4.114
61042W        W33302  40.561  19.255  10.864
61043W        W33303  44.204  12.630   3.162
61044W        W33304  44.447  20.442   4.124
61045W        W33305  10.731  14.339   3.308
61046W        W33306  24.927  26.762   0.902
61047W        W33307  37.889  20.233  13.548
61048W        W33308   1.473  28.304   4.550
61049W        W33309  30.140  11.144   1.033
61050W        W33310  28.630   4.252   3.422
61051W        W33311  40.864  43.948  14.039
61052W        W33312  35.172  32.635   1.288
61053W        W33313  41.303  17.083  10.653
61054W        W33314  36.331  37.451  14.797
61055W        W33315  37.755  19.491  13.381
61056W        W33316  17.147  15.387   2.918
61057W        W33317  32.094   4.713  13.921
61058W        W33318   7.110  41.477   0.286
61059W        W33319  31.473  23.784   4.215
61060W        W33320  23.652  39.526  14.059
61061W        W33321  14.103   0.208  12.024
61062W        W33322  30.350  26.973   3.439
61063W        W33323  29.921  40.379  14.051
61064W        W33324  36.861  44.659   1.637
61065W        W33325   7.825  44.714  12.089
61066W        W33326  33.617  35.341  14.405
61067W        W33327  43.311  40.212  11.367
61068W        W33328  39.960  20.874   2.844
61069W        W33329  17.631  35.598   2.014
61070W        W33330  12.759  15.860  12.501
61071W        W33331   4.943  22.965   2.342
61072W        W33332  22.151   2.835  11.401
61073W        W33333  25.502  27.718   2.092
61074W        W33334  11.421   0.089  11.414
61075W        W33335   6.418   0.979   2.241
61076W        W33336  21.006  15.715   1.789
61077W        W33337   7.888  40.532   2.731
61078W        W33338   9.415  24.201   4.640
61079W        W33339  38.996   2.084  11.983
61080W        W33340  20.814  12.571   3.496
61081W        W33341   5.904  40.983   1.215
61082W        W33342  38.203  16.546   2.603
61083W        W33343  26.800  22.959  12.917
61084W        W33344   7.240  26.588  11.874
61085W        W33345  10.393  42.343  14.354
61086W        W33346  28.654   7.927   3.157
61087W        W33347  13.335  22.541   4.598
61088W        W33348  11.800  36.064  11.583
61089W        W33349  24.005   2.994  12.607
61090W        W33350  44.964  37.053   3.728
61091W        W33351  38.303  21.756   3.775
61092W        W33352   9.829  30.777   2.625
61093W        W33353   2.353  31.475  14.794
61094W        W33354  15.654  23.320   2.525
61095W        W33355   4.274   2.155  13.840
61096W        W33356   3.128  14.601  12.826
61097W        W33357  31.021   5.973   2.734
61098W        W33358  11.275   2.934  11.049
61099W        W33359   2.914  19.127  14.666
61100W        W33360  32.995  44.038  12.031
61101W        W33361  41.456  17.919   3.646
61102W        W33362  24.875  18.743  12.901
61103W        W33363   0.963  44.332  12.527
61104W        W33364  28.494  24.821  14.027
61105W        W33365  15.017  44.032   2.198
61106W        W33366  33.113  15.848   4.721
61107W        W33367  11.412  27.167  11.460
61108W        W33368  41.004  41.272  12.096
61109W        W33369  37.314  12.530  11.256
61110W        W33370  35.075  10.311  14.517
61111W        W33371  41.157  38.653  10.634
61112W        W33372  27.038  40.432  12.582
61113W        W33373   5.593  32.572  11.622
61114W        W33374  11.336  18.490  10.994
61115W        W33375  24.167  18.008  13.078
61116W        W33376   9.167  25.277  11.502
61117W        W33377  21.277  13.802  10.689
61118W        W33378  38.805   9.831  12.533
61119W        W33379  31.455  18.151   4.996
61120W        W33380  42.304  33.099   3.653
61121W        W33381  19.930  28.943  12.845
61122W        W33382  40.418  11.793   1.661
61123W        W33383   9.863  44.829  13.476
61124W        W33384  14.052  30.165  13.967
61125W        W33385   7.795  24.712  11.426
61126W        W33386  10.183   3.778   3.538
61127W        W33387  18.302   8.419   4.597
61128W        W33388  41.110  31.215   3.984
61129W        W33389  37.071  40.618   2.709
61130W        W33390   2.952   5.333   3.449
61131W        W33391   4.283  18.999   3.353
61132W        W33392  24.616  35.401  14.254
61133W        W33393  31.961  25.641   4.282
61134W        W33394  40.075   1.402  13.982
61135W        W33395  36.431   5.961  12.999
61136W        W33396  42.067  44.636   4.152
61137W        W33397  43.461  26.689   1.971
61138W        W33398   4.901  16.171  11.229
61139W        W33399  36.148   6.504  12.513
61140W        W33400  27.421  29.900   3.366
61141W        W33401  19.151  12.351   4.206
61142W        W33402   4.913  43.025  14.046
61143W        W33403  10.289  28.920  13.913
61144W        W33404  28.938   5.578   1.550
61145W        W33405  24.633  13.805  12.618
61146W        W33406  37.356   9.329  12.640
61147W        W33407   8.101  16.613   1.730
61148W        W33408   3.295  21.232  10.195
61149W        W33409  26.757  10.907  14.298
61150W        W33410  40.658  37.937  12.654
61151W        W33411  15.061   6.324   0.130
61152W        W33412   8.655   8.312   3.627
61153W        W33413  31.487  13.762  11.950
61154W        W33414  44.728   8.437  11.726
61155W        W33415   2.374  38.573   4.318
61156W        W33416  38.373  37.923  10.461
61157W        W33417  44.057  34.443   3.240
61158W        W33418  24.268  26.133   0.740
61159W        W33419  22.256  16.314   2.776
61160W        W33420   6.360  13.604  10.556
61161W        W33421  32.114  34.455   0.779
61162W        W33422   3.712  24.139  12.966
61163W        W33423  34.313  21.707  13.888
61164W        W33424   2.236  30.418  10.867
61165W        W33425  26.971  20.983   0.298
61166W        W33426  17.307  27.426   2.192
61167W        W33427  25.566  40.103   1.269
61168W        W33428  41.542   1.504  12.506
61169W        W33429  38.810  21.748   3.725
61170W        W33430   9.077  10.167   1.528
61171W        W33431  35.486  28.202   4.586
61172W        W33432  27.733   2.809   1.847
61173W        W33433  16.827   7.686  12.064
61174W        W33434  11.024  28.658   0.586
61175W        W33435  14.220  11.278  14.464
61176W        W33436   8.233  24.096   3.597
61177W        W33437  12.846  38.104   0.842
61178W        W33438  23.021  31.155  11.893
61179W        W33439  10.449  20.827   2.230
61180W        W33440  42.695   9.812   3.127
61181W        W33441  11.282  38.657   3.021
61182W        W33442  27.597   2.162  11.216
61183W        W33443  32.863  20.125   1.772
61184W        W33444   4.240   5.485  11.894
61185W        W33445  34.424   9.971  11.223
61186W        W33446  22.936  29.525   9.806
61187W        W33447  44.089  15.330  11.343
61188W        W33448  41.594  17.494   1.418
61189W        W33449   0.823  31.888   9.893
61190W        W33450   1.221   7.635   3.774
61191W        W33451  19.579  10.968  11.692
61192W        W33452  27.719   0.876  13.866
61193W        W33453   7.304  30.615  10.662
61194W        W33454  15.251  18.610   4.461
61195W        W33455   9.908  14.758   4.247
61196W        W33456  38.975   3.389  12.356
61197W        W33457  13.229  35.574   2.429
61198W        W33458   4.416  11.851  12.947
61199W        W33459  32.779  38.551  12.984
61200W        W33460  14.346   7.291  13.227
61201W        W33461  44.067   0.914   0.266
61202W        W33462  39.131  43.360  13.845
61203W        W33463  21.000  22.197  14.013
61204W        W33464  41.417  29.944   4.125
61205W        W33465   4.762   0.667   0.778
61206W        W33466  41.435  42.001  14.782
61207W        W33467  22.970  42.449   0.944
61208W        W33468  18.673  21.239  12.009
61209W        W33469   1.858  34.477   0.406
61210W        W33470  23.136  31.538  14.689
61211W        W33471  18.108  41.773   3.589
61212W        W33472   5.005  14.032   0.795
61213W        W33473  20.660  24.087   2.882
61214W        W33474   4.333  26.254   9.867
61215W        W33475  29.886  30.417   0.848
61216W        W33476  36.981  36.836   0.338
61217W        W33477  30.404   8.161  14.527
61218W        W33478  14.562   2.220  10.586
61219W        W33479  27.608  29.314   4.587
61220W        W33480   2.677  29.470   4.107
61221W        W33481  11.806   2.868   3.634
61222W        W33482  42.019  35.098   0.000
61223W        W33483  26.890   5.289   3.772
61224W        W33484  15.992   8.745   2.599
61225W        W33485   6.196   9.116  14.851
61226W        W33486  36.135  11.335   2.321
61227W        W33487  39.917  39.324   1.508
61228W        W33488  16.662   1.336   0.713
61229W        W33489  23.943   8.847  11.082
61230W        W33490  31.017  27.892   4.138
61231W        W33491   5.265  39.285  11.003
61232W        W33492  40.340  41.048  11.052
61233W        W33493  29.027   2.900  10.473
61234W        W33494  25.278  36.543  11.951
61235W        W33495  28.765  21.912  13.539
61236W        W33496   4.101  24.608   2.435
61237W        W33497  22.750  16.258   4.680
61238W        W33498   2.927  22.148   0.719
61239W        W33499  13.750  31.606  14.412
61240W        W33500  29.234  32.970  14.440
61241W        W33501  29.604  25.047   3.908
61242W        W33502  41.279  33.409   3.661
61243W        W33503  10.343  30.687   3.275
61244W        W33504  39.898  40.419  10.518
61245W        W33505  40.422  44.733   4.554
61246W        W33506   2.057   3.345   1.260
61247W        W33507  35.509  14.011   2.347
61248W        W33508   1.359  19.167  14.027
61249W        W33509  19.704  17.283  12.629
61250W        W33510  33.056  13.841  14.034
61251W        W33511  19.023  41.804  14.381
61252W        W33512  25.855  10.861   2.074
61253W        W33513   5.648   7.859  12.576
61254W        W33514  33.003  14.823   4.701
61255W        W33515  25.325   5.394   2.863
61256W        W33516   2.030  18.046  12.575
61257W        W33517  17.250  13.900  11.003
61258W        W33518  15.697  19.258   4.580
61259W        W33519  37.636  41.973  10.768
61260W        W33520  24.266   2.934   4.700
61261W        W33521  11.697  21.832   1.492
61262W        W33522  33.476  33.513   4.613
61263W        W33523  14.140  39.575  10.981
61264W        W33524  44.476  22.994   3.840
61265W        W33525   2.954   2.544  11.369
61266W        W33526  21.432  36.707  11.658
61267W        W33527   4.843   5.564  10.238
61268W        W33528  35.685  44.118  14.491
61269W        W33529  31.455  19.000  14.243
61270W        W33530  12.354  17.230   4.127
61271W        W33531   0.575  39.573   3.473
61272W        W33532   8.322  33.746   4.432
61273W        W33533  31.192  43.811   1.722
61274W        W33534  24.473  42.397   2.796
61275W        W33535  12.770  23.068  12.512
61276W        W33536  22.552  10.434  14.300
61277W        W33537  36.855   6.892  13.420
61278W        W33538  15.030  38.975   2.890
61279W        W33539  43.451  15.886  11.921
61280W        W33540  20.497  30.845   3.404
61281W        W33541   2.799  29.296   1.456
61282W        W33542  18.539  25.586  12.754
61283W        W33543   4.815  14.303   0.408
61284W        W33544  18.073  33.152  11.559
61285W        W33545  31.527  25.763   4.044
61286W        W33546  15.073  31.070  11.881
61287W        W33547  17.140  24.106  14.371
61288W        W33548   8.589  34.972  10.580
61289W        W33549  29.508   9.155   3.691
61290W        W33550  33.338   4.372  12.321
61291W        W33551  35.385  20.499  13.964
61292W        W33552  28.981  29.196  10.163
61293W        W33553   5.182  30.141   0.460
61294W        W33554   6.690  20.152   3.147
61295W        W33555  28.532  32.402  14.028
61296W        W33556  26.631  11.910   4.029
61297W        W33557  29.409  20.947  12.974
61298W        W33558  27.941  33.602  10.744
61299W        W33559  23.732  35.595  12.973
61300W        W33560  44.899  35.147  12.076
61301W        W33561  38.343  34.830  11.960
61302W        W33562  20.791  31.945  11.628
61303W        W33563   7.203   9.292   2.279
61304W        W33564  33.495  15.619   4.462
61305W        W33565  37.636   1.018  10.538
61306W        W33566   9.850  16.935  13.412
61307W        W33567  16.646  10.826   4.805
61308W        W33568   6.080  13.929  12.455
61309W        W33569  11.343  39.313  13.542
61310W        W33570   3.761  18.706   3.251
61311W        W33571   9.123  31.528   2.887
61312W        W33572  44.026  13.388  14.949
61313W        W33573   5.535  34.733  14.376
61314W        W33574  34.621   6.341   0.090
61315W        W33575  37.685  27.655  14.006
61316W        W33576  25.836  44.434  14.629
61317W        W33577   7.201   8.717  14.360
61318W        W33578   9.788   6.765   2.695
61319W        W33579  43.781  40.828  11.084
61320W        W33580  20.089   1.230  13.943
61321W        W33581  43.099   4.495  10.244
61322W        W33582  12.837  17.531  10.553
61323W        W33583  27.341  22.175  11.680
61324W        W33584  11.064  34.473   2.460
61325W        W33585  15.050   4.405   0.663
61326W        W33586  12.043  25.876   4.265
61327W        W33587  23.096  43.813   3.331
61328W        W33588   5.232  41.782   2.170
61329W        W33589   6.583   9.709  10.922
61330W        W33590  16.809  43.079   2.392
61331W        W33591  40.404  18.594   4.628
61332W        W33592  25.197  14.230   0.257
61333W        W33593  39.157  16.852   2.844
61334W        W33594  26.538  26.066  13.793
61335W        W33595   7.222  35.811   3.351
61336W        W33596   4.700   8.813  13.995
61337W        W33597   1.532  39.357  11.503
61338W        W33598  18.968  38.909   1.487
61339W        W33599  32.611  33.044   1.903
61340W        W33600  17.400  42.943  10.565
61341W        W33601   2.425  19.321  12.305
61342W        W33602  20.996  23.738   1.301
61343W        W33603  33.212   3.830  14.446
61344W        W33604  29.080  21.484  13.570
61345W        W33605   6.342  42.497  10.471
61346W        W33606  31.991  22.069  12.121
61347W        W33607  32.142  11.882   3.311
61348W        W33608  23.177  44.406   4.155
61349W        W33609  14.087  36.351  14.016
61350W        W33610  11.759  35.478   1.709
61351W        W33611   2.784   7.678  14.952
61352W        W33612   8.990   7.459   4.575
61353W        W33613  24.704  20.240   4.207
61354W        W33614  13.106  33.132   2.366
61355W        W33615   7.838  21.225  13.923
61356W        W33616  35.570  43.139   1.965
61357W        W33617   9.648  31.062  12.391
61358W        W33618  12.377  39.873  10.739
61359W        W33619  22.711  15.121   4.098
61360W        W33620  38.633   6.232  14.814
61361W        W33621  34.657   2.863  12.536
61362W        W33622  29.450  39.239  10.475
61363W        W33623  28.243  35.940  14.839
61364W        W33624  15.878  15.305  13.897
61365W        W33625  33.967  18.047  13.824
61366W        W33626  17.355   6.895  13.269
61367W        W33627  28.609  27.217  11.628
61368W        W33628  16.556  21.713   4.280
61369W        W33629  22.054  22.106  14.870
61370W        W33630  28.139  25.189   2.588
61371W        W33631  43.093   6.804   0.387
61372W        W33632  27.122   4.239  13.086
61373W        W33633  37.555  10.535  11.004
61374W        W33634  16.838  10.624   0.833
61375W        W33635  11.690  36.945   3.134
61376W        W33636  44.860  44.421   1.288
61377W        W33637  26.020  12.766  11.176
61378W        W33638  32.096  23.949   3.511
61379W        W33639  11.560   0.440  13.972
61380W        W33640  29.614  27.069   1.589
61381W        W33641  22.090  25.807   3.700
61382W        W33642  23.671  37.382  10.677
61383W        W33643  40.557  12.246  14.875
61384W        W33644  40.237  29.213  14.552
61385W        W33645  40.839  40.339   3.578
61386W        W33646  19.215  13.767   1.209
61387W        W33647   2.152  37.627  11.265
61388W        W33648  27.551  37.328   1.427
61389W        W33649  21.630  34.035  11.984
61390W        W33650  41.834  31.616  10.669
61391W        W33651  39.065   9.195   1.309
61392W        W33652  14.519  16.999  11.134
61393W        W33653  26.838  41.950  12.454
61394W        W33654  18.029  40.753   0.398
61395W        W33655  29.175  15.332   3.689
61396W        W33656   1.762  11.748   3.712
61397W        W33657  26.946   2.273  12.949
61398W        W33658  44.880  27.366   1.725
61399W        W33659  39.543  22.999  12.047
61400W        W33660  11.419  18.472  10.483
61401W        W33661  43.703  20.778   1.406
61402W        W33662  28.787  12.862   2.035
61403W        W33663   4.384  20.008   1.636
61404W        W33664  27.008  17.030  11.695
61405W        W33665  33.680  40.989   2.175
61406W        W33666  40.373  32.140  14.827
61407W        W33667  39.915   6.416  13.707
61408W        W33668  18.109  17.800   2.245
61409W        W33669  20.959   8.933   5.223
61410W        W33670  40.431   7.503  10.833
61411W        W33671  31.885  19.172  14.494
61412W        W33672  16.845  17.451  10.107
61413W        W33673  20.701  35.438  14.012
61414W        W33674  31.891  33.461   3.101
61415W        W33675  41.615  37.539  11.114
61416W        W33676  19.926  13.244   4.499
61417W        W33677  18.193  29.945   1.343
61418W        W33678  10.885  14.150  10.890
61419W        W33679   9.809   6.976   0.887
61420W        W33680   6.533  13.585   3.632
61421W        W33681  25.019   2.764  12.334
61422W        W33682  20.071  35.159   0.464
61423W        W33683  43.380   4.812  11.616
61424W        W33684  42.066  37.843   2.288
61425W        W33685  25.703  35.358   4.364
61426W        W33686  18.318  36.284  14.938
61427W        W33687  15.827   7.363  13.306
61428W        W33688  27.778   1.689  11.242
61429W        W33689   4.829  12.021  13.435
61430W        W33690   1.723  21.805   4.597
61431W        W33691  29.391  37.635   2.137
61432W        W33692  19.153   6.838   0.387
61433W        W33693  14.297  10.171  13.938
61434W        W33694  31.611  11.705   0.751
61435W        W33695  43.315  40.596   1.031
61436W        W33696  36.951  10.791  10.708
61437W        W33697  42.827   0.422  12.061
61438W        W33698  39.520   7.739  13.095
61439W        W33699  25.704  23.491  14.449
61440W        W33700  37.360  17.334  11.006
61441W        W33701  23.410   0.846  14.385
61442W        W33702   2.766   5.313   4.443
61443W        W33703  40.498  37.494  10.558
61444W        W33704  10.296  17.042  11.968
61445W        W33705   0.106  25.964   2.089
61446W        W33706   3.795   2.722   4.056
61447W        W33707  33.398  41.702  12.951
61448W        W33708   6.979   3.896   0.467
61449W        W33709  37.366  40.426  11.865
61450W        W33710  44.897  28.385   3.709
61451W        W33711  18.992  20.488   0.346
61452W        W33712  17.494  28.162   2.283
61453W        W33713  15.330  15.560   4.115
61454W        W33714  26.453  36.130  14.944
61455W        W33715  25.904  31.981  10.722
61456W        W33716  23.584   8.843  13.247
61457W        W33717  43.531   9.894   2.466
61458W        W33718  16.352   8.296   1.856
61459W        W33719  25.527  16.402  14.794
61460W        W33720  43.444  28.691  12.654
61461W        W33721  32.459  28.548  12.063
61462W        W33722  35.916  13.334  13.323
61463W        W33723   6.357   1.524  12.882
61464W        W33724  41.036  31.095   3.475
61465W        W33725  30.213  15.112  11.555
61466W        W33726  43.353  41.428   3.078
61467W        W33727  36.719   9.507   5.523
61468W        W33728  28.156   9.535   0.578
61469W        W33729  27.455   0.734   4.441
61470W        W33730   8.929  37.987  11.137
61471W        W33731  15.268   4.670  14.405
61472W        W33732   2.970  35.401   0.399
61473W        W33733   6.538  39.712  10.731
61474W        W33734  41.608  27.530   2.692
61475W        W33735  15.322  33.559  11.506
61476W        W33736  12.426  17.982  13.808
61477W        W33737  34.494  32.950   4.175
61478W        W33738  26.475   7.127   0.463
61479W        W33739  20.653  22.423   3.711
61480W        W33740  44.968  14.448  13.497
61481W        W33741  24.475  15.921   4.662
61482W        W33742  22.705  42.437   2.280
61483W        W33743  15.818   8.734   1.444
61484W        W33744   7.988  29.473  10.237
61485W        W33745   3.423   2.790   4.931
61486W        W33746   9.475  16.679   2.280
61487W        W33747  31.051  21.129  11.579
61488W        W33748   5.406  33.520  11.296
61489W        W33749  19.824  15.837  11.108
61490W        W33750  15.454  16.744   4.583
61491W        W33751   5.215  15.643   2.813
61492W        W33752  35.965  28.179   0.202
61493W        W33753  17.339  27.077  10.306
61494W        W33754   2.536  19.809  10.675
61495W        W33755   7.212   4.510   4.546
61496W        W33756  43.400  20.560   2.278
61497W        W33757  16.810  33.808   3.558
61498W        W33758  19.334  35.561   1.781
61499W        W33759  28.470  11.849   4.382
61500W        W33760  38.568  34.866   3.720
61501W        W33761  20.554   8.608  11.576
61502W        W33762   8.895   9.015  10.979
61503W        W33763   8.726  37.408   4.864
61504W        W33764  21.498  33.833  11.112
61505W        W33765  13.397  22.749  12.063
61506W        W33766   2.000  14.833   2.297
61507W        W33767  23.264  28.760  10.174
61508W        W33768  37.497  11.565   5.005
61509W        W33769  29.560  26.743  12.462
61510W        W33770  42.566  19.221   1.683
61511W        W33771  35.120  16.811  11.641
61512W        W33772  35.578  12.846  10.806
61513W        W33773  31.916  28.954   0.097
61514W        W33774   6.742  44.317  12.879
61515W        W33775  43.515   4.240   0.885
61516W        W33776  44.425  38.995   0.434
61517W        W33777   9.710   8.283   1.935
61518W        W33778  20.792  25.636  14.136
61519W        W33779  20.555  43.599   2.724
61520W        W33780  39.459   5.219   4.544
61521W        W33781   8.204   6.538  12.349
61522W        W33782  17.768  22.052  13.548
61523W        W33783  28.925  22.119  11.267
61524W        W33784  29.840  20.601   4.879
61525W        W33785  17.353  11.417   3.394
61526W        W33786  42.114  27.665   2.641
61527W        W33787  21.391  14.777   3.113
61528W        W33788  17.157  35.501   3.518
61529W        W33789   8.899   4.236  13.457
61530W        W33790   8.368   3.772  10.507
61531W        W33791   4.523   0.726   4.230
61532W        W33792  43.790  39.059   0.949
61533W        W33793  11.734   2.381  12.829
61534W        W33794  30.555  25.473  11.645
61535W        W33795   1.843   9.518   3.810
61536W        W33796  32.818  18.992   2.721
61537W        W33797  27.742   2.725  13.838
61538W        W33798   2.800  13.191   1.258
61539W        W33799  15.705  15.923  10.107
61540W        W33800  27.935   9.410   1.439
61541W        W33801  28.680  36.475   2.209
61542W        W33802   3.418  43.732  11.520
61543W        W33803  14.725  16.332   1.884
61544W        W33804   2.309  39.412   4.608
61545W        W33805  18.742  37.412  13.360
61546W        W33806  29.056   5.303  11.223
61547W        W33807  13.276  44.510   3.335
61548W        W33808   8.231  11.541  10.593
61549W        W33809   2.020   6.215   3.367
61550W        W33810  25.440  29.098  12.533
61551W        W33811  28.759  34.048  13.569
61552W        W33812  15.993  10.329  12.368
61553W        W33813  37.078  35.800   0.347
61554W        W33814  33.167   2.011   2.267
61555W        W33815   3.715   7.833  11.373
61556W        W33816  31.401   8.226   3.787
61557W        W33817  11.730  22.995  13.350
61558W        W33818  33.140   8.394   0.337
61559W        W33819   8.783  33.385   2.473
61560W        W33820  18.981  22.802   4.021
61561W        W33821  43.439   9.658  14.830
61562W        W33822  40.386  43.082  13.880
61563W        W33823  21.542   5.154   3.272
61564W        W33824  34.120  39.725  12.887
61565W        W33825  38.900   2.373  13.905
61566W        W33826   4.517   3.308  11.599
61567W        W33827  15.863  39.751   4.694
61568W        W33828  18.583  19.032   3.390
61569W        W33829  19.657  40.877  11.005
61570W        W33830  28.896  34.131  14.691
61571W        W33831   4.348  15.476  11.017
61572W        W33832  31.125  34.158   4.052
61573W        W33833  40.913  10.133   1.380
61574W        W33834   1.916   0.279  10.719
61575W        W33835  38.961  14.676   4.623
61576W        W33836   3.765   2.654  14.411
61577W        W33837   6.698   7.198   1.755
61578W        W33838  43.975  38.015   3.698
61579W        W33839  12.920   5.400   2.588
61580W        W33840  35.450  26.011   2.833
61581W        W33841  44.768   9.933   2.746
61582W        W33842   2.494   9.611   3.918
61583W        W33843   7.878   3.270  12.656
61584W        W33844  37.900   7.274   9.624
61585W        W33845  36.674  32.876  11.173
61586W        W33846  14.206   7.579   4.101
61587W        W33847  36.152  43.390   0.437
61588W        W33848  16.395   9.566   1.497
61589W        W33849  35.476  35.522  12.562
61590W        W33850  33.919  34.570  14.275
61591W        W33851  11.543   8.237  14.859
61592W        W33852  20.723   2.893   3.731
61593W        W33853  33.333  26.173   1.897
61594W        W33854  11.427  23.085   4.486
61595W        W33855   7.192  38.029   2.284
61596W        W33856  38.454  13.822   4.708
61597W        W33857  33.976  33.627   1.849
61598W        W33858  42.105  26.743  11.217
61599W        W33859  26.814  18.211  12.034
61600W        W33860  35.695  21.673   1.709
61601W        W33861  16.702  44.041  10.445
61602W        W33862  22.470  18.600  11.269
61603W        W33863   7.869  42.324   4.947
61604W        W33864   7.805   0.297  12.918
61605W        W33865  23.771  33.442   3.637
61606W        W33866  23.495  21.922  13.723
61607W        W33867   9.781  15.402   2.701
61608W        W33868  30.958  26.009   1.152
61609W        W33869  18.820  41.085   0.594
61610W        W33870  43.257  37.020  14.900
61611W        W33871  32.324   8.297  10.594
61612W        W33872  32.350  12.421  14.526
61613W        W33873  31.265   7.897   2.278
61614W        W33874  41.718   9.071   0.499
61615W        W33875  41.808  41.851  14.457
61616W        W33876   8.460  25.495  12.557
61617W        W33877  36.468  25.096   0.852
61618W        W33878   0.501  13.443   1.372
61619W        W33879  40.906  12.970  11.113
61620W        W33880  28.731   7.166   2.994
61621W        W33881  31.325   3.405  11.161
61622W        W33882  38.814  22.084  12.433
61623W        W33883  10.390  30.429  10.005
61624W        W33884   5.806   3.313   3.246
61625W        W33885  21.503  31.511  14.452
61626W        W33886  25.672   8.762   4.520
61627W        W33887  23.767  10.915  11.526
61628W        W33888  36.834   7.800   0.271
61629W        W33889   3.305   0.532  12.456
61630W        W33890  26.958  20.464   1.362
61631W        W33891  21.504   5.685   4.470
61632W        W33892   6.186  41.942   0.108
61633W        W33893  13.694  12.864  11.550
61634W        W33894  15.665  32.357   0.646
61635W        W33895  37.461  32.553   4.889
61636W        W33896  26.506  38.538  11.843
61637W        W33897  14.104  20.004   4.191
61638W        W33898  12.709  38.528  10.677
61639W        W33899  28.290   5.338  13.555
61640W        W33900  29.760  25.515   3.063
61641W        W33901   5.104  37.829  11.148
61642W        W33902   5.688  29.296   4.984
61643W        W33903   2.923   5.741  11.411
61644W        W33904   0.383  23.987  12.973
61645W        W33905   7.854  27.208   1.942
61646W        W33906   2.253  14.768  11.153
61647W        W33907   1.198  20.129   2.222
61648W        W33908  12.082  10.296  10.733
61649W        W33909  12.882  14.726   2.193
61650W        W33910  12.237  12.516   1.272
61651W        W33911  14.659  19.090   0.478
61652W        W33912  35.111  44.850   3.729
61653W        W33913  38.634  31.223  13.321
61654W        W33914   2.393  12.598  12.995
61655W        W33915  18.764  41.615  10.290
61656W        W33916  34.228  14.952  12.398
61657W        W33917   8.591  34.316  11.020
61658W        W33918  16.154  43.269   3.877
61659W        W33919  34.835  19.686  10.692
61660W        W33920  39.978  24.073  10.607
61661W        W33921  19.119  11.741  14.462
61662W        W33922  23.629  25.521  11.984
61663W        W33923  38.832   9.783   3.269
61664W        W33924  30.661  36.618  10.732
61665W        W33925  17.081  39.021  12.114
61666W        W33926  36.375   4.651  13.556
61667W        W33927  34.866  18.337  11.708
61668W        W33928  31.137  27.355  12.455
61669W        W33929  30.403  10.145  12.524
61670W        W33930  25.282  11.356  13.791
61671W        W33931  12.955   0.776   1.944
61672W        W33932  35.862   0.263   2.303
61673W        W33933   4.337  16.521  13.007
61674W        W33934   1.806  29.516   2.878
61675W        W33935  29.043  33.514   1.371
61676W        W33936  34.923  37.062  12.989
61677W        W33937  19.468  23.569  13.540
61678W        W33938  14.706  31.573   1.826
61679W        W33939  19.320  30.493  11.945
61680W        W33940  35.065  39.385  14.396
61681W        W33941   6.466   3.847  13.991
61682W        W33942  36.611  23.124  10.561
61683W        W33943   4.711  41.765   3.020
61684W        W33944  29.971  24.768   1.021
61685W        W33945  24.994  37.362   3.177
61686W        W33946  16.719  29.938   1.743
61687W        W33947  10.347  11.870  10.784
61688W        W33948   0.909   3.267   1.904
61689W        W33949  24.606   6.629   1.843
61690W        W33950  10.160  19.713   3.747
61691W        W33951  29.945  34.618   2.603
61692W        W33952   2.910  18.957   1.199
61693W        W33953  44.037  14.985  10.503
61694W        W33954  11.705   6.590   1.721
61695W        W33955  15.856  34.323  13.463
61696W        W33956  29.939  18.615   0.969
61697W        W33957  37.577  27.027  11.995
61698W        W33958  30.976  12.383   0.353
61699W        W33959  29.865  26.608  14.472
61700W        W33960  39.272   8.273  14.979
61701W        W33961   1.266  11.778  14.452
61702W        W33962  18.037   9.778  14.277
61703W        W33963  37.751  42.763   2.406
61704W        W33964  24.570  42.359   0.907
61705W        W33965  22.341  41.014   1.915
61706W        W33966  38.103  25.228   3.294
61707W        W33967  28.196  37.328   3.748
61708W        W33968   2.836  12.774   0.416
61709W        W33969  42.576  10.114   2.714
61710W        W33970  20.188  24.038  13.892
61711W        W33971  16.315  29.488   3.183
61712W        W33972  32.418  41.471   1.728
61713W        W33973   1.557   9.857  14.274
61714W        W33974  11.841  22.640   1.129
61715W        W33975  20.225  35.024   2.439
61716W        W33976  16.701  17.455   0.897
61717W        W33977  17.082  31.956  12.542
61718W        W33978   2.292  41.507   1.288
61719W        W33979   2.427  43.836  10.983
61720W        W33980  35.314   3.791  11.114
61721W        W33981  12.841  24.720  14.411
61722W        W33982  40.985  21.093  10.848
61723W        W33983  18.738  20.212   2.748
61724W        W33984  28.964  22.330   2.284
61725W        W33985  25.155  38.840   3.137
61726W        W33986  38.282  22.540  12.413
61727W        W33987  29.338  44.063   4.193
61728W        W33988   7.621  16.349  11.573
61729W        W33989  41.458   2.451   5.029
61730W        W33990   4.057  18.583  12.929
61731W        W33991  24.822  11.615   0.917
61732W        W33992  13.323  38.073   0.114
61733W        W33993   7.217  38.607  13.501
61734W        W33994  23.206  19.246   3.889
61735W        W33995  39.985  28.873   0.713
61736W        W33996   4.843  44.024   2.567
61737W        W33997  18.420  32.053   1.611
61738W        W33998  27.484  21.246   1.257
61739W        W33999  32.371  15.337   1.313
61740W        W34000  43.525   9.423   4.251
61741W        W34001  33.528  16.988   2.224
61742W        W34002  42.025   7.390   1.194
61743W        W34003  43.721  22.392  13.957
61744W        W34004   8.762  35.105  14.932
61745W        W34005   9.589  35.602   0.801
61746W        W34006   8.392   8.769   0.412
61747W        W34007   0.289   6.918  14.857
61748W        W34008  16.497  18.639   1.763
61749W        W34009  20.854  20.101  13.579
61750W        W34010  34.940  20.481  11.501
61751W        W34011  13.923  26.860   5.075
61752W        W34012   5.954  10.124   2.763
61753W        W34013  22.152  29.173  11.040
61754W        W34014  13.182   1.221   0.865
61755W        W34015  18.177  21.846   0.844
61756W        W34016  21.167  37.943   0.232
61757W        W34017  29.531  11.236   3.696
61758W        W34018  24.552  42.782   1.209
61759W        W34019  15.873   8.154  14.746
61760W        W34020  25.672   8.993  14.883
61761W        W34021  19.708  19.453   0.888
61762W        W34022  28.940  23.250   2.720
61763W        W34023  27.114  18.153   4.676
61764W        W34024   0.961   0.701  13.671
61765W        W34025  12.199   4.707   3.389
61766W        W34026  32.030  21.782   1.391
61767W        W34027  13.882  33.484  13.828
61768W        W34028  32.812  44.503   1.462
61769W        W34029  34.163  36.004  14.295
61770W        W34030   5.257  11.901   0.726
61771W        W34031  33.549  39.983   4.224
61772W        W34032  15.597  13.603   1.727
61773W        W34033  21.740   9.152   1.174
61774W        W34034  24.437   9.062  10.542
61775W        W34035  42.501   7.713  11.600
61776W        W34036   6.156  10.132  14.796
61777W        W34037  44.423  25.734  14.418
61778W        W34038  16.307   6.461  14.490
61779W        W34039  26.332  31.275   9.986
61780W        W34040  30.435  22.506  13.247
61781W        W34041  43.870  43.918  14.878
61782W        W34042   6.794  30.650  12.917
61783W        W34043  30.618  29.091   1.397
61784W        W34044  17.336   4.259  10.706
61785W        W34045  13.880  37.308  11.068
61786W        W34046  41.262  34.445  13.028
61787W        W34047  34.757  34.537   0.867
61788W        W34048  43.655  22.021   3.661
61789W        W34049  11.639  34.962   1.716
61790W        W34050  13.868  36.526  11.517
61791W        W34051   8.048  36.921   2.849
61792W        W34052  35.657  16.098   4.146
61793W        W34053  37.470  39.377  14.043
61794W        W34054   1.677  15.187  11.637
61795W        W34055  13.846  35.411   4.626
61796W        W34056  39.699  29.341  12.054
61797W        W34057   8.227  19.169   2.901
61798W        W34058  18.917  12.334  12.461
61799W        W34059  39.363  37.046   2.099
61800W        W34060  36.921  20.176   2.603
61801W        W34061  34.632  14.797  13.910
61802W        W34062  16.146  27.654  13.073
61803W        W34063  10.978  30.446   1.689
61804W        W34064  20.280   0.693  12.602
61805W        W34065  35.364  15.570  13.664
61806W        W34066   4.707  29.557  14.252
61807W        W34067  39.159  32.015  12.803
61808W        W34068  35.884   4.503  13.625
61809W        W34069   9.380   5.533  11.534
61810W        W34070   7.263   0.975  12.113
61811W        W34071   4.081  11.823   0.878
61812W        W34072  12.501  15.797   1.299
61813W        W34073  28.469  26.960   4.129
61814W        W34074  37.469   9.059  13.057
61815W        W34075   6.917  43.826  14.321
61816W        W34076  14.895  13.846  11.628
61817W        W34077   2.011  28.935   0.289
61818W        W34078  18.572  27.205  14.415
61819W        W34079  31.625   7.409   3.803
61820W        W34080  13.891  37.048  13.935
61821W        W34081  37.084  24.655   0.667
61822W        W34082  20.733  13.104   0.072
61823W        W34083  27.601  21.493   0.359
61824W        W34084   5.753  22.505  12.818
61825W        W34085   7.667  36.004  13.776
61826W        W34086  44.596   8.301   0.806
61827W        W34087  16.362  36.631  14.862
61828W        W34088  43.822   4.128  14.786
61829W        W34089   9.518   4.679  14.823
61830W        W34090  19.191  35.091   3.035
61831W        W34091  19.710  16.128   2.203
61832W        W34092   6.711  25.658   4.562
61833W        W34093  33.587   5.622  11.306
61834W        W34094  13.338  14.684   3.365
61835W        W34095   7.948   6.906  14.414
61836W        W34096  20.127  31.407  14.518
61837W        W34097  25.053  39.830   4.047
61838W        W34098  43.460   9.318  14.046
61839W        W34099  16.505  29.068   3.674
61840W        W34100   0.530  35.899   2.284
61841W        W34101   3.763  43.916   4.879
61842W        W34102   0.704  18.635   0.227
61843W        W34103  28.470  40.405  13.970
61844W        W34104  28.782  38.944  11.564
61845W        W34105   3.232  16.757   3.078
61846W        W34106  17.299  44.471  14.025
61847W        W34107  19.786  16.548  14.422
61848W        W34108  35.474  34.291   0.005
61849W        W34109   0.322  12.796   4.181
61850W        W34110  43.809  35.393  14.572
61851W        W34111   4.322  36.638  12.031
61852W        W34112  21.757  32.941  13.872
61853W        W34113  30.162  41.489  12.908
61854W        W34114   9.347  12.841  14.347
61855W        W34115  32.082   9.889   2.646
61856W        W34116   5.860  11.344  13.379
61857W        W34117   8.670   5.839   0.507
61858W        W34118   6.652  22.483  13.607
61859W        W34119  35.441   1.900  13.051
61860W        W34120  23.903   1.768   2.910
61861W        W34121  34.642  25.943  12.037
61862W        W34122  39.408   5.411   1.012
61863W        W34123  37.913  16.639  12.974
61864W        W34124   8.235  37.887   1.301
61865W        W34125  12.522  22.728   3.189
61866W        W34126  18.845  16.574   4.231
61867W        W34127  29.478  27.430  14.221
61868W        W34128  24.041  36.841   1.851
61869W        W34129  31.638  36.242   4.191
61870W        W34130  34.886  29.998   4.045
61871W        W34131  32.850  12.117   2.696
61872W        W34132  32.046  20.203  10.696
61873W        W34133   5.438  40.803  14.359
61874W        W34134  10.455  42.492   2.730
61875W        W34135  44.945  20.710   4.118
61876W        W34136  27.521  22.193   0.988
61877W        W34137  20.522  10.700   3.709
61878W        W34138  27.494   6.896  11.825
61879W        W34139  33.651   0.416  11.189
61880W        W34140  35.184   2.708   3.166
61881W        W34141   5.924  18.266   2.716
61882W        W34142  13.294   6.414   0.239
61883W        W34143  33.167  39.486  12.062
61884W        W34144  37.487  11.197   1.909
61885W        W34145   6.701  30.702   4.121
61886W        W34146   4.020  29.447   4.451
61887W        W34147  36.455  24.109  14.730
61888W        W34148  18.807  40.634  11.096
61889W        W34149  16.023  27.026  10.440
61890W        W34150   6.475  36.396  13.649
61891W        W34151  42.167  25.929   1.774
61892W        W34152  21.381  11.591   3.090
61893W        W34153  36.694  36.371   5.136
61894W        W34154  40.126  37.392   3.217
61895W        W34155  24.966  20.634   2.743
61896W        W34156  31.466  38.162   0.688
61897W        W34157   3.713  42.933  12.984
61898W        W34158  13.112  21.241   0.419
61899W        W34159  11.960  15.509   4.060
61900W        W34160   9.841  39.698   0.285
61901W        W34161  27.742  35.938  14.913
61902W        W34162   6.231  42.370  14.765
61903W        W34163   3.282   3.926  14.891
61904W        W34164  14.471   3.332  13.387
61905W        W34165  44.009  39.177  11.968
61906W        W34166  35.119  37.882   3.832
61907W        W34167  13.400  37.165   2.695
61908W        W34168  32.983  19.973  14.584
61909W        W34169  42.639  24.169  13.244
61910W        W34170   0.882  10.328  14.050
61911W        W34171  37.196  19.740   5.070
61912W        W34172  32.968  42.619  11.526
61913W        W34173  31.669  31.913   4.839
61914W        W34174  10.192  27.288   4.230
61915W        W34175   8.211  30.056   1.345
61916W        W34176  20.628  39.233   0.440
61917W        W34177  26.427   7.662   4.918
61918W        W34178   3.243  25.115   0.941
61919W        W34179  13.835  29.351   3.768
61920W        W34180  26.018  21.261   2.424
61921W        W34181  27.981   8.301   4.147
61922W        W34182   6.237  39.003   0.081
61923W        W34183  41.292  41.447  12.496
61924W        W34184   6.176  30.726  13.388
61925W        W34185  21.280  30.711   0.919
61926W        W34186   2.419  29.915   3.557
61927W        W34187  33.929   5.835  10.988
61928W        W34188  28.481  25.074   0.217
61929W        W34189   4.164  27.987  14.506
61930W        W34190  32.443   3.760  14.884
61931W        W34191  29.700  21.759   2.861
61932W        W34192  36.307  36.870   1.021
61933W        W34193  43.292  31.191  14.846
61934W        W34194  30.016   9.180   5.025
61935W        W34195  23.015  31.625   1.836
61936W        W34196  37.089  40.806  12.118
61937W        W34197  28.355  27.665  14.734
61938W        W34198  34.918  41.410   2.601
61939W        W34199  29.412   5.264  11.595
61940W        W34200  37.482  44.213  14.383
61941W        W34201  18.062   9.745   4.417
61942W        W34202   8.091  21.224  13.441
61943W        W34203  17.678   1.690   2.284
61944W        W34204   1.966  39.447  14.257
61945W        W34205  28.018  38.774  11.280
61946W        W34206  23.992  18.498  13.059
61947W        W34207   9.075  11.263  11.487
61948W        W34208  18.814  23.640  11.702
61949W        W34209  42.856  38.599   0.804
61950W        W34210   9.433  31.095   2.858
61951W        W34211   2.371   9.400  14.937
61952W        W34212  44.775  17.987  14.460
61953W        W34213  29.564  33.447   1.318
61954W        W34214   9.766  21.101   1.177
61955W        W34215  38.018  25.163   4.666
61956W        W34216  32.744   3.685  13.474
61957W        W34217  13.847  31.405   2.575
61958W        W34218  20.117  15.844   0.415
61959W        W34219  19.849  21.591  14.161
61960W        W34220  23.787  25.551   2.730
61961W        W34221  16.573   5.686   0.380
61962W        W34222  44.644   4.831  11.343
61963W        W34223  12.911  11.880   4.096
61964W        W34224  33.041  38.801   2.759
61965W        W34225  33.662  39.792  12.614
61966W        W34226   8.401  21.399  11.418
61967W        W34227  37.605  18.810   0.420
61968W        W34228  24.645   6.644  10.926
61969W        W34229  18.063   6.040  13.901
61970W        W34230  21.662  28.423  14.707
61971W        W34231  23.214  38.936  12.393
61972W        W34232   8.388  23.708  13.160
61973W        W34233  28.986   6.282  14.855
61974W        W34234  28.648   8.330   3.497
61975W        W34235  40.967   4.187   4.799
61976W        W34236  36.643  19.570  11.433
61977W        W34237  13.804  20.380   1.878
61978W        W34238  33.343  11.427   4.082
61979W        W34239  18.031  16.588  10.720
61980W        W34240  10.715   4.662  13.407
61981W        W34241  20.019   5.428   0.738
61982W        W34242  43.909  18.832  12.057
61983W        W34243  41.239  44.742   3.674
61984W        W34244  21.464  15.150  12.818
61985W        W34245  16.520  32.277  12.064
61986W        W34246  12.001  15.335  12.029
61987W        W34247   9.919  44.230   3.837
61988W        W34248   3.847  15.622  14.920
61989W        W34249  11.914  42.823   0.776
61990W        W34250  31.063  21.427   0.537
61991W        W34251  27.929   5.340   0.010
61992W        W34252   5.979  34.757   4.199
61993W        W34253  20.426   8.271   2.719
61994W        W34254  41.577  22.470   2.484
61995W        W34255  19.638  35.209  14.441
61996W        W34256  36.072  14.159   4.651
61997W        W34257  40.581  22.311   3.708
61998W        W34258  15.816  24.432  12.113
61999W        W34259  35.368  42.944  11.964
62000W        W34260   3.883  26.359  12.799
62001W        W34261  28.429  44.812  10.771
62002W        W34262  22.247  12.376   1.257
62003W        W34263  25.069  40.870   0.518
62004W        W34264   1.940   8.239  12.166
62005W        W34265  11.197   6.375  13.981
62006W        W34266  12.250  29.640  11.039
62007W        W34267  33.496  44.784  12.052
62008W        W34268   4.313  14.065  10.961
62009W        W34269   4.053  12.030  12.074
62010W        W34270   6.383  27.602   3.396
62011W        W34271  23.075  15.848   2.832
62012W        W34272   7.225  43.102  11.593
62013W        W34273  13.097  42.030  13.533
62014W        W34274  21.021  26.191  13.763
62015W        W34275  24.196  20.488   2.225
62016W        W34276  30.464   1.387   3.325
62017W        W34277  15.541  42.917   2.713
62018W        W34278  31.675  29.143   0.521
62019W        W34279  43.267  19.148   2.310
62020W        W34280  35.151  36.970   3.244
62021W        W34281  23.587  23.635   3.216
62022W        W34282  26.086  23.553  13.499
62023W        W34283  17.601  26.934  13.453
62024W        W34284  38.450  18.683   3.141
62025W        W34285  19.406  30.563   0.921
62026W        W34286  35.439   7.966   4.528
62027W        W34287  27.893   0.843  11.250
62028W        W34288  32.909  28.619   0.326
62029W        W34289  11.377  15.136   0.542
62030W        W34290  14.151  14.776   1.782
62031W        W34291  36.646  16.192   1.303
62032W        W34292  30.673  39.484  10.762
62033W        W34293  21.451  26.545   1.151
62034W        W34294   4.429  16.555  13.548
62035W        W34295   0.548  27.939  11.242
62036W        W34296  32.632  25.403   4.644
62037W        W34297   3.260  20.116   4.092
62038W        W34298  30.999  17.232   0.261
62039W        W34299  23.135   9.751  12.475
62040W        W34300  27.475  13.769   0.107
62041W        W34301  14.789   0.797  10.759
62042W        W34302  32.971  27.220  14.467
62043W        W34303   5.726  30.151   3.182
62044W        W34304  25.560   0.680   3.287
62045W        W34305  21.253  42.801   1.936
62046W        W34306  11.527  17.802  11.959
62047W        W34307   4.843   4.787  11.895
62048W        W34308  15.324  15.284  10.167
62049W        W34309  42.721  25.547   3.318
62050W        W34310  22.298  15.328   1.797
62051W        W34311  22.574   7.363   3.670
62052W        W34312  12.983  10.301   0.637
62053W        W34313  13.099  12.364   2.129
62054W        W34314  32.094  20.790   0.289
62055W        W34315  17.751  25.992   1.857
62056W        W34316  38.176  30.531  14.940
62057W        W34317  24.235  25.136  10.431
62058W        W34318  29.378   1.227   2.423
62059W        W34319  40.919  10.320   4.614
62060W        W34320   9.963  12.124  13.971
62061W        W34321  26.489  29.529   3.214
62062W        W34322  29.437  41.317  10.783
62063W        W34323  42.643   5.843  12.084
62064W        W34324  27.896  14.843   0.867
62065W        W34325  43.347   6.756   4.118
62066W        W34326   8.602  11.979  14.935
62067W        W34327  30.542  29.526   4.674
62068W        W34328  14.946  22.828   2.736
62069W        W34329  14.234  38.154  14.802
62070W        W34330  13.383  18.120  12.024
62071W        W34331  13.914  24.203   2.615
62072W        W34332   7.627  32.835  12.409
62073W        W34333  38.341  36.558   3.828
62074W        W34334  18.117  21.646  12.622
62075W        W34335  14.593  34.814  14.115
62076W        W34336  23.772   1.564  14.478
62077W        W34337   7.586  24.501  12.742
62078W        W34338  16.711  24.326   3.868
62079W        W34339  14.316  28.169   1.818
62080W        W34340  15.104  36.087   4.222
62081W        W34341  34.754  41.191  12.097
62082W        W34342  35.555  33.845  11.637
62083W        W34343  18.293  12.618   0.426
62084W        W34344  30.618  24.556  11.583
62085W        W34345   5.808  39.749  14.262
62086W        W34346  22.936  18.257  10.593
62087W        W34347  22.245  15.341  14.496
62088W        W34348  29.024  30.290  13.304
62089W        W34349  26.134  38.597  10.156
62090W        W34350  27.773  33.058  13.550
62091W        W34351   7.761  12.423   0.926
62092W        W34352   0.318  24.727   0.019
62093W        W34353  28.473   0.009   0.338
62094W        W34354  40.673  23.708  14.013
62095W        W34355   2.647  40.984  11.682
62096W        W34356  18.693  30.146  13.640
62097W        W34357  22.152  33.973  12.110
62098W        W34358  36.098  15.110  14.071
62099W        W34359  13.389  21.187   1.677
62100W        W34360  14.110  38.508  11.567
62101W        W34361   9.217   6.398  12.992
62102W        W34362  44.653  20.331  11.156
62103W        W34363  27.878  14.600   2.236
62104W        W34364  44.552  12.817   0.390
62105W        W34365   2.718  24.806   0.475
62106W        W34366  11.154   9.276   1.673
62107W        W34367  29.759  20.992   2.677
62108W        W34368   2.836   0.375   3.299
62109W        W34369  17.617  27.502  10.440
62110W        W34370  44.410   6.287   3.334
62111W        W34371  12.768  40.283  12.934
62112W        W34372   4.541  20.496   1.730
62113W        W34373  29.241  29.579   1.951
62114W        W34374   9.839   6.455   0.801
62115W        W34375  42.907  41.574   2.770
62116W        W34376   0.688  40.777  10.482
62117W        W34377  30.195  13.848  11.038
62118W        W34378  43.307   4.763   2.629
62119W        W34379  33.690  31.954  10.613
62120W        W34380  30.362  34.644  11.998
62121W        W34381  39.916  35.662  12.856
62122W        W34382  21.300  39.034   3.532
62123W        W34383  38.438   5.154   3.969
62124W        W34384  31.030   5.398   1.587
62125W        W34385   1.972  28.542   0.939
62126W        W34386   6.297  13.047  12.429
62127W        W34387   2.699   1.819  13.139
62128W        W34388  14.231  35.661  11.536
62129W        W34389  36.037  37.492   2.383
62130W        W34390  30.502  32.593   2.834
62131W        W34391  44.730  15.286  14.869
62132W        W34392  43.759   4.527  11.446
62133W        W34393   7.895  30.984   1.262
62134W        W34394  21.932  18.196  10.612
62135W        W34395  30.697   6.785   0.492
62136W        W34396  41.933  24.140  13.855
62137W        W34397  26.490  31.732   5.194
62138W        W34398   3.014  13.648  11.600
62139W        W34399  26.148  24.787  14.234
62140W        W34400  43.737  34.411  14.638
62141W        W34401   1.806  44.513  13.436
62142W        W34402  22.961   3.868   0.924
62143W        W34403  17.676  25.967  13.663
62144W        W34404  18.527  40.360   3.634
62145W        W34405  16.927  23.195  11.615
62146W        W34406  15.163  25.962   2.182
62147W        W34407  30.603  31.963   0.746
62148W        W34408  41.881   9.158   4.339
62149W        W34409   5.284   5.463  11.216
62150W        W34410   3.775  22.073   3.152
62151W        W34411   0.736  11.447  11.482
62152W        W34412   2.897   8.071   2.636
62153W        W34413  22.562  17.178  13.189
62154W        W34414   8.267  30.400  11.258
62155W        W34415  44.389  42.828   5.093
62156W        W34416  40.153   0.515   2.367
62157W        W34417  14.712  21.742   3.228
62158W        W34418  36.471  35.678   3.160
62159W        W34419  36.425  10.300  14.250
62160W        W34420  33.613  26.126  13.713
62161W        W34421  41.555   2.443  12.447
62162W        W34422  16.676   9.656   4.307
62163W        W34423   4.250  29.201   3.452
62164W        W34424  22.065  11.635   0.960
62165W        W34425  26.920  32.298   4.692
62166W        W34426  21.104   3.795   5.015
62167W        W34427  41.838  20.656  13.511
62168W        W34428  44.218  19.777  12.561
62169W        W34429  25.890   7.495  11.057
62170W        W34430  34.885  22.808  11.040
62171W        W34431  30.363  20.108  14.943
62172W        W34432  12.613  37.042  12.893
62173W        W34433   5.495  38.900   4.716
62174W        W34434  42.060  25.401  13.123
62175W        W34435   0.245  22.514  12.487
62176W        W34436  29.420  38.414   2.742
62177W        W34437  18.089   4.894   4.874
62178W        W34438   8.904  10.422  12.234
62179W        W34439  34.926  24.215  10.754
62180W        W34440  11.184  40.530  11.208
62181W        W34441  23.609  22.018  14.203
62182W        W34442  31.358   0.026  11.957
62183W        W34443  35.622  11.023   3.630
62184W        W34444   6.205   0.858   1.781
62185W        W34445  40.059  43.013  14.526
62186W        W34446  44.604  16.319   1.481
62187W        W34447  15.258  35.628  12.698
62188W        W34448  21.703  42.068  14.496
62189W        W34449  10.996  25.777  11.042
62190W        W34450  22.958  15.410   1.206
62191W        W34451  37.857  16.643  14.842
62192W        W34452   9.676  31.834   0.535
62193W        W34453  26.213  30.378  11.995
62194W        W34454  24.138   2.843   2.615
62195W        W34455  41.016  11.381  14.890
62196W        W34456   6.418  12.079   2.790
62197W        W34457  39.033  34.083   4.164
62198W        W34458  42.008   8.350  11.078
62199W        W34459   3.060  43.343  13.425
62200W        W34460   5.616   3.892   3.227
62201W        W34461  27.982  20.259  13.437
62202W        W34462   1.326  27.972  14.414
62203W        W34463  37.671  10.138   5.057
62204W        W34464  31.388  37.778   3.363
62205W        W34465  27.988  16.044  12.174
62206W        W34466  27.441  40.068   1.499
62207W        W34467  41.488  37.154   0.453
62208W        W34468  38.821  22.566   2.803
62209W        W34469   6.340  17.111   3.699
62210W        W34470  20.059  44.176   9.877
62211W        W34471  23.458  38.778   1.710
62212W        W34472  16.734  25.422  11.943
62213W        W34473  31.486   6.953   2.137
62214W        W34474  39.019  16.046   1.299
62215W        W34475  29.375  11.501  13.455
62216W        W34476  42.952  32.576   1.818
62217W        W34477  24.306  27.520  11.648
62218W        W34478  24.670  42.121  10.457
62219W        W34479  41.535  25.572  14.433
62220W        W34480  21.701  13.174  11.624
62221W        W34481  25.065  19.466   2.343
62222W        W34482  13.864  43.301  14.303
62223W        W34483  12.660   4.397  14.720
62224W        W34484  29.958  27.293  12.947
62225W        W34485  21.662  35.402   3.831
62226W        W34486  26.409  12.391  13.353
62227W        W34487  42.099   9.198  13.618
62228W        W34488  11.181   8.655  14.510
62229W        W34489   8.288  39.515   2.323
62230W        W34490   9.325   7.124  12.434
62231W        W34491   1.901  37.772  10.850
62232W        W34492   0.542  44.356  12.882
62233W        W34493  14.278   0.936  11.640
62234W        W34494  24.094  20.515  14.929
62235W        W34495   7.727  28.996  10.259
62236W        W34496   8.437  14.643   2.788
62237W        W34497   5.826  36.999   1.885
62238W        W34498  28.051   1.744  14.866
62239W        W34499  10.120  14.439  11.122
62240W        W34500  37.480  22.463  12.559
62241W        W34501  37.484  41.452   4.381
62242W        W34502  16.116  32.072  11.232
62243W        W34503  12.602  16.566  10.539
62244W        W34504   7.358  20.781   3.592
62245W        W34505   2.320  23.378  13.640
62246W        W34506  15.327  29.925  14.866
62247W        W34507   5.860   3.684   2.826
62248W        W34508  21.267  21.144   5.502
62249W        W34509  44.131  43.025  11.141
62250W        W34510  15.211  14.070  12.438
62251W        W34511   0.436  34.301  11.654
62252W        W34512  13.743  31.379  12.686
62253W        W34513  27.865  32.993  14.063
62254W        W34514  20.321   1.735  10.684
62255W        W34515  42.765   2.436   4.580
62256W        W34516   8.920  33.917   4.660
62257W        W34517  39.142  29.565  10.348
62258W        W34518  20.250  32.086  11.982
62259W        W34519  26.475   4.252   2.325
62260W        W34520  22.983  36.614   2.467
62261W        W34521  18.121  30.446   4.551
62262W        W34522  13.640   3.590  11.838
62263W        W34523  16.566  26.688   3.593
62264W        W34524  27.524  37.821  13.964
62265W        W34525   9.228  40.485  14.963
62266W        W34526  14.666  30.150  10.599
62267W        W34527  13.631  11.910  13.639
62268W        W34528  20.466  18.615   0.159
62269W        W34529  39.017   6.868  13.297
62270W        W34530  29.635  28.056   4.563
62271W        W34531  28.845  32.837  14.118
62272W        W34532  22.221  21.831   5.280
62273W        W34533   0.808  26.651   1.745
62274W        W34534   9.066  36.379  10.707
62275W        W34535  38.576  39.708  11.380
62276W        W34536  30.997  22.919  11.443
62277W        W34537  44.114  28.753   0.864
62278W        W34538   0.916  25.216  14.758
62279W        W34539  34.558   0.796   2.305
62280W        W34540  26.952  20.576   4.770
62281W        W34541   1.663  43.944   1.847
62282W        W34542  18.137  10.269  14.901
62283W        W34543  32.411  14.304   4.644
62284W        W34544  34.888  18.393  12.559
62285W        W34545  14.268  33.861   1.286
62286W        W34546   9.218   3.243   2.659
62287W        W34547   9.576  44.208  14.734
62288W        W34548   3.483  34.918  11.976
62289W        W34549  12.390  38.906  10.649
62290W        W34550  43.726  35.456   4.789
62291W        W34551  41.728  29.373  12.025
62292W        W34552  10.847  35.385   3.791
62293W        W34553  21.083  27.113   2.228
62294W        W34554  31.077  32.458   1.835
62295W        W34555  38.775  31.041   0.509
62296W        W34556  41.322  43.018  11.810
62297W        W34557  26.466  27.462   4.068
62298W        W34558  39.507  30.134  11.558
62299W        W34559  20.492  25.225   2.263
62300W        W34560  20.747  20.128   4.660
62301W        W34561  24.109  11.626   0.333
62302W        W34562  20.723  10.915   1.963
62303W        W34563  16.665  21.570   1.972
62304W        W34564  33.563   8.004   2.314
62305W        W34565  24.725  19.745  13.296
62306W        W34566  38.974  19.431  13.897
62307W        W34567   6.902  23.522  12.505
62308W        W34568   7.113  27.501   2.337
62309W        W34569  41.456  29.523  14.854
62310W        W34570  42.062  42.460   3.110
62311W        W34571  31.095  38.005  10.875
62312W        W34572  33.852  16.131   1.808
62313W        W34573   5.209  25.317   5.028
62314W        W34574   2.861  34.668  14.253
62315W        W34575  42.527   8.715   4.760
62316W        W34576  11.593   1.196  14.734
62317W        W34577  31.632  24.400   1.569
62318W        W34578  20.127  39.949   4.390
62319W        W34579  11.797   7.346   2.142
62320W        W34580  35.647  19.071  12.733
62321W        W34581   9.206  33.177   5.029
62322W        W34582  33.446  15.449  14.002
62323W        W34583  31.971  43.879   2.327
62324W        W34584   6.487   6.739   3.091
62325W        W34585  10.330  25.715   0.862
62326W        W34586   0.900  35.988   0.874
62327W        W34587   4.923  44.876  12.203
62328W        W34588   9.770  15.772   3.684
62329W        W34589  38.936  44.739  12.296
62330W        W34590  37.841  24.974  14.102
62331W        W34591  12.840   4.722  11.538
62332W        W34592  18.555  12.708   3.592
62333W        W34593  29.534  17.706   0.463
62334W        W34594   4.219  12.945  14.440
62335W        W34595  27.977  33.536   1.232
62336W        W34596  15.826  39.601   1.008
62337W        W34597   3.242  41.943   3.444
62338W        W34598  30.446  36.265   3.704
62339W        W34599  36.204  19.431   5.480
62340W        W34600  43.930   7.333   1.213
62341W        W34601  39.777  24.683  14.415
62342W        W34602  41.016  34.595  14.910
62343W        W34603  39.531   0.507  13.853
62344W        W34604   4.273  40.767  12.948
62345W        W34605  42.522  10.771   3.879
62346W        W34606  19.189   9.193  13.798
62347W        W34607   2.023  24.252  12.068
62348W        W34608   5.752   3.239  14.533
62349W        W34609  44.828   6.888   4.532
62350W        W34610  35.606   8.835  13.441
62351W        W34611  35.834  42.928   2.366
62352W        W34612  16.963  43.486   1.207
62353W        W34613  31.213  27.972  11.124
62354W        W34614  12.115  33.943   1.279
62355W        W34615   0.860  38.414  11.946
62356W        W34616  36.167  28.253  11.204
62357W        W34617   9.175   9.817   3.247
62358W        W34618  32.615  31.306   2.299
62359W        W34619   3.665  24.194   2.949
62360W        W34620  25.954   4.230   2.358
62361W        W34621  38.977   0.374  14.762
62362W        W34622  28.066  16.276   0.817
62363W        W34623  39.950  28.641   1.157
62364W        W34624  18.003  12.331   4.918
62365W        W34625  42.892  25.457   3.827
62366W        W34626  24.511  40.198  12.316
62367W        W34627  44.387  31.491  12.470
62368W        W34628  33.334  41.951   2.530
62369W        W34629   0.296  32.776   1.886
62370W        W34630  10.238  36.166  12.539
62371W        W34631  23.352  18.495   9.662
62372W        W34632  16.104  14.818  13.029
62373W        W34633   6.187  44.687  11.473
62374W        W34634  19.998  16.576  10.710
62375W        W34635  18.195  42.501  10.877
62376W        W34636  10.335  31.846  13.931
62377W        W34637  14.759  22.235  11.110
62378W        W34638  27.191  14.797   3.208
62379W        W34639  32.603  33.886  12.253
62380W        W34640  40.359   4.283  13.001
62381W        W34641   7.725  29.221  13.240
62382W        W34642  15.018   3.495   0.699
62383W        W34643  26.740  35.970  14.102
62384W        W34644  11.903  21.144  10.556
62385W        W34645   4.428  29.354  11.487
62386W        W34646  14.697  30.674  10.735
62387W        W34647  34.876  20.185   1.689
62388W        W34648  28.335  25.136  10.282
62389W        W34649  34.058  20.439  11.538
62390W        W34650   1.981  35.105  11.922
62391W        W34651  40.895   9.804   3.452
62392W        W34652  14.412  14.924  11.076
62393W        W34653   5.287  37.989   0.958
62394W        W34654  29.928  14.597  14.022
62395W        W34655  37.995  42.912   1.519
62396W        W34656  31.556  44.316  13.814
62397W        W34657  44.060  34.916  12.356
62398W        W34658   8.678  29.431  12.091
62399W        W34659   9.353  26.078  14.350
62400W        W34660  35.050   8.475  12.899
62401W        W34661  34.438  32.892  13.421
62402W        W34662  26.686  22.655  11.031
62403W        W34663  33.271  34.910   3.343
62404W        W34664  29.923  29.900   4.686
62405W        W34665  39.797  18.292   4.129
62406W        W34666  14.127  20.071  13.917
62407W        W34667  20.148  40.180  12.508
62408W        W34668  39.433  10.860  11.471
62409W        W34669  26.263  30.080   4.454
62410W        W34670  35.805   2.240   2.378
62411W        W34671  36.563  16.558   1.699
62412W        W34672   6.703  43.859   0.330
62413W        W34673   5.134  44.433   1.336
62414W        W34674  35.927   8.144   4.520
62415W        W34675  38.896   7.835   1.705
62416W        W34676   2.962  30.370  13.394
62417W        W34677  13.099   7.514   1.691
62418W        W34678   7.636   6.918   0.315
62419W        W34679  24.871  21.688  13.229
62420W        W34680  27.288  25.291  11.150
62421W        W34681  20.943   6.445   1.897
62422W        W34682  35.613   5.689  13.734
62423W        W34683   8.779  28.827  12.152
62424W        W34684   6.974  31.139   4.032
62425W        W34685  22.127  41.891  12.956
62426W        W34686  27.540   4.838  10.639
62427W        W34687  19.280  19.584   0.330
62428W        W34688  18.506   2.661  14.323
62429W        W34689  43.583  20.784  12.958
62430W        W34690  24.103  17.304   4.575
62431W        W34691  37.291   3.966   3.299
62432W        W34692  39.274  10.730  13.789
62433W        W34693   7.281  18.180  11.056
62434W        W34694  29.549  11.620   4.944
62435W        W34695  35.891  27.117  12.880
62436W        W34696  22.568   5.343  11.566
62437W        W34697  16.536  28.583   1.249
62438W        W34698  16.076   4.438   0.803
62439W        W34699  32.627  26.189  11.135
62440W        W34700  34.811  44.833   1.339
62441W        W34701   2.242   7.933  10.579
62442W        W34702  40.348  15.981  13.754
62443W        W34703  30.038  18.826   2.360
62444W        W34704  12.780  37.496   0.587
62445W        W34705  39.235  19.500   3.704
62446W        W34706  13.571  17.583   4.177
62447W        W34707   4.707   4.823   1.406
62448W        W34708  35.113  32.111   1.408
62449W        W34709  24.990  19.306   3.933
62450W        W34710  13.266  35.487   1.003
62451W        W34711  10.290   3.231  13.265
62452W        W34712  14.103  26.484  10.586
62453W        W34713  30.184  12.454   1.792
62454W        W34714  24.475  39.293  12.068
62455W        W34715  17.824  25.539   1.150
62456W        W34716  37.569  14.055   2.692
62457W        W34717  30.010   1.321  11.253
62458W        W34718  35.386  19.818   1.092
62459W        W34719   1.269  18.463  12.345
62460W        W34720   4.305  44.550  12.134
62461W        W34721   9.126  10.828   0.644
62462W        W34722  17.523  11.898   3.578
62463W        W34723   8.720  20.654  11.575
62464W        W34724   6.377  37.194   0.414
62465W        W34725  21.739  18.384   1.704
62466W        W34726  31.885  36.480  11.942
62467W        W34727  17.634   7.236  12.883
62468W        W34728  24.036  36.436   2.818
62469W        W34729   8.199  22.855   3.220
62470W        W34730   0.412  28.196   3.823
62471W        W34731  27.831   4.969  11.040
62472W        W34732  32.613  16.123   3.204
62473W        W34733   0.519   3.595  13.770
62474W        W34734   9.820  23.404  13.532
62475W        W34735  21.468  27.474   0.777
62476W        W34736  32.605  31.131  10.627
62477W        W34737   6.293  37.628   4.523
62478W        W34738  44.752  29.201   2.337
62479W        W34739  40.274  10.789  13.572
62480W        W34740  17.007   3.187  14.797
62481W        W34741   2.144  11.688   0.995
62482W        W34742  24.466   8.765  11.958
62483W        W34743  31.557  15.801  13.746
62484W        W34744   5.762   6.598   3.617
62485W        W34745   4.512  23.978   3.168
62486W        W34746  39.941   0.526   1.888
62487W        W34747  14.147  34.932   2.738
62488W        W34748  32.997  21.147  11.542
62489W        W34749  23.242  33.514   0.829
62490W        W34750  19.076  10.830  12.477
62491W        W34751  24.691  30.220   3.329
62492W        W34752  32.068  11.848   5.179
62493W        W34753   7.697  32.625  10.813
62494W        W34754  12.786   4.275   4.229
62495W        W34755  34.458  34.315   4.527
62496W        W34756  27.290  11.205   3.249
62497W        W34757  28.139   4.913   0.751
62498W        W34758  29.858  28.467   1.335
62499W        W34759  11.879  28.821   5.390
62500W        W34760   6.923  23.479  11.605
62501W        W34761   1.272  41.606   1.471
62502W        W34762  18.833  24.984  11.598
62503W        W34763  11.883   2.412  11.361
62504W        W34764  42.732  30.138  14.322
62505W        W34765  18.276  29.856   3.666
62506W        W34766  14.382  18.171  11.814
62507W        W34767  35.043  33.529   2.704
62508W        W34768  21.864  43.312  11.673
62509W        W34769   0.612  15.662  12.527
62510W        W34770  18.785  23.130   4.397
62511W        W34771  26.492  39.598   4.092
62512W        W34772  27.447   1.348  13.976
62513W        W34773  39.499  15.567  11.584
62514W        W34774   4.173  19.509   0.284
62515W        W34775  19.206   9.075   3.757
62516W        W34776  29.006  31.466  14.634
62517W        W34777   1.245  33.201   1.675
62518W        W34778  15.460  15.862  10.666
62519W        W34779  31.405  13.177  11.141
62520W        W34780  26.207  39.046   5.012
62521W        W34781  10.656  42.918  11.246
62522W        W34782  40.070  26.234   0.428
62523W        W34783   6.773  25.452  12.882
62524W        W34784  36.079   2.924  11.660
62525W        W34785  14.600  37.628  14.339
62526W        W34786  15.611  39.272  12.465
62527W        W34787  20.562  11.168   1.498
62528W        W34788  15.379  43.546  13.390
62529W        W34789  20.312  22.952  11.044
62530W        W34790  41.017  15.339   2.148
62531W        W34791  14.344  40.938   1.738
62532W        W34792   0.757  34.602   4.588
62533W        W34793  30.448   9.100   0.521
62534W        W34794  43.173  28.001  11.532
62535W        W34795  40.331  16.198  10.581
62536W        W34796   6.868   9.111  13.878
62537W        W34797  34.963   6.880  13.922
62538W        W34798  18.519  44.272  13.756
62539W        W34799  12.091  42.846  11.397
62540W        W34800  29.356   7.873  13.275
62541W        W34801   0.239   1.536  10.668
62542W        W34802   6.250  10.802   0.504
62543W        W34803   8.931  12.916   3.788
62544W        W34804  33.924  38.989   3.165
62545W        W34805  12.754  17.845  14.423
62546W        W34806   8.743  40.217   3.710
62547W        W34807  33.505   3.283   2.150
62548W        W34808  41.279  15.674   1.447
62549W        W34809  32.086   7.039   2.984
62550W        W34810   8.524  13.223   3.689
62551W        W34811   1.911  13.332  11.189
62552W        W34812  43.627   3.226  13.969
62553W        W34813  14.601  12.653   4.615
62554W        W34814   3.489   9.382  14.495
62555W        W34815  28.733  10.898  13.538
62556W        W34816  41.718  36.090  10.848
62557W        W34817  15.651   0.855   4.204
62558W        W34818  41.119   5.308   0.301
62559W        W34819  19.971  21.595   0.629
62560W        W34820  37.804  17.666  11.580
62561W        W34821  44.334  24.668   0.391
62562W        W34822  14.730   2.917  11.194
62563W        W34823  14.325  34.373   0.593
62564W        W34824   2.185  44.045   1.847
62565W        W34825   7.871  39.008  14.924
62566W        W34826  42.461   2.454   0.440
62567W        W34827  17.136  21.250   3.154
62568W        W34828  23.279  17.543   0.478
62569W        W34829   3.648   9.919   2.813
62570W        W34830   2.906  29.552   4.629
62571W        W34831  13.254  25.325  11.267
62572W        W34832  13.892  27.385   5.087
62573W        W34833  44.524  18.641   1.449
62574W        W34834  27.205  31.487   0.200
62575W        W34835  34.913  40.471   2.861
62576W        W34836  31.136   2.309   1.697
62577W        W34837  17.100  34.601   0.945
62578W        W34838  28.046  37.849  13.860
62579W        W34839  26.102   6.681  14.144
62580W        W34840  32.221   7.779   0.673
62581W        W34841  14.152  35.715   0.351
62582W        W34842  17.829   7.191   0.328
62583W        W34843   4.316  22.620   3.296
62584W        W34844  35.138  41.570   3.635
62585W        W34845  11.880  37.956   1.225
62586W        W34846  40.794  18.094   1.923
62587W        W34847  34.917  25.832  10.725
62588W        W34848   1.235  36.251  11.128
62589W        W34849   9.209   6.201   3.041
62590W        W34850   9.523  32.693  14.830
62591W        W34851   3.198  19.168   1.926
62592W        W34852  39.347  16.268  11.166
62593W        W34853  32.972  33.905  13.066
62594W        W34854  16.895  18.828  14.106
62595W        W34855   0.337  12.829  13.971
62596W        W34856  22.807  43.668   3.731
62597W        W34857   2.213   3.888   1.386
62598W        W34858   6.451  17.331  14.417
62599W        W34859  11.047  19.807  14.802
62600W        W34860  27.661  39.349   1.712
62601W        W34861  43.680  12.983  14.719
62602W        W34862  11.438   7.907   1.803
62603W        W34863  21.279  19.758   1.826
62604W        W34864  18.301  14.783   2.323
62605W        W34865  31.520  16.557   4.337
62606W        W34866  25.073  28.384  12.342
62607W        W34867  43.978  41.313   0.357
62608W        W34868  17.582   0.248   1.664
62609W        W34869   6.946  25.016  11.075
62610W        W34870  26.661   7.444  12.643
62611W        W34871  37.553  13.412  10.997
62612W        W34872   6.149  37.058   2.287
62613W        W34873  24.676  16.617  12.721
62614W        W34874  17.675  34.967  12.891
62615W        W34875   4.779  34.623  12.659
62616W        W34876   4.131  35.151  13.984
62617W        W34877  26.108   7.762  13.299
62618W        W34878  16.913  44.751  11.182
62619W        W34879  23.936  10.550  12.475
62620W        W34880  21.039  33.423  11.798
62621W        W34881  19.162  15.216   0.750
62622W        W34882  23.323  31.429  11.553
62623W        W34883   3.446  15.314   2.521
62624W        W34884  35.446  16.534   4.345
62625W        W34885  28.446  43.286  12.641
62626W        W34886  34.253  23.528  13.027
62627W        W34887  32.500  29.102  13.958
62628W        W34888  33.889  39.080  11.947
62629W        W34889  40.330  24.115  12.902
62630W        W34890  29.151  39.615  10.899
62631W        W34891  15.596   1.381  10.640
62632W        W34892  31.211   7.421  12.396
62633W        W34893  18.632  33.162  14.344
62634W        W34894  19.377   5.351  13.473
62635W        W34895   1.839  18.169   3.186
62636W        W34896  22.678  38.015   0.332
62637W        W34897   4.382   4.715   1.839
62638W        W34898   5.875  14.721   3.637
62639W        W34899   0.969   6.822   2.362
62640W        W34900  28.426  44.941   2.236
62641W        W34901  19.204  26.529   3.834
62642W        W34902   5.849  20.574   0.900
62643W        W34903  44.254  39.072   4.331
62644W        W34904   5.717  35.410   1.347
62645W        W34905  28.729   5.301   1.158
62646W        W34906  24.562  28.486   1.430
62647W        W34907  16.134  11.579   2.182
62648W        W34908  20.018  12.272  10.687
62649W        W34909  21.345  23.192   2.821
62650W        W34910   7.930   9.922  13.863
62651W        W34911  33.530  33.252  13.187
62652W        W34912  29.970   2.770  11.478
62653W        W34913  30.060  27.921   2.743
62654W        W34914  36.925  12.225   0.504
62655W        W34915   8.755   9.474  11.181
62656W        W34916   1.118   9.828  13.986
62657W        W34917  21.922  31.974  12.376
62658W        W34918  26.228  11.310  13.760
62659W        W34919  19.709  34.105   1.708
62660W        W34920  29.428  35.820  12.520
62661W        W34921   3.294  27.590  14.508
62662W        W34922   8.216  19.135   3.419
62663W        W34923  26.369   3.399   0.795
62664W        W34924  39.317   0.093  13.629
62665W        W34925  36.712  24.954  11.586
62666W        W34926  22.152   5.700   1.240
62667W        W34927   7.939  44.579   0.501
62668W        W34928   4.890  37.475  10.566
62669W        W34929  10.634   0.910  13.289
62670W        W34930  34.946  24.685  13.292
62671W        W34931  35.062  19.076   1.720
62672W        W34932  18.138   8.749   3.587
62673W        W34933  44.412  38.108   4.498
62674W        W34934   4.192   7.229   2.798
62675W        W34935  27.944   7.268  10.054
62676W        W34936   8.137  15.676  13.428
62677W        W34937  20.741  28.120  14.984
62678W        W34938  25.463  40.147  10.116
62679W        W34939  23.981  26.711   2.226
62680W        W34940  23.027   3.721  14.425
62681W        W34941  35.098   9.940   0.868
62682W        W34942   3.385  20.632   5.027
62683W        W34943  14.962   9.432  12.672
62684W        W34944  40.438  27.177   1.694
62685W        W34945  44.754  37.005  10.456
62686W        W34946  10.784  43.066   2.727
62687W        W34947  19.301  24.437   4.434
62688W        W34948  13.346  15.267   9.567
62689W        W34949  20.647  32.895   4.385
62690W        W34950   7.407  36.571   2.219
62691W        W34951  27.386  12.577   2.790
62692W        W34952  20.710  19.640  14.441
62693W        W34953  35.749   1.024   4.194
62694W        W34954   8.919   8.215   0.753
62695W        W34955  26.630  40.202   3.283
62696W        W34956  25.209  16.656  14.046
62697W        W34957  37.405   0.455   1.899
62698W        W34958   9.915  30.144  14.462
62699W        W34959   9.114   7.018  10.129
62700W        W34960  44.898  13.076  13.863
62701W        W34961  12.764  41.824  13.169
62702W        W34962   4.508  30.933   3.850
62703W        W34963   7.466   4.486   4.090
62704W        W34964  15.187   6.341  13.580
62705W        W34965  34.022  34.211  12.399
62706W        W34966  42.743  10.652   1.129
62707W        W34967  21.432  19.671   3.243
62708W        W34968  44.489  13.193   9.957
62709W        W34969  30.342   6.836   2.331
62710W        W34970   3.304  41.242  13.676
62711W        W34971   5.628  41.005  13.845
62712W        W34972  26.130   8.115   2.669
62713W        W34973  37.056  31.174  11.709
62714W        W34974  38.869  14.217   4.356
62715W        W34975  13.711  37.830   3.417
62716W        W34976  20.724   0.864  12.849
62717W        W34977  27.122  10.655   0.871
62718W        W34978  35.841  31.030   0.844
62719W        W34979  28.458  42.243  12.414
62720W        W34980  16.846   5.827   5.447
62721W        W34981  36.277  27.705  14.405
62722W        W34982  37.655  25.178  11.643
62723W        W34983  29.887   7.679  14.006
62724W        W34984  44.197  37.900   2.786
62725W        W34985  25.054  39.247   1.260
62726W        W34986  12.346  27.883   1.377
62727W        W34987   5.999  43.481   2.756
62728W        W34988   5.779  41.805  13.341
62729W        W34989   5.137   2.725  11.520
62730W        W34990  25.290   4.901  11.550
62731W        W34991  31.724  37.339  13.547
62732W        W34992  41.438  29.172   2.270
62733W        W34993  31.591  32.634  11.968
62734W        W34994  29.700  14.107  14.893
62735W        W34995  29.851  13.789   4.641
62736W        W34996  28.617   2.338   4.739
62737W        W34997  15.212  29.488   9.603
62738W        W34998  31.254  36.549   1.482
62739W        W34999   7.287  35.594   0.513
62740W        W35000   6.222  30.375  10.669
62741W        W35001  25.721  10.033   4.197
62742W        W35002  24.121  37.312  13.364
62743W        W35003   4.233  19.728   1.231
62744W        W35004   3.529  27.615  14.980
62745W        W35005  37.027  25.730   2.405
62746W        W35006   0.875  11.729   3.667
62747W        W35007  14.695  17.014  10.656
62748W        W35008  23.515  13.599   2.967
62749W        W35009  24.411  26.482   9.821
62750W        W35010  21.616  10.959  11.124
62751W        W35011  39.076  37.067   2.834
62752W        W35012   1.502  35.293   0.351
62753W        W35013  38.475  31.856   3.182
62754W        W35014   9.417  22.486   2.077
62755W        W35015  17.093  42.990  11.763
62756W        W35016  18.773  42.934   3.420
62757W        W35017   9.626  12.707  11.637
62758W        W35018   0.755  43.973   2.701
62759W        W35019  17.030  41.820  13.473
62760W        W35020  32.061  41.094  10.663
62761W        W35021   0.741   7.991   1.440
62762W        W35022   6.790  31.590   3.823
62763W        W35023  20.011  14.687  12.427
62764W        W35024  10.264   6.805   2.885
62765W        W35025  39.731   5.021   1.705
62766W        W35026  29.421  14.358   1.854
62767W        W35027  16.159  39.400   3.125
62768W        W35028  38.840  39.820  12.933
62769W        W35029  13.789   6.760   2.762
62770W        W35030  27.320   5.231  12.604
62771W        W35031  21.278   0.786   1.289
62772W        W35032   8.014   3.730   0.218
62773W        W35033  20.281  30.544  11.496
62774W        W35034  29.372   8.418  13.288
62775W        W35035  15.147  35.458   0.211
62776W        W35036   7.761   5.404  11.677
62777W        W35037  43.894  14.613  11.877
62778W        W35038  24.731  33.954   1.481
62779W        W35039   6.424  41.015   1.290
62780W        W35040  23.266  32.841   3.328
62781W        W35041  31.160  30.456   5.466
62782W        W35042  43.419  11.547   3.381
62783W        W35043  23.200  20.096   0.405
62784W        W35044  13.034  17.964  14.876
62785W        W35045  17.277   2.780   3.607
62786W        W35046  31.659  15.597   4.557
62787W        W35047  23.768  30.483   0.172
62788W        W35048  43.098   7.845  12.982
62789W        W35049  34.148  30.027   0.773
62790W        W35050  33.379   3.371   2.662
62791W        W35051   6.755  15.229   2.154
62792W        W35052  18.203   1.975  12.511
62793W        W35053  36.391  43.304   1.066
62794W        W35054  14.247  27.333   1.880
62795W        W35055  32.427  23.041  11.712
62796W        W35056  43.411  30.674   0.838
62797W        W35057  29.900  33.906  12.218
62798W        W35058  31.614   1.889   3.143
62799W        W35059  23.556  41.555   1.392
62800W        W35060   2.214  21.079  13.728
62801W        W35061  33.084  31.762   2.675
62802W        W35062  20.953  17.603   4.664
62803W        W35063  30.580  29.602  13.303
62804W        W35064  25.223  24.963   0.750
62805W        W35065  17.565  22.013   3.364
62806W        W35066   5.327  16.447  11.194
62807W        W35067  22.282  21.649  10.659
62808W        W35068   6.221  18.436   2.242
62809W        W35069   3.392   1.431  11.285
62810W        W35070  34.507  14.231   0.327
62811W        W35071  36.358  27.385   4.014
62812W        W35072  41.381  17.749   4.125
62813W        W35073  10.842  36.192  11.300
62814W        W35074  43.464   4.892   1.215
62815W        W35075  19.955   8.611  13.685
62816W        W35076  17.739  13.384  13.107
62817W        W35077   9.617  34.621  11.150
62818W        W35078   2.792  16.665  14.429
62819W        W35079  29.854  16.705   1.935
62820W        W35080  43.340  44.559   3.637
62821W        W35081  27.120   0.302   3.113
62822W        W35082  14.132  34.480   0.117
62823W        W35083  35.584   4.481   1.445
62824W        W35084  22.699  41.708   3.417
62825W        W35085   3.304   2.731   2.857
62826W        W35086  39.966  31.516   1.789
62827W        W35087   0.893  17.665   0.437
62828W        W35088   8.600   1.287   3.702
62829W        W35089  35.947  41.043   1.914
62830W        W35090  19.017  17.658  13.060
62831W        W35091  39.739   0.508  14.377
62832W        W35092   9.810  35.798   3.425
62833W        W35093   5.911  23.272   2.165
62834W        W35094  41.468  32.929   0.093
62835W        W35095   8.860  27.066   1.141
62836W        W35096  43.754  26.521  14.334
62837W        W35097  12.856   4.316   1.222
62838W        W35098   9.907  36.342   1.292
62839W        W35099  25.637  10.581  11.918
62840W        W35100  21.556  37.775   5.147
62841W        W35101   8.650  31.281   4.594
62842W        W35102  18.796  24.515  11.783
62843W        W35103  33.002   1.718   0.003
62844W        W35104  43.404  35.631  12.388
62845W        W35105   2.917  44.197   4.193
62846W        W35106  43.782  14.711   1.651
62847W        W35107  15.169  26.151   4.430
62848W        W35108   0.983   4.870  11.114
62849W        W35109  38.388  18.080  14.612
62850W        W35110  38.665  29.920   2.829
62851W        W35111  41.798   8.235  11.538
62852W        W35112  18.706  44.573   1.880
62853W        W35113  16.586  30.790  13.793
62854W        W35114   0.779   9.881   2.791
62855W        W35115  34.007  38.808   2.673
62856W        W35116  28.025  14.976  11.233
62857W        W35117   4.784  27.988   0.592
62858W        W35118  41.046  18.818  13.003
62859W        W35119  28.268  25.351  11.157
62860W        W35120  23.060   7.221  13.128
62861W        W35121  26.742  32.258  12.484
62862W        W35122  19.834   9.728   0.900
62863W        W35123  14.706  24.126  14.012
62864W        W35124  12.614  32.198   2.848
62865W        W35125  27.989  36.401  14.839
62866W        W35126  30.272  41.325   2.387
62867W        W35127  18.350  32.445  10.997
62868W        W35128  19.819  15.156  11.536
62869W        W35129  18.575  34.024  11.666
62870W        W35130  18.975  41.846  13.428
62871W        W35131  22.680  41.726  11.241
62872W        W35132  11.772  40.560  11.563
62873W        W35133  24.667  27.497   2.444
62874W        W35134  11.633   3.667  10.750
62875W        W35135  34.097  15.504   9.952
62876W        W35136  36.993  31.518   1.403
62877W        W35137   5.269  32.513   1.911
62878W        W35138  14.692   5.650   1.691
62879W        W35139  13.735   0.842  12.989
62880W        W35140  11.382  31.975   1.565
62881W        W35141  33.543  27.472   1.400
62882W        W35142  10.899  31.358  11.590
62883W        W35143  24.140  30.455   3.089
62884W        W35144   0.922  12.354  14.443
62885W        W35145   0.752  11.672  13.832
62886W        W35146   0.310   9.731  13.192
62887W        W35147   8.181  21.124   4.498
62888W        W35148   6.243  18.589  12.033
62889W        W35149  40.452  34.502   2.613
62890W        W35150   4.904  30.598   5.336
62891W        W35151  29.848  42.960   3.913
62892W        W35152  34.484   3.389   3.115
62893W        W35153  40.479  30.125  14.823
62894W        W35154  16.570  12.618   3.708
62895W        W35155  14.154  40.588   0.827
62896W        W35156  21.643  39.532  13.471
62897W        W35157  16.640  36.955   4.085
62898W        W35158  15.299  32.301   4.163
62899W        W35159  43.515  14.533  12.397
62900W        W35160  33.926  36.986   4.937
62901W        W35161  35.499  40.237   3.630
62902W        W35162   3.278  21.212  12.167
62903W        W35163   1.260  30.947  11.594
62904W        W35164  37.320  33.688  14.706
62905W        W35165  22.029  16.991  12.015
62906W        W35166  34.220  20.981   0.761
62907W        W35167  44.277  40.916  11.028
62908W        W35168  28.563  22.934  11.121
62909W        W35169  43.685  42.957   1.274
62910W        W35170  44.555  14.828  12.471
62911W        W35171  10.180  31.489   1.353
62912W        W35172  18.466  42.118  11.113
62913W        W35173  19.829  18.683   2.665
62914W        W35174  27.842  16.490   2.219
62915W        W35175  20.810   9.339   4.639
62916W        W35176  42.421  21.604   3.039
62917W        W35177  28.708  37.999   1.760
62918W        W35178  21.068  38.820  14.367
62919W        W35179  24.064  26.996   0.918
62920W        W35180  39.406  24.114   1.629
62921W        W35181  40.758  19.772   2.386
62922W        W35182  26.712   2.747  10.699
62923W        W35183  37.054   7.366  14.008
62924W        W35184  27.202  31.917  14.920
62925W        W35185  15.739   8.159   1.877
62926W        W35186  16.145  19.082  14.612
62927W        W35187   1.926  35.883   0.946
62928W        W35188  40.745  33.057  14.797
62929W        W35189  40.684   6.701  14.308
62930W        W35190  26.361  30.993   2.234
62931W        W35191  37.799  32.673  11.577
62932W        W35192  39.644  37.862   3.797
62933W        W35193  29.455  26.839   4.576
62934W        W35194  32.319   4.698  13.436
62935W        W35195  17.129   7.708   2.853
62936W        W35196  21.330  43.412  13.520
62937W        W35197   3.640  24.102   0.621
62938W        W35198  31.952  36.903  13.362
62939W        W35199   5.865  19.202   2.159
62940W        W35200  12.705  18.312  14.656
62941W        W35201  25.245  24.035   1.004
62942W        W35202   7.026  26.765   4.326
62943W        W35203  25.734  12.946   3.696
62944W        W35204   2.370  22.612   2.987
62945W        W35205  36.416  25.444   0.469
62946W        W35206  22.900  30.228  11.150
62947W        W35207  44.213  31.998   0.902
62948W        W35208  15.127   1.246  14.333
62949W        W35209  33.566   7.345  12.481
62950W        W35210  44.896  22.754  12.876
62951W        W35211   2.880   0.984   3.386
62952W        W35212  40.525  30.011  11.362
62953W        W35213  35.023  19.481  11.476
62954W        W35214  18.822  31.613  14.414
62955W        W35215  22.465  36.766   2.368
62956W        W35216   6.642   9.341  12.909
62957W        W35217  43.665  35.871  11.731
62958W        W35218  16.620  32.451   2.434
62959W        W35219   4.496   3.346   1.182
62960W        W35220  36.985  22.228  12.425
62961W        W35221  12.357  14.717   2.307
62962W        W35222  11.243  29.300  13.014
62963W        W35223  21.657   5.708  12.590
62964W        W35224  23.500   3.519  10.490
62965W        W35225   8.686  13.503  14.988
62966W        W35226  22.008  22.208  13.817
62967W        W35227  36.101   2.778   3.606
62968W        W35228  23.043  29.648  14.767
62969W        W35229  34.091   9.602  13.878
62970W        W35230  41.797  25.632  12.003
62971W        W35231   7.437  42.290   3.586
62972W        W35232   0.967  36.402  14.814
62973W        W35233  10.877  34.850  13.034
62974W        W35234  29.177  33.664  12.836
62975W        W35235  12.151  44.420  10.379
62976W        W35236  28.288  36.488   1.212
62977W        W35237  11.891  24.670  14.561
62978W        W35238  19.621   9.855  12.876
62979W        W35239  16.633  43.889  10.933
62980W        W35240  13.751  17.640  11.654
62981W        W35241  39.434  37.635   1.830
62982W        W35242  25.073  37.114   1.457
62983W        W35243  34.927  10.288  11.764
62984W        W35244  31.572  16.338  11.138
62985W        W35245  20.884  10.874  11.818
62986W        W35246  34.857  13.108  12.313
62987W        W35247  19.355  31.512  11.500
62988W        W35248  13.775  15.708  10.797
62989W        W35249  41.084  38.327   1.762
62990W        W35250  10.949  27.235  13.954
62991W        W35251   8.341  28.529  12.010
62992W        W35252  35.577   5.500   4.526
62993W        W35253  10.261  28.254   0.450
62994W        W35254  37.416   1.372  12.739
62995W        W35255  12.429  21.310   1.818
62996W        W35256  32.740  19.759  10.002
62997W        W35257  12.721  34.358   0.462
62998W        W35258   1.750  33.620  14.460
62999W        W35259  31.938   3.856  14.850
63000W        W35260  18.291  38.390   1.733
63001W        W35261  30.379   2.123   1.887
63002W        W35262  28.391  13.845   2.242
63003W        W35263  13.598  27.719  14.238
63004W        W35264  37.551  29.883   2.786
63005W        W35265   4.028  43.446  12.048
63006W        W35266  32.893   6.182  12.884
63007W        W35267  26.061   1.992   0.819
63008W        W35268  29.947  28.992  14.791
63009W        W35269   3.671  44.466  13.720
63010W        W35270   9.611  20.972  13.750
63011W        W35271  14.049   9.694  14.723
63012W        W35272  20.067  39.002  14.618
63013W        W35273  26.709  12.296   3.265
63014W        W35274  15.549  19.438   5.408
63015W        W35275  38.890  40.207   1.283
63016W        W35276   4.210  19.726   2.788
63017W        W35277  22.439  37.406  11.125
63018W        W35278  10.563  21.472  12.007
63019W        W35279  35.356  25.460   4.505
63020W        W35280  44.535  10.735  11.617
63021W        W35281  10.699  44.782  13.748
63022W        W35282  26.454  18.131  12.386
63023W        W35283  17.197  35.337   2.154
63024W        W35284   3.277  24.758  14.951
63025W        W35285   2.864  43.478  13.914
63026W        W35286  39.853  20.141   3.297
63027W        W35287   3.232   9.603  11.116
63028W        W35288  13.116   4.880  13.407
63029W        W35289  20.498  38.715  12.048
63030W        W35290  23.926  26.179   0.362
63031W        W35291  21.954  40.374  12.997
63032W        W35292  40.296  21.100   1.185
63033W        W35293  10.404  14.573   4.503
63034W        W35294  34.425  41.453   4.390
63035W        W35295   2.395   2.148  10.215
63036W        W35296  35.073  20.602  14.410
63037W        W35297   7.117  18.966   1.339
63038W        W35298  13.644   3.441  12.948
63039W        W35299   8.300  26.428  10.900
63040W        W35300  42.619  42.647  11.148
63041W        W35301  38.991   1.107  12.193
63042W        W35302  31.712  32.231  11.627
63043W        W35303  23.565   0.990  10.463
63044W        W35304  16.272  39.456   4.520
63045W        W35305  41.902  14.557  14.793
63046W        W35306  43.303   6.093   2.581
63047W        W35307  31.982   5.808  13.057
63048W        W35308  13.081  37.503   2.982
63049W        W35309  29.435   9.820   1.260
63050W        W35310  37.006  32.127   3.626
63051W        W35311  33.311  16.539   2.358
63052W        W35312  35.618  27.777   0.327
63053W        W35313   8.869   8.753  11.665
63054W        W35314  10.559   9.041   4.892
63055W        W35315  40.138  30.891   0.909
63056W        W35316  24.844  17.561   3.837
63057W        W35317  15.002  13.264  12.844
63058W        W35318  18.602  23.305   0.232
63059W        W35319   7.437   3.987   1.399
63060W        W35320  36.343  24.863  10.832
63061W        W35321  15.222  34.234  12.213
63062W        W35322   8.855   9.411  13.850
63063W        W35323   8.694   8.664   0.853
63064W        W35324  14.223  39.053   2.142
63065W        W35325  25.500  39.050   0.231
63066W        W35326  36.803  29.596   3.257
63067W        W35327  19.775  43.607  11.733
63068W        W35328  13.270  37.526   5.075
63069W        W35329  40.457   9.949  14.221
63070W        W35330  17.697  11.198  14.983
63071W        W35331   9.120  20.054   3.340
63072W        W35332  15.137  38.925  13.488
63073W        W35333  13.952  38.494   3.721
63074W        W35334  11.903  36.852  10.614
63075W        W35335  25.373   9.652   4.034
63076W        W35336  34.352  29.656   0.341
63077W        W35337   3.411  15.645  11.422
63078W        W35338   0.387  11.456   3.852
63079W        W35339  35.980  43.386  14.113
63080W        W35340  44.174  33.701  11.502
63081W        W35341  44.653  22.055  14.024
63082W        W35342  12.769  32.518  13.798
63083W        W35343  37.546  43.920  12.524
63084W        W35344  33.055  29.375   1.520
63085W        W35345  10.855  34.263   4.674
63086W        W35346  20.853  32.197  10.254
63087W        W35347  36.820   2.162  11.190
63088W        W35348  25.139   2.362  12.617
63089W        W35349   4.644  21.084   0.952
63090W        W35350  19.007  16.656  10.488
63091W        W35351  13.915  23.581   3.303
63092W        W35352  31.463  32.453  12.480
63093W        W35353  22.252   1.775  10.411
63094W        W35354  13.206   8.322   0.526
63095W        W35355  38.133   8.343   2.460
63096W        W35356   0.341  38.771   2.753
63097W        W35357  35.771  31.546  14.971
63098W        W35358   4.676   7.990   1.206
63099W        W35359  29.395   7.506  12.640
63100W        W35360  39.735  40.535   2.834
63101W        W35361  44.410  30.115   3.795
63102W        W35362   5.146  13.225  12.882
63103W        W35363  18.653  12.552   2.591
63104W        W35364   7.195  26.463   2.894
63105W        W35365  39.548   9.631  10.224
63106W        W35366  38.076   7.382  13.733
63107W        W35367  30.947  28.546   4.600
63108W        W35368   2.287  30.478  12.824
63109W        W35369  41.907  33.644  11.568
63110W        W35370  24.248  39.094   2.385
63111W        W35371  21.066  11.691  11.929
63112W        W35372   4.929   3.778  10.851
63113W        W35373  13.580  37.269   0.809
63114W        W35374  37.537  10.142  13.328
63115W        W35375  21.134   7.770  11.228
63116W        W35376  19.587  24.825   2.449
63117W        W35377  10.930  14.583  11.640
63118W        W35378  20.255  35.851  14.599
63119W        W35379  34.795  15.224   2.182
63120W        W35380  23.065  27.542   4.384
63121W        W35381  30.379  11.768  13.530
63122W        W35382   1.851  12.283   3.639
63123W        W35383   0.945   5.897  13.095
63124W        W35384  19.710  25.533  11.597
63125W        W35385  36.885  41.536  10.989
63126W        W35386  34.103   1.704  12.551
63127W        W35387  39.804  20.183  11.070
63128W        W35388  23.269  10.932   1.336
63129W        W35389   0.357  22.600   2.163
63130W        W35390  23.155  12.869   3.682
63131W        W35391  23.488  17.869  14.085
63132W        W35392  16.170  42.983  10.779
63133W        W35393  23.703  14.801   1.928
63134W        W35394   6.855  11.232   1.049
63135W        W35395  22.675   9.611  10.214
63136W        W35396   6.801  26.900   3.889
63137W        W35397  40.803  12.653  11.949
63138W        W35398  31.624   8.323   3.322
63139W        W35399  18.341  34.461   1.777
63140W        W35400  28.667   0.372  12.549
63141W        W35401  34.451  44.866   2.765
63142W        W35402  31.459  19.269  12.889
63143W        W35403  34.428  16.595  14.404
63144W        W35404  33.573  16.703  12.078
63145W        W35405  15.888  24.108  11.688
63146W        W35406  41.349  17.507   0.840
63147W        W35407   3.105   8.617   4.054
63148W        W35408  25.444  10.750  12.402
63149W        W35409   4.564  30.965  13.059
63150W        W35410  16.840  40.793   2.692
63151W        W35411  15.700  23.004   3.030
63152W        W35412  40.570  24.151   3.640
63153W        W35413  44.029   4.001   1.510
63154W        W35414  16.059  44.664   0.031
63155W        W35415  36.048  33.674  12.920
63156W        W35416  31.455  26.121  13.529
63157W        W35417  37.837  38.493   1.678
63158W        W35418  35.095  44.283   3.653
63159W        W35419  30.461   7.693  10.470
63160W        W35420  36.628  11.343   2.178
63161W        W35421  12.187  18.923   2.919
63162W        W35422  16.153   3.015   1.888
63163W        W35423  40.784   9.870  14.724
63164W        W35424  34.861  15.594   1.235
63165W        W35425  23.317  43.888   2.235
63166W        W35426  36.064  29.701  12.665
63167W        W35427  32.680   9.699  11.503
63168W        W35428  34.598   2.783   2.228
63169W        W35429  44.052  42.304   2.325
63170W        W35430  24.059   8.508   2.620
63171W        W35431   5.504  16.652  12.936
63172W        W35432  41.253  26.967  14.521
63173W        W35433  15.141  29.610  12.608
63174W        W35434   3.855  26.121  10.776
63175W        W35435  38.368   5.746  10.571
63176W        W35436  20.845   1.639   0.521
63177W        W35437  14.295  32.388  14.488
63178W        W35438  41.868  29.925   2.531
63179W        W35439  36.797  23.763  14.957
63180W        W35440   6.336  11.544   2.805
63181W        W35441  35.794  31.978   1.785
63182W        W35442  16.863  43.801  14.467
63183W        W35443  32.932  32.368  14.570
63184W        W35444  29.630   8.186   1.886
63185W        W35445   7.882   5.535  14.058
63186W        W35446  29.647  18.787   1.998
63187W        W35447  12.424  31.381  10.152
63188W        W35448  17.127  16.591  13.045
63189W        W35449  29.820  36.032   4.643
63190W        W35450   0.137  13.450   3.717
63191W        W35451  33.476  27.087  14.490
63192W        W35452   7.808  39.405   4.558
63193W        W35453   7.753   5.150   4.873
63194W        W35454  12.651   9.141  11.111
63195W        W35455  32.008  23.530  13.073
63196W        W35456  17.158  29.639  14.102
63197W        W35457  20.268  24.461   4.218
63198W        W35458  39.546  11.635   2.926
63199W        W35459  18.049  16.660  14.769
63200W        W35460  23.564   1.757  11.062
63201W        W35461  12.412  20.113  12.335
63202W        W35462  19.719  21.216   2.824
63203W        W35463  35.020  15.979  12.905
63204W        W35464  24.041  21.969   1.710
63205W        W35465  11.607  13.744   4.194
63206W        W35466  16.532  44.306  11.233
63207W        W35467  18.143   3.044  10.559
63208W        W35468  15.636  22.636  12.488
63209W        W35469  42.482  13.363  12.846
63210W        W35470   6.422  41.327   2.288
63211W        W35471   8.160  44.709   3.473
63212W        W35472  42.736  29.133   1.761
63213W        W35473  26.589   7.158   2.775
63214W        W35474  30.719  13.778   3.357
63215W        W35475  38.965  39.345   3.011
63216W        W35476  11.728  10.365   2.335
63217W        W35477   2.375  42.366   0.039
63218W        W35478  19.067  23.549  11.242
63219W        W35479  28.525  20.252  14.354
63220W        W35480  43.200  39.707  11.394
63221W        W35481  13.583  34.608   4.140
63222W        W35482  17.760   5.226   4.212
63223W        W35483   5.023  13.762  11.059
63224W        W35484   9.130  22.652   3.610
63225W        W35485  37.003  28.730  11.225
63226W        W35486   7.937   3.032   5.093
63227W        W35487  14.838   5.289  14.789
63228W        W35488  27.247  40.418   1.161
63229W        W35489  29.098   2.173  13.394
63230W        W35490  14.351   6.202   4.449
63231W        W35491  27.024  25.163  12.059
63232W        W35492  44.556   9.363  12.985
63233W        W35493  11.246  41.060   1.179
63234W        W35494  42.977   2.332  11.625
63235W        W35495  10.654   8.644   0.248
63236W        W35496  41.853  27.259   3.339
63237W        W35497  43.452  10.787   0.423
63238W        W35498  25.727  33.866   2.808
63239W        W35499   5.288   7.397   3.322
63240W        W35500  19.789  15.528  14.379
63241W        W35501   5.485  33.999  11.075
63242W        W35502   0.910  21.534   0.316
63243W        W35503  19.458  22.124   0.779
63244W        W35504  44.060  41.571   2.846
63245W        W35505   3.151  13.352  13.376
63246W        W35506   4.455  21.518   3.980
63247W        W35507  41.324  19.339  10.576
63248W        W35508  43.244   6.271  12.617
63249W        W35509   5.417  19.710   1.807
63250W        W35510  21.781   9.673   1.977
63251W        W35511  22.236  14.560  14.119
63252W        W35512  25.569  40.074  13.397
63253W        W35513  43.734  21.645   0.039
63254W        W35514   6.182  22.024   1.281
63255W        W35515  27.518  32.679   9.664
63256W        W35516  20.474  22.179  11.609
63257W        W35517  43.815   7.861   2.114
63258W        W35518  18.542  21.512   3.236
63259W        W35519  23.049  29.707  11.101
63260W        W35520   6.406  32.537  14.939
63261W        W35521   6.819  36.832  12.029
63262W        W35522  34.203  20.725  12.895
63263W        W35523  20.637  25.038  10.365
63264W        W35524  15.061   7.568   3.673
63265W        W35525  44.864  44.837  13.027
63266W        W35526  11.321  29.249   4.548
63267W        W35527  26.061  10.672   2.531
63268W        W35528   2.822  12.396  11.082
63269W        W35529  26.900  13.618   4.990
63270W        W35530  36.274   4.005  13.946
63271W        W35531   4.442  40.017  12.469
63272W        W35532   2.878  36.866   3.339
63273W        W35533  40.811  32.361   3.094
63274W        W35534  32.656  18.162  10.720
63275W        W35535  10.040  29.707   4.125
63276W        W35536  43.337   7.381   0.433
63277W        W35537  13.379  21.092  10.681
63278W        W35538  35.955   1.224  14.966
63279W        W35539   9.422  34.092   4.893
63280W        W35540  35.413  42.421   1.195
63281W        W35541  42.904  19.995   1.044
63282W        W35542   6.708   9.029  14.869
63283W        W35543  28.170  23.758  11.140
63284W        W35544   4.403  35.017   0.346
63285W        W35545   6.434  37.447   2.122
63286W        W35546  37.930  28.005  12.286
63287W        W35547  37.073  43.062   4.139
63288W        W35548  44.469  15.282  12.702
63289W        W35549  33.204   9.572  10.696
63290W        W35550  29.677  13.594  14.026
63291W        W35551  33.514  10.322  12.068
63292W        W35552  43.496  30.479  11.554
63293W        W35553  31.930  12.621   1.193
63294W        W35554  10.144  32.443   4.724
63295W        W35555  24.195  30.191   0.349
63296W        W35556  10.231  42.426   3.608
63297W        W35557  33.834  24.353   3.177
63298W        W35558  28.010   0.208   1.718
63299W        W35559  41.030  24.509  13.146
63300W        W35560   2.860  42.833   1.775
63301W        W35561  36.447  11.858   3.166
63302W        W35562   5.698  41.269  14.284
63303W        W35563  18.184  13.594   3.329
63304W        W35564  42.315  16.259   2.727
63305W        W35565   6.145  21.815  12.021
63306W        W35566  17.310  11.444   0.939
63307W        W35567  28.714  18.079  10.560
63308W        W35568  19.276  31.883  14.504
63309W        W35569  30.140  30.099   4.274
63310W        W35570  22.023   2.151   1.072
63311W        W35571  38.893  41.767  12.835
63312W        W35572  19.725   8.739   3.862
63313W        W35573  31.125  44.529   9.783
63314W        W35574  43.289  21.495  10.638
63315W        W35575  13.720   3.054  12.614
63316W        W35576   5.987  30.526  13.844
63317W        W35577  14.082  43.657   4.483
63318W        W35578   5.268  33.677  13.596
63319W        W35579  27.711   8.277  10.659
63320W        W35580  23.123   6.995   4.131
63321W        W35581  26.386  40.127   4.067
63322W        W35582  39.792  44.512   3.774
63323W        W35583   3.715  41.406  12.367
63324W        W35584  16.120  42.281   1.742
63325W        W35585  11.866  14.362  11.152
63326W        W35586  23.234  13.106   2.949
63327W        W35587  31.615   0.242  11.557
63328W        W35588  18.413  18.933  14.787
63329W        W35589   1.052  36.637  10.815
63330W        W35590   7.213  31.398   1.686
63331W        W35591   7.442  14.036  11.866
63332W        W35592   4.392  44.321  10.640
63333W        W35593  41.526  37.072  14.298
63334W        W35594  16.833  11.168   0.883
63335W        W35595  26.178  39.815  12.032
63336W        W35596  23.203  33.969  10.936
63337W        W35597  35.057   5.860  12.480
63338W        W35598  22.282   9.247   4.918
63339W        W35599  32.909  37.902  14.810
63340W        W35600  17.147  36.070   0.860
63341W        W35601   5.635  24.689   4.581
63342W        W35602  37.262   2.532  13.384
63343W        W35603  11.324  18.475   2.169
63344W        W35604   5.646  24.216   0.329
63345W        W35605  41.741  29.075   2.683
63346W        W35606   0.372  38.825   3.653
63347W        W35607  12.163  11.312   2.003
63348W        W35608  21.670  40.975   1.200
63349W        W35609   8.613   3.422  11.217
63350W        W35610   8.428  34.166   2.906
63351W        W35611  35.444  20.255   0.318
63352W        W35612  22.535  21.371   3.997
63353W        W35613  44.019   4.472   4.144
63354W        W35614  29.859  39.124   3.311
63355W        W35615  19.143  25.271   1.265
63356W        W35616  26.285  27.314  11.505
63357W        W35617  36.529   3.414   4.113
63358W        W35618   0.911  38.545  12.996
63359W        W35619  21.547  26.194   9.704
63360W        W35620  11.209  12.891  12.658
63361W        W35621  19.995  22.509  11.150
63362W        W35622  11.189  34.407  11.170
63363W        W35623  10.434  18.648  14.779
63364W        W35624  12.088  34.133  13.028
63365W        W35625  36.900  37.329   0.480
63366W        W35626  38.910   1.048   2.369
63367W        W35627  21.399  42.480  12.079
63368W        W35628   1.352   4.383  13.042
63369W        W35629   3.670  21.477  14.890
63370W        W35630   5.749   3.648   3.670
63371W        W35631  38.032  23.103   4.104
63372W        W35632  24.328  27.969  12.419
63373W        W35633  43.103   4.456  13.282
63374W        W35634  34.428  25.030  14.762
63375W        W35635  17.053  15.328   2.430
63376W        W35636  21.744  16.714  13.099
63377W        W35637   4.286   3.940   3.209
63378W        W35638  28.625  16.535   2.948
63379W        W35639  17.158  22.323  11.984
63380W        W35640  34.238  19.105   4.185
63381W        W35641  10.862  15.699  10.716
63382W        W35642   2.513  43.894  13.929
63383W        W35643  31.418   6.737   0.779
63384W        W35644  10.352   3.307  10.182
63385W        W35645  17.461  16.601  13.996
63386W        W35646  24.444  20.194  12.489
63387W        W35647  20.070  41.788   4.248
63388W        W35648  26.449  22.571   1.719
63389W        W35649  22.237  24.351  12.200
63390W        W35650   6.741  25.698   0.067
63391W        W35651  39.367  33.822   1.901
63392W        W35652  42.890  12.531  14.500
63393W        W35653   0.431  10.181   1.892
63394W        W35654  19.820  18.902  10.725
63395W        W35655  27.861  17.523   2.327
63396W        W35656  28.901   7.373  12.727
63397W        W35657  44.473  39.223  11.582
63398W        W35658  33.292  10.264   4.459
63399W        W35659  14.631   7.387   1.765
63400W        W35660  25.084  25.450   3.728
63401W        W35661   1.297  43.988  10.779
63402W        W35662   3.870  11.551  12.063
63403W        W35663  40.423  31.812   4.093
63404W        W35664   4.614  31.799   5.112
63405W        W35665  30.714   6.248   1.241
63406W        W35666  24.053  11.050  12.458
63407W        W35667  17.766  41.747   3.136
63408W        W35668   5.821   1.748  11.926
63409W        W35669  26.269   5.740  13.066
63410W        W35670   9.129   9.006   3.582
63411W        W35671  11.189  33.127  12.820
63412W        W35672  44.900  23.127   0.801
63413W        W35673   7.849  13.708  11.971
63414W        W35674  19.203  30.120   1.792
63415W        W35675   0.065  35.584   4.228
63416W        W35676   0.974  18.661  14.733
63417W        W35677  13.252  38.109   1.166
63418W        W35678  17.018  28.818  10.687
63419W        W35679  32.567  26.909   3.945
63420W        W35680  19.918  18.060  14.200
63421W        W35681  25.488   0.806   4.705
63422W        W35682  14.336  12.907  11.050
63423W        W35683  24.013  42.750  11.962
63424W        W35684  41.653  41.805  12.464
63425W        W35685  24.288  38.301   2.877
63426W        W35686  43.822  43.369   0.923
63427W        W35687  29.985  18.710  13.728
63428W        W35688  21.113  20.953  14.457
63429W        W35689  24.119  30.782   2.666
63430W        W35690   1.963  30.668  10.242
63431W        W35691  37.441  40.540   4.060
63432W        W35692  24.205  20.412   4.212
63433W        W35693  41.009  26.106  10.436
63434W        W35694  23.212  11.453   0.307
63435W        W35695  39.988  16.975   0.264
63436W        W35696  14.444  18.861   4.893
63437W        W35697  43.384  19.611  11.028
63438W        W35698  11.717   8.451  13.872
63439W        W35699  40.354  29.236  10.722
63440W        W35700  33.683  20.800  12.914
63441W        W35701  30.509  38.561  14.790
63442W        W35702  12.770  35.659   0.842
63443W        W35703   0.272   2.349  13.541
63444W        W35704  44.419   0.463   0.279
63445W        W35705  10.621  10.214  11.611
63446W        W35706  44.488  12.271   3.405
63447W        W35707   7.483  32.181   2.731
63448W        W35708   5.050   7.223  13.490
63449W        W35709   1.887  16.306   3.363
63450W        W35710  39.603   6.397  14.741
63451W        W35711   0.424  38.842  10.931
63452W        W35712   7.270  11.947  11.606
63453W        W35713   1.651  12.169  14.981
63454W        W35714  31.549  30.222   4.230
63455W        W35715  20.815   6.079   5.068
63456W        W35716  27.073  37.687   4.746
63457W        W35717  21.474  42.526   0.763
63458W        W35718  10.137  40.337  13.424
63459W        W35719  37.903  10.114   1.308
63460W        W35720  24.598   0.736  12.617
63461W        W35721  39.088  36.900  12.466
63462W        W35722  44.775  21.008   3.335
63463W        W35723   3.770  33.012  12.571
63464W        W35724  28.436  13.654  14.446
63465W        W35725   0.232  40.761  10.715
63466W        W35726  38.477   6.106   3.104
63467W        W35727  16.468  23.451   1.798
63468W        W35728  28.597   7.006  10.600
63469W        W35729  10.098  25.119   2.743
63470W        W35730  19.574   5.896   1.902
63471W        W35731  24.064  17.813   3.722
63472W        W35732  25.691  22.309   0.777
63473W        W35733   3.483  10.349  12.901
63474W        W35734  26.967  15.033   0.419
63475W        W35735  23.275  35.901  12.938
63476W        W35736  21.531  16.023  13.369
63477W        W35737  28.523  24.677   0.567
63478W        W35738  42.997  25.972  13.449
63479W        W35739  25.912   7.831   0.865
63480W        W35740   2.698  20.096  12.887
63481W        W35741  23.272  32.511   0.842
63482W        W35742   9.333  11.604   3.680
63483W        W35743  18.167  16.108   4.590
63484W        W35744   6.368  40.713  13.485
63485W        W35745  23.598  30.884  13.005
63486W        W35746   1.367  29.360   4.597
63487W        W35747  38.434  18.630   0.773
63488W        W35748  36.935  29.432  14.008
63489W        W35749   8.385  38.193  11.704
63490W        W35750  28.685  40.008   0.230
63491W        W35751  11.362  16.330  12.552
63492W        W35752  12.745  33.264  11.287
63493W        W35753   2.099  36.325   4.084
63494W        W35754  33.461  13.165  14.900
63495W        W35755   7.203  35.011   2.811
63496W        W35756  18.037  12.833  13.976
63497W        W35757  35.909   6.969  11.642
63498W        W35758  28.905   2.976   0.546
63499W        W35759  11.258  32.320  13.923
63500W        W35760  29.010  24.373   2.272
63501W        W35761  16.819   5.889   1.377
63502W        W35762  39.876  44.323   3.293
63503W        W35763  24.088  36.740   3.690
63504W        W35764  26.604  27.152   3.674
63505W        W35765  32.453   3.318   3.707
63506W        W35766  43.515  27.706  14.480
63507W        W35767  23.263  26.418   4.163
63508W        W35768  10.772   9.880   1.331
63509W        W35769  41.658  43.695  13.454
63510W        W35770  25.538  44.944   1.159
63511W        W35771   8.451   8.853  12.576
63512W        W35772  44.800   3.853  13.530
63513W        W35773   2.004  42.400   3.826
63514W        W35774  16.983  21.629   4.721
63515W        W35775  23.309  14.077   2.849
63516W        W35776  32.561  15.570  13.839
63517W        W35777  34.152  36.937   3.417
63518W        W35778  30.143  21.089  13.490
63519W        W35779  24.197  19.708  11.512
63520W        W35780  29.205  14.724   3.320
63521W        W35781  35.632   2.332   4.250
63522W        W35782  12.894  29.450   2.770
63523W        W35783  36.898  30.609   4.146
63524W        W35784   4.267  37.861  14.841
63525W        W35785   4.495  21.774   2.787
63526W        W35786  20.029  35.400   2.949
63527W        W35787   6.292  29.433   5.039
63528W        W35788  42.773   6.955   0.000
63529W        W35789  12.284   4.461  11.780
63530W        W35790   9.980  24.391   4.099
63531W        W35791  11.855  30.619   1.853
63532W        W35792  12.815  30.962   0.287
63533W        W35793  32.789   0.480  14.508
63534W        W35794   7.662  34.981  13.571
63535W        W35795  17.102  40.041   4.659
63536W        W35796  24.629   4.571  12.993
63537W        W35797  34.841  12.620   4.965
63538W        W35798  25.647   6.874  10.594
63539W        W35799   5.480  31.356  13.379
63540W        W35800  22.724  26.569  11.810
63541W        W35801  15.291  37.106   1.958
63542W        W35802   2.396   8.411  12.989
63543W        W35803  41.440   1.490   1.403
63544W        W35804   1.191   7.949   3.275
63545W        W35805  31.849  44.408   0.252
63546W        W35806   3.325  25.700  11.232
63547W        W35807  31.188  43.791  10.834
63548W        W35808  16.055  19.612  11.506
63549W        W35809  34.934   3.670  13.862
63550W        W35810  15.118  20.619   0.226
63551W        W35811  24.067  35.468  12.545
63552W        W35812   4.418  22.805   2.811
63553W        W35813   6.703   6.279   2.736
63554W        W35814   3.877  23.968   3.766
63555W        W35815  16.660  27.101  12.768
63556W        W35816  13.572  37.888  13.592
63557W        W35817  41.798  39.018  11.986
63558W        W35818  19.644  35.382  11.147
63559W        W35819  39.166   9.885   4.950
63560W        W35820  39.927   5.887   2.762
63561W        W35821  43.767   5.920  14.419
63562W        W35822  38.049  39.414   1.335
63563W        W35823   3.957  39.473   1.375
63564W        W35824  28.413   2.446  14.498
63565W        W35825  19.901   5.128  11.514
63566W        W35826   4.917   0.045  11.181
63567W        W35827   1.320   0.517   0.430
63568W        W35828   6.758  10.229  12.598
63569W        W35829  12.237  43.229   0.644
63570W        W35830   5.933  25.303  11.979
63571W        W35831  12.204  28.988  12.970
63572W        W35832  28.558  27.495  14.295
63573W        W35833  17.583  24.959  14.501
63574W        W35834  13.407  14.361  10.270
63575W        W35835   2.394   7.175   2.281
63576W        W35836  31.069  37.109   4.455
63577W        W35837  42.860  30.599  10.218
63578W        W35838  32.773  12.829  14.043
63579W        W35839  24.407  12.333   3.679
63580W        W35840  29.699  38.070   0.259
63581W        W35841  38.343   5.432  11.461
63582W        W35842  31.632  28.234   2.333
63583W        W35843  24.379  18.717  14.845
63584W        W35844   7.193  23.643  11.204
63585W        W35845  21.546  20.487  14.953
63586W        W35846   0.275  39.697  12.621
63587W        W35847   6.881  18.135   4.730
63588W        W35848  17.637  19.210  14.001
63589W        W35849   4.471  20.202  12.415
63590W        W35850  26.547   5.673   3.737
63591W        W35851  33.341  19.080  10.134
63592W        W35852   8.717  11.686  14.475
63593W        W35853  13.122   6.107  12.579
63594W        W35854   2.758  22.767   1.819
63595W        W35855  42.078  13.367  12.156
63596W        W35856  27.337  13.009   3.087
63597W        W35857  18.181   6.390  14.319
63598W        W35858   2.048   2.278   0.302
63599W        W35859  40.298  23.298   3.648
63600W        W35860  37.842  15.723   2.622
63601W        W35861  29.560  44.912   3.064
63602W        W35862  30.656   9.711  13.205
63603W        W35863  26.226  43.218   1.253
63604W        W35864  42.778  38.533   2.609
63605W        W35865  19.368  37.383   4.793
63606W        W35866   1.858  17.745  12.117
63607W        W35867  16.006  14.027   0.869
63608W        W35868  20.023  14.091   1.796
63609W        W35869  14.722  20.695   1.328
63610W        W35870  10.793  34.030   1.830
63611W        W35871  20.207  41.825   3.295
63612W        W35872   4.669  27.091   0.642
63613W        W35873  39.978  23.619  14.621
63614W        W35874   1.796  31.658  13.965
63615W        W35875  31.174  29.956  12.150
63616W        W35876   4.295  12.776   4.508
63617W        W35877   6.743  37.347   4.344
63618W        W35878  12.078   9.778  10.656
63619W        W35879  15.957  35.570   0.815
63620W        W35880   5.323  33.093  10.962
63621W        W35881   3.979  11.845   1.879
63622W        W35882  22.104  24.121  14.194
63623W        W35883   0.411  14.331   0.698
63624W        W35884  10.228  28.922  11.056
63625W        W35885  10.882   4.687   0.434
63626W        W35886  21.602   2.350   0.841
63627W        W35887  38.973  26.006  12.864
63628W        W35888  24.995  26.682  13.130
63629W        W35889  25.052  42.703  13.463
63630W        W35890  41.230   7.358  12.834
63631W        W35891   5.229   2.428   3.224
63632W        W35892  31.683  33.945   0.435
63633W        W35893  22.183   8.187  10.973
63634W        W35894  42.299   9.211   4.764
63635W        W35895  32.811  17.754   0.918
63636W        W35896  20.583   9.109  11.523
63637W        W35897  24.635  14.109  11.280
63638W        W35898  28.639  13.330  12.679
63639W        W35899  37.888  32.044  10.655
63640W        W35900  14.835  32.622  13.750
63641W        W35901  15.832  43.333  13.164
63642W        W35902  20.099  14.629   4.602
63643W        W35903  12.366  13.745  12.597
63644W        W35904  21.834  23.598   1.677
63645W        W35905  32.547  42.164   0.422
63646W        W35906  11.252  21.289   4.069
63647W        W35907  13.408  13.597  14.543
63648W        W35908  30.562  25.094  12.899
63649W        W35909   8.360  12.806  10.719
63650W        W35910  38.747  29.994  12.871
63651W        W35911   1.829  15.747   1.939
63652W        W35912  22.477  18.110  11.504
63653W        W35913  32.634   7.904   0.936
63654W        W35914  25.162  43.688  11.596
63655W        W35915  27.020  19.129  12.754
63656W        W35916   7.625  36.212   2.597
63657W        W35917   8.775  11.296   2.443
63658W        W35918  33.993  40.346  11.555
63659W        W35919  41.500  28.181  13.282
63660W        W35920   8.733  12.957   4.716
63661W        W35921  27.573   4.876   3.703
63662W        W35922   8.272  17.714  13.349
63663W        W35923  14.114  23.174   0.959
63664W        W35924   0.104  20.860   2.696
63665W        W35925  27.158  37.812  10.903
63666W        W35926  16.644  33.892  11.473
63667W        W35927  22.128  12.896   3.790
63668W        W35928  43.694   4.231  13.935
63669W        W35929   1.800   3.870   4.084
63670W        W35930  37.364  43.809  13.817
63671W        W35931  26.128  19.667   4.573
63672W        W35932  25.573  42.955   0.010
63673W        W35933   0.177  26.288  14.699
63674W        W35934  12.721  18.994   4.643
63675W        W35935   4.267   1.003   1.834
63676W        W35936   1.236  29.539  13.474
63677W        W35937  12.859  33.171   2.904
63678W        W35938  13.680  29.183  12.456
63679W        W35939  43.469  22.520  13.508
63680W        W35940  30.020  26.534  12.344
63681W        W35941  15.127   1.360  11.569
63682W        W35942   2.251  44.338  13.225
63683W        W35943  36.037   9.436   0.780
63684W        W35944   0.722   9.247  10.606
63685W        W35945  27.159   3.913  13.617
63686W        W35946  18.812  14.251  12.024
63687W        W35947   6.326  15.072   1.402
63688W        W35948  23.182  16.818  11.383
63689W        W35949  13.842   4.214   1.492
63690W        W35950  41.892   2.321  13.398
63691W        W35951  11.163  39.815   2.815
63692W        W35952  25.552  40.105  10.623
63693W        W35953  38.315   3.813   1.308
63694W        W35954  25.026  35.024   0.997
63695W        W35955  11.334  15.630   0.885
63696W        W35956  42.843  39.032  10.476
63697W        W35957  14.812  32.557   0.210
63698W        W35958  29.673  13.775   4.164
63699W        W35959  36.846  37.833   1.302
63700W        W35960  31.619   8.884  13.352
63701W        W35961  44.355   0.149   1.307
63702W        W35962   6.322   1.491   2.425
63703W        W35963  27.656  30.895  13.390
63704W        W35964  32.437   4.942   0.389
63705W        W35965  37.463   4.878   2.623
63706W        W35966  24.528   0.700  14.421
63707W        W35967  12.515   8.876   2.364
63708W        W35968  28.716  16.760   4.749
63709W        W35969  23.174  30.254   0.562
63710W        W35970  28.157  39.853   2.539
63711W        W35971  16.301  41.657  10.518
63712W        W35972   7.848  38.596  14.072
63713W        W35973   8.450  10.761  13.554
63714W        W35974  20.517  16.530  10.723
63715W        W35975  31.643  28.221  13.587
63716W        W35976  21.968   5.570   1.742
63717W        W35977   2.250  20.562  11.959
63718W        W35978  31.425  29.986  13.709
63719W        W35979   0.361  21.054  11.476
63720W        W35980   1.688  42.454  12.031
63721W        W35981  28.226  13.440  11.761
63722W        W35982  13.350  14.905   1.895
63723W        W35983   7.961   2.617   2.093
63724W        W35984  37.131  20.280  11.893
63725W        W35985  27.792   0.753   4.063
63726W        W35986   3.324   6.315   3.576
63727W        W35987  37.773  14.896   2.773
63728W        W35988   4.404   4.392  14.314
63729W        W35989  36.451  39.538  11.385
63730W        W35990  17.173  38.934   5.080
63731W        W35991  36.110  36.111  10.601
63732W        W35992  30.546  18.006  13.986
63733W        W35993  16.651   7.627   2.633
63734W        W35994  12.104  26.944   2.902
63735W        W35995  21.005  25.263   3.665
63736W        W35996  39.965  40.869  14.009
63737W        W35997  33.029   9.331   5.054
63738W        W35998  16.111  24.613   4.522
63739W        W35999   5.132   5.844   2.238
63740W        W36000  16.230   9.813  13.073
63741W        W36001   0.394  32.203   0.384
63742W        W36002  29.948  36.537   2.744
63743W        W36003  42.440  31.999  14.522
63744W        W36004  37.338  24.109  11.083
63745W        W36005  24.015   1.967   4.752
63746W        W36006  37.500  18.401  10.318
63747W        W36007  12.392  24.086  14.211
63748W        W36008  10.075  44.420  11.558
63749W        W36009  16.736   0.017   0.307
63750W        W36010  39.407   5.415   4.072
63751W        W36011  38.023   0.851   2.912
63752W        W36012  20.484   8.192   2.189
63753W        W36013  21.120  32.920   4.139
63754W        W36014  27.003   3.194  13.995
63755W        W36015  24.955  17.222  11.724
63756W        W36016  33.674  30.444  14.939
63757W        W36017  30.886  36.871   0.942
63758W        W36018  42.824  37.216   1.275
63759W        W36019  16.741   9.002  14.673
63760W        W36020  18.579   3.463   4.165
63761W        W36021  12.119  11.783  10.499
63762W        W36022   4.259   7.717   1.052
63763W        W36023  35.328  25.404  14.753
63764W        W36024  42.888  18.466  12.558
63765W        W36025  12.343  27.243  14.967
63766W        W36026   9.831   1.996   3.814
63767W        W36027  32.159  43.400   2.228
63768W        W36028  26.492  16.156  13.287
63769W        W36029  10.693  21.061   1.839
63770W        W36030  34.103  26.666   0.415
63771W        W36031   6.350  42.590  12.418
63772W        W36032   6.902  28.211   9.807
63773W        W36033   4.530  37.470   1.448
63774W        W36034  40.198   1.095  11.576
63775W        W36035  25.017  16.447   0.868
63776W        W36036  37.120  29.588   4.066
63777W        W36037  41.037  30.783  14.857
63778W        W36038  34.043  43.745  11.517
63779W        W36039  27.235  25.780   0.763
63780W        W36040  13.379   5.700  13.781
63781W        W36041  19.859  42.704  12.474
63782W        W36042  44.377  42.770  11.530
63783W        W36043  23.059   7.583  13.506
63784W        W36044  31.304  20.491   1.314
63785W        W36045  24.841  20.272  12.108
63786W        W36046   5.972  33.400   5.056
63787W        W36047   6.691  27.170   1.373
63788W        W36048  41.230  28.865   4.036
63789W        W36049  24.507  21.010   0.352
63790W        W36050  21.051  40.464  14.928
63791W        W36051   6.217   5.390   2.849
63792W        W36052  35.913  30.683   0.330
63793W        W36053  23.448  23.494   4.391
63794W        W36054  13.132  28.864  10.672
63795W        W36055  43.347  34.915  13.412
63796W        W36056   8.247  16.194  11.149
63797W        W36057  36.050  18.645   1.374
63798W        W36058  32.972  32.921  14.356
63799W        W36059   8.473  37.296  12.031
63800W        W36060   5.200  21.318  10.385
63801W        W36061  38.856  25.572   0.367
63802W        W36062  43.964  23.202  12.573
63803W        W36063  38.006  31.991   4.604
63804W        W36064  34.700  41.286   3.502
63805W        W36065  11.274  34.072   4.407
63806W        W36066  30.780   2.790  11.557
63807W        W36067  24.582   5.153   1.364
63808W        W36068  35.947  38.804   3.643
63809W        W36069   4.094  41.247  14.049
63810W        W36070  18.220  44.662  11.688
63811W        W36071  16.280  43.733   3.702
63812W        W36072  19.219  28.866   2.074
63813W        W36073  17.270  17.276  14.889
63814W        W36074  31.379  22.975   3.288
63815W        W36075  12.802  28.070  11.452
63816W        W36076  24.193  31.253  11.290
63817W        W36077  12.330  18.426   1.262
63818W        W36078  21.190  38.424   4.219
63819W        W36079  13.559  16.943   0.521
63820W        W36080  14.468  32.476   3.785
63821W        W36081  23.010  42.269   1.831
63822W        W36082  36.910  16.131   5.033
63823W        W36083  26.528  44.072   3.273
63824W        W36084  29.818  12.188   2.731
63825W        W36085  42.333  22.416  11.438
63826W        W36086  25.120   0.299  14.080
63827W        W36087  38.306  30.132   1.450
63828W        W36088  22.631  33.247  13.304
63829W        W36089   3.681  28.188   1.390
63830W        W36090   3.943  18.702  14.807
63831W        W36091  18.043   8.854  14.318
63832W        W36092  33.171  43.082   4.514
63833W        W36093  13.016  29.110  11.120
63834W        W36094  40.860   5.542   0.686
63835W        W36095  37.030  26.998  12.860
63836W        W36096  20.502  37.096   2.898
63837W        W36097  12.197   8.195   1.943
63838W        W36098  36.894   9.742   2.688
63839W        W36099  13.218  44.719  13.537
63840W        W36100  34.735   8.360   2.828
63841W        W36101  21.719  41.429  11.051
63842W        W36102  42.714   9.216   0.397
63843W        W36103  28.917  14.686  14.421
63844W        W36104  10.879  10.390   4.864
63845W        W36105  17.642  27.097  10.765
63846W        W36106   8.330  29.403  12.646
63847W        W36107   4.439  33.883   2.858
63848W        W36108   4.625  36.887  12.657
63849W        W36109  17.858  43.743  13.589
63850W        W36110  22.086  26.245  14.349
63851W        W36111  35.891  14.787   0.251
63852W        W36112  31.939  34.338  13.511
63853W        W36113   5.080  41.437   3.184
63854W        W36114   7.709  33.003  12.888
63855W        W36115  35.592  35.968   0.788
63856W        W36116  38.556  26.036   0.340
63857W        W36117  24.535  39.545   4.591
63858W        W36118  43.525  25.403   4.260
63859W        W36119  13.654  24.635   1.945
63860W        W36120  32.409  23.477   1.367
63861W        W36121  26.178  14.836   1.865
63862W        W36122   9.797  27.950   4.549
63863W        W36123  12.568  17.362   2.318
63864W        W36124  31.177  42.910  13.468
63865W        W36125  14.476  15.121  12.091
63866W        W36126   3.471   0.881   0.169
63867W        W36127  16.322  19.444  10.640
63868W        W36128  39.421  24.095   2.591
63869W        W36129  25.452  20.482   2.633
63870W        W36130  38.480   8.264   1.603
63871W        W36131   3.595   7.509  12.500
63872W        W36132  40.244   6.906  11.940
63873W        W36133  23.566  18.633   1.972
63874W        W36134   1.796   1.377  12.098
63875W        W36135  13.736  34.398  14.251
63876W        W36136  27.202  14.123  14.325
63877W        W36137  27.415  39.328  10.142
63878W        W36138  33.667  25.163   4.981
63879W        W36139  27.897  15.840   3.776
63880W        W36140  17.285   7.077  11.099
63881W        W36141  13.826   0.541  12.539
63882W        W36142  34.484  38.513  14.446
63883W        W36143  41.781  27.363   4.531
63884W        W36144  30.253  17.641  13.754
63885W        W36145  23.599   9.898  10.662
63886W        W36146   8.645   9.215   0.320
63887W        W36147  42.371  37.870  11.615
63888W        W36148   2.982  27.550  12.033
63889W        W36149  24.945   7.315  12.892
63890W        W36150  39.865  38.600  12.951
63891W        W36151  39.357  39.392  11.224
63892W        W36152  27.143  17.531  13.921
63893W        W36153  30.698  31.976   1.284
63894W        W36154  38.614  28.101   2.626
63895W        W36155  21.651  19.353   4.946
63896W        W36156  32.455  19.487  13.621
63897W        W36157  30.571  13.318  11.090
63898W        W36158  43.543  11.060  14.302
63899W        W36159  15.604   8.359   1.145
63900W        W36160  25.978  12.245  12.464
63901W        W36161   4.316  16.313  11.995
63902W        W36162  35.558  40.578   4.530
63903W        W36163  33.190  34.453  14.757
63904W        W36164  25.540  25.897   2.941
63905W        W36165  12.853  32.537  10.810
63906W        W36166  22.016  10.344  10.740
63907W        W36167  19.158  35.736  13.832
63908W        W36168  22.965  16.659   3.259
63909W        W36169   8.491   5.766  11.464
63910W        W36170   9.745  20.296   0.038
63911W        W36171  28.130  15.119   1.475
63912W        W36172  20.173  19.640  10.435
63913W        W36173  36.689  20.553  10.634
63914W        W36174   6.506  20.932   3.410
63915W        W36175   0.137  39.838  13.235
63916W        W36176  14.646  44.286   0.494
63917W        W36177  25.006  40.347   4.135
63918W        W36178  24.882   8.101   2.798
63919W        W36179  32.855  34.917   1.910
63920W        W36180  25.262   6.044   3.721
63921W        W36181  37.917  27.453  13.060
63922W        W36182  14.621  10.213  10.770
63923W        W36183  43.026  22.806   0.043
63924W        W36184  43.195  39.352  12.126
63925W        W36185   3.856  10.671   3.340
63926W        W36186  29.257   5.313   1.229
63927W        W36187  29.058   6.662   2.214
63928W        W36188  18.479   2.548   3.654
63929W        W36189  21.788   0.733  11.880
63930W        W36190  38.896  15.742  13.407
63931W        W36191  34.964  32.430  10.815
63932W        W36192  29.518  23.253   0.391
63933W        W36193  14.445   5.842  12.555
63934W        W36194  17.819  30.074   3.812
63935W        W36195   1.523  42.975   3.197
63936W        W36196  13.776  10.548  14.631
63937W        W36197   4.752  34.703   3.364
63938W        W36198  37.723  23.777   4.639
63939W        W36199   3.318  14.625   0.703
63940W        W36200  28.229  40.199  13.549
63941W        W36201   7.404   0.425  12.584
63942W        W36202  37.054  25.100   3.623
63943W        W36203   8.719  20.132   0.675
63944W        W36204  25.253  37.907  12.382
63945W        W36205  38.315   1.948   1.382
63946W        W36206   4.873   9.839   5.058
63947W        W36207  15.360   8.113   2.763
63948W        W36208   4.462   7.368   2.351
63949W        W36209   2.970  36.727  14.572
63950W        W36210  34.083  21.209   3.935
63951W        W36211  40.479  16.556  10.965
63952W        W36212  25.982  40.448  10.748
63953W        W36213  41.513   9.327   0.081
63954W        W36214  37.576   8.438   3.643
63955W        W36215  10.460  44.346   0.827
63956W        W36216   1.283  26.626  10.305
63957W        W36217  43.238   7.894   1.476
63958W        W36218  12.852  26.437   3.077
63959W        W36219  16.076   2.101   0.678
63960W        W36220   4.398  15.672   4.217
63961W        W36221  22.091  35.917  11.170
63962W        W36222  31.475   4.156  12.304
63963W        W36223   5.689   0.854  11.947
63964W        W36224  20.703  26.495  11.568
63965W        W36225  14.147  32.060   3.660
63966W        W36226  33.734  29.080   2.239
63967W        W36227  43.019  30.439  12.321
63968W        W36228  10.303  27.072  14.957
63969W        W36229  29.446  31.887  13.362
63970W        W36230   5.834  37.851   4.667
63971W        W36231  13.285   5.921   1.815
63972W        W36232  17.282  27.975  12.410
63973W        W36233  33.472  33.978  14.847
63974W        W36234  25.050  42.178  13.466
63975W        W36235  43.541  32.338   3.425
63976W        W36236   4.395  35.207   4.928
63977W        W36237   2.912  14.164  13.985
63978W        W36238  43.505  41.857   0.832
63979W        W36239  38.576  24.561  14.199
63980W        W36240   9.313  29.972   1.874
63981W        W36241  24.963  26.668   4.256
63982W        W36242  21.279  16.047  12.867
63983W        W36243  28.630  34.982   0.032
63984W        W36244  18.376   7.430  10.276
63985W        W36245  27.912   6.017   4.631
63986W        W36246  16.805  38.884  13.793
63987W        W36247  16.609  42.962   5.124
63988W        W36248  32.041  35.876  12.868
63989W        W36249  16.641  35.881  14.272
63990W        W36250  21.061  22.165  10.809
63991W        W36251   9.184  16.785   3.632
63992W        W36252  34.367  28.109   1.416
63993W        W36253  38.846  38.948   0.468
63994W        W36254   4.920  33.392  11.142
63995W        W36255  33.819  36.318   0.206
63996W        W36256  32.946  30.715   3.088
63997W        W36257  30.461  44.503   5.177
63998W        W36258  43.509  22.613   0.001
63999W        W36259   3.235   9.321   0.489
64000W        W36260  31.239  20.979  13.061
64001W        W36261  41.768  43.967  11.653
64002W        W36262   3.245  18.850  13.903
64003W        W36263   8.142  12.602  13.952
64004W        W36264  25.991  22.516   1.436
64005W        W36265  16.379  22.393   0.434
64006W        W36266  35.540  18.876  14.452
64007W        W36267   1.720  15.559   1.436
64008W        W36268   7.433  35.597   3.770
64009W        W36269   3.854  15.694   3.289
64010W        W36270  39.102  13.829   3.088
64011W        W36271  38.320  38.429  11.855
64012W        W36272  12.063  14.642   1.882
64013W        W36273  22.164  41.049   1.069
64014W        W36274  31.578   3.965   2.767
64015W        W36275  32.491  30.449   0.518
64016W        W36276  10.782   3.990   1.251
64017W        W36277   4.856  27.660  14.438
64018W        W36278   5.138  24.647  11.912
64019W        W36279  39.969  22.151   0.634
64020W        W36280   4.410  14.834  14.760
64021W        W36281   9.447  41.802  14.351
64022W        W36282  44.577  25.183   0.833
64023W        W36283  16.696  40.309  14.986
64024W        W36284  20.247  23.419  12.303
64025W        W36285   6.417  43.006  10.319
64026W        W36286  40.727  33.483   4.674
64027W        W36287   4.199  21.351   2.721
64028W        W36288  11.842  32.582  10.723
64029W        W36289  24.865  12.921  13.074
64030W        W36290  26.890  38.644   4.522
64031W        W36291  14.563   1.776   1.495
64032W        W36292  29.438  24.758   0.774
64033W        W36293  38.353   7.855  14.817
64034W        W36294  23.354  26.118   3.253
64035W        W36295  17.140   0.217  14.393
64036W        W36296   0.732  38.042  11.598
64037W        W36297  16.281   7.624  12.968
64038W        W36298   0.783  24.589   2.111
64039W        W36299  20.681  34.867   2.605
64040W        W36300  32.105  22.093   4.352
64041W        W36301  26.152  29.555  13.970
64042W        W36302  35.524  11.254   4.086
64043W        W36303  20.786  11.298  12.080
64044W        W36304  11.642  40.972   0.580
64045W        W36305  12.370  18.785   0.820
64046W        W36306  40.832   9.372  13.975
64047W        W36307  16.147  12.160  11.743
64048W        W36308   3.258  30.846   4.568
64049W        W36309  24.669  28.894   4.644
64050W        W36310  17.575   7.779  10.519
64051W        W36311  36.508   9.246  14.865
64052W        W36312   7.911  20.040  12.480
64053W        W36313  35.544  36.869   1.417
64054W        W36314  31.946  12.191   4.375
64055W        W36315   0.766  26.611   2.259
64056W        W36316  26.545   5.854   0.849
64057W        W36317  38.134   1.413  14.487
64058W        W36318  28.121   8.838  10.962
64059W        W36319  30.076   5.363   2.321
64060W        W36320  31.546   9.013  12.328
64061W        W36321   9.403  40.326  12.921
64062W        W36322  29.817  10.479   4.166
64063W        W36323  24.220   7.354   0.581
64064W        W36324  19.539   4.164  11.184
64065W        W36325   0.014  38.033   1.371
64066W        W36326  24.417  10.971  11.598
64067W        W36327  38.349  28.769   1.274
64068W        W36328  31.345  42.543   3.031
64069W        W36329   9.821  40.276  13.840
64070W        W36330  44.192  22.774  12.375
64071W        W36331  10.142  25.080  11.585
64072W        W36332  37.519  36.209  12.428
64073W        W36333  28.631  13.722  11.947
64074W        W36334  20.781  43.352   0.488
64075W        W36335  42.813   7.562  12.659
64076W        W36336   3.254  27.641   4.626
64077W        W36337  15.324  27.755  11.214
64078W        W36338  15.169  27.334  10.272
64079W        W36339   7.277  23.632   3.890
64080W        W36340  44.876  14.830   4.907
64081W        W36341  15.232  39.484   3.837
64082W        W36342  34.706  27.868  13.543
64083W        W36343  13.362  26.936   1.421
64084W        W36344   3.913   4.800  12.537
64085W        W36345  42.705  36.672  13.470
64086W        W36346  29.109  32.349  12.387
64087W        W36347  25.128  34.881   4.178
64088W        W36348   7.420  23.705  13.830
64089W        W36349  13.641  14.695  13.532
64090W        W36350  19.342  13.387   0.082
64091W        W36351  13.689  37.803   1.939
64092W        W36352  16.207   4.206  13.841
64093W        W36353  44.895   2.929   2.793
64094W        W36354  44.052   5.104  12.929
64095W        W36355  42.832  39.272  12.508
64096W        W36356   5.980  22.328  11.959
64097W        W36357  43.405  43.472   4.566
64098W        W36358  30.333  29.779   5.501
64099W        W36359  43.829  13.209   3.445
64100W        W36360  25.437  36.324  13.770
64101W        W36361  40.903   4.246  12.210
64102W        W36362   8.797  42.781   4.762
64103W        W36363  42.010  15.499  10.348
64104W        W36364  29.785  14.224   3.137
64105W        W36365  12.270  37.815   4.576
64106W        W36366  10.251   8.334  14.829
64107W        W36367  23.644   7.714   4.519
64108W        W36368   6.113   3.751   3.298
64109W        W36369  33.898  20.916   3.555
64110W        W36370   7.911  18.291  11.731
64111W        W36371  34.791  33.773  11.248
64112W        W36372  37.813  15.599  12.983
64113W        W36373  32.924  25.006  14.224
64114W        W36374  43.788  29.895  12.161
64115W        W36375   2.896   7.072  10.477
64116W        W36376  32.803  36.594  11.866
64117W        W36377  38.182  33.918   3.749
64118W        W36378   8.318   9.954   3.583
64119W        W36379  22.190  26.557  10.590
64120W        W36380  11.239  37.127   4.646
64121W        W36381  10.338  31.885  11.957
64122W        W36382  10.623  15.785   0.766
64123W        W36383   6.439   1.349  11.841
64124W        W36384  34.532  22.082   1.871
64125W        W36385  23.024  24.279  11.548
64126W        W36386   6.356  29.938  11.875
64127W        W36387   1.399   8.683  10.543
64128W        W36388  39.940  43.515  14.331
64129W        W36389  13.005  19.258  12.446
64130W        W36390  16.725  43.818  11.909
64131W        W36391  40.850  40.528   0.317
64132W        W36392  33.010  18.637   1.426
64133W        W36393   0.865  37.563   3.684
64134W        W36394  24.161   8.904  10.096
64135W        W36395  13.204  41.441   4.647
64136W        W36396  15.355   3.080  13.339
64137W        W36397   9.056   4.941   0.410
64138W        W36398  30.593  37.824   1.736
64139W        W36399  31.145   9.198  14.310
64140W        W36400  38.582   6.512  13.423
64141W        W36401   0.897  37.852   0.858
64142W        W36402  22.669  23.607  11.199
64143W        W36403  15.295  26.124   3.444
64144W        W36404  23.651  23.925   4.171
64145W        W36405  37.897  18.605   0.818
64146W        W36406  30.090   9.747  12.395
64147W        W36407  27.637  17.212  14.516
64148W        W36408  36.572   5.626   0.792
64149W        W36409   1.855  38.552   1.282
64150W        W36410  25.417   0.861   0.322
64151W        W36411  39.378  31.447   0.862
64152W        W36412  37.552   4.503   0.745
64153W        W36413  36.942  11.405  13.627
64154W        W36414  29.637  15.187   4.746
64155W        W36415  36.684  15.776   0.431
64156W        W36416   8.618   7.757   0.931
64157W        W36417   5.211  17.723  14.314
64158W        W36418  39.103  33.030  12.109
64159W        W36419  36.718  42.880  14.136
64160W        W36420  11.030  20.116  11.626
64161W        W36421  23.996  19.560   2.340
64162W        W36422  39.449   0.962  13.563
64163W        W36423   5.239  16.887  14.947
64164W        W36424   8.196  26.458  13.909
64165W        W36425   7.476  33.355   1.867
64166W        W36426  36.943  38.791   2.133
64167W        W36427  44.221  35.994   2.814
64168W        W36428  27.428   3.445  11.658
64169W        W36429  20.008  21.013  12.071
64170W        W36430   4.912  36.424  11.373
64171W        W36431  14.879   6.078  12.791
64172W        W36432  33.724  34.079  14.381
64173W        W36433   0.274  38.412  10.672
64174W        W36434  36.777  30.879   1.737
64175W        W36435  23.764   7.547   0.439
64176W        W36436  23.444   4.841  10.523
64177W        W36437  40.457  28.353   3.361
64178W        W36438   5.309  27.720   0.771
64179W        W36439  39.991   1.855  11.019
64180W        W36440  30.417  13.634  11.442
64181W        W36441  33.136  26.857  14.837
64182W        W36442  37.957  10.814  11.794
64183W        W36443   6.489   8.359   0.816
64184W        W36444  22.530   9.156  14.032
64185W        W36445   3.363  15.932   3.331
64186W        W36446  38.578  31.915   0.436
64187W        W36447   8.338  31.138   2.441
64188W        W36448   8.060  28.926  13.524
64189W        W36449  36.749   4.924   4.539
64190W        W36450  18.137  35.606  13.196
64191W        W36451  40.461  11.643   2.767
64192W        W36452  29.636  31.538   0.422
64193W        W36453  21.690  17.766  12.449
64194W        W36454  28.217  15.271   0.988
64195W        W36455  21.423  18.731  14.844
64196W        W36456  22.047  43.790  14.545
64197W        W36457  39.960  26.749   0.445
64198W        W36458  12.605  42.608  11.740
64199W        W36459  34.354  13.474  14.995
64200W        W36460  32.440  37.742   0.762
64201W        W36461  42.942  13.342  11.617
64202W        W36462  13.389   5.022   3.317
64203W        W36463   6.464   4.182  14.789
64204W        W36464  39.042  21.533   3.242
64205W        W36465   7.244  11.622  13.049
64206W        W36466  19.965  25.331   2.708
64207W        W36467  22.780  13.652  11.613
64208W        W36468   9.279  14.339  13.124
64209W        W36469   9.376  43.941  11.410
64210W        W36470  26.033  23.258   3.081
64211W        W36471  10.367  36.986  10.610
64212W        W36472  26.155  25.975  14.925
64213W        W36473  34.552  16.767   4.392
64214W        W36474  20.061   9.577  14.091
64215W        W36475  18.001  21.260  14.760
64216W        W36476  32.041  31.968  13.094
64217W        W36477  42.126  39.846   0.274
64218W        W36478  44.370  14.122  14.513
64219W        W36479  40.561  42.050  11.128
64220W        W36480  35.433  28.295   0.958
64221W        W36481  43.038  39.751  12.421
64222W        W36482   2.397  12.519  10.117
64223W        W36483  10.052   4.903   0.923
64224W        W36484  41.973  31.731  14.461
64225W        W36485  11.453   4.986  10.201
64226W        W36486  35.138  11.463  13.064
64227W        W36487  44.420   4.286  10.318
64228W        W36488  33.966  18.846   0.048
64229W        W36489  29.912   2.983   4.559
64230W        W36490  14.844  27.216  14.259
64231W        W36491  12.446   7.685   1.911
64232W        W36492  11.133  33.118  10.630
64233W        W36493  11.780  16.735  13.870
64234W        W36494  26.094  43.536   1.817
64235W        W36495  39.820  22.562   4.819
64236W        W36496  36.704  20.493   3.363
64237W        W36497  41.910  44.207  10.744
64238W        W36498  35.035   1.793   2.892
64239W        W36499  26.840   1.741   1.337
64240W        W36500  26.911  40.860   5.411
64241W        W36501  21.748  19.835   3.635
64242W        W36502  19.071  43.712   2.289
64243W        W36503  18.722  23.559   4.717
64244W        W36504   3.471  20.211  11.519
64245W        W36505  40.588  26.306  14.351
64246W        W36506  41.639  15.091   2.650
64247W        W36507  21.070  19.807   0.882
64248W        W36508  18.697   8.241   1.293
64249W        W36509   7.342  17.133   2.737
64250W        W36510  27.232  16.708  10.518
64251W        W36511   6.265   4.436   3.822
64252W        W36512  38.977  29.668   0.009
64253W        W36513  20.056   8.240   1.858
64254W        W36514  30.527   8.222   0.471
64255W        W36515  13.315   2.824  11.316
64256W        W36516  41.876   0.426   3.695
64257W        W36517  40.229   2.255   2.120
64258W        W36518   0.474  22.194   4.300
64259W        W36519  32.852   6.415   3.607
64260W        W36520  16.304  37.359  13.503
64261W        W36521  21.493   5.726   1.904
64262W        W36522  42.668  15.021  12.622
64263W        W36523  43.354  11.173   2.597
64264W        W36524   9.038  13.015  12.477
64265W        W36525  21.732  27.653  12.659
64266W        W36526  36.568  40.452  10.715
64267W        W36527  23.116  29.531   1.152
64268W        W36528  13.865  43.859   3.636
64269W        W36529  31.044  42.471  10.552
64270W        W36530  39.028  43.008   3.857
64271W        W36531  10.163   4.397   0.739
64272W        W36532   9.850  32.528  14.478
64273W        W36533  12.751  27.549  11.432
64274W        W36534  11.641   7.218   4.533
64275W        W36535  24.121   3.281   4.050
64276W        W36536   6.603  27.137   0.702
64277W        W36537  41.096  26.418  12.609
64278W        W36538  19.387   1.174   4.428
64279W        W36539   0.470  23.256  13.574
64280W        W36540  20.102  27.708  14.373
64281W        W36541   7.602  41.014   2.676
64282W        W36542  21.506   0.809  11.456
64283W        W36543  19.097  27.504  11.936
64284W        W36544  24.720  26.558   0.440
64285W        W36545  19.108  35.919  12.755
64286W        W36546  38.090   1.586  12.045
64287W        W36547   7.186  39.490   3.381
64288W        W36548   9.640  31.502   1.992
64289W        W36549   3.236  35.517  13.428
64290W        W36550  32.387  23.668   4.704
64291W        W36551  26.997   9.435  11.531
64292W        W36552   2.510  15.104   1.080
64293W        W36553  36.138  28.134  14.721
64294W        W36554  36.507   6.734   1.651
64295W        W36555  31.424  20.706  14.067
64296W        W36556   6.900  26.016   0.928
64297W        W36557  11.816  28.840  12.692
64298W        W36558  33.702  21.359  10.078
64299W        W36559  25.347  16.653  12.025
64300W        W36560  17.123  32.040  13.899
64301W        W36561  20.754  21.751  11.488
64302W        W36562  24.892  32.148   2.672
64303W        W36563   9.769  29.460   2.196
64304W        W36564  17.783  40.806   0.867
64305W        W36565   1.886  18.474   0.489
64306W        W36566   9.719  15.228  12.007
64307W        W36567  23.550  44.858   1.827
64308W        W36568   0.422  34.085   2.622
64309W        W36569  31.906  31.739  13.557
64310W        W36570  22.039  44.815   2.828
64311W        W36571  35.571  17.641   1.735
64312W        W36572  10.389   2.031   0.363
64313W        W36573  35.689  39.040  13.327
64314W        W36574  27.225  41.488   5.497
64315W        W36575  28.548  24.391   1.591
64316W        W36576   9.368  17.796  13.399
64317W        W36577  21.444  27.009   4.666
64318W        W36578  42.930  12.195  11.570
64319W        W36579  22.406  23.485  10.787
64320W        W36580   6.661  35.412  11.214
64321W        W36581  12.295  25.168   4.026
64322W        W36582  30.680  35.666   1.244
64323W        W36583  23.747   1.844   1.058
64324W        W36584  15.887  28.910   2.282
64325W        W36585   2.728  33.884  10.705
64326W        W36586  14.658  36.952  12.660
64327W        W36587   6.853  34.368   4.076
64328W        W36588  41.885   5.296   1.012
64329W        W36589   3.410  27.635  12.362
64330W        W36590  12.900  31.709  14.622
64331W        W36591   6.887   0.237  14.288
64332W        W36592  27.732  43.346   0.314
64333W        W36593   2.335  11.722  14.120
64334W        W36594  16.732  35.535  11.464
64335W        W36595   1.450  26.666  14.851
64336W        W36596   0.849  11.246   0.960
64337W        W36597  10.277  11.464  12.091
64338W        W36598  20.631  37.542   5.021
64339W        W36599   7.921   5.318  13.550
64340W        W36600  40.868  19.745  13.890
64341W        W36601  38.104   1.478   1.376
64342W        W36602  42.956   5.450  13.487
64343W        W36603  32.482   0.000  11.507
64344W        W36604  21.147   9.877  10.201
64345W        W36605   0.613   0.378  13.432
64346W        W36606  21.854  20.796   4.241
64347W        W36607  10.193  33.650   3.159
64348W        W36608  26.645   7.329   4.592
64349W        W36609   4.910  22.079   2.842
64350W        W36610   2.786  38.315   3.190
64351W        W36611   3.290  35.901   3.774
64352W        W36612  21.128   9.724  10.730
64353W        W36613  20.364  25.483  13.768
64354W        W36614  27.488  16.178   0.365
64355W        W36615   9.423  18.786   2.603
64356W        W36616  13.230  28.907   2.313
64357W        W36617  22.589  15.835   1.199
64358W        W36618  36.000   7.444   0.003
64359W        W36619  20.139  43.257   4.250
64360W        W36620  27.673  42.413  11.719
64361W        W36621  23.591  40.314   3.176
64362W        W36622  37.042  36.835  10.895
64363W        W36623  34.066  38.437   2.295
64364W        W36624  28.827  31.355   0.849
64365W        W36625  44.982  22.312   1.913
64366W        W36626  43.368  38.511   2.856
64367W        W36627  16.522  41.864  13.952
64368W        W36628  41.741  11.656  14.566
64369W        W36629  43.991   2.476   1.834
64370W        W36630  27.635  33.191  13.051
64371W        W36631  39.905  42.853   2.377
64372W        W36632  37.950  33.864   2.367
64373W        W36633  14.760  37.295   3.146
64374W        W36634  14.829  22.135  14.406
64375W        W36635  23.022  17.081  12.989
64376W        W36636   7.317  33.623   2.280
64377W        W36637   5.892  40.062   2.016
64378W        W36638  18.696  24.577  14.517
64379W        W36639  15.361  10.754  10.543
64380W        W36640  33.435   9.190  12.753
64381W        W36641  28.017  15.581  10.417
64382W        W36642  25.823   4.624  10.025
64383W        W36643  19.765  38.566  12.593
64384W        W36644  34.508  32.184   0.307
64385W        W36645  23.224   3.108   1.989
64386W        W36646  18.621  44.807  12.031
64387W        W36647  16.221  15.399   1.842
64388W        W36648  26.165  14.552  11.222
64389W        W36649  30.692  36.413   4.175
64390W        W36650  41.298  33.841   1.187
64391W        W36651  14.882  24.530   2.711
64392W        W36652  13.701  16.602  13.455
64393W        W36653   9.333  34.484   3.694
64394W        W36654  34.585  16.160  12.162
64395W        W36655  16.518  26.060   2.845
64396W        W36656  15.795  17.745  11.158
64397W        W36657  44.881  33.575   2.254
64398W        W36658  14.653  37.354  10.888
64399W        W36659  40.835  15.696   0.420
64400W        W36660  17.999   0.760   4.248
64401W        W36661  12.290  19.712  10.730
64402W        W36662   2.060  23.014   3.314
64403W        W36663  39.060  35.795  10.792
64404W        W36664  40.038  19.847  12.471
64405W        W36665  16.107  30.937   0.113
64406W        W36666  20.226  37.976   1.362
64407W        W36667  31.167  33.979  13.335
64408W        W36668  11.166  22.274   3.246
64409W        W36669   0.208  40.320   0.843
64410W        W36670  30.599  33.694   1.233
64411W        W36671  11.028  41.445  11.919
64412W        W36672  30.900  12.329  11.219
64413W        W36673  37.320  14.235  10.666
64414W        W36674   8.264   4.545   1.319
64415W        W36675  24.003  40.294  12.048
64416W        W36676  14.239  32.108   0.289
64417W        W36677   2.989  40.276   2.350
64418W        W36678  12.376  42.901   1.537
64419W        W36679   3.055  34.069   2.296
64420W        W36680  15.287   5.122   2.389
64421W        W36681  35.256  29.497   2.265
64422W        W36682   5.277  15.779   4.240
64423W        W36683  31.332  39.288  13.985
64424W        W36684  42.730  32.023  10.534
64425W        W36685  28.230  19.913  11.186
64426W        W36686  36.294  30.112  10.620
64427W        W36687  34.567  17.612  14.939
64428W        W36688  23.222  13.033  12.581
64429W        W36689  27.616  21.546   4.541
64430W        W36690  25.624   8.296   3.378
64431W        W36691  18.008  13.787  11.927
64432W        W36692  20.283  26.182   3.653
64433W        W36693  26.283  34.422   0.476
64434W        W36694  19.236  38.007   0.341
64435W        W36695  25.441  27.419  14.983
64436W        W36696  21.059   2.755   1.384
64437W        W36697   7.638  40.793  12.992
64438W        W36698   0.916   9.813   3.645
64439W        W36699  33.868   9.872  12.481
64440W        W36700  29.803  17.482  13.959
64441W        W36701  24.102  15.744  12.912
64442W        W36702  22.151  21.866  12.664
64443W        W36703  20.220  19.188  13.796
64444W        W36704  37.473  26.557  10.299
64445W        W36705  32.605  32.037  10.631
64446W        W36706   7.306  40.104  11.567
64447W        W36707  12.543   7.209   3.325
64448W        W36708  27.068  36.744  13.413
64449W        W36709  12.601  37.444  14.655
64450W        W36710  39.491  37.116  10.539
64451W        W36711  31.588  36.448   1.897
64452W        W36712  43.548   0.451   1.826
64453W        W36713  30.998  43.731  13.403
64454W        W36714  31.364  17.625  12.558
64455W        W36715  20.333  33.318  10.052
64456W        W36716  14.397  30.229   5.031
64457W        W36717  25.462   2.903  11.024
64458W        W36718  34.966  33.140   5.074
64459W        W36719  24.760  10.212   0.849
64460W        W36720   0.858   7.327  13.456
64461W        W36721   3.642  29.286  14.787
64462W        W36722  28.190  13.825   5.067
64463W        W36723  20.449  27.088   4.502
64464W        W36724  28.946  14.375   4.593
64465W        W36725   5.040  18.131  11.258
64466W        W36726  36.492  27.737   4.435
64467W        W36727  39.840  12.342  14.022
64468W        W36728   4.973  36.104  13.557
64469W        W36729  36.512  23.725  12.967
64470W        W36730  20.173   8.478   3.881
64471W        W36731  39.958  10.738  14.653
64472W        W36732   8.878  14.096   0.831
64473W        W36733  41.472  31.957  14.368
64474W        W36734  43.478  39.492  12.549
64475W        W36735  35.608  23.756   2.729
64476W        W36736  41.348  21.112   1.396
64477W        W36737  26.165  36.947  11.152
64478W        W36738   4.181  27.167   2.733
64479W        W36739  11.927  42.226   2.818
64480W        W36740  24.449  18.315   1.467
64481W        W36741   6.336  22.513  11.589
64482W        W36742   1.861  35.134  13.051
64483W        W36743  10.340  13.194   1.576
64484W        W36744  35.344  35.628   2.205
64485W        W36745  20.700  13.566  12.891
64486W        W36746  43.864  16.308  10.442
64487W        W36747   1.468  12.257   2.347
64488W        W36748  34.077  21.503   0.815
64489W        W36749  32.498  21.747   4.115
64490W        W36750   9.537  37.517   2.896
64491W        W36751  21.502   2.385  13.349
64492W        W36752  44.443   3.447  14.298
64493W        W36753  19.621  43.304  11.334
64494W        W36754  31.406   0.441   1.785
64495W        W36755  20.338  43.573   0.638
64496W        W36756   4.870  22.398  13.049
64497W        W36757  16.184  10.415   4.422
64498W        W36758  24.006  40.516  13.922
64499W        W36759  42.325  16.626   3.886
64500W        W36760  37.877  16.319   2.209
64501W        W36761  14.247  27.952  14.485
64502W        W36762   7.837  21.355  11.049
64503W        W36763  18.918  27.577   1.081
64504W        W36764  12.335  39.534   2.349
64505W        W36765   0.222  11.490   2.409
64506W        W36766  14.889  18.603  13.465
64507W        W36767  23.823  12.867   4.148
64508W        W36768   5.699  24.499   0.860
64509W        W36769  33.180   8.172  12.343
64510W        W36770  12.364  35.758  12.480
64511W        W36771  26.709  44.466   1.412
64512W        W36772  22.413  20.919   4.202
64513W        W36773  39.829  42.200   0.488
64514W        W36774  30.584  24.166  13.365
64515W        W36775  14.535  41.859  12.939
64516W        W36776  43.746  43.137   0.463
64517W        W36777  36.127  39.964  11.534
64518W        W36778  25.440  28.508   3.778
64519W        W36779   7.384  37.057   1.985
64520W        W36780  22.429   2.368   2.313
64521W        W36781   2.378   1.965   3.691
64522W        W36782  15.698   8.953   2.223
64523W        W36783  22.148  33.191  10.949
64524W        W36784  43.517   4.770  10.140
64525W        W36785  28.421  28.589  13.283
64526W        W36786  37.505  43.488   0.116
64527W        W36787  11.722  36.435  14.086
64528W        W36788  25.310  37.854  13.241
64529W        W36789  43.791  10.697  13.545
64530W        W36790   4.186  27.273  14.795
64531W        W36791  39.385  24.143   4.099
64532W        W36792  25.071  28.130   3.755
64533W        W36793  23.668   8.436   3.363
64534W        W36794  27.067  32.520   2.110
64535W        W36795   5.322  32.124  11.509
64536W        W36796   5.267  30.923  13.567
64537W        W36797  27.736   7.257  13.448
64538W        W36798  26.835  10.378  13.510
64539W        W36799  38.061  34.006   1.422
64540W        W36800  25.743  28.802  13.805
64541W        W36801  14.173   3.658  13.866
64542W        W36802  13.439  35.374  13.274
64543W        W36803  44.747  39.385   4.464
64544W        W36804  22.629  33.558  12.901
64545W        W36805  28.827  10.280   4.342
64546W        W36806  14.785  10.385  13.008
64547W        W36807  14.659  39.483  12.770
64548W        W36808  19.157  31.493  14.853
64549W        W36809  43.765  19.821  13.867
64550W        W36810   3.532   5.613  13.377
64551W        W36811  13.275  44.959   3.785
64552W        W36812  29.905   3.454  11.751
64553W        W36813  24.646  37.555  14.433
64554W        W36814  30.942  11.225   3.916
64555W        W36815  19.587  19.777   3.990
64556W        W36816   4.818  24.962  13.813
64557W        W36817  37.450  39.598   4.088
64558W        W36818  41.306  35.155   3.982
64559W        W36819  39.037   2.970   1.885
64560W        W36820   9.583  19.036  14.960
64561W        W36821  30.467  28.560  13.595
64562W        W36822  23.230  29.403  12.466
64563W        W36823  31.590  21.863   1.732
64564W        W36824   4.423   8.452   4.753
64565W        W36825  16.003  44.728  14.027
64566W        W36826  12.683  20.962  12.917
64567W        W36827  42.827  23.487  12.864
64568W        W36828  34.891  31.420  12.531
64569W        W36829  17.097  13.258   2.993
64570W        W36830  17.528  20.013  11.203
64571W        W36831  42.744  36.704   1.181
64572W        W36832  40.029   3.503   1.856
64573W        W36833  38.788  25.696   1.326
64574W        W36834  12.441  41.470   0.884
64575W        W36835   5.716  31.353   0.860
64576W        W36836  28.387  27.818  13.679
64577W        W36837   6.743  43.255  10.685
64578W        W36838  39.401  40.882   2.586
64579W        W36839  39.883  23.203  14.918
64580W        W36840   1.666  40.866   4.301
64581W        W36841  35.688  20.489  10.208
64582W        W36842  24.476  30.041  14.048
64583W        W36843  15.208  10.669  12.923
64584W        W36844  17.826   3.876   3.185
64585W        W36845  23.202  38.908  14.295
64586W        W36846  31.908   0.763   1.361
64587W        W36847  12.456  36.976   3.593
64588W        W36848  20.110  31.397   4.400
64589W        W36849  42.037  10.744   3.119
64590W        W36850  10.742   6.670  14.450
64591W        W36851   6.216  14.189   1.747
64592W        W36852  14.744   6.192   0.520
64593W        W36853  25.482   0.429   4.172
64594W        W36854   7.975   0.062   3.115
64595W        W36855  18.695  13.702   1.358
64596W        W36856  17.786  24.467  14.480
64597W        W36857  20.838  23.164   2.832
64598W        W36858   5.693  22.053  14.286
64599W        W36859   4.121   5.359   4.054
64600W        W36860  16.675  21.081   1.217
64601W        W36861  37.544  38.033   4.053
64602W        W36862  12.307  36.471   1.458
64603W        W36863  27.469   4.882   4.493
64604W        W36864  27.709  40.971  11.990
64605W        W36865  26.924  38.611   3.262
64606W        W36866  43.069  22.713  11.991
64607W        W36867  39.282  42.893  14.059
64608W        W36868  23.658  16.623  11.524
64609W        W36869  18.506  11.275   4.338
64610W        W36870  14.306   3.437   1.190
64611W        W36871  44.709  19.557   0.355
64612W        W36872  18.104  36.355   1.818
64613W        W36873  21.973   4.960  14.107
64614W        W36874  44.498  36.807   9.983
64615W        W36875   6.833  36.779   0.846
64616W        W36876  12.066  34.871  12.184
64617W        W36877  21.836  22.115  10.133
64618W        W36878  23.216   8.337  11.050
64619W        W36879   2.120   1.860   4.126
64620W        W36880  35.345  27.013   4.882
64621W        W36881   8.280  26.634  14.418
64622W        W36882  18.501  10.543  13.842
64623W        W36883  22.209  15.023   0.984
64624W        W36884  31.188  12.370  13.163
64625W        W36885   3.809  12.876  12.407
64626W        W36886  36.983   4.649   3.179
64627W        W36887  32.886  42.462  12.985
64628W        W36888  40.911  23.504   1.371
64629W        W36889  24.391  26.993  14.240
64630W        W36890  43.674   6.440  14.353
64631W        W36891  22.082  24.811   1.906
64632W        W36892  40.140  37.378   2.352
64633W        W36893   5.432  25.645   3.146
64634W        W36894  34.430  39.935   0.487
64635W        W36895  39.994  41.783  12.125
64636W        W36896  27.856  44.361  11.921
64637W        W36897  18.305  11.902  14.835
64638W        W36898   0.126  17.882   1.394
64639W        W36899  33.385  25.664   3.326
64640W        W36900  16.264  25.288  12.104
64641W        W36901  35.529  33.329   1.830
64642W        W36902  15.101   4.900   1.940
64643W        W36903  41.866   6.429   0.766
64644W        W36904  12.050   5.183   3.221
64645W        W36905  17.667  33.138   0.675
64646W        W36906  25.762  34.441   0.538
64647W        W36907  22.557  27.447   4.166
64648W        W36908  25.785  10.902  11.557
64649W        W36909  21.259  27.525   3.119
64650W        W36910  40.008   7.034  12.366
64651W        W36911  18.522  44.486   2.369
64652W        W36912  43.533  29.409   0.594
64653W        W36913  41.796  38.090  13.402
64654W        W36914  29.230  24.244   0.738
64655W        W36915  28.997   1.327  14.708
64656W        W36916  35.276   8.065  12.071
64657W        W36917  34.147  32.273   3.743
64658W        W36918  38.837   2.377   3.822
64659W        W36919  31.546  26.543  12.306
64660W        W36920  34.151   2.446  12.048
64661W        W36921  32.209  37.555  13.505
64662W        W36922  41.928  27.196   3.847
64663W        W36923  13.281  12.288   4.863
64664W        W36924   8.566  29.975  13.472
64665W        W36925  35.410  31.754  14.612
64666W        W36926  32.554  15.748   0.130
64667W        W36927  26.660  20.564  11.089
64668W        W36928  43.090  23.533  13.877
64669W        W36929  20.739  21.227   5.521
64670W        W36930  10.841  11.096   2.831
64671W        W36931  15.717   8.753  11.911
64672W        W36932  16.192   5.272  10.110
64673W        W36933  27.466  23.131   1.649
64674W        W36934   6.957  27.039  10.415
64675W        W36935   0.862   9.739   4.156
64676W        W36936   5.756  44.508  11.734
64677W        W36937   3.888  11.502  11.227
64678W        W36938  22.898  21.226   3.649
64679W        W36939  20.084  26.427   1.953
64680W        W36940  35.997  35.436   3.257
64681W        W36941  39.756  14.262  12.129
64682W        W36942  14.553  16.813   4.662
64683W        W36943   9.315   8.599   1.376
64684W        W36944  10.825  26.959  13.498
64685W        W36945   4.188  24.461  13.407
64686W        W36946  11.637   6.375  10.693
64687W        W36947   3.831   8.448  13.737
64688W        W36948   9.123  41.871   2.328
64689W        W36949   4.666  14.634   2.896
64690W        W36950   8.520   3.967   2.570
64691W        W36951  42.029  31.613   2.730
64692W        W36952  25.225   1.895  11.505
64693W        W36953  26.176   6.817  12.353
64694W        W36954  18.811  36.877   0.062
64695W        W36955  18.580   0.856   0.958
64696W        W36956  20.864   5.050  13.283
64697W        W36957  19.514   4.337  11.698
64698W        W36958  24.036   8.598   0.632
64699W        W36959  27.575  17.702  14.274
64700W        W36960   1.018   8.993   1.602
64701W        W36961  43.485  33.817  12.615
64702W        W36962  43.456  38.605   0.418
64703W        W36963  31.588   0.237  13.891
64704W        W36964   0.882  35.782  12.544
64705W        W36965  44.202  12.463   0.190
64706W        W36966  38.924  12.039  14.038
64707W        W36967  37.348   3.932   1.241
64708W        W36968   0.728  23.570   3.276
64709W        W36969  42.404  36.883  10.693
64710W        W36970  20.054   6.913  13.059
64711W        W36971  31.382  13.423  10.690
64712W        W36972   5.076  26.840   2.014
64713W        W36973  15.847  22.619  12.971
64714W        W36974  21.555  23.467   4.547
64715W        W36975   1.909  23.631   1.222
64716W        W36976  17.819   3.308   1.388
64717W        W36977  41.120  31.195   1.004
64718W        W36978  13.606  30.979   2.738
64719W        W36979   6.398  12.806  10.178
64720W        W36980  17.861  12.838   0.579
64721W        W36981  36.676  17.170   3.395
64722W        W36982  11.036  37.985  14.816
64723W        W36983  43.355  33.339  10.505
64724W        W36984  21.235   9.165   4.400
64725W        W36985  18.606  17.122  14.237
64726W        W36986  18.940  31.246  11.628
64727W        W36987  24.866  37.616  13.952
64728W        W36988  39.397  22.474  10.343
64729W        W36989  16.481  24.131   1.379
64730W        W36990  36.035  40.951  12.891
64731W        W36991  29.435   5.177   4.587
64732W        W36992  44.747  35.665  14.512
64733W        W36993  11.420  25.635  12.662
64734W        W36994  36.314  24.635   3.681
64735W        W36995  20.885  35.471   1.414
64736W        W36996  20.303  23.953   4.168
64737W        W36997   3.259   4.742  13.264
64738W        W36998  26.680  14.270  13.335
64739W        W36999  44.890   1.333   3.645
64740W        W37000  18.771  34.041   2.443
64741W        W37001  35.965  21.289  11.201
64742W        W37002   0.404  39.770  14.966
64743W        W37003  37.083  21.187   3.728
64744W        W37004  15.570   4.889  14.938
64745W        W37005  17.168   8.094  13.884
64746W        W37006  10.423  19.185   3.762
64747W        W37007  17.229   1.234  13.485
64748W        W37008  21.996  31.477   0.986
64749W        W37009  31.699   0.295   3.199
64750W        W37010  33.314   7.690  12.161
64751W        W37011  13.806   4.484   2.325
64752W        W37012  36.516  12.763   4.050
64753W        W37013   5.193  21.122   3.666
64754W        W37014  20.946  16.083   0.510
64755W        W37015   0.105   1.810  11.107
64756W        W37016  40.412  16.098   2.231
64757W        W37017  44.856  33.416  12.580
64758W        W37018  37.869  43.730  10.757
64759W        W37019   4.211  14.631   3.157
64760W        W37020   2.899   2.163  13.482
64761W        W37021  31.102  21.153  14.554
64762W        W37022  12.378  22.660  12.014
64763W        W37023  26.630  20.671  13.483
64764W        W37024  41.004  11.324   3.670
64765W        W37025  29.927  33.535  11.136
64766W        W37026  18.054   5.855   5.539
64767W        W37027  20.527  10.210   4.296
64768W        W37028  30.708  14.721   4.504
64769W        W37029  13.333  34.912   3.721
64770W        W37030  27.438   6.308  11.220
64771W        W37031  16.583   7.632   1.687
64772W        W37032  37.445  21.103  11.666
64773W        W37033  43.878  39.496   1.203
64774W        W37034   9.286  25.687   3.530
64775W        W37035  14.677  17.256   9.773
64776W        W37036   4.926   6.185   5.041
64777W        W37037  32.871   1.246  11.565
64778W        W37038   2.751  19.205  12.756
64779W        W37039  11.864  29.576  13.447
64780W        W37040   2.516  42.371   4.745
64781W        W37041  31.042  18.181  13.292
64782W        W37042  19.710  23.796  13.941
64783W        W37043  44.368  13.069  10.703
64784W        W37044   4.996  32.616   0.372
64785W        W37045  25.859  40.684   0.012
64786W        W37046   6.435  22.238   1.712
64787W        W37047  15.085   7.675   2.696
64788W        W37048  19.452   8.280   9.835
64789W        W37049  22.811   9.901  12.881
64790W        W37050   4.947   0.612  13.349
64791W        W37051  34.275   3.884   4.990
64792W        W37052   4.461  17.778   2.891
64793W        W37053  40.933  18.070   3.464
64794W        W37054  43.635  36.913   2.179
64795W        W37055  33.140  17.229  14.210
64796W        W37056   1.381  25.760  14.412
64797W        W37057  28.522  30.372   4.483
64798W        W37058   0.791  23.145   4.222
64799W        W37059  17.391  22.785  10.267
64800W        W37060   3.785  26.621   3.506
64801W        W37061   7.871  17.586  11.248
64802W        W37062  32.352   7.350   0.362
64803W        W37063  28.716  37.364   0.644
64804W        W37064  33.829   4.998   4.294
64805W        W37065  24.640  24.716  13.965
64806W        W37066  24.784  39.343   0.801
64807W        W37067  19.504  32.941   0.868
64808W        W37068  43.838  31.959   4.659
64809W        W37069  23.381  15.781  12.573
64810W        W37070   7.715  11.239  14.428
64811W        W37071  18.564  35.298  12.569
64812W        W37072  17.331  12.592   2.708
64813W        W37073  43.840  13.774  12.513
64814W        W37074   9.380  34.854  13.975
64815W        W37075  26.522  26.496   0.560
64816W        W37076  43.771  22.872   0.441
64817W        W37077   6.786  18.320  14.008
64818W        W37078  32.882  23.515  13.429
64819W        W37079  24.564  26.153   4.912
64820W        W37080  29.327  25.721  13.888
64821W        W37081   9.544  18.756  14.274
64822W        W37082  24.451   3.178  12.865
64823W        W37083  24.461  44.372  12.530
64824W        W37084  23.245  41.502  12.395
64825W        W37085  16.706  17.799   2.324
64826W        W37086  44.770  35.999  12.110
64827W        W37087  24.203  44.865   1.521
64828W        W37088  16.202  33.802  11.143
64829W        W37089  21.514   5.818  14.554
64830W        W37090  21.301  23.039  13.388
64831W        W37091  33.824  28.599   3.142
64832W        W37092  11.354  32.789   3.621
64833W        W37093  21.924  16.195  14.318
64834W        W37094  18.267  24.617   2.333
64835W        W37095   5.070  11.632  10.708
64836W        W37096  11.133  22.160  11.756
64837W        W37097  25.317  38.768  13.257
64838W        W37098  18.972   6.961  11.428
64839W        W37099  25.074   7.862   0.293
64840W        W37100  39.105   3.444  11.564
64841W        W37101  27.597  21.106  11.254
64842W        W37102  32.867   4.401  11.850
64843W        W37103  27.395  17.507   1.277
64844W        W37104  18.602   9.375  11.561
64845W        W37105  11.452  10.741   3.066
64846W        W37106  23.272  32.910   0.255
64847W        W37107  12.359   2.923   0.508
64848W        W37108  40.070  19.516   1.034
64849W        W37109  39.598  23.779  14.313
64850W        W37110  31.946  41.262   2.698
64851W        W37111  30.675  16.239   1.676
64852W        W37112   2.933   7.233  12.840
64853W        W37113  44.387   5.203   1.203
64854W        W37114  29.597  26.654   1.899
64855W        W37115  21.807  39.296  14.312
64856W        W37116  17.567  19.351  10.045
64857W        W37117  31.263  18.213   3.727
64858W        W37118  32.647   5.965   1.929
64859W        W37119  34.526  15.254   2.644
64860W        W37120  14.511   6.629   2.227
64861W        W37121  23.089   6.084   0.438
64862W        W37122  40.604  41.346  10.732
64863W        W37123  25.633  28.206   1.941
64864W        W37124  33.077   2.643   0.440
64865W        W37125  32.762  25.097   1.749
64866W        W37126  39.603   0.768   3.855
64867W        W37127   7.738   4.483   0.793
64868W        W37128   0.450  27.170   3.736
64869W        W37129   6.608   9.129  13.385
64870W        W37130  39.550  34.504  11.954
64871W        W37131  18.583  11.430  14.505
64872W        W37132   1.187  10.306   3.574
64873W        W37133  20.297  36.153   5.195
64874W        W37134  40.035  25.645  13.388
64875W        W37135  24.105  14.802  14.094
64876W        W37136   8.742  11.472  12.164
64877W        W37137  19.589  18.139  12.066
64878W        W37138  27.574  13.807  12.034
64879W        W37139  31.620   8.697   2.170
64880W        W37140  27.509   9.937  11.076
64881W        W37141  37.910  14.816  14.554
64882W        W37142  43.034  39.930   0.164
64883W        W37143  37.561  30.684  10.745
64884W        W37144  42.699   2.399  10.628
64885W        W37145  12.636   5.920  12.655
64886W        W37146  29.749  40.339  10.878
64887W        W37147  25.026  28.248   1.235
64888W        W37148   1.063   4.187  12.555
64889W        W37149  11.333  37.821   2.755
64890W        W37150  31.066   5.347  13.550
64891W        W37151  13.074  36.671  14.010
64892W        W37152  22.199  36.862  12.102
64893W        W37153  19.966  40.289   3.029
64894W        W37154   2.692  30.113  13.017
64895W        W37155  38.311  44.944   0.197
64896W        W37156  39.977  10.680   1.508
64897W        W37157  16.066   4.900   0.064
64898W        W37158   5.504  43.695  14.414
64899W        W37159   2.818  22.987  14.157
64900W        W37160   4.386   1.604   4.782
64901W        W37161   6.974  18.252   0.370
64902W        W37162   0.978   3.826   3.594
64903W        W37163  24.261  31.622   3.670
64904W        W37164   9.159  33.099  13.361
64905W        W37165   3.171  10.381  10.829
64906W        W37166  13.330  23.714  12.094
64907W        W37167  11.857   4.935   4.164
64908W        W37168  15.547  38.557   0.032
64909W        W37169  23.439  25.174   2.923
64910W        W37170  24.051   1.270  13.053
64911W        W37171  31.987   8.309   4.218
64912W        W37172   7.328  29.023  12.957
64913W        W37173  41.660  27.076  12.383
64914W        W37174  34.599  40.859  11.720
64915W        W37175  32.682   8.419   3.175
64916W        W37176  36.340   0.959   0.219
64917W        W37177   6.356  27.220  13.025
64918W        W37178   6.715   4.695   4.604
64919W        W37179  34.434   0.001   3.662
64920W        W37180  42.254  29.859   2.892
64921W        W37181   7.730  19.835   1.350
64922W        W37182  29.463  23.448   4.088
64923W        W37183  27.491  19.894  12.051
64924W        W37184  16.038  21.257   3.133
64925W        W37185  28.469  32.899  14.913
64926W        W37186  39.253  43.432   9.837
64927W        W37187  43.536  44.840   0.975
64928W        W37188  36.611   8.132   5.001
64929W        W37189  19.972  10.712   2.802
64930W        W37190  44.250  34.306  14.448
64931W        W37191  40.484  10.170   1.059
64932W        W37192  33.456  33.144   2.179
64933W        W37193  18.733  29.625   3.739
64934W        W37194  31.069   6.447   5.025
64935W        W37195   1.449  14.700  14.986
64936W        W37196   5.031   8.633   2.742
64937W        W37197  23.299  37.690   0.874
64938W        W37198  42.389  38.878  10.699
64939W        W37199  16.066   6.738   4.613
64940W        W37200   8.598  35.874   1.317
64941W        W37201  29.956  40.028  14.892
64942W        W37202  30.983  44.935   0.575
64943W        W37203  22.220  28.185   0.902
64944W        W37204  33.587  10.769  11.440
64945W        W37205   3.788  25.643  10.992
64946W        W37206  13.756  30.207   0.292
64947W        W37207  42.964  38.328  12.572
64948W        W37208   4.409  12.879   2.723
64949W        W37209  27.375  19.640   5.122
64950W        W37210   2.106  38.664  11.124
64951W        W37211  37.431   9.582  10.926
64952W        W37212  10.538  32.077   1.197
64953W        W37213  10.610  20.761  13.049
64954W        W37214  11.968  17.382   1.224
64955W        W37215  23.677   9.690  12.953
64956W        W37216  31.098  23.305  13.993
64957W        W37217  23.205  10.164   2.247
64958W        W37218  16.644   0.773  13.835
64959W        W37219   4.418  38.929   0.808
64960W        W37220  30.589  23.655  11.736
64961W        W37221   2.352  18.283  14.256
64962W        W37222   8.715  39.808   2.331
64963W        W37223  31.463   7.725  14.216
64964W        W37224   8.260   5.194  14.788
64965W        W37225   7.969  37.446   1.307
64966W        W37226  17.755  35.798   2.768
64967W        W37227  43.008  32.569   2.698
64968W        W37228   3.725  11.282  13.398
64969W        W37229  18.614  11.659   1.243
64970W        W37230   6.668   2.910   3.627
64971W        W37231  15.351  20.087   1.939
64972W        W37232  25.588  32.023  13.886
64973W        W37233  27.901   1.265  14.900
64974W        W37234  34.839  34.292  11.261
64975W        W37235  23.705  44.965  11.697
64976W        W37236  44.044  27.112   3.598
64977W        W37237   5.356  15.627  13.755
64978W        W37238   2.201  28.394   3.748
64979W        W37239   4.268   6.269   4.354
64980W        W37240  41.330   2.053   0.692
64981W        W37241  33.520  24.154  12.372
64982W        W37242   6.976  40.258   1.879
64983W        W37243   9.091  22.720   1.747
64984W        W37244  33.585  33.002   1.692
64985W        W37245  42.717  44.500   5.064
64986W        W37246  25.227   3.402  13.020
64987W        W37247   1.232  37.203  10.940
64988W        W37248  26.339  10.857  10.678
64989W        W37249  26.169  24.245  14.266
64990W        W37250   3.785  38.001  10.754
64991W        W37251  42.248  30.467  11.434
64992W        W37252  23.579  37.823   1.670
64993W        W37253  37.392   7.391  13.405
64994W        W37254  19.386   7.701   1.925
64995W        W37255  35.886  16.772   4.173
64996W        W37256  22.666  32.156  10.623
64997W        W37257  38.591  10.032   2.838
64998W        W37258  37.816   0.041  11.907
64999W        W37259  26.626  25.166   2.742
65000W        W37260  29.901  39.019   1.787
65001W        W37261  37.952  20.045  11.725
65002W        W37262  33.175  15.173  10.707
65003W        W37263   0.044   6.228  13.593
65004W        W37264   5.273  34.320   2.382
65005W        W37265  25.596  12.808  13.308
65006W        W37266  30.905  13.284  10.394
65007W        W37267   9.291  16.154  10.723
65008W        W37268  34.419   4.998  13.101
65009W        W37269  29.694  23.972   4.013
65010W        W37270   4.670  29.553   3.512
65011W        W37271  25.843  32.662  11.613
65012W        W37272  37.563   6.325   3.768
65013W        W37273  25.678  16.082   4.706
65014W        W37274   2.337  12.743   0.193
65015W        W37275  28.988  30.570   4.333
65016W        W37276  26.231  15.215  14.364
65017W        W37277  20.861  24.379  12.927
65018W        W37278  14.738  18.058  10.733
65019W        W37279  17.643  14.776  13.810
65020W        W37280  29.273  31.909  13.862
65021W        W37281  18.702   0.428   2.458
65022W        W37282  22.408  23.105   1.232
65023W        W37283  10.897  25.878   0.749
65024W        W37284  18.071  12.133  13.396
65025W        W37285  37.949  36.376  13.097
65026W        W37286  17.378   2.444  13.744
65027W        W37287  43.623  19.554  11.480
65028W        W37288  13.883  16.865  14.060
65029W        W37289   9.109  30.117  13.462
65030W        W37290  13.098   4.618  14.891
65031W        W37291  15.184  37.061  11.400
65032W        W37292   9.198  43.804   2.451
65033W        W37293   6.611   5.084  10.340
65034W        W37294  44.481  36.483  13.566
65035W        W37295  19.267  23.104   3.735
65036W        W37296  17.654  15.806   0.420
65037W        W37297  37.395   8.945  14.874
65038W        W37298  44.760   4.288  13.819
65039W        W37299  20.211  23.532   3.227
65040W        W37300  24.571  26.040  12.582
65041W        W37301  23.103  25.009   0.257
65042W        W37302  42.373  43.085  11.230
65043W        W37303  10.723  13.706  13.562
65044W        W37304  26.979   5.378  10.953
65045W        W37305   5.138  34.864  13.128
65046W        W37306  42.950  28.670   4.107
65047W        W37307  13.148   7.820   1.286
65048W        W37308  40.469  17.991   3.097
65049W        W37309   1.007  16.746  14.693
65050W        W37310   5.214  18.097  13.932
65051W        W37311   2.294   2.429  13.692
65052W        W37312  26.448   2.308   4.697
65053W        W37313   5.970  26.168   2.482
65054W        W37314  29.679  16.065  12.380
65055W        W37315  11.591  17.081   4.661
65056W        W37316  18.982  13.391   2.352
65057W        W37317   4.858   7.902  12.149
65058W        W37318   0.940  33.231   4.832
65059W        W37319  26.944   5.337   1.939
65060W        W37320  32.710  34.630  12.591
65061W        W37321  28.870  24.794  13.149
65062W        W37322  18.196  24.282   1.228
65063W        W37323  21.997  30.629  11.222
65064W        W37324   0.460  29.507  12.073
65065W        W37325  10.269  40.301   4.661
65066W        W37326   6.665  26.832  12.690
65067W        W37327  40.263  12.240   0.337
65068W        W37328  31.930   2.291   2.325
65069W        W37329  14.583  12.292  13.930
65070W        W37330  28.265  29.405  11.774
65071W        W37331  28.437  32.460   1.461
65072W        W37332  35.307  41.262   0.866
65073W        W37333   3.319   2.351   4.625
65074W        W37334  37.487   6.181   3.285
65075W        W37335   9.135  17.484  13.040
65076W        W37336  31.741  18.055   2.826
65077W        W37337  29.366  20.263  14.912
65078W        W37338  39.503  39.788   3.422
65079W        W37339   9.596  17.653  12.877
65080W        W37340  29.297  12.782  14.002
65081W        W37341  40.387  16.047  11.559
65082W        W37342  26.948  43.790   3.406
65083W        W37343  10.783  40.815  12.977
65084W        W37344  22.525  17.242   3.737
65085W        W37345  34.046   2.168   2.895
65086W        W37346  16.672  40.831   0.301
65087W        W37347  31.460  13.126  12.953
65088W        W37348  17.625  29.438   0.357
65089W        W37349  13.113  22.438  10.680
65090W        W37350  14.541  24.433  12.487
65091W        W37351  26.616  28.357  12.950
65092W        W37352  23.108  26.432   4.662
65093W        W37353  36.953  21.822   1.765
65094W        W37354  25.730  26.974   0.063
65095W        W37355  24.924  40.718  14.498
65096W        W37356  28.676   4.889  10.168
65097W        W37357   3.466   2.883  14.049
65098W        W37358  43.933  21.498  11.106
65099W        W37359  14.199  16.788   1.198
65100W        W37360  13.997   6.277   4.067
65101W        W37361  34.136  13.621   3.305
65102W        W37362   9.193   5.803   4.420
65103W        W37363  39.483  31.953   3.166
65104W        W37364  37.100  43.848   1.395
65105W        W37365  43.404  30.427   2.864
65106W        W37366  36.943  21.114   0.915
65107W        W37367  31.344  39.090  10.249
65108W        W37368  27.053  43.919  11.936
65109W        W37369  38.639  30.096  11.109
65110W        W37370   1.814  19.888  11.299
65111W        W37371   7.114  23.007  11.582
65112W        W37372  13.020  21.706  11.217
65113W        W37373  20.384  33.043  10.537
65114W        W37374   4.753  34.563   4.185
65115W        W37375  41.905  13.158   4.611
65116W        W37376  23.035   4.263   0.154
65117W        W37377   3.710  43.270  12.476
65118W        W37378   8.413  28.050  12.219
65119W        W37379  21.656  14.264   0.833
65120W        W37380  17.796  10.359  11.897
65121W        W37381  36.959  43.566   4.145
65122W        W37382  26.651  23.161  14.198
65123W        W37383  42.772  23.143  11.999
65124W        W37384  13.038  31.030   4.866
65125W        W37385  24.567  19.724  14.812
65126W        W37386  23.210  10.171   0.826
65127W        W37387   7.142  17.418  14.945
65128W        W37388  41.845  41.382   4.539
65129W        W37389  37.141  12.217  10.671
65130W        W37390  26.956  28.482  10.530
65131W        W37391  37.132  16.112   0.479
65132W        W37392  15.343  15.804  11.586
65133W        W37393   2.390  37.317   4.958
65134W        W37394  14.529  44.918   3.131
65135W        W37395   5.082  35.831  14.889
65136W        W37396  30.931   8.315  12.848
65137W        W37397  21.478  16.494  12.678
65138W        W37398  38.721  21.576  12.457
65139W        W37399  28.208   8.557  12.879
65140W        W37400  41.794  35.602  11.558
65141W        W37401   2.776  16.149  14.280
65142W        W37402  11.859  37.833   4.183
65143W        W37403  31.578  21.431   3.208
65144W        W37404   7.661   3.664  11.050
65145W        W37405   4.663  11.192   2.933
65146W        W37406  27.172  37.398   3.664
65147W        W37407  31.372  14.098  12.915
65148W        W37408   0.940  16.255  14.498
65149W        W37409   5.208   3.927  11.865
65150W        W37410   4.196  36.461   1.006
65151W        W37411  34.694  43.006  13.429
65152W        W37412  34.850  10.845  11.112
65153W        W37413  35.788  30.164   1.633
65154W        W37414  14.654   3.901   4.659
65155W        W37415  36.561  16.506  11.627
65156W        W37416   4.212  35.578   4.014
65157W        W37417  28.251   6.842   4.975
65158W        W37418   5.388  37.293  11.177
65159W        W37419  30.217   3.242   0.801
65160W        W37420  43.033  19.282  13.763
65161W        W37421  15.145  20.010  11.582
65162W        W37422  17.060   1.203  14.298
65163W        W37423  37.910  14.155   2.207
65164W        W37424  22.539  23.180  14.821
65165W        W37425  40.057   3.296   2.342
65166W        W37426  29.387  17.246   0.246
65167W        W37427   2.950  20.592  12.207
65168W        W37428   3.921  26.609  11.011
65169W        W37429  13.065  31.475  12.843
65170W        W37430  13.727  27.224  14.036
65171W        W37431  12.696  41.674  14.438
65172W        W37432  22.418  41.886   3.837
65173W        W37433  27.199  24.376  13.613
65174W        W37434  22.711  33.547  14.194
65175W        W37435  15.301  41.841  10.654
65176W        W37436   8.948  27.699   3.160
65177W        W37437  40.795  19.659  14.810
65178W        W37438  38.290  43.701  13.253
65179W        W37439   2.002  43.059  14.939
65180W        W37440  25.597  13.944   2.740
65181W        W37441  14.781  19.617   3.117
65182W        W37442   1.163  21.578  14.844
65183W        W37443  38.226   7.429   4.087
65184W        W37444  27.049  38.295   2.880
65185W        W37445  20.321  29.153  14.251
65186W        W37446  29.807  30.084  12.046
65187W        W37447  37.187  39.257   1.673
65188W        W37448  14.270   3.965  14.843
65189W        W37449   2.990   2.443   1.670
65190W        W37450  27.263  40.271   4.108
65191W        W37451  10.317   3.900  11.056
65192W        W37452  40.396   5.278  14.964
65193W        W37453  22.665  28.678   4.534
65194W        W37454   8.139  40.423  14.259
65195W        W37455  18.588  35.149  11.194
65196W        W37456  42.921   5.717  10.800
65197W        W37457   2.146  43.416  13.506
65198W        W37458  41.148  35.446  13.288
65199W        W37459   1.321  12.069   3.670
65200W        W37460  37.346  22.953  13.379
65201W        W37461  30.241   2.171   1.192
65202W        W37462   5.909  10.763   2.333
65203W        W37463  29.410  14.846  14.541
65204W        W37464  18.569  22.759   4.735
65205W        W37465  25.951  44.228   4.296
65206W        W37466  14.013  40.316   0.351
65207W        W37467  20.604   8.699  12.903
65208W        W37468  13.785   2.286  12.023
65209W        W37469   4.679  36.050  13.140
65210W        W37470  15.713   9.689   1.466
65211W        W37471  28.750  10.557   3.146
65212W        W37472  44.344   2.973  11.166
65213W        W37473  39.345  32.547  10.721
65214W        W37474  23.454  14.066  14.874
65215W        W37475  34.387  25.885  14.088
65216W        W37476   1.000  14.205   4.744
65217W        W37477   6.805  15.214   3.582
65218W        W37478   1.948  41.330   3.014
65219W        W37479   7.796  13.895   3.641
65220W        W37480  29.192  16.749  11.621
65221W        W37481  43.990  34.968   0.940
65222W        W37482  13.174  13.337   3.859
65223W        W37483   1.605  15.841   3.248
65224W        W37484  15.990   1.624   2.767
65225W        W37485  38.812  41.356   0.944
65226W        W37486  28.481  44.508  13.005
65227W        W37487   1.690  21.075   1.399
65228W        W37488  33.930   3.063  12.872
65229W        W37489  23.716  38.906  12.354
65230W        W37490   7.248   9.381   0.182
65231W        W37491   4.281   2.043   4.476
65232W        W37492   0.397  29.969   3.682
65233W        W37493  34.054   2.015  12.970
65234W        W37494  43.416  11.146  11.125
65235W        W37495  14.325  31.523  12.939
65236W        W37496  37.567   7.741  12.409
65237W        W37497  17.867  42.499   1.235
65238W        W37498   5.999  18.150   0.328
65239W        W37499  27.208  20.747   2.283
65240W        W37500  34.136  10.602  12.941
65241W        W37501  29.520  29.419   3.215
65242W        W37502  12.545  12.678  13.562
65243W        W37503   8.327  18.859   4.696
65244W        W37504   9.876  44.099   2.745
65245W        W37505  16.794  11.177  12.083
65246W        W37506  40.756  28.525  12.429
65247W        W37507  32.621   6.344  12.466
65248W        W37508  44.865  24.795  14.280
65249W        W37509  31.362  17.859  13.025
65250W        W37510  12.181  16.225   0.485
65251W        W37511  22.819  14.869  11.147
65252W        W37512   0.392  42.298  12.435
65253W        W37513   2.859  11.868  14.110
65254W        W37514  23.056  21.802   4.587
65255W        W37515  18.245  18.233   0.473
65256W        W37516  32.452  18.738  11.749
65257W        W37517   2.752  21.137  10.950
65258W        W37518  25.136  30.411  13.546
65259W        W37519  31.400   4.370  14.366
65260W        W37520  24.148   5.792   4.389
65261W        W37521   7.670  31.540   1.876
65262W        W37522  20.686  20.156  12.394
65263W        W37523   1.276  36.120   1.350
65264W        W37524  18.177  44.488  14.107
65265W        W37525  25.439  10.939  11.197
65266W        W37526  41.297  41.812  14.285
65267W        W37527  42.885   7.730   3.979
65268W        W37528   9.578  30.356   3.273
65269W        W37529   8.148  21.759  11.686
65270W        W37530   6.977   5.595  10.763
65271W        W37531   2.837  38.940   4.100
65272W        W37532  41.944  34.655   0.277
65273W        W37533  17.101   1.695  14.449
65274W        W37534  27.071  20.109   0.411
65275W        W37535  34.497  37.547   3.345
65276W        W37536  22.608  19.723   1.075
65277W        W37537  17.026   2.722  13.522
65278W        W37538   9.095  38.853  14.356
65279W        W37539   4.020  43.288   3.762
65280W        W37540   5.268   1.838  11.949
65281W        W37541  35.479   0.978  14.884
65282W        W37542  13.931  28.204  10.668
65283W        W37543  24.413  27.220   2.978
65284W        W37544  34.166  23.678   2.375
65285W        W37545   8.760  30.557   0.230
65286W        W37546  14.565  13.165   2.425
65287W        W37547  43.872   7.429   2.778
65288W        W37548  24.506  19.363  11.809
65289W        W37549  43.029  18.715   3.599
65290W        W37550  41.044  44.178   1.616
65291W        W37551   2.084  20.013   2.599
65292W        W37552  36.059   6.699  10.660
65293W        W37553  34.366  44.742  11.998
65294W        W37554  13.348  19.331   3.594
65295W        W37555  22.967   3.034  14.865
65296W        W37556  31.927  37.663   1.399
65297W        W37557  44.500  33.454  14.046
65298W        W37558   4.502  10.609   4.672
65299W        W37559   5.702  42.018   1.651
65300W        W37560  12.710  11.649  13.401
65301W        W37561  40.423  21.323   2.772
65302W        W37562  16.056  28.805   3.818
65303W        W37563  29.128  38.418  12.761
65304W        W37564  44.830  14.765   1.635
65305W        W37565  34.338  44.880  10.909
65306W        W37566  17.971  35.578   0.891
65307W        W37567  11.585   3.922   4.109
65308W        W37568   5.685  42.473   1.962
65309W        W37569  26.005  12.630  13.580
65310W        W37570   0.753  34.107  13.442
65311W        W37571  43.490  10.125  13.106
65312W        W37572   3.674  10.419   2.578
65313W        W37573  10.150  26.529   4.709
65314W        W37574  13.246  36.032  11.933
65315W        W37575   6.878  12.252   0.953
65316W        W37576   1.009  17.791  13.318
65317W        W37577  16.004  30.580  12.376
65318W        W37578  36.113  33.110   3.253
65319W        W37579  18.207  35.742  14.960
65320W        W37580  35.896  12.453   4.716
65321W        W37581  44.218  31.809   3.851
65322W        W37582  24.685  19.317  10.704
65323W        W37583  22.499  22.539  13.552
65324W        W37584  32.627  27.954  11.286
65325W        W37585   7.526  12.516   9.797
65326W        W37586  26.913   2.904  11.134
65327W        W37587  38.828  29.214   5.027
65328W        W37588  32.054  40.651  14.283
65329W        W37589   2.679  43.804   0.276
65330W        W37590  26.495  39.756  10.804
65331W        W37591  16.482  39.983   3.190
65332W        W37592  10.245  37.889   0.262
65333W        W37593   7.481   8.655  12.367
65334W        W37594  25.734  40.155  11.096
65335W        W37595   0.835  39.016  13.225
65336W        W37596  14.670  20.097  12.578
65337W        W37597  29.095  11.621   1.201
65338W        W37598  16.300  32.130   4.281
65339W        W37599  38.433  10.107  12.849
65340W        W37600  37.903  30.628  11.655
65341W        W37601  21.813  15.704  14.494
65342W        W37602  12.264  27.245   0.848
65343W        W37603  23.072  26.973  11.810
65344W        W37604   6.373  26.896   2.671
65345W        W37605  16.003  20.799   4.229
65346W        W37606  32.538  42.019  12.994
65347W        W37607  27.991  38.125  13.042
65348W        W37608  40.660   3.025  10.992
65349W        W37609  21.701  26.903  14.918
65350W        W37610  11.393  34.737  13.891
65351W        W37611  10.846  34.560  13.811
65352W        W37612  14.688  29.758   3.789
65353W        W37613  18.653  11.439  13.076
65354W        W37614  32.138  20.210  13.948
65355W        W37615  30.197  36.406   1.517
65356W        W37616  39.939  27.895  14.937
65357W        W37617  11.133  23.124  14.865
65358W        W37618  27.628   2.156   0.056
65359W        W37619  35.517  43.455  11.834
65360W        W37620  29.185   5.892  13.321
65361W        W37621  34.085  37.718   3.886
65362W        W37622  18.635  38.290   1.232
65363W        W37623  28.311  34.241   4.357
65364W        W37624  31.979  32.812   3.794
65365W        W37625   1.102  28.537  13.341
65366W        W37626  24.905   2.045   0.511
65367W        W37627  36.834  44.523   3.691
65368W        W37628  22.672  33.168   2.610
65369W        W37629   6.736  43.370   1.283
65370W        W37630   9.999  37.986  14.809
65371W        W37631  17.183  43.393  10.382
65372W        W37632  34.896   1.300  11.527
65373W        W37633  43.346  33.235  11.540
65374W        W37634  12.266  18.092   3.579
65375W        W37635  14.330  27.119   4.893
65376W        W37636  15.531  11.980   3.615
65377W        W37637   4.367  17.423  11.473
65378W        W37638  43.790  29.536   3.252
65379W        W37639   6.566   7.280  10.787
65380W        W37640  44.176  15.865  10.092
65381W        W37641   7.955  11.779  12.014
65382W        W37642  21.697   5.636   3.251
65383W        W37643  13.849  14.060  10.201
65384W        W37644  13.430  20.013  12.234
65385W        W37645  43.289  24.642   2.222
65386W        W37646  43.688  44.397   1.216
65387W        W37647  13.643  17.096   5.065
65388W        W37648   2.736  41.277   3.686
65389W        W37649  15.671  34.509   0.412
65390W        W37650  11.298  10.839   3.539
65391W        W37651  36.879   2.360   1.330
65392W        W37652  36.461  23.503   4.565
65393W        W37653  10.331  38.377  13.134
65394W        W37654  14.582   0.684  13.518
65395W        W37655  16.609  33.803   1.438
65396W        W37656  41.460  17.266   3.106
65397W        W37657  19.217  39.124   4.659
65398W        W37658  13.605   4.786  11.916
65399W        W37659  40.850   8.028  13.324
65400W        W37660  28.489  16.115  10.726
65401W        W37661  32.861  28.026   2.685
65402W        W37662   8.428   5.587   0.073
65403W        W37663  13.671  40.346   3.658
65404W        W37664  41.749  38.002   2.672
65405W        W37665   7.258  18.568  14.299
65406W        W37666  42.417  22.175   1.366
65407W        W37667  37.761  26.256   5.054
65408W        W37668   6.743  18.160  11.103
65409W        W37669  32.024  37.376  13.973
65410W        W37670  27.661  28.758  12.441
65411W        W37671  23.486  44.327  12.286
65412W        W37672  40.347  26.851   4.594
65413W        W37673  20.303  26.052  12.900
65414W        W37674   5.303  12.463  12.259
65415W        W37675  36.438  34.848  11.150
65416W        W37676  33.997  37.802  12.950
65417W        W37677  19.767  22.465  14.048
65418W        W37678  36.584  41.342   1.417
65419W        W37679   8.787  26.978   3.705
65420W        W37680  12.697  36.599   4.568
65421W        W37681   9.387   6.448   3.884
65422W        W37682  31.552  22.078  14.233
65423W        W37683  21.749  19.621  14.550
65424W        W37684  23.980  30.877   4.051
65425W        W37685  34.943  27.210   3.188
65426W        W37686  42.739  15.707  13.119
65427W        W37687  27.503   5.677  13.902
65428W        W37688  16.356  34.594  12.386
65429W        W37689  24.225   3.750   1.417
65430W        W37690  17.895  43.861  14.909
65431W        W37691  33.908  16.990   4.893
65432W        W37692  16.108   2.610  12.085
65433W        W37693   8.710  23.781  11.889
65434W        W37694  25.531   4.608  14.520
65435W        W37695   8.314  36.755  12.007
65436W        W37696  34.288  11.761  14.988
65437W        W37697  19.507  31.378   0.244
65438W        W37698  37.867   5.302   2.674
65439W        W37699   1.693  21.132   2.073
65440W        W37700   1.295  14.715   2.777
65441W        W37701  37.996  14.194  10.635
65442W        W37702  25.425  10.129   1.832
65443W        W37703  43.736  22.168  14.844
65444W        W37704  24.697  17.968  11.922
65445W        W37705  19.655  42.603   0.495
65446W        W37706  28.694  22.526   2.683
65447W        W37707  35.267  11.239   0.372
65448W        W37708  12.191  17.688   3.922
65449W        W37709   9.123  24.962  12.420
65450W        W37710  23.108  17.262  11.657
65451W        W37711  22.440  36.040   3.545
65452W        W37712  34.691  19.722   1.917
65453W        W37713  16.303   8.354  12.467
65454W        W37714  26.201  26.995  14.853
65455W        W37715  27.687   9.700  13.295
65456W        W37716  26.279  36.488  11.911
65457W        W37717  35.682   1.048  12.076
65458W        W37718  33.192  25.509  10.567
65459W        W37719  13.203  39.452  10.972
65460W        W37720  14.341   7.957  12.906
65461W        W37721  12.463  38.464   3.742
65462W        W37722  42.546  22.302   4.401
65463W        W37723  15.986  27.095   1.919
65464W        W37724  29.100  35.093   1.805
65465W        W37725  41.851   7.602   4.456
65466W        W37726   5.006  18.720  11.694
65467W        W37727  41.655  35.667  14.383
65468W        W37728  20.162   8.014   3.630
65469W        W37729   4.184  33.502   1.663
65470W        W37730  38.177  29.593   3.545
65471W        W37731   9.598  14.728  10.624
65472W        W37732  28.360  27.032   1.053
65473W        W37733  19.803  17.484   0.836
65474W        W37734  10.935  37.048  11.448
65475W        W37735  37.958  24.021  13.979
65476W        W37736  39.240   4.214   3.572
65477W        W37737  11.211  37.689   4.581
65478W        W37738  12.211  14.298   4.589
65479W        W37739  37.452  13.841  11.654
65480W        W37740   7.636  29.256  11.305
65481W        W37741  44.165  22.103   3.759
65482W        W37742   5.294  18.667   1.683
65483W        W37743   7.347  26.397  13.806
65484W        W37744  32.956  26.257  10.725
65485W        W37745  18.313  27.652  10.381
65486W        W37746  22.427  42.392   2.996
65487W        W37747  44.744  34.483  10.483
65488W        W37748  32.972  11.812  12.579
65489W        W37749  44.534   3.723   0.138
65490W        W37750  33.833  20.269   0.485
65491W        W37751  35.184  31.972  10.709
65492W        W37752  40.379  34.213   4.312
65493W        W37753   2.215  29.026  11.134
65494W        W37754  23.723  12.853  12.453
65495W        W37755  32.207   9.686  12.962
65496W        W37756  19.205  42.541  13.859
65497W        W37757  27.117  16.839  14.752
65498W        W37758  20.571  13.550  14.219
65499W        W37759  36.457  10.389   3.169
65500W        W37760  39.515  38.408   3.975
65501W        W37761  39.591  39.895   0.359
65502W        W37762  31.209  44.939   1.931
65503W        W37763  40.561  16.797  13.497
65504W        W37764  41.690  28.175   3.673
65505W        W37765   0.240  15.718   9.945
65506W        W37766   9.844  33.826  11.068
65507W        W37767  34.919  11.318  13.502
65508W        W37768  13.560  28.270  12.037
65509W        W37769  40.078  19.254   4.588
65510W        W37770  42.412  23.700  13.195
65511W        W37771  28.295  36.872  12.942
65512W        W37772  12.821  27.500   9.763
65513W        W37773  11.256  34.093   0.715
65514W        W37774  18.650  17.773   4.571
65515W        W37775   7.163   6.614   3.831
65516W        W37776  18.099   4.302  14.291
65517W        W37777  31.374  29.117  11.600
65518W        W37778  13.845  40.879   3.442
65519W        W37779  16.620  18.478   0.028
65520W        W37780  35.575  24.184   3.637
65521W        W37781  18.619  31.294   4.520
65522W        W37782  12.071  41.327  13.993
65523W        W37783  17.645  20.702   1.778
65524W        W37784   6.812   3.558   4.656
65525W        W37785  20.443  28.990  12.946
65526W        W37786  11.385   3.808   0.430
65527W        W37787  32.879  37.885   3.720
65528W        W37788  11.450  13.615   3.429
65529W        W37789  33.166  37.967   0.246
65530W        W37790  29.840  14.309   4.639
65531W        W37791  18.610  41.382   1.497
65532W        W37792  35.826  43.958  14.966
65533W        W37793  24.979  16.711   3.138
65534W        W37794   0.920   0.734  13.147
65535W        W37795   9.666  16.278  14.936
65536W        W37796   8.770  14.851  13.521
65537W        W37797  24.570  40.483  11.436
65538W        W37798  40.570  31.902  11.591
65539W        W37799  39.399  34.571   2.772
65540W        W37800   5.481  24.475   1.365
65541W        W37801   5.614  24.744  14.108
65542W        W37802   7.672  35.799   2.300
65543W        W37803  23.584  25.513  10.946
65544W        W37804  20.514  24.509   3.779
65545W        W37805  25.998  41.868   2.810
65546W        W37806  26.470  34.848   2.325
65547W        W37807   9.544  26.891  10.812
65548W        W37808  27.395   5.532  11.232
65549W        W37809  16.833  38.125   3.705
65550W        W37810  32.709  44.964   1.736
65551W        W37811   9.675  19.236  14.076
65552W        W37812  37.915   3.239  13.392
65553W        W37813  10.306  40.508   1.982
65554W        W37814   3.399  38.794  12.658
65555W        W37815  12.324  19.401   2.113
65556W        W37816  12.410  36.456   3.323
65557W        W37817   3.242  28.175   2.867
65558W        W37818  31.930  36.397   0.009
65559W        W37819   4.700   3.227  13.439
65560W        W37820  40.591  18.965  13.132
65561W        W37821   8.825  31.710   1.757
65562W        W37822  35.863   8.237   1.309
65563W        W37823  39.563  21.752  14.324
65564W        W37824  27.523  43.760   2.863
65565W        W37825  25.425  27.910  12.967
65566W        W37826  19.102   1.835  12.425
65567W        W37827  40.435  33.365  13.080
65568W        W37828  25.944  41.417  10.588
65569W        W37829  39.879  36.507   1.870
65570W        W37830  10.088  35.164  12.303
65571W        W37831  12.944  15.619   5.589
65572W        W37832  27.624   4.891  11.523
65573W        W37833   7.280  24.244  11.213
65574W        W37834  36.048  23.899   0.551
65575W        W37835   9.664   7.883   0.995
65576W        W37836  26.619  32.839   2.449
65577W        W37837  22.004   2.726   2.305
65578W        W37838  29.105  36.740   1.268
65579W        W37839  40.031  35.051   3.820
65580W        W37840  20.988  42.305  12.753
65581W        W37841  33.478   8.450  13.306
65582W        W37842  39.128  32.073  11.448
65583W        W37843  21.927   8.070   3.674
65584W        W37844  13.335   5.946  13.279
65585W        W37845  11.557   1.873  13.579
65586W        W37846  37.803  25.192  13.113
65587W        W37847  22.170  36.837  10.657
65588W        W37848  14.588  14.619   0.830
65589W        W37849  18.361  44.953   4.950
65590W        W37850   2.902  42.784  11.559
65591W        W37851   4.281  13.316   2.421
65592W        W37852  32.909  16.165   4.063
65593W        W37853  40.446  39.068  10.252
65594W        W37854   5.911  34.442  10.662
65595W        W37855   9.704  31.179  11.265
65596W        W37856  22.146  11.658  12.950
65597W        W37857  40.429   0.746   1.050
65598W        W37858  16.612  32.056   2.826
65599W        W37859   4.336   8.203   0.874
65600W        W37860  25.275  20.926  12.855
65601W        W37861  29.834  43.762   3.210
65602W        W37862   0.726  20.291   4.544
65603W        W37863   6.575  28.176  12.468
65604W        W37864   0.326   5.195  14.207
65605W        W37865  43.375  28.543   2.187
65606W        W37866  31.150  20.374   4.612
65607W        W37867   1.326   5.166   2.930
65608W        W37868  29.584  19.678  11.574
65609W        W37869  25.668  37.743  11.476
65610W        W37870  36.258   8.533   0.867
65611W        W37871  27.091  30.786  12.029
65612W        W37872  35.843  15.285   2.036
65613W        W37873   8.427  40.069   3.187
65614W        W37874  13.573   9.293  13.205
65615W        W37875  28.530   7.513  12.393
65616W        W37876  20.878   9.340  14.341
65617W        W37877   7.817  28.253   5.066
65618W        W37878  36.769   2.839  12.946
65619W        W37879   3.399  43.549   1.831
65620W        W37880  14.337  34.945  13.692
65621W        W37881  10.715  22.057  14.947
65622W        W37882   7.219  38.944   4.070
65623W        W37883  27.129  25.284  14.077
65624W        W37884  14.553  38.286   1.975
65625W        W37885   6.461  44.368   4.539
65626W        W37886  20.120  30.011   4.358
65627W        W37887  16.905   7.413  11.169
65628W        W37888   0.334  41.966   1.307
65629W        W37889  23.307  40.044   4.926
65630W        W37890  26.629  26.254  11.528
65631W        W37891  19.672   3.452   9.960
65632W        W37892  34.456  17.584  11.171
65633W        W37893  22.936   4.632   1.769
65634W        W37894  43.891  29.237   2.439
65635W        W37895  17.626   8.606  13.583
65636W        W37896  30.515  14.896  11.160
65637W        W37897  19.117  41.488   1.361
65638W        W37898  35.646   4.950  11.484
65639W        W37899  29.949  43.133  11.601
65640W        W37900  38.627   8.785  13.450
65641W        W37901  39.094   0.121   2.416
65642W        W37902  43.960  12.163  14.375
65643W        W37903  32.871  15.302  12.562
65644W        W37904  35.831  40.995  11.519
65645W        W37905   0.030  11.222  14.365
65646W        W37906  44.573  12.294   4.557
65647W        W37907  21.043   7.314  10.247
65648W        W37908   0.273  20.197   2.670
65649W        W37909  10.157  37.913  13.911
65650W        W37910  43.313   1.477   1.931
65651W        W37911  29.066  21.315   1.966
65652W        W37912  11.641  30.197   3.747
65653W        W37913  29.576   6.977  10.324
65654W        W37914   5.144   3.447  12.597
65655W        W37915  43.167  34.263   4.240
65656W        W37916  22.429  28.374   3.257
65657W        W37917  34.990   7.448  14.900
65658W        W37918  26.588  27.273   4.521
65659W        W37919  44.372  34.057  12.711
65660W        W37920   2.398  23.968   0.488
65661W        W37921  21.303   0.943  14.837
65662W        W37922  31.074  33.874   1.332
65663W        W37923   4.854   7.910   4.305
65664W        W37924  17.091  12.635  11.642
65665W        W37925  30.045   5.995  12.571
65666W        W37926  18.309  21.415  13.473
65667W        W37927  33.383   1.869  12.042
65668W        W37928  25.215  34.131  13.959
65669W        W37929  37.968   6.206   1.903
65670W        W37930  39.668  34.288  11.508
65671W        W37931  11.389  32.440  12.655
65672W        W37932  11.368   0.456  13.499
65673W        W37933  35.966  28.070  13.047
65674W        W37934   7.663  12.730  12.147
65675W        W37935  23.204  34.485  10.685
65676W        W37936  27.600  42.911   4.373
65677W        W37937  22.111  43.784   0.081
65678W        W37938  14.396  10.169   2.868
65679W        W37939  32.105  18.686  14.522
65680W        W37940  30.070  31.618   2.171
65681W        W37941  22.598  11.798  10.934
65682W        W37942  38.596  33.132   3.272
65683W        W37943  36.610   9.451   0.387
65684W        W37944  31.471   3.479  14.496
65685W        W37945  29.678  22.177  10.598
65686W        W37946   5.190   3.841  14.099
65687W        W37947  39.365  44.436   2.179
65688W        W37948   7.479  39.535   2.953
65689W        W37949  18.755  18.443  13.662
65690W        W37950  25.246  13.156  13.509
65691W        W37951  24.132  38.076   3.358
65692W        W37952  10.054  17.766  13.092
65693W        W37953  37.905  32.767  13.841
65694W        W37954  29.506  16.516   3.216
65695W        W37955  24.324  43.915  12.988
65696W        W37956   6.160   8.702  10.443
65697W        W37957  17.161  10.415  13.553
65698W        W37958  38.968   7.368  12.487
65699W        W37959   5.424  15.138   1.368
65700W        W37960  43.952  25.399  12.789
65701W        W37961  21.199  23.896   0.808
65702W        W37962   7.151   8.249   0.117
65703W        W37963  35.420  15.104   1.788
65704W        W37964  41.193  25.039  13.550
65705W        W37965   1.186  44.798  12.651
65706W        W37966  17.337  35.658  10.810
65707W        W37967  37.442  10.591  13.107
65708W        W37968  14.577  22.851  11.160
65709W        W37969  42.355   7.657  13.439
65710W        W37970  30.559  12.131  12.650
65711W        W37971  11.353   4.196  14.380
65712W        W37972   2.142  16.577   2.310
65713W        W37973  15.850   1.760  11.929
65714W        W37974  34.018   5.441   4.469
65715W        W37975   1.830  25.990   3.625
65716W        W37976  23.617  11.823   1.732
65717W        W37977   6.257  32.118   2.287
65718W        W37978  37.396  36.025  11.068
65719W        W37979  38.798  10.711  12.415
65720W        W37980  43.323  21.856  14.788
65721W        W37981  41.110   7.408  12.018
65722W        W37982   8.222  11.094  14.923
65723W        W37983   6.799   0.535  13.866
65724W        W37984  12.788  44.720  12.882
65725W        W37985   5.508  42.359   0.356
65726W        W37986  40.335  38.819  12.791
65727W        W37987  12.386  27.139  13.081
65728W        W37988  26.942  13.912  11.291
65729W        W37989  44.737  16.157  11.555
65730W        W37990   1.698  26.747   1.253
65731W        W37991  16.342   8.181  14.976
65732W        W37992   0.247  11.148   2.802
65733W        W37993  32.483  11.217  13.077
65734W        W37994  44.417  14.610   4.861
65735W        W37995  15.033  17.509   0.500
65736W        W37996  15.167  42.964   3.983
65737W        W37997   2.771   6.314  12.667
65738W        W37998   5.036   0.813  10.649
65739W        W37999  10.247  37.554  11.445
65740W        W38000  27.425   3.358   0.834
65741W        W38001  33.662   9.839  11.622
65742W        W38002   2.446  40.986   1.141
65743W        W38003   5.282  37.309  10.155
65744W        W38004  37.518  41.736   2.205
65745W        W38005  18.949  10.772   2.818
65746W        W38006   2.040  44.409  12.418
65747W        W38007  14.454  27.106   0.288
65748W        W38008  17.099  27.608   2.783
65749W        W38009  11.171  29.968   1.697
65750W        W38010   8.681  35.045   4.060
65751W        W38011   2.514  24.107  12.087
65752W        W38012  19.088   5.828   3.195
65753W        W38013  35.041   5.373  13.807
65754W        W38014   3.317   9.904  10.676
65755W        W38015  13.536  43.398  13.891
65756W        W38016  20.755   9.133  14.783
65757W        W38017  30.428  10.306   0.505
65758W        W38018  28.954  12.616   3.380
65759W        W38019  10.270   8.196   3.294
65760W        W38020  44.362  32.680  13.621
65761W        W38021  38.336   3.675  11.471
65762W        W38022  12.186   7.311  10.404
65763W        W38023  10.947   5.936   0.304
65764W        W38024  31.716   6.197  10.700
65765W        W38025  21.581  22.713   2.723
65766W        W38026  20.770   9.068   2.148
65767W        W38027  24.177  27.909   1.323
65768W        W38028  36.653  27.269  11.030
65769W        W38029  29.411  21.050   2.268
65770W        W38030  13.319  14.600  12.618
65771W        W38031  19.264  14.530  11.981
65772W        W38032  17.082  19.041  11.196
65773W        W38033  34.513  22.122  10.769
65774W        W38034  24.610  43.255   2.860
65775W        W38035  30.381  31.434   1.283
65776W        W38036   2.670  18.635   4.129
65777W        W38037  22.186  42.466   2.424
65778W        W38038  27.196  32.329  14.034
65779W        W38039  30.424  27.149   0.267
65780W        W38040  43.735  10.618  14.506
65781W        W38041  21.662  44.996   1.438
65782W        W38042  21.428  18.269  12.517
65783W        W38043  40.234   0.691   3.006
65784W        W38044  30.488  30.137  14.815
65785W        W38045   9.588  25.266  12.417
65786W        W38046  17.230  12.505  10.273
65787W        W38047  14.263  29.578  11.668
65788W        W38048  33.033  27.233   0.192
65789W        W38049  15.403  31.454   0.681
65790W        W38050  15.367  16.360  12.622
65791W        W38051  31.837  22.629   3.681
65792W        W38052  17.223  15.816   3.791
65793W        W38053   8.911  19.323   1.195
65794W        W38054  29.951  44.795   2.208
65795W        W38055  15.864  10.876  14.952
65796W        W38056  21.781  24.431  13.064
65797W        W38057  41.080   9.223   1.401
65798W        W38058  29.415  43.879   2.271
65799W        W38059  15.565  18.289   0.955
65800W        W38060  18.879  25.954  11.264
65801W        W38061  21.599  23.659   2.725
65802W        W38062  14.875  18.171  11.911
65803W        W38063  37.239  13.652   1.964
65804W        W38064   3.741   4.007   1.825
65805W        W38065  20.721  25.924   0.300
65806W        W38066  34.405   2.914  13.013
65807W        W38067  18.147  11.920   1.244
65808W        W38068   8.189  26.915  10.724
65809W        W38069  39.776  19.837   1.314
65810W        W38070   0.471  14.787  14.899
65811W        W38071   1.682  44.993  14.604
65812W        W38072  18.184  42.472  11.383
65813W        W38073  27.502  34.738  10.592
65814W        W38074  41.034  37.541  10.638
65815W        W38075  25.278  32.678  11.871
65816W        W38076  34.402  14.728  11.969
65817W        W38077   4.178  11.633  12.516
65818W        W38078   6.223  37.468   2.601
65819W        W38079  29.537   9.209   2.784
65820W        W38080   7.300  12.442   4.061
65821W        W38081  35.487  13.655  11.914
65822W        W38082  35.063  29.633   1.731
65823W        W38083  42.348   3.092   1.657
65824W        W38084  29.348  42.686  11.112
65825W        W38085  10.852  26.009  11.492
65826W        W38086   0.277  41.431  12.431
65827W        W38087  43.977   2.969   4.091
65828W        W38088  10.580   5.205   2.416
65829W        W38089  21.705  16.298   3.559
65830W        W38090   3.756   7.415  13.872
65831W        W38091  37.400   0.309  12.845
65832W        W38092  38.380  19.984   1.384
65833W        W38093  13.894  44.456  10.531
65834W        W38094  11.179  33.600  11.904
65835W        W38095  41.369  38.601   4.839
65836W        W38096   5.882  30.147  13.036
65837W        W38097  32.506  36.428  11.493
65838W        W38098  16.074  31.412  14.907
65839W        W38099  42.529   3.164   0.766
65840W        W38100   2.004  18.530  13.940
65841W        W38101   2.464  20.186   0.328
65842W        W38102  17.828  40.327   4.707
65843W        W38103   0.025  36.211   3.121
65844W        W38104  37.772   5.783   0.542
65845W        W38105  22.513  13.458  12.013
65846W        W38106  27.980  32.423   3.274
65847W        W38107  30.016  11.213  13.973
65848W        W38108  22.019  42.832  11.564
65849W        W38109  23.526  25.968   5.067
65850W        W38110  28.642  10.120  12.058
65851W        W38111  19.262  35.931  14.875
65852W        W38112  11.612  28.982  11.266
65853W        W38113   7.462  35.489  14.917
65854W        W38114  28.028  43.854  12.956
65855W        W38115  41.963   3.796  10.913
65856W        W38116  30.425   9.182   3.347
65857W        W38117  14.670  21.450   0.273
65858W        W38118  20.704  12.844   0.924
65859W        W38119  26.027  11.895  12.868
65860W        W38120  29.812   7.894   2.308
65861W        W38121  10.692  28.513   2.574
65862W        W38122   8.738  38.783  13.950
65863W        W38123  32.298   0.017  14.948
65864W        W38124  44.681  19.191   2.214
65865W        W38125  30.003  15.266   4.275
65866W        W38126  18.685  14.203  12.519
65867W        W38127  18.215  27.991  14.503
65868W        W38128   9.856  10.544  13.521
65869W        W38129   8.243  35.650   4.236
65870W        W38130  25.576  24.171   4.859
65871W        W38131  14.496   6.906  14.450
65872W        W38132  10.407  32.138  14.960
65873W        W38133  30.910  33.602  12.081
65874W        W38134   7.965   9.804   4.585
65875W        W38135  33.939   1.187   3.141
65876W        W38136  38.241  31.966   2.733
65877W        W38137   3.572   0.790   3.998
65878W        W38138  30.678  37.100   3.086
65879W        W38139  17.885  12.134  12.457
65880W        W38140  15.937  24.682  12.551
65881W        W38141  10.336  30.923   4.142
65882W        W38142   2.324  12.499  14.363
65883W        W38143  32.368  41.846  14.766
65884W        W38144  12.345  43.909   3.644
65885W        W38145  11.839  39.985  10.765
65886W        W38146  24.553  18.636  12.482
65887W        W38147  14.783  28.666   0.810
65888W        W38148  25.016  44.665   1.857
65889W        W38149   5.746  42.811   4.366
65890W        W38150  13.170  38.338  10.608
65891W        W38151  18.647  11.639  10.719
65892W        W38152  18.701  12.431   0.164
65893W        W38153  42.847  11.707   0.345
65894W        W38154  17.689  31.007  11.660
65895W        W38155  29.908  31.092   1.434
65896W        W38156   9.134   5.776  13.643
65897W        W38157  33.703  13.448  12.460
65898W        W38158  37.079   8.187   0.911
65899W        W38159  40.774   8.891  12.871
65900W        W38160  25.032  21.236   0.427
65901W        W38161  28.961  22.602  11.023
65902W        W38162  20.630  11.466  11.222
65903W        W38163  36.496  19.832   2.879
65904W        W38164  38.715   7.136  12.888
65905W        W38165  30.059  37.863  11.615
65906W        W38166  12.220  34.620   4.617
65907W        W38167  18.828  21.724   4.141
65908W        W38168  11.072  17.842  13.953
65909W        W38169  24.493   3.785  13.519
65910W        W38170  42.596   9.365  14.861
65911W        W38171  14.582   4.004  13.886
65912W        W38172  11.588  24.130   2.150
65913W        W38173   3.391  16.616  12.925
65914W        W38174  33.681  42.551   0.697
65915W        W38175  38.647  43.936   2.712
65916W        W38176  39.871   4.218   0.456
65917W        W38177  32.430  40.436  11.497
65918W        W38178   3.064  22.441   3.696
65919W        W38179  25.494  36.650   1.909
65920W        W38180  14.251   5.976  13.471
65921W        W38181   3.839  22.957  11.567
65922W        W38182  23.243  28.698   5.190
65923W        W38183  22.816  36.823   0.958
65924W        W38184  23.634   3.247   3.172
65925W        W38185  31.184  13.374   2.429
65926W        W38186  22.651  11.990  10.067
65927W        W38187  18.232  10.281   1.897
65928W        W38188  16.665  40.696  10.636
65929W        W38189  11.731  15.010   4.658
65930W        W38190  11.268  10.033   0.238
65931W        W38191   7.099   3.191  13.760
65932W        W38192  23.736  31.074   0.982
65933W        W38193  37.889  23.294   4.553
65934W        W38194  31.403  24.629  11.990
65935W        W38195   7.253  20.050   4.227
65936W        W38196  30.955  20.339   3.703
65937W        W38197  29.073  10.147  11.560
65938W        W38198  30.940  35.390  11.170
65939W        W38199  38.997  13.061   1.931
65940W        W38200  13.242  26.091   1.490
65941W        W38201  17.452   8.350   1.327
65942W        W38202  16.425  40.448  13.391
65943W        W38203  28.530  21.901  14.953
65944W        W38204  42.676  30.635  11.218
65945W        W38205   4.880  19.832  13.330
65946W        W38206  19.432   3.261  13.953
65947W        W38207  26.957  12.549  14.531
65948W        W38208   8.322  13.872   1.197
65949W        W38209  35.093   8.747  13.356
65950W        W38210  14.574  29.494   1.892
65951W        W38211   5.188   2.925  13.291
65952W        W38212  25.921  34.334  12.928
65953W        W38213   4.824   9.290  13.817
65954W        W38214  43.489  28.203   0.394
65955W        W38215  11.334  33.603   0.445
65956W        W38216   7.775  24.383  11.033
65957W        W38217  38.757  16.247   2.326
65958W        W38218  15.141   0.806   4.611
65959W        W38219  13.652  13.116  14.388
65960W        W38220  28.235   4.928  13.855
65961W        W38221   4.111  25.629   2.677
65962W        W38222   7.691  31.130   0.807
65963W        W38223  36.049  21.625   1.279
65964W        W38224   7.139  26.461   3.402
65965W        W38225  23.302  16.850   1.514
65966W        W38226   9.277  24.536  14.998
65967W        W38227  14.770  32.546  14.701
65968W        W38228  42.999  10.011  12.536
65969W        W38229   7.467  17.147   1.400
65970W        W38230   9.285  25.345   3.140
65971W        W38231  24.104  30.269  11.413
65972W        W38232  19.332  23.503  12.645
65973W        W38233  16.463  30.643   4.943
65974W        W38234  30.207   2.983  13.468
65975W        W38235   6.458  19.650  14.991
65976W        W38236  28.660  12.298  11.554
65977W        W38237  38.522  23.234  13.760
65978W        W38238   4.151  25.062  14.932
65979W        W38239  25.316   6.260  11.566
65980W        W38240  21.177  44.710   2.707
65981W        W38241  22.435  11.756  12.323
65982W        W38242  44.716  39.405   1.772
65983W        W38243   8.608  43.309   3.214
65984W        W38244  26.293  20.802   2.631
65985W        W38245  10.945  22.998  14.393
65986W        W38246   9.745  16.062   0.410
65987W        W38247  15.026  16.794  13.044
65988W        W38248  28.826   8.810  11.513
65989W        W38249   4.351  35.724   1.710
65990W        W38250   0.494  43.448   0.355
65991W        W38251  20.084  27.754   0.750
65992W        W38252  34.285   0.565   0.897
65993W        W38253  42.727  18.452  13.210
65994W        W38254   3.287  10.654  12.392
65995W        W38255  31.248  25.543   2.831
65996W        W38256  43.921  23.668   4.835
65997W        W38257   3.426   4.426  14.920
65998W        W38258   0.532  36.033   4.997
65999W        W38259  31.434  41.477  14.360
66000W        W38260  19.292  14.295   0.621
66001W        W38261  37.899  17.166  13.166
66002W        W38262  24.266  28.554  10.691
66003W        W38263   8.617  44.929   3.669
66004W        W38264  11.833  24.750  13.177
66005W        W38265   0.741  39.481  14.539
66006W        W38266   1.190  26.600  14.403
66007W        W38267  42.328   8.866   4.302
66008W        W38268  11.294  37.020  13.502
66009W        W38269  13.179  22.784   0.927
66010W        W38270  22.897  40.028  14.996
66011W        W38271  14.558  32.896  14.376
66012W        W38272  13.588   8.663  11.371
66013W        W38273  32.380  23.957  13.971
66014W        W38274  44.595  25.278  11.057
66015W        W38275  42.546  31.984   0.290
66016W        W38276   3.842  24.257  13.853
66017W        W38277  16.590   8.455  12.890
66018W        W38278  39.863  14.661  12.432
66019W        W38279  22.422  35.593   2.004
66020W        W38280  12.763  32.888  13.447
66021W        W38281  41.024  37.931  13.949
66022W        W38282  28.154  39.064  10.516
66023W        W38283  14.778  43.295  13.913
66024W        W38284  35.541  37.826   2.909
66025W        W38285  19.686  15.634   2.308
66026W        W38286  27.037  27.145   1.320
66027W        W38287  42.890   1.449  12.160
66028W        W38288  43.834   9.093   0.724
66029W        W38289  10.064  44.274  12.855
66030W        W38290  17.728  31.226  11.086
66031W        W38291  25.240  29.594   3.682
66032W        W38292  23.166  35.992   1.461
66033W        W38293   8.368  35.652  13.037
66034W        W38294   5.900  24.111  12.809
66035W        W38295  18.746   3.981   1.824
66036W        W38296  33.841   2.185   4.767
66037W        W38297  33.864  27.657   0.171
66038W        W38298  43.366  38.969   4.526
66039W        W38299  23.471  10.453   1.195
66040W        W38300  24.114  35.906   3.284
66041W        W38301  28.337  30.630  13.850
66042W        W38302  19.714  20.296  12.492
66043W        W38303  21.089  41.422  14.048
66044W        W38304  28.872  14.699  10.469
66045W        W38305  19.167  31.386  12.427
66046W        W38306  10.106  38.027   3.287
66047W        W38307  23.981   6.890   0.381
66048W        W38308  38.816  38.864   2.912
66049W        W38309   7.672  11.047  12.868
66050W        W38310   0.753  40.920   4.799
66051W        W38311  39.759  22.082  11.692
66052W        W38312  17.308  10.692  11.384
66053W        W38313  35.149   5.727  14.795
66054W        W38314  43.528  31.934  11.201
66055W        W38315  36.033  44.802  14.405
66056W        W38316  42.316   4.626   0.782
66057W        W38317  22.202   7.420   4.065
66058W        W38318  44.937  15.292  11.422
66059W        W38319   6.482   6.821   2.577
66060W        W38320  40.530  34.035   2.328
66061W        W38321  35.042  16.063  12.408
66062W        W38322  43.968   7.128   3.211
66063W        W38323  40.624  18.762  11.048
66064W        W38324  38.229  40.268   0.438
66065W        W38325  15.783   0.534  12.617
66066W        W38326   1.213   0.565   3.278
66067W        W38327   4.332  26.452   5.456
66068W        W38328   7.674   5.328  12.696
66069W        W38329   3.500  11.801  10.745
66070W        W38330  16.603  23.273  13.089
66071W        W38331  13.950  30.976   5.424
66072W        W38332  11.796   3.015  13.403
66073W        W38333  20.685   8.334   0.844
66074W        W38334  26.335  41.801  14.310
66075W        W38335  41.610  26.853  11.061
66076W        W38336  16.222  43.873  10.622
66077W        W38337  32.733  31.205  13.323
66078W        W38338  31.293  39.734   1.697
66079W        W38339  15.963   2.446   4.214
66080W        W38340  23.483   6.345  12.957
66081W        W38341  31.867  43.964   0.508
66082W        W38342  23.120  43.953   2.720
66083W        W38343   4.737  21.958   1.348
66084W        W38344  23.645  39.586   4.849
66085W        W38345  11.288  38.409   1.229
66086W        W38346  25.711  14.224   0.284
66087W        W38347  15.121  32.155  11.049
66088W        W38348  16.794  36.337  10.671
66089W        W38349  44.500  35.526   4.322
66090W        W38350  28.095   6.742  13.612
66091W        W38351  44.042   0.810  12.870
66092W        W38352  43.361   5.370  11.142
66093W        W38353  33.611  26.137   3.432
66094W        W38354   2.842  35.877  13.421
66095W        W38355  25.437  38.348   1.101
66096W        W38356   9.062  44.302  11.592
66097W        W38357  31.367   7.040  11.239
66098W        W38358  17.671   9.391   2.655
66099W        W38359  37.397  18.016   2.584
66100W        W38360  16.447   7.184  10.729
66101W        W38361  34.403  36.928  14.610
66102W        W38362   4.141  19.943  12.939
66103W        W38363  24.078  34.639  14.916
66104W        W38364  11.348   1.084   3.942
66105W        W38365  11.369  26.922   1.870
66106W        W38366  13.146  26.584  14.743
66107W        W38367   7.642  14.821  10.742
66108W        W38368  44.746  36.099   1.911
66109W        W38369   7.457  40.877   3.586
66110W        W38370  39.871  17.800   1.858
66111W        W38371  38.498  10.314  13.495
66112W        W38372  23.579  40.483  11.701
66113W        W38373  40.561   5.775  12.491
66114W        W38374  19.566  34.109  14.421
66115W        W38375  29.548   9.161   4.585
66116W        W38376   1.636  10.165   4.487
66117W        W38377  29.592  25.592   0.429
66118W        W38378  11.389  40.691   0.217
66119W        W38379  36.805  31.319  13.453
66120W        W38380  44.765   0.465   3.201
66121W        W38381  14.329  35.243   3.156
66122W        W38382   4.787  23.799   0.295
66123W        W38383  26.630  11.194   0.563
66124W        W38384   3.866  35.095  14.434
66125W        W38385   1.975   1.135   2.809
66126W        W38386   1.086  15.828   3.253
66127W        W38387  26.895  19.233   0.694
66128W        W38388  15.745  13.212  14.023
66129W        W38389  15.350  30.582  10.123
66130W        W38390  12.524  26.786  10.132
66131W        W38391  26.226  33.139   2.653
66132W        W38392   1.756  25.294   0.468
66133W        W38393   9.927  24.201   0.407
66134W        W38394  36.735  41.295  14.559
66135W        W38395  16.502  36.887  11.260
66136W        W38396  30.907  14.874  12.997
66137W        W38397  22.171  40.249  14.353
66138W        W38398  25.764  26.097   3.402
66139W        W38399  11.595  31.898  10.104
66140W        W38400  18.659  39.840  14.734
66141W        W38401  20.141  44.230  11.440
66142W        W38402  25.932   1.444  14.886
66143W        W38403  30.961  23.487   0.357
66144W        W38404   2.436  33.908   3.257
66145W        W38405  42.860  16.214   1.890
66146W        W38406  25.732  29.220  11.589
66147W        W38407   3.718  39.918  14.704
66148W        W38408  12.627   8.124  11.176
66149W        W38409  12.349  39.994   3.128
66150W        W38410  17.772  43.972  14.435
66151W        W38411  13.593  38.491   4.652
66152W        W38412  16.755   3.697   2.289
66153W        W38413  14.042  43.220   1.354
66154W        W38414  12.641  13.093  11.195
66155W        W38415  33.796  41.227   0.874
66156W        W38416   8.389  25.567  11.071
66157W        W38417  28.021  16.746   1.817
66158W        W38418   2.675  34.849   2.712
66159W        W38419  19.137  36.532  10.531
66160W        W38420  34.700  36.424  11.912
66161W        W38421  34.759   9.190   1.295
66162W        W38422  25.580  25.287   3.616
66163W        W38423  44.239  28.692   3.227
66164W        W38424   2.027   6.718   1.141
66165W        W38425   0.338   9.106   2.752
66166W        W38426  10.586  29.683  13.649
66167W        W38427   7.416  25.885   5.004
66168W        W38428  18.975   3.351   3.839
66169W        W38429  25.257  16.589  10.872
66170W        W38430  12.609  35.524  11.560
66171W        W38431  23.262  40.593  10.921
66172W        W38432   8.855  36.417  13.097
66173W        W38433  17.422  42.303   4.019
66174W        W38434  27.496   0.062  10.407
66175W        W38435   0.895  37.148  14.367
66176W        W38436  28.858  35.406  11.908
66177W        W38437   0.849  35.397  10.193
66178W        W38438   8.588  19.101  13.384
66179W        W38439  41.759   4.645   0.193
66180W        W38440   9.769  41.735  11.955
66181W        W38441   8.929  34.947  10.987
66182W        W38442  14.387  25.098  10.733
66183W        W38443  43.475  17.345  11.890
66184W        W38444  19.303   9.242  14.782
66185W        W38445  34.462  14.734  12.935
66186W        W38446   9.676  39.354  14.512
66187W        W38447   9.625   7.272   4.051
66188W        W38448  13.378  39.074  11.745
66189W        W38449  23.685  37.548   4.563
66190W        W38450  20.674  11.749   0.424
66191W        W38451   9.929  18.753   5.099
66192W        W38452  29.760  14.806   0.435
66193W        W38453  35.561  17.219   0.327
66194W        W38454  29.622   4.498  11.077
66195W        W38455  15.378  41.906   2.754
66196W        W38456  17.343  38.322  13.176
66197W        W38457  27.958  12.129  11.106
66198W        W38458  28.234  21.027  12.658
66199W        W38459  41.017   0.829   3.293
66200W        W38460  42.950  42.718   4.225
66201W        W38461  23.481  21.475  11.164
66202W        W38462  26.495  40.278  10.617
66203W        W38463   3.848  10.969   4.292
66204W        W38464  38.638   9.264  14.324
66205W        W38465  24.627  22.694   0.667
66206W        W38466  30.849  22.591  10.704
66207W        W38467  38.760  31.079   4.096
66208W        W38468  34.633   1.985  13.615
66209W        W38469  36.969   3.876   0.850
66210W        W38470  28.706   2.932  11.305
66211W        W38471  10.257   0.987   4.895
66212W        W38472  36.443   6.485  13.870
66213W        W38473  44.218  18.926   2.203
66214W        W38474  33.542   1.383  10.675
66215W        W38475  21.123  40.098   0.289
66216W        W38476   4.848  17.601   4.038
66217W        W38477  28.941  12.238  11.119
66218W        W38478  23.266  40.838  11.883
66219W        W38479  13.231   3.235  12.717
66220W        W38480  36.491  30.635   1.332
66221W        W38481   4.643  32.973  11.228
66222W        W38482   5.003  17.463  11.482
66223W        W38483  42.131  14.557   3.178
66224W        W38484  44.444  25.108   4.029
66225W        W38485  40.994  30.030  12.118
66226W        W38486   4.024   5.418  13.435
66227W        W38487  40.579  29.474   5.165
66228W        W38488  12.828  44.504  12.068
66229W        W38489  11.683  36.052  13.283
66230W        W38490  24.956  25.281   2.335
66231W        W38491  30.346  16.581   1.969
66232W        W38492  29.910  34.617   3.754
66233W        W38493  10.767   5.957   3.819
66234W        W38494  15.077  19.705   3.550
66235W        W38495   0.342  17.846   4.011
66236W        W38496  25.952  42.312  13.979
66237W        W38497  42.525  38.012   3.677
66238W        W38498   9.650  42.475   0.754
66239W        W38499  34.564  28.496  10.759
66240W        W38500  23.673  39.356   4.379
66241W        W38501  31.187   6.257  12.029
66242W        W38502  27.978  12.664  14.437
66243W        W38503  29.591  39.374   2.892
66244W        W38504  18.218  21.563   3.640
66245W        W38505  38.051   9.317   3.375
66246W        W38506  21.638  26.494  13.074
66247W        W38507  44.042   1.488   1.378
66248W        W38508  13.341   2.710  12.546
66249W        W38509  25.556  27.933   0.002
66250W        W38510  23.202  33.823   1.262
66251W        W38511  11.803  27.263  11.780
66252W        W38512  38.012   4.930  13.940
66253W        W38513   0.673  38.991   0.842
66254W        W38514  10.071  10.755   2.678
66255W        W38515   9.412   9.622  12.687
66256W        W38516  22.080  23.839  11.002
66257W        W38517  44.303  35.381   0.261
66258W        W38518  27.059  43.314  10.466
66259W        W38519  29.479  34.546  12.944
66260W        W38520  24.718  10.100  12.044
66261W        W38521  35.513  18.092  11.529
66262W        W38522  16.476  20.559  14.496
66263W        W38523   0.275   1.153  13.833
66264W        W38524  14.034   3.347   0.749
66265W        W38525  22.925   4.196  11.928
66266W        W38526  16.352   5.224  13.196
66267W        W38527  29.453  24.642  11.534
66268W        W38528   5.859  23.255   3.158
66269W        W38529  42.181  24.282  14.556
66270W        W38530  13.700  17.109  13.555
66271W        W38531  43.764  26.832   5.192
66272W        W38532   1.360   7.823  12.561
66273W        W38533   4.573  33.429  14.958
66274W        W38534  26.727   9.442  11.984
66275W        W38535  23.798   5.797   4.003
66276W        W38536  25.805  40.320  14.629
66277W        W38537  13.434  25.734   0.746
66278W        W38538   1.456  42.023   2.398
66279W        W38539   8.224  34.711   4.132
66280W        W38540   8.229   0.256   4.566
66281W        W38541  19.146  32.375  13.548
66282W        W38542  39.891   8.141   4.173
66283W        W38543  11.652  28.376   5.133
66284W        W38544  11.221  35.630   0.485
66285W        W38545  12.633  39.466  13.828
66286W        W38546   7.220  34.275  13.555
66287W        W38547  38.949  16.560  11.029
66288W        W38548  29.555   2.334  10.718
66289W        W38549  40.984  43.812  12.076
66290W        W38550  14.783  19.733  14.843
66291W        W38551  20.284  11.198   3.708
66292W        W38552   1.396  21.292  13.427
66293W        W38553  35.131  14.034  11.915
66294W        W38554  44.743  26.343   2.873
66295W        W38555   6.439  40.867  11.526
66296W        W38556  16.732  33.628  12.339
66297W        W38557  36.370  32.872   2.777
66298W        W38558  43.535  22.591  11.748
66299W        W38559  39.000  31.507  12.067
66300W        W38560   0.419  36.090  10.501
66301W        W38561   0.435  24.034  10.501
66302W        W38562  22.629  27.533   0.866
66303W        W38563  38.031  34.162  14.559
66304W        W38564  32.941  18.820   3.178
66305W        W38565  43.354  37.034  12.410
66306W        W38566  42.970  28.183  10.625
66307W        W38567   7.325  18.209   0.725
66308W        W38568   6.913  16.702   0.793
66309W        W38569  24.597   0.655   2.382
66310W        W38570  23.520  14.038  11.113
66311W        W38571  13.622  30.201   1.379
66312W        W38572   3.433   3.094   3.913
66313W        W38573   1.011  38.323   2.298
66314W        W38574  41.770  21.680   4.610
66315W        W38575   5.438  17.688  12.471
66316W        W38576  16.229   4.837  10.372
66317W        W38577  18.025   7.581  12.847
66318W        W38578   6.899  42.293  11.414
66319W        W38579  32.454  10.547   1.860
66320W        W38580  22.592   0.904   0.558
66321W        W38581  33.757  19.178  11.803
66322W        W38582  30.599  36.539  13.111
66323W        W38583  21.204  25.708   2.763
66324W        W38584  42.346  24.818  13.954
66325W        W38585  23.657  28.824   3.654
66326W        W38586   1.319  38.203  11.083
66327W        W38587  35.651  18.244   3.196
66328W        W38588  36.398  30.588  12.514
66329W        W38589  22.168   1.936   1.925
66330W        W38590  27.011  13.831  14.898
66331W        W38591   5.609  33.519   1.266
66332W        W38592  22.083  38.220  13.601
66333W        W38593  36.593  25.110  14.339
66334W        W38594  29.112  29.527  12.634
66335W        W38595  13.286  17.785  14.473
66336W        W38596   2.281   8.904  11.517
66337W        W38597   6.722  17.121  14.874
66338W        W38598  32.910  13.352   2.959
66339W        W38599   8.295  34.346   2.460
66340W        W38600  13.544   7.356  14.318
66341W        W38601  39.838  15.996   3.232
66342W        W38602  22.018  24.751  13.392
66343W        W38603  17.763  44.968  13.321
66344W        W38604  40.577   5.277   1.402
66345W        W38605  12.147  20.013  13.907
66346W        W38606  43.360  26.108   1.183
66347W        W38607  25.323   2.512  13.618
66348W        W38608   1.779  36.508   4.874
66349W        W38609  34.633  18.512  11.202
66350W        W38610   8.764   1.789   4.306
66351W        W38611   8.416   1.742  11.115
66352W        W38612  21.507  37.452   4.696
66353W        W38613  17.126   0.381   3.434
66354W        W38614   6.939  27.276  12.319
66355W        W38615   8.811  30.449  11.997
66356W        W38616  20.098  24.257   4.654
66357W        W38617   1.868  38.930   3.276
66358W        W38618  33.348   6.232  14.939
66359W        W38619  32.396  17.043   3.077
66360W        W38620  17.206   4.242   4.468
66361W        W38621   8.748  29.432   1.051
66362W        W38622  24.018  16.188  12.543
66363W        W38623  25.576   2.442   4.051
66364W        W38624   8.749  36.673   1.754
66365W        W38625  25.618  31.061  12.585
66366W        W38626  44.850  13.730   4.811
66367W        W38627   5.899   5.186  12.357
66368W        W38628  26.656   6.711   1.919
66369W        W38629  12.703  29.334   4.154
66370W        W38630  17.525  18.703   4.687
66371W        W38631  13.526  11.929   0.843
66372W        W38632  34.880  18.718  10.338
66373W        W38633  23.121   4.996  12.989
66374W        W38634  26.371   0.156   5.165
66375W        W38635  29.741  20.910  12.009
66376W        W38636  15.314  23.013  14.574
66377W        W38637  43.562  24.648   1.207
66378W        W38638  23.480  23.058  12.985
66379W        W38639  17.250  43.769  11.205
66380W        W38640  10.700   3.983  10.679
66381W        W38641  22.006  28.562   2.373
66382W        W38642   4.882  44.413  14.379
66383W        W38643   2.717   1.455   2.137
66384W        W38644  42.824   8.963  11.932
66385W        W38645  44.308  19.360   3.137
66386W        W38646  37.080  25.132  12.508
66387W        W38647  32.609  18.198   0.356
66388W        W38648  18.677   8.226   1.810
66389W        W38649  11.242  16.148   0.030
66390W        W38650  19.879  18.567  12.036
66391W        W38651   8.748  11.196   2.936
66392W        W38652  29.960  38.478  10.542
66393W        W38653   1.096  21.535  12.922
66394W        W38654  12.919  11.661  12.075
66395W        W38655  36.469  20.508  14.355
66396W        W38656  23.961   6.341  14.322
66397W        W38657  16.163  43.305   1.852
66398W        W38658  34.108  41.203   1.396
66399W        W38659  30.113  35.472   4.363
66400W        W38660  19.791  41.160  14.449
66401W        W38661  39.921   1.868  11.871
66402W        W38662  18.809   5.542   1.631
66403W        W38663   2.729  25.972  13.073
66404W        W38664  35.998  17.677   3.101
66405W        W38665  31.610  18.418   1.655
66406W        W38666  37.393   3.461   3.567
66407W        W38667   8.602  12.662  13.081
66408W        W38668  17.280  22.458  12.462
66409W        W38669  36.786   6.490  14.684
66410W        W38670  16.390  31.589   0.734
66411W        W38671  34.101  36.784  11.610
66412W        W38672  32.391   6.061  12.838
66413W        W38673  35.788  10.904   2.231
66414W        W38674  17.637  15.862   2.299
66415W        W38675  11.891  13.695   3.750
66416W        W38676  41.033  43.363   0.939
66417W        W38677  13.398  27.497  10.597
66418W        W38678   1.827  18.083   2.180
66419W        W38679  15.072  21.949  11.420
66420W        W38680  42.308  29.441  10.946
66421W        W38681   6.308  30.960  13.851
66422W        W38682  20.267  36.904  11.189
66423W        W38683   0.574  34.779  11.509
66424W        W38684  19.507  32.444  13.959
66425W        W38685  21.238  40.129   1.699
66426W        W38686  15.159  17.249  10.676
66427W        W38687  11.711  33.115  12.425
66428W        W38688  41.634  33.792   3.811
66429W        W38689  24.258  21.242  10.648
66430W        W38690  20.775  10.820   3.285
66431W        W38691  41.871  13.796  13.574
66432W        W38692   9.781  34.181  11.847
66433W        W38693  43.809   7.358  11.933
66434W        W38694   7.144  33.609  11.142
66435W        W38695  19.511  37.790   2.216
66436W        W38696  10.787  26.697  12.186
66437W        W38697  18.839  16.715  14.484
66438W        W38698  22.253  42.883  14.801
66439W        W38699   6.190  25.423   2.816
66440W        W38700  32.201  28.155  11.073
66441W        W38701   1.300  26.653   3.910
66442W        W38702  42.092   1.679   2.977
66443W        W38703  21.105  19.572   3.676
66444W        W38704  41.795  20.479  14.748
66445W        W38705  18.817  21.613  14.020
66446W        W38706   6.504  38.357   3.783
66447W        W38707   9.844   3.958  12.408
66448W        W38708  27.567  37.434   0.470
66449W        W38709  15.294   3.093   0.563
66450W        W38710   9.646  16.608   3.746
66451W        W38711  10.865   1.471   2.279
66452W        W38712  33.460  23.663  12.557
66453W        W38713   9.618   7.289   0.297
66454W        W38714  29.704  18.309   1.776
66455W        W38715  20.700  41.826  10.308
66456W        W38716  14.408  41.477  10.669
66457W        W38717  34.443  30.611   1.384
66458W        W38718  13.721  44.030  11.622
66459W        W38719  26.261  40.758  10.197
66460W        W38720   3.166  24.576  13.391
66461W        W38721  19.597   9.741   1.397
66462W        W38722  29.475   4.734   2.573
66463W        W38723  28.092  40.388  12.412
66464W        W38724  39.491  25.226  12.766
66465W        W38725   0.476  28.447  14.887
66466W        W38726  39.332   7.425   9.757
66467W        W38727  19.336  19.825   1.883
66468W        W38728  18.606  25.515  13.267
66469W        W38729   1.209  33.944   0.293
66470W        W38730  41.320  27.616   0.773
66471W        W38731  26.085   8.049  12.048
66472W        W38732   0.692  43.497  11.521
66473W        W38733   0.441  30.398   3.997
66474W        W38734   7.371  38.345  13.062
66475W        W38735  38.026  25.066  12.210
66476W        W38736  21.490   4.736  10.160
66477W        W38737   3.031   0.762   0.427
66478W        W38738  19.226  21.295   0.744
66479W        W38739   4.678  13.230   3.808
66480W        W38740   0.761  15.797   9.991
66481W        W38741  27.729  15.265   1.149
66482W        W38742   5.838  12.891   2.805
66483W        W38743  23.558  13.271  14.430
66484W        W38744  40.101  28.175   1.322
66485W        W38745  19.154  18.547   1.368
66486W        W38746  43.834  18.258   2.778
66487W        W38747  15.714  11.201   4.214
66488W        W38748  23.955  36.421   4.577
66489W        W38749  29.067  16.610   1.200
66490W        W38750  15.991  44.805  11.972
66491W        W38751  13.946   2.198   4.845
66492W        W38752  37.872  36.996   4.074
66493W        W38753  27.126  16.811   4.175
66494W        W38754  27.189  17.572   4.612
66495W        W38755  25.559  39.142   2.883
66496W        W38756   8.263  23.473   1.255
66497W        W38757  24.524  22.449  12.549
66498W        W38758  16.565  21.866  10.716
66499W        W38759  15.108  11.278   1.730
66500W        W38760  26.525  42.985   2.381
66501W        W38761  12.344  16.061  14.983
66502W        W38762  17.995  25.264  14.486
66503W        W38763  34.908  16.563   3.194
66504W        W38764  35.306  27.239  12.176
66505W        W38765  31.293  11.777  12.039
66506W        W38766  44.685  31.005   0.866
66507W        W38767  36.141  19.460   2.791
66508W        W38768  27.864  10.219   1.831
66509W        W38769  34.512  28.170  13.948
66510W        W38770  16.142  28.616   2.634
66511W        W38771  44.631   6.271  13.276
66512W        W38772  27.499  34.587  13.135
66513W        W38773  32.511  15.311   2.243
66514W        W38774  17.468  35.632   0.780
66515W        W38775  14.706  28.728   0.317
66516W        W38776  12.111   0.911  14.384
66517W        W38777  30.363  43.558  13.373
66518W        W38778  23.794  15.876   3.518
66519W        W38779  40.982  32.047  12.883
66520W        W38780  34.678  16.881   3.570
66521W        W38781  44.890  23.338  12.860
66522W        W38782   4.274  42.511  14.710
66523W        W38783  25.161  36.812   4.092
66524W        W38784  44.351  24.139   0.318
66525W        W38785  18.593   2.886  12.001
66526W        W38786  37.844   9.730   4.621
66527W        W38787  21.308  39.946  13.302
66528W        W38788  22.666  26.400  10.625
66529W        W38789  38.313  33.034   1.942
66530W        W38790  18.858  32.488  12.741
66531W        W38791  34.307   8.352  13.264
66532W        W38792  24.054  26.568   3.410
66533W        W38793  21.047  41.755   3.566
66534W        W38794  39.668  34.741   0.016
66535W        W38795  13.884  27.702  10.568
66536W        W38796  33.147   2.765   1.288
66537W        W38797  43.750   1.233   3.227
66538W        W38798   3.952  17.574  14.883
66539W        W38799  41.003   1.937   2.314
66540W        W38800  20.405  31.640   3.608
66541W        W38801  34.005  14.870  14.650
66542W        W38802  36.993   9.218   0.138
66543W        W38803  17.336  43.745  14.773
66544W        W38804  41.854  10.853  13.026
66545W        W38805  26.981  35.689   0.085
66546W        W38806  30.476  31.611   3.125
66547W        W38807   2.220  30.930  13.065
66548W        W38808  39.044  21.619  14.163
66549W        W38809  21.199  39.281   0.783
66550W        W38810  26.221  26.247   3.650
66551W        W38811   9.886  28.231  11.530
66552W        W38812  11.278  11.246   4.294
66553W        W38813   2.357  14.182  12.427
66554W        W38814  12.298  35.262  14.026
66555W        W38815  43.268  20.248   2.686
66556W        W38816  32.740   2.363  11.574
66557W        W38817   3.601  44.453   1.332
66558W        W38818  39.686  33.423   3.266
66559W        W38819  19.644   2.380  10.439
66560W        W38820  38.524  12.824  13.985
66561W        W38821  39.125  15.846  11.365
66562W        W38822  15.997  33.335  11.049
66563W        W38823  40.871  33.926  14.425
66564W        W38824  44.161  13.899  11.905
66565W        W38825  17.099   9.342   2.233
66566W        W38826  22.779  41.830   0.424
66567W        W38827  37.358   6.741  11.150
66568W        W38828  41.669  33.127   2.675
66569W        W38829  18.286  38.407   0.176
66570W        W38830  20.181  26.837  13.884
66571W        W38831  11.908  27.923  12.863
66572W        W38832  11.250  38.575   0.708
66573W        W38833   1.714  40.987  13.121
66574W        W38834  24.936   5.392   2.246
66575W        W38835  34.969  35.012  10.629
66576W        W38836  41.133  16.058  13.276
66577W        W38837  25.923  39.934  14.957
66578W        W38838  28.142  24.080  14.411
66579W        W38839  37.979  32.925   2.346
66580W        W38840  43.873   6.206   3.417
66581W        W38841  18.794  33.075  10.709
66582W        W38842  31.068  18.489   2.327
66583W        W38843  26.932  24.774   1.908
66584W        W38844  29.370  24.100   1.481
66585W        W38845  33.308   1.982   1.768
66586W        W38846  23.890  44.465   1.739
66587W        W38847  41.750  18.372   3.648
66588W        W38848   6.643  36.933   2.302
66589W        W38849  24.989   1.789   0.063
66590W        W38850  36.037  29.841   2.788
66591W        W38851  30.527  20.711   3.013
66592W        W38852  24.709  32.923   1.666
66593W        W38853  26.735  23.183   3.683
66594W        W38854   5.132   3.234   2.701
66595W        W38855  26.988  19.925   1.292
66596W        W38856   7.898  43.829   4.455
66597W        W38857   5.253  31.386  14.443
66598W        W38858  22.638  42.215   3.455
66599W        W38859  26.019  42.208  13.326
66600W        W38860   5.879  27.669  14.902
66601W        W38861  12.116  32.453   2.974
66602W        W38862  27.072   9.213   2.196
66603W        W38863  31.022   2.129   4.557
66604W        W38864  15.022  37.240  14.420
66605W        W38865  33.058   6.319   4.085
66606W        W38866  44.926  17.056   4.114
66607W        W38867  18.389  23.174   1.656
66608W        W38868  43.212  40.394   2.858
66609W        W38869  34.634  28.930   2.160
66610W        W38870   0.411  44.817   0.746
66611W        W38871   9.524  25.045   5.030
66612W        W38872  34.030  13.657   4.317
66613W        W38873   6.713  29.726  11.084
66614W        W38874   8.475  40.602   0.465
66615W        W38875   4.983   5.155  12.456
66616W        W38876  15.260  37.773  10.360
66617W        W38877  14.380  41.445  11.690
66618W        W38878   1.515  37.463   3.248
66619W        W38879  32.058   7.841   3.996
66620W        W38880   6.146  40.594  14.942
66621W        W38881   4.098  36.163  14.721
66622W        W38882  18.718  14.380  11.106
66623W        W38883  12.109  25.412   0.426
66624W        W38884  31.218  23.647   1.767
66625W        W38885  14.294  34.489   2.174
66626W        W38886  43.268  12.328   0.297
66627W        W38887  26.475   5.084   4.895
66628W        W38888   0.825  15.606   2.835
66629W        W38889  18.037   3.268   0.304
66630W        W38890  27.970   0.904  10.732
66631W        W38891  10.246  36.567  13.473
66632W        W38892  30.062   3.359   2.907
66633W        W38893   6.547  16.219   0.042
66634W        W38894   4.884  23.179  11.969
66635W        W38895  21.348  11.500   4.073
66636W        W38896  20.169  25.617  10.863
66637W        W38897  41.576   9.147   2.787
66638W        W38898  34.506   9.712   0.468
66639W        W38899  15.857  15.070  13.418
66640W        W38900   6.747   0.778   0.998
66641W        W38901  43.006   1.076   2.196
66642W        W38902  17.864   5.661   0.241
66643W        W38903   7.403   7.522   1.450
66644W        W38904  36.053   1.451   4.367
66645W        W38905   4.811  43.950  11.701
66646W        W38906  14.733  36.893  11.129
66647W        W38907   7.247  21.181   3.306
66648W        W38908   5.586  28.164   0.877
66649W        W38909  26.120   7.254   2.973
66650W        W38910  34.568  26.155   4.565
66651W        W38911  21.877  39.407   1.393
66652W        W38912  36.051  37.572   3.252
66653W        W38913  13.257   0.786  11.051
66654W        W38914  12.070  25.241  13.391
66655W        W38915   0.210  39.806   0.874
66656W        W38916  40.165  21.853   3.939
66657W        W38917  39.518   5.687  14.054
66658W        W38918  32.603   4.180  14.296
66659W        W38919  13.570  28.300  10.244
66660W        W38920  28.905  39.067  12.398
66661W        W38921  12.329  18.549  13.817
66662W        W38922  23.495  33.391   1.263
66663W        W38923  32.977  24.277   1.209
66664W        W38924  19.573  41.847   4.528
66665W        W38925  28.966   3.558   4.927
66666W        W38926  30.769   6.429  13.369
66667W        W38927  18.704  41.421   5.330
66668W        W38928  13.922  38.395  14.387
66669W        W38929  27.940  28.465   1.692
66670W        W38930   7.922  33.596  11.607
66671W        W38931   3.337  22.158  14.300
66672W        W38932  19.186   6.158  10.448
66673W        W38933  35.781   1.293   1.318
66674W        W38934  32.619   2.887   1.330
66675W        W38935  26.101  28.118   2.186
66676W        W38936  38.098  30.037   0.958
66677W        W38937  26.191  41.074   0.859
66678W        W38938  16.304  30.541  14.274
66679W        W38939  21.968   2.592   1.393
66680W        W38940  26.299  42.192  14.728
66681W        W38941  20.283  16.242   4.039
66682W        W38942  27.339  30.341  12.029
66683W        W38943  38.629  17.551  12.123
66684W        W38944   0.697  21.060  10.185
66685W        W38945  22.459  31.199   0.401
66686W        W38946  34.332  37.223   4.661
66687W        W38947  39.501  12.119  14.895
66688W        W38948  14.691  18.761   0.007
66689W        W38949  15.581  25.227   0.724
66690W        W38950  23.731   4.553  11.624
66691W        W38951  33.558   3.366  13.711
66692W        W38952   7.573   9.242  13.170
66693W        W38953  34.894  27.403   2.198
66694W        W38954  24.069  20.215  11.498
66695W        W38955  13.078  17.237   2.266
66696W        W38956  12.710  11.180  13.770
66697W        W38957  16.704  39.260  11.135
66698W        W38958  22.498  34.509   1.351
66699W        W38959  24.109  14.853  12.850
66700W        W38960  14.087  25.713   3.663
66701W        W38961   0.024   7.014  10.744
66702W        W38962  38.760  24.503  13.470
66703W        W38963  16.352  27.272   1.283
66704W        W38964  29.857  40.506   0.452
66705W        W38965  34.568   5.317   4.769
66706W        W38966  33.912   2.818   0.709
66707W        W38967   3.754  13.121  12.878
66708W        W38968  11.209   1.871  11.617
66709W        W38969  14.283  13.776  12.377
66710W        W38970  27.954  15.319   3.748
66711W        W38971  23.236  13.969   4.558
66712W        W38972  10.127  13.420   2.562
66713W        W38973  14.628  10.698   1.214
66714W        W38974   6.898  39.012   2.260
66715W        W38975  14.532  11.137  10.703
66716W        W38976  18.684  17.120  13.216
66717W        W38977   3.415  39.739  13.803
66718W        W38978  10.740  28.376  11.583
66719W        W38979  36.748   1.270   2.761
66720W        W38980   5.424  37.601   1.258
66721W        W38981   3.405  18.306  14.573
66722W        W38982  31.945  11.056   3.158
66723W        W38983  11.619  31.162   1.740
66724W        W38984  27.556  27.701   2.906
66725W        W38985  36.811  18.082  13.686
66726W        W38986   7.649   5.748   1.270
66727W        W38987  44.887  42.231   3.711
66728W        W38988  20.750   6.174  11.553
66729W        W38989  15.355  30.073  10.177
66730W        W38990  23.248  23.019   2.161
66731W        W38991  27.532  40.887  11.504
66732W        W38992  44.068  25.879   4.274
66733W        W38993  11.319   7.404   1.970
66734W        W38994  20.041  22.023  13.948
66735W        W38995  25.383  42.844   3.323
66736W        W38996   4.001  30.460   0.342
66737W        W38997  11.767  40.109  13.734
66738W        W38998  23.081   4.954   0.048
66739W        W38999  37.883  44.804  10.940
66740W        W39000  13.897   8.493  12.223
66741W        W39001   1.355  15.691   3.695
66742W        W39002   3.351  41.493   4.251
66743W        W39003  25.056  37.435  12.302
66744W        W39004  35.999  38.978   2.375
66745W        W39005  19.221  11.405  11.084
66746W        W39006  17.829  36.032   3.657
66747W        W39007  26.785  34.859  11.016
66748W        W39008   2.374  11.078  12.391
66749W        W39009   2.165  17.331  12.091
66750W        W39010  29.824  20.417  12.124
66751W        W39011  11.719   1.292   4.757
66752W        W39012  40.799  22.275  10.760
66753W        W39013  18.499  20.964  11.015
66754W        W39014  28.883  24.366   4.036
66755W        W39015   4.743  12.160   3.239
66756W        W39016  15.604   5.558  14.478
66757W        W39017  32.099   1.909  10.934
66758W        W39018   9.664  21.493   3.773
66759W        W39019  19.556  31.887   0.780
66760W        W39020  30.116  43.464  14.193
66761W        W39021  14.548  44.967  11.809
66762W        W39022  36.811  13.117   1.494
66763W        W39023  38.726  10.284  14.342
66764W        W39024  15.024  13.166   3.215
66765W        W39025  31.223  28.954   4.790
66766W        W39026  11.797   2.691  12.046
66767W        W39027  17.758   0.954  12.833
66768W        W39028   8.280  32.363   2.288
66769W        W39029  23.119  16.850  14.878
66770W        W39030  40.846  24.267   4.726
66771W        W39031  17.988  12.853   0.078
66772W        W39032  35.366  22.744   5.040
66773W        W39033  22.815  17.156  11.241
66774W        W39034   9.224  40.526  13.362
66775W        W39035  29.892  10.729   1.227
66776W        W39036  21.691  23.484  11.544
66777W        W39037   1.903  19.581   4.550
66778W        W39038  16.048   7.871  12.499
66779W        W39039  33.193  17.839   3.712
66780W        W39040   9.432  21.781  11.199
66781W        W39041   4.227  40.955   2.180
66782W        W39042  44.278   3.277   2.889
66783W        W39043   0.810  23.240   1.732
66784W        W39044   3.068   8.668   2.682
66785W        W39045  36.415  10.805   0.420
66786W        W39046   4.324  24.913  11.573
66787W        W39047  16.532  35.802  11.840
66788W        W39048  15.036  40.679   0.570
66789W        W39049  33.932   2.696   0.184
66790W        W39050  26.517  22.194   0.308
66791W        W39051  36.812  14.546   0.359
66792W        W39052  26.491  32.479  12.082
66793W        W39053  28.909   7.699  11.481
66794W        W39054  10.382  12.281   0.317
66795W        W39055   2.316   6.873  13.065
66796W        W39056   2.244  44.994  11.949
66797W        W39057  39.530   6.858  13.151
66798W        W39058  32.966  36.319  14.714
66799W        W39059  28.722  16.337  11.137
66800W        W39060  41.080  44.531  12.947
66801W        W39061  28.568   9.641   2.732
66802W        W39062  28.771  28.502   4.217
66803W        W39063  25.202  39.413   5.347
66804W        W39064  27.276  31.288   2.997
66805W        W39065  15.391  22.233  12.276
66806W        W39066  29.634  38.492  12.843
66807W        W39067   4.217  18.352   0.060
66808W        W39068  18.466   4.382   0.719
66809W        W39069  23.254  10.318   4.073
66810W        W39070  39.039  38.471   4.567
66811W        W39071  27.917  33.252  11.854
66812W        W39072  16.849  40.329  12.901
66813W        W39073  18.116   4.894   3.847
66814W        W39074  21.059  17.556   0.996
66815W        W39075  21.118  14.797   1.779
66816W        W39076  32.025  29.480   0.717
66817W        W39077  41.807   7.116   1.565
66818W        W39078  37.446   4.124  13.661
66819W        W39079  26.526  35.535  10.355
66820W        W39080  14.697   2.493  14.322
66821W        W39081  11.607  22.402  14.194
66822W        W39082  18.262  13.109  12.505
66823W        W39083  14.324  20.056  11.842
66824W        W39084  22.048  13.769   1.200
66825W        W39085  22.400   7.899   3.886
66826W        W39086  33.383  18.604   4.141
66827W        W39087  43.880  28.327   0.702
66828W        W39088  40.346   7.349  14.884
66829W        W39089  28.571  12.202  13.848
66830W        W39090  32.664  44.024   0.977
66831W        W39091  33.847  33.668  14.054
66832W        W39092  33.386  37.927  12.549
66833W        W39093  14.069   7.647   3.599
66834W        W39094   7.840  23.730  11.582
66835W        W39095  22.704   2.341  12.872
66836W        W39096  40.569  23.168  11.218
66837W        W39097   9.827   8.164  11.966
66838W        W39098  27.415   4.509  11.040
66839W        W39099  14.365  17.331  13.826
66840W        W39100  31.026  26.045   2.088
66841W        W39101  13.773  11.229  14.107
66842W        W39102  43.912  20.288  11.561
66843W        W39103  22.014  38.309   0.809
66844W        W39104  44.538  15.051  11.193
66845W        W39105  38.839  35.447  12.426
66846W        W39106  44.950   7.438   2.150
66847W        W39107  26.924  19.180   3.907
66848W        W39108  24.757  12.025  14.114
66849W        W39109  29.171   7.682   4.496
66850W        W39110  43.287  41.974  11.038
66851W        W39111   7.400   7.398  12.014
66852W        W39112  33.519  30.581  13.155
66853W        W39113  27.174   9.820  10.676
66854W        W39114  32.097   2.833  10.697
66855W        W39115   1.696  42.713   9.976
66856W        W39116  19.733  24.941  11.596
66857W        W39117  19.289   7.215   3.226
66858W        W39118  43.062  33.670   2.661
66859W        W39119  10.061   3.903   2.637
66860W        W39120  36.244   3.006   1.407
66861W        W39121  40.760  15.082   1.725
66862W        W39122  30.028  13.199  14.021
66863W        W39123  43.049  13.257  13.465
66864W        W39124   6.696  34.284   4.564
66865W        W39125  10.138  11.287  12.953
66866W        W39126  13.763  39.341  13.328
66867W        W39127  19.119  43.108  14.897
66868W        W39128  36.467  42.571   2.421
66869W        W39129  23.228  38.453   0.255
66870W        W39130  39.788  26.914   0.926
66871W        W39131  16.151  32.553  10.476
66872W        W39132  11.931  29.195   2.788
66873W        W39133  27.047   1.285  12.669
66874W        W39134  30.478  23.189   0.308
66875W        W39135  25.212  31.457   3.675
66876W        W39136  32.913   6.853   3.913
66877W        W39137  32.286  23.198   0.024
66878W        W39138  23.602  43.471   0.895
66879W        W39139  29.320  41.465  12.429
66880W        W39140  36.854  16.798  14.294
66881W        W39141   5.775  18.806  12.116
66882W        W39142   2.862   3.476  13.002
66883W        W39143  11.129   9.720   0.955
66884W        W39144  28.885  27.493  11.983
66885W        W39145  31.977  30.392   0.792
66886W        W39146  24.008  10.216   3.277
66887W        W39147  31.891  41.556  11.609
66888W        W39148  29.511  44.726   4.094
66889W        W39149  36.646  41.355   4.592
66890W        W39150  18.072   7.686  10.612
66891W        W39151  34.563  21.024  11.093
66892W        W39152  22.251  31.914  10.309
66893W        W39153  18.676  25.746   2.715
66894W        W39154  29.523  18.179  14.800
66895W        W39155   8.228  37.485   0.879
66896W        W39156   5.653  38.776   3.721
66897W        W39157  40.808  18.056  14.331
66898W        W39158  16.576  42.523   3.240
66899W        W39159  26.220  36.613  13.434
66900W        W39160  39.040  36.545   1.260
66901W        W39161  14.723   2.466   3.687
66902W        W39162  43.875  37.623  13.832
66903W        W39163  32.969  19.006  12.851
66904W        W39164  21.280   1.024   3.650
66905W        W39165  38.157  42.009  11.625
66906W        W39166  31.257  41.483   3.272
66907W        W39167  29.173  30.918  12.592
66908W        W39168  18.815  29.725  11.161
66909W        W39169  41.575  43.436  12.786
66910W        W39170  12.837  10.134  11.024
66911W        W39171  24.576   1.758  12.328
66912W        W39172  17.697  31.513  11.601
66913W        W39173   4.191  38.063  12.476
66914W        W39174  25.029  24.479   0.681
66915W        W39175  17.179  16.219   1.419
66916W        W39176  13.272  37.525   3.498
66917W        W39177   8.503  30.951   3.896
66918W        W39178  43.241  26.651   3.904
66919W        W39179  13.304  16.326   3.058
66920W        W39180  15.762   9.129  12.271
66921W        W39181  19.955  36.456   1.780
66922W        W39182  11.631   1.913   4.002
66923W        W39183  12.856  28.377   0.357
66924W        W39184  12.517   3.214  11.371
66925W        W39185  37.789   7.262   1.691
66926W        W39186  31.272  14.075  10.098
66927W        W39187  33.014   6.830   3.362
66928W        W39188  34.575  40.844  10.694
66929W        W39189  23.552   1.138  13.582
66930W        W39190  39.333  36.422  13.998
66931W        W39191  41.242  23.517   0.967
66932W        W39192  12.414  38.068  11.092
66933W        W39193  34.851   1.216  10.522
66934W        W39194  32.024   4.820   2.934
66935W        W39195  44.294  41.827  14.419
66936W        W39196   4.687  25.579  10.867
66937W        W39197  26.661  22.797  10.406
66938W        W39198  24.306  44.219  11.107
66939W        W39199  38.361  40.335   1.700
66940W        W39200  15.326  17.984  12.402
66941W        W39201   2.931  21.716   1.806
66942W        W39202  44.011  36.561  14.942
66943W        W39203  15.857  32.630  14.375
66944W        W39204  19.029  43.775  12.498
66945W        W39205   1.364  19.820  11.553
66946W        W39206  43.060  18.006  10.761
66947W        W39207   7.443   0.963   1.321
66948W        W39208  31.632  39.556   2.957
66949W        W39209  16.575  17.998  14.508
66950W        W39210   2.911   3.848  13.401
66951W        W39211   4.908  22.719   3.258
66952W        W39212   0.222  30.490  11.541
66953W        W39213  41.989  30.072  10.696
66954W        W39214  38.987   4.488   4.538
66955W        W39215  38.815  14.895  11.563
66956W        W39216  23.771  17.288   2.163
66957W        W39217  42.464   0.843   2.784
66958W        W39218  42.254   3.613   1.651
66959W        W39219  44.334  41.280   1.401
66960W        W39220  43.829   2.979   2.843
66961W        W39221  33.195  38.579   2.311
66962W        W39222  26.051   4.766   3.017
66963W        W39223  17.708   3.299   0.722
66964W        W39224   4.601   1.325  13.975
66965W        W39225  11.553  37.570  12.585
66966W        W39226  35.624  15.715   0.345
66967W        W39227  35.431  39.362   0.491
66968W        W39228  41.708  36.921  12.944
66969W        W39229   6.893  25.647   5.439
66970W        W39230  38.656   1.350  12.812
66971W        W39231  15.272  24.828   1.896
66972W        W39232  39.276  32.060  10.931
66973W        W39233  10.675  16.335  13.333
66974W        W39234  27.578  41.467  13.764
66975W        W39235  20.327   7.595   4.572
66976W        W39236  31.498   5.887  12.832
66977W        W39237   7.413  16.441  14.844
66978W        W39238   7.124   6.263  10.679
66979W        W39239  32.893  31.972   1.684
66980W        W39240  44.280  12.689  13.907
66981W        W39241  28.032  29.701  14.943
66982W        W39242  39.549  42.485   1.391
66983W        W39243  25.344   4.190  14.737
66984W        W39244  19.111  19.093   1.223
66985W        W39245   0.255  26.196   4.698
66986W        W39246  31.468   9.526   0.898
66987W        W39247  43.291  11.178   0.712
66988W        W39248  26.142  31.197  14.850
66989W        W39249  20.428  30.385  14.384
66990W        W39250   9.680   8.880   4.337
66991W        W39251   8.645  40.472  14.427
66992W        W39252  37.978  22.520  12.860
66993W        W39253  42.919  34.305   3.775
66994W        W39254  24.012   9.462   4.354
66995W        W39255  44.369  24.028  14.425
66996W        W39256  34.951  28.933   5.085
66997W        W39257  23.022  37.912  13.101
66998W        W39258  13.339  13.144  13.969
66999W        W39259  10.791  11.574   3.664
67000W        W39260   4.475  29.551   4.716
67001W        W39261  24.091  40.281   0.402
67002W        W39262  32.373   3.340   0.237
67003W        W39263  20.517  26.013   2.774
67004W        W39264  27.941   0.520  14.220
67005W        W39265   8.770  19.895  12.925
67006W        W39266  27.895  23.576  13.299
67007W        W39267   1.992  17.720   1.817
67008W        W39268  36.399  21.353  13.373
67009W        W39269  39.084   4.156   0.928
67010W        W39270  15.154   5.761  14.325
67011W        W39271  21.077  39.905  14.750
67012W        W39272  17.710   7.841   9.783
67013W        W39273  39.460   7.169   0.475
67014W        W39274  15.610  33.679  11.077
67015W        W39275  13.219  23.832   4.085
67016W        W39276  34.299  36.048   1.261
67017W        W39277  36.341  10.875   2.244
67018W        W39278   7.284  38.929  10.665
67019W        W39279  39.429  15.844  13.417
67020W        W39280   0.328  44.451  13.364
67021W        W39281   6.408  23.481  11.596
67022W        W39282  29.004  18.714  12.113
67023W        W39283  15.728  37.524   1.493
67024W        W39284   8.273  11.159   4.848
67025W        W39285  14.916  32.473  12.931
67026W        W39286  25.679  23.199   0.909
67027W        W39287  32.750  26.018  12.159
67028W        W39288   3.849   4.382  14.062
67029W        W39289  14.103  20.542  14.144
67030W        W39290   8.141  33.799   1.903
67031W        W39291   0.642  26.187   3.765
67032W        W39292   8.335  44.726  13.508
67033W        W39293  22.073   1.618  13.374
67034W        W39294  17.806  27.044   2.874
67035W        W39295  29.865  26.697   2.363
67036W        W39296  34.660   9.375   3.711
67037W        W39297   0.989  10.888  11.280
67038W        W39298  32.889  39.536   0.898
67039W        W39299  10.841  27.305   1.330
67040W        W39300  37.429  16.079  14.458
67041W        W39301  38.113  31.156  11.744
67042W        W39302  25.949  30.565  10.742
67043W        W39303  22.799  20.613  11.136
67044W        W39304  23.693  25.149  10.592
67045W        W39305  36.393  36.082  14.875
67046W        W39306   0.310   3.118  13.758
67047W        W39307  25.121  16.255   2.721
67048W        W39308  12.734  11.877  10.762
67049W        W39309  19.595  41.025  10.499
67050W        W39310  14.867  33.542   0.879
67051W        W39311  14.781  15.222   3.344
67052W        W39312  38.888   6.451   3.069
67053W        W39313   1.249  28.775   3.766
67054W        W39314  32.018  10.287  12.106
67055W        W39315  39.970  25.981  12.862
67056W        W39316  34.039  13.132   1.438
67057W        W39317  37.958  28.538  13.406
67058W        W39318  44.801  41.543  14.944
67059W        W39319  26.940  43.855  10.540
67060W        W39320   6.850  38.537  13.070
67061W        W39321  29.515  14.014   0.910
67062W        W39322  21.102  21.631   5.590
67063W        W39323  29.934  13.830  11.518
67064W        W39324   5.690   4.317  12.463
67065W        W39325  33.391  10.453   1.609
67066W        W39326  19.002  16.250   3.832
67067W        W39327  19.154  11.644  12.018
67068W        W39328   3.918  21.693  12.150
67069W        W39329  30.091   7.265   3.917
67070W        W39330  33.831  21.052   1.754
67071W        W39331   6.739  22.077  14.386
67072W        W39332  22.368  20.468   3.421
67073W        W39333  20.665   7.355   0.731
67074W        W39334  36.590   2.330  10.768
67075W        W39335  19.534   0.892  10.798
67076W        W39336  16.168  19.876   4.075
67077W        W39337  38.201  17.906   2.413
67078W        W39338  11.752  12.784   1.266
67079W        W39339   9.779  42.774  12.302
67080W        W39340  37.087   3.930  12.472
67081W        W39341   3.379  39.025   0.028
67082W        W39342  34.025  32.641   1.725
67083W        W39343  43.253   8.475   2.150
67084W        W39344  30.244  22.628   1.851
67085W        W39345  21.754  18.235   0.951
67086W        W39346  22.216   0.279  10.626
67087W        W39347  31.973  42.236   1.877
67088W        W39348  44.008  42.959  12.902
67089W        W39349   7.193  42.396  14.460
67090W        W39350  42.055  11.897  14.905
67091W        W39351  11.259   1.407   2.687
67092W        W39352   5.661  40.923   2.504
67093W        W39353   1.792  20.866  12.926
67094W        W39354   0.963  22.473  12.061
67095W        W39355  25.117  15.303  10.196
67096W        W39356   4.297  26.626  10.229
67097W        W39357  15.040  18.847   1.135
67098W        W39358  32.439   1.961  11.676
67099W        W39359  35.697  14.095  12.088
67100W        W39360  30.203  34.914   1.284
67101W        W39361  28.968  38.465   3.697
67102W        W39362   4.858   5.968  14.832
67103W        W39363  32.356  36.294  12.002
67104W        W39364  23.886   7.181  14.707
67105W        W39365  28.580   9.257   3.096
67106W        W39366  44.522  31.861  11.957
67107W        W39367  37.527  29.991  14.758
67108W        W39368  35.994  14.900  12.532
67109W        W39369   3.744  25.095  10.831
67110W        W39370  31.427  27.510  11.208
67111W        W39371  32.223   3.785  13.433
67112W        W39372  30.612  23.185  14.506
67113W        W39373  42.047  19.525   4.271
67114W        W39374  24.131  41.994  12.927
67115W        W39375  42.311  37.278   4.706
67116W        W39376  37.664  42.912   3.244
67117W        W39377  21.462  33.923   2.246
67118W        W39378   4.987  31.358  13.600
67119W        W39379  33.387  11.647  12.319
67120W        W39380  21.314  38.919  11.555
67121W        W39381   5.759  20.621   3.071
67122W        W39382   3.318  44.054  12.452
67123W        W39383  20.733  29.981   1.706
67124W        W39384  21.550  10.316  12.264
67125W        W39385  35.180  24.597  12.820
67126W        W39386  25.173  35.597   0.154
67127W        W39387  38.423  36.460  10.856
67128W        W39388  25.900  39.309  11.329
67129W        W39389  35.699  41.515  12.204
67130W        W39390  36.865  35.007  10.854
67131W        W39391  11.300  43.706   0.884
67132W        W39392   9.820  27.701   3.657
67133W        W39393  22.939   9.190   3.182
67134W        W39394   2.304  15.707  14.503
67135W        W39395  18.645  26.029  13.433
67136W        W39396  44.991   2.887  10.532
67137W        W39397  26.324   8.462  11.141
67138W        W39398   5.108   6.367  12.392
67139W        W39399  14.799   2.355  12.379
67140W        W39400  28.615  19.447   4.984
67141W        W39401  10.688  28.829  11.286
67142W        W39402  36.308  43.800   0.162
67143W        W39403  16.076  44.767  10.710
67144W        W39404   0.177   6.158  14.122
67145W        W39405  20.301  12.266  11.110
67146W        W39406  19.039  38.885  11.170
67147W        W39407  36.137  38.105  14.149
67148W        W39408  19.523   9.105   1.804
67149W        W39409  30.402  21.507   4.289
67150W        W39410  36.567   1.361   1.270
67151W        W39411  13.911   8.954   4.098
67152W        W39412  21.641   7.886   2.426
67153W        W39413   9.621  32.985   4.755
67154W        W39414  35.011  31.186   2.441
67155W        W39415  18.145  13.688   0.428
67156W        W39416  20.629  18.671  14.641
67157W        W39417   9.881  20.497   0.538
67158W        W39418  26.965  12.795  13.201
67159W        W39419  30.562   2.563  10.625
67160W        W39420  27.034  19.617   2.897
67161W        W39421  29.895  26.922  13.298
67162W        W39422  29.765   7.055   4.649
67163W        W39423  16.291  16.778   4.272
67164W        W39424  24.461   6.879  13.826
67165W        W39425  15.131  40.967  10.762
67166W        W39426  21.878  16.625   2.325
67167W        W39427  19.328  37.542  13.971
67168W        W39428   4.177  28.068   1.445
67169W        W39429  36.476  16.231  10.720
67170W        W39430   8.498  41.644  13.514
67171W        W39431  40.287  33.810  13.603
67172W        W39432  24.012  28.885   4.209
67173W        W39433  17.078  36.675   4.133
67174W        W39434  14.829  11.881  14.088
67175W        W39435  14.245  19.560   3.092
67176W        W39436  21.159   1.737  11.923
67177W        W39437   2.495  31.900   1.780
67178W        W39438  37.404  36.034   2.789
67179W        W39439  41.796  30.449  12.341
67180W        W39440  17.083   3.725  13.432
67181W        W39441  36.893  37.617  11.552
67182W        W39442  37.274  25.133   0.398
67183W        W39443   7.649  26.590  14.645
67184W        W39444  27.584  43.312   1.693
67185W        W39445  30.209  42.420  12.935
67186W        W39446  33.974  37.929   2.372
67187W        W39447   9.068  11.279   3.333
67188W        W39448   2.217  13.226   3.758
67189W        W39449  38.586   9.317  12.638
67190W        W39450  11.932  20.287  12.470
67191W        W39451   9.319  39.615  10.506
67192W        W39452   2.419  36.877   0.911
67193W        W39453   6.448  41.626  12.545
67194W        W39454  10.707   9.639  12.351
67195W        W39455  30.351  37.865  12.526
67196W        W39456  17.177   4.597   2.097
67197W        W39457  42.550  33.103  12.922
67198W        W39458   1.315  31.981   0.866
67199W        W39459  11.808  30.077  12.026
67200W        W39460  41.431   0.901   2.376
67201W        W39461  21.374  11.826  11.527
67202W        W39462  29.346  23.577   2.742
67203W        W39463   6.713  12.706  12.499
67204W        W39464  36.509  37.084   0.233
67205W        W39465  42.816  28.775  11.479
67206W        W39466  41.809  40.587   3.618
67207W        W39467  27.163  10.785   4.162
67208W        W39468  24.056  17.233  12.577
67209W        W39469  38.792  28.239  14.333
67210W        W39470  42.441  40.114  14.304
67211W        W39471  13.910  35.886   4.445
67212W        W39472   8.365   0.676  14.553
67213W        W39473  30.033  40.670  11.181
67214W        W39474  26.241  11.747  14.033
67215W        W39475  15.179  38.394   2.821
67216W        W39476  14.595  43.063  11.563
67217W        W39477   7.317  38.650  11.104
67218W        W39478  17.606  40.293   0.021
67219W        W39479   2.541  19.117   4.178
67220W        W39480  33.056  43.934  14.816
67221W        W39481  42.485  25.256   2.588
67222W        W39482  24.523  36.123   0.680
67223W        W39483  43.498   8.692   0.170
67224W        W39484  39.490  23.885  10.574
67225W        W39485  21.631  36.130  11.111
67226W        W39486  19.789  27.343   0.684
67227W        W39487   8.800  29.638  10.735
67228W        W39488  42.418  22.015  11.089
67229W        W39489  13.314  44.705   0.523
67230W        W39490  17.685  26.870   2.384
67231W        W39491  16.844   5.069  14.621
67232W        W39492   1.408  14.134   2.226
67233W        W39493  14.242   3.424   1.742
67234W        W39494  35.324  13.048  12.561
67235W        W39495  43.340  27.144  10.717
67236W        W39496  36.289  29.066   0.448
67237W        W39497  12.776  29.603  11.057
67238W        W39498  15.167  20.061  10.640
67239W        W39499  11.039  12.774   4.983
67240W        W39500  32.569   0.853  10.073
67241W        W39501  38.482  31.955  14.894
67242W        W39502  33.540  42.081   0.874
67243W        W39503  29.125  17.501   1.884
67244W        W39504  24.323   6.958  12.128
67245W        W39505  24.741  36.580   0.805
67246W        W39506  19.278   9.322   4.233
67247W        W39507  35.632  38.728   4.071
67248W        W39508  17.184  12.261   3.363
67249W        W39509   5.881  37.118  14.112
67250W        W39510   4.472  18.301  10.592
67251W        W39511  44.683   5.396  10.426
67252W        W39512   9.144  42.538   3.573
67253W        W39513   8.430  23.137  12.870
67254W        W39514   5.899   3.796   2.305
67255W        W39515   0.292  10.008   3.199
67256W        W39516  11.847  34.928   0.815
67257W        W39517  26.202  31.865  11.980
67258W        W39518  22.564  40.772  14.568
67259W        W39519  35.191  36.853   0.316
67260W        W39520  35.002   6.592  12.048
67261W        W39521  40.796  35.336   2.400
67262W        W39522  10.398   9.195  14.560
67263W        W39523  30.068  15.062   3.305
67264W        W39524  41.926  37.401  14.881
67265W        W39525  25.842  29.720  11.576
67266W        W39526  27.165  23.486  11.476
67267W        W39527  22.934  44.555  10.643
67268W        W39528  34.939  30.617   1.213
67269W        W39529   0.244  33.130  13.323
67270W        W39530   4.223  29.830  11.511
67271W        W39531  18.644  20.555  12.855
67272W        W39532  40.789  18.828  12.536
67273W        W39533  20.760  38.369  10.708
67274W        W39534  34.167   3.487   1.873
67275W        W39535  31.463  20.237   0.855
67276W        W39536  17.150   5.945   4.739
67277W        W39537  38.791   2.827  14.154
67278W        W39538  35.836  27.084   3.349
67279W        W39539  38.407   9.838  14.697
67280W        W39540  40.527  11.900   3.210
67281W        W39541   4.098  42.562   4.869
67282W        W39542  19.524  34.199   4.116
67283W        W39543  40.639  29.453   0.232
67284W        W39544  18.658   6.694  12.387
67285W        W39545   8.682  41.430   0.355
67286W        W39546   7.500  36.988  11.248
67287W        W39547  29.725  26.005  10.763
67288W        W39548  35.943   8.060  10.778
67289W        W39549  32.633   3.949   3.089
67290W        W39550  12.224   1.487   4.662
67291W        W39551  36.376  41.092   0.110
67292W        W39552  14.345   8.300  13.297
67293W        W39553  10.779  36.504   2.372
67294W        W39554  42.158  36.948  11.650
67295W        W39555  23.678  38.935  13.490
67296W        W39556   7.839  26.673   3.218
67297W        W39557   6.058   9.310   0.329
67298W        W39558  22.529  12.354  14.352
67299W        W39559  33.565   3.759  11.212
67300W        W39560   6.067   3.518  11.525
67301W        W39561  29.500  42.086  13.857
67302W        W39562  28.244  31.998  12.591
67303W        W39563  18.268  33.818   2.350
67304W        W39564  13.235  39.264   2.778
67305W        W39565  34.165  28.516   0.757
67306W        W39566   3.363  26.135  13.881
67307W        W39567  27.677  17.594   4.780
67308W        W39568  38.876  25.577   4.764
67309W        W39569  24.584   0.645   4.831
67310W        W39570  28.076  40.780   3.220
67311W        W39571   9.340   9.832  14.328
67312W        W39572  17.218  30.861  13.093
67313W        W39573  37.833  43.738   3.841
67314W        W39574  10.322  26.113   1.422
67315W        W39575   2.507  27.404   3.102
67316W        W39576  21.702   7.437   2.198
67317W        W39577  40.783  25.092   1.322
67318W        W39578  43.305  26.548  14.831
67319W        W39579  25.572  16.105   1.967
67320W        W39580   3.001   8.014   0.937
67321W        W39581  40.576  36.755   1.395
67322W        W39582  34.599  34.146   2.282
67323W        W39583   5.405  17.181  11.747
67324W        W39584  28.274  29.913  12.476
67325W        W39585   9.174  29.081   3.647
67326W        W39586  33.513  12.135  13.474
67327W        W39587  40.066  12.173   1.805
67328W        W39588  21.858  34.642  12.894
67329W        W39589  10.124  29.677  14.420
67330W        W39590  35.266  31.951   4.666
67331W        W39591  17.219  28.514   3.229
67332W        W39592  24.127  36.942   3.203
67333W        W39593  41.933  42.090  12.144
67334W        W39594   3.524  39.456  14.235
67335W        W39595  40.221  10.898   0.198
67336W        W39596  25.909  18.321  12.335
67337W        W39597  34.143  31.997  13.959
67338W        W39598  17.489  42.076  12.527
67339W        W39599   6.525   3.101   2.542
67340W        W39600  20.657  31.916   4.324
67341W        W39601  44.539   7.158  11.972
67342W        W39602  36.700  17.308  14.991
67343W        W39603  10.119   7.487  14.455
67344W        W39604   7.948  33.463  12.882
67345W        W39605  36.940   5.166   3.236
67346W        W39606  18.622  14.269  14.100
67347W        W39607  12.342  40.378   4.268
67348W        W39608  34.163  13.614  12.246
67349W        W39609   8.298   8.908  14.521
67350W        W39610  43.584  28.060   3.925
67351W        W39611  42.962  23.132   4.667
67352W        W39612  38.292   5.842  14.752
67353W        W39613  18.569  39.085   1.773
67354W        W39614  26.463  20.360   1.749
67355W        W39615  17.778  37.899   1.290
67356W        W39616   6.930  15.536  11.569
67357W        W39617  31.651   2.741   5.001
67358W        W39618   2.660  27.741   3.476
67359W        W39619  27.520  26.438   1.349
67360W        W39620   2.410   2.216  14.142
67361W        W39621  14.398  38.805   1.403
67362W        W39622  37.982  11.162  10.098
67363W        W39623   4.377  37.337  10.578
67364W        W39624   4.906  26.023  10.734
67365W        W39625   9.740  24.886   0.820
67366W        W39626  20.119  31.568  12.655
67367W        W39627  40.495  20.579  12.483
67368W        W39628   7.163   9.878   0.061
67369W        W39629  29.967  11.549  12.060
67370W        W39630  24.263   8.897  13.904
67371W        W39631  24.959  35.527   3.243
67372W        W39632  37.911   1.459  14.014
67373W        W39633  22.126  33.798  13.743
67374W        W39634   2.403  29.195  11.568
67375W        W39635  26.288   6.344  11.236
67376W        W39636  17.154  19.173  13.787
67377W        W39637  41.706  37.583  13.549
67378W        W39638   5.254   1.811   2.671
67379W        W39639  28.850  36.261  11.833
67380W        W39640  13.698  25.719  13.502
67381W        W39641   3.908  32.191   2.003
67382W        W39642  12.166   6.697   1.913
67383W        W39643  29.912  28.147  11.474
67384W        W39644  44.515  31.989   3.402
67385W        W39645  44.039  33.491   0.011
67386W        W39646  19.725  15.755  14.858
67387W        W39647   1.562   4.324   3.180
67388W        W39648   7.743  25.283   0.245
67389W        W39649   5.624  26.656  11.864
67390W        W39650  34.140   8.736   4.676
67391W        W39651  30.888   9.115  10.795
67392W        W39652  16.320  43.980   0.814
67393W        W39653  37.451  35.538   2.615
67394W        W39654   8.707   0.177  12.340
67395W        W39655  38.364   6.950   4.223
67396W        W39656  36.761   6.139  14.305
67397W        W39657  15.644  31.380   0.228
67398W        W39658  14.078  23.293   3.692
67399W        W39659  17.963  12.217  11.513
67400W        W39660  29.563  36.850   3.928
67401W        W39661  31.966  31.617   1.243
67402W        W39662  38.901   8.113   4.397
67403W        W39663  20.960   3.716   1.867
67404W        W39664  15.076   8.586   4.623
67405W        W39665  42.710  15.949   3.755
67406W        W39666  15.360   7.044   1.254
67407W        W39667  21.209  15.274   0.856
67408W        W39668  34.113  44.792  11.552
67409W        W39669  22.121  30.987  12.397
67410W        W39670  24.828   7.169  14.055
67411W        W39671  11.386  31.892   2.470
67412W        W39672  43.523  34.076  12.167
67413W        W39673  20.545  29.964   2.991
67414W        W39674  39.410  11.662   0.810
67415W        W39675  32.468  29.644   4.616
67416W        W39676  10.137  19.441  14.081
67417W        W39677  24.003  14.221  11.076
67418W        W39678  21.951  14.739   3.123
67419W        W39679  26.111  27.750   5.024
67420W        W39680   7.281   1.398   2.329
67421W        W39681  13.552   1.993   4.573
67422W        W39682  30.345  29.167   1.842
67423W        W39683   9.181  36.871   2.134
67424W        W39684  22.544   3.874  10.373
67425W        W39685   5.402   5.471  10.660
67426W        W39686  33.973   0.732  13.643
67427W        W39687   2.204   1.009   0.284
67428W        W39688  14.610   0.853   4.557
67429W        W39689  35.595   8.564   2.665
67430W        W39690  30.564  30.956  12.910
67431W        W39691  19.850  14.787   1.165
67432W        W39692  19.966  17.980   0.871
67433W        W39693  33.592  38.274   2.195
67434W        W39694  35.541  27.521  13.931
67435W        W39695  32.503   7.346  10.509
67436W        W39696   6.634  16.529   1.211
67437W        W39697   0.885  31.082   4.120
67438W        W39698  18.271   9.409   1.433
67439W        W39699  24.550   8.859  12.468
67440W        W39700  20.934   3.309  11.185
67441W        W39701  24.687   5.736  14.333
67442W        W39702  35.628  37.865   3.813
67443W        W39703  21.559  31.861   3.154
67444W        W39704  43.539   7.693  10.695
67445W        W39705   3.455  27.706  13.117
67446W        W39706  42.353  43.773   1.962
67447W        W39707   2.578   6.731   2.097
67448W        W39708  18.379  16.243  10.496
67449W        W39709  36.360  20.569   2.240
67450W        W39710  24.188  26.300  12.788
67451W        W39711  22.784  18.534  11.674
67452W        W39712  27.246  23.593   1.541
67453W        W39713  22.702  29.846  14.414
67454W        W39714  41.828  29.100   3.217
67455W        W39715  17.064   2.990   1.659
67456W        W39716  13.645  19.615  12.792
67457W        W39717  37.993  16.323  12.463
67458W        W39718  18.566  15.108  12.169
67459W        W39719  16.846  38.346  13.048
67460W        W39720  37.601  26.647  13.347
67461W        W39721  18.803  30.548  13.318
67462W        W39722  10.241  10.258  10.619
67463W        W39723  17.642  37.418  13.769
67464W        W39724  16.572  15.183   4.498
67465W        W39725  31.348   8.909   3.311
67466W        W39726  18.596  39.269   1.272
67467W        W39727  24.830  43.394  10.709
67468W        W39728  13.737  33.682   3.659
67469W        W39729  41.559  44.531   4.055
67470W        W39730  42.507  20.092  11.237
67471W        W39731  17.663  22.982   2.112
67472W        W39732  25.680  31.859  11.980
67473W        W39733  25.128  16.236   1.716
67474W        W39734  10.266  25.441  12.887
67475W        W39735  12.624  37.462   2.728
67476W        W39736  43.398  20.077  12.548
67477W        W39737  10.091  39.273   3.878
67478W        W39738  30.660   9.463  11.155
67479W        W39739  17.979  32.532   1.015
67480W        W39740   9.575  28.623   0.012
67481W        W39741  22.994   9.822   4.693
67482W        W39742  39.907  43.608  11.542
67483W        W39743  42.300   0.020   4.906
67484W        W39744  42.910  44.371  14.980
67485W        W39745  33.546   1.189   1.384
67486W        W39746  33.164  12.802  13.087
67487W        W39747  14.364  24.406   2.719
67488W        W39748   0.475  27.779  11.900
67489W        W39749  20.818  20.213   3.421
67490W        W39750  38.910   4.830   2.004
67491W        W39751  36.878  27.943  12.582
67492W        W39752  23.659   4.150   0.044
67493W        W39753  34.056  40.906   1.839
67494W        W39754  27.188   5.178  11.602
67495W        W39755  16.116  15.328   0.440
67496W        W39756  30.073   8.460   1.818
67497W        W39757  26.464  41.311  10.608
67498W        W39758  34.919  11.722   3.980
67499W        W39759  27.307  22.903  13.015
67500W        W39760   6.955  39.942  14.371
67501W        W39761  26.534  16.055  13.795
67502W        W39762  34.477  33.331   4.914
67503W        W39763  20.251  42.957   3.861
67504W        W39764  31.365  10.632   1.951
67505W        W39765  34.851  27.678   1.739
67506W        W39766  24.997  38.969  14.817
67507W        W39767  31.138  11.879  14.920
67508W        W39768  16.766  14.821   2.084
67509W        W39769   3.700  34.847  13.981
67510W        W39770  23.210  33.863   0.458
67511W        W39771  14.751   1.956  14.355
67512W        W39772   0.756  22.441  14.784
67513W        W39773  27.022  33.881   3.046
67514W        W39774  15.754  39.969   0.368
67515W        W39775  43.786  38.922   4.148
67516W        W39776   3.789  40.777  14.958
67517W        W39777  25.996  11.173  10.451
67518W        W39778  38.605   6.778   5.553
67519W        W39779  25.284  34.077  11.078
67520W        W39780  13.878  27.043   3.715
67521W        W39781  29.748  22.188   3.627
67522W        W39782  26.170  30.988   4.581
67523W        W39783  39.055  30.789  10.741
67524W        W39784  28.667  11.065   2.220
67525W        W39785  10.764  19.120  11.937
67526W        W39786  24.437   8.928  11.052
67527W        W39787  40.080   6.845   5.093
67528W        W39788  29.318  30.118   1.803
67529W        W39789  24.454  28.498   3.292
67530W        W39790  42.688  41.030  12.914
67531W        W39791  15.460  33.536   5.150
67532W        W39792  10.745   3.197   0.764
67533W        W39793  13.242   9.873  11.195
67534W        W39794   2.678  38.897   3.612
67535W        W39795  12.793  29.946   2.348
67536W        W39796  10.868   4.836  14.725
67537W        W39797  17.334  22.120  11.557
67538W        W39798  41.593  26.728  12.791
67539W        W39799   2.946  30.884  13.419
67540W        W39800   2.776  18.600  12.059
67541W        W39801  35.983  21.215  10.708
67542W        W39802  26.228  30.118  10.683
67543W        W39803  44.917  16.734   1.810
67544W        W39804   0.848  18.533  12.056
67545W        W39805  41.030  10.133   2.235
67546W        W39806  18.356  35.108   4.360
67547W        W39807  24.588   3.217   0.231
67548W        W39808  14.604  44.926   1.303
67549W        W39809  20.544   4.130   1.827
67550W        W39810  19.825   8.198   1.383
67551W        W39811  31.420  21.912  11.160
67552W        W39812  11.333  20.988   1.385
67553W        W39813  30.089  40.943   0.659
67554W        W39814  18.117  11.398   1.315
67555W        W39815  39.757  10.271   1.774
67556W        W39816   9.257  26.940   3.011
67557W        W39817  21.130  37.289  12.901
67558W        W39818  15.524   0.403   1.490
67559W        W39819  44.014   7.127   4.948
67560W        W39820  33.132  15.314  13.036
67561W        W39821  41.942  35.650   1.393
67562W        W39822  12.061   9.797   4.835
67563W        W39823  29.482  29.599   3.765
67564W        W39824  14.171  29.244  12.579
67565W        W39825  28.031  20.046   0.302
67566W        W39826   3.263   8.449  11.573
67567W        W39827  23.466  24.687  10.711
67568W        W39828  33.298  12.756  14.085
67569W        W39829  24.791  38.481  12.906
67570W        W39830   7.487  15.051  14.496
67571W        W39831  23.575  20.626   4.829
67572W        W39832  11.196  14.632   0.840
67573W        W39833   8.701   7.161  11.650
67574W        W39834  19.363   5.546  11.003
67575W        W39835   8.949  30.192  14.394
67576W        W39836   8.605  13.347  13.841
67577W        W39837  42.069   8.829   2.882
67578W        W39838  35.898  26.555  11.148
67579W        W39839  18.536  15.727   9.675
67580W        W39840  25.633  31.525  10.849
67581W        W39841  33.772  32.607   3.946
67582W        W39842  15.929   4.592   1.553
67583W        W39843  22.487  14.665   3.187
67584W        W39844  30.093  41.818   2.282
67585W        W39845   0.388  17.506   0.227
67586W        W39846  15.253   5.176  14.468
67587W        W39847   4.428  26.647   0.769
67588W        W39848  41.077  11.207   4.635
67589W        W39849  12.584  39.362  11.127
67590W        W39850   8.870   8.489   1.738
67591W        W39851  12.577  25.193  14.979
67592W        W39852   5.197   1.046  13.515
67593W        W39853   6.261  42.452  10.985
67594W        W39854  17.797  37.564  12.828
67595W        W39855  22.282  26.065   1.336
67596W        W39856  13.709   7.115   4.551
67597W        W39857  26.138  21.940  13.336
67598W        W39858  26.161   7.133  10.792
67599W        W39859  35.494  25.047  11.025
67600W        W39860   5.698   4.752  12.185
67601W        W39861  40.280  30.046   1.978
67602W        W39862  12.003  40.069  12.453
67603W        W39863   6.925  27.560   1.649
67604W        W39864  13.274  43.384   0.529
67605W        W39865   1.940  33.156  12.968
67606W        W39866   1.364  30.858   4.150
67607W        W39867  28.349  19.096   2.139
67608W        W39868  21.941  11.151   0.930
67609W        W39869  13.378  38.070  11.014
67610W        W39870   2.977  11.357   1.198
67611W        W39871  18.340  17.549   2.628
67612W        W39872  29.716  16.029  11.204
67613W        W39873  44.006  26.601  10.671
67614W        W39874   7.279   5.863  13.823
67615W        W39875  36.160   3.629   2.743
67616W        W39876  13.260  11.048   0.894
67617W        W39877  30.108  28.637   2.267
67618W        W39878   4.434  42.883   2.146
67619W        W39879  39.711  26.097  11.222
67620W        W39880  44.832  20.637  13.367
67621W        W39881  22.721  35.149  13.051
67622W        W39882  31.416   2.789   3.839
67623W        W39883  38.966  11.183  13.475
67624W        W39884  26.677  18.839   5.014
67625W        W39885  19.202  38.463   0.663
67626W        W39886  42.799  38.772  12.413
67627W        W39887  10.410  22.063  10.262
67628W        W39888  26.657  12.864   4.371
67629W        W39889   3.083  30.797   2.782
67630W        W39890  33.911  23.550  13.873
67631W        W39891  42.077   7.906   1.916
67632W        W39892  12.200  18.215  12.544
67633W        W39893  26.486  16.990   5.003
67634W        W39894   7.762   3.784  12.761
67635W        W39895  36.410  22.393   1.745
67636W        W39896  41.904  25.087  14.000
67637W        W39897  41.028  28.622   2.110
67638W        W39898   8.356  20.623   3.624
67639W        W39899  13.534  39.773   4.353
67640W        W39900  10.321  12.882   0.825
67641W        W39901  12.229  26.025   2.391
67642W        W39902  11.990  18.768   1.477
67643W        W39903  31.993  14.218  10.476
67644W        W39904   9.958  39.834  13.495
67645W        W39905  22.963  37.089   2.243
67646W        W39906  38.814   9.937  10.556
67647W        W39907  29.158  20.236   0.381
67648W        W39908   5.756  30.019  11.566
67649W        W39909  40.399  13.076  13.442
67650W        W39910  19.072   1.229   1.086
67651W        W39911  36.508  28.158   1.914
67652W        W39912  42.214  13.888  12.055
67653W        W39913  24.026   2.116   1.456
67654W        W39914  16.016  10.469  11.284
67655W        W39915  14.374  38.052   0.798
67656W        W39916  30.514  32.862   0.598
67657W        W39917  28.767   1.028   4.135
67658W        W39918  40.410  44.732   1.992
67659W        W39919   8.179  41.347   2.965
67660W        W39920   2.459  12.883  14.685
67661W        W39921  17.147  17.029  10.136
67662W        W39922   2.585  23.305  10.327
67663W        W39923  39.492  40.062   2.982
67664W        W39924  29.880   4.732   4.378
67665W        W39925   2.978   3.086   4.230
67666W        W39926  21.568  43.847   0.972
67667W        W39927  25.109  28.413   4.945
67668W        W39928  23.578  40.497  13.072
67669W        W39929   6.337  43.489   3.664
67670W        W39930  31.385  15.785   2.371
67671W        W39931   6.567  12.340  13.735
67672W        W39932  21.010  12.735  13.909
67673W        W39933  35.423  31.096  11.049
67674W        W39934  19.594  26.973   4.091
67675W        W39935  22.204  28.872   4.341
67676W        W39936  12.187  40.450  13.552
67677W        W39937  27.058  30.001   2.732
67678W        W39938  44.489   9.821  11.693
67679W        W39939  40.404   4.735  13.271
67680W        W39940  19.501  36.816   0.862
67681W        W39941  22.293  33.498   2.416
67682W        W39942  40.958   6.383   2.905
67683W        W39943  33.521  10.585  14.974
67684W        W39944  17.653  32.065  13.310
67685W        W39945  27.253  31.144  10.742
67686W        W39946  41.714  31.842  10.156
67687W        W39947  14.950  44.688   4.022
67688W        W39948  14.518  38.397   5.035
67689W        W39949  19.128   0.535   2.745
67690W        W39950  34.923   5.150   2.317
67691W        W39951  29.991  39.466   2.569
67692W        W39952  25.919  13.809   2.243
67693W        W39953  34.152  38.941  12.351
67694W        W39954  42.763  43.992  14.164
67695W        W39955  20.709  36.429  10.686
67696W        W39956   5.476  25.941   1.284
67697W        W39957  14.999  44.380   1.809
67698W        W39958  39.569  44.030   2.413
67699W        W39959  39.062  13.846  14.521
67700W        W39960  42.470  26.462   3.286
67701W        W39961  39.720   9.572  13.007
67702W        W39962  27.274  29.475  13.480
67703W        W39963  16.977   6.411  14.789
67704W        W39964  28.193  10.349  14.425
67705W        W39965  35.413  37.397   3.839
67706W        W39966  43.442  21.326  11.097
67707W        W39967  16.658  16.450  10.250
67708W        W39968  28.234   4.976   0.220
67709W        W39969  31.103  29.998  11.643
67710W        W39970  34.591  13.714  13.439
67711W        W39971  16.759  30.759  12.877
67712W        W39972  15.696  14.763  14.080
67713W        W39973  38.786  25.656   1.861
67714W        W39974  39.452  31.544   1.913
67715W        W39975  13.676   0.888   2.466
67716W        W39976  39.856   7.460   0.713
67717W        W39977  39.004  12.918   3.326
67718W        W39978  33.415  10.731   0.453
67719W        W39979  24.108  23.188  13.872
67720W        W39980  19.942  41.017  13.539
67721W        W39981  25.734  24.479  14.328
67722W        W39982   2.308  37.864   0.907
67723W        W39983  32.682  25.151  12.077
67724W        W39984  39.295  12.720  12.592
67725W        W39985  38.746  36.924   0.200
67726W        W39986   8.670   4.968   0.892
67727W        W39987  20.333   6.228   4.151
67728W        W39988  41.500  26.041  10.666
67729W        W39989  14.607  23.412  12.498
67730W        W39990  23.076  12.750  13.142
67731W        W39991  21.803  40.531  11.123
67732W        W39992   2.626  10.732  14.911
67733W        W39993  22.736  23.000  13.499
67734W        W39994   8.981  17.652   1.660
67735W        W39995  15.653  23.174   4.588
67736W        W39996   4.799   2.976  13.945
67737W        W39997  19.724  28.551   4.620
67738W        W39998  13.147  23.286   0.855
67739W        W39999   4.403   9.644  14.963
67740W        W40000  28.654  24.191   3.595
67741W        W40001  25.480  29.721   1.763
67742W        W40002  12.209   7.285  12.849
67743W        W40003  10.434  27.701   0.740
67744W        W40004  29.198  44.866   4.485
67745W        W40005  41.630  15.103   3.581
67746W        W40006  19.918  41.753  11.576
67747W        W40007   5.038  23.976   3.106
67748W        W40008  24.384   6.328   3.183
67749W        W40009   3.711   8.179  10.871
67750W        W40010  15.097  17.548   2.306
67751W        W40011  13.034  14.670   0.855
67752W        W40012  34.753  31.406   0.084
67753W        W40013  35.768  22.490   3.432
67754W        W40014  35.824  41.508  14.283
67755W        W40015  29.680  13.905  11.995
67756W        W40016  25.478  13.331  13.964
67757W        W40017  10.630  35.641  11.549
67758W        W40018   1.944  42.978  12.474
67759W        W40019  33.108  23.808   0.996
67760W        W40020   4.771  23.011   0.413
67761W        W40021  19.921  44.297   2.496
67762W        W40022  17.656   4.176  12.835
67763W        W40023  17.558  12.305   4.646
67764W        W40024   7.391  23.555   3.387
67765W        W40025  35.433  32.140   4.190
67766W        W40026  29.365   9.890  14.920
67767W        W40027  38.895  26.793  11.682
67768W        W40028   3.506  19.460  10.474
67769W        W40029  13.778  10.892   0.980
67770W        W40030   2.930   3.332  10.680
67771W        W40031  14.913   3.744   3.385
67772W        W40032   6.936   1.406  14.733
67773W        W40033  32.727   6.107   0.699
67774W        W40034  28.075   2.709   4.444
67775W        W40035  28.444  40.530   4.669
67776W        W40036  29.936  44.490  13.993
67777W        W40037   3.273  27.685  13.595
67778W        W40038   0.740   0.300  14.867
67779W        W40039  31.874   8.397   2.848
67780W        W40040   6.950   6.331   1.352
67781W        W40041  33.410  37.813   3.667
67782W        W40042  17.252   6.919   4.042
67783W        W40043  41.313  26.997   3.820
67784W        W40044   8.597  27.234  10.668
67785W        W40045  41.299  33.133   2.301
67786W        W40046  24.175  13.518  14.835
67787W        W40047  19.997  12.735  13.878
67788W        W40048  11.577  14.912   2.261
67789W        W40049  34.147  23.035   3.607
67790W        W40050  25.227  17.673   4.172
67791W        W40051  34.410  24.506  11.933
67792W        W40052  24.996   6.292   2.404
67793W        W40053  12.193   1.477  10.678
67794W        W40054  14.178  26.828   1.686
67795W        W40055  18.726  39.338  14.850
67796W        W40056  17.315   3.547  12.554
67797W        W40057  37.983  10.773  10.825
67798W        W40058  26.923   7.775  11.604
67799W        W40059  29.398  13.327  13.261
67800W        W40060  26.122   1.974  12.515
67801W        W40061  10.719   8.747   0.893
67802W        W40062   3.889   8.303   3.681
67803W        W40063  26.531  35.128   4.589
67804W        W40064  39.059  33.748  12.507
67805W        W40065  16.542  35.077  11.652
67806W        W40066  12.652  35.034  12.863
67807W        W40067  36.413  37.463   4.139
67808W        W40068  34.347  22.954  11.884
67809W        W40069  40.643  36.652  14.425
67810W        W40070  31.589  37.102   2.627
67811W        W40071  32.840  19.505  12.806
67812W        W40072   1.591  33.557   1.845
67813W        W40073  42.683  22.527   2.203
67814W        W40074  37.983  34.911   0.773
67815W        W40075  43.776  30.951  14.288
67816W        W40076  11.306  18.216   1.236
67817W        W40077   1.109  15.980   0.209
67818W        W40078  38.183  35.554   0.911
67819W        W40079  39.002   0.525   1.068
67820W        W40080  41.878  37.033   0.830
67821W        W40081  26.888  10.936   2.130
67822W        W40082  13.070  38.513   4.676
67823W        W40083  18.404  19.547  12.993
67824W        W40084  16.194  26.696  11.668
67825W        W40085  36.235  16.101   2.360
67826W        W40086  10.493  17.828  14.361
67827W        W40087  40.344  32.191  11.034
67828W        W40088   1.168  13.130   2.173
67829W        W40089  38.481  27.145  11.916
67830W        W40090  30.992  20.091   0.644
67831W        W40091  17.573  36.553  14.305
67832W        W40092  42.570  44.774   3.402
67833W        W40093  23.789  27.938   3.998
67834W        W40094  24.859  13.298  11.491
67835W        W40095  35.088  34.088  11.677
67836W        W40096  16.470   9.365  12.353
67837W        W40097  26.546  29.144   2.876
67838W        W40098  38.693  30.549  14.802
67839W        W40099   7.472  34.477   2.012
67840W        W40100  18.286  13.153  10.737
67841W        W40101  35.659   0.597  12.310
67842W        W40102   8.726  30.662   1.778
67843W        W40103  24.670  10.771   0.193
67844W        W40104  21.272  37.524   3.308
67845W        W40105  26.005  26.524  12.176
67846W        W40106  22.964  21.808  11.976
67847W        W40107   1.590   7.307  11.062
67848W        W40108   8.623  15.214   3.079
67849W        W40109  43.366   1.848   3.631
67850W        W40110  33.054  17.405   1.853
67851W        W40111  27.918  31.524  12.381
67852W        W40112   7.245  21.164  12.204
67853W        W40113  35.296  28.384  11.150
67854W        W40114  37.834  37.472   2.778
67855W        W40115  20.323   6.657   1.774
67856W        W40116   8.221  20.225  14.826
67857W        W40117  42.941  11.922  10.789
67858W        W40118  14.114  35.642  10.641
67859W        W40119  44.882   2.747   3.823
67860W        W40120  13.671  19.539  11.954
67861W        W40121   6.379  40.291   2.345
67862W        W40122   8.509   3.826   0.259
67863W        W40123  27.749   3.399  14.427
67864W        W40124   4.389   9.614   2.386
67865W        W40125   0.571  25.611  11.178
67866W        W40126  14.629  13.583  13.487
67867W        W40127  28.760  16.107  14.347
67868W        W40128  29.486  29.509  10.521
67869W        W40129  29.708  28.475  12.443
67870W        W40130  18.707   2.576   1.324
67871W        W40131   4.716  40.818   3.136
67872W        W40132  36.043  23.419  14.414
67873W        W40133  40.966   6.527   1.043
67874W        W40134  37.662   2.560   0.186
67875W        W40135  33.594   8.748   4.562
67876W        W40136  37.025   5.392   0.936
67877W        W40137  34.541  36.874  13.622
67878W        W40138  20.700  39.931   2.986
67879W        W40139   5.595  12.258  14.090
67880W        W40140   1.244   2.315   1.907
67881W        W40141  14.161   5.339   3.131
67882W        W40142  32.662  26.446   0.670
67883W        W40143  44.475  12.764   2.746
67884W        W40144  37.339  32.127   0.805
67885W        W40145  24.265  11.802  12.943
67886W        W40146  43.855  11.859  10.677
67887W        W40147  26.031   4.181  13.564
67888W        W40148  22.634   8.231   2.168
67889W        W40149  35.219   9.337   3.783
67890W        W40150   2.454  16.070   1.786
67891W        W40151  26.466  29.928  12.029
67892W        W40152   0.059  40.107  12.432
67893W        W40153  26.255  44.966   3.222
67894W        W40154   0.695  34.873  13.851
67895W        W40155  26.726   6.633  12.940
67896W        W40156  20.269  10.892   3.288
67897W        W40157   4.931   1.871  13.218
67898W        W40158   6.840   8.856  11.613
67899W        W40159  12.593   2.040  12.441
67900W        W40160  25.997  42.450   1.765
67901W        W40161  13.406  24.078   0.322
67902W        W40162  34.123   9.235   3.380
67903W        W40163  32.064  25.499   0.288
67904W        W40164  11.087  24.969   1.824
67905W        W40165  17.419  40.821  12.530
67906W        W40166   7.281   1.381   4.388
67907W        W40167   7.820  27.735   1.163
67908W        W40168  39.519  36.923  13.400
67909W        W40169  15.634  38.336  10.199
67910W        W40170   1.392  39.665   1.746
67911W        W40171  43.810   9.411   2.474
67912W        W40172  21.445   6.305  14.354
67913W        W40173  10.723  26.718  11.028
67914W        W40174   5.639  33.316   3.645
67915W        W40175  12.375  21.579   2.270
67916W        W40176  32.253  41.090   3.285
67917W        W40177  33.067  39.256   1.294
67918W        W40178  37.541  30.082  14.253
67919W        W40179  16.059  19.347   4.166
67920W        W40180   8.327  44.863  14.913
67921W        W40181   5.637  37.119   2.357
67922W        W40182  12.591   5.674   1.451
67923W        W40183  15.710   9.614   2.834
67924W        W40184  33.953  22.217   3.994
67925W        W40185  35.613  17.709   9.694
67926W        W40186  31.467  20.729  14.576
67927W        W40187  31.365  22.646  10.681
67928W        W40188  17.699  25.670  14.696
67929W        W40189  23.227  38.373  12.014
67930W        W40190  11.814   7.295   3.582
67931W        W40191  13.142  17.229  10.151
67932W        W40192  12.724  34.120   2.882
67933W        W40193  32.409  36.145  14.087
67934W        W40194  26.386  22.697  14.126
67935W        W40195  36.739  37.841  11.083
67936W        W40196  39.971  21.432   4.185
67937W        W40197  15.071   4.842  14.884
67938W        W40198  16.845  23.089  10.745
67939W        W40199  32.467   8.769   2.525
67940W        W40200   9.232  39.508   0.690
67941W        W40201  37.941  13.298   0.931
67942W        W40202  42.730  38.904  14.062
67943W        W40203  15.745  23.763   1.236
67944W        W40204  24.363  34.531  14.073
67945W        W40205  37.506  26.459  13.840
67946W        W40206   8.863  19.303  13.750
67947W        W40207   5.768   4.667   4.699
67948W        W40208  41.895  11.614   1.738
67949W        W40209   9.690  41.581  12.524
67950W        W40210  29.150  21.025  12.511
67951W        W40211  23.176   2.169  12.100
67952W        W40212   5.454  20.663  11.134
67953W        W40213  28.972  42.249  12.250
67954W        W40214  44.721  22.915   2.709
67955W        W40215  37.595  31.452  12.656
67956W        W40216  43.545  10.647  11.412
67957W        W40217  29.466   1.866   1.233
67958W        W40218  35.792  16.054  11.895
67959W        W40219   4.495  36.074  13.763
67960W        W40220   3.322  34.802   4.486
67961W        W40221  33.018  12.247  12.863
67962W        W40222  14.305  12.772   4.157
67963W        W40223  13.224  18.294   3.119
67964W        W40224  26.433  44.261  12.803
67965W        W40225   6.267  37.262   5.042
67966W        W40226  12.640   3.584   2.816
67967W        W40227   5.303  33.159   3.211
67968W        W40228  22.578  25.074   4.429
67969W        W40229  12.107   5.663   3.361
67970W        W40230  41.584  39.427  14.852
67971W        W40231  11.807  13.330   4.454
67972W        W40232  17.132  30.750   3.115
67973W        W40233  37.972  26.462   4.226
67974W        W40234  23.195  27.365  10.791
67975W        W40235  33.058  34.441   3.125
67976W        W40236  16.712   4.018   1.386
67977W        W40237  40.978   2.195  13.751
67978W        W40238   4.639  14.543  11.635
67979W        W40239  41.284  29.160   4.534
67980W        W40240  25.034  14.711  10.581
67981W        W40241  16.271  42.321  11.992
67982W        W40242  39.795  16.358  10.914
67983W        W40243  17.606  24.089   2.203
67984W        W40244   6.938  23.949   1.283
67985W        W40245  37.467  32.691   0.722
67986W        W40246  25.361  22.595  12.153
67987W        W40247  20.396  32.142   2.943
67988W        W40248   1.992  25.769   0.294
67989W        W40249  35.366   8.042  11.166
67990W        W40250   3.354   2.733  10.259
67991W        W40251  30.516   3.260   5.016
67992W        W40252  22.731  44.382  13.317
67993W        W40253   6.203  33.617   1.745
67994W        W40254  25.617  20.705   1.347
67995W        W40255   8.136  21.057   3.429
67996W        W40256  12.908  29.984   0.828
67997W        W40257  13.692   5.255   0.073
67998W        W40258   4.888  39.823  13.803
67999W        W40259  44.891  25.394   4.491
68000W        W40260  23.049  14.259   0.964
68001W        W40261  10.372  23.210   1.438
68002W        W40262  24.029   0.846   1.559
68003W        W40263  13.905   8.516  13.459
68004W        W40264  31.511  36.802   1.118
68005W        W40265   0.306  30.090   2.620
68006W        W40266  17.298  36.140  10.613
68007W        W40267  15.168  14.409   1.905
68008W        W40268  25.994  41.197  14.892
68009W        W40269  22.233   5.272  14.450
68010W        W40270   6.385  13.927  10.969
68011W        W40271  34.569  11.765   4.939
68012W        W40272  21.705  16.247  13.828
68013W        W40273  12.696  31.925   5.080
68014W        W40274  17.253  33.084   1.452
68015W        W40275   9.948  18.475  13.413
68016W        W40276  16.376  43.705  14.870
68017W        W40277  13.674  25.890   4.124
68018W        W40278   9.698  14.245  12.835
68019W        W40279  11.917  31.389   2.161
68020W        W40280  25.738  33.846  11.493
68021W        W40281  18.659  26.526  12.399
68022W        W40282   5.134   6.285   1.874
68023W        W40283  20.981  21.045  10.729
68024W        W40284  15.351  12.057  13.493
68025W        W40285  10.844  41.807  14.034
68026W        W40286  40.755  36.987  12.954
68027W        W40287  41.823  29.450  13.710
68028W        W40288  27.421   9.687  11.501
68029W        W40289  17.336  24.111   4.194
68030W        W40290  14.775  34.800   3.435
68031W        W40291   8.124  38.272  14.393
68032W        W40292  32.573  10.196  10.701
68033W        W40293   3.285   7.435   3.226
68034W        W40294  37.866  29.957  12.342
68035W        W40295  28.585  35.538  10.692
68036W        W40296   1.435  21.470   2.676
68037W        W40297  40.036  24.543   0.381
68038W        W40298  40.217  33.444   4.554
68039W        W40299  40.817  40.866   0.723
68040W        W40300  20.183  11.179   0.715
68041W        W40301   9.462   2.816  12.255
68042W        W40302   2.317  15.562   1.909
68043W        W40303  23.028  23.760  12.497
68044W        W40304  44.177  37.305  11.241
68045W        W40305  38.568  13.173   4.144
68046W        W40306  28.563  16.309   0.891
68047W        W40307  35.051  13.388   1.830
68048W        W40308  25.384   7.500   4.143
68049W        W40309  38.332  34.367  13.032
68050W        W40310  37.335  34.046   4.686
68051W        W40311   5.863  37.582  13.878
68052W        W40312  14.861  38.028   0.566
68053W        W40313   4.258  13.723   3.147
68054W        W40314   8.826  16.874  14.454
68055W        W40315  25.773  24.701  11.226
68056W        W40316  33.836  34.464  11.964
68057W        W40317   5.282  13.439  11.911
68058W        W40318  28.233  16.624  10.962
68059W        W40319   6.867  41.150  14.964
68060W        W40320  21.638  23.779   4.133
68061W        W40321   0.836   7.699  12.543
68062W        W40322  23.622  24.017  12.243
68063W        W40323   7.865   3.432   1.510
68064W        W40324   5.218   7.550   1.977
68065W        W40325  39.321   9.844  12.285
68066W        W40326  44.860  32.311  13.354
68067W        W40327  29.151  12.145   1.113
68068W        W40328   7.103  20.367   3.820
68069W        W40329   9.399  31.602  12.548
68070W        W40330   0.248  18.602   1.791
68071W        W40331  31.927  22.980   2.504
68072W        W40332  34.366  19.635  14.484
68073W        W40333  18.142   0.841   3.757
68074W        W40334   5.412  39.411  11.967
68075W        W40335  16.542  38.436   0.513
68076W        W40336  24.916  14.722  14.549
68077W        W40337   3.440  24.657   3.655
68078W        W40338  38.298   4.441   3.997
68079W        W40339   3.370   5.223   0.355
68080W        W40340  24.175   9.379   0.082
68081W        W40341  28.864  16.932  12.498
68082W        W40342  11.475  11.128   0.745
68083W        W40343  15.118  42.472   0.960
68084W        W40344  43.784   2.240  13.558
68085W        W40345  38.758  17.018  13.177
68086W        W40346  32.507   5.690  12.507
68087W        W40347   2.265  25.822   0.737
68088W        W40348   5.212  28.486  12.105
68089W        W40349  42.626  29.639  11.886
68090W        W40350  14.835   7.600   3.149
68091W        W40351   1.231   6.349   2.334
68092W        W40352  22.332  28.528  11.838
68093W        W40353  19.190   8.152  13.909
68094W        W40354   2.336  33.974  13.896
68095W        W40355   9.837  39.077   2.212
68096W        W40356  37.806  25.196   1.915
68097W        W40357  34.522  39.753  13.430
68098W        W40358  31.702   1.924   2.640
68099W        W40359  43.744  34.922  13.767
68100W        W40360   2.823  34.434  13.646
68101W        W40361  43.973  25.142  10.430
68102W        W40362  42.765  42.061   2.839
68103W        W40363  27.373  37.999  11.688
68104W        W40364  12.149  25.259   1.732
68105W        W40365   0.463  27.983   1.651
68106W        W40366  35.951  20.028  14.095
68107W        W40367  36.981  41.959  14.085
68108W        W40368  18.338   0.343  11.091
68109W        W40369  25.986   3.013   0.833
68110W        W40370  35.165  32.190  12.017
68111W        W40371   4.836  30.284  14.783
68112W        W40372  36.330  28.520   0.848
68113W        W40373   0.918  18.920   0.650
68114W        W40374  32.270  26.519  10.123
68115W        W40375  18.786  41.030  13.068
68116W        W40376  36.293  24.529  14.971
68117W        W40377  24.299  36.903   2.711
68118W        W40378  36.146  12.115  13.810
68119W        W40379  40.249   3.424   4.192
68120W        W40380  39.547   0.692   1.556
68121W        W40381  26.650  39.122   4.121
68122W        W40382  43.900  43.886   2.337
68123W        W40383  28.818  19.295   3.258
68124W        W40384   9.920  19.452  11.601
68125W        W40385  15.877  19.137   2.849
68126W        W40386  16.811  21.052  10.180
68127W        W40387  13.368  35.393   4.804
68128W        W40388  24.598  20.279  13.978
68129W        W40389   5.285  14.629  13.864
68130W        W40390   1.691   6.892  14.362
68131W        W40391   1.070   1.924  12.139
68132W        W40392  34.486  26.698   0.902
68133W        W40393  26.657   3.329   3.670
68134W        W40394  38.033   5.313  10.705
68135W        W40395  44.374  36.734   1.455
68136W        W40396  11.336  24.116  11.544
68137W        W40397  32.797  15.701   2.422
68138W        W40398   1.224   9.332   1.214
68139W        W40399  18.638   5.955   1.894
68140W        W40400   4.022  13.824   0.818
68141W        W40401   3.247  22.613   1.903
68142W        W40402  21.953  31.288   0.461
68143W        W40403  31.069  23.115   3.742
68144W        W40404  41.307  21.751   2.334
68145W        W40405  40.673  19.274   2.258
68146W        W40406  23.891  14.873   2.418
68147W        W40407  16.210   0.794   3.707
68148W        W40408  22.110  32.005  11.351
68149W        W40409  36.349  11.348   1.281
68150W        W40410   1.646  37.703   2.807
68151W        W40411  39.373  10.266  14.017
68152W        W40412  19.031  39.602   4.554
68153W        W40413  18.376  29.943   2.423
68154W        W40414   5.147   2.706   1.201
68155W        W40415  12.804  25.409  13.322
68156W        W40416  34.898  34.575   2.730
68157W        W40417  39.063  16.218  13.526
68158W        W40418   0.890  12.645  11.685
68159W        W40419   5.295  38.534  11.672
68160W        W40420  28.501   5.797   1.725
68161W        W40421   1.806  13.343   4.581
68162W        W40422  30.697  35.650   0.422
68163W        W40423  29.413  22.425  10.201
68164W        W40424  20.420   6.170  14.322
68165W        W40425  33.285  35.381   3.780
68166W        W40426   4.937  34.776  14.310
68167W        W40427   1.747   3.330  12.562
68168W        W40428  33.453  13.698  14.489
68169W        W40429  39.344  32.271  14.527
68170W        W40430  36.506  38.023  11.499
68171W        W40431  28.008  31.088   2.807
68172W        W40432  43.795  19.733  13.195
68173W        W40433   4.232  14.917  11.509
68174W        W40434  28.238   2.033  12.879
68175W        W40435  20.250  17.512  12.587
68176W        W40436  41.709  36.448   3.779
68177W        W40437   8.270  26.021   0.787
68178W        W40438  37.299  18.903   2.360
68179W        W40439  43.231  18.804  13.920
68180W        W40440  30.109  42.363   0.212
68181W        W40441  41.441  33.424  11.602
68182W        W40442  34.507  22.302   2.391
68183W        W40443  33.763  31.702   1.801
68184W        W40444   7.239  14.044  13.699
68185W        W40445  36.361  17.248   5.296
68186W        W40446  23.027  19.521  13.100
68187W        W40447  35.379   2.411  14.837
68188W        W40448  14.932  12.579   3.302
68189W        W40449  17.240  15.206  13.747
68190W        W40450  42.635  26.583  11.264
68191W        W40451  32.104  15.708  12.488
68192W        W40452  32.000  20.044  14.964
68193W        W40453  42.382   9.309  11.006
68194W        W40454  31.112  22.999  12.877
68195W        W40455   0.316  28.586   0.369
68196W        W40456  36.754   3.775  13.906
68197W        W40457   2.641  21.902  12.365
68198W        W40458   6.998   9.271  14.395
68199W        W40459  19.905  17.115  11.315
68200W        W40460  35.166  23.023   2.936
68201W        W40461   7.542  43.403   0.816
68202W        W40462  40.776  26.535   2.644
68203W        W40463  33.655  26.467   4.613
68204W        W40464   1.370  39.166   1.593
68205W        W40465   5.068   7.449   0.075
68206W        W40466  34.601  23.991   2.775
68207W        W40467  18.976   1.364  14.036
68208W        W40468  21.059  14.512   2.202
68209W        W40469  13.061  27.673   4.540
68210W        W40470  42.502  12.372   0.768
68211W        W40471  34.835  22.133  11.729
68212W        W40472  24.502  25.720  10.976
68213W        W40473  38.077  13.931   2.665
68214W        W40474  33.495  39.547   0.266
68215W        W40475   7.000   5.277  13.494
68216W        W40476   6.844  24.981   1.917
68217W        W40477  32.514  34.957  11.625
68218W        W40478  13.645   0.755  14.530
68219W        W40479  29.154  25.335   4.113
68220W        W40480  33.845  29.891  13.854
68221W        W40481   9.283  24.321   3.270
68222W        W40482  38.891  17.481  12.979
68223W        W40483  25.770  42.085  11.213
68224W        W40484  39.298   6.192   2.052
68225W        W40485  21.780  14.373  13.286
68226W        W40486  41.249  28.229  14.263
68227W        W40487  29.500  44.446   1.376
68228W        W40488  22.972   7.466  12.699
68229W        W40489  40.223  34.086  14.022
68230W        W40490   0.269   5.217   0.670
68231W        W40491   6.290  27.549   3.926
68232W        W40492   7.909  27.611  10.183
68233W        W40493  27.929  31.988   5.051
68234W        W40494  37.987  21.524  12.916
68235W        W40495  37.978  39.481   2.626
68236W        W40496   8.444   7.794  14.054
68237W        W40497   9.204  25.114   3.623
68238W        W40498  26.468  19.821  14.352
68239W        W40499   0.829  32.587   3.536
68240W        W40500  36.175   5.823  11.123
68241W        W40501   4.666   4.970  14.915
68242W        W40502   6.686  14.387   1.869
68243W        W40503  42.402  44.054   4.508
68244W        W40504  32.563   1.372  10.369
68245W        W40505  29.208  13.291  11.801
68246W        W40506  28.077   8.604   0.318
68247W        W40507  41.787  28.074   2.742
68248W        W40508  29.642  22.610   1.823
68249W        W40509  32.887   1.763  11.544
68250W        W40510   8.444  25.530  13.470
68251W        W40511  32.636  31.917   1.209
68252W        W40512   1.723  17.977  11.655
68253W        W40513  40.221  24.947  13.821
68254W        W40514  35.575  12.905  13.848
68255W        W40515   4.707  15.725   1.389
68256W        W40516  26.402   3.974   4.132
68257W        W40517  14.641  41.038  11.583
68258W        W40518  16.087  12.044   2.454
68259W        W40519  14.933  35.084  10.220
68260W        W40520  16.667  34.341   1.347
68261W        W40521   3.840  41.161  13.515
68262W        W40522  41.817  30.886   0.506
68263W        W40523   9.172   8.527   2.675
68264W        W40524  23.920  31.358  10.494
68265W        W40525  35.923  26.061  13.326
68266W        W40526  20.453   2.957   4.921
68267W        W40527  38.826  37.130  12.857
68268W        W40528  37.284   7.394   4.934
68269W        W40529   6.787  28.544   3.210
68270W        W40530  36.816   8.673  14.037
68271W        W40531  43.681  29.023   4.357
68272W        W40532   6.284  36.644   3.200
68273W        W40533  20.263  17.656   3.992
68274W        W40534   2.312  10.476  13.963
68275W        W40535  43.107  25.989  12.022
68276W        W40536  24.255  21.019  11.122
68277W        W40537   2.946  11.672   1.738
68278W        W40538  42.463  37.773   4.520
68279W        W40539  35.378   5.261   4.112
68280W        W40540  14.573  11.292   2.708
68281W        W40541  36.059  31.619  13.046
68282W        W40542  24.263   0.929   3.469
68283W        W40543  35.960  10.578  10.449
68284W        W40544   9.523  22.124  11.980
68285W        W40545  29.974  32.605  12.878
68286W        W40546  16.838   0.909  12.833
68287W        W40547  13.213  32.214  12.933
68288W        W40548  39.072  30.154   0.719
68289W        W40549   5.297  22.935  13.916
68290W        W40550  10.777  16.756   0.667
68291W        W40551  38.356  24.091   2.341
68292W        W40552  14.657  35.967   0.321
68293W        W40553  44.008   7.682   4.808
68294W        W40554  25.986  37.079  13.497
68295W        W40555  39.965  22.045   2.000
68296W        W40556   4.099   0.057   2.967
68297W        W40557  42.732  32.495   1.348
68298W        W40558  28.412   7.600  11.471
68299W        W40559  33.351   9.016   2.134
68300W        W40560  12.706   2.858  12.041
68301W        W40561   2.782  34.525   4.438
68302W        W40562   0.732   2.382  11.461
68303W        W40563   5.933  25.392   0.838
68304W        W40564  38.829  38.839  10.434
68305W        W40565  31.634   0.347   4.903
68306W        W40566   9.943   3.509  11.837
68307W        W40567  13.717  21.479  10.604
68308W        W40568   3.002  23.136  10.615
68309W        W40569   2.116  41.330  14.294
68310W        W40570   5.473  21.168  11.267
68311W        W40571  21.660   8.349   0.698
68312W        W40572   9.244   1.716  14.060
68313W        W40573  28.577  37.363   5.014
68314W        W40574   9.784  12.774  14.072
68315W        W40575  29.115  28.354  14.112
68316W        W40576  34.425  14.865   1.449
68317W        W40577  20.331  21.238  10.121
68318W        W40578  22.705   4.600  14.981
68319W        W40579  15.599   2.730  12.160
68320W        W40580  24.408   8.783   0.956
68321W        W40581  29.847   6.721   0.015
68322W        W40582   9.179  34.987   2.771
68323W        W40583  24.650  33.833  11.994
68324W        W40584  23.784  18.466  11.358
68325W        W40585   9.810  43.890   1.755
68326W        W40586  19.030  25.169  13.395
68327W        W40587  25.633   8.600   0.222
68328W        W40588  31.447  11.236  11.144
68329W        W40589  23.256  12.394   2.403
68330W        W40590  26.196   9.787   1.986
68331W        W40591  44.424  36.322   5.016
68332W        W40592   2.295  37.110  13.106
68333W        W40593   8.278   7.751   0.375
68334W        W40594   1.908  22.519   2.199
68335W        W40595  11.141  15.266  10.748
68336W        W40596  36.249  24.820  11.357
68337W        W40597  20.322   5.837  11.124
68338W        W40598   4.945  19.990  11.524
68339W        W40599  25.626  38.848   3.320
68340W        W40600  44.892  20.001  14.431
68341W        W40601  39.011  43.766  14.956
68342W        W40602  28.629  13.357   0.759
68343W        W40603  21.523  39.890   0.034
68344W        W40604   5.208  30.494  14.370
68345W        W40605   4.290   2.729  10.729
68346W        W40606  21.378  20.111   1.182
68347W        W40607  13.808  12.799   2.936
68348W        W40608  14.148  30.201   2.624
68349W        W40609  37.280  14.874   2.874
68350W        W40610  25.584  41.559  11.540
68351W        W40611  21.302   7.824   1.887
68352W        W40612  35.349  35.537  13.437
68353W        W40613  35.354  42.272  13.034
68354W        W40614  32.646  41.916  10.615
68355W        W40615  34.121  33.636  14.506
68356W        W40616   3.809  20.527   2.742
68357W        W40617   8.366  23.022  11.968
68358W        W40618  38.628   8.780  12.649
68359W        W40619  19.663  38.859   9.790
68360W        W40620  40.818  22.593   2.165
68361W        W40621  36.866  14.664   3.131
68362W        W40622  18.353  29.676  14.313
68363W        W40623  40.266   0.422  14.424
68364W        W40624   3.870  11.223  11.660
68365W        W40625  29.437  39.955   1.110
68366W        W40626  31.361   1.945  12.638
68367W        W40627  22.053  30.187  13.207
68368W        W40628  37.526  22.915   2.456
68369W        W40629  17.582  22.553  11.547
68370W        W40630  34.055  28.987  13.434
68371W        W40631  42.695   3.986  12.520
68372W        W40632  17.559  21.211   0.001
68373W        W40633  38.795  12.831   2.827
68374W        W40634  34.312  36.472   0.293
68375W        W40635   1.378  43.169  14.192
68376W        W40636  28.924   1.918   0.015
68377W        W40637  35.957   2.463  13.419
68378W        W40638  32.375  17.313  11.616
68379W        W40639  35.586  13.711  14.510
68380W        W40640  38.757   1.332   4.911
68381W        W40641  42.958  31.148   3.421
68382W        W40642  31.131  33.454  11.610
68383W        W40643  26.080   0.005   4.719
68384W        W40644  16.027  29.019   0.512
68385W        W40645   5.430  24.125   2.231
68386W        W40646  42.445  37.359   4.224
68387W        W40647  18.056   3.340  11.478
68388W        W40648  31.388  40.496  11.424
68389W        W40649  42.007  39.818  14.358
68390W        W40650  24.111  32.916   0.015
68391W        W40651  19.270  21.346  11.037
68392W        W40652  19.590   0.755   2.682
68393W        W40653   3.812  15.502   2.827
68394W        W40654  39.007   6.627  14.754
68395W        W40655   1.676  25.314  10.640
68396W        W40656  23.277  14.130   1.801
68397W        W40657  34.368  30.135   3.179
68398W        W40658   1.864  23.760   0.721
68399W        W40659  28.581  36.054  13.018
68400W        W40660   4.679  13.256  10.860
68401W        W40661  42.605  42.333   0.780
68402W        W40662  39.609  17.813   4.093
68403W        W40663  35.966  28.606  11.646
68404W        W40664  43.011  12.710   3.658
68405W        W40665  33.459  29.577  10.728
68406W        W40666  30.653   5.453   0.716
68407W        W40667  24.252  27.188   2.297
68408W        W40668  18.507  32.799   0.923
68409W        W40669  21.012   5.933  14.254
68410W        W40670  24.540  15.204   4.039
68411W        W40671  27.650  41.960  10.603
68412W        W40672  34.982   1.234  12.548
68413W        W40673  30.113   8.232   4.467
68414W        W40674  23.334  39.429  14.477
68415W        W40675  28.526  37.774   3.701
68416W        W40676  29.647  13.400  12.024
68417W        W40677  38.408  28.739   2.094
68418W        W40678  38.398  39.358  14.107
68419W        W40679  27.057  14.281   3.592
68420W        W40680  24.770  28.084  12.629
68421W        W40681  16.773  34.845  12.858
68422W        W40682  22.703  34.615  13.026
68423W        W40683  14.401  34.466   1.642
68424W        W40684  23.666  20.485  10.350
68425W        W40685  36.259   7.269   2.701
68426W        W40686  13.788  26.592  11.509
68427W        W40687  17.321  37.304  14.264
68428W        W40688   9.070  28.172  10.936
68429W        W40689  29.657  32.477   0.187
68430W        W40690   3.485  39.806  13.306
68431W        W40691  26.624  42.372   4.728
68432W        W40692  33.495  37.329  14.987
68433W        W40693   6.887  17.232   4.632
68434W        W40694  21.694  43.572  10.784
68435W        W40695  41.454   5.310   4.556
68436W        W40696  31.021  44.716   1.476
68437W        W40697  38.478  41.879  11.208
68438W        W40698  38.957  16.038   3.139
68439W        W40699   4.507   1.009   3.751
68440W        W40700   6.175  25.055   4.210
68441W        W40701  43.019  13.688  14.728
68442W        W40702   2.333   7.917  14.845
68443W        W40703  30.024  12.587  12.076
68444W        W40704  12.542  17.569  11.865
68445W        W40705  29.013  40.262   1.045
68446W        W40706  39.919  37.424   1.783
68447W        W40707  37.941  14.961  13.820
68448W        W40708  18.101   9.308  13.298
68449W        W40709  24.461  15.713   2.332
68450W        W40710  15.722  41.049   4.964
68451W        W40711   0.312  11.843  14.093
68452W        W40712  31.707   2.788   4.417
68453W        W40713  31.146  37.937  13.755
68454W        W40714   9.128  28.536   4.224
68455W        W40715  20.345  30.502   4.906
68456W        W40716   9.819  34.496  13.305
68457W        W40717  28.467   0.869  10.622
68458W        W40718  11.780   8.060   4.307
68459W        W40719  31.592  28.722  14.779
68460W        W40720   6.963  25.143   3.751
68461W        W40721   5.732  44.478  12.639
68462W        W40722  20.125  34.436   3.138
68463W        W40723   7.879  17.331  13.980
68464W        W40724  19.776  38.098  12.779
68465W        W40725  44.448  16.606  13.627
68466W        W40726   0.835  36.895  14.817
68467W        W40727  15.087  11.858  10.591
68468W        W40728  41.739  33.354  11.060
68469W        W40729  40.531  23.687  13.106
68470W        W40730  36.915  29.957  13.961
68471W        W40731  25.812   4.843  11.408
68472W        W40732  33.012  27.687   1.251
68473W        W40733  28.534   2.297  12.071
68474W        W40734  11.103  10.420  11.545
68475W        W40735  19.294  20.970  13.510
68476W        W40736  21.716  39.045   3.890
68477W        W40737  32.921   7.304   1.190
68478W        W40738   9.782  39.962   1.345
68479W        W40739   8.599   4.392   1.720
68480W        W40740  29.088   2.851   4.176
68481W        W40741   1.092   1.963  10.218
68482W        W40742  28.122  25.982  11.852
68483W        W40743   0.247  23.570   4.775
68484W        W40744  25.880   9.114   2.656
68485W        W40745  24.014  41.550   1.666
68486W        W40746  28.561  14.730  11.635
68487W        W40747  42.544  10.794   3.364
68488W        W40748   9.321  21.081   0.866
68489W        W40749  42.808  43.495  14.278
68490W        W40750  40.565   1.721   4.702
68491W        W40751  34.396  17.812  13.948
68492W        W40752  14.847  17.100   2.288
68493W        W40753  25.411   8.142  14.496
68494W        W40754  44.517  31.489   1.782
68495W        W40755  32.091  13.314   2.820
68496W        W40756   9.886  36.293  13.022
68497W        W40757   9.082  20.152   4.232
68498W        W40758  34.959  36.904   2.767
68499W        W40759  21.437  34.142  14.271
68500W        W40760  30.994  23.794   0.879
68501W        W40761   8.185  33.546  13.356
68502W        W40762   8.699  19.133  11.633
68503W        W40763   1.151  41.131   1.298
68504W        W40764  41.258  15.527  13.421
68505W        W40765  20.127  38.337  11.328
68506W        W40766  29.029  14.592   1.630
68507W        W40767  20.251  16.974   4.594
68508W        W40768  16.768  21.510   0.781
68509W        W40769  40.122  39.806   1.476
68510W        W40770   4.828  36.627   3.202
68511W        W40771  15.654  39.587   0.034
68512W        W40772  21.203  16.879  12.477
68513W        W40773   7.161  33.849  13.030
68514W        W40774  16.929  23.132   4.231
68515W        W40775   0.170  19.012   2.289
68516W        W40776  31.992  41.848  11.173
68517W        W40777   2.559   0.934  12.089
68518W        W40778  10.390  17.203  12.478
68519W        W40779  35.496  17.414   0.827
68520W        W40780   7.296  12.602   1.775
68521W        W40781   9.681  27.158   4.572
68522W        W40782  21.581  44.809  14.081
68523W        W40783  41.931  30.795   4.327
68524W        W40784  41.949  37.513   4.318
68525W        W40785  11.940  33.525  10.679
68526W        W40786   5.969  43.487  12.764
68527W        W40787  12.266   4.506   0.051
68528W        W40788   3.374  34.943   4.974
68529W        W40789  29.513  31.013   3.773
68530W        W40790  10.235  33.740  13.389
68531W        W40791  41.023  21.128  13.599
68532W        W40792   1.511  35.999   3.134
68533W        W40793  40.799  33.813   1.386
68534W        W40794  23.993  12.586  13.419
68535W        W40795  18.953  18.648  13.061
68536W        W40796  25.203  21.267   0.919
68537W        W40797   6.903  37.102  13.535
68538W        W40798  12.977  40.773   4.188
68539W        W40799  35.022  42.066   1.456
68540W        W40800  31.593  10.712   0.979
68541W        W40801  30.147  19.221   4.572
68542W        W40802  29.073  11.452   4.789
68543W        W40803   7.818  19.158  12.798
68544W        W40804   8.652  24.193   0.785
68545W        W40805  29.959  33.961  11.694
68546W        W40806  27.965   2.606   2.452
68547W        W40807  37.625  39.985  14.933
68548W        W40808  37.115  10.623   1.811
68549W        W40809  11.834  15.705  10.701
68550W        W40810  25.548  37.566  10.999
68551W        W40811  30.444  43.141  10.413
68552W        W40812  35.087  38.886   0.307
68553W        W40813  15.193  27.759   1.870
68554W        W40814   1.033  42.253  13.792
68555W        W40815   0.971  12.129   2.287
68556W        W40816  27.782  29.411  11.980
68557W        W40817  22.504  33.931   3.629
68558W        W40818  22.142  25.289   3.755
68559W        W40819  24.789  12.933  14.481
68560W        W40820  10.606  22.220   2.401
68561W        W40821  30.001   6.902  12.392
68562W        W40822  13.361   5.259   3.773
68563W        W40823   9.922  38.079  10.966
68564W        W40824  26.146  44.730  14.954
68565W        W40825  22.626   3.679  12.997
68566W        W40826  23.819  16.810   1.457
68567W        W40827   1.372  22.251  13.370
68568W        W40828  43.321  19.764   0.881
68569W        W40829  40.934   7.919   0.956
68570W        W40830  39.395   9.878  13.273
68571W        W40831  31.399  41.270   3.737
68572W        W40832  38.858   5.827   4.182
68573W        W40833  39.396  11.702   1.700
68574W        W40834  32.086  39.493   1.142
68575W        W40835  20.867  31.110  14.968
68576W        W40836  35.538  32.424   2.565
68577W        W40837  14.193  43.030  10.351
68578W        W40838   5.761   5.643   3.823
68579W        W40839   7.176  35.171   4.946
68580W        W40840  20.588   1.545   3.650
68581W        W40841  42.497   4.366  10.909
68582W        W40842  33.944  21.011  12.484
68583W        W40843  36.741  35.920   1.782
68584W        W40844  27.463  42.798  13.424
68585W        W40845  17.482  12.768   0.925
68586W        W40846  27.569   4.162  13.375
68587W        W40847  17.738   1.515   1.456
68588W        W40848  42.526  25.135  14.328
68589W        W40849  32.259   5.913   4.184
68590W        W40850  16.339  16.132   2.331
68591W        W40851   6.833  33.405  14.313
68592W        W40852  24.664  36.855   3.294
68593W        W40853  44.182   9.018   3.807
68594W        W40854  23.186  36.896  11.622
68595W        W40855  12.917  29.133   0.620
68596W        W40856  14.227  35.546  14.417
68597W        W40857  26.776  16.109  14.795
68598W        W40858  24.921  15.976   0.180
68599W        W40859  29.633   0.192   1.804
68600W        W40860  38.543  18.704   3.676
68601W        W40861   8.225  11.288   1.339
68602W        W40862  17.293  24.771  12.535
68603W        W40863   7.906  12.345   2.740
68604W        W40864   9.615  29.013   1.796
68605W        W40865  10.920  35.469   2.812
68606W        W40866   2.358  40.926   2.288
68607W        W40867   7.291  13.150  14.189
68608W        W40868  37.116  21.480  13.006
68609W        W40869   8.141  36.940  12.928
68610W        W40870  37.597   7.649   1.394
68611W        W40871  31.442  17.748   3.204
68612W        W40872  38.883  17.963   4.621
68613W        W40873  37.015  44.986   3.534
68614W        W40874  26.449  29.030  11.109
68615W        W40875  41.436  26.516   4.573
68616W        W40876  10.321  12.260   1.926
68617W        W40877  25.067  36.994  12.574
68618W        W40878  23.561  33.526  11.969
68619W        W40879  11.330   9.141   2.132
68620W        W40880  10.749  26.836   1.218
68621W        W40881  36.561  44.214  13.892
68622W        W40882  25.625  35.453   3.863
68623W        W40883   1.893  15.726  11.620
68624W        W40884  38.499  18.556   0.258
68625W        W40885  29.559  18.504  12.916
68626W        W40886  32.912  17.605  13.955
68627W        W40887  33.883  15.919   3.090
68628W        W40888  11.729  19.097   3.085
68629W        W40889  27.869  36.943   4.151
68630W        W40890   3.535  30.078   4.139
68631W        W40891   2.534   3.823   2.762
68632W        W40892  29.906  22.347   1.458
68633W        W40893  43.377  11.814   0.409
68634W        W40894  33.195  10.199   4.946
68635W        W40895  11.613  17.272  14.746
68636W        W40896  33.112   0.521  12.013
68637W        W40897  26.126  18.530  11.529
68638W        W40898  35.218  43.815   1.519
68639W        W40899  30.061  32.029  12.062
68640W        W40900  12.182   7.936   3.737
68641W        W40901   1.332  24.941   1.395
68642W        W40902  43.097  16.146   2.351
68643W        W40903  29.148  37.091  12.986
68644W        W40904  43.073   2.267  13.163
68645W        W40905   1.953  40.786  13.533
68646W        W40906  37.043  34.164  11.165
68647W        W40907  23.777  10.017  12.563
68648W        W40908   2.122  36.538  14.291
68649W        W40909  37.000  37.431  12.053
68650W        W40910   5.796   5.477   1.016
68651W        W40911  23.444  34.465  11.190
68652W        W40912   2.293  24.954  13.143
68653W        W40913  38.054  37.872  13.942
68654W        W40914   5.260   2.651  10.675
68655W        W40915  33.031  28.865   2.652
68656W        W40916  42.899  25.195   2.182
68657W        W40917   4.498  13.962  14.431
68658W        W40918  24.740  34.901  11.167
68659W        W40919  37.625  11.519   2.301
68660W        W40920  16.334   7.612   9.895
68661W        W40921  33.948  15.072   1.296
68662W        W40922  41.796  25.101   0.404
68663W        W40923  20.452  40.365   3.131
68664W        W40924  38.315  18.869  13.940
68665W        W40925  42.502   5.718   2.206
68666W        W40926  33.362  14.111   1.758
68667W        W40927   2.700  43.728   4.053
68668W        W40928  27.212  12.396   3.281
68669W        W40929  38.500  11.069  10.264
68670W        W40930  34.459  26.970   3.917
68671W        W40931  18.437  32.520   3.964
68672W        W40932  34.758  20.792   1.429
68673W        W40933  28.944  28.467   4.750
68674W        W40934  40.999  40.558  12.489
68675W        W40935  10.682  27.675   4.107
68676W        W40936  21.950  19.007   0.468
68677W        W40937  15.792  37.694  10.269
68678W        W40938  36.847  38.368   3.632
68679W        W40939  33.877  37.786   0.847
68680W        W40940  42.464   1.087  14.082
68681W        W40941   3.494   0.398  13.358
68682W        W40942  25.546  43.044   1.447
68683W        W40943  35.649  23.172  11.608
68684W        W40944  34.644  24.517   4.319
68685W        W40945  40.350  37.650   2.822
68686W        W40946  18.218  13.406  13.360
68687W        W40947  34.652  16.254  14.784
68688W        W40948  30.108  29.414  12.580
68689W        W40949  19.515   7.217  10.977
68690W        W40950  40.524  20.295   4.553
68691W        W40951  27.481  38.524  11.268
68692W        W40952   0.695  34.580  10.635
68693W        W40953  25.290  11.619  10.755
68694W        W40954  16.232  17.461   5.546
68695W        W40955   6.920  11.378  12.730
68696W        W40956  20.257  18.155   1.856
68697W        W40957  41.327  38.633   0.757
68698W        W40958  34.458  39.893   3.201
68699W        W40959   6.050  29.578  11.576
68700W        W40960   7.615   3.988   4.138
68701W        W40961   6.396  29.478   2.763
68702W        W40962  21.173  43.493  13.029
68703W        W40963  44.055  19.047  13.954
68704W        W40964  40.497  36.548  11.016
68705W        W40965  32.874   6.814  12.332
68706W        W40966  36.411  14.104  13.641
68707W        W40967  43.374  15.603  12.452
68708W        W40968  27.506  18.115  14.988
68709W        W40969  41.718  15.756  14.249
68710W        W40970  18.403  12.220  12.432
68711W        W40971  36.428  39.317  14.460
68712W        W40972  38.458  30.500  10.824
68713W        W40973   5.826  43.050  10.644
68714W        W40974  31.939  26.524   4.328
68715W        W40975  17.519  17.271  11.049
68716W        W40976  20.607  13.313  13.333
68717W        W40977  29.928  41.956  12.914
68718W        W40978  26.263   0.720  11.813
68719W        W40979  30.193  44.391   2.451
68720W        W40980   5.285  22.061   3.638
68721W        W40981  28.173  36.459   4.848
68722W        W40982   9.303   3.387   4.525
68723W        W40983  30.891  23.617  10.674
68724W        W40984  19.109   8.054   1.574
68725W        W40985  40.479  43.173  10.298
68726W        W40986  21.801   8.876  12.564
68727W        W40987  36.530  28.614   1.705
68728W        W40988  42.365  23.579   2.753
68729W        W40989  18.038   0.476  10.692
68730W        W40990  13.997   3.267  12.121
68731W        W40991  32.849  37.553  10.698
68732W        W40992  11.314  29.885  12.047
68733W        W40993  14.141  25.144   0.158
68734W        W40994  25.122   3.227  11.243
68735W        W40995  16.037  16.170   3.538
68736W        W40996   8.176  15.073   4.325
68737W        W40997  40.070  26.605   3.242
68738W        W40998  38.441  33.512   3.914
68739W        W40999   8.999  43.839  10.583
68740W        W41000  40.508  43.597  12.042
68741W        W41001  14.320  34.274  14.304
68742W        W41002  17.098   5.815   2.332
68743W        W41003  34.315  32.974  11.479
68744W        W41004   9.415   6.892   2.345
68745W        W41005  44.495  20.251  13.461
68746W        W41006  14.864  40.995  12.856
68747W        W41007  36.767  17.693  14.466
68748W        W41008  42.139  18.863   0.420
68749W        W41009   2.317  17.756  12.951
68750W        W41010  32.534   1.041   2.858
68751W        W41011   0.298  21.109  12.764
68752W        W41012  21.559   1.873  12.638
68753W        W41013  24.769  44.208   1.874
68754W        W41014  16.554  13.035  13.683
68755W        W41015  34.634  42.333  14.690
68756W        W41016  27.145  22.779   4.194
68757W        W41017   4.452  12.848  11.992
68758W        W41018  32.461  44.612   0.251
68759W        W41019  20.522   2.654  12.672
68760W        W41020   0.503  26.250  12.362
68761W        W41021  40.567   2.544   1.270
68762W        W41022  35.431  25.361  12.413
68763W        W41023  27.965   6.852   1.349
68764W        W41024  29.030  41.275   3.653
68765W        W41025  34.005  39.647   4.253
68766W        W41026  12.853  20.230  10.872
68767W        W41027  34.799  35.136  13.162
68768W        W41028  38.365  10.505  13.993
68769W        W41029  38.131  12.087   3.482
68770W        W41030   4.978  35.974  11.115
68771W        W41031  38.492  12.651  10.668
68772W        W41032  16.150  11.694  11.982
68773W        W41033  35.917  25.031  13.158
68774W        W41034  41.010  43.460  14.115
68775W        W41035  44.690   6.414   4.693
68776W        W41036  10.848  10.597   1.729
68777W        W41037  37.902  35.815   2.840
68778W        W41038  39.751  15.255   4.443
68779W        W41039  24.770  27.742  12.191
68780W        W41040  38.967  11.877   0.578
68781W        W41041   0.498   8.252   2.210
68782W        W41042   1.951   2.627  14.894
68783W        W41043  44.921  44.592   4.144
68784W        W41044  12.395   6.872   2.780
68785W        W41045   1.550  25.811  10.991
68786W        W41046  25.629   0.021  13.329
68787W        W41047  30.608  37.084  13.921
68788W        W41048  27.050  44.942  10.658
68789W        W41049  25.161  29.228  12.107
68790W        W41050  16.667   8.795   0.638
68791W        W41051  34.558  40.853   0.708
68792W        W41052   2.580  21.359   4.602
68793W        W41053  39.256  22.245  11.824
68794W        W41054  35.428   3.185  14.550
68795W        W41055   3.164  26.262  11.188
68796W        W41056  31.794  39.889   1.937
68797W        W41057  20.464  22.271   4.170
68798W        W41058   8.849  40.687   2.748
68799W        W41059  28.181  43.872   4.702
68800W        W41060   6.132  29.839   2.996
68801W        W41061  33.912  34.614  13.343
68802W        W41062  25.486   3.739   3.534
68803W        W41063  36.380   4.819   3.345
68804W        W41064  19.089  40.327  12.613
68805W        W41065  22.539  17.750   4.649
68806W        W41066  36.592  25.442   2.292
68807W        W41067  36.002  21.215   0.949
68808W        W41068  17.265   0.129  11.835
68809W        W41069  43.968  21.296   0.400
68810W        W41070  10.087   9.664   0.795
68811W        W41071   6.333   0.977   3.517
68812W        W41072  18.799   4.188   4.626
68813W        W41073   5.611  43.964  12.477
68814W        W41074  43.807  35.511   1.555
68815W        W41075  43.095  12.369  12.451
68816W        W41076  39.569  40.918   1.386
68817W        W41077  28.817  34.541  11.240
68818W        W41078   7.428  10.805   1.436
68819W        W41079  25.616   0.297  14.299
68820W        W41080   2.412  20.202  12.464
68821W        W41081  44.311   3.361   4.411
68822W        W41082   1.770   5.900  13.315
68823W        W41083  11.658  38.536   2.360
68824W        W41084  14.734  36.937  14.061
68825W        W41085  20.064  37.397   2.826
68826W        W41086  20.111   7.706   9.800
68827W        W41087  19.633  14.288  10.280
68828W        W41088  24.869   7.841   0.845
68829W        W41089  35.385  18.671   0.909
68830W        W41090  39.940  19.340  12.480
68831W        W41091  28.265  12.392  12.882
68832W        W41092  20.141  44.540   4.802
68833W        W41093   3.406  38.417  11.514
68834W        W41094  37.041  40.601  11.469
68835W        W41095  38.478  18.183  12.606
68836W        W41096   4.840   1.058  13.123
68837W        W41097  32.480  30.083   3.731
68838W        W41098  40.349  23.642  11.172
68839W        W41099  19.286  36.544   0.424
68840W        W41100  37.455  26.196   1.918
68841W        W41101  13.820   1.619  11.112
68842W        W41102  22.115  17.064   3.485
68843W        W41103  44.404  43.857   2.188
68844W        W41104  18.155  29.209  11.462
68845W        W41105  30.423  21.733  13.788
68846W        W41106  44.759  44.091  12.541
68847W        W41107  14.561  13.785   9.810
68848W        W41108  43.353  28.077  12.804
68849W        W41109  41.950  28.995   1.305
68850W        W41110  22.426  35.485  14.790
68851W        W41111   2.869   1.825   3.865
68852W        W41112  28.946  10.728   4.558
68853W        W41113   6.511  30.927  11.510
68854W        W41114  43.605  39.545  13.073
68855W        W41115  17.663  35.524  12.939
68856W        W41116  36.924   3.731   4.161
68857W        W41117  41.961  38.327  12.185
68858W        W41118  10.813  34.107   3.043
68859W        W41119  32.883  44.817   4.300
68860W        W41120  34.517  13.667  11.159
68861W        W41121   2.839   0.134   4.696
68862W        W41122  22.931  23.167   0.487
68863W        W41123  30.615  10.714   3.923
68864W        W41124   9.178  44.344   2.345
68865W        W41125  41.921  20.542   2.361
68866W        W41126  10.614  25.584   0.426
68867W        W41127   7.949  36.031  14.370
68868W        W41128  19.962  22.620   2.587
68869W        W41129   2.407  40.365  14.463
68870W        W41130  25.684  27.077   3.514
68871W        W41131  35.254  29.449   4.565
68872W        W41132   0.042  28.129  13.864
68873W        W41133  24.343  18.579   5.264
68874W        W41134   1.461  22.221  12.189
68875W        W41135   1.017  24.552  12.437
68876W        W41136  39.038  29.551   1.426
68877W        W41137   0.912  39.830   2.237
68878W        W41138  20.106  31.694   0.977
68879W        W41139   8.025  33.816   2.788
68880W        W41140   2.374  39.122   3.261
68881W        W41141  37.027  36.036  13.797
68882W        W41142   5.802  33.038   4.078
68883W        W41143  33.386  22.548  11.557
68884W        W41144  39.445   8.231  13.315
68885W        W41145  43.509  44.377   0.725
68886W        W41146   4.993  35.667  12.959
68887W        W41147   8.627   7.004   2.954
68888W        W41148  33.652  22.590  13.958
68889W        W41149  24.025  33.795  14.428
68890W        W41150   3.791   5.748   4.573
68891W        W41151  18.295  19.471  14.719
68892W        W41152  31.909  12.256  14.964
68893W        W41153  28.232  22.611   1.487
68894W        W41154  22.410  31.223   1.298
68895W        W41155   6.889  34.018  11.675
68896W        W41156  41.836  37.362   3.822
68897W        W41157  27.514  14.605   4.871
68898W        W41158  19.354  17.779  11.125
68899W        W41159  38.976   2.503  10.528
68900W        W41160  41.889  24.547  10.812
68901W        W41161  33.118  10.029  12.910
68902W        W41162   3.832   2.150  14.354
68903W        W41163  30.626  38.654  12.975
68904W        W41164  32.648  31.511   2.779
68905W        W41165   2.319   8.887  13.901
68906W        W41166  24.260  22.760  12.876
68907W        W41167  19.164   4.846  11.101
68908W        W41168  36.373  30.894   0.247
68909W        W41169  23.699  43.014  10.636
68910W        W41170   6.648  16.430   4.164
68911W        W41171  10.626   0.381  12.923
68912W        W41172  13.704  33.935  14.486
68913W        W41173  18.653  17.056   0.743
68914W        W41174  26.036   8.913  11.840
68915W        W41175  31.864   7.231   0.364
68916W        W41176  34.104  36.623   1.988
68917W        W41177  12.611  22.015   4.228
68918W        W41178   8.155  14.752  14.941
68919W        W41179   3.403  20.806  13.399
68920W        W41180  13.331   8.856   3.628
68921W        W41181  44.348  26.618   4.507
68922W        W41182  33.979  10.335  14.921
68923W        W41183  36.100  29.526   3.977
68924W        W41184  28.931  24.276   1.236
68925W        W41185  15.887   2.347   2.410
68926W        W41186  42.187  39.841   2.814
68927W        W41187   6.955  32.526   3.813
68928W        W41188  40.572  24.296  14.969
68929W        W41189  21.784  18.664   9.809
68930W        W41190  15.284   7.249  10.642
68931W        W41191  33.856  44.939  11.137
68932W        W41192   7.792  22.640   4.172
68933W        W41193  41.009  42.118   0.132
68934W        W41194  13.116  20.575  14.252
68935W        W41195   2.154  14.979  11.594
68936W        W41196  19.738   0.953  14.939
68937W        W41197  36.483  27.374  14.762
68938W        W41198  38.328  44.224  12.130
68939W        W41199  22.927  11.400  10.864
68940W        W41200   4.447  13.077  13.510
68941W        W41201  26.448  29.105  12.378
68942W        W41202  37.151  39.583   3.683
68943W        W41203  32.053  30.444  14.302
68944W        W41204  27.894  12.975   4.107
68945W        W41205  35.463  33.103   1.328
68946W        W41206  13.388  10.259   4.641
68947W        W41207  18.853  41.457  10.774
68948W        W41208  16.640  25.650   4.361
68949W        W41209  34.257   5.336   0.443
68950W        W41210  10.783   0.274   4.406
68951W        W41211  12.654   0.563  13.920
68952W        W41212  26.566  14.526   4.108
68953W        W41213  10.099  22.210   2.535
68954W        W41214   7.516  25.030  13.738
68955W        W41215  35.400  28.815   1.174
68956W        W41216  22.264  40.407  14.835
68957W        W41217  18.001  31.522   2.750
68958W        W41218  26.387  23.926  14.897
68959W        W41219  38.046   9.148  12.026
68960W        W41220  18.227  30.359  13.546
68961W        W41221  12.242  32.921   4.019
68962W        W41222  23.284  19.748   3.583
68963W        W41223  21.192   2.486   0.071
68964W        W41224  32.115   7.526  14.922
68965W        W41225  41.254  26.110  12.204
68966W        W41226  36.458  10.308  11.476
68967W        W41227  43.716   3.802  12.539
68968W        W41228  41.325   0.539  12.162
68969W        W41229  44.452  36.633   3.343
68970W        W41230  10.755   6.425  11.023
68971W        W41231  25.442  40.625  14.415
68972W        W41232   6.787  25.450  14.618
68973W        W41233  26.001  20.990   4.473
68974W        W41234  17.701  14.885   3.563
68975W        W41235  11.699  13.230  11.223
68976W        W41236  21.135  33.416  10.883
68977W        W41237   4.355  29.140  13.567
68978W        W41238  10.229   0.946   1.150
68979W        W41239   9.784  26.676   3.685
68980W        W41240   6.842  26.329  12.504
68981W        W41241  19.604  34.406   4.605
68982W        W41242  31.073  26.443   3.914
68983W        W41243   6.385  24.291  11.157
68984W        W41244  14.992   8.597   2.866
68985W        W41245  30.016  15.281  12.580
68986W        W41246  21.204   8.322   0.999
68987W        W41247  16.065  38.798  10.738
68988W        W41248   3.204  31.452   3.725
68989W        W41249   6.807  34.402  14.311
68990W        W41250   0.368  10.950   2.342
68991W        W41251  20.590  27.070  12.323
68992W        W41252  35.889  10.628  11.917
68993W        W41253  33.573  26.020   2.911
68994W        W41254  14.214  22.233   4.860
68995W        W41255  16.171  26.139   0.324
68996W        W41256  36.896  39.109   0.793
68997W        W41257  35.606  36.265  10.696
68998W        W41258  40.532  24.013   3.153
68999W        W41259  43.297  18.567   3.181
69000W        W41260   7.895  36.906   3.338
69001W        W41261  43.084  13.672  14.214
69002W        W41262  26.556   6.650  12.059
69003W        W41263  15.199  28.855   4.568
69004W        W41264   8.489  16.890   1.415
69005W        W41265  22.635  13.713  13.290
69006W        W41266  33.613  13.109  13.892
69007W        W41267  27.813  13.164   3.121
69008W        W41268  24.997  39.981   4.656
69009W        W41269  35.858  30.114  13.929
69010W        W41270  25.134  15.230  10.703
69011W        W41271  31.375  11.097   4.598
69012W        W41272   4.544  18.684  13.045
69013W        W41273  40.936  15.348  11.188
69014W        W41274   6.638  35.968  14.898
69015W        W41275  43.807  42.493   2.736
69016W        W41276  23.612   1.887  13.287
69017W        W41277  40.265  28.544  13.355
69018W        W41278   4.005  34.465   3.688
69019W        W41279  13.811  33.289   3.359
69020W        W41280  16.697  42.491   4.849
69021W        W41281  32.618  27.030   1.341
69022W        W41282   8.560  27.524  11.572
69023W        W41283  38.359  21.161  14.105
69024W        W41284  27.688  20.615   3.562
69025W        W41285  14.043  13.251   4.121
69026W        W41286  33.993  13.097  14.801
69027W        W41287   6.571  19.329  12.986
69028W        W41288  43.240   4.008  14.241
69029W        W41289  28.925  15.611  14.432
69030W        W41290  15.560  24.202  14.500
69031W        W41291   3.268  31.368   4.635
69032W        W41292  32.402   2.140  13.756
69033W        W41293  43.708  32.000   0.755
69034W        W41294  34.589  38.387   3.361
69035W        W41295  44.669  18.318  13.565
69036W        W41296   0.768  25.488   0.384
69037W        W41297  41.290  31.061  12.514
69038W        W41298  12.394  29.953   0.940
69039W        W41299  36.924  36.440  14.673
69040W        W41300  41.572  30.087   1.514
69041W        W41301   4.239  13.829  12.200
69042W        W41302  21.633   4.694  10.980
69043W        W41303  21.195  34.102   0.534
69044W        W41304   4.752  39.776  13.203
69045W        W41305  44.255  44.080  10.518
69046W        W41306  29.942  15.645   0.996
69047W        W41307  36.022   9.156  10.716
69048W        W41308  25.757  29.466   0.907
69049W        W41309  41.976  36.316   4.686
69050W        W41310  34.126  41.046   0.453
69051W        W41311  15.354  20.762   3.727
69052W        W41312  37.958  20.346   0.478
69053W        W41313  42.977  29.200   3.250
69054W        W41314  18.233   7.996   1.679
69055W        W41315  31.555  43.579   1.436
69056W        W41316  21.111  33.022   3.628
69057W        W41317  11.954  14.812  12.044
69058W        W41318  23.558   4.147   3.280
69059W        W41319  22.352  27.622  10.940
69060W        W41320  37.108  44.847   2.083
69061W        W41321  21.486  26.630  12.588
69062W        W41322   2.780   2.229  12.323
69063W        W41323  43.304  23.133   0.371
69064W        W41324  11.714  13.842   0.500
69065W        W41325  35.870   0.204  14.763
69066W        W41326  29.215  16.797   4.572
69067W        W41327  41.778  19.159  12.499
69068W        W41328   5.462  41.732  14.333
69069W        W41329   1.889  39.398  11.876
69070W        W41330  14.554  29.360  10.677
69071W        W41331  17.222   3.709  14.775
69072W        W41332   5.865   2.061   4.552
69073W        W41333   7.326  36.291  13.385
69074W        W41334  19.714  16.792  12.226
69075W        W41335  12.865  30.161   3.834
69076W        W41336  40.530  37.049   4.460
69077W        W41337  19.167  41.035  14.792
69078W        W41338   8.781  22.303  11.549
69079W        W41339  38.011  10.150  13.562
69080W        W41340   3.741  39.574   2.317
69081W        W41341  33.086  15.858   3.686
69082W        W41342  18.052   8.847  11.470
69083W        W41343  22.072  26.102   2.750
69084W        W41344   5.924  40.016  11.641
69085W        W41345   6.404  26.490  10.668
69086W        W41346  16.515  26.411  10.731
69087W        W41347  38.571  13.702  14.503
69088W        W41348   8.316  32.486  14.477
69089W        W41349  42.550  33.951   3.573
69090W        W41350  42.544   1.425   1.284
69091W        W41351  24.430  36.979   0.886
69092W        W41352  10.677  23.642   3.528
69093W        W41353   2.932  23.010   2.239
69094W        W41354  33.091  27.503   4.602
69095W        W41355   6.001  27.102  12.118
69096W        W41356  34.962  39.503   0.376
69097W        W41357  10.397  25.120   0.351
69098W        W41358  17.482  14.580  12.799
69099W        W41359  38.771  13.208   2.461
69100W        W41360  30.554  15.188   3.460
69101W        W41361  10.756   0.727   4.149
69102W        W41362  38.119   6.463   9.987
69103W        W41363   0.499  39.320   1.393
69104W        W41364  42.854   8.350  13.543
69105W        W41365   9.320  23.071  12.359
69106W        W41366   3.143  36.851  13.260
69107W        W41367  35.495  10.167  11.253
69108W        W41368  13.383   1.907  10.847
69109W        W41369  37.575  19.326   2.404
69110W        W41370  26.987  40.264  12.100
69111W        W41371  37.705  35.413   1.112
69112W        W41372  36.067   0.921  12.496
69113W        W41373  41.743   1.873   0.399
69114W        W41374  36.428  39.491   3.247
69115W        W41375  36.222   7.286   0.461
69116W        W41376  20.698  42.428   0.329
69117W        W41377  35.262  22.489  14.867
69118W        W41378   2.161  16.475  11.413
69119W        W41379  23.683  19.659  14.238
69120W        W41380  44.838  26.468   0.720
69121W        W41381  22.962   9.212   0.475
69122W        W41382  15.825  25.524   2.014
69123W        W41383  12.847  43.281  11.047
69124W        W41384  37.514  25.030  11.147
69125W        W41385  24.580  30.798  12.671
69126W        W41386   8.097  34.961   1.405
69127W        W41387  40.524  18.852   1.356
69128W        W41388  25.965   1.547  12.769
69129W        W41389  28.619  41.453  13.057
69130W        W41390  23.206  20.367  14.969
69131W        W41391  31.311  33.469   2.664
69132W        W41392   2.475   0.749   1.637
69133W        W41393  30.623  19.674   2.732
69134W        W41394  36.879   7.369   1.380
69135W        W41395  27.035  37.014  13.850
69136W        W41396  40.373  32.194  11.958
69137W        W41397  37.630  24.352  12.132
69138W        W41398   0.276  41.789   0.544
69139W        W41399  29.420  39.872  14.305
69140W        W41400   0.915  11.696  10.722
69141W        W41401   7.384   9.597   3.689
69142W        W41402  31.702  31.417   5.010
69143W        W41403  39.344  34.092  14.068
69144W        W41404  39.932   8.966   0.186
69145W        W41405  31.622  28.201   1.260
69146W        W41406  42.755  43.747  11.621
69147W        W41407  37.542  43.295  12.911
69148W        W41408   3.293  36.668   4.959
69149W        W41409  44.257  43.964   4.910
69150W        W41410  34.899  41.190   5.040
69151W        W41411  42.429  18.551  12.779
69152W        W41412  31.466  32.134  12.081
69153W        W41413   0.823   9.620  14.832
69154W        W41414  24.105  16.098   3.162
69155W        W41415  28.502   8.268   4.050
69156W        W41416   4.249   4.705   3.676
69157W        W41417   2.173  13.628   4.787
69158W        W41418   6.256   0.874   0.861
69159W        W41419  42.021  44.053  11.209
69160W        W41420  23.140  40.529  13.366
69161W        W41421  16.911   7.071  11.569
69162W        W41422  34.789   7.353   4.554
69163W        W41423   9.365  16.967   1.879
69164W        W41424   4.676  26.415  13.008
69165W        W41425  33.530  28.164  13.501
69166W        W41426   6.447  27.728  13.218
69167W        W41427  31.768  26.442  11.844
69168W        W41428   8.909   9.777   1.880
69169W        W41429  22.943  31.680  14.239
69170W        W41430  27.025  38.136  13.926
69171W        W41431   8.313  18.557  12.957
69172W        W41432  37.963  18.674  13.589
69173W        W41433   4.749   4.779  11.384
69174W        W41434  40.589  36.520  12.403
69175W        W41435  24.541  43.078   4.759
69176W        W41436  12.321  12.679  11.905
69177W        W41437  13.307  33.886  10.595
69178W        W41438  41.334  38.571  12.895
69179W        W41439  16.563  26.685  13.084
69180W        W41440  39.295  18.242   4.006
69181W        W41441   2.077  36.308  11.583
69182W        W41442   6.792  23.981  12.756
69183W        W41443   8.276  19.327   4.335
69184W        W41444   2.995  31.830  11.150
69185W        W41445  14.160  19.814   0.327
69186W        W41446  17.531   6.356  12.137
69187W        W41447  21.704  19.179  14.911
69188W        W41448  36.630   7.675  10.439
69189W        W41449  30.145  32.641   0.223
69190W        W41450  36.546  27.713   0.190
69191W        W41451  38.622  15.763   4.107
69192W        W41452  17.976  35.874  11.542
69193W        W41453   2.480  29.528  14.309
69194W        W41454  21.969  27.668   2.716
69195W        W41455  16.150  34.548  14.729
69196W        W41456  22.649  24.703  12.105
69197W        W41457  14.382  18.703   3.487
69198W        W41458  30.608  13.300  11.952
69199W        W41459  34.110  43.964  13.292
69200W        W41460  36.826  39.345   1.288
69201W        W41461  36.650  23.479   2.375
69202W        W41462  13.932  41.533  10.418
69203W        W41463  13.758  29.472  14.056
69204W        W41464   1.477  22.031   2.832
69205W        W41465  41.364  35.573  12.817
69206W        W41466  41.539  14.674   1.043
69207W        W41467  16.607  40.021  11.155
69208W        W41468  18.157  11.188  14.317
69209W        W41469   7.886  32.826   4.122
69210W        W41470   6.942  27.757  14.913
69211W        W41471  25.195  22.530   4.205
69212W        W41472  33.853  39.297  12.876
69213W        W41473  36.200  42.948  13.978
69214W        W41474  33.981  18.930  12.828
69215W        W41475  28.592  26.586   2.940
69216W        W41476  30.963   1.374   0.654
69217W        W41477  14.805  28.015   1.624
69218W        W41478  15.939  36.501   0.941
69219W        W41479  26.524  17.608  12.315
69220W        W41480  11.594  22.012   0.070
69221W        W41481  22.017  44.868  14.330
69222W        W41482  27.539  13.895   0.616
69223W        W41483  39.416  17.637  12.699
69224W        W41484  29.038  38.071  14.034
69225W        W41485  29.934   6.969  11.554
69226W        W41486  43.948   9.197   1.634
69227W        W41487  40.419  12.840  12.651
69228W        W41488   8.638  12.495   1.543
69229W        W41489  39.807  44.737   2.909
69230W        W41490   7.600  12.270  13.864
69231W        W41491  10.822  28.594   3.054
69232W        W41492  43.652  39.856  11.570
69233W        W41493   6.518  41.295   9.659
69234W        W41494  19.681  31.358  13.850
69235W        W41495  14.647  36.993   2.711
69236W        W41496  43.415  31.511  11.563
69237W        W41497  30.170   4.186  12.937
69238W        W41498   7.331  36.924  10.773
69239W        W41499  25.885  42.319  10.482
69240W        W41500  35.827  20.650   3.601
69241W        W41501  41.431  38.097   0.176
69242W        W41502  14.175  21.504  13.791
69243W        W41503  44.010  17.847  11.110
69244W        W41504   5.182  16.192  13.364
69245W        W41505  38.079  20.645  14.506
69246W        W41506  11.543  22.037  12.456
69247W        W41507  22.032  39.277   1.922
69248W        W41508  19.241  10.915   3.240
69249W        W41509   6.778   1.785   4.636
69250W        W41510  40.544  43.871   2.240
69251W        W41511  39.216  33.224  12.561
69252W        W41512  30.127   8.804  11.155
69253W        W41513  19.196  18.031   1.487
69254W        W41514  18.395  27.847  12.474
69255W        W41515  26.504  11.211   2.898
69256W        W41516  20.610  40.834   2.942
69257W        W41517  38.854  29.400   2.902
69258W        W41518  43.902  36.072  14.763
69259W        W41519  27.906  14.243  11.958
69260W        W41520  31.784  18.654  14.944
69261W        W41521  18.565  16.096  11.232
69262W        W41522   0.260   5.173  14.784
69263W        W41523  21.817   4.515  14.884
69264W        W41524  39.987  24.685  12.032
69265W        W41525  16.726   7.783   4.219
69266W        W41526  40.666   9.300   0.463
69267W        W41527  38.324  13.179  10.617
69268W        W41528  11.175  40.452   3.569
69269W        W41529  26.072  19.703   3.332
69270W        W41530  16.354  33.174   4.188
69271W        W41531  18.714  23.754   0.441
69272W        W41532   0.368  12.308  13.872
69273W        W41533  34.383  13.601   0.868
69274W        W41534  32.870  26.625   3.118
69275W        W41535   7.469  17.098  13.761
69276W        W41536   6.324  37.121   4.536
69277W        W41537   0.771   0.732   3.593
69278W        W41538  33.371  20.966  10.175
69279W        W41539  41.919   9.526  11.644
69280W        W41540  32.002   1.895   1.471
69281W        W41541   1.917  11.178  12.187
69282W        W41542   2.275  15.526   4.760
69283W        W41543  26.551  40.923   1.635
69284W        W41544  22.038  13.842  11.153
69285W        W41545  40.355  43.948  13.961
69286W        W41546  15.747  41.472  11.148
69287W        W41547  36.801  13.582   1.715
69288W        W41548   1.880  17.649   0.003
69289W        W41549  37.067   0.274  12.465
69290W        W41550  29.609  41.853  13.410
69291W        W41551  42.069   2.999   3.283
69292W        W41552  15.730  11.435  13.857
69293W        W41553   3.841   4.477  10.413
69294W        W41554  31.567  31.760  13.137
69295W        W41555  40.306  17.481  11.565
69296W        W41556  27.941  38.944   4.388
69297W        W41557  43.967  42.142   4.109
69298W        W41558   9.967  27.752  12.398
69299W        W41559   0.840  12.267   3.598
69300W        W41560   6.867  15.679  12.992
69301W        W41561   8.647  18.365  14.446
69302W        W41562  12.839  29.471  14.276
69303W        W41563  16.655  36.104   0.599
69304W        W41564  10.138  34.146  13.102
69305W        W41565   1.072  14.578   4.382
69306W        W41566  33.877   0.794   4.641
69307W        W41567   0.002   6.729  11.394
69308W        W41568   0.489  44.761  13.843
69309W        W41569  17.493  43.241   1.600
69310W        W41570  34.639  41.762   3.667
69311W        W41571  10.837  16.837   3.209
69312W        W41572   0.821  31.146  12.394
69313W        W41573  27.688  18.301  12.589
69314W        W41574  33.890   2.872  12.015
69315W        W41575  29.039   3.264   1.469
69316W        W41576  14.817  36.411   4.607
69317W        W41577  17.177   2.885  13.072
69318W        W41578  18.659   9.122  12.390
69319W        W41579  16.539  31.933   1.892
69320W        W41580  27.458   5.674   4.120
69321W        W41581  31.035  19.630  11.483
69322W        W41582  11.660   6.373   4.124
69323W        W41583  19.485   4.820  11.510
69324W        W41584  36.789  16.317  12.989
69325W        W41585  10.136  40.212  11.165
69326W        W41586  35.085   2.852   4.587
69327W        W41587  39.980  28.488  10.992
69328W        W41588  10.160  19.793   2.872
69329W        W41589  40.584  16.642  10.460
69330W        W41590  28.556  18.658  13.526
69331W        W41591   2.386  39.972   1.908
69332W        W41592  25.327  11.850   0.182
69333W        W41593  40.165   4.413  13.621
69334W        W41594   2.983   4.226   4.922
69335W        W41595  31.171  10.784  10.469
69336W        W41596  18.780  32.859   4.172
69337W        W41597  22.510  26.876   2.392
69338W        W41598  36.066  40.854   0.983
69339W        W41599  29.091  35.355  11.428
69340W        W41600  35.587  20.737  14.388
69341W        W41601  18.578  20.061   3.691
69342W        W41602  11.568  25.102   0.838
69343W        W41603   4.661  43.465   5.078
69344W        W41604  11.460   0.225   2.249
69345W        W41605  37.957  19.731   3.752
69346W        W41606  12.279  36.104   0.166
69347W        W41607  22.010  19.498   2.308
69348W        W41608   8.763  39.830  12.494
69349W        W41609  43.458   3.411   1.332
69350W        W41610   3.599  22.121  13.845
69351W        W41611  19.170   5.159  10.665
69352W        W41612   1.162  37.013   1.445
69353W        W41613  43.419  30.113   4.517
69354W        W41614  21.253   1.012  13.593
69355W        W41615  25.042  16.401  11.693
69356W        W41616   6.695   0.420   0.238
69357W        W41617  33.611  40.055  10.788
69358W        W41618  10.022  28.172   4.967
69359W        W41619  12.759  29.430   2.264
69360W        W41620   2.154  13.100   0.563
69361W        W41621  37.038  27.471  13.124
69362W        W41622   5.255  22.012   4.673
69363W        W41623   6.977  15.785   1.996
69364W        W41624  44.961  32.011   4.536
69365W        W41625   3.987   1.360   0.777
69366W        W41626  13.342  19.065  11.994
69367W        W41627  30.928  41.523   3.699
69368W        W41628  13.851  27.464  12.798
69369W        W41629   0.065  19.816   1.844
69370W        W41630  23.560  19.710  11.993
69371W        W41631   0.364  40.500  11.588
69372W        W41632   4.368  42.788  13.792
69373W        W41633  15.256  20.460  12.860
69374W        W41634  12.104  14.578   0.819
69375W        W41635  26.608   4.790  12.220
69376W        W41636  22.471   3.442  12.493
69377W        W41637  41.014  13.456  10.940
69378W        W41638  32.397  42.566  12.142
69379W        W41639  30.971  32.013  12.034
69380W        W41640   2.697   8.697  10.716
69381W        W41641  21.772  14.285   2.895
69382W        W41642  39.732  24.890  13.949
69383W        W41643  20.584   8.103  11.503
69384W        W41644  31.174  27.183   3.670
69385W        W41645  13.709  30.484   1.839
69386W        W41646  18.090  18.539  14.856
69387W        W41647  12.702  10.639   2.391
69388W        W41648  40.454  17.060   0.764
69389W        W41649  12.469  30.595  11.965
69390W        W41650   3.962  25.240  11.287
69391W        W41651  12.122  24.510   0.482
69392W        W41652  33.059  14.259  10.492
69393W        W41653  31.811  39.649  12.852
69394W        W41654  24.788   5.893   3.816
69395W        W41655  27.466  14.274  12.257
69396W        W41656  24.778  40.960  12.013
69397W        W41657   4.775   9.525  12.799
69398W        W41658  27.688  26.124  14.536
69399W        W41659  16.738  14.755   0.268
69400W        W41660  32.568  23.690  12.325
69401W        W41661  39.998  42.579   2.851
69402W        W41662   5.876  10.556  12.857
69403W        W41663  15.977  16.721   4.678
69404W        W41664  29.041  11.875   2.231
69405W        W41665  20.254  14.098   2.511
69406W        W41666   8.001   8.319   2.758
69407W        W41667  13.376   7.353   1.232
69408W        W41668  20.708  27.109  14.691
69409W        W41669  24.540  44.362  11.556
69410W        W41670   3.172  32.912   4.589
69411W        W41671   6.874   0.964   0.039
69412W        W41672  15.106  41.082   2.229
69413W        W41673  33.355  43.988   0.295
69414W        W41674  27.117  14.387  11.412
69415W        W41675  26.257  36.936   1.785
69416W        W41676  29.218  33.442   3.544
69417W        W41677   7.881  44.230  10.642
69418W        W41678  33.597  33.587  14.498
69419W        W41679  25.654  39.360   1.713
69420W        W41680  25.008  39.582  12.643
69421W        W41681  16.596  29.035  12.459
69422W        W41682  19.754  19.113   2.381
69423W        W41683  42.207  16.866  12.872
69424W        W41684  31.007  32.375  11.136
69425W        W41685   5.017  39.735   2.220
69426W        W41686  12.626  24.720   4.163
69427W        W41687  28.698  20.104  13.892
69428W        W41688   5.943   5.908  12.462
69429W        W41689  13.701  42.053  14.386
69430W        W41690   8.207  17.912  11.503
69431W        W41691  43.248  22.031   3.142
69432W        W41692  16.251  30.706   0.564
69433W        W41693  42.871   2.387   1.277
69434W        W41694  11.177  18.910  10.732
69435W        W41695  10.980  14.718  12.123
69436W        W41696  36.364  26.549   3.681
69437W        W41697  23.046  40.910   4.452
69438W        W41698  12.614  44.941   1.699
69439W        W41699  24.617  10.123   2.711
69440W        W41700  16.242  23.165   1.351
69441W        W41701  16.627  14.586  13.943
69442W        W41702   8.564   6.853   0.188
69443W        W41703  14.777  37.798  11.154
69444W        W41704  34.842  18.582  13.974
69445W        W41705   3.806  23.311   0.388
69446W        W41706  11.378  20.445   2.268
69447W        W41707  19.057  16.219  14.402
69448W        W41708  37.850  43.041  11.555
69449W        W41709  13.858  18.595   3.406
69450W        W41710  36.058  43.518   4.105
69451W        W41711   2.224  44.835  13.380
69452W        W41712   9.603  38.732   4.392
69453W        W41713  22.173   9.445   1.249
69454W        W41714   5.953  22.761   2.238
69455W        W41715  39.980  19.738   4.744
69456W        W41716  20.556  39.382  10.776
69457W        W41717  12.995   8.731   3.239
69458W        W41718  27.496  27.885   1.541
69459W        W41719  10.138  32.768  13.787
69460W        W41720  28.576  15.893   1.765
69461W        W41721  16.148  16.612   3.817
69462W        W41722  40.792  13.691  11.660
69463W        W41723  42.914  17.798   2.257
69464W        W41724   6.736  22.165  12.641
69465W        W41725  41.363  39.800   3.828
69466W        W41726  18.754  15.983  14.799
69467W        W41727  20.207  34.909   0.961
69468W        W41728  29.084  44.687   3.181
69469W        W41729  37.475   9.357   9.828
69470W        W41730  24.233  32.391   4.143
69471W        W41731  31.060   9.723  14.545
69472W        W41732  10.812  20.890  11.320
69473W        W41733   1.725  30.266  13.264
69474W        W41734  32.477  20.718   3.358
69475W        W41735  44.331  10.676   2.888
69476W        W41736   7.556  20.305   3.564
69477W        W41737  16.397   8.920   3.574
69478W        W41738  22.156  38.623  14.955
69479W        W41739  20.538  37.590  14.587
69480W        W41740  21.811  12.199  12.032
69481W        W41741   6.452  15.674   0.303
69482W        W41742   6.103  37.821   3.784
69483W        W41743  41.665  28.223   1.746
69484W        W41744  15.469  32.061  13.181
69485W        W41745  21.997  40.785  12.255
69486W        W41746   4.644  13.360  12.929
69487W        W41747  31.443  19.969  11.455
69488W        W41748  10.336  11.363   3.681
69489W        W41749  10.104  36.012  12.052
69490W        W41750  43.999  32.742   2.538
69491W        W41751  34.040  43.314   4.851
69492W        W41752  13.608  29.042  11.762
69493W        W41753  10.541  29.674  12.459
69494W        W41754  31.126  30.181   5.037
69495W        W41755  33.506   2.939   0.335
69496W        W41756   9.617  19.237  11.184
69497W        W41757  41.176  35.585  14.232
69498W        W41758  39.301  14.221   4.064
69499W        W41759  25.379  39.071  11.983
69500W        W41760  34.875   7.703  13.368
69501W        W41761   6.735   0.572  10.375
69502W        W41762  32.382  12.835   2.158
69503W        W41763   5.978  37.101  11.994
69504W        W41764  33.339  10.242  11.596
69505W        W41765  17.183  35.647   1.207
69506W        W41766  11.683   5.638   3.636
69507W        W41767  32.348   5.638   3.274
69508W        W41768   6.965  25.492   4.147
69509W        W41769  16.287   0.330   4.331
69510W        W41770  22.123  28.040   2.382
69511W        W41771  12.714  15.821  11.155
69512W        W41772  26.593  33.107   1.777
69513W        W41773   7.459  13.609  14.425
69514W        W41774  29.904  34.458  11.151
69515W        W41775  40.784   4.384  14.418
69516W        W41776  31.187  14.714   2.059
69517W        W41777  14.857  12.108   3.807
69518W        W41778  42.274  30.999  11.160
69519W        W41779  23.514  10.266  10.306
69520W        W41780  31.112   9.386   2.601
69521W        W41781  18.276  42.281   3.618
69522W        W41782   6.275  20.302   1.782
69523W        W41783  40.263  15.086   3.913
69524W        W41784  37.348  26.069   4.138
69525W        W41785   2.450  32.794  13.510
69526W        W41786  12.426  38.618  13.250
69527W        W41787  11.217  31.459  12.778
69528W        W41788  38.395  15.304   4.137
69529W        W41789  29.662   7.639   1.882
69530W        W41790  30.678  20.065   4.813
69531W        W41791  35.816  32.088   2.828
69532W        W41792   8.265  44.545  11.945
69533W        W41793   3.822  33.179  14.701
69534W        W41794   7.764  36.450  13.575
69535W        W41795  31.867  16.173  10.452
69536W        W41796  11.931  22.558   2.143
69537W        W41797  27.948   1.059   0.997
69538W        W41798  18.562   3.211  11.568
69539W        W41799  27.468  14.216  14.831
69540W        W41800  10.666  43.568   2.611
69541W        W41801  35.485   9.600  14.564
69542W        W41802  33.139  19.617   0.306
69543W        W41803  37.925  29.014   2.799
69544W        W41804  22.486  10.118  10.549
69545W        W41805  35.013   2.225  12.057
69546W        W41806   1.317  18.153   2.963
69547W        W41807  22.803  37.653   0.706
69548W        W41808   2.016   3.737   3.623
69549W        W41809  14.679  44.676  10.937
69550W        W41810  29.050  28.007   3.884
69551W        W41811  23.290  17.518  14.466
69552W        W41812  19.325  30.872  12.494
69553W        W41813  42.518  11.837  13.982
69554W        W41814  37.649  38.548   0.279
69555W        W41815  26.336  39.713  12.506
69556W        W41816   8.776  40.034   1.870
69557W        W41817  26.514  20.244   4.669
69558W        W41818   6.516  29.541   0.770
69559W        W41819  23.403   9.877   2.828
69560W        W41820  10.803  21.379   1.460
69561W        W41821   8.163   6.819  13.920
69562W        W41822  13.100   3.925  13.474
69563W        W41823   4.778  36.512   0.946
69564W        W41824  33.155  31.519  10.929
69565W        W41825  23.940  41.530  11.186
69566W        W41826   6.880   3.404   0.547
69567W        W41827  16.592  16.981   3.283
69568W        W41828   7.677  13.200  11.832
69569W        W41829  14.674  23.134  12.932
69570W        W41830  25.474   4.871   2.834
69571W        W41831  17.218  42.369  13.423
69572W        W41832  41.924  15.117  13.879
69573W        W41833  15.741  11.380  12.993
69574W        W41834  15.238   0.084   2.371
69575W        W41835   4.042   5.335  10.603
69576W        W41836  12.801  23.088  11.620
69577W        W41837  39.048   7.665  14.816
69578W        W41838  32.511  13.920  14.746
69579W        W41839  12.665  42.701   0.445
69580W        W41840  26.773  24.120   3.603
69581W        W41841  44.851  27.981   0.964
69582W        W41842  18.125  14.707  14.067
69583W        W41843  34.473  21.279  11.631
69584W        W41844   4.715  27.678  13.458
69585W        W41845  17.991  29.639   2.225
69586W        W41846  22.261   4.735  13.083
69587W        W41847  22.805  24.850   3.566
69588W        W41848  28.603  36.626   4.548
69589W        W41849  41.083  30.934  12.063
69590W        W41850  11.540  18.554   4.690
69591W        W41851  11.368  39.630  12.151
69592W        W41852   3.585   4.855  14.092
69593W        W41853  25.103   0.737  11.113
69594W        W41854  33.040  10.318   2.452
69595W        W41855  25.262   3.952  11.652
69596W        W41856  11.712  15.294  13.852
69597W        W41857  38.509  31.358  13.827
69598W        W41858  25.465  44.525  12.443
69599W        W41859   8.625  23.144   3.349
69600W        W41860  13.854   1.411  12.125
69601W        W41861   7.227  18.505   2.515
69602W        W41862  33.635  38.823   1.339
69603W        W41863   8.602  17.587  14.749
69604W        W41864  44.697   0.151  13.426
69605W        W41865  14.633   0.449   1.220
69606W        W41866  39.474  28.981  12.884
69607W        W41867  24.919  13.838   0.441
69608W        W41868  43.312   4.308  11.649
69609W        W41869  39.867   4.527   1.727
69610W        W41870  40.489  28.725   2.032
69611W        W41871  42.856   5.429  11.761
69612W        W41872  26.170  18.217  11.926
69613W        W41873  27.347  33.681   3.387
69614W        W41874  15.654   6.913   2.546
69615W        W41875  22.462  30.440   2.761
69616W        W41876   0.404  17.430   3.107
69617W        W41877   1.225   7.846   1.262
69618W        W41878  31.034  12.393   1.237
69619W        W41879  28.652  22.582  14.348
69620W        W41880   7.847  11.065  13.526
69621W        W41881  14.328  37.818   1.286
69622W        W41882  23.396  40.244   1.727
69623W        W41883   1.770  39.847   4.148
69624W        W41884  34.616  24.088  14.442
69625W        W41885  14.065  35.733  13.937
69626W        W41886  27.074   8.808   0.704
69627W        W41887  30.144  26.578  13.579
69628W        W41888   5.920  35.375  13.055
69629W        W41889  43.927  34.147  11.411
69630W        W41890  37.089   9.747   1.903
69631W        W41891  22.245  23.742   0.872
69632W        W41892  12.158  27.218  12.151
69633W        W41893  40.950  27.136   3.281
69634W        W41894  25.673  33.629   3.261
69635W        W41895   6.913  38.377  12.399
69636W        W41896  39.870  34.903  12.070
69637W        W41897  12.466  32.408  13.371
69638W        W41898  14.503   5.020  14.049
69639W        W41899  16.940  24.468  12.323
69640W        W41900  19.358  43.460   4.823
69641W        W41901  19.216   7.247   4.578
69642W        W41902   9.344  26.501   3.944
69643W        W41903   1.869   3.832   4.603
69644W        W41904  12.210  38.331   4.642
69645W        W41905  40.775  37.892   4.223
69646W        W41906  35.221   8.198   2.748
69647W        W41907   5.327  28.522   5.374
69648W        W41908   5.987  21.041  11.287
69649W        W41909  33.780   1.241   0.303
69650W        W41910   4.688  10.318   5.066
69651W        W41911  37.357  27.710  13.537
69652W        W41912  34.901   3.674  12.973
69653W        W41913   7.109   2.970   3.182
69654W        W41914  20.973   8.803   4.692
69655W        W41915  25.998  12.102  13.369
69656W        W41916  26.021  12.408  12.962
69657W        W41917  25.720  35.954  14.054
69658W        W41918  40.534  17.582   0.547
69659W        W41919  24.877  36.805   2.346
69660W        W41920  20.985  13.696  11.124
69661W        W41921   3.808  43.270   3.025
69662W        W41922  37.557  10.053  10.838
69663W        W41923  38.443  35.606  10.849
69664W        W41924   0.757  10.423  11.070
69665W        W41925  30.038  20.160   2.391
69666W        W41926  10.005  15.176   3.156
69667W        W41927  37.160  37.477   4.585
69668W        W41928  20.750  24.216  10.659
69669W        W41929   7.345   8.343  11.097
69670W        W41930  35.047  17.348  10.856
69671W        W41931  31.170   5.182  11.203
69672W        W41932  42.826   2.783  11.791
69673W        W41933  24.540  10.207   4.585
69674W        W41934  42.250  33.627  13.376
69675W        W41935  31.524  21.313  14.811
69676W        W41936   2.748  20.637  11.751
69677W        W41937  17.158  28.403  13.649
69678W        W41938   2.708  22.756   3.955
69679W        W41939  31.170   8.434   2.341
69680W        W41940  25.272  25.536   1.596
69681W        W41941  42.221  11.578   4.908
69682W        W41942  35.457  36.438   1.706
69683W        W41943  31.547  39.378  11.276
69684W        W41944   1.910  41.349  10.406
69685W        W41945  11.849  24.508  10.767
69686W        W41946  30.251  12.442   2.703
69687W        W41947  31.530   8.405   4.883
69688W        W41948  41.582   6.008  11.089
69689W        W41949  14.580   6.627   0.794
69690W        W41950  42.854  14.712  11.172
69691W        W41951  14.372   9.243  13.506
69692W        W41952  24.561  10.496   3.741
69693W        W41953  37.077  36.062  11.457
69694W        W41954  31.076  32.656   3.856
69695W        W41955  13.367  15.618  13.035
69696W        W41956   6.914  33.656   1.056
69697W        W41957  40.916  40.486  14.386
69698W        W41958  38.299  17.075  10.671
69699W        W41959  35.010  14.657  12.262
69700W        W41960  12.658  40.999  13.540
69701W        W41961   2.481  23.696   2.813
69702W        W41962  18.202   7.892   4.549
69703W        W41963  12.406   5.375   4.613
69704W        W41964  10.816  33.768   4.549
69705W        W41965   9.838   2.800   4.137
69706W        W41966  16.245  25.151  13.958
69707W        W41967  26.590  12.590  13.828
69708W        W41968  38.598   3.935  12.795
69709W        W41969  21.667  37.189   3.304
69710W        W41970  28.528   7.002  12.419
69711W        W41971  34.876  29.152  12.893
69712W        W41972  42.665   3.211   2.621
69713W        W41973  20.075  35.146   4.759
69714W        W41974  17.647  42.417  10.719
69715W        W41975  29.188  19.277   1.288
69716W        W41976  24.894   1.664   1.344
69717W        W41977   1.818   0.512  11.180
69718W        W41978  34.500  30.907   4.065
69719W        W41979  21.726  35.953   3.368
69720W        W41980  23.149   1.183  11.198
69721W        W41981  37.729  40.826  13.884
69722W        W41982  16.215  41.803  11.950
69723W        W41983  42.249  35.958  10.684
69724W        W41984  26.416  16.216  11.665
69725W        W41985  13.337  27.373   2.345
69726W        W41986  21.508  33.393   1.343
69727W        W41987  23.652   1.275  11.877
69728W        W41988  23.142  13.746   3.751
69729W        W41989  17.229  23.867   1.234
69730W        W41990  43.352  21.019   3.346
69731W        W41991  28.597  22.648   0.291
69732W        W41992   5.184  41.685   1.653
69733W        W41993  33.805  30.783   3.406
69734W        W41994   3.963  22.825   0.526
69735W        W41995  35.736   6.484  11.725
69736W        W41996  35.127  30.543  14.018
69737W        W41997   5.833  10.573  14.692
69738W        W41998  12.189  39.183   1.383
69739W        W41999  36.218  39.393  12.249
69740W        W42000  23.437   4.217  11.995
69741W        W42001  33.681   9.094  14.509
69742W        W42002  35.909   8.412  13.583
69743W        W42003  10.605  19.121  14.931
69744W        W42004  29.702  42.477  14.474
69745W        W42005  37.912  31.581  11.984
69746W        W42006  10.112  33.961  10.648
69747W        W42007  16.214   0.505  14.746
69748W        W42008  22.710  37.103  13.561
69749W        W42009  33.509  20.661  12.412
69750W        W42010  29.913  19.319   2.398
69751W        W42011  34.709   7.647  14.457
69752W        W42012  10.409  16.475   3.253
69753W        W42013  23.254  39.868  14.042
69754W        W42014  26.015  43.292  11.732
69755W        W42015  12.571   1.413   4.254
69756W        W42016  13.353  20.257  10.946
69757W        W42017  19.174   7.451   0.953
69758W        W42018  32.459  27.512  10.623
69759W        W42019  14.190  41.569   3.308
69760W        W42020  11.844  20.034   3.001
69761W        W42021  19.975  44.310  13.503
69762W        W42022  32.930   0.183   2.767
69763W        W42023   2.788   8.323   4.622
69764W        W42024  28.592  21.474  13.806
69765W        W42025  35.546  35.159  12.183
69766W        W42026   5.488  22.630   0.525
69767W        W42027  41.327  44.912  13.951
69768W        W42028  25.059  44.217  11.653
69769W        W42029  29.725   3.629   3.753
69770W        W42030  10.662  35.023   2.657
69771W        W42031  44.725  27.895   2.674
69772W        W42032  14.804  19.010   3.667
69773W        W42033   4.248   3.259   1.657
69774W        W42034  29.483   3.897   3.363
69775W        W42035  44.333  32.684  12.182
69776W        W42036  37.068  31.024  14.781
69777W        W42037  14.207  23.834  11.188
69778W        W42038  28.093  35.958  12.872
69779W        W42039  28.409  29.830   0.371
69780W        W42040  24.042  25.113  11.422
69781W        W42041  38.445  43.894   4.411
69782W        W42042  38.771  17.234  10.675
69783W        W42043  38.310  17.062  13.504
69784W        W42044  39.436   9.753  13.770
69785W        W42045   7.774  24.034   3.841
69786W        W42046  36.030  25.479   1.729
69787W        W42047  41.253  35.546   2.035
69788W        W42048   3.784  19.451   4.477
69789W        W42049  31.356  22.049  12.224
69790W        W42050   8.837  41.564   5.112
69791W        W42051  40.110  40.758  14.995
69792W        W42052  20.056  31.712  13.894
69793W        W42053   4.732  37.809  11.693
69794W        W42054  28.851  32.650   5.132
69795W        W42055  35.169  39.146  11.009
69796W        W42056  38.251  22.444  11.877
69797W        W42057  37.045  32.956   3.443
69798W        W42058   8.456  12.362  14.297
69799W        W42059  27.957  35.293   2.270
69800W        W42060  21.143   0.702   4.038
69801W        W42061   2.227  28.687  10.742
69802W        W42062  31.799  20.665   1.331
69803W        W42063  16.892   2.492  14.025
69804W        W42064  26.673   5.301   1.483
69805W        W42065  22.010   2.023  11.919
69806W        W42066   2.628  29.925   4.960
69807W        W42067  29.499   2.753  14.744
69808W        W42068   5.183  18.457  13.523
69809W        W42069  16.730  21.451   2.474
69810W        W42070  12.839  26.814  11.083
69811W        W42071  27.130   8.744   3.187
69812W        W42072  39.807  30.344  11.152
69813W        W42073  23.743  14.848   0.984
69814W        W42074  39.083  14.778   0.911
69815W        W42075  25.734  35.078   3.381
69816W        W42076  34.344  33.054  10.830
69817W        W42077  33.460  11.874   0.537
69818W        W42078  20.137  31.627  14.988
69819W        W42079   5.902  15.097  14.510
69820W        W42080   1.357  16.402   0.894
69821W        W42081  20.195  37.608   0.934
69822W        W42082   6.198  32.700  10.655
69823W        W42083  29.905  27.991  12.405
69824W        W42084  20.746  28.098  11.600
69825W        W42085  20.185   7.290   5.046
69826W        W42086  36.062  27.970   2.075
69827W        W42087  27.979  27.637  12.994
69828W        W42088  35.314  41.753  13.043
69829W        W42089  19.618  32.509   3.339
69830W        W42090  23.528  12.128   3.405
69831W        W42091   6.911  23.708  13.596
69832W        W42092  36.790  26.780   2.200
69833W        W42093  23.584   0.528   4.035
69834W        W42094  35.960  32.384  12.466
69835W        W42095  20.743  21.295   2.756
69836W        W42096   1.499   6.494  12.008
69837W        W42097   9.435  38.761   0.734
69838W        W42098  43.540  26.157   1.669
69839W        W42099  24.272  19.771   2.777
69840W        W42100  36.863  16.808  11.910
69841W        W42101   6.294   6.866  10.630
69842W        W42102  26.269  29.524  12.598
69843W        W42103  42.869  24.201   4.558
69844W        W42104   8.228   0.050   0.418
69845W        W42105  15.100  10.264  10.568
69846W        W42106   9.277  33.482  10.621
69847W        W42107  33.983  12.755   3.759
69848W        W42108  15.771  38.636  14.162
69849W        W42109   1.845  27.363  13.451
69850W        W42110  27.250  21.105   1.886
69851W        W42111  32.786  25.187  11.132
69852W        W42112   6.735  29.191   2.507
69853W        W42113  38.766  20.526   3.162
69854W        W42114  28.604  29.867  11.580
69855W        W42115   0.147   5.485  11.067
69856W        W42116   1.586  29.374   1.481
69857W        W42117  20.757  34.943   3.616
69858W        W42118   0.237   3.204   3.736
69859W        W42119  18.743   7.828  12.448
69860W        W42120  14.529  13.100  13.010
69861W        W42121  15.808  27.524  13.442
69862W        W42122  21.608  35.018   3.049
69863W        W42123   1.665  24.730  13.438
69864W        W42124  20.035  35.483   2.341
69865W        W42125  32.362  28.583  13.889
69866W        W42126  26.727  23.808  11.533
69867W        W42127  29.388   3.839   4.797
69868W        W42128  23.520  26.426  12.559
69869W        W42129  26.437  30.917   5.042
69870W        W42130   6.801  21.330   3.590
69871W        W42131   1.938  33.974  12.048
69872W        W42132  12.751   2.758  11.531
69873W        W42133  16.057   7.264  11.850
69874W        W42134  15.563  44.547  10.938
69875W        W42135  44.856  19.733  10.633
69876W        W42136   1.966  23.643  12.857
69877W        W42137   3.440  35.876  14.494
69878W        W42138  43.922  12.694   1.255
69879W        W42139  43.348  13.384  11.939
69880W        W42140  36.910  39.792   2.210
69881W        W42141   4.958   7.247   2.388
69882W        W42142  38.679   4.828   0.426
69883W        W42143  13.675  33.062  12.917
69884W        W42144  16.264  35.039   3.567
69885W        W42145  23.464  41.344  11.282
69886W        W42146   8.251  20.606  14.461
69887W        W42147  24.973  15.326  11.166
69888W        W42148  13.122  16.709   2.310
69889W        W42149  14.235  36.793  14.270
69890W        W42150  36.198  39.789   2.649
69891W        W42151  15.776  11.347  12.100
69892W        W42152  11.178  35.542  14.180
69893W        W42153  12.096   2.916   3.180
69894W        W42154   3.210  26.161  12.942
69895W        W42155  33.389   9.171   1.640
69896W        W42156  12.608  36.381  11.755
69897W        W42157   3.701  12.651   2.175
69898W        W42158  23.908   0.246   4.370
69899W        W42159   4.741   9.463   1.131
69900W        W42160  18.143  24.570  11.172
69901W        W42161  19.578   1.238  12.104
69902W        W42162  33.578  44.283  10.675
69903W        W42163  22.554  42.487   1.791
69904W        W42164  15.864  28.260   0.132
69905W        W42165   6.922  40.551  10.979
69906W        W42166  12.650  42.049   3.638
69907W        W42167   3.878   1.693  11.196
69908W        W42168  36.869   4.677  11.048
69909W        W42169  27.532  16.579  13.398
69910W        W42170  36.617   9.740  10.609
69911W        W42171  29.160  13.323  14.102
69912W        W42172  29.199   9.831  12.948
69913W        W42173   0.519  20.544  13.492
69914W        W42174  17.791  29.149   2.347
69915W        W42175  18.158   8.728  10.642
69916W        W42176  21.745  24.429  11.540
69917W        W42177  16.933   3.987   2.732
69918W        W42178  20.278  13.136   2.743
69919W        W42179  22.543   7.846   2.893
69920W        W42180  38.291   6.256  10.457
69921W        W42181  16.462  15.176   9.860
69922W        W42182   5.178  17.190  14.126
69923W        W42183  26.568   7.218   3.678
69924W        W42184  18.057  18.563  13.070
69925W        W42185  16.830  21.697   3.810
69926W        W42186   2.215  35.532   3.200
69927W        W42187  33.380  23.633  13.077
69928W        W42188  36.679  41.359   3.730
69929W        W42189  43.938  34.998  11.382
69930W        W42190   3.792  41.304   2.982
69931W        W42191  42.494  41.031   4.654
69932W        W42192  12.907  15.589  13.834
69933W        W42193   2.215   8.076   1.183
69934W        W42194  17.151   8.996   5.090
69935W        W42195  39.044  41.131   3.185
69936W        W42196  44.445  15.397  10.028
69937W        W42197  11.822  23.518   4.608
69938W        W42198  22.453   5.523  14.884
69939W        W42199  23.577  17.799  10.684
69940W        W42200  23.227  34.353   2.716
69941W        W42201  39.613  42.254   2.768
69942W        W42202  23.227  32.649  14.798
69943W        W42203  38.961  34.868   0.851
69944W        W42204   6.982  29.605   1.013
69945W        W42205   5.679  43.552   1.699
69946W        W42206  25.552   5.815  11.577
69947W        W42207   5.627  13.220  14.885
69948W        W42208   9.096  30.517   3.378
69949W        W42209  38.359  21.490   4.568
69950W        W42210  40.528  30.021  12.384
69951W        W42211  10.188  42.877   0.920
69952W        W42212  11.320  27.903  10.523
69953W        W42213  44.923  22.188   4.233
69954W        W42214  38.440  37.726  13.330
69955W        W42215  31.675   7.861   3.579
69956W        W42216  13.613   1.100   0.613
69957W        W42217   2.277   4.184   1.814
69958W        W42218   2.766   6.607  13.452
69959W        W42219  14.254  16.480  13.921
69960W        W42220   4.370  33.834   2.361
69961W        W42221  25.110   7.805  12.833
69962W        W42222  25.542  31.530  12.775
69963W        W42223  44.790  28.745  10.708
69964W        W42224   9.874  42.283  13.568
69965W        W42225   8.212  11.875   1.348
69966W        W42226  41.504  33.637   0.753
69967W        W42227  19.013  27.895  13.909
69968W        W42228  23.738  34.958  11.179
69969W        W42229   4.340  42.495   3.059
69970W        W42230  22.275  22.286   4.242
69971W        W42231  18.538  19.565   1.377
69972W        W42232  36.160  26.727  11.563
69973W        W42233   4.671  36.304   1.855
69974W        W42234  32.137  39.386  11.121
69975W        W42235  19.815  15.261  12.334
69976W        W42236  38.513  24.719   0.747
69977W        W42237  38.201  41.054  13.853
69978W        W42238  44.968  38.574   1.292
69979W        W42239   0.764   0.943   2.678
69980W        W42240  30.604  19.131  14.653
69981W        W42241   1.696  14.348   0.302
69982W        W42242  34.611  34.091   1.368
69983W        W42243  38.322  33.392   2.886
69984W        W42244  13.735  17.790  14.225
69985W        W42245  21.309  24.617  12.307
69986W        W42246   8.476   4.711   2.857
69987W        W42247  39.634   7.664   1.165
69988W        W42248  31.484  16.296   1.485
69989W        W42249  43.729  19.232  10.981
69990W        W42250   3.651  42.491  12.074
69991W        W42251  29.509  43.000   1.241
69992W        W42252  23.726   1.328  12.527
69993W        W42253  24.925  31.480  11.963
69994W        W42254  10.393  30.492  11.071
69995W        W42255  33.047  18.166   1.780
69996W        W42256  35.563  39.442   2.871
69997W        W42257  24.009  29.176   3.778
69998W        W42258  24.598  22.224   4.078
69999W        W42259   6.639  30.231   0.468
70000W        W42260  25.132  32.053  14.963
70001W        W42261  19.746   4.477   4.173
70002W        W42262  39.799  18.561   3.282
70003W        W42263  12.892  39.932   2.190
70004W        W42264  43.541  35.663  12.903
70005W        W42265  16.680  26.017   0.375
70006W        W42266  39.878  41.952  13.111
70007W        W42267  13.304  14.209   3.104
70008W        W42268  18.505   1.761  10.816
70009W        W42269  32.895   9.155   1.824
70010W        W42270  30.646  26.458  10.578
70011W        W42271  15.791  44.294   0.872
70012W        W42272   2.010  36.888   4.586
70013W        W42273  21.694  19.070  12.082
70014W        W42274   5.980  28.528  11.680
70015W        W42275   1.282  37.278  11.458
70016W        W42276  31.173  40.220  12.758
70017W        W42277  20.358  24.252  12.945
70018W        W42278  12.866  37.021  14.829
70019W        W42279  10.928  43.998   4.140
70020W        W42280  41.455  12.158   4.666
70021W        W42281  42.666  31.065  11.488
70022W        W42282  23.729  27.222   5.484
70023W        W42283  37.960  17.660  12.995
70024W        W42284  41.717  43.929   0.846
70025W        W42285  36.031  30.390  11.717
70026W        W42286   7.787  13.383   4.529
70027W        W42287  28.670  15.098   1.185
70028W        W42288  28.748  22.180  10.770
70029W        W42289  24.512   7.444  12.058
70030W        W42290  25.988   4.741  14.339
70031W        W42291  42.935  24.176  10.431
70032W        W42292  38.510  32.556  13.288
70033W        W42293  21.262  17.174   2.752
70034W        W42294  19.705  44.276  14.863
70035W        W42295  33.125  43.505   0.120
70036W        W42296   0.973  42.560   0.685
70037W        W42297  35.049  19.208  10.493
70038W        W42298  11.771  16.786  14.860
70039W        W42299  11.435  19.053   4.816
70040W        W42300  39.328  22.737   4.372
70041W        W42301  16.648   7.576  11.593
70042W        W42302  13.544  25.984   0.283
70043W        W42303   5.198  22.672  13.447
70044W        W42304  42.157  43.270  13.569
70045W        W42305  17.584  27.730   1.333
70046W        W42306  11.824  41.536   3.990
70047W        W42307   8.779  36.045   4.363
70048W        W42308  12.519  13.546  13.051
70049W        W42309   6.794   2.258   4.367
70050W        W42310   2.944  20.271  14.032
70051W        W42311  41.749  14.283   3.997
70052W        W42312  26.004   0.504   4.916
70053W        W42313  27.004  41.557   0.947
70054W        W42314   4.907  31.709   4.106
70055W        W42315  11.257  21.615  14.534
70056W        W42316  34.279  20.425  10.243
70057W        W42317  10.258  11.772   0.411
70058W        W42318  13.498   6.125  11.573
70059W        W42319  30.747  24.135   0.391
70060W        W42320  14.621  27.022   3.135
70061W        W42321   4.401  26.445  11.614
70062W        W42322  41.325   4.363   1.248
70063W        W42323  15.739   0.318  14.583
70064W        W42324  28.104  17.262  14.304
70065W        W42325  20.894  30.528   0.648
70066W        W42326  36.475   2.751  14.205
70067W        W42327  19.044  24.741   0.323
70068W        W42328   6.714  13.794  14.967
70069W        W42329  12.309   0.959   2.345
70070W        W42330  13.256  42.769   3.842
70071W        W42331   5.441   7.205  13.857
70072W        W42332  37.317  24.371  13.167
70073W        W42333  33.478  44.439  12.472
70074W        W42334   3.196  29.568  14.898
70075W        W42335  44.692  22.012   2.183
70076W        W42336  12.504  40.802   0.358
70077W        W42337   3.332   0.767  14.146
70078W        W42338  22.081  39.591  11.126
70079W        W42339  41.379  11.597   3.410
70080W        W42340  39.891  42.264   3.250
70081W        W42341  14.776  12.023  12.303
70082W        W42342   1.963  37.336  13.792
70083W        W42343  26.619  24.944  12.911
70084W        W42344  17.062  21.230  13.993
70085W        W42345  38.595   5.298   0.028
70086W        W42346  30.512   9.194  14.517
70087W        W42347  17.770  12.264   1.214
70088W        W42348  32.047  12.371   2.854
70089W        W42349  31.950  38.593   4.153
70090W        W42350   6.258   9.269  12.536
70091W        W42351  15.629  30.098   1.283
70092W        W42352   9.619  18.773  10.533
70093W        W42353  17.790  28.570  13.948
70094W        W42354  32.125  35.059   0.985
70095W        W42355  33.205   0.542   3.206
70096W        W42356  43.919  19.257   1.250
70097W        W42357  18.673  15.679   1.369
70098W        W42358  42.836  19.765  13.910
70099W        W42359  35.381   6.591  12.923
70100W        W42360  21.498   9.990  13.991
70101W        W42361  21.840  40.809  11.555
70102W        W42362  19.642  40.022   1.669
70103W        W42363  34.799  25.465   0.477
70104W        W42364  15.575  30.077  11.509
70105W        W42365  37.005   7.371   0.013
70106W        W42366   2.323  19.320  11.521
70107W        W42367  20.642  32.055  14.305
70108W        W42368  30.676  32.539  13.487
70109W        W42369   4.458   5.096   1.040
70110W        W42370  40.958  20.979  11.848
70111W        W42371  38.546  30.585  14.274
70112W        W42372   4.107  27.588   4.009
70113W        W42373   7.801  33.010  14.949
70114W        W42374  31.046  32.957  10.449
70115W        W42375  40.524  16.046   1.705
70116W        W42376  35.835  13.317  14.769
70117W        W42377   9.875  12.198   0.330
70118W        W42378  25.905  16.265   0.231
70119W        W42379  21.504  30.616   3.634
70120W        W42380  41.992  17.237   3.057
70121W        W42381  14.072   5.227   2.203
70122W        W42382  15.289  30.525  13.026
70123W        W42383   7.861  30.761   3.167
70124W        W42384   7.097  23.094  14.421
70125W        W42385  38.369  27.706   1.376
70126W        W42386  15.772  29.701  12.863
70127W        W42387  41.338  29.739   1.815
70128W        W42388  41.946  41.052  11.845
70129W        W42389  28.641  13.647  11.086
70130W        W42390  17.957  12.684   1.846
70131W        W42391  40.365  18.888   0.790
70132W        W42392  41.724  39.669  11.205
70133W        W42393  42.043   0.809   3.171
70134W        W42394  20.442  29.653  11.418
70135W        W42395  36.749  19.081   5.387
70136W        W42396  16.591  39.251  13.504
70137W        W42397  22.710  33.540   3.354
70138W        W42398  24.298   9.425  10.877
70139W        W42399  19.689  28.124  12.906
70140W        W42400   1.534   1.721  14.007
70141W        W42401   4.050  22.012   2.702
70142W        W42402  38.671  12.896  12.037
70143W        W42403  41.443  20.127   4.962
70144W        W42404  19.626   6.329  13.572
70145W        W42405   8.188  14.743   0.905
70146W        W42406  16.078  21.485   0.412
70147W        W42407  24.913  15.934  12.371
70148W        W42408   6.710  36.352  11.112
70149W        W42409  15.646  35.202   0.012
70150W        W42410  27.475  30.483   2.406
70151W        W42411  34.775  30.415   2.305
70152W        W42412  12.347  19.563   1.207
70153W        W42413   7.142  29.718  10.777
70154W        W42414   9.222  24.000  14.275
70155W        W42415  38.392   8.329   0.154
70156W        W42416  30.049  31.229  11.506
70157W        W42417  36.468  11.776  12.889
70158W        W42418  42.700  39.524  12.092
70159W        W42419   3.133  21.170  13.612
70160W        W42420  30.420  21.681   1.464
70161W        W42421  10.427  43.166   1.286
70162W        W42422  10.835   3.923  12.956
70163W        W42423   0.976  40.383  14.569
70164W        W42424  38.830  33.727  10.630
70165W        W42425  32.173  34.240   9.820
70166W        W42426   1.663  42.410   1.236
70167W        W42427  13.507  28.729  12.279
70168W        W42428  37.433   4.248  11.337
70169W        W42429  18.241  25.335   1.399
70170W        W42430   5.127   6.146   4.152
70171W        W42431  38.937  14.721  12.042
70172W        W42432  24.690   5.814  10.765
70173W        W42433  11.695  31.403  13.992
70174W        W42434  19.166  39.599   3.173
70175W        W42435  44.525  11.765  13.975
70176W        W42436   2.355  30.378   4.713
70177W        W42437  33.554   9.510   5.090
70178W        W42438  44.369  18.205   4.462
70179W        W42439   6.225  43.762   1.905
70180W        W42440  25.618  22.523  14.754
70181W        W42441   2.986   9.429  14.309
70182W        W42442  27.537  20.773  12.033
70183W        W42443  19.536   6.713   3.138
70184W        W42444  37.356  18.593  12.438
70185W        W42445  42.554   6.877  13.078
70186W        W42446  40.393  24.169  11.538
70187W        W42447  19.237  11.248   3.711
70188W        W42448  39.328  12.297  14.336
70189W        W42449   2.450   8.876   1.726
70190W        W42450  17.704   0.286  12.040
70191W        W42451   2.550  37.960  13.375
70192W        W42452  25.414   7.960   3.753
70193W        W42453  16.340  14.119  14.425
70194W        W42454  39.408  26.237  13.022
70195W        W42455   1.882  27.708  12.135
70196W        W42456  37.818  10.033   2.259
70197W        W42457  25.653  16.085   2.992
70198W        W42458   9.411  31.919   2.678
70199W        W42459  30.000  34.870  11.506
70200W        W42460  20.090  31.366   1.792
70201W        W42461  41.436   0.893  14.911
70202W        W42462  24.534  43.256  12.582
70203W        W42463  33.845  14.785  13.630
70204W        W42464  38.846  19.770   1.043
70205W        W42465  31.933  14.511  12.862
70206W        W42466  30.708  20.493  14.830
70207W        W42467  14.185   5.249  12.400
70208W        W42468  25.955  18.824   2.764
70209W        W42469  29.410  31.036   0.469
70210W        W42470   6.648   2.679  11.544
70211W        W42471   6.747  17.802  11.482
70212W        W42472  25.112  19.191  12.726
70213W        W42473   5.717  34.380  13.824
70214W        W42474  43.371  35.878  10.723
70215W        W42475   0.918  34.951   0.301
70216W        W42476  27.890  16.129   1.313
70217W        W42477  37.808   2.824   1.199
70218W        W42478  32.624  40.914  14.716
70219W        W42479  24.776  29.334  10.750
70220W        W42480  28.392   8.765   2.866
70221W        W42481  42.370  37.478  12.935
70222W        W42482  22.721  29.451   0.180
70223W        W42483  17.927  24.092   1.664
70224W        W42484  15.573  10.596  12.574
70225W        W42485  27.933  13.673  13.042
70226W        W42486  44.707  19.219  10.726
70227W        W42487  25.931  30.831   4.140
70228W        W42488  14.123  25.786   1.311
70229W        W42489  42.845   2.346   4.083
70230W        W42490  26.156  39.390  13.473
70231W        W42491  31.469  30.614  10.607
70232W        W42492   8.618   0.769   4.202
70233W        W42493  10.644  26.608   4.380
70234W        W42494  14.929  25.775  14.869
70235W        W42495  30.668  20.329   0.318
70236W        W42496  12.248  25.510   2.432
70237W        W42497  13.066   7.185  14.779
70238W        W42498  25.575  12.072  13.078
70239W        W42499  12.823  37.401  12.154
70240W        W42500   8.673  37.000   0.261
70241W        W42501  40.372  37.632  10.048
70242W        W42502  24.612   3.421  14.760
70243W        W42503  25.084  21.437  12.827
70244W        W42504  16.724  27.088   4.875
70245W        W42505  18.547  14.113  11.557
70246W        W42506  42.569  27.208   1.875
70247W        W42507  22.677   3.420  14.689
70248W        W42508  38.390  40.252   3.174
70249W        W42509  38.351  19.068   1.950
70250W        W42510   4.516  19.721   5.059
70251W        W42511  24.902  41.350   9.861
70252W        W42512  25.284   9.268  12.103
70253W        W42513  36.463  25.115   4.289
70254W        W42514  12.742  22.551   1.806
70255W        W42515  13.334  11.260   0.420
70256W        W42516  12.178   3.741   0.976
70257W        W42517  24.369  44.816  12.301
70258W        W42518  26.373  34.373   3.093
70259W        W42519  37.264  16.503  14.152
70260W        W42520   9.843   2.694   1.379
70261W        W42521  23.820  33.067  12.098
70262W        W42522   2.322  24.103   4.539
70263W        W42523  25.007  24.702   1.150
70264W        W42524  42.965  41.902   0.826
70265W        W42525  32.015   0.917  13.415
70266W        W42526  41.738  20.146  13.016
70267W        W42527  31.992  41.760   2.849
70268W        W42528  26.600   4.696  14.785
70269W        W42529  32.412  12.928  14.468
70270W        W42530  42.502  44.876   3.921
70271W        W42531   8.802  33.838   2.235
70272W        W42532   9.391   4.400   1.170
70273W        W42533  30.267  29.327  10.794
70274W        W42534  37.465  28.918  10.895
70275W        W42535  43.274   5.382   4.620
70276W        W42536  31.898  11.781  12.055
70277W        W42537  12.909  34.484  14.565
70278W        W42538  33.321  33.313  10.469
70279W        W42539  44.275  33.090  10.742
70280W        W42540  31.840   1.884   4.838
70281W        W42541  42.104  18.042  10.112
70282W        W42542  21.998   5.987   2.847
70283W        W42543  37.985  15.293  11.318
70284W        W42544   3.446  14.181  14.891
70285W        W42545  40.564   2.273   1.737
70286W        W42546  35.658   6.291  12.609
70287W        W42547  22.262  10.261   0.856
70288W        W42548  44.596  18.111   1.654
70289W        W42549  35.836  34.298   4.468
70290W        W42550  14.758  34.355   3.176
70291W        W42551  34.726   6.192   3.310
70292W        W42552  42.034   1.022  13.410
70293W        W42553   6.500  26.749  11.134
70294W        W42554  44.801  25.179  13.352
70295W        W42555   1.027   3.336   1.409
70296W        W42556  26.977  41.040   4.567
70297W        W42557   2.525  26.245  10.413
70298W        W42558  12.703  24.568   2.960
70299W        W42559  32.040  43.275  14.319
70300W        W42560  31.346  32.933  13.851
70301W        W42561   7.662   8.713   1.758
70302W        W42562  20.122  19.056  12.039
70303W        W42563  35.412  41.826   1.897
70304W        W42564  35.615  37.722  11.117
70305W        W42565   5.267  23.437   3.724
70306W        W42566  23.642  17.255  13.401
70307W        W42567  25.457  20.525   4.571
70308W        W42568  41.880  29.375   4.976
70309W        W42569  30.951  31.842  11.187
70310W        W42570  43.805   9.171  12.743
70311W        W42571   2.572  23.985   3.317
70312W        W42572  43.047  24.859   1.818
70313W        W42573  17.010   5.698   1.826
70314W        W42574  11.340  17.852   1.613
70315W        W42575  38.743   0.974   1.315
70316W        W42576  33.171  30.080  14.327
70317W        W42577  10.620   6.595  10.130
70318W        W42578  13.837  35.745  14.895
70319W        W42579  27.582   7.154   4.523
70320W        W42580   4.971  29.084  10.228
70321W        W42581   0.649   2.427  14.364
70322W        W42582  38.984  20.616   0.470
70323W        W42583  12.280  41.898   4.813
70324W        W42584  32.948  24.182   2.221
70325W        W42585  31.331  34.160   0.064
70326W        W42586  39.082  38.415   2.791
70327W        W42587   7.854  24.492   4.117
70328W        W42588  22.275  18.235   0.911
70329W        W42589   5.450  44.386   0.902
70330W        W42590  28.065   9.157   3.710
70331W        W42591   1.828  32.212   3.238
70332W        W42592  37.109   9.918  13.506
70333W        W42593  13.364  16.947   1.450
70334W        W42594  32.421   0.324   3.692
70335W        W42595  24.882   7.312   4.094
70336W        W42596   8.909  25.709  11.649
70337W        W42597  17.212  11.466  10.200
70338W        W42598  43.554  26.334   0.753
70339W        W42599  40.949  43.085  10.684
70340W        W42600  10.138  35.348   3.322
70341W        W42601  34.200   1.993   1.337
70342W        W42602  44.528  17.379  10.087
70343W        W42603  44.778  16.358   0.479
70344W        W42604  29.400  30.046  11.045
70345W        W42605  44.336  26.544  11.063
70346W        W42606   3.742  26.618  14.316
70347W        W42607   3.797  40.537  10.934
70348W        W42608  38.269  11.199  11.625
70349W        W42609  38.730  22.638   0.330
70350W        W42610   7.960   9.079   9.990
70351W        W42611   2.702  26.081   1.876
70352W        W42612  43.897  36.763   3.181
70353W        W42613   0.524   7.195   4.106
70354W        W42614  30.311  38.832  11.279
70355W        W42615  32.074  34.636  11.497
70356W        W42616  14.643  27.077   1.689
70357W        W42617  38.749  10.375   0.329
70358W        W42618  38.979  39.933  10.713
70359W        W42619   3.912   8.086   0.157
70360W        W42620   3.381  40.256   1.005
70361W        W42621  16.118   8.104   0.453
70362W        W42622  25.300  10.944   0.454
70363W        W42623  25.313  35.139   4.895
70364W        W42624  16.082  10.211  10.288
70365W        W42625  36.676  21.602  12.191
70366W        W42626  41.552  35.771  13.271
70367W        W42627  30.435  11.365  10.788
70368W        W42628  23.090   5.923  14.947
70369W        W42629  29.473  23.542  14.475
70370W        W42630  22.297  24.811   3.479
70371W        W42631  10.502  31.045  12.255
70372W        W42632   2.819  39.325   1.931
70373W        W42633  20.071  35.637   4.862
70374W        W42634   5.415   9.753  14.997
70375W        W42635  21.764  22.944  10.682
70376W        W42636   7.348  27.650  13.477
70377W        W42637   4.208  35.184   0.886
70378W        W42638  35.588  34.803  12.626
70379W        W42639  41.244  26.355  13.896
70380W        W42640   3.803  42.978   4.741
70381W        W42641  41.553  11.825  10.665
70382W        W42642  36.052  11.891  12.532
70383W        W42643  23.730  36.351  13.574
70384W        W42644  37.915   5.364  11.190
70385W        W42645  29.911   8.588  13.804
70386W        W42646  11.050   1.719  12.922
70387W        W42647  11.271  12.642   2.157
70388W        W42648  25.874   7.841  11.608
70389W        W42649  25.723  21.044  11.101
70390W        W42650  35.990  18.259  11.347
70391W        W42651  42.477  25.530  14.658
70392W        W42652  16.316  41.367  12.912
70393W        W42653  28.958  15.705   2.361
70394W        W42654  19.600  37.291   9.856
70395W        W42655   3.671   2.825  14.884
70396W        W42656  15.140  26.573   3.622
70397W        W42657  40.430  32.810   0.717
70398W        W42658  39.952  25.715   1.286
70399W        W42659   0.392  33.945   3.958
70400W        W42660   2.687  13.279   3.981
70401W        W42661  22.021  27.984   5.234
70402W        W42662  25.591  19.067   4.397
70403W        W42663   7.724  23.129  10.514
70404W        W42664  11.161   6.305  11.817
70405W        W42665   0.067  10.335   0.828
70406W        W42666  26.840   5.012  12.624
70407W        W42667  42.379  19.572   2.014
70408W        W42668  28.979  18.570  14.966
70409W        W42669  12.105  25.993   3.764
70410W        W42670  34.948  15.585   2.544
70411W        W42671  21.221  23.490   2.387
70412W        W42672  26.384  44.033  11.333
70413W        W42673  15.181   0.227  10.499
70414W        W42674   1.514  39.457   2.892
70415W        W42675   8.699  15.751   4.993
70416W        W42676  13.169  41.662   1.336
70417W        W42677  12.908  16.043   3.280
70418W        W42678   2.835  31.747   2.906
70419W        W42679  33.483  23.657  14.593
70420W        W42680   5.063  10.728   1.776
70421W        W42681  16.573  25.646  12.393
70422W        W42682   1.808  38.734  10.688
70423W        W42683  12.066  44.021  11.104
70424W        W42684  15.784   3.774  13.344
70425W        W42685   5.782  19.329   2.664
70426W        W42686  44.537   0.301  12.350
70427W        W42687  37.471  36.413   1.994
70428W        W42688  26.584  39.400  10.141
70429W        W42689  20.221  27.892  13.674
70430W        W42690  26.269  16.236  12.185
70431W        W42691  18.136  25.445  13.049
70432W        W42692   3.866  38.813   2.680
70433W        W42693  13.096  15.891   1.803
70434W        W42694  16.602  43.406  12.538
70435W        W42695  20.013  17.678   0.385
70436W        W42696  18.398   5.678   0.178
70437W        W42697   2.216   4.015  12.903
70438W        W42698  11.282  33.641   4.750
70439W        W42699  29.193  14.342  12.820
70440W        W42700  30.297  19.034  12.414
70441W        W42701   1.968  13.554   0.770
70442W        W42702  28.125  35.225  12.415
70443W        W42703  44.691  32.908  12.463
70444W        W42704  31.420  38.396  12.492
70445W        W42705   3.205  33.555  12.914
70446W        W42706  34.587  10.171   0.756
70447W        W42707   4.197  23.189  12.928
70448W        W42708  14.696  21.753  13.017
70449W        W42709  14.195  43.030  13.536
70450W        W42710  11.577  28.630   3.661
70451W        W42711  35.085   5.235  11.268
70452W        W42712   9.898   6.634   2.192
70453W        W42713  25.649   0.299   2.883
70454W        W42714  37.652   2.228  12.476
70455W        W42715  40.315  22.252  14.167
70456W        W42716   9.256  22.198   3.342
70457W        W42717  17.114  39.833  11.194
70458W        W42718   9.801  21.045   2.141
70459W        W42719   5.302  39.885  12.123
70460W        W42720  41.030  30.591   1.737
70461W        W42721   4.314   2.919   4.137
70462W        W42722  40.057  37.313  12.586
70463W        W42723   1.014  31.508   0.792
70464W        W42724  22.986  22.103  12.968
70465W        W42725   3.836   7.955   1.794
70466W        W42726  41.796  35.923   0.953
70467W        W42727  41.319  32.426   3.161
70468W        W42728  20.720  16.282  13.929
70469W        W42729  28.174  35.731  12.414
70470W        W42730  17.239  20.139   1.381
70471W        W42731  41.566  25.447  11.115
70472W        W42732  18.268  20.454   1.675
70473W        W42733  11.085  27.432  14.417
70474W        W42734  19.631  30.855  12.094
70475W        W42735  36.003  11.438  14.911
70476W        W42736   8.305   7.378   4.570
70477W        W42737  14.451  31.033   2.770
70478W        W42738  37.592  13.726  13.467
70479W        W42739  30.664  19.098  13.620
70480W        W42740   8.987  40.564  11.662
70481W        W42741  29.121  16.576  14.839
70482W        W42742  24.239  26.238   5.380
70483W        W42743  32.722   2.038  12.901
70484W        W42744   1.943  25.449   0.940
70485W        W42745   8.723  39.990  14.775
70486W        W42746  26.519  23.114  10.797
70487W        W42747  32.623  32.016   2.622
70488W        W42748  14.671   2.213  11.896
70489W        W42749  35.372  31.547   2.446
70490W        W42750  26.538  12.444   4.101
70491W        W42751  30.408  16.109  14.923
70492W        W42752  22.507  38.583  10.272
70493W        W42753  44.645  13.351   5.096
70494W        W42754  29.874  28.972  12.432
70495W        W42755  13.653   1.750  14.835
70496W        W42756   3.840  24.503   3.390
70497W        W42757  35.902  28.188   0.715
70498W        W42758   0.514  13.874   0.474
70499W        W42759  38.767  12.591   3.663
70500W        W42760  26.014  28.116  11.010
70501W        W42761  37.074  12.868  13.838
70502W        W42762  13.404  10.903  12.621
70503W        W42763  23.602  11.144   0.486
70504W        W42764  37.984   1.218   0.926
70505W        W42765  26.712  29.246  11.498
70506W        W42766  12.738  25.273   2.438
70507W        W42767   9.265  41.967   2.834
70508W        W42768  43.890  25.544  14.222
70509W        W42769  15.060   6.930   1.767
70510W        W42770  15.170  32.186   0.606
70511W        W42771  29.724  40.277  14.501
70512W        W42772  17.384  43.610  13.744
70513W        W42773   6.023  39.092  13.754
70514W        W42774  39.914  15.146  14.162
70515W        W42775  28.952   0.810  13.446
70516W        W42776  19.206  39.489   3.697
70517W        W42777  36.574  15.308   2.661
70518W        W42778  44.910  40.744   2.694
70519W        W42779  11.207  39.563   4.168
70520W        W42780  36.113  19.748   0.902
70521W        W42781  18.350  24.997   4.109
70522W        W42782  11.209  28.905  13.415
70523W        W42783  36.618  28.405  11.942
70524W        W42784  41.108   0.368  13.741
70525W        W42785  28.047  35.171   4.760
70526W        W42786  41.050   3.838  10.901
70527W        W42787  15.465  20.933   0.969
70528W        W42788  22.959  15.236  12.501
70529W        W42789   5.641  11.019  11.072
70530W        W42790   0.706  29.561   3.807
70531W        W42791   2.186  27.699  14.393
70532W        W42792  11.207   6.893   3.782
70533W        W42793  24.167   4.819   4.155
70534W        W42794  28.402   9.165   0.292
70535W        W42795  12.555   8.780  11.940
70536W        W42796  26.492   0.865  14.785
70537W        W42797  33.561   4.399   3.029
70538W        W42798   2.411  22.448  13.789
70539W        W42799  37.670   1.226  14.399
70540W        W42800   3.282  29.421   3.783
70541W        W42801  41.955  36.441  12.929
70542W        W42802  22.778  18.068  11.992
70543W        W42803  33.119   0.719  10.668
70544W        W42804  29.009  40.992  11.521
70545W        W42805  33.181  43.415  10.560
70546W        W42806  12.365  36.815  14.362
70547W        W42807  16.505  25.599  14.074
70548W        W42808  24.159   7.658  14.812
70549W        W42809  16.349  41.823   4.034
70550W        W42810  25.105  17.119   4.797
70551W        W42811  39.362  31.315  14.887
70552W        W42812   0.976  26.907  10.658
70553W        W42813  11.303  26.360   5.160
70554W        W42814  24.819  19.700   2.824
70555W        W42815  35.487  21.422   2.508
70556W        W42816  11.092  19.807   1.846
70557W        W42817   2.941  10.361   3.260
70558W        W42818   0.416  16.132  14.333
70559W        W42819  44.802  41.839  12.917
70560W        W42820  26.429  44.553  11.523
70561W        W42821  34.756   8.318   3.713
70562W        W42822  20.579   8.701   0.014
70563W        W42823  20.275  30.936   4.577
70564W        W42824  35.879  11.260   1.843
70565W        W42825   9.128  38.460  11.040
70566W        W42826  16.457  35.610   0.709
70567W        W42827   6.900  39.995   0.863
70568W        W42828  16.558   7.200  12.886
70569W        W42829  21.487  31.191  11.983
70570W        W42830  11.861  24.676   0.918
70571W        W42831  13.790  21.944  10.803
70572W        W42832  18.069   7.823   0.738
70573W        W42833  17.326   4.454   0.279
70574W        W42834  21.556  36.087   5.185
70575W        W42835  36.080  12.528   1.832
70576W        W42836  37.007  38.443  13.558
70577W        W42837  42.269  39.362   1.751
70578W        W42838   9.401  12.152  13.315
70579W        W42839  27.866   7.399   1.308
70580W        W42840  37.451  28.018  13.088
70581W        W42841  13.054  41.333  14.208
70582W        W42842  26.573  14.705   4.664
70583W        W42843   8.221  18.364  11.143
70584W        W42844  31.598  15.834   1.202
70585W        W42845  44.497  24.121   3.065
70586W        W42846  12.609   9.812   0.240
70587W        W42847  20.211  16.701  11.164
70588W        W42848  18.121  44.161  11.702
70589W        W42849   6.196   5.895  10.856
70590W        W42850  34.498  39.912  12.028
70591W        W42851  29.630  43.494  10.854
70592W        W42852  18.271  16.229   3.109
70593W        W42853   8.352  17.774  12.414
70594W        W42854  37.941  39.361  14.415
70595W        W42855  12.207  24.502  12.368
70596W        W42856   5.348  20.352  10.742
70597W        W42857  32.407  11.540   1.676
70598W        W42858  34.474  22.519   1.041
70599W        W42859  14.605  36.397  11.020
70600W        W42860  37.080  24.937  14.273
70601W        W42861   1.176  42.694   2.879
70602W        W42862  32.502  41.887  11.119
70603W        W42863   8.295  30.444  13.474
70604W        W42864  39.900  31.940  11.920
70605W        W42865  43.111   1.416  10.142
70606W        W42866  38.483  13.267  13.342
70607W        W42867  27.500  33.860  14.182
70608W        W42868  24.245  32.114  13.626
70609W        W42869   8.730  18.695   1.662
70610W        W42870  34.420  24.574   0.899
70611W        W42871  15.388  22.495  13.437
70612W        W42872  40.051  12.734  13.001
70613W        W42873   2.007  31.617  12.609
70614W        W42874  31.528  15.294   0.772
70615W        W42875  25.588  39.373   3.352
70616W        W42876   3.831  23.615  12.025
70617W        W42877   3.354  21.213  12.721
70618W        W42878  21.086  32.527  10.673
70619W        W42879  20.555  10.251   1.787
70620W        W42880  22.042   9.364  13.966
70621W        W42881  11.939  23.538   3.141
70622W        W42882  39.533  44.777   4.226
70623W        W42883  15.204   9.093  14.053
70624W        W42884  15.610  30.087  10.631
70625W        W42885  23.527   7.985  10.804
70626W        W42886  33.992  22.259   2.255
70627W        W42887  19.399   2.483   3.233
70628W        W42888  35.538   9.114  12.007
70629W        W42889  44.754   3.168  12.324
70630W        W42890  27.616  34.419  12.397
70631W        W42891  42.600  25.909  11.923
70632W        W42892  33.473  18.875  12.939
70633W        W42893  15.158   6.419  12.000
70634W        W42894  36.427  17.118  13.958
70635W        W42895   1.226  35.994  11.585
70636W        W42896  28.141  33.372  13.818
70637W        W42897  25.061  42.482  13.967
70638W        W42898  22.275  26.292  11.984
70639W        W42899  11.153  15.755   3.316
70640W        W42900  36.940   5.987   4.440
70641W        W42901  38.574  40.805  10.711
70642W        W42902   3.448  22.069   0.247
70643W        W42903  26.652   6.470   4.184
70644W        W42904  32.623  20.587   3.859
70645W        W42905  19.173  15.920   1.441
70646W        W42906  34.727  10.533   4.516
70647W        W42907   6.553   8.560  11.289
70648W        W42908  15.891   8.212   4.684
70649W        W42909  21.157  39.497  13.750
70650W        W42910  40.570  11.054  13.926
70651W        W42911  43.636  14.479  14.975
70652W        W42912  43.988  17.292  11.951
70653W        W42913  25.109   6.527   3.684
70654W        W42914  28.340  11.701  14.555
70655W        W42915  11.274  19.102  12.050
70656W        W42916  12.327   0.424   2.418
70657W        W42917  39.428  20.649  10.330
70658W        W42918  12.258  22.954   3.735
70659W        W42919  36.862  35.144  14.019
70660W        W42920   3.846  16.142   4.214
70661W        W42921   5.400   2.904  14.722
70662W        W42922  12.177  33.175   2.231
70663W        W42923  15.292  35.465   4.874
70664W        W42924  34.417   3.749  11.666
70665W        W42925  39.350  35.722   2.324
70666W        W42926  20.358  42.221   4.229
70667W        W42927   0.174  39.156   1.841
70668W        W42928  33.624  20.036  11.563
70669W        W42929   3.238   0.617   2.519
70670W        W42930  16.031  16.257  11.881
70671W        W42931  40.117   7.612   4.297
70672W        W42932   8.899  24.639   4.181
70673W        W42933  23.007  36.906  12.532
70674W        W42934  20.269   0.932  14.948
70675W        W42935  41.010  39.552  10.695
70676W        W42936  36.034   2.141   1.504
70677W        W42937   0.613  26.671   4.427
70678W        W42938  23.023   6.414  12.119
70679W        W42939   2.581  37.420  13.879
70680W        W42940  39.252  22.652   4.875
70681W        W42941   8.520   2.364  14.448
70682W        W42942  20.306  27.481  12.496
70683W        W42943  38.368   0.669  14.311
70684W        W42944  14.794   9.603   1.361
70685W        W42945  25.886  26.543  14.406
70686W        W42946  18.347   3.639  12.910
70687W        W42947  12.265  20.486  14.814
70688W        W42948  44.426  37.957  14.387
70689W        W42949  26.572  40.523   5.164
70690W        W42950  28.935  24.275  14.841
70691W        W42951  37.296  34.282   3.634
70692W        W42952   8.821  22.907  13.593
70693W        W42953   8.388  24.529  13.523
70694W        W42954  33.612  28.599  12.107
70695W        W42955  19.522  12.297  11.627
70696W        W42956  19.424  29.722  12.082
70697W        W42957   2.947   4.770  12.848
70698W        W42958  34.365  23.551   4.488
70699W        W42959  26.764   4.253   2.774
70700W        W42960  12.177  30.512  13.127
70701W        W42961   8.712  43.217   0.108
70702W        W42962   1.403  19.528   2.255
70703W        W42963  44.977  33.930   0.854
70704W        W42964  28.477  22.635  10.713
70705W        W42965  14.614  14.312  11.510
70706W        W42966  44.990   3.770   2.791
70707W        W42967  16.736  44.505   4.678
70708W        W42968   4.932   5.284  14.034
70709W        W42969  27.713  27.268   0.286
70710W        W42970  34.102  32.019  12.920
70711W        W42971  10.140  17.297   3.501
70712W        W42972   6.400  33.430   4.587
70713W        W42973   1.854  14.332  13.882
70714W        W42974  42.367  20.465   2.072
70715W        W42975  34.925  20.725   3.323
70716W        W42976  16.577  12.577   1.904
70717W        W42977   1.803  33.481   2.314
70718W        W42978   5.156   9.842   1.913
70719W        W42979  31.770  44.682  12.058
70720W        W42980  25.010  36.102   0.124
70721W        W42981  43.511  40.740   1.488
70722W        W42982  38.906  30.602   4.295
70723W        W42983  23.454  40.823  14.978
70724W        W42984  21.148  10.355  12.639
70725W        W42985  29.622  19.936  12.028
70726W        W42986  41.793   2.161  10.502
70727W        W42987   6.229  29.955   0.683
70728W        W42988  32.672  20.244  13.094
70729W        W42989  10.134  39.854  12.040
70730W        W42990  26.473  36.075   2.674
70731W        W42991  23.423  23.095   0.358
70732W        W42992   9.157  26.217   0.782
70733W        W42993  43.979  39.181  12.919
70734W        W42994   6.955  38.319   1.829
70735W        W42995  41.988  16.805  10.761
70736W        W42996  16.699  44.375   4.184
70737W        W42997  19.587  18.479  14.904
70738W        W42998  12.150  19.781   2.672
70739W        W42999  33.322   4.794  14.467
70740W        W43000  21.308  31.146   3.628
70741W        W43001   0.997  34.930   0.846
70742W        W43002   1.709  12.538   3.209
70743W        W43003  28.243   7.392   3.755
70744W        W43004   3.830  35.635  12.506
70745W        W43005  13.011  16.725  10.230
70746W        W43006  44.021  13.206  14.391
70747W        W43007  17.234   0.960  10.667
70748W        W43008  11.722  21.329  13.836
70749W        W43009  30.107  20.214  14.478
70750W        W43010   3.436  28.251   1.846
70751W        W43011  11.428   2.378   1.825
70752W        W43012  11.698  42.585  11.620
70753W        W43013   5.674  27.640   2.138
70754W        W43014   8.743  33.569   1.251
70755W        W43015  25.493  20.954   0.319
70756W        W43016  29.167   8.409  14.210
70757W        W43017  31.525   6.315  14.946
70758W        W43018  16.342  41.810   4.537
70759W        W43019   3.283  36.014  11.135
70760W        W43020   9.200  37.047   3.722
70761W        W43021  22.929  36.123  12.035
70762W        W43022  31.129  22.155  10.790
70763W        W43023   0.319  18.733   1.244
70764W        W43024  21.026   5.786  14.738
70765W        W43025  29.053   2.459   0.490
70766W        W43026   9.869  33.361  14.114
70767W        W43027  13.395   5.240   2.712
70768W        W43028  23.227  18.776   3.662
70769W        W43029  28.606  23.079   4.186
70770W        W43030  39.125  14.251   0.233
70771W        W43031  20.821  23.038  12.662
70772W        W43032  35.156  43.288   2.703
70773W        W43033   4.022  18.190  11.187
70774W        W43034  11.094  42.253   1.851
70775W        W43035  15.257  39.821  11.500
70776W        W43036  17.496  10.235  14.859
70777W        W43037   7.674  33.391  12.002
70778W        W43038  32.104  23.448  12.516
70779W        W43039  33.584  27.778  12.536
70780W        W43040  44.411   9.536   2.167
70781W        W43041  31.106   0.388  11.160
70782W        W43042  19.202   1.948   3.341
70783W        W43043  22.309  20.059   3.066
70784W        W43044  24.178  33.871   4.178
70785W        W43045  37.117  22.570  11.542
70786W        W43046  30.235  15.940  11.160
70787W        W43047  32.956   6.246  14.040
70788W        W43048  12.138   0.072   0.510
70789W        W43049  21.063  15.479   1.335
70790W        W43050  30.870  21.734   4.217
70791W        W43051  25.128  17.139  13.027
70792W        W43052  16.554  24.419   4.351
70793W        W43053  19.098  43.999   2.877
70794W        W43054  20.508   2.174  13.428
70795W        W43055  41.140  36.913  11.448
70796W        W43056  18.287  38.928   0.953
70797W        W43057  17.701  32.960  12.886
70798W        W43058  17.720  32.288   3.759
70799W        W43059   1.481  25.968   1.485
70800W        W43060  28.402  23.703   0.838
70801W        W43061   9.267  32.887  12.877
70802W        W43062  34.524  39.837  13.991
70803W        W43063  15.083  43.955   3.127
70804W        W43064  10.727  13.473   1.922
70805W        W43065  28.427  32.953   1.642
70806W        W43066  41.010  10.540  10.564
70807W        W43067  12.672  18.140  11.634
70808W        W43068  25.888   7.690  14.791
70809W        W43069  40.213  14.423   4.018
70810W        W43070   3.570  40.308   0.467
70811W        W43071  28.882   2.301  11.184
70812W        W43072  22.160  15.868  10.907
70813W        W43073  42.928  40.014   2.205
70814W        W43074  42.465  13.082   0.339
70815W        W43075  23.883  28.459  13.427
70816W        W43076  19.033  18.315  11.534
70817W        W43077  44.883  15.745   2.893
70818W        W43078  15.085  13.770   3.774
70819W        W43079  29.771   5.041  12.460
70820W        W43080   0.432  16.488   4.593
70821W        W43081  18.365  28.211   1.376
70822W        W43082  22.779  42.450  14.265
70823W        W43083   3.807   6.203  14.901
70824W        W43084  29.809   9.749   2.900
70825W        W43085  10.445  40.936  14.411
70826W        W43086   4.791  13.516   4.228
70827W        W43087   2.840  28.571   4.569
70828W        W43088  16.999  30.735   0.004
70829W        W43089   9.965  32.233   2.728
70830W        W43090   1.582  23.604  13.391
70831W        W43091  30.905  38.932  14.822
70832W        W43092  14.055  16.814   3.769
70833W        W43093  22.029  15.618  14.013
70834W        W43094  29.074  23.484   0.276
70835W        W43095  38.874  13.727  14.047
70836W        W43096  24.122   7.463  11.087
70837W        W43097  32.398  44.819   3.483
70838W        W43098  15.998  11.938  10.451
70839W        W43099  11.241  28.196  12.577
70840W        W43100  22.475  18.220  12.459
70841W        W43101   6.402  24.664   4.459
70842W        W43102  39.707  42.517  11.113
70843W        W43103  38.382  35.083  12.468
70844W        W43104  14.831  15.242   2.273
70845W        W43105   0.420  22.127   2.900
70846W        W43106  33.166   4.188   2.326
70847W        W43107  26.248  10.253  13.542
70848W        W43108  20.021  34.383   4.112
70849W        W43109  26.786  33.004  14.856
70850W        W43110   8.829  27.012  14.400
70851W        W43111  33.979  28.559   0.255
70852W        W43112  31.873  40.968   4.855
70853W        W43113  16.558  38.438   1.045
70854W        W43114  38.149  19.772  13.523
70855W        W43115  27.931  24.116  14.958
70856W        W43116  17.707  33.295   2.574
70857W        W43117  40.581  13.413  11.258
70858W        W43118  28.518  40.770  11.402
70859W        W43119  15.701  33.016  13.528
70860W        W43120  15.757  37.618  12.312
70861W        W43121  16.779   7.817   2.159
70862W        W43122  18.577   6.285  12.013
70863W        W43123  14.587  13.038  11.525
70864W        W43124   2.402  20.799  10.419
70865W        W43125  14.952  20.981   2.288
70866W        W43126  25.970  36.002  11.602
70867W        W43127  39.913  19.649  11.122
70868W        W43128   9.919  18.550  11.400
70869W        W43129   3.548   1.313  14.881
70870W        W43130  41.410   3.322  12.968
70871W        W43131  12.288  31.842  10.697
70872W        W43132  34.004  17.170  13.630
70873W        W43133  23.557  30.563  13.964
70874W        W43134  28.825  14.850  13.931
70875W        W43135  44.464  19.143  11.198
70876W        W43136  33.418  35.040  12.527
70877W        W43137  35.071  40.788  11.958
70878W        W43138   1.845  22.798   2.873
70879W        W43139   9.476   3.877  13.758
70880W        W43140  29.950  12.360  14.772
70881W        W43141  32.037  22.206  14.050
70882W        W43142   9.408  22.012   0.756
70883W        W43143  13.686  15.585  13.431
70884W        W43144  43.452  36.991  14.364
70885W        W43145   5.120   7.500  10.623
70886W        W43146  29.485  37.983  12.892
70887W        W43147  36.394  16.787   3.209
70888W        W43148   7.413  22.526   2.461
70889W        W43149   6.225  34.844   3.313
70890W        W43150  34.954  18.233   3.715
70891W        W43151   5.406  23.587  12.539
70892W        W43152  41.489  19.641   3.312
70893W        W43153  22.911  32.136  11.094
70894W        W43154  16.851   6.386   4.599
70895W        W43155  37.381  24.519   3.670
70896W        W43156   1.212  13.583  12.058
70897W        W43157  36.887   2.626  14.486
70898W        W43158  18.651  24.569  11.269
70899W        W43159  12.683   4.535  14.167
70900W        W43160   6.463   0.200   2.943
70901W        W43161  30.394  11.545   3.728
70902W        W43162   9.423  29.031  14.304
70903W        W43163  36.038  15.622   2.379
70904W        W43164  17.132  36.940  11.190
70905W        W43165  10.804   5.641   0.777
70906W        W43166  28.460  43.070   4.886
70907W        W43167  35.201  10.798  14.862
70908W        W43168  10.464   8.450  11.483
70909W        W43169  11.494  28.367  10.256
70910W        W43170  40.591  14.612  13.042
70911W        W43171  16.667   2.748  10.577
70912W        W43172  19.557  26.276  12.462
70913W        W43173  40.760  10.946   2.403
70914W        W43174  39.097  16.387   4.556
70915W        W43175  36.959  39.352   4.103
70916W        W43176  41.023  35.342   2.870
70917W        W43177  14.557  31.223   1.434
70918W        W43178  17.782  30.118   4.823
70919W        W43179   9.454  31.983   4.199
70920W        W43180  32.564  33.341   1.268
70921W        W43181  15.049  37.148  12.922
70922W        W43182  35.700  44.579  12.423
70923W        W43183  30.949  28.759  10.733
70924W        W43184  43.462   9.577   2.864
70925W        W43185  36.775  39.763   0.401
70926W        W43186  25.070  38.804  11.014
70927W        W43187  32.466   6.367  11.133
70928W        W43188  44.014  24.059  11.151
70929W        W43189  28.044  25.199  10.717
70930W        W43190  40.784   8.134  11.613
70931W        W43191  29.189   9.057  13.515
70932W        W43192  15.357  30.204   5.019
70933W        W43193  26.685   2.734  12.876
70934W        W43194  42.422   5.887   4.521
70935W        W43195  24.460  16.715   3.141
70936W        W43196  17.525  16.850   1.604
70937W        W43197   2.718   1.405  14.467
70938W        W43198  36.568  12.318   1.474
70939W        W43199  21.970  26.697  11.039
70940W        W43200  25.532   6.831   3.700
70941W        W43201  42.789  34.128   2.636
70942W        W43202  14.863  34.911   1.350
70943W        W43203  24.060  30.723  12.789
70944W        W43204  20.044  40.066   1.277
70945W        W43205  43.961  30.276  12.443
70946W        W43206  22.144  14.565   2.638
70947W        W43207  21.020  38.447  13.508
70948W        W43208  11.159   6.227  11.331
70949W        W43209  43.972   9.871  11.899
70950W        W43210   0.650  21.681  14.868
70951W        W43211   3.044   5.894   2.367
70952W        W43212  10.986  10.237  11.090
70953W        W43213  16.520  15.195  14.448
70954W        W43214  42.312  33.455   4.594
70955W        W43215  35.147  12.567   3.590
70956W        W43216  28.108   6.486  14.061
70957W        W43217   4.338  15.123   2.918
70958W        W43218  15.543   9.697   0.885
70959W        W43219  38.655  16.838  10.341
70960W        W43220  39.885  20.905   4.427
70961W        W43221  23.742  11.689  11.917
70962W        W43222  32.234   1.273   2.407
70963W        W43223  30.849  34.406   2.748
70964W        W43224   1.755  40.843   2.875
70965W        W43225  28.025  37.856  12.607
70966W        W43226  16.809   7.839   1.240
70967W        W43227  24.643  37.389   5.390
70968W        W43228   6.297  31.222  14.288
70969W        W43229  17.892   2.328   4.747
70970W        W43230  22.525  41.355  11.637
70971W        W43231   8.196  42.333  10.643
70972W        W43232   1.089  23.195  12.449
70973W        W43233  12.971   0.005  14.926
70974W        W43234  15.052  30.824  14.996
70975W        W43235   2.226   8.914  12.958
70976W        W43236  31.140  13.683  14.994
70977W        W43237  43.340  28.104   2.861
70978W        W43238  31.856  21.171   0.598
70979W        W43239  30.529  34.397  13.040
70980W        W43240   8.402  35.525  10.641
70981W        W43241  31.085  33.371   1.320
70982W        W43242  18.973   7.964  14.376
70983W        W43243  23.277  31.616   2.325
70984W        W43244  26.020   1.279   4.214
70985W        W43245  24.157  40.003   2.342
70986W        W43246   8.668   5.847  11.935
70987W        W43247  37.239  25.876   0.482
70988W        W43248  42.230   9.151  11.473
70989W        W43249  20.502  44.525  13.123
70990W        W43250   0.473  13.138  13.564
70991W        W43251   3.372  26.413   2.214
70992W        W43252  14.309  11.171   3.839
70993W        W43253  26.669  20.096  11.352
70994W        W43254  29.557  33.888  10.530
70995W        W43255   4.370  25.043   4.208
70996W        W43256   4.855  43.541   4.228
70997W        W43257  29.966   6.248   1.896
70998W        W43258   0.725  28.651  12.450
70999W        W43259  29.954  16.082  10.739
71000W        W43260  39.442  19.660   4.164
71001W        W43261  21.486   8.723   4.459
71002W        W43262  19.789  11.818   3.214
71003W        W43263  16.565   9.084   4.422
71004W        W43264  12.696  20.069   0.374
71005W        W43265  24.096  38.459  14.645
71006W        W43266  20.095  42.825   3.402
71007W        W43267  15.121  13.665   0.182
71008W        W43268  15.869  19.008   1.002
71009W        W43269  42.698   0.905   0.506
71010W        W43270  24.586  35.951  12.049
71011W        W43271  21.018  44.505  12.983
71012W        W43272  15.122   8.425   3.729
71013W        W43273   5.291   3.400   4.532
71014W        W43274   1.132  35.471   0.911
71015W        W43275   4.942  41.884   0.786
71016W        W43276  40.163  28.024   9.883
71017W        W43277  23.483  33.398   0.333
71018W        W43278  24.143  28.492   1.801
71019W        W43279  21.776  24.688  11.095
71020W        W43280  23.880   7.935   3.286
71021W        W43281  12.975   7.551  12.982
71022W        W43282   3.241  39.603   1.819
71023W        W43283  26.264  43.717   1.368
71024W        W43284  11.368   4.857   4.077
71025W        W43285  41.719   6.524   4.507
71026W        W43286  39.731  11.896  12.002
71027W        W43287  30.427  10.871  12.034
71028W        W43288  21.614  29.701   1.293
71029W        W43289  15.698   4.705   0.417
71030W        W43290  40.034  43.817  12.913
71031W        W43291  16.174  26.070   2.091
71032W        W43292  21.261  23.794  12.216
71033W        W43293  33.946  25.201   0.475
71034W        W43294  41.565  28.527  14.620
71035W        W43295  14.290  11.951  12.511
71036W        W43296  16.102   5.853  13.354
71037W        W43297  14.953  41.150   4.165
71038W        W43298  15.041  36.074  10.868
71039W        W43299  37.189  27.484  14.007
71040W        W43300  40.937  19.989   4.709
71041W        W43301  11.792  17.736  11.483
71042W        W43302  28.977  17.072  14.970
71043W        W43303  20.150  27.917  10.159
71044W        W43304  40.330  20.194  11.121
71045W        W43305  42.555  28.038  14.738
71046W        W43306  25.507  20.215   1.209
71047W        W43307  28.679  33.208  13.575
71048W        W43308  41.508  40.041  12.547
71049W        W43309  43.841  34.007  14.341
71050W        W43310  17.593  26.393   1.382
71051W        W43311  37.776  12.405   3.718
71052W        W43312  13.106   8.373  11.222
71053W        W43313  29.648   1.812   3.146
71054W        W43314  14.054  43.440  13.832
71055W        W43315   6.188  19.232   4.520
71056W        W43316  40.347  24.972   3.274
71057W        W43317  36.581  37.804   0.818
71058W        W43318  13.829  25.525   2.889
71059W        W43319  43.013   2.277   3.582
71060W        W43320  28.994   7.522  14.514
71061W        W43321  37.028   9.628   0.785
71062W        W43322  39.603  42.030  12.373
71063W        W43323  42.536  44.448  12.799
71064W        W43324  24.747  31.419  14.032
71065W        W43325  32.869  29.615  11.944
71066W        W43326   9.826  31.812  13.711
71067W        W43327  27.450  33.619  11.946
71068W        W43328  34.570  36.391   0.739
71069W        W43329   7.175  25.496   1.968
71070W        W43330  19.774  38.530   2.505
71071W        W43331  42.423  25.949   4.855
71072W        W43332  25.703  15.105   3.288
71073W        W43333  16.772   8.142   4.580
71074W        W43334  25.634  20.773   4.151
71075W        W43335  28.921   1.240  12.690
71076W        W43336   0.504  16.753   0.662
71077W        W43337  21.194   6.243  13.884
71078W        W43338  31.955   3.400   3.604
71079W        W43339  43.494  39.348  14.911
71080W        W43340  26.807  18.764   0.892
71081W        W43341   2.412  11.679  11.176
71082W        W43342   8.730  31.577   0.329
71083W        W43343  36.598  37.214  11.779
71084W        W43344   6.267   0.118   2.451
71085W        W43345  34.200  12.680   0.082
71086W        W43346  20.777   4.606   1.857
71087W        W43347  23.992  36.622  13.121
71088W        W43348   4.357  22.005   4.127
71089W        W43349   1.536  12.058  14.069
71090W        W43350  26.120  16.210   3.199
71091W        W43351   2.498  27.579  10.974
71092W        W43352  10.170   1.444   1.758
71093W        W43353   9.846  13.170   1.825
71094W        W43354  38.180  25.618  11.518
71095W        W43355  20.571  10.137   0.734
71096W        W43356  26.448  36.397  13.888
71097W        W43357  27.863   2.395  11.967
71098W        W43358   9.266  12.528  14.760
71099W        W43359  44.496  43.338  13.829
71100W        W43360  21.690  20.255  13.262
71101W        W43361  41.369  29.690  13.804
71102W        W43362  29.586  14.340  10.828
71103W        W43363  43.385  30.951   0.375
71104W        W43364  17.834  23.690  14.883
71105W        W43365   7.926  37.884   3.685
71106W        W43366  13.646  38.780  12.047
71107W        W43367  13.536   3.439  12.329
71108W        W43368  11.801  17.723   3.590
71109W        W43369   2.725  41.299  14.356
71110W        W43370  38.391  35.073   0.026
71111W        W43371   1.157  22.739   4.029
71112W        W43372  19.162   6.755  14.078
71113W        W43373  26.984   3.405  11.382
71114W        W43374  44.432  16.288   4.567
71115W        W43375  32.678   2.850  14.509
71116W        W43376  10.132   7.920   1.946
71117W        W43377  29.995   4.500   1.266
71118W        W43378  43.841  30.719   2.805
71119W        W43379   1.002  21.517  13.803
71120W        W43380  20.216   0.701  10.687
71121W        W43381  12.104   6.627  11.618
71122W        W43382   4.594   1.387   3.392
71123W        W43383   6.075   0.281   3.305
71124W        W43384  32.337  22.547   3.665
71125W        W43385  44.353  36.925   2.923
71126W        W43386   2.761  40.972  13.052
71127W        W43387  30.045  43.033   5.286
71128W        W43388   1.179  37.517  14.817
71129W        W43389  13.419  44.250  13.412
71130W        W43390  18.095  18.257   3.365
71131W        W43391  40.037   6.713  13.313
71132W        W43392   8.153  33.407   3.067
71133W        W43393  19.878  29.034   3.893
71134W        W43394  12.894  23.975  11.548
71135W        W43395  28.235  35.953  10.007
71136W        W43396   6.043  38.765   2.817
71137W        W43397  21.268  40.320   2.752
71138W        W43398  14.813   8.855  13.826
71139W        W43399  40.044  18.093   2.419
71140W        W43400  21.886  29.865  14.305
71141W        W43401  42.662  29.364   3.624
71142W        W43402  38.005  14.646  12.077
71143W        W43403  12.299  21.545  11.687
71144W        W43404  15.327  39.547  14.605
71145W        W43405  23.179  22.669  14.180
71146W        W43406  29.303  28.640   0.390
71147W        W43407  11.718   5.234   0.952
71148W        W43408   2.724   4.703  12.390
71149W        W43409  30.940   6.638   0.934
71150W        W43410  39.433  22.216  11.314
71151W        W43411  27.355  15.879   3.292
71152W        W43412  36.975  33.697  14.134
71153W        W43413  16.511  43.269  12.046
71154W        W43414  29.101  15.678   2.909
71155W        W43415  33.126  40.729  12.948
71156W        W43416  41.456  22.744   1.312
71157W        W43417   4.157  34.635  13.270
71158W        W43418   5.713  18.913   3.661
71159W        W43419   2.236  29.681  11.539
71160W        W43420  21.030   3.793  14.433
71161W        W43421  32.680  43.259  14.932
71162W        W43422  38.443  38.767  13.612
71163W        W43423  38.330  12.736  12.416
71164W        W43424  15.104  17.554  14.307
71165W        W43425  22.465  39.812  14.514
71166W        W43426   4.869  32.117   0.477
71167W        W43427  13.289  14.104  14.858
71168W        W43428   3.314   2.816   0.411
71169W        W43429  16.795  14.726  10.635
71170W        W43430  17.709   0.002   0.439
71171W        W43431  19.291  20.120   4.568
71172W        W43432  19.826  22.204  12.370
71173W        W43433  35.429  30.455   4.858
71174W        W43434  28.066   3.837   1.667
71175W        W43435  23.156  31.057  14.896
71176W        W43436   5.856  32.004   1.662
71177W        W43437  18.717  10.397   0.815
71178W        W43438  36.662   6.396  11.627
71179W        W43439   1.953  22.956  12.031
71180W        W43440  28.725  20.132   1.787
71181W        W43441  41.331  37.279  12.982
71182W        W43442  18.478  31.532   0.374
71183W        W43443  12.380   5.405  13.986
71184W        W43444  10.262  29.702   3.240
71185W        W43445  38.259  21.105   1.244
71186W        W43446  15.670   7.628   1.942
71187W        W43447  17.865  40.119   4.225
71188W        W43448  34.948  24.925  10.147
71189W        W43449  16.065  40.064  11.127
71190W        W43450  32.457  21.914  13.168
71191W        W43451  28.638   8.294  10.831
71192W        W43452  21.545   3.880  10.590
71193W        W43453  20.208  21.066   4.582
71194W        W43454  42.259  44.785  14.098
71195W        W43455   6.778  37.000   4.723
71196W        W43456  33.306  32.751  11.585
71197W        W43457  41.317  30.742   2.149
71198W        W43458  42.480  20.140   1.358
71199W        W43459  33.971  38.283   2.792
71200W        W43460   2.812   7.487   1.928
71201W        W43461   2.033  40.966  12.165
71202W        W43462  15.629  13.286   0.041
71203W        W43463  16.642  32.301   1.205
71204W        W43464   9.017  37.598   4.468
71205W        W43465  34.452   8.895   3.674
71206W        W43466   0.915  17.292   2.348
71207W        W43467  35.496  16.609  10.807
71208W        W43468  25.425   2.775  14.936
71209W        W43469  28.876  10.750   2.618
71210W        W43470  32.843  34.353  12.145
71211W        W43471   1.707  31.145   1.126
71212W        W43472   9.705   6.155  13.841
71213W        W43473   3.835  43.800   1.839
71214W        W43474   8.340   9.615  12.956
71215W        W43475  41.627   6.461  11.300
71216W        W43476   3.988  42.936  13.425
71217W        W43477  24.960  26.566  11.546
71218W        W43478  27.626  35.114   0.868
71219W        W43479  41.774  44.255   3.644
71220W        W43480   7.130  12.149  10.503
71221W        W43481  20.523   0.049  13.865
71222W        W43482   5.435  38.638  13.029
71223W        W43483  33.151  24.516  14.342
71224W        W43484  17.110  20.598   0.316
71225W        W43485  25.715  18.400   3.102
71226W        W43486  33.022  12.290   1.817
71227W        W43487  36.557  15.714   5.069
71228W        W43488  28.747   4.548  14.505
71229W        W43489  42.821  16.355   2.725
71230W        W43490   7.860  35.598   2.853
71231W        W43491  31.990  27.044  13.503
71232W        W43492  41.765  42.370   0.425
71233W        W43493   9.777  28.629  13.106
71234W        W43494  19.982  36.831  11.639
71235W        W43495  21.601  13.661   1.475
71236W        W43496  20.655  36.055   1.982
71237W        W43497  12.748  44.996  11.390
71238W        W43498   9.219  43.354  14.366
71239W        W43499  29.529  21.713  11.803
71240W        W43500  33.617  18.340  13.002
71241W        W43501  34.383  29.905  11.003
71242W        W43502   3.896  25.163  13.050
71243W        W43503  31.732   2.892   3.450
71244W        W43504  17.201   0.236   4.409
71245W        W43505  35.532  44.667  14.472
71246W        W43506  41.939  11.722   1.193
71247W        W43507   0.312  15.090   3.388
71248W        W43508  41.754  26.887  13.268
71249W        W43509  18.237  18.128  12.814
71250W        W43510   4.480  32.062  13.565
71251W        W43511  38.143   9.177   5.367
71252W        W43512   2.428  24.648   0.887
71253W        W43513  22.958   5.189  12.387
71254W        W43514  42.839  22.883   3.896
71255W        W43515  11.932  41.252  11.129
71256W        W43516  21.043   8.966  13.028
71257W        W43517   5.802  35.345  12.171
71258W        W43518  19.648  22.134   3.776
71259W        W43519  16.819  39.376   0.060
71260W        W43520   0.462   5.812  12.869
71261W        W43521   2.404  23.750  14.011
71262W        W43522  42.339  20.692  10.382
71263W        W43523  19.133  37.359   0.833
71264W        W43524  44.940  37.079   4.632
71265W        W43525   2.121  27.657  11.358
71266W        W43526   3.809  18.339   5.044
71267W        W43527   4.536  10.839  13.519
71268W        W43528  29.457  21.515   2.480
71269W        W43529  33.360   8.724  10.326
71270W        W43530  36.399  21.931   4.801
71271W        W43531   0.480  12.327   4.309
71272W        W43532  44.358   8.752   2.876
71273W        W43533  25.455  11.828  11.562
71274W        W43534   4.867  21.715  13.736
71275W        W43535   1.901  34.932   0.045
71276W        W43536  26.044  34.835   3.724
71277W        W43537  35.768  23.535   3.762
71278W        W43538  33.296  17.819   4.554
71279W        W43539  21.578   6.366  11.125
71280W        W43540   1.810  42.967  14.357
71281W        W43541  12.890  24.686  13.043
71282W        W43542  37.858  36.811  11.087
71283W        W43543   7.255   6.825  13.327
71284W        W43544  13.619   4.895  12.872
71285W        W43545  43.824   0.933  14.818
71286W        W43546  22.484   9.074  11.686
71287W        W43547   5.471  25.474   2.339
71288W        W43548   8.904  33.336  13.842
71289W        W43549  44.795   4.879   1.862
71290W        W43550   3.885  30.351  11.932
71291W        W43551  40.230   3.831   2.200
71292W        W43552  33.662  23.131   4.621
71293W        W43553  15.099  34.049   0.915
71294W        W43554  35.464  30.116   0.687
71295W        W43555  16.849  37.761  11.911
71296W        W43556  41.868   9.616   3.236
71297W        W43557  34.678  16.606  13.439
71298W        W43558  10.154  22.547   4.017
71299W        W43559  31.853   2.840   1.877
71300W        W43560  43.565  22.131   1.308
71301W        W43561  30.063  20.887   1.536
71302W        W43562  40.326   7.888  14.057
71303W        W43563   9.292  39.001   2.107
71304W        W43564  30.115  44.649  12.480
71305W        W43565  24.168  26.309   4.605
71306W        W43566   5.445  23.571   3.236
71307W        W43567  43.319  14.375  14.513
71308W        W43568  43.830   0.327  12.071
71309W        W43569   2.857   0.228   0.103
71310W        W43570  11.822  29.210  11.701
71311W        W43571  15.337  23.478  12.921
71312W        W43572  10.150  25.935   3.914
71313W        W43573   4.792  18.654  10.384
71314W        W43574  35.050  18.364   4.235
71315W        W43575  18.283  21.670  10.668
71316W        W43576  21.594   3.890  12.527
71317W        W43577  19.733  12.832   4.273
71318W        W43578  32.050  38.991   0.425
71319W        W43579  22.552  36.425  14.716
71320W        W43580  19.162   3.318   2.842
71321W        W43581  22.518  39.067  11.948
71322W        W43582  17.756  11.216   3.178
71323W        W43583  15.526  18.176  11.447
71324W        W43584  33.169   3.183   0.012
71325W        W43585  10.910  11.591   1.823
71326W        W43586  24.781   5.964  14.784
71327W        W43587  13.297  13.198  14.875
71328W        W43588  34.106  11.134   3.804
71329W        W43589  11.710  33.595   3.647
71330W        W43590  21.385  29.115   2.809
71331W        W43591  28.476  33.364  11.066
71332W        W43592  30.216  11.662  14.540
71333W        W43593   3.331  21.539  13.922
71334W        W43594  28.607  10.223   1.429
71335W        W43595  38.934   0.934   4.601
71336W        W43596   6.242   0.502  13.003
71337W        W43597  36.420  37.403   3.639
71338W        W43598  20.474   3.585   1.725
71339W        W43599  37.403  13.913  11.121
71340W        W43600  36.219   1.735  12.398
71341W        W43601   4.987  19.939   0.404
71342W        W43602  15.113  22.616  12.457
71343W        W43603  28.221  10.784  13.559
71344W        W43604   3.943  28.189   4.581
71345W        W43605  29.938  25.215  10.649
71346W        W43606  30.931  19.467   1.912
71347W        W43607  25.266  41.376   1.974
71348W        W43608  18.462  15.762   0.806
71349W        W43609   6.638   5.908   2.320
71350W        W43610  29.695  22.995  14.452
71351W        W43611   0.277   4.893  13.548
71352W        W43612  13.205  15.093   1.400
71353W        W43613  23.033  36.890  14.901
71354W        W43614  15.261  20.962  11.147
71355W        W43615   8.366  23.629  12.651
71356W        W43616  30.666  15.642  14.926
71357W        W43617   7.624  33.413  11.180
71358W        W43618  34.800  15.801   0.728
71359W        W43619  38.043  24.566  12.975
71360W        W43620  25.797  35.676  11.943
71361W        W43621  16.779  12.336   2.342
71362W        W43622   6.092  30.551  11.553
71363W        W43623  25.674  39.281   0.837
71364W        W43624  16.278   4.877   3.731
71365W        W43625  36.585  42.808   0.832
71366W        W43626  28.396  38.367   2.846
71367W        W43627  37.640   5.012   0.602
71368W        W43628  14.313  22.546   4.031
71369W        W43629  16.984  41.743   0.918
71370W        W43630  39.875   1.830   1.260
71371W        W43631   5.922  33.523   0.776
71372W        W43632   7.354   7.215   2.876
71373W        W43633   9.637  19.237  13.554
71374W        W43634   3.952  28.592   4.162
71375W        W43635  10.435  37.067  11.515
71376W        W43636  20.692  23.238  14.791
71377W        W43637  36.869  39.791  11.117
71378W        W43638   2.898   4.918  14.197
71379W        W43639  30.381  38.984   0.901
71380W        W43640  42.287  14.211   4.118
71381W        W43641  32.923  37.068   0.724
71382W        W43642  29.530  28.528  11.247
71383W        W43643  14.360  30.927  10.095
71384W        W43644  37.898  24.479   3.647
71385W        W43645   2.168  41.040  10.785
71386W        W43646  42.042  26.081   4.530
71387W        W43647  16.617   3.996   3.182
71388W        W43648  20.785  28.727   3.910
71389W        W43649  15.050  32.943  10.717
71390W        W43650  39.366   8.108   4.084
71391W        W43651  16.126  18.670  12.883
71392W        W43652  25.651  40.579  10.372
71393W        W43653   3.270   2.937   3.353
71394W        W43654   8.659  42.597  11.527
71395W        W43655  33.515   6.604  11.044
71396W        W43656   0.347  27.728   4.697
71397W        W43657  30.664  32.378   3.787
71398W        W43658  21.045  23.010   2.383
71399W        W43659  41.961  12.878  13.969
71400W        W43660  28.061  37.908  14.819
71401W        W43661  36.576   2.871   0.355
71402W        W43662  29.272  24.586  12.926
71403W        W43663  11.248  16.751  13.096
71404W        W43664  34.044  14.575  13.192
71405W        W43665  27.918  15.049  11.996
71406W        W43666  12.335  16.657   3.090
71407W        W43667  12.604  39.434  12.882
71408W        W43668  40.518  14.769   4.238
71409W        W43669  10.158  11.416   2.311
71410W        W43670  32.577  26.974  13.330
71411W        W43671  15.155  12.954   2.191
71412W        W43672  20.523   0.216   0.909
71413W        W43673  10.753  44.824   0.342
71414W        W43674  14.796   4.249   0.215
71415W        W43675  26.697  13.414   0.884
71416W        W43676   0.307  29.626   4.668
71417W        W43677  23.002  34.041  10.465
71418W        W43678  15.427  21.120  10.687
71419W        W43679   3.794  34.500   3.136
71420W        W43680  40.222  43.517   2.000
71421W        W43681  35.303   6.092  12.963
71422W        W43682   1.378  35.591   4.101
71423W        W43683  24.943  24.755  14.819
71424W        W43684  16.164  29.057  13.397
71425W        W43685   3.415   0.129  12.137
71426W        W43686  25.986  24.688  14.719
71427W        W43687  43.473  36.122  12.547
71428W        W43688  43.012  10.790   3.101
71429W        W43689  41.361  16.355   3.541
71430W        W43690   3.552   7.217   4.016
71431W        W43691  38.869  24.619   4.770
71432W        W43692  12.494  26.537   1.233
71433W        W43693   6.663  44.403  11.566
71434W        W43694  19.007  35.419  12.836
71435W        W43695  39.752   3.775   4.575
71436W        W43696  30.723  19.984  13.942
71437W        W43697  32.129  10.656   1.060
71438W        W43698  29.905   1.991  11.915
71439W        W43699   0.650  28.773  11.000
71440W        W43700  11.268  30.507   3.940
71441W        W43701   7.070  30.140   2.870
71442W        W43702  34.832   2.467  14.861
71443W        W43703   8.601   1.293   4.227
71444W        W43704  10.384  20.344  10.720
71445W        W43705  34.120   3.155   0.378
71446W        W43706  44.999  32.050  11.976
71447W        W43707  18.798  20.046   4.419
71448W        W43708  11.213   7.123  11.788
71449W        W43709  13.909  35.316   2.251
71450W        W43710  38.871  42.912   3.356
71451W        W43711  31.055  23.629  11.532
71452W        W43712  17.995   2.050   1.852
71453W        W43713  28.942  37.088  11.802
71454W        W43714  33.526  10.710  12.413
71455W        W43715  44.679  37.497  11.954
71456W        W43716  43.637  27.164  12.694
71457W        W43717  28.178  18.180   3.100
71458W        W43718  42.947  38.362  11.996
71459W        W43719   8.847  11.514  13.964
71460W        W43720  30.081  20.574   2.731
71461W        W43721   7.135  20.809  13.419
71462W        W43722  33.027  17.133   3.254
71463W        W43723  30.576  28.180   4.101
71464W        W43724  22.512  20.614   2.957
71465W        W43725   0.118  31.593  11.525
71466W        W43726  43.048  11.762  11.335
71467W        W43727  38.082  39.026   0.012
71468W        W43728  13.800  30.132   3.380
71469W        W43729  14.996   1.652  12.488
71470W        W43730  38.102  19.183  13.593
71471W        W43731  39.041  39.818   3.182
71472W        W43732  31.713   3.028  14.678
71473W        W43733   3.081  29.451  11.102
71474W        W43734  26.495  13.776  11.626
71475W        W43735  26.283  44.808   3.733
71476W        W43736  13.865  13.681   2.025
71477W        W43737  42.439   7.288  10.658
71478W        W43738  38.080   4.269  11.918
71479W        W43739  25.908   2.388   3.417
71480W        W43740  20.553  26.470  12.064
71481W        W43741  21.005  36.938   2.755
71482W        W43742  30.643  28.822  11.997
71483W        W43743  23.951  31.558  14.731
71484W        W43744  33.149  18.561  14.745
71485W        W43745  16.111  29.727   0.335
71486W        W43746  43.285  41.272  13.373
71487W        W43747  36.897  23.259  14.888
71488W        W43748   2.610  14.318  13.597
71489W        W43749  37.000  29.667   1.268
71490W        W43750  35.943  33.535  14.509
71491W        W43751  29.103   7.216  14.912
71492W        W43752  28.677  27.437   4.108
71493W        W43753   4.411  35.129   3.257
71494W        W43754  41.518   1.806  14.815
71495W        W43755  19.488   8.333   2.358
71496W        W43756  42.501   1.217  12.418
71497W        W43757   0.189  29.506   3.914
71498W        W43758  12.290   2.462   4.533
71499W        W43759  39.145  11.194  13.975
71500W        W43760  38.293  27.688  12.106
71501W        W43761  40.283  14.201   2.147
71502W        W43762  35.397   3.446  13.794
71503W        W43763  33.050  10.836  14.782
71504W        W43764  25.581   9.254  11.628
71505W        W43765   8.260  37.304   0.356
71506W        W43766  27.121  11.323  13.615
71507W        W43767   1.005  40.856   2.149
71508W        W43768  11.784   4.474  14.390
71509W        W43769  28.210  43.556   0.409
71510W        W43770  31.197   3.896  14.346
71511W        W43771  21.694  30.914  12.681
71512W        W43772  25.049  21.154  10.291
71513W        W43773  41.486  21.632   3.644
71514W        W43774  15.961  18.277   0.111
71515W        W43775  27.140  43.892  13.897
71516W        W43776   0.573  25.217   0.795
71517W        W43777   6.955  18.093   2.803
71518W        W43778   4.781  26.942  13.826
71519W        W43779  33.958  11.719   4.577
71520W        W43780   4.519  29.076   3.027
71521W        W43781   6.694  34.973   3.097
71522W        W43782   2.480  29.591   2.266
71523W        W43783  24.992   4.449  14.442
71524W        W43784  36.223   5.693   3.084
71525W        W43785  37.037   8.398  10.696
71526W        W43786  30.411  16.772  11.085
71527W        W43787  23.652  26.215   4.628
71528W        W43788  23.450  31.852  14.173
71529W        W43789   4.428  17.158  11.906
71530W        W43790  18.613   9.285   0.469
71531W        W43791   6.373   4.680   3.358
71532W        W43792  10.254  13.085  13.434
71533W        W43793  12.851  31.461  12.367
71534W        W43794   0.373   1.435   1.227
71535W        W43795  30.072  29.443   3.765
71536W        W43796  34.241   5.407  12.387
71537W        W43797   4.283  15.148  12.587
71538W        W43798  32.444  32.817  11.557
71539W        W43799  11.392  12.795  11.098
71540W        W43800  21.651  25.589   3.470
71541W        W43801   1.418  17.289   1.409
71542W        W43802  31.655  38.940  14.650
71543W        W43803   0.816  41.475  14.359
71544W        W43804  24.387   7.208   2.692
71545W        W43805  27.443  13.265   4.088
71546W        W43806  25.110  23.574  13.556
71547W        W43807  13.179  10.519   5.126
71548W        W43808  17.349  26.542  11.157
71549W        W43809  37.528  35.371   4.567
71550W        W43810  19.179  10.233  14.786
71551W        W43811   1.504   4.266   1.991
71552W        W43812   8.594  18.115   2.159
71553W        W43813   4.583  44.542  13.425
71554W        W43814  19.052  38.933   1.987
71555W        W43815  10.269   9.657  13.158
71556W        W43816  41.466  18.299  11.352
71557W        W43817  17.894  16.306   2.322
71558W        W43818  33.876  30.275   3.321
71559W        W43819   4.796  33.999   1.142
71560W        W43820  26.871   3.459  10.033
71561W        W43821   2.236  19.162  12.745
71562W        W43822  15.074   8.956  12.841
71563W        W43823   7.112   9.181  13.375
71564W        W43824  37.083   6.436  13.362
71565W        W43825  23.367  21.126  12.468
71566W        W43826  26.182  13.270   3.689
71567W        W43827   8.948  31.797   2.441
71568W        W43828  44.793  27.732  13.493
71569W        W43829  35.416   7.945   0.275
71570W        W43830  17.365  16.669   0.453
71571W        W43831  14.351   1.302   4.604
71572W        W43832  19.579  23.151  10.595
71573W        W43833  20.327   3.323   2.449
71574W        W43834  39.616  43.895  11.198
71575W        W43835  28.955   8.874   0.818
71576W        W43836  11.416   4.723   2.776
71577W        W43837   6.595  11.419  13.829
71578W        W43838  26.963   9.981  12.205
71579W        W43839  39.065   8.705   2.710
71580W        W43840  18.031   6.707  10.571
71581W        W43841  24.942   8.057  12.399
71582W        W43842  30.885  34.956  12.491
71583W        W43843  34.861  14.969   4.312
71584W        W43844  12.594  42.199   0.272
71585W        W43845  33.087  23.122  10.571
71586W        W43846  40.324  18.020   1.592
71587W        W43847  17.311  29.373  13.106
71588W        W43848  26.722  13.394  13.525
71589W        W43849  30.209  14.179   2.203
71590W        W43850  15.536  17.168  14.441
71591W        W43851  14.031  24.358  14.851
71592W        W43852  10.463   1.352  10.418
71593W        W43853  13.147  20.632  10.627
71594W        W43854   3.706  23.108  11.115
71595W        W43855  35.559  14.686   4.308
71596W        W43856  17.637  44.257   4.153
71597W        W43857  42.680  28.777   2.123
71598W        W43858  14.874  31.624   1.331
71599W        W43859  21.077  11.864   1.862
71600W        W43860   5.441  20.539   2.140
71601W        W43861   0.353  15.275   0.972
71602W        W43862  15.276   8.216  13.475
71603W        W43863  22.554  37.381   4.618
71604W        W43864  16.903  29.999   3.756
71605W        W43865  23.063  23.050   3.229
71606W        W43866  29.111  34.938  11.121
71607W        W43867  43.818  38.339   1.846
71608W        W43868  20.965  20.077  11.533
71609W        W43869  31.498  35.023   1.720
71610W        W43870  29.921  38.123  12.623
71611W        W43871  16.692  38.464   0.008
71612W        W43872  32.590   3.211   4.276
71613W        W43873  20.259  44.838   1.803
71614W        W43874  38.506  12.175   4.347
71615W        W43875  32.323  26.258   1.263
71616W        W43876   7.876  15.339  11.327
71617W        W43877   7.405  23.092  13.967
71618W        W43878   7.366  42.860   1.687
71619W        W43879  25.887   2.507   0.788
71620W        W43880  23.640  21.798   2.515
71621W        W43881   0.708  33.185  13.608
71622W        W43882  14.707  10.357   0.821
71623W        W43883  40.542  31.497   2.663
71624W        W43884  11.078  27.605   2.315
71625W        W43885   7.333  16.549  12.851
71626W        W43886  43.197   9.769  10.737
71627W        W43887   3.993   4.344   3.378
71628W        W43888  24.368  39.378   9.989
71629W        W43889   7.814  28.161   0.222
71630W        W43890  11.395   7.342   2.495
71631W        W43891  38.374  23.725  13.872
71632W        W43892   2.425  39.473   1.254
71633W        W43893  32.559  14.925   0.743
71634W        W43894  31.316  30.722  12.564
71635W        W43895  11.668  41.051   4.103
71636W        W43896  27.592  18.454   2.148
71637W        W43897  25.667  28.372   1.428
71638W        W43898  42.824  14.013   4.279
71639W        W43899  40.971  27.003  14.971
71640W        W43900  16.998  15.976   3.358
71641W        W43901  30.168  19.308  12.843
71642W        W43902  14.551   5.664  12.093
71643W        W43903  32.625  32.034   3.855
71644W        W43904  22.795  33.850   0.953
71645W        W43905  17.668  38.060   2.367
71646W        W43906  24.602  20.662  12.846
71647W        W43907  19.101  24.250  14.492
71648W        W43908  41.092  21.306  12.202
71649W        W43909  13.258  12.154  10.952
71650W        W43910  27.617  25.259  13.849
71651W        W43911   3.333   7.613   1.848
71652W        W43912  27.849  26.111  13.017
71653W        W43913  10.287  40.825   4.639
71654W        W43914  26.873  29.185   2.340
71655W        W43915  17.323   3.786   3.001
71656W        W43916  17.896  10.213   2.292
71657W        W43917  44.931  12.674   3.734
71658W        W43918   0.302  35.322   3.574
71659W        W43919  27.033  14.709   1.452
71660W        W43920   1.753  30.216   0.827
71661W        W43921  28.407  35.330   3.051
71662W        W43922  18.869   4.733   3.739
71663W        W43923  14.710   5.511  11.631
71664W        W43924  15.064   1.366  10.700
71665W        W43925  44.992   9.827  12.527
71666W        W43926  15.204  35.266   2.287
71667W        W43927  29.657  41.975  14.351
71668W        W43928   7.265  42.477   2.057
71669W        W43929  29.629  36.468   0.674
71670W        W43930  36.306  16.556  11.190
71671W        W43931  28.383  21.678   4.166
71672W        W43932  15.725  34.682   2.624
71673W        W43933  39.781  31.483   3.227
71674W        W43934   3.127  42.495  12.002
71675W        W43935  16.772  14.882  11.930
71676W        W43936  23.768   5.774   2.728
71677W        W43937  16.719  18.352  14.006
71678W        W43938   1.197  42.572  12.069
71679W        W43939  23.304  20.685  11.134
71680W        W43940   2.876  32.524  11.464
71681W        W43941   2.800  30.399  11.150
71682W        W43942  27.626  33.059  14.532
71683W        W43943   3.783  43.788  13.104
71684W        W43944  22.756  43.197   5.003
71685W        W43945  30.893   5.886   0.888
71686W        W43946  14.905  19.136  11.094
71687W        W43947  32.311  29.004   3.200
71688W        W43948   1.961  26.437  11.536
71689W        W43949  30.603  27.486   3.348
71690W        W43950   9.261  40.311   0.850
71691W        W43951  37.499  22.989  10.659
71692W        W43952  15.931  37.799   1.893
71693W        W43953  36.941  33.311   4.390
71694W        W43954  18.600  22.772  13.321
71695W        W43955  40.694   9.428  10.136
71696W        W43956   0.427  26.975   1.944
71697W        W43957  26.284  15.306  14.895
71698W        W43958  14.779  10.561  11.099
71699W        W43959  28.455   2.563   2.915
71700W        W43960   1.736  38.073   3.712
71701W        W43961  23.157  20.640   4.520
71702W        W43962  38.296  10.697  12.481
71703W        W43963  27.920  32.776  13.126
71704W        W43964  20.960  17.764  13.391
71705W        W43965  42.299  11.702   3.441
71706W        W43966   6.868  16.619  14.873
71707W        W43967   5.736  25.724   2.722
71708W        W43968  41.442  40.452  13.300
71709W        W43969  33.457  23.094   4.145
71710W        W43970  20.600  22.914  14.393
71711W        W43971  37.019  17.202  13.162
71712W        W43972  11.366  39.319   3.745
71713W        W43973  22.571  12.190  10.582
71714W        W43974   1.721  33.646  10.753
71715W        W43975  23.749   3.688   3.370
71716W        W43976   1.536   9.799  10.718
71717W        W43977   6.413  20.417   4.173
71718W        W43978  15.616  31.147  10.675
71719W        W43979  37.785  43.444  12.488
71720W        W43980  37.781  32.898   3.709
71721W        W43981  27.996  35.434  14.856
71722W        W43982  36.170   5.311  10.635
71723W        W43983  34.537  13.010   0.298
71724W        W43984  23.897   9.825  12.041
71725W        W43985  26.649  31.819   4.656
71726W        W43986  15.379  31.631  12.921
71727W        W43987  35.718  14.790   3.840
71728W        W43988  40.044  42.916  10.420
71729W        W43989  10.248  27.615  11.055
71730W        W43990  34.345  27.922  11.380
71731W        W43991  30.905  14.522  11.092
71732W        W43992  42.881  38.899   4.347
71733W        W43993  35.952  13.020   1.891
71734W        W43994  22.395  39.256   4.688
71735W        W43995  14.729   6.838   2.639
71736W        W43996  33.692  21.775   4.534
71737W        W43997  40.261   1.444   0.303
71738W        W43998  36.345  31.089  13.502
71739W        W43999  25.169  38.349   2.943
71740W        W44000  17.748  42.198  13.903
71741W        W44001  38.360  18.030   3.912
71742W        W44002   4.416  27.434  10.691
71743W        W44003   4.385  41.327  11.137
71744W        W44004  14.976  14.858   3.047
71745W        W44005  34.103   3.835   1.019
71746W        W44006   4.302  18.713   5.014
71747W        W44007   8.325  23.165   2.183
71748W        W44008  26.668   1.385   4.599
71749W        W44009  42.788  31.177  14.729
71750W        W44010  37.961  21.238   0.838
71751W        W44011   1.324  22.764  13.333
71752W        W44012  29.525  16.818  13.410
71753W        W44013  35.814   9.195   1.629
71754W        W44014  16.202  16.303   4.496
71755W        W44015  26.741   5.308   0.948
71756W        W44016  30.316  40.002  13.564
71757W        W44017   3.275  30.885   1.369
71758W        W44018   9.431   0.473   4.483
71759W        W44019  21.155  40.980   4.116
71760W        W44020  15.366  30.071   2.100
71761W        W44021   2.597   4.496  10.295
71762W        W44022  23.588  20.972  10.203
71763W        W44023  34.419  11.839   3.861
71764W        W44024   7.950  36.399   3.423
71765W        W44025  34.490   3.957   0.229
71766W        W44026  17.530   1.404  13.001
71767W        W44027  33.429  19.780  11.154
71768W        W44028  30.859  42.455  13.803
71769W        W44029  21.249  39.630  11.100
71770W        W44030  11.392  23.776   5.002
71771W        W44031   2.986  21.222   4.324
71772W        W44032  35.264  37.990  14.500
71773W        W44033  22.781  11.806   3.145
71774W        W44034   6.886  42.883   1.385
71775W        W44035  12.874  30.438   0.254
71776W        W44036  31.995  31.045  14.758
71777W        W44037  16.075  31.198   0.625
71778W        W44038  21.756  43.852  12.556
71779W        W44039  11.246  27.886   0.965
71780W        W44040  29.934  10.625  11.333
71781W        W44041  20.660  34.108   0.480
71782W        W44042  11.602  41.337   3.131
71783W        W44043  11.157   2.832   4.938
71784W        W44044  38.930  33.600   4.043
71785W        W44045   8.872  23.593  13.372
71786W        W44046  17.171  14.582   4.360
71787W        W44047   0.889  30.152  13.947
71788W        W44048  40.370   7.853  11.574
71789W        W44049  38.821  20.699  14.941
71790W        W44050  19.820  36.644  11.170
71791W        W44051  10.749   9.417   4.600
71792W        W44052  37.546  35.966   0.574
71793W        W44053   6.432  14.421  11.105
71794W        W44054  33.922  35.137  12.420
71795W        W44055  16.653  43.900  12.407
71796W        W44056  34.542  14.403   1.244
71797W        W44057   4.159  16.115  11.544
71798W        W44058  14.535  23.403  10.084
71799W        W44059  24.110  38.497   4.842
71800W        W44060   2.736  37.271   0.786
71801W        W44061   8.672  20.761  12.530
71802W        W44062   6.915  19.701  13.840
71803W        W44063  23.887  15.363   2.703
71804W        W44064  40.488   3.841   0.257
71805W        W44065  28.190  25.598   3.262
71806W        W44066   7.845  35.735   4.578
71807W        W44067   5.180  30.175  13.962
71808W        W44068  10.730  15.384   4.635
71809W        W44069   0.052  12.694   1.313
71810W        W44070  41.986  28.410   0.938
71811W        W44071  30.100  18.210   3.043
71812W        W44072  36.216   4.797   2.374
71813W        W44073  41.464  27.269  13.503
71814W        W44074  42.458  31.457  14.441
71815W        W44075  39.875   0.935   0.724
71816W        W44076  27.088  30.190  11.609
71817W        W44077  15.506  21.403  10.242
71818W        W44078  41.951   3.703  12.888
71819W        W44079  25.738   3.332  13.277
71820W        W44080  30.491  19.506  10.666
71821W        W44081  12.804  24.862  10.572
71822W        W44082  25.238  12.137   1.777
71823W        W44083  35.403  27.045  13.073
71824W        W44084  24.911  22.449  14.480
71825W        W44085  23.321   0.238   3.707
71826W        W44086  27.595  39.233   4.795
71827W        W44087  22.266  40.833   2.390
71828W        W44088  15.783  16.820   2.762
71829W        W44089  42.360  14.739   4.104
71830W        W44090  30.287   4.306   0.494
71831W        W44091   0.725  27.302  11.899
71832W        W44092  33.411  30.409   0.790
71833W        W44093  25.744  33.389  12.820
71834W        W44094  25.568  12.330  13.544
71835W        W44095  18.023   2.202  14.291
71836W        W44096  34.633  16.152  13.182
71837W        W44097   2.777   2.942   9.964
71838W        W44098   0.983   8.672  14.052
71839W        W44099  20.251   3.197   0.316
71840W        W44100  24.206  38.387  11.921
71841W        W44101  24.618   6.651   2.368
71842W        W44102  22.976  28.412  12.434
71843W        W44103  10.555  12.739  14.817
71844W        W44104  16.619  27.078   4.363
71845W        W44105  36.851   5.714   0.325
71846W        W44106   7.910   2.541   3.062
71847W        W44107  38.221   1.668  10.774
71848W        W44108   5.222  23.487   1.452
71849W        W44109  20.102  42.042   2.318
71850W        W44110   8.770  24.999   2.349
71851W        W44111  23.264  10.733  14.359
71852W        W44112  32.079  13.263  10.411
71853W        W44113   0.690  31.388  14.964
71854W        W44114  12.750   9.513  12.411
71855W        W44115  16.009   6.661  13.823
71856W        W44116  33.712  26.204   3.967
71857W        W44117  24.467  34.374   2.125
71858W        W44118  24.076   6.256  12.080
71859W        W44119  41.386  31.134   0.037
71860W        W44120  15.573  23.561   4.154
71861W        W44121  17.510  13.315  13.957
71862W        W44122  23.777  26.770  11.109
71863W        W44123  28.881  36.164  11.197
71864W        W44124   9.847   1.680   2.217
71865W        W44125  12.774   7.878   0.302
71866W        W44126  41.706   7.439   2.906
71867W        W44127  33.945  26.524   3.560
71868W        W44128   5.287  11.764  12.839
71869W        W44129  28.899  42.810  12.943
71870W        W44130  18.769  41.919  13.946
71871W        W44131  16.277  37.760   2.282
71872W        W44132   7.460  28.768  13.420
71873W        W44133  11.336   9.316  11.994
71874W        W44134  12.253  18.530   3.255
71875W        W44135  19.713  24.486  13.034
71876W        W44136  19.121  30.180   4.064
71877W        W44137  41.942   9.933  14.959
71878W        W44138   2.416  19.796   3.281
71879W        W44139  40.198  17.474  13.931
71880W        W44140  21.506  31.662  12.992
71881W        W44141   7.236  14.259   0.674
71882W        W44142  19.654  25.095   0.543
71883W        W44143  13.637   4.169   1.949
71884W        W44144  39.798   5.326   3.719
71885W        W44145   9.197  16.730   2.704
71886W        W44146  31.925   5.840  11.641
71887W        W44147  40.453   5.732   0.945
71888W        W44148  22.346   5.713  14.192
71889W        W44149   4.755  26.473   4.572
71890W        W44150  15.872  40.186   4.266
71891W        W44151  18.454  27.720   2.893
71892W        W44152  14.775  40.070   0.323
71893W        W44153  27.984  38.600   2.657
71894W        W44154  32.164  37.898  11.217
71895W        W44155   7.764  18.530  13.618
71896W        W44156  24.248  28.989   3.289
71897W        W44157   5.930  43.833   2.364
71898W        W44158  27.093  22.339   0.741
71899W        W44159  31.143  14.736  11.654
71900W        W44160  14.762   3.315   2.404
71901W        W44161  42.739  40.518   2.767
71902W        W44162  43.452   9.782   3.850
71903W        W44163  13.562  31.398   0.862
71904W        W44164  32.895  25.549   0.719
71905W        W44165  25.367  32.936   2.691
71906W        W44166  29.213  43.400  14.515
71907W        W44167  21.807  11.624   0.291
71908W        W44168  16.043  18.952  12.470
71909W        W44169   0.144  27.043  13.048
71910W        W44170  22.693  35.096   3.527
71911W        W44171  20.050   7.782  13.783
71912W        W44172   7.835  29.003  11.724
71913W        W44173  29.313  34.431  14.535
71914W        W44174  42.520   9.812  12.356
71915W        W44175  18.997  11.056   0.275
71916W        W44176  17.428  23.064   4.146
71917W        W44177   9.384  18.860  11.993
71918W        W44178  16.597  27.699  11.059
71919W        W44179   9.088  30.903   0.477
71920W        W44180   7.129  39.098  12.449
71921W        W44181  24.257  20.287  12.993
71922W        W44182  25.657  34.348  11.543
71923W        W44183  41.534  41.778   2.332
71924W        W44184  36.078   1.799  11.520
71925W        W44185   4.656  24.106   4.630
71926W        W44186  20.289  26.710   5.350
71927W        W44187  33.404  14.915   3.259
71928W        W44188  19.252  29.484   4.598
71929W        W44189  31.907  21.542  11.856
71930W        W44190   2.323  29.365   3.723
71931W        W44191  27.573  15.840  10.487
71932W        W44192   1.034  12.824  14.894
71933W        W44193   8.004  35.680  13.964
71934W        W44194  39.820  43.065   2.883
71935W        W44195  17.726  43.367  10.601
71936W        W44196  11.313  17.637   0.351
71937W        W44197  32.908   4.422   3.262
71938W        W44198  28.222  44.219  11.588
71939W        W44199  42.442  43.272  14.569
71940W        W44200  15.284  27.455  12.171
71941W        W44201   8.166  22.569   1.238
71942W        W44202  38.880   9.332   2.128
71943W        W44203  18.107  10.786   0.756
71944W        W44204  34.873  14.110   3.349
71945W        W44205   1.181  43.421  13.495
71946W        W44206  14.837  28.572   2.865
71947W        W44207   7.977  13.725  14.355
71948W        W44208  31.563  21.151  14.306
71949W        W44209   6.137  39.509  10.467
71950W        W44210  20.592  37.808  11.935
71951W        W44211  32.608  42.001  14.326
71952W        W44212  13.649  18.572   2.910
71953W        W44213  19.263  35.886   3.964
71954W        W44214   9.178  13.334  12.890
71955W        W44215  19.745  26.999   1.198
71956W        W44216  29.239  23.439  10.689
71957W        W44217  16.028  16.700   1.459
71958W        W44218  24.672   0.660   3.233
71959W        W44219  28.727  21.043  14.058
71960W        W44220  14.146   9.336  12.542
71961W        W44221  41.505   7.741  13.067
71962W        W44222   4.453  44.538   1.776
71963W        W44223  39.049  25.199  12.519
71964W        W44224  29.461  17.241   5.019
71965W        W44225   3.354  42.015   1.455
71966W        W44226  39.725   6.609  11.271
71967W        W44227  44.248  32.906  11.220
71968W        W44228  16.824  38.879   0.328
71969W        W44229  14.417   4.683   1.455
71970W        W44230  43.479  34.353   1.388
71971W        W44231  15.786  26.653  14.411
71972W        W44232   8.365  37.932  14.091
71973W        W44233  40.447  23.508   4.528
71974W        W44234  42.170  26.535   2.386
71975W        W44235  19.152  44.513   2.850
71976W        W44236  37.846  19.070   0.028
71977W        W44237  37.574  43.503  11.671
71978W        W44238  24.909  29.015  11.174
71979W        W44239  31.441  26.471   1.757
71980W        W44240  36.509  41.139  12.167
71981W        W44241  21.585  22.174   1.625
71982W        W44242  17.172  27.603  10.194
71983W        W44243   0.434  37.980   3.243
71984W        W44244   7.808  35.202  14.021
71985W        W44245  26.621  36.862  14.132
71986W        W44246  12.390  43.516   2.222
71987W        W44247  12.934  24.996   2.012
71988W        W44248  33.755   7.868  11.434
71989W        W44249  27.660  29.035  13.961
71990W        W44250  29.097   7.938  11.897
71991W        W44251   2.352   8.501   9.657
71992W        W44252  29.561  21.965   0.934
71993W        W44253  12.267  23.855  13.360
71994W        W44254  18.483  25.961  14.799
71995W        W44255  18.444  41.872   1.671
71996W        W44256  10.229  13.110   4.691
71997W        W44257  38.689  21.030   0.318
71998W        W44258  25.917   5.235   4.287
71999W        W44259  23.248  39.213   1.901
72000W        W44260   8.885  17.589   2.754
72001W        W44261  13.646  38.300   1.771
72002W        W44262  16.144  22.192   0.998
72003W        W44263  40.971  20.225  13.552
72004W        W44264  20.155   2.027   0.696
72005W        W44265  22.534   0.005   1.811
72006W        W44266  17.163  25.772  13.547
72007W        W44267  44.240  38.591  12.459
72008W        W44268  16.132   0.240   0.176
72009W        W44269  27.598  16.718   3.992
72010W        W44270  28.397   5.782   0.290
72011W        W44271  18.664  41.564   0.457
72012W        W44272  41.982  33.101  12.478
72013W        W44273  36.215  13.142  12.926
72014W        W44274  32.521  34.358   1.250
72015W        W44275  40.032  18.246  11.925
72016W        W44276  22.616  25.572  14.029
72017W        W44277  37.091  28.101  11.175
72018W        W44278  22.276   6.049  14.897
72019W        W44279  14.877  44.042   3.578
72020W        W44280  34.751  42.790   4.536
72021W        W44281   3.197  34.086  10.765
72022W        W44282  26.422  41.915   4.769
72023W        W44283  36.868  38.462   4.553
72024W        W44284  27.377  36.867   4.305
72025W        W44285   5.392   6.265  13.342
72026W        W44286  13.290  11.899  12.561
72027W        W44287  20.601  16.056   2.964
72028W        W44288   7.793  41.289   2.259
72029W        W44289  43.700  30.259   0.859
72030W        W44290  23.083   3.497   2.408
72031W        W44291  19.538  25.668  13.590
72032W        W44292  33.398   9.095  10.745
72033W        W44293   6.857  22.153  11.394
72034W        W44294  36.436  12.864   3.108
72035W        W44295   0.797  21.983  13.592
72036W        W44296  37.402  26.487   0.784
72037W        W44297  28.882  40.296  12.985
72038W        W44298  23.877  30.866  12.328
72039W        W44299  18.145  33.779   4.463
72040W        W44300   9.305  37.871   2.174
72041W        W44301  15.407   4.541  12.365
72042W        W44302  16.862  36.432  14.800
72043W        W44303   0.632  34.397  11.129
72044W        W44304  35.185  25.193   4.026
72045W        W44305  40.068  23.984   2.926
72046W        W44306  43.272   0.884   4.566
72047W        W44307  29.519   6.800  12.159
72048W        W44308  42.943  12.870  11.393
72049W        W44309  22.579  22.782   3.174
72050W        W44310  17.007   3.739   3.438
72051W        W44311  39.441   4.177  13.861
72052W        W44312  14.296  31.672   1.509
72053W        W44313  26.040   2.258   1.257
72054W        W44314   5.748  35.895  13.902
72055W        W44315  36.616  32.320   1.811
72056W        W44316  39.828  14.330   3.343
72057W        W44317  19.517  41.925  14.434
72058W        W44318  34.040  27.281   1.459
72059W        W44319  15.781   4.667  10.609
72060W        W44320  11.100   4.101   3.635
72061W        W44321  12.681  39.752  11.992
72062W        W44322  41.272  17.121  12.932
72063W        W44323  36.724  16.836  12.411
72064W        W44324   6.748  41.278   2.722
72065W        W44325  35.986  14.599  10.495
72066W        W44326  39.349  23.977  13.907
72067W        W44327  33.933  22.613  13.511
72068W        W44328  23.310   4.384   2.369
72069W        W44329  15.062   2.236  10.709
72070W        W44330  38.672  20.647   0.926
72071W        W44331  11.482  31.465  14.880
72072W        W44332  41.576  28.544   1.222
72073W        W44333  36.276  31.060  10.825
72074W        W44334  14.215  33.736  14.397
72075W        W44335   3.003   3.707  12.551
72076W        W44336  21.665  34.882   4.108
72077W        W44337  15.666  10.936  13.955
72078W        W44338   3.455  17.493  12.438
72079W        W44339   2.435  22.500  12.406
72080W        W44340   7.491  43.257   2.177
72081W        W44341  44.168  18.812  12.516
72082W        W44342  40.065  32.388   2.707
72083W        W44343  22.875  21.064   4.396
72084W        W44344  40.841  17.390   0.921
72085W        W44345   1.954   0.010  11.151
72086W        W44346  27.517  33.619   2.897
72087W        W44347  14.349  24.530  13.386
72088W        W44348  18.728  39.356   3.043
72089W        W44349   4.666  42.330  11.173
72090W        W44350  13.287  42.472   4.702
72091W        W44351  14.643  15.248   4.562
72092W        W44352  23.201  44.416  14.170
72093W        W44353   0.301  29.099  13.557
72094W        W44354  42.583  11.146   4.814
72095W        W44355  14.295  28.979   1.481
72096W        W44356  13.260  21.006   3.694
72097W        W44357  41.972   7.171  14.367
72098W        W44358  36.951  38.920  14.385
72099W        W44359  27.142   5.126   3.337
72100W        W44360   4.157  15.515  13.913
72101W        W44361  20.886  29.915  11.304
72102W        W44362  14.253   9.138   2.688
72103W        W44363   6.326  27.506   2.771
72104W        W44364  29.405  13.931   4.953
72105W        W44365   4.517  15.831  11.328
72106W        W44366  18.694   9.993  11.956
72107W        W44367  10.700  31.515  12.044
72108W        W44368  13.419  28.167   2.719
72109W        W44369  44.391  11.219   1.452
72110W        W44370  21.185  12.224  14.892
72111W        W44371  13.608  25.084  13.901
72112W        W44372  31.420  22.280   2.850
72113W        W44373  38.334  32.345   3.322
72114W        W44374  15.732  18.050   0.523
72115W        W44375  23.524  28.700  14.920
72116W        W44376   2.576  10.717  11.663
72117W        W44377  11.917  27.969   2.293
72118W        W44378  26.129  11.373   3.204
72119W        W44379  32.506  25.244   0.427
72120W        W44380  33.860  35.553   2.848
72121W        W44381  42.051  10.827   3.650
72122W        W44382  23.439   8.827   0.955
72123W        W44383  15.554  30.865  11.922
72124W        W44384  20.152  20.730  11.638
72125W        W44385   9.304  27.402  12.972
72126W        W44386  30.082  37.606  14.412
72127W        W44387  20.629  44.502  12.103
72128W        W44388  40.153  17.548   0.893
72129W        W44389   5.338   1.364  12.552
72130W        W44390   5.513  41.005  12.933
72131W        W44391   0.897  27.957  10.815
72132W        W44392  25.940  35.465  13.984
72133W        W44393  17.569  44.705   3.335
72134W        W44394  27.531   1.637  14.949
72135W        W44395  37.292  40.864   0.194
72136W        W44396  42.718   8.395  14.038
72137W        W44397   8.733  36.276   4.853
72138W        W44398  44.863  14.313  10.796
72139W        W44399  24.071  27.661   5.794
72140W        W44400  38.987  21.635   1.309
72141W        W44401  35.966  24.938  12.662
72142W        W44402  32.491  35.952   2.761
72143W        W44403  33.017  29.750  10.497
72144W        W44404  16.194   1.218   2.502
72145W        W44405  31.956  37.895  14.845
72146W        W44406  16.603  29.835   0.439
72147W        W44407   2.897  21.164   2.936
72148W        W44408  40.947  24.874  11.779
72149W        W44409  23.616  39.018   1.229
72150W        W44410  26.195  16.835   2.065
72151W        W44411   1.276   6.657   0.490
72152W        W44412  34.726  21.007  14.878
72153W        W44413  24.031  22.709   3.707
72154W        W44414  25.696  23.110  14.094
72155W        W44415  35.010  37.918  10.585
72156W        W44416  40.529   7.877   2.244
72157W        W44417  34.675  23.133   4.607
72158W        W44418   8.748  37.961  12.456
72159W        W44419  26.137  31.841   0.916
72160W        W44420   2.064  38.868  12.554
72161W        W44421  29.173  18.720  12.661
72162W        W44422  27.234  30.160  10.645
72163W        W44423  13.779   7.307   2.179
72164W        W44424  29.875  13.517  14.491
72165W        W44425  33.809  41.865   4.608
72166W        W44426  36.881   5.869   3.942
72167W        W44427  28.030   2.234   3.784
72168W        W44428  25.693  21.156  13.037
72169W        W44429  15.098  39.322  13.059
72170W        W44430  32.487   8.138   4.083
72171W        W44431   9.806  35.471   0.344
72172W        W44432   6.243   9.415   4.834
72173W        W44433   2.886  24.302  13.024
72174W        W44434  32.806   5.286   0.042
72175W        W44435   2.493   5.287   3.182
72176W        W44436  32.356  18.348   1.355
72177W        W44437   9.215  14.683   3.184
72178W        W44438   9.134  23.743  13.789
72179W        W44439   4.434  39.691  13.988
72180W        W44440  26.606  33.077  12.960
72181W        W44441  28.557  30.265   9.805
72182W        W44442  17.333  15.420  12.447
72183W        W44443  26.756   6.244   1.212
72184W        W44444   0.153  36.013  14.499
72185W        W44445  10.211  41.898  13.555
72186W        W44446  19.656   0.269   2.327
72187W        W44447  34.924   7.279   1.681
72188W        W44448  40.091   1.870  10.490
72189W        W44449  40.900   0.004  12.990
72190W        W44450  43.270  37.994   2.812
72191W        W44451  30.496  35.360   3.980
72192W        W44452  22.017  20.561  11.524
72193W        W44453  17.599  40.967   1.328
72194W        W44454  29.700   4.833  11.601
72195W        W44455  31.333  19.787  13.948
72196W        W44456  15.865  42.271   1.296
72197W        W44457  16.211  37.838  12.375
72198W        W44458  17.348   6.398   3.829
72199W        W44459  17.394  42.876  12.737
72200W        W44460  26.936   2.304  13.993
72201W        W44461  39.389  27.732  14.757
72202W        W44462  43.410  12.122   1.643
72203W        W44463  34.343  21.938  14.784
72204W        W44464  11.815   7.223  13.712
72205W        W44465   8.398  41.752  11.240
72206W        W44466  36.796  25.201  12.935
72207W        W44467  32.326   9.656   0.271
72208W        W44468  16.493  31.677   4.101
72209W        W44469  38.370  28.632  11.138
72210W        W44470  31.882  42.998   2.427
72211W        W44471  24.841  36.522  14.348
72212W        W44472   5.182   4.821  10.103
72213W        W44473  31.363  28.104   2.781
72214W        W44474  28.827  15.096  11.882
72215W        W44475   7.909  32.956  11.149
72216W        W44476  44.204  24.685  10.613
72217W        W44477  26.902   7.178  13.034
72218W        W44478  19.291  16.414  10.836
72219W        W44479  32.895  22.649  10.683
72220W        W44480  19.369  23.956  11.136
72221W        W44481  18.415  43.239   0.487
72222W        W44482  22.703  20.705   2.407
72223W        W44483  10.077   6.339   2.650
72224W        W44484  22.834  38.449   0.582
72225W        W44485  17.866  38.632  14.394
72226W        W44486  36.918  43.356  14.311
72227W        W44487  37.688  17.536   0.758
72228W        W44488  41.816  40.565   2.740
72229W        W44489  21.272   3.182  12.969
72230W        W44490  43.584   2.386  14.019
72231W        W44491  31.963   0.680  13.944
72232W        W44492  19.145  13.601   0.628
72233W        W44493   0.114  30.612   1.918
72234W        W44494  32.308  23.661   2.770
72235W        W44495  41.276  17.132   1.190
72236W        W44496  10.088  28.156   3.750
72237W        W44497   7.406  21.507  13.888
72238W        W44498  42.612  26.616  10.722
72239W        W44499  28.180  37.203  13.352
72240W        W44500  25.154   7.154  12.451
72241W        W44501   1.225   9.140  12.425
72242W        W44502  37.433   4.818  10.478
72243W        W44503   9.660  34.425   2.221
72244W        W44504  14.045  17.100  12.315
72245W        W44505  43.531  24.184  11.093
72246W        W44506  10.307   0.186   3.710
72247W        W44507  40.871  30.680  12.502
72248W        W44508   1.782  37.678   1.821
72249W        W44509  17.178  21.624   1.713
72250W        W44510   9.612  38.401  13.601
72251W        W44511  38.057   5.274  14.344
72252W        W44512  35.825  30.247   2.150
72253W        W44513  43.363  23.065  13.645
72254W        W44514  23.986  29.170   5.162
72255W        W44515   1.862  20.621   2.213
72256W        W44516  13.838  44.717   0.349
72257W        W44517  32.321  10.661  13.081
72258W        W44518   8.757   7.941   1.797
72259W        W44519  12.290  40.057  12.022
72260W        W44520  13.751  41.265  13.896
72261W        W44521   3.286  38.852  13.145
72262W        W44522  40.254   4.699  14.230
72263W        W44523  20.612  42.558  11.615
72264W        W44524  29.481  11.973  13.328
72265W        W44525  24.095  34.908  10.590
72266W        W44526  32.150  26.753   1.296
72267W        W44527  34.322  43.848   3.201
72268W        W44528  21.181  10.042   4.054
72269W        W44529  31.091  23.101  10.658
72270W        W44530  38.496  43.950   3.388
72271W        W44531   8.604  38.461   4.232
72272W        W44532  27.497  33.474   1.462
72273W        W44533  42.474  30.094   0.290
72274W        W44534  35.009  33.532  13.402
72275W        W44535   1.928  22.541   4.201
72276W        W44536   1.773  27.445  11.667
72277W        W44537  34.026  35.622   4.385
72278W        W44538  34.531  17.026   2.290
72279W        W44539   4.677  33.971   4.617
72280W        W44540  24.981  28.867  12.483
72281W        W44541  34.498  13.355   1.294
72282W        W44542   1.511  16.715  12.659
72283W        W44543  34.924  16.257  10.205
72284W        W44544  19.311  12.170   3.721
72285W        W44545  37.929  17.514   4.863
72286W        W44546  32.575  39.620  13.828
72287W        W44547   6.103  21.201  10.545
72288W        W44548  35.539  11.636  14.687
72289W        W44549  16.097  30.850   1.037
72290W        W44550  35.984  26.243  11.536
72291W        W44551   4.356   3.809   0.337
72292W        W44552  41.538  42.324  12.589
72293W        W44553  26.142  44.499  11.992
72294W        W44554   0.308   0.101  10.732
72295W        W44555  34.289  26.560   2.221
72296W        W44556  30.265   4.126   1.539
72297W        W44557  12.917  16.354  12.467
72298W        W44558  26.908  25.029   3.704
72299W        W44559  18.501  12.237   3.356
72300W        W44560  27.446  40.386   2.284
72301W        W44561  33.367  31.543  14.036
72302W        W44562  37.993  11.580  12.452
72303W        W44563  15.385  14.279   3.754
72304W        W44564  28.103  14.198   1.973
72305W        W44565   1.403  19.041   2.453
72306W        W44566  11.098  26.094   3.100
72307W        W44567   2.708  18.207   0.965
72308W        W44568   4.739  40.451  10.923
72309W        W44569  18.268  42.350  13.610
72310W        W44570   1.855   5.737   0.378
72311W        W44571  27.573  18.814   3.406
72312W        W44572  27.407   1.146   4.113
72313W        W44573  20.337  21.203  14.528
72314W        W44574   8.552  43.371   1.773
72315W        W44575  28.175  15.697  11.477
72316W        W44576  32.309   5.361   2.675
72317W        W44577   2.633  23.855  11.341
72318W        W44578  44.884  31.313  12.338
72319W        W44579   6.143   9.508  11.095
72320W        W44580  29.621  34.792  12.035
72321W        W44581  29.050   5.599   3.363
72322W        W44582  43.688  30.457  14.436
72323W        W44583  28.414  26.710   4.600
72324W        W44584   4.775  24.976   1.130
72325W        W44585  38.867  19.144   3.761
72326W        W44586   9.236  28.559  13.053
72327W        W44587  21.090  34.574  14.323
72328W        W44588   7.125   3.800   3.327
72329W        W44589  31.452  41.378  11.420
72330W        W44590   5.597  36.245   2.768
72331W        W44591   5.822  13.588   0.484
72332W        W44592  36.774  15.172   3.175
72333W        W44593  13.729  25.422   3.385
72334W        W44594  31.368  41.048  13.393
72335W        W44595  38.817  20.240   0.171
72336W        W44596  39.996   7.086   2.302
72337W        W44597  14.244  40.268  14.405
72338W        W44598  23.279  26.224   2.258
72339W        W44599  15.430   0.444  11.436
72340W        W44600  39.072  16.699   2.315
72341W        W44601  14.517  22.827  11.666
72342W        W44602  25.588  32.802  14.517
72343W        W44603  17.718  14.364  14.119
72344W        W44604  33.022  36.563   0.707
72345W        W44605   1.317   2.104   0.314
72346W        W44606  23.075  20.534  11.573
72347W        W44607  20.368   8.601  13.362
72348W        W44608  25.765   8.215   1.908
72349W        W44609  26.746  35.484  11.625
72350W        W44610  43.339  12.285   2.135
72351W        W44611  12.777  25.217   4.255
72352W        W44612   4.358  34.350  12.866
72353W        W44613  26.705   7.153  12.100
72354W        W44614  34.290  34.375   1.025
72355W        W44615  42.274  44.823   0.973
72356W        W44616  34.565  13.374   3.145
72357W        W44617  43.820   6.699  11.109
72358W        W44618  24.065  11.307  12.977
72359W        W44619  36.588  43.311  13.862
72360W        W44620  40.158  11.291   3.393
72361W        W44621  18.785  36.623  12.660
72362W        W44622  19.556   7.920  10.659
72363W        W44623  10.308  14.539   1.213
72364W        W44624  37.072  21.222  11.006
72365W        W44625   8.467  19.640  11.604
72366W        W44626  25.035  30.062   3.742
72367W        W44627  19.296  39.894   2.708
72368W        W44628  18.379  38.583   2.716
72369W        W44629  16.578   2.893  14.757
72370W        W44630   0.457  24.484   1.454
72371W        W44631  31.095  19.735  13.504
72372W        W44632  31.427  27.497   4.024
72373W        W44633  12.764  39.962  13.926
72374W        W44634  19.081  44.920   4.202
72375W        W44635  42.100  44.236  14.195
72376W        W44636  42.368  25.257   4.094
72377W        W44637  36.329  40.953  11.475
72378W        W44638  23.249   1.114   1.805
72379W        W44639  13.265  37.945   3.130
72380W        W44640   9.118  23.395  11.944
72381W        W44641  41.031  11.037   0.904
72382W        W44642   4.694  31.275  14.935
72383W        W44643  31.871  11.336  12.628
72384W        W44644  14.628   5.377   4.039
72385W        W44645   5.215  25.198   2.724
72386W        W44646   2.002  41.990   4.140
72387W        W44647  40.947   8.656  10.762
72388W        W44648  36.252  14.209   3.636
72389W        W44649  37.501  18.294   0.411
72390W        W44650  26.498  38.861   2.579
72391W        W44651  27.690   4.371  12.436
72392W        W44652   8.806  10.295   2.731
72393W        W44653  44.772  33.034  10.632
72394W        W44654   9.654  14.313   4.415
72395W        W44655   5.815  44.817   3.249
72396W        W44656   0.471   7.237   3.218
72397W        W44657  23.924  21.791  13.003
72398W        W44658  18.332  23.596  13.940
72399W        W44659  12.314  42.781  13.968
72400W        W44660   8.397   4.233   3.023
72401W        W44661  12.611  28.462  11.958
72402W        W44662  34.363  29.416   4.520
72403W        W44663  29.332   0.768   3.222
72404W        W44664  33.628  36.723   3.195
72405W        W44665  44.983  14.853  14.736
72406W        W44666  12.379  11.340  14.629
72407W        W44667  15.104   6.430  11.069
72408W        W44668  26.177  10.839  12.855
72409W        W44669  40.072   2.996  14.200
72410W        W44670  23.051  37.430  14.669
72411W        W44671  43.864  39.995  10.678
72412W        W44672  31.130  10.402  12.688
72413W        W44673  19.963   8.401   2.929
72414W        W44674  13.888   4.240  13.336
72415W        W44675  21.764   5.305   3.704
72416W        W44676   5.699  44.983  13.399
72417W        W44677   2.757  19.886   4.261
72418W        W44678  18.331  27.159   3.627
72419W        W44679  32.575   8.582  11.163
72420W        W44680  18.381  25.820  10.760
72421W        W44681   0.302  36.463   1.412
72422W        W44682   9.395  19.607   3.254
72423W        W44683   4.921  26.074  14.239
72424W        W44684   1.250  15.104   0.202
72425W        W44685  19.436  15.203   2.153
72426W        W44686  42.660  32.135   1.741
72427W        W44687  20.118  38.114  14.968
72428W        W44688  33.639  41.507   3.345
72429W        W44689  32.294   0.402  10.118
72430W        W44690  18.872   0.096  14.404
72431W        W44691  33.922  39.301   1.875
72432W        W44692  25.967  23.531   1.441
72433W        W44693  30.545  41.096  13.835
72434W        W44694   1.065  13.365  10.987
72435W        W44695  10.783  18.704   3.269
72436W        W44696  30.938  22.996   0.479
72437W        W44697  31.021  31.625  11.708
72438W        W44698  43.862  23.224  13.573
72439W        W44699  17.691  23.840  12.361
72440W        W44700  32.023   6.220   5.150
72441W        W44701  24.656  36.291  14.799
72442W        W44702  30.531   4.732   2.608
72443W        W44703   1.996  24.588   2.732
72444W        W44704  30.167  40.193  12.408
72445W        W44705  14.102   1.422  11.615
72446W        W44706   3.400   9.743   3.290
72447W        W44707  31.247  17.729   0.236
72448W        W44708  38.428  36.593   4.707
72449W        W44709  35.138   8.698   2.955
72450W        W44710  33.449  18.734  10.559
72451W        W44711   2.600  29.034  14.449
72452W        W44712  41.112  14.808   3.499
72453W        W44713   6.903   7.015   4.043
72454W        W44714  38.203  22.680  11.138
72455W        W44715  25.992  42.954   0.864
72456W        W44716  33.532  41.867  11.587
72457W        W44717  23.247  42.924  10.877
72458W        W44718  29.637  18.832  10.916
72459W        W44719  26.602  16.168  10.683
72460W        W44720   2.537  12.568   4.477
72461W        W44721   1.343  22.780  14.581
72462W        W44722  13.435  32.593  12.436
72463W        W44723  16.065  30.867  10.642
72464W        W44724  38.947  44.190   3.445
72465W        W44725  12.181  13.704   0.217
72466W        W44726  28.986   1.926   1.446
72467W        W44727   8.891  35.849  13.598
72468W        W44728   2.494  17.852  14.521
72469W        W44729  34.587  26.713  12.785
72470W        W44730  39.875   2.809   2.442
72471W        W44731  21.646  13.183   3.768
72472W        W44732  13.004  12.412   3.913
72473W        W44733  17.670  24.214  13.984
72474W        W44734  30.350  23.730   4.792
72475W        W44735  32.225  40.795  12.503
72476W        W44736   2.354   3.177   1.676
72477W        W44737   6.596   7.254   0.378
72478W        W44738   7.842   0.147   4.211
72479W        W44739  44.533  16.133   2.832
72480W        W44740  22.724  42.300  11.734
72481W        W44741  20.148  25.011  12.643
72482W        W44742   0.685  30.898  10.434
72483W        W44743   0.830   2.142   0.564
72484W        W44744  24.159   6.952  11.114
72485W        W44745  28.077  36.900   1.454
72486W        W44746  31.539   7.178  13.466
72487W        W44747  15.799  31.131  11.547
72488W        W44748   5.933  12.789  14.900
72489W        W44749  23.582  35.651  10.788
72490W        W44750   9.948  44.426   0.004
72491W        W44751   8.792  32.221   0.972
72492W        W44752   8.858  28.145   0.288
72493W        W44753   9.004   0.630   1.399
72494W        W44754   1.058  19.804  14.756
72495W        W44755  29.434  20.691  11.576
72496W        W44756  29.132  33.409  13.767
72497W        W44757  35.431  44.557   4.725
72498W        W44758  21.003  42.032   5.025
72499W        W44759  10.957  25.112   4.564
72500W        W44760   7.100  33.430   3.844
72501W        W44761   9.478  33.400  11.496
72502W        W44762  28.369   9.361  13.109
72503W        W44763  37.874  36.587  13.586
72504W        W44764   9.974  23.551   3.334
72505W        W44765  37.124   8.002  12.476
72506W        W44766   5.310  22.939   4.645
72507W        W44767  28.552  35.075  13.431
72508W        W44768  31.329  15.127   2.805
72509W        W44769  42.753   5.369  12.263
72510W        W44770  17.608  38.357   4.154
72511W        W44771  37.605  33.858   1.238
72512W        W44772  43.088  15.257   1.376
72513W        W44773  12.808  18.764  12.460
72514W        W44774  43.810  23.178  14.439
72515W        W44775  10.471  13.208   0.024
72516W        W44776  24.553   8.350  11.566
72517W        W44777  42.366  24.716   4.144
72518W        W44778  39.076   5.305  14.743
72519W        W44779  10.195  22.444   3.015
72520W        W44780  27.211  40.849   4.990
72521W        W44781  30.383  11.793  11.885
72522W        W44782   8.942  29.609   1.945
72523W        W44783   6.276  24.351   5.154
72524W        W44784   0.004   8.620  10.898
72525W        W44785  37.343  34.459  12.873
72526W        W44786  28.047  23.430   3.158
72527W        W44787  11.866  19.705   2.251
72528W        W44788  22.143  39.571   2.425
72529W        W44789  35.467  34.646   1.240
72530W        W44790  42.884  11.395   2.720
72531W        W44791   7.911   5.638  10.698
72532W        W44792  22.616  35.244  11.532
72533W        W44793  23.121  42.041  13.949
72534W        W44794   1.251  42.860   0.374
72535W        W44795  27.557  25.862   3.302
72536W        W44796   5.472  12.759  14.571
72537W        W44797  30.548   9.584   0.371
72538W        W44798  21.099   1.196   0.297
72539W        W44799  28.707  14.609   4.167
72540W        W44800   0.288  10.607  11.961
72541W        W44801  10.779  25.973   3.570
72542W        W44802   2.948   8.900  14.323
72543W        W44803  20.293  15.986  14.032
72544W        W44804  34.070   6.970  13.109
72545W        W44805  14.818  32.827  12.458
72546W        W44806  18.213  15.145   3.297
72547W        W44807  26.263  39.684   2.280
72548W        W44808  27.083  24.652   4.299
72549W        W44809  37.465  35.453  10.613
72550W        W44810   4.615  42.769  14.408
72551W        W44811  39.540   7.696   5.035
72552W        W44812  29.832  18.313  11.384
72553W        W44813   2.446   0.044   3.210
72554W        W44814  39.454  28.983  12.357
72555W        W44815  31.696   6.755   0.261
72556W        W44816  44.465   7.428  10.270
72557W        W44817  43.465  36.422  10.751
72558W        W44818  37.528  43.009   1.746
72559W        W44819   8.468  41.775  14.196
72560W        W44820  13.872   4.798  10.600
72561W        W44821   2.770   7.393  14.061
72562W        W44822  31.888   4.602  14.386
72563W        W44823  24.420  12.873   4.743
72564W        W44824  43.860   8.879  13.335
72565W        W44825  26.670   6.929  12.545
72566W        W44826  38.343  21.889  10.767
72567W        W44827  31.192  14.084  11.013
72568W        W44828  39.299  15.332  11.988
72569W        W44829  24.639  44.415  13.028
72570W        W44830   9.894  21.599   3.329
72571W        W44831  23.616  18.271   0.314
72572W        W44832   7.906  21.181  12.883
72573W        W44833  31.520   4.353   0.777
72574W        W44834   7.716  20.020  12.977
72575W        W44835   4.981  37.955  13.521
72576W        W44836  18.173  35.248  10.851
72577W        W44837  41.909  38.750  12.525
72578W        W44838  20.116  28.204  10.917
72579W        W44839  14.567  25.721   3.883
72580W        W44840  15.138   2.501  11.974
72581W        W44841  35.056  34.945   2.328
72582W        W44842   8.523  35.536   0.927
72583W        W44843  23.500   6.810   1.488
72584W        W44844   7.132   3.627   4.245
72585W        W44845   0.263  41.274   2.227
72586W        W44846  24.519  44.022   0.851
72587W        W44847  35.436  43.542  13.345
72588W        W44848  19.225  37.355   2.973
72589W        W44849  43.836  25.955   0.956
72590W        W44850  44.477  16.109  13.792
72591W        W44851  24.517  16.311  14.657
72592W        W44852   4.874  12.389   2.768
72593W        W44853   8.174  23.198  12.409
72594W        W44854   3.832   3.363   2.677
72595W        W44855  32.616  41.134   4.617
72596W        W44856  39.133  23.566  12.787
72597W        W44857  10.353  31.078  14.863
72598W        W44858  35.351   7.698   2.798
72599W        W44859  11.711  20.708  10.844
72600W        W44860  40.369  23.033  10.729
72601W        W44861  14.755  13.828  13.906
72602W        W44862  13.597   4.801  14.831
72603W        W44863  34.916  36.564  10.681
72604W        W44864  43.715   6.412   3.872
72605W        W44865  27.450  33.333   1.992
72606W        W44866   1.083  17.307  11.539
72607W        W44867   1.749  11.185   3.925
72608W        W44868  29.910  32.813  13.378
72609W        W44869   1.192  27.204   0.958
72610W        W44870   5.685  16.231  13.166
72611W        W44871  16.399  34.786  10.890
72612W        W44872  24.889  31.657  10.710
72613W        W44873  44.284  28.172  14.491
72614W        W44874  44.832  28.671   4.563
72615W        W44875   8.122  44.355  14.257
72616W        W44876  42.983  44.342  14.451
72617W        W44877   6.225  16.185  11.960
72618W        W44878   5.383  29.085  11.958
72619W        W44879  43.055  22.355   5.135
72620W        W44880  39.940  11.691   2.563
72621W        W44881  27.150  21.066   0.861
72622W        W44882  41.924  20.638  10.773
72623W        W44883   8.866  21.671   2.449
72624W        W44884  41.944   5.371  13.346
72625W        W44885   1.663  30.373   3.501
72626W        W44886  10.904  39.904   1.800
72627W        W44887  10.620  44.694   3.635
72628W        W44888  39.483  33.837  13.055
72629W        W44889  26.377  26.646   2.823
72630W        W44890   8.087  43.619   1.865
72631W        W44891  40.962   7.211   2.441
72632W        W44892  21.642  42.029   1.961
72633W        W44893  13.749   3.198   1.745
72634W        W44894   3.013  16.596   1.867
72635W        W44895   6.912  43.452  12.565
72636W        W44896  18.717  38.932   4.706
72637W        W44897  31.627  15.877  14.725
72638W        W44898  42.872  17.107   0.762
72639W        W44899  18.586  17.481  11.379
72640W        W44900  26.939  42.686   3.304
72641W        W44901   6.627  37.862   3.670
72642W        W44902  15.887  17.501  10.280
72643W        W44903  16.420   4.365   2.798
72644W        W44904   8.974  28.655  10.734
72645W        W44905   5.307  18.751   2.797
72646W        W44906   6.431  14.915  11.236
72647W        W44907  31.627  21.575  14.008
72648W        W44908   3.514  20.652  14.253
72649W        W44909   9.153  29.007   0.765
72650W        W44910  16.068  31.661   0.351
72651W        W44911  42.005   2.323   3.804
72652W        W44912  15.683  17.795  14.803
72653W        W44913  41.809  33.915  11.995
72654W        W44914   1.184  28.381  12.369
72655W        W44915  29.215  36.598  12.780
72656W        W44916  11.332  36.973   4.128
72657W        W44917   6.311  20.537   0.175
72658W        W44918   7.171  36.602  11.166
72659W        W44919  10.416  11.583   0.864
72660W        W44920  36.111  36.937   0.556
72661W        W44921   1.125   0.286  13.397
72662W        W44922  20.123   5.251   4.179
72663W        W44923  16.168  24.535  11.605
72664W        W44924  34.480  27.223  12.577
72665W        W44925  30.431  15.071  12.806
72666W        W44926   9.201   4.779   3.327
72667W        W44927  10.297  20.540   3.158
72668W        W44928  22.312  32.418   4.143
72669W        W44929  26.428  28.532  12.031
72670W        W44930  38.890  20.171  11.944
72671W        W44931  27.582  28.196   2.000
72672W        W44932  28.367  10.222   1.903
72673W        W44933  23.751  15.776   5.037
72674W        W44934  26.122  22.139  10.624
72675W        W44935  14.414   5.321  10.929
72676W        W44936  37.964  40.357   4.930
72677W        W44937  23.788  23.740  13.062
72678W        W44938  24.921  22.473  13.931
72679W        W44939  33.356   6.949   2.419
72680W        W44940  27.800  21.988  11.815
72681W        W44941  14.830  29.222  11.081
72682W        W44942   7.195  18.474   4.259
72683W        W44943  12.698  20.145   2.760
72684W        W44944  35.802   0.455   0.928
72685W        W44945  40.910  35.469   4.210
72686W        W44946  25.344   1.774   2.346
72687W        W44947   6.941  31.258   3.007
72688W        W44948  28.793   3.396  14.466
72689W        W44949  31.372  32.577   1.449
72690W        W44950  21.063  37.021  14.840
72691W        W44951  42.634   3.329  14.818
72692W        W44952  19.344  42.059  13.955
72693W        W44953  36.281  14.548   0.932
72694W        W44954  14.690  42.318   2.847
72695W        W44955  43.745  33.120  14.346
72696W        W44956  39.353  42.126  14.494
72697W        W44957  11.782  29.910   2.323
72698W        W44958  27.770   2.895  11.955
72699W        W44959  13.555   0.453  10.722
72700W        W44960  43.308  24.601   2.757
72701W        W44961   5.200  15.404  14.985
72702W        W44962  30.573   7.110  11.717
72703W        W44963  31.526   6.541   2.886
72704W        W44964  30.096  28.288  12.770
72705W        W44965  41.817  32.948  13.845
72706W        W44966  32.930  26.513   1.877
72707W        W44967  44.295  23.443  10.608
72708W        W44968  39.394  19.793   4.712
72709W        W44969  23.146  27.536  14.689
72710W        W44970   8.891  36.673   3.993
72711W        W44971  18.011  39.239  13.544
72712W        W44972  28.305  32.239  10.284
72713W        W44973   9.557  34.500   0.250
72714W        W44974  25.107  41.008   5.129
72715W        W44975   4.494  39.633  14.524
72716W        W44976  18.709   4.333  10.711
72717W        W44977  11.612  33.921  14.764
72718W        W44978  14.572  42.485  12.500
72719W        W44979   2.392  40.428   3.730
72720W        W44980   2.222   4.731  11.603
72721W        W44981  12.356  10.913  14.934
72722W        W44982  33.438  12.048   1.027
72723W        W44983  16.162  36.733   4.172
72724W        W44984  35.117  22.660  10.580
72725W        W44985  16.260   2.109  12.117
72726W        W44986  38.319  35.593  12.476
72727W        W44987  12.316  26.319   4.262
72728W        W44988  31.946  20.463   1.811
72729W        W44989  12.629   9.737  12.862
72730W        W44990  35.877  21.956   4.131
72731W        W44991   3.822  28.263  14.907
72732W        W44992  16.725  40.463   3.311
72733W        W44993  19.954  29.926  12.920
72734W        W44994  44.780   1.377  13.911
72735W        W44995  38.097  23.767  12.361
72736W        W44996  44.316   3.001  11.669
72737W        W44997  17.684  29.068  13.316
72738W        W44998  23.126  27.483   1.453
72739W        W44999  39.663  39.839  10.909
72740W        W45000  10.676  29.854  11.570
72741W        W45001  39.888  10.584   0.995
72742W        W45002  36.385  31.271   3.638
72743W        W45003  41.514  42.322   2.288
72744W        W45004  36.408  28.475  13.905
72745W        W45005  44.206  29.979  13.998
72746W        W45006  20.826  16.721  13.351
72747W        W45007  13.756  29.893   4.633
72748W        W45008   4.677  20.780  10.371
72749W        W45009  42.464   9.291  12.349
72750W        W45010  29.195   1.197   0.180
72751W        W45011  41.750   7.354  12.835
72752W        W45012  12.637   0.196  13.077
72753W        W45013  16.543  43.870   1.288
72754W        W45014   2.306  39.029   1.496
72755W        W45015   0.717  42.726  13.819
72756W        W45016   7.528  18.951  14.530
72757W        W45017   6.934  24.257  11.949
72758W        W45018  39.873  33.342  13.874
72759W        W45019  18.115  27.005   0.306
72760W        W45020  29.910  30.427   3.763
72761W        W45021  29.197  32.040   2.445
72762W        W45022  14.673   8.841  14.741
72763W        W45023  41.459  39.596  11.648
72764W        W45024   1.690   3.925  14.326
72765W        W45025  29.167  43.898   1.782
72766W        W45026   2.358  39.061   4.991
72767W        W45027  43.082  35.830  13.061
72768W        W45028   1.691   5.975  14.132
72769W        W45029   5.351  10.255  10.908
72770W        W45030   5.852  18.348  12.358
72771W        W45031  14.846  24.524   3.606
72772W        W45032  19.139  42.422   1.681
72773W        W45033  32.093  21.327  11.361
72774W        W45034  26.001  32.334  13.706
72775W        W45035  22.870  20.199  13.837
72776W        W45036  12.311  16.829  11.774
72777W        W45037  41.497  26.579  12.304
72778W        W45038   1.671  37.189   2.763
72779W        W45039  44.439  20.048  10.729
72780W        W45040   6.824  24.437   1.217
72781W        W45041  10.305  29.180   3.244
72782W        W45042  29.313  24.718  12.420
72783W        W45043  36.567  23.644  14.444
72784W        W45044   0.366  29.083  12.550
72785W        W45045  15.178  32.964   4.088
72786W        W45046  38.876  15.303   3.905
72787W        W45047  15.079  31.004   9.988
72788W        W45048  39.873  11.780   4.793
72789W        W45049  13.069  15.160  12.926
72790W        W45050  30.907  18.777  11.985
72791W        W45051  22.694   4.919  11.809
72792W        W45052   9.378  37.957   4.646
72793W        W45053  38.258   9.171   0.287
72794W        W45054  43.204  44.618   4.876
72795W        W45055  35.573  32.604   4.452
72796W        W45056  26.440  14.086  11.205
72797W        W45057  43.432   8.607  13.280
72798W        W45058  15.644   0.408   0.085
72799W        W45059  11.643  35.969   1.886
72800W        W45060  18.164  29.023  13.068
72801W        W45061   0.458  41.517   2.635
72802W        W45062  14.086  16.077  11.233
72803W        W45063  12.334  26.173  13.371
72804W        W45064   0.440  27.151  12.607
72805W        W45065  34.526   3.995   0.744
72806W        W45066  26.574  32.005  11.626
72807W        W45067   9.069  21.620  11.615
72808W        W45068  26.268  33.972  12.869
72809W        W45069   4.414  11.127   2.215
72810W        W45070  14.423  25.609  14.909
72811W        W45071  18.418   7.409  12.511
72812W        W45072  24.128  22.546   0.548
72813W        W45073  24.736  31.288  12.528
72814W        W45074  43.413  15.699   3.264
72815W        W45075  37.166  43.160  10.470
72816W        W45076  12.960  31.872  12.090
72817W        W45077  41.915  40.119   1.821
72818W        W45078  35.969  44.566   3.210
72819W        W45079  24.944  29.978  11.292
72820W        W45080  19.094  22.067  11.693
72821W        W45081   2.557  15.489   3.407
72822W        W45082  40.930  38.309  13.563
72823W        W45083   7.338  27.988  11.150
72824W        W45084  26.248  36.021  14.475
72825W        W45085  34.989   6.472   2.810
72826W        W45086  44.672   7.711   3.675
72827W        W45087  39.019  29.645   3.810
72828W        W45088  35.062  40.415  12.408
72829W        W45089  10.500  36.522   4.228
72830W        W45090  39.399   7.450   2.883
72831W        W45091  23.114   2.688   0.211
72832W        W45092  18.045  24.499   0.343
72833W        W45093  43.370   5.052  12.111
72834W        W45094  33.789  22.995  14.881
72835W        W45095  20.611  18.272   1.437
72836W        W45096  28.186  42.361  13.909
72837W        W45097  35.409  40.971  13.565
72838W        W45098   0.225  20.280  11.088
72839W        W45099  39.849  32.147  13.358
72840W        W45100   8.325  29.450  10.644
72841W        W45101  36.338  33.186  10.640
72842W        W45102  22.983  34.530   1.198
72843W        W45103  44.839  12.623   4.261
72844W        W45104  37.609  22.572   1.988
72845W        W45105  39.258  20.647   4.202
72846W        W45106  31.980  11.563  13.991
72847W        W45107  10.191  12.351  10.742
72848W        W45108  20.995  26.444   3.289
72849W        W45109  23.603   3.217   4.664
72850W        W45110  38.504  42.958   3.755
72851W        W45111  20.071   7.401   4.148
72852W        W45112  12.720  21.676   1.065
72853W        W45113  13.375   3.370   1.421
72854W        W45114  33.021  30.481   0.397
72855W        W45115   5.837  29.531   4.571
72856W        W45116  22.783  14.285   4.535
72857W        W45117  15.773   2.663  14.989
72858W        W45118  23.223   4.542  14.760
72859W        W45119  19.954  38.112   3.284
72860W        W45120   6.205  36.366   0.016
72861W        W45121  14.213  15.911   4.329
72862W        W45122  14.330  43.212  12.972
72863W        W45123  21.490  35.334   2.679
72864W        W45124  24.981  21.566  14.201
72865W        W45125  37.490  43.327  10.855
72866W        W45126  43.800   6.191  11.188
72867W        W45127  32.924  23.785  13.887
72868W        W45128  43.429  11.031  13.415
72869W        W45129  43.492  11.709   4.185
72870W        W45130   3.660  40.005  14.203
72871W        W45131  15.633  44.566  12.433
72872W        W45132  24.136  33.439   3.163
72873W        W45133  16.227  38.381   3.315
72874W        W45134   0.180  40.824  11.217
72875W        W45135   4.468   9.659  12.357
72876W        W45136  21.429  29.663   1.831
72877W        W45137  30.510  31.581  11.101
72878W        W45138  18.550  11.213  13.558
72879W        W45139  41.809  21.746  13.730
72880W        W45140  34.255  15.136   0.272
72881W        W45141  14.123   4.958   1.771
72882W        W45142  19.147  27.949  12.186
72883W        W45143   3.528   1.039  11.731
72884W        W45144  22.383  23.497  13.562
72885W        W45145  36.938  17.339  14.116
72886W        W45146   1.988  30.681   2.192
72887W        W45147  21.611  26.800   2.825
72888W        W45148  33.907  43.884   1.894
72889W        W45149  31.528  27.386  12.085
72890W        W45150  42.839  20.712  13.181
72891W        W45151  33.068  18.459  11.940
72892W        W45152   4.799  41.580  13.900
72893W        W45153  19.210  23.701   4.981
72894W        W45154  13.634  23.362  11.825
72895W        W45155  21.634  21.563   5.487
72896W        W45156  35.597  20.680  13.139
72897W        W45157  22.245  12.356  14.802
72898W        W45158   3.552  26.190  14.566
72899W        W45159  37.350   6.617   1.349
72900W        W45160   7.406  14.356   2.912
72901W        W45161  27.914  34.800  12.729
72902W        W45162  21.247  22.186   0.467
72903W        W45163  41.138  34.851   2.772
72904W        W45164  15.545  25.162   1.276
72905W        W45165  26.872  11.210   1.697
72906W        W45166  33.108  43.346  14.630
72907W        W45167  23.417  37.565  13.816
72908W        W45168   2.373   4.973   0.118
72909W        W45169  43.515  39.352  11.687
72910W        W45170  36.618  42.344  11.530
72911W        W45171  10.737  31.041   3.381
72912W        W45172  25.991  25.193   3.954
72913W        W45173   1.256   3.984  12.113
72914W        W45174  21.039  43.683   4.220
72915W        W45175  25.171  27.590   2.643
72916W        W45176  17.662  25.306  11.324
72917W        W45177  18.494  19.219  13.474
72918W        W45178  42.878   1.917   2.094
72919W        W45179   0.825  18.639   1.465
72920W        W45180  31.846  30.994   2.446
72921W        W45181   3.256   7.763   1.327
72922W        W45182  17.122  16.552  11.597
72923W        W45183  30.533  28.151   2.784
72924W        W45184   7.480  25.459   4.158
72925W        W45185  40.581  15.227   0.485
72926W        W45186  39.276   7.324   1.505
72927W        W45187  44.666  11.354  14.946
72928W        W45188  36.863   5.611   3.507
72929W        W45189  33.026  44.349   4.599
72930W        W45190  39.019  17.247  11.175
72931W        W45191  37.120   2.328   4.796
72932W        W45192   3.855   5.420   1.470
72933W        W45193   3.437   7.001  14.730
72934W        W45194  24.462  37.774   1.608
72935W        W45195  17.900  41.345   3.778
72936W        W45196  29.758  39.143  12.632
72937W        W45197   5.291  38.939   1.866
72938W        W45198  39.912   1.451   4.114
72939W        W45199   5.683  41.568   1.928
72940W        W45200  28.829  26.114   3.858
72941W        W45201  41.558  20.485   0.231
72942W        W45202   2.875  36.345  11.955
72943W        W45203  37.628  33.997  11.169
72944W        W45204  21.083  14.383  12.848
72945W        W45205  17.574   6.359   1.233
72946W        W45206  13.735  43.245   0.738
72947W        W45207  24.783  41.768   5.617
72948W        W45208  44.996  41.979  13.547
72949W        W45209  43.369  24.512   3.330
72950W        W45210  34.602  15.623   3.722
72951W        W45211  10.584  20.100  11.949
72952W        W45212  17.606  42.034   1.256
72953W        W45213  30.919  19.501  13.096
72954W        W45214  36.486  18.309   4.020
72955W        W45215  42.072  24.574   1.341
72956W        W45216  28.236   7.730   0.221
72957W        W45217  42.736  34.430   3.328
72958W        W45218  18.342  19.302   0.724
72959W        W45219  16.019  16.026  10.901
72960W        W45220  21.110  33.186  12.584
72961W        W45221   6.182  41.812  12.995
72962W        W45222  39.879  17.504   1.363
72963W        W45223  28.568  25.655  10.305
72964W        W45224  22.133   9.163   0.810
72965W        W45225  26.363  37.957   1.766
72966W        W45226  20.493  36.872   4.163
72967W        W45227  28.335   7.203   1.453
72968W        W45228  33.515  12.553   0.889
72969W        W45229  12.247   6.502   2.380
72970W        W45230  11.635  21.994  14.519
72971W        W45231  34.419  15.284  13.102
72972W        W45232  22.567  31.981   0.846
72973W        W45233  30.170   5.306  10.771
72974W        W45234  31.094   5.583   4.254
72975W        W45235   4.416   8.915  14.454
72976W        W45236  17.176  13.919  14.448
72977W        W45237  31.180  35.430   0.365
72978W        W45238  36.042   2.286   3.674
72979W        W45239  19.396  20.113   2.353
72980W        W45240  16.513  11.661  10.919
72981W        W45241  35.929  19.132  13.190
72982W        W45242  31.865  17.248   2.357
72983W        W45243  23.075  44.069   1.300
72984W        W45244   8.642  26.597  12.313
72985W        W45245   7.338   4.193   3.642
72986W        W45246   6.084  44.999  13.009
72987W        W45247  21.507  33.462  14.965
72988W        W45248   1.339  13.428  12.612
72989W        W45249  30.513  35.241   3.462
72990W        W45250   9.874  12.542  11.204
72991W        W45251  19.190  11.734   4.873
72992W        W45252  39.051  42.908  13.588
72993W        W45253  42.272   1.263   3.636
72994W        W45254  29.485  26.151   1.734
72995W        W45255  10.613  39.362   0.427
72996W        W45256  20.573   7.236   4.220
72997W        W45257  31.160  37.295   0.812
72998W        W45258  37.953  24.378   0.424
72999W        W45259   4.794  16.852  13.882
73000W        W45260   6.933   0.836   2.349
73001W        W45261   0.194  38.074  12.290
73002W        W45262  34.738  44.898   4.175
73003W        W45263  39.008  44.438  11.058
73004W        W45264   3.675   8.898  10.693
73005W        W45265  10.285   9.234   4.440
73006W        W45266   6.693  26.217   1.747
73007W        W45267  31.928  26.997   4.639
73008W        W45268  19.321  20.033   3.576
73009W        W45269  41.932  28.467  14.964
73010W        W45270  20.736   4.270   4.471
73011W        W45271  15.025  17.214   3.356
73012W        W45272   5.209  30.516  10.908
73013W        W45273  31.663  16.648  13.383
73014W        W45274   4.900  41.437  14.835
73015W        W45275  15.782  43.050   0.937
73016W        W45276  10.893  28.414  11.077
73017W        W45277  37.476  44.317  13.848
73018W        W45278   3.673   9.838   1.889
73019W        W45279  16.963  17.074  12.965
73020W        W45280   9.840  43.353   3.826
73021W        W45281   3.071  29.943   0.719
73022W        W45282   8.357   8.686   4.163
73023W        W45283  16.068  41.737   0.481
73024W        W45284  30.040   2.742   3.663
73025W        W45285   1.879   3.348  10.676
73026W        W45286  20.147  20.478   5.422
73027W        W45287   8.216  17.558  12.838
73028W        W45288  28.273  44.072   0.362
73029W        W45289   8.480  41.438   3.907
73030W        W45290  41.391  10.267  13.029
73031W        W45291  20.975  19.646   2.258
73032W        W45292  13.822  33.512   5.147
73033W        W45293  35.406  42.306   1.692
73034W        W45294   4.882  28.069   1.448
73035W        W45295  10.277  13.552  11.298
73036W        W45296  11.225   0.586   0.322
73037W        W45297  37.793  11.896  11.195
73038W        W45298  41.385  41.830  10.682
73039W        W45299  33.387  15.183  14.760
73040W        W45300  43.745  34.270   0.937
73041W        W45301  25.454  30.561   1.650
73042W        W45302  16.124  36.377  11.387
73043W        W45303  42.049  14.221   3.578
73044W        W45304   8.477  10.284  14.341
73045W        W45305  42.087  28.468  14.460
73046W        W45306  31.660  29.115   1.427
73047W        W45307  44.380  24.270  11.446
73048W        W45308   9.904  23.024  10.927
73049W        W45309   3.324  41.720  13.454
73050W        W45310  38.171  38.292   2.413
73051W        W45311   2.600   8.626   4.266
73052W        W45312  14.358  30.623   0.314
73053W        W45313   1.313  14.381   1.007
73054W        W45314  42.726  29.058   2.833
73055W        W45315  13.321  17.324   3.264
73056W        W45316   0.747  26.508  14.025
73057W        W45317  27.516   9.013   2.415
73058W        W45318  43.664   9.701   4.694
73059W        W45319  28.610  18.670   3.798
73060W        W45320  15.209  20.130   4.319
73061W        W45321  34.581   6.350  14.571
73062W        W45322  20.645  15.546  11.916
73063W        W45323  17.582  14.617   0.853
73064W        W45324  23.008  12.148   1.996
73065W        W45325  38.611  23.452   1.722
73066W        W45326  38.033  44.704   3.743
73067W        W45327  13.689  17.384  13.127
73068W        W45328   3.352  41.989   0.344
73069W        W45329  43.904  31.229  11.400
73070W        W45330   5.587  40.787  13.388
73071W        W45331  30.217  16.091   3.208
73072W        W45332  17.639  17.833  13.350
73073W        W45333  39.238  30.592  11.740
73074W        W45334  42.333  15.571   4.757
73075W        W45335   2.768  42.837   4.599
73076W        W45336  36.479  26.237   1.876
73077W        W45337  31.427  20.528   0.424
73078W        W45338  29.456   2.224  12.073
73079W        W45339  41.010  32.658  11.448
73080W        W45340   9.131   4.704  11.122
73081W        W45341  37.464   3.123  10.370
73082W        W45342  24.333  21.509  13.297
73083W        W45343  27.694  29.468   3.478
73084W        W45344  17.101  36.602  11.592
73085W        W45345  37.510  10.883   1.503
73086W        W45346  16.189  18.009  10.473
73087W        W45347  34.352  20.733   5.526
73088W        W45348  20.051  17.859  13.448
73089W        W45349  17.063  30.402   4.688
73090W        W45350  27.212  33.429  12.885
73091W        W45351  42.942  38.734  13.619
73092W        W45352   2.798  29.531  11.545
73093W        W45353   9.727  23.844  14.456
73094W        W45354  39.868  25.768   2.212
73095W        W45355  20.346  28.228   2.185
73096W        W45356  33.113  19.138   1.903
73097W        W45357  33.561   8.586  14.542
73098W        W45358  14.077  42.402  12.400
73099W        W45359  32.860  24.513  14.953
73100W        W45360  39.344  26.627   4.808
73101W        W45361  37.852   7.657  12.865
73102W        W45362  44.751   2.955  12.848
73103W        W45363  35.284  13.745   0.954
73104W        W45364  15.773   0.912   0.810
73105W        W45365  39.394  13.443  13.906
73106W        W45366  33.516  26.333  11.542
73107W        W45367  34.293  30.157  13.952
73108W        W45368   4.571  34.227   3.250
73109W        W45369  18.007  44.107  12.440
73110W        W45370  39.651   0.397   2.294
73111W        W45371  44.441  17.379   3.243
73112W        W45372  20.006  32.211  13.956
73113W        W45373  35.527  39.894  14.289
73114W        W45374  13.769   8.766  10.505
73115W        W45375  17.311   6.220  11.650
73116W        W45376  37.003  35.667   2.370
73117W        W45377  28.432  37.056  11.710
73118W        W45378  13.831  33.435   2.850
73119W        W45379  42.595  39.609  14.987
73120W        W45380  37.496  32.752   2.191
73121W        W45381  16.505  11.172  10.740
73122W        W45382  14.819  19.804   0.799
73123W        W45383  29.901  27.604  13.958
73124W        W45384  26.978  38.803   0.392
73125W        W45385  12.637  28.676  10.523
73126W        W45386   2.683   9.876   1.930
73127W        W45387   7.267  39.795  13.886
73128W        W45388   1.022  19.667   2.998
73129W        W45389  22.022  19.833  12.874
73130W        W45390  17.460  26.500   3.631
73131W        W45391  15.837   6.741  12.509
73132W        W45392  32.455  35.955  11.647
73133W        W45393   6.803  40.010   1.428
73134W        W45394  10.365  40.575  10.878
73135W        W45395  25.922  16.199  11.763
73136W        W45396  33.029  32.180   2.963
73137W        W45397  34.916  14.166  13.463
73138W        W45398  22.025   3.944  12.220
73139W        W45399  17.840  19.032   1.739
73140W        W45400  25.000  39.789   0.496
73141W        W45401  34.074   1.290  12.885
73142W        W45402  35.999  14.682  13.757
73143W        W45403  31.655  32.423   1.835
73144W        W45404  22.734  14.915   1.168
73145W        W45405  37.948   2.913  13.832
73146W        W45406  12.094  12.373   3.631
73147W        W45407  15.612   8.121   0.249
73148W        W45408  16.142  22.614   4.222
73149W        W45409  30.075  38.341   4.850
73150W        W45410  30.927  40.510  11.742
73151W        W45411  31.500   5.120   1.469
73152W        W45412  15.386  28.579   2.764
73153W        W45413   5.319  35.572   1.000
73154W        W45414  31.180  43.242   1.293
73155W        W45415  33.204  38.363  11.202
73156W        W45416   4.112   9.330   0.934
73157W        W45417  38.644  28.479   0.974
73158W        W45418  12.881  10.286   4.648
73159W        W45419  26.671   3.771  11.028
73160W        W45420  14.928  41.457  10.661
73161W        W45421  25.993  30.537   0.272
73162W        W45422  39.541  25.194  11.406
73163W        W45423  31.085  41.461   1.643
73164W        W45424  24.238  33.818   0.813
73165W        W45425  28.134  44.346  10.684
73166W        W45426   5.822  14.318   1.337
73167W        W45427  40.811  30.680   1.275
73168W        W45428  31.727  36.477   0.749
73169W        W45429  23.090  17.722   3.105
73170W        W45430  43.622  43.270   4.134
73171W        W45431  29.428   7.742  13.779
73172W        W45432   0.355  11.872  13.537
73173W        W45433   2.209  11.162   0.952
73174W        W45434  12.556  24.014  11.926
73175W        W45435  30.673   3.533   4.597
73176W        W45436   5.314  44.885  13.750
73177W        W45437   4.605  38.450   2.213
73178W        W45438   6.137  20.954  14.873
73179W        W45439  36.559  21.050   3.582
73180W        W45440  26.864  39.582  12.428
73181W        W45441  15.841   9.277   0.668
73182W        W45442  26.929  30.946   0.814
73183W        W45443  24.990  29.628   1.846
73184W        W45444  38.487  27.258  12.400
73185W        W45445   9.332  26.444   3.063
73186W        W45446   8.698  30.371   1.342
73187W        W45447   8.800  44.779  12.653
73188W        W45448   2.901   2.405   0.332
73189W        W45449  15.148  12.918   4.538
73190W        W45450  10.398  23.646   4.806
73191W        W45451  44.450  10.806   0.289
73192W        W45452  39.242  23.129   1.185
73193W        W45453  41.929  37.425  10.239
73194W        W45454  40.539  11.199  14.791
73195W        W45455  44.897  38.769   0.377
73196W        W45456  10.833  28.734  13.951
73197W        W45457  26.986  16.512   4.572
73198W        W45458   2.691  25.063  12.475
73199W        W45459  22.726  44.424  14.355
73200W        W45460  31.163  29.872   4.182
73201W        W45461  28.983  30.566  11.720
73202W        W45462   2.214   2.232  11.598
73203W        W45463  10.580  35.553   4.207
73204W        W45464  26.220   1.852   2.648
73205W        W45465   2.489  23.308  11.349
73206W        W45466   0.240  15.618   1.939
73207W        W45467   1.217  20.227  12.026
73208W        W45468  14.526  33.901   2.246
73209W        W45469   3.281   4.764   3.664
73210W        W45470   3.706  12.728  11.606
73211W        W45471   0.476  39.056   3.184
73212W        W45472   6.209  35.843  11.640
73213W        W45473  32.889  31.094  11.066
73214W        W45474   4.908  32.603  14.886
73215W        W45475   9.320  24.747   2.317
73216W        W45476  12.757  14.889  11.460
73217W        W45477  32.552   0.275  12.315
73218W        W45478  35.167  38.062  12.968
73219W        W45479  43.747  18.404   1.774
73220W        W45480  27.945  44.760   2.328
73221W        W45481  34.825  18.911  12.599
73222W        W45482   7.668  43.918  12.923
73223W        W45483  23.038   3.278   1.483
73224W        W45484   5.149   4.833  13.905
73225W        W45485  16.221  27.101  11.317
73226W        W45486   4.761   2.928  13.010
73227W        W45487  26.879   4.345   0.899
73228W        W45488  24.406  15.345   2.752
73229W        W45489  26.547  44.132  11.804
73230W        W45490  11.188  29.125  13.875
73231W        W45491  41.975  42.571  12.344
73232W        W45492  34.146  35.016   3.606
73233W        W45493  20.945  25.796  10.420
73234W        W45494  16.292  27.357  13.462
73235W        W45495  17.542  24.424   0.399
73236W        W45496  20.611  44.110  12.840
73237W        W45497  39.015  30.628   0.378
73238W        W45498  31.968  29.175  13.876
73239W        W45499  36.107  32.129   2.201
73240W        W45500  17.568   1.407  14.387
73241W        W45501  41.464  15.644   1.945
73242W        W45502  42.357  21.692  14.484
73243W        W45503  37.595  44.577  13.369
73244W        W45504  10.609   8.852  10.386
73245W        W45505  27.747   7.801  11.963
73246W        W45506  16.063  17.780   5.122
73247W        W45507  43.396  38.842  14.922
73248W        W45508  27.898  16.486   0.347
73249W        W45509  12.377  15.094  14.593
73250W        W45510  14.730  29.486  14.268
73251W        W45511  25.052  43.509   2.754
73252W        W45512   7.059  21.070   0.128
73253W        W45513   3.955  34.636  12.713
73254W        W45514   7.702  31.074  13.614
73255W        W45515   8.987   7.179   2.112
73256W        W45516   2.019  43.507  12.539
73257W        W45517  21.560  37.943  13.797
73258W        W45518  23.715   0.240  14.842
73259W        W45519  19.596  41.162   4.918
73260W        W45520  27.563  29.955  12.903
73261W        W45521   8.415   6.426   1.187
73262W        W45522  28.319  17.936  13.825
73263W        W45523  13.514  29.038  13.876
73264W        W45524  37.313  38.654  12.671
73265W        W45525  34.627  25.524  14.369
73266W        W45526  22.865  14.104   2.584
73267W        W45527  10.461  28.908   2.839
73268W        W45528   6.167  37.434   0.853
73269W        W45529  43.182  35.994   4.170
73270W        W45530  34.073   8.963  11.040
73271W        W45531  20.270  18.632   1.240
73272W        W45532  26.120  10.026   2.948
73273W        W45533  12.848  10.244  11.921
73274W        W45534  36.553  36.967   1.464
73275W        W45535  43.395  10.763  11.929
73276W        W45536  16.034  23.620  14.517
73277W        W45537  34.174  31.334   1.712
73278W        W45538  42.242  44.361  11.892
73279W        W45539  44.898   0.942  10.435
73280W        W45540   4.065  24.710  13.958
73281W        W45541  42.499  15.791   1.851
73282W        W45542  14.588  36.556   3.635
73283W        W45543  22.289  14.609  12.521
73284W        W45544  12.735  21.808  12.189
73285W        W45545   2.366  22.176   0.136
73286W        W45546  32.157  11.329   2.760
73287W        W45547   6.890  21.119  13.042
73288W        W45548  14.059  44.350   3.745
73289W        W45549  23.652  42.461   3.947
73290W        W45550  37.502  24.187  10.611
73291W        W45551  37.441  27.530   4.401
73292W        W45552  39.344  42.447   0.519
73293W        W45553   6.939  13.155  13.756
73294W        W45554  32.977  32.831  11.187
73295W        W45555  33.161   7.281   3.610
73296W        W45556  16.696   9.301   0.524
73297W        W45557  22.024  23.361  14.514
73298W        W45558  19.563   0.360  10.662
73299W        W45559  24.789  27.045   3.319
73300W        W45560  25.939  27.444  14.971
73301W        W45561  36.046  10.844  12.377
73302W        W45562  25.950  12.325  11.489
73303W        W45563  42.416  24.566  14.954
73304W        W45564  33.836  29.736   3.298
73305W        W45565   0.586  43.488   1.756
73306W        W45566  15.719  14.894  11.489
73307W        W45567   0.349  20.258   4.163
73308W        W45568  19.814  22.846   2.148
73309W        W45569  20.303  25.082  10.775
73310W        W45570   6.402   0.268  12.573
73311W        W45571  10.188  24.273   3.156
73312W        W45572   0.856  13.209   1.730
73313W        W45573   7.975  44.375   2.691
73314W        W45574   9.088  39.440   1.884
73315W        W45575  15.159  32.104   3.697
73316W        W45576  34.788  36.597  14.412
73317W        W45577  17.132  14.879  12.302
73318W        W45578  21.237  17.607  10.785
73319W        W45579  27.861  43.488  12.117
73320W        W45580   1.550  20.952   2.555
73321W        W45581   4.243   5.589   1.180
73322W        W45582  13.641  32.803   4.899
73323W        W45583  32.457  44.814   2.266
73324W        W45584   5.249  17.874   3.159
73325W        W45585  42.914  42.882   2.307
73326W        W45586  10.404  23.788   3.097
73327W        W45587  32.008  11.096  11.681
73328W        W45588  13.692  38.310  14.838
73329W        W45589  28.218  37.531  11.566
73330W        W45590  32.559  17.115  12.055
73331W        W45591  17.831  43.837  13.092
73332W        W45592  17.669  15.166  13.460
73333W        W45593  11.607  38.030  11.669
73334W        W45594  40.520   6.674  13.550
73335W        W45595   1.296   2.362   3.413
73336W        W45596  16.118  32.548   2.413
73337W        W45597  44.571  32.338   0.350
73338W        W45598  22.144   2.014  14.062
73339W        W45599   6.085  32.784   1.777
73340W        W45600   9.815  33.751  11.583
73341W        W45601  22.167  13.999  13.267
73342W        W45602  24.381   7.707   3.266
73343W        W45603  19.574  27.954  14.422
73344W        W45604  44.320  10.635   4.653
73345W        W45605  14.088  26.807  12.470
73346W        W45606  23.218  12.941   2.449
73347W        W45607  22.933   0.875  13.039
73348W        W45608  11.242   1.225  12.972
73349W        W45609  24.170  33.310  13.047
73350W        W45610   8.344  25.594   2.639
73351W        W45611  19.350   8.692  10.684
73352W        W45612  17.578  31.037  13.439
73353W        W45613  23.558   8.199   4.795
73354W        W45614  20.484  32.661  13.218
73355W        W45615  15.282  32.438   1.466
73356W        W45616  31.636  25.249  11.210
73357W        W45617   8.105   7.201   0.260
73358W        W45618  40.583  12.890   2.265
73359W        W45619  13.583  41.088   0.190
73360W        W45620  12.462  42.367   3.177
73361W        W45621  38.559  22.198   3.695
73362W        W45622  25.491  17.727   1.028
73363W        W45623   6.747  44.903   0.235
73364W        W45624   9.304  19.189  10.708
73365W        W45625  26.417  44.132  12.303
73366W        W45626   0.048   1.810  12.002
73367W        W45627  40.856   1.309   3.141
73368W        W45628  43.617  19.549   2.296
73369W        W45629   2.728  31.995   2.442
73370W        W45630  38.085   6.894   2.439
73371W        W45631  10.819  18.527   0.529
73372W        W45632  10.765  37.551  10.736
73373W        W45633  17.953  11.914   3.895
73374W        W45634   7.786  12.504   0.052
73375W        W45635  20.967  25.450   2.337
73376W        W45636   7.457  41.568  13.396
73377W        W45637  34.054  28.874  12.099
73378W        W45638   2.625  12.726   4.989
73379W        W45639  11.741  42.527   3.716
73380W        W45640  25.576  24.320  12.852
73381W        W45641  17.740  34.787  11.989
73382W        W45642  42.898   2.525  13.569
73383W        W45643  15.999  39.177   0.036
73384W        W45644  22.436   9.810  11.131
73385W        W45645   0.525  37.978  10.386
73386W        W45646  20.653  17.996   3.803
73387W        W45647  16.058   6.862   2.174
73388W        W45648  18.487  28.584   0.270
73389W        W45649  39.803  20.674   3.315
73390W        W45650   9.278  19.469   0.791
73391W        W45651  33.448  29.435   4.224
73392W        W45652  30.249  23.331  12.688
73393W        W45653  15.445  25.915  14.908
73394W        W45654  26.512  19.528   3.580
73395W        W45655  41.858   1.550  13.490
73396W        W45656  44.948  22.316  13.132
73397W        W45657  38.994  17.805   0.483
73398W        W45658  44.410   1.722   0.051
73399W        W45659  28.500  16.571  13.385
73400W        W45660   7.105  30.048   1.309
73401W        W45661  36.877  17.632   0.417
73402W        W45662  29.174  44.025  11.574
73403W        W45663  20.782  25.719   1.024
73404W        W45664  35.622  15.710  14.482
73405W        W45665  44.032   5.771   2.207
73406W        W45666   2.920  40.772   4.541
73407W        W45667  16.087  39.005   2.784
73408W        W45668  43.221   6.385  13.391
73409W        W45669  14.793   1.686   1.035
73410W        W45670  16.269  33.156   0.246
73411W        W45671  25.212   7.172  11.566
73412W        W45672   5.921  18.168  13.369
73413W        W45673  15.782  27.394  12.815
73414W        W45674  31.555  28.577   2.734
73415W        W45675  15.346   8.848  12.361
73416W        W45676  20.236  14.289  14.349
73417W        W45677  20.100  18.114   1.365
73418W        W45678  43.340   1.743  10.514
73419W        W45679   6.832  33.906  14.384
73420W        W45680  30.668  27.396   0.672
73421W        W45681  18.901  28.149  13.465
73422W        W45682  22.185  20.890  11.891
73423W        W45683   4.724   0.269  13.968
73424W        W45684  35.966   5.285  13.771
73425W        W45685  22.541  12.425   1.941
73426W        W45686  12.785  29.183   1.143
73427W        W45687  20.356   8.331  10.653
73428W        W45688  33.837  33.629  11.121
73429W        W45689  39.536  42.295  10.669
73430W        W45690   2.886  37.067  12.433
73431W        W45691   4.272   3.716  10.578
73432W        W45692  33.570  20.508   5.144
73433W        W45693   3.968  41.745  14.844
73434W        W45694  34.340  32.916  12.400
73435W        W45695  23.970  39.876  14.986
73436W        W45696  24.233   3.028   1.799
73437W        W45697   1.065  18.530  12.835
73438W        W45698  23.210  42.917   0.805
73439W        W45699   2.789  15.214  13.760
73440W        W45700  44.634   9.424  10.753
73441W        W45701  23.237   7.758  14.379
73442W        W45702  41.583  18.101   0.068
73443W        W45703  15.060  42.830  10.717
73444W        W45704  38.476   4.614   1.222
73445W        W45705  23.470  37.988  12.622
73446W        W45706  18.570  30.925   4.179
73447W        W45707  42.900  39.830  14.250
73448W        W45708  25.991  30.136   3.621
73449W        W45709  25.068  13.247  11.959
73450W        W45710   9.878  44.903  11.572
73451W        W45711  44.814  11.361  11.947
73452W        W45712   5.707  36.645  14.314
73453W        W45713   3.215  29.021  13.285
73454W        W45714  15.868   6.264   4.834
73455W        W45715  32.961   8.414  11.928
73456W        W45716  37.117  27.852   4.644
73457W        W45717  34.319   4.336   1.383
73458W        W45718  34.141   8.395   1.853
73459W        W45719  22.963  41.809  10.471
73460W        W45720   8.678  36.801  13.366
73461W        W45721   0.332   2.963  12.129
73462W        W45722   5.973  26.474  12.794
73463W        W45723  21.582  25.150   0.697
73464W        W45724  21.810  34.441   0.498
73465W        W45725  44.228   5.784  14.047
73466W        W45726  44.337   5.162   0.698
73467W        W45727  36.864  40.415  14.774
73468W        W45728   6.933  38.512   0.413
73469W        W45729  43.086  22.989  12.408
73470W        W45730   7.454  25.490  12.526
73471W        W45731  29.212   1.453   1.481
73472W        W45732  12.775  31.399   4.587
73473W        W45733  23.277  18.534  11.492
73474W        W45734  42.358  27.024   2.380
73475W        W45735  19.657   7.283  13.922
73476W        W45736   2.804  26.902  14.387
73477W        W45737  42.810   7.548   0.900
73478W        W45738  24.138  44.923   2.911
73479W        W45739  19.773   4.627  11.118
73480W        W45740  20.720  26.962  10.403
73481W        W45741  23.801  37.998  13.591
73482W        W45742  31.407  23.605   3.735
73483W        W45743   1.031  25.428  12.091
73484W        W45744  33.462   2.452   4.519
73485W        W45745  27.902  44.315   4.611
73486W        W45746  26.919   2.968  14.964
73487W        W45747  16.714  16.251   1.705
73488W        W45748  25.679  14.884   0.920
73489W        W45749  21.641   4.322   0.730
73490W        W45750   5.487  26.145   0.766
73491W        W45751  32.836  31.007   3.524
73492W        W45752   6.228   8.234  12.573
73493W        W45753  41.287  23.640  11.457
73494W        W45754  17.252   0.655  11.127
73495W        W45755  18.812   2.318  13.076
73496W        W45756   8.367  28.582   3.099
73497W        W45757  25.337   2.738   4.827
73498W        W45758   7.898   7.919   2.346
73499W        W45759  31.219  22.730  11.899
73500W        W45760  43.411  37.589  14.188
73501W        W45761   4.019   5.852  12.176
73502W        W45762  37.825  17.739  14.492
73503W        W45763  23.203  24.223   4.199
73504W        W45764  37.536   5.716  12.447
73505W        W45765  24.182  12.082  13.505
73506W        W45766  12.336  11.194  11.651
73507W        W45767  16.142  10.353   2.360
73508W        W45768  17.129  32.690  13.107
73509W        W45769   2.921   3.835   2.143
73510W        W45770  24.633  30.568  11.762
73511W        W45771  27.220  17.555   0.257
73512W        W45772  38.721  18.866  11.037
73513W        W45773  42.287  15.398  12.565
73514W        W45774  20.641   5.535   2.894
73515W        W45775  16.783  30.920   3.696
73516W        W45776  32.988  14.926   0.022
73517W        W45777  41.756   8.407   2.894
73518W        W45778  31.055  44.203  12.061
73519W        W45779  11.443  14.564   4.681
73520W        W45780  38.711   7.696   3.736
73521W        W45781  17.699   3.821   2.648
73522W        W45782  33.109   0.236  11.597
73523W        W45783  20.670  39.114  13.343
73524W        W45784  20.649  36.988   1.800
73525W        W45785   8.693   7.425   1.724
73526W        W45786  26.257  35.953  12.877
73527W        W45787  20.292   4.662   1.577
73528W        W45788  23.820  12.781  14.453
73529W        W45789  36.548  22.768   0.964
73530W        W45790   8.920  36.430  12.597
73531W        W45791  10.604  19.231  11.466
73532W        W45792   5.652   8.326  13.966
73533W        W45793   4.446  14.293  12.071
73534W        W45794  26.929  21.530   3.034
73535W        W45795  23.821   3.805   2.873
73536W        W45796  18.191  23.605  12.499
73537W        W45797  13.091   7.541  10.844
73538W        W45798  14.166  31.796   2.701
73539W        W45799  14.468   3.274  14.310
73540W        W45800  21.229  42.843  11.128
73541W        W45801  24.425  22.528  13.328
73542W        W45802  39.913   4.974  14.859
73543W        W45803  41.065  34.414  14.405
73544W        W45804  11.743  18.578   0.505
73545W        W45805   0.892  22.008  11.153
73546W        W45806   6.779  33.711  13.909
73547W        W45807   5.247  17.622  11.979
73548W        W45808  34.499  30.615   0.431
73549W        W45809  20.075  29.609  14.035
73550W        W45810  34.461  42.259  12.935
73551W        W45811   8.849  13.063  11.551
73552W        W45812  25.816   6.950   3.295
73553W        W45813  30.065  34.556  12.858
73554W        W45814  23.765  11.172  13.982
73555W        W45815  40.089  42.518   1.282
73556W        W45816  37.464  11.726  11.561
73557W        W45817  29.321  43.584   4.418
73558W        W45818  21.405  37.805  12.443
73559W        W45819  16.390  29.049   2.391
73560W        W45820  20.190  28.747  12.387
73561W        W45821  10.107  31.375  13.892
73562W        W45822  23.646  29.902   1.930
73563W        W45823  39.893  13.470   0.960
73564W        W45824  34.549  41.908  11.561
73565W        W45825   2.649  17.105   4.215
73566W        W45826  19.806  18.896   0.741
73567W        W45827  26.268  20.199  12.062
73568W        W45828   9.257  35.470  12.871
73569W        W45829  23.036  24.616   1.976
73570W        W45830  31.541  21.504   0.287
73571W        W45831   3.813  21.286  10.385
73572W        W45832  21.567  38.973   1.364
73573W        W45833  29.541  14.662  12.611
73574W        W45834  39.873  35.537  13.362
73575W        W45835  41.421  15.597   0.891
73576W        W45836  22.268  28.893  11.471
73577W        W45837  43.785  26.702   3.850
73578W        W45838  31.015   6.748   4.043
73579W        W45839  11.774  21.301   1.442
73580W        W45840  14.098   7.379   1.760
73581W        W45841  39.377  16.411  14.347
73582W        W45842   3.595  29.556   4.181
73583W        W45843  31.454  38.768   4.138
73584W        W45844   1.920  28.018   2.058
73585W        W45845  33.314  41.197  12.192
73586W        W45846  24.461  40.355   4.131
73587W        W45847  29.320  12.259  10.698
73588W        W45848  42.391   4.550  13.996
73589W        W45849   1.259  26.203  14.074
73590W        W45850  20.720   7.229   5.095
73591W        W45851  16.389   7.135  11.466
73592W        W45852   8.238  16.645   3.589
73593W        W45853  40.610   2.248  14.117
73594W        W45854  28.701  31.035  13.865
73595W        W45855  26.670  31.816  13.360
73596W        W45856  30.626  21.627   3.757
73597W        W45857  10.087  10.611   4.496
73598W        W45858  14.290   6.364   3.229
73599W        W45859   9.590  27.109   3.398
73600W        W45860  27.939  23.096   2.662
73601W        W45861  15.499   5.234   3.795
73602W        W45862  31.080  20.515   2.920
73603W        W45863  21.314   4.410  11.280
73604W        W45864  22.084  12.418   2.811
73605W        W45865  36.348  24.538  13.958
73606W        W45866  12.104  12.345   2.162
73607W        W45867  32.915  27.441   4.111
73608W        W45868   9.048  19.637   1.579
73609W        W45869   8.416  35.876  14.702
73610W        W45870   2.846  23.316  13.263
73611W        W45871  43.443   6.014   3.693
73612W        W45872  39.325  18.330   3.111
73613W        W45873  41.350  40.346   3.669
73614W        W45874  16.290  37.494  12.984
73615W        W45875  42.850  29.839   3.636
73616W        W45876  16.544   3.781   1.804
73617W        W45877   2.596  20.637  14.029
73618W        W45878  44.378  32.285  13.155
73619W        W45879  34.622  15.570  14.387
73620W        W45880  41.840   1.400   3.327
73621W        W45881  23.912   9.243  11.808
73622W        W45882  36.370   6.173  14.820
73623W        W45883  11.844  15.740  12.938
73624W        W45884   9.256   8.705   4.588
73625W        W45885  39.972  23.648   1.352
73626W        W45886  37.852   2.553   4.121
73627W        W45887  33.856  23.154  12.368
73628W        W45888  36.668  34.709  12.515
73629W        W45889  31.494   1.948   2.173
73630W        W45890  25.018  23.938  14.411
73631W        W45891  34.789  11.651   2.517
73632W        W45892  38.173  27.168   2.347
73633W        W45893   0.822  23.613   2.219
73634W        W45894  43.845  19.237   0.319
73635W        W45895  27.455  44.331   0.241
73636W        W45896  15.843   5.985   3.223
73637W        W45897  15.129  11.421  12.493
73638W        W45898  24.996  14.923  11.499
73639W        W45899  33.440  32.088   1.657
73640W        W45900   1.902  26.466  10.975
73641W        W45901  20.496   2.027   3.423
73642W        W45902  36.985   4.852   1.226
73643W        W45903  22.520  37.544  10.219
73644W        W45904  20.227  38.169  11.924
73645W        W45905  17.372   9.790   1.735
73646W        W45906   7.633  25.837  14.263
73647W        W45907   5.643  11.786  11.546
73648W        W45908  12.971  40.762  14.464
73649W        W45909  10.754   7.372  13.131
73650W        W45910  21.647  20.185  12.758
73651W        W45911  12.310  15.645   3.256
73652W        W45912  19.805   5.856  11.147
73653W        W45913  21.992  26.239   1.811
73654W        W45914  36.966  28.992  10.770
73655W        W45915   4.803   3.001   0.947
73656W        W45916  37.524  39.655  13.600
73657W        W45917  11.387  10.179   0.924
73658W        W45918  32.035  43.610   9.850
73659W        W45919  14.652   3.186  10.764
73660W        W45920   5.821  36.195  10.473
73661W        W45921  21.661  39.053  12.103
73662W        W45922   1.537  27.919  11.628
73663W        W45923   1.958  31.568   4.142
73664W        W45924  12.501  29.098  10.219
73665W        W45925  40.716  38.976   1.387
73666W        W45926  31.372  39.869  11.222
73667W        W45927   0.246   9.420   1.015
73668W        W45928  41.751  36.240   2.509
73669W        W45929  16.193   5.703   4.401
73670W        W45930  39.448  16.781  11.072
73671W        W45931  18.266  39.322   2.133
73672W        W45932   3.865  37.505  14.742
73673W        W45933   3.279  28.038  14.818
73674W        W45934  16.301  20.214  11.113
73675W        W45935  15.525  40.509   1.491
73676W        W45936  35.417  18.326   5.489
73677W        W45937  42.545  41.263  10.727
73678W        W45938  23.225   6.127  13.348
73679W        W45939  12.187  36.312  14.295
73680W        W45940  30.823  31.665  12.504
73681W        W45941   9.336  24.555  12.070
73682W        W45942  26.185  40.573   1.707
73683W        W45943  34.231   9.260  14.457
73684W        W45944  41.201   7.272  13.784
73685W        W45945  11.217  12.046   0.358
73686W        W45946  30.557  19.135  13.123
73687W        W45947  17.506   1.329   0.289
73688W        W45948  32.882  22.616  13.393
73689W        W45949  19.600  37.826   4.815
73690W        W45950  17.639  29.183   4.241
73691W        W45951   3.336   7.777   2.802
73692W        W45952   3.879  28.494   1.799
73693W        W45953  42.424  32.477  14.271
73694W        W45954  36.571  25.624   3.653
73695W        W45955  34.141   7.768  10.639
73696W        W45956  12.641  22.606  13.879
73697W        W45957  37.184   2.468   0.939
73698W        W45958  28.265  38.808   0.496
73699W        W45959  34.372  19.117   3.697
73700W        W45960  30.582  31.607  10.174
73701W        W45961  39.424  18.105   4.485
73702W        W45962  27.894  33.894   4.278
73703W        W45963  16.984  22.042  12.549
73704W        W45964   4.889  12.100  12.911
73705W        W45965  16.167  20.994   0.252
73706W        W45966  20.801  15.292   3.724
73707W        W45967   6.212  22.087  10.684
73708W        W45968  42.071  44.501  13.706
73709W        W45969  29.010  42.940   1.961
73710W        W45970   0.525   4.832  13.055
73711W        W45971  17.823  15.487   1.337
73712W        W45972  11.148  30.237   3.500
73713W        W45973  43.212  30.386   2.380
73714W        W45974  42.162  33.021  14.263
73715W        W45975  20.734  17.786   2.458
73716W        W45976   2.147  15.266  14.254
73717W        W45977   2.760   6.297   2.299
73718W        W45978   6.789  10.303   3.760
73719W        W45979   7.305   8.839  13.850
73720W        W45980  26.721   7.197   1.702
73721W        W45981   5.337  42.523  11.111
73722W        W45982  13.247  35.413  12.755
73723W        W45983  31.257  38.033  14.963
73724W        W45984   1.254  32.967   2.605
73725W        W45985  33.999   5.178   2.197
73726W        W45986  25.458  24.692  14.762
73727W        W45987  30.580  26.060   3.380
73728W        W45988  11.459  30.631   3.467
73729W        W45989  30.056  44.617   1.302
73730W        W45990  31.825  10.890   2.012
73731W        W45991  36.543  18.876   1.390
73732W        W45992  33.119  17.232   5.145
73733W        W45993  28.620   3.179   2.341
73734W        W45994  19.736   0.345   4.520
73735W        W45995  13.882  21.109  14.337
73736W        W45996  42.382  33.721   0.816
73737W        W45997  11.590  34.473   0.855
73738W        W45998   3.708   8.134   4.539
73739W        W45999  44.920  11.709   3.847
73740W        W46000  22.875  42.666   4.895
73741W        W46001  38.885   0.125   3.307
73742W        W46002  28.662   6.181  12.077
73743W        W46003  21.056   1.220  12.746
73744W        W46004  34.999  10.592  10.653
73745W        W46005  11.299  34.562   4.609
73746W        W46006  23.754  37.105   4.830
73747W        W46007  18.863  17.599  14.362
73748W        W46008   8.742  26.077   0.528
73749W        W46009  24.729  17.451  13.157
73750W        W46010  43.795   0.294  14.546
73751W        W46011  23.018  27.956   5.378
73752W        W46012  18.734   5.026   1.811
73753W        W46013  36.964  33.434   0.034
73754W        W46014  31.619  30.177   3.366
73755W        W46015   4.279  21.089  10.534
73756W        W46016  24.330  36.521  14.434
73757W        W46017   8.517  29.926  14.315
73758W        W46018   0.755   6.235   3.840
73759W        W46019  34.602  36.061   0.103
73760W        W46020   2.624  29.598  13.821
73761W        W46021  40.132  38.665   0.293
73762W        W46022  24.692   9.854  13.905
73763W        W46023  39.326  20.484  11.926
73764W        W46024  34.968  42.334   4.689
73765W        W46025  17.086  43.338  14.443
73766W        W46026  29.003  43.773  14.873
73767W        W46027  36.943  38.901   4.305
73768W        W46028  30.063   9.372   0.307
73769W        W46029  10.384  32.559  14.641
73770W        W46030   9.657  39.459  10.846
73771W        W46031   7.063  33.224  10.732
73772W        W46032  42.395  44.601  14.940
73773W        W46033  27.990  32.196   1.937
73774W        W46034  22.185  36.461  12.596
73775W        W46035   2.982   1.837  14.446
73776W        W46036   0.720  17.175  12.695
73777W        W46037  16.302  40.484   2.061
73778W        W46038   2.283  27.385   3.563
73779W        W46039  21.247  38.964  14.843
73780W        W46040  37.236  44.954   0.775
73781W        W46041  18.160  12.320  11.990
73782W        W46042  42.289   6.925   3.756
73783W        W46043  38.006  39.058  13.410
73784W        W46044  30.589  22.766   2.886
73785W        W46045  36.553   3.178  12.545
73786W        W46046  21.024  38.493  14.792
73787W        W46047  42.903   0.399   4.520
73788W        W46048  36.814  37.082   2.368
73789W        W46049  31.424   9.149  11.754
73790W        W46050  18.754  17.544  13.498
73791W        W46051  15.708  43.056   1.830
73792W        W46052  20.998   8.464  13.160
73793W        W46053  16.342   1.031  13.506
73794W        W46054  24.224  34.010  11.751
73795W        W46055  21.045  28.548   1.559
73796W        W46056  26.030  41.214   5.071
73797W        W46057   5.301   0.292  11.461
73798W        W46058  22.845  14.280   2.088
73799W        W46059  38.010   9.343   9.792
73800W        W46060   2.701  11.699  13.029
73801W        W46061  43.878   6.790   1.334
73802W        W46062   1.288  43.912   2.788
73803W        W46063   8.763  26.177  11.981
73804W        W46064  10.896   1.402   1.374
73805W        W46065  37.895  21.549   1.266
73806W        W46066  32.486  37.962   3.196
73807W        W46067  29.387  29.909   9.709
73808W        W46068   9.324  25.302  14.656
73809W        W46069   4.369   5.239   4.484
73810W        W46070  33.482  21.281  12.889
73811W        W46071   1.464  28.028   1.835
73812W        W46072  35.061  41.998   2.373
73813W        W46073  40.054  10.233  12.492
73814W        W46074   1.121  31.708   2.213
73815W        W46075  39.943  27.980  12.712
73816W        W46076  30.695  30.900  12.402
73817W        W46077  36.999  41.559  11.524
73818W        W46078  12.579  44.736  10.606
73819W        W46079  23.205  37.642  10.744
73820W        W46080  42.764  20.978  10.060
73821W        W46081  16.657  44.606   3.265
73822W        W46082  35.955  12.340   0.195
73823W        W46083  38.852   8.636   3.635
73824W        W46084  29.435  24.199   2.560
73825W        W46085  29.612  37.412  14.526
73826W        W46086  11.928  37.206   3.618
73827W        W46087  27.713  26.200  12.345
73828W        W46088   6.902  37.396  13.977
73829W        W46089  12.694  26.528   4.593
73830W        W46090   9.404   6.318  14.503
73831W        W46091  33.186   6.763   0.243
73832W        W46092  32.063  39.349  12.031
73833W        W46093  42.804  34.565  11.173
73834W        W46094   6.305  19.743   1.802
73835W        W46095  17.812  37.530   1.648
73836W        W46096   7.917  35.697  14.811
73837W        W46097   6.393  16.671  12.130
73838W        W46098  25.267  41.743   9.918
73839W        W46099  31.347   7.596   5.062
73840W        W46100  22.574  38.409   1.842
73841W        W46101  18.409   7.692  12.019
73842W        W46102  11.088   4.300   4.559
73843W        W46103  17.564  15.174  11.576
73844W        W46104   9.657   4.659  13.904
73845W        W46105  34.099  11.212  12.022
73846W        W46106  28.505   3.781  14.262
73847W        W46107  28.935  24.013   3.210
73848W        W46108  25.995  16.282  13.094
73849W        W46109  21.835   7.726  14.249
73850W        W46110  29.473  19.831  13.491
73851W        W46111  26.522  19.519   2.190
73852W        W46112  39.465  35.843  11.585
73853W        W46113  28.035  13.514  11.253
73854W        W46114  28.261  16.193  14.443
73855W        W46115  13.434  14.801  12.057
73856W        W46116  34.022  21.245   0.365
73857W        W46117  11.177   2.868   1.039
73858W        W46118   5.936  22.665  12.370
73859W        W46119  23.002  43.815  14.860
73860W        W46120   8.696   5.271  12.610
73861W        W46121  33.924  36.868  14.331
73862W        W46122  34.523  41.107  13.981
73863W        W46123  28.053  38.323   3.431
73864W        W46124   5.164  26.109   4.310
73865W        W46125  24.295  31.093  14.019
73866W        W46126  33.920  22.120  12.017
73867W        W46127  32.913  27.548  11.977
73868W        W46128   2.485  24.966  14.473
73869W        W46129   8.626  30.823  13.318
73870W        W46130  31.054   1.080  12.322
73871W        W46131  29.178  31.081   2.405
73872W        W46132  30.106  23.795  12.868
73873W        W46133  21.505  32.610   2.973
73874W        W46134  31.141  39.468   0.710
73875W        W46135   2.818  39.835   1.649
73876W        W46136  19.953  20.198  11.652
73877W        W46137  12.687   6.145   1.273
73878W        W46138  23.606  30.713  10.556
73879W        W46139   2.728  19.798  13.391
73880W        W46140   4.324  41.584  11.616
73881W        W46141  28.748  33.125  14.549
73882W        W46142  16.168  41.960   0.947
73883W        W46143  25.089  42.430  13.014
73884W        W46144  22.624  11.711   2.655
73885W        W46145  15.313  19.660   1.288
73886W        W46146  34.615  19.897  13.955
73887W        W46147  22.682   2.266  12.364
73888W        W46148   2.997   0.126  13.340
73889W        W46149  23.833  37.931   3.760
73890W        W46150  16.227  41.466  13.412
73891W        W46151   4.473   1.793   2.212
73892W        W46152  39.168  26.428  12.598
73893W        W46153  32.678  40.826  11.684
73894W        W46154  42.721  36.588   4.009
73895W        W46155   6.161  43.781   0.958
73896W        W46156  11.633  18.496  14.373
73897W        W46157   0.562  23.797  14.877
73898W        W46158  40.748  18.518   0.789
73899W        W46159  10.613  16.090  12.885
73900W        W46160  13.006   1.539   2.886
73901W        W46161  41.312  28.345   4.150
73902W        W46162  24.557   7.930  11.889
73903W        W46163  34.525   2.938   4.554
73904W        W46164   2.035  19.129   4.197
73905W        W46165   6.663  40.666  14.881
73906W        W46166   3.565   6.752   4.890
73907W        W46167  44.430  21.068  10.528
73908W        W46168   0.484  16.599   4.086
73909W        W46169  32.827  42.124   4.627
73910W        W46170  20.677  42.794  11.083
73911W        W46171  15.672  15.170  10.531
73912W        W46172  42.842   6.229   0.432
73913W        W46173  36.358  21.706   0.018
73914W        W46174  28.532  18.026   2.718
73915W        W46175  17.346   3.402   1.608
73916W        W46176  13.330  29.549  14.334
73917W        W46177  42.299  16.897   1.390
73918W        W46178   9.778  10.337   4.159
73919W        W46179   6.968  40.027  13.504
73920W        W46180   1.013  43.799   1.272
73921W        W46181   3.236   7.640  11.241
73922W        W46182  18.017  19.925   2.864
73923W        W46183  20.149   7.858  11.583
73924W        W46184  43.655  11.609  14.789
73925W        W46185  21.252  25.949  14.735
73926W        W46186  33.300  31.149   1.268
73927W        W46187  43.477  42.130  13.613
73928W        W46188  38.098  30.766  14.116
73929W        W46189   5.425   0.108   4.364
73930W        W46190   6.830   7.213   2.653
73931W        W46191  39.825   6.690   4.098
73932W        W46192  23.073  33.281  13.006
73933W        W46193  23.340   6.004  12.483
73934W        W46194  17.105  41.407  10.081
73935W        W46195  16.788  17.128  14.703
73936W        W46196  23.848  18.125  14.409
73937W        W46197   8.640  15.657  13.508
73938W        W46198  17.560   7.004   0.737
73939W        W46199  39.864  10.446  13.917
73940W        W46200   0.739  43.895  12.721
73941W        W46201  30.313  14.636  11.966
73942W        W46202  40.982  41.222   1.954
73943W        W46203  26.043   0.346  13.490
73944W        W46204  32.065  30.164   4.220
73945W        W46205  40.072  22.647  10.946
73946W        W46206  14.878  14.636   1.256
73947W        W46207  35.584  42.683   3.236
73948W        W46208  35.251   9.221  13.521
73949W        W46209  30.709  33.432  10.696
73950W        W46210  12.875  10.898   0.005
73951W        W46211  18.484  24.991   3.241
73952W        W46212   5.925   5.154   0.625
73953W        W46213  28.551   7.704  13.938
73954W        W46214   5.234   0.225  14.119
73955W        W46215  27.676  12.207  12.636
73956W        W46216  36.562   1.782   3.139
73957W        W46217  19.995  35.867   1.259
73958W        W46218  10.980  42.740   4.853
73959W        W46219  22.103  37.830  10.385
73960W        W46220  28.319  14.711  10.376
73961W        W46221   2.377  20.597  13.578
73962W        W46222   1.415   9.436  11.084
73963W        W46223  30.838   8.878   3.322
73964W        W46224  26.898  39.826   2.756
73965W        W46225   2.966  16.397   3.301
73966W        W46226  37.605  40.944  14.735
73967W        W46227  43.635  26.844  10.399
73968W        W46228  44.068  33.407  11.105
73969W        W46229  27.396  29.911   1.510
73970W        W46230  43.857  27.201  10.731
73971W        W46231  17.414   5.486   2.088
73972W        W46232  39.870  17.879  14.055
73973W        W46233  16.073  14.779   4.987
73974W        W46234  14.544   2.169   1.157
73975W        W46235  30.511  13.393   4.579
73976W        W46236   5.846  22.921  11.936
73977W        W46237   6.954  12.989  12.903
73978W        W46238  23.470  31.350  12.091
73979W        W46239  22.334  28.680   1.022
73980W        W46240   0.223  23.609  13.279
73981W        W46241  23.203   0.686   2.105
73982W        W46242  27.907  22.524   0.534
73983W        W46243  20.639  27.526  12.891
73984W        W46244  32.518  34.869   1.280
73985W        W46245  24.154  17.723   2.207
73986W        W46246  32.127  33.635   1.270
73987W        W46247  20.678  20.217   0.384
73988W        W46248  12.129  20.140   0.961
73989W        W46249  25.515   0.779   2.255
73990W        W46250   7.769  11.257  11.963
73991W        W46251   1.351   0.810  12.842
73992W        W46252  30.537  37.597  11.497
73993W        W46253  20.741  18.287  10.063
73994W        W46254  41.056  26.771  11.062
73995W        W46255  37.469  21.057   0.751
73996W        W46256  32.180  32.028  12.602
73997W        W46257  31.973  43.864   1.420
73998W        W46258  26.041  18.990  12.409
73999W        W46259  16.600  33.532  13.508
74000W        W46260  40.776   4.284   3.819
74001W        W46261  44.867  21.321   1.984
74002W        W46262   8.406  32.927   4.125
74003W        W46263  24.456  22.218  14.664
74004W        W46264  30.476   6.019   3.822
74005W        W46265   3.950  16.505  13.852
74006W        W46266  12.485  22.698   0.324
74007W        W46267  22.227   2.746   0.369
74008W        W46268  13.674  20.797  13.933
74009W        W46269   0.323  42.501  11.969
74010W        W46270   4.393   2.329  14.948
74011W        W46271   3.188  38.931   1.317
74012W        W46272  30.019  26.363   1.928
74013W        W46273  34.859   7.756   1.932
74014W        W46274  13.383  28.715   3.163
74015W        W46275  36.466  42.076  14.234
74016W        W46276  13.644   1.944   1.748
74017W        W46277  42.910   5.111   5.057
74018W        W46278  21.179  21.934  12.211
74019W        W46279  23.601   7.161   0.145
74020W        W46280   6.788  21.750   1.965
74021W        W46281  31.903  25.251  12.508
74022W        W46282   8.420  15.222   1.367
74023W        W46283   5.686  35.576   1.878
74024W        W46284   8.364  12.318   4.154
74025W        W46285   2.953  14.798  14.363
74026W        W46286  30.398   2.271   2.944
74027W        W46287  42.742  43.806   1.623
74028W        W46288   5.017   0.741  11.440
74029W        W46289  30.655   6.799   1.907
74030W        W46290  13.270  36.187   5.312
74031W        W46291  27.084  44.220  14.893
74032W        W46292  14.593  26.731  13.924
74033W        W46293  41.236   4.425   1.760
74034W        W46294  38.172  32.593   0.591
74035W        W46295  33.739  42.969   3.291
74036W        W46296   6.142   1.743  11.082
74037W        W46297   4.014  27.063  14.348
74038W        W46298  26.224  26.969  11.956
74039W        W46299  23.121  15.100  10.801
74040W        W46300  29.163  44.052   2.721
74041W        W46301  35.035  18.716   5.552
74042W        W46302  19.546  33.649   1.951
74043W        W46303  11.156  38.299  10.712
74044W        W46304  38.990  26.939  11.185
74045W        W46305  34.553  26.089   2.923
74046W        W46306  14.142  42.132  13.502
74047W        W46307  39.402  36.922   3.202
74048W        W46308   1.851   7.397   0.432
74049W        W46309   4.135   1.122   2.725
74050W        W46310  42.058  28.998  13.466
74051W        W46311  22.085   2.219   0.018
74052W        W46312  27.882   5.790   0.255
74053W        W46313  32.085  40.105  12.901
74054W        W46314  23.518  44.349  11.440
74055W        W46315  42.775  36.026   2.790
74056W        W46316  10.605  18.020  11.979
74057W        W46317  16.661  24.525  11.903
74058W        W46318  23.370  20.423   4.094
74059W        W46319  34.886  27.596   4.444
74060W        W46320   3.768  22.602  13.645
74061W        W46321   2.765  30.074   4.474
74062W        W46322  28.548  19.676   3.053
74063W        W46323  32.366  44.232   1.368
74064W        W46324  43.052  30.985   4.977
74065W        W46325  32.135   9.329  14.519
74066W        W46326   7.619  28.566   2.321
74067W        W46327   6.316  29.827   4.661
74068W        W46328   8.353  25.042   2.688
74069W        W46329   4.722  23.612   4.462
74070W        W46330   5.339  35.376   2.379
74071W        W46331  21.118  18.740  14.426
74072W        W46332  42.284  21.717  13.918
74073W        W46333  29.997  25.094  14.079
74074W        W46334  22.463   1.798  12.211
74075W        W46335   5.455  12.378   0.841
74076W        W46336  30.059  43.828   0.430
74077W        W46337  22.040  29.484  13.963
74078W        W46338  34.445   5.447  11.920
74079W        W46339  40.976   7.837  12.871
74080W        W46340  10.407  40.127  11.632
74081W        W46341   4.960  36.371   4.501
74082W        W46342  41.018  26.741  13.013
74083W        W46343  12.872  19.159   3.648
74084W        W46344   2.971   9.402  13.473
74085W        W46345  31.470  44.223   3.633
74086W        W46346  10.483  18.260   3.276
74087W        W46347  15.671  25.206  11.195
74088W        W46348  23.651  26.168   1.161
74089W        W46349  38.278  38.362  13.877
74090W        W46350  21.759  33.708  10.298
74091W        W46351  30.531  18.958   1.206
74092W        W46352  29.012  44.962  13.273
74093W        W46353  13.278  19.576   4.950
74094W        W46354  26.923   4.261  11.128
74095W        W46355  16.649  39.314   2.858
74096W        W46356  24.008  29.547   3.413
74097W        W46357  40.820   4.922  10.669
74098W        W46358  11.346  17.800   4.955
74099W        W46359  26.748  36.734   0.460
74100W        W46360  34.896  16.732  14.639
74101W        W46361  38.387   7.188  14.529
74102W        W46362  40.507   7.882   1.335
74103W        W46363   0.276  22.198  14.833
74104W        W46364  11.275   5.843   0.924
74105W        W46365  15.273  36.990   3.260
74106W        W46366  18.700  27.258   2.862
74107W        W46367  10.679  19.643   3.799
74108W        W46368   4.155  24.584  11.931
74109W        W46369  27.052   7.382  10.390
74110W        W46370  39.022  30.038   1.226
74111W        W46371   2.921  18.822  13.133
74112W        W46372  27.578  15.426  14.296
74113W        W46373  17.069  27.853   2.347
74114W        W46374   2.982  16.091   1.700
74115W        W46375  36.741  12.715   1.193
74116W        W46376  25.580  41.850   4.156
74117W        W46377  28.708  44.946  12.846
74118W        W46378  16.229  21.345   1.277
74119W        W46379   5.251  20.671   3.030
74120W        W46380   4.668  20.307   3.392
74121W        W46381  40.181  30.432   5.247
74122W        W46382  39.692  19.139  13.428
74123W        W46383   6.579  44.446   0.991
74124W        W46384  32.265   0.524  10.637
74125W        W46385  21.958  32.037  13.768
74126W        W46386   5.359  42.844   2.351
74127W        W46387  26.514  17.528  13.296
74128W        W46388  19.497  12.246  14.349
74129W        W46389  36.234  16.889   9.794
74130W        W46390  23.981  12.000   3.655
74131W        W46391  30.074   7.002   1.303
74132W        W46392  21.674  17.172  10.767
74133W        W46393   1.997  34.752  13.783
74134W        W46394  32.276   5.223  14.940
74135W        W46395  28.994  34.079  11.374
74136W        W46396  33.067  28.423   2.947
74137W        W46397   6.316  27.879  10.502
74138W        W46398  34.103  12.215  12.911
74139W        W46399  16.826   4.320  12.459
74140W        W46400  42.176  31.530  14.008
74141W        W46401  15.140  30.357  10.570
74142W        W46402  18.203  22.154  12.687
74143W        W46403  13.928   0.797  14.953
74144W        W46404   0.867  11.476  14.719
74145W        W46405  18.503  18.745  13.306
74146W        W46406  11.195  20.658  10.975
74147W        W46407  31.310  26.154  12.550
74148W        W46408   1.635  18.283   0.873
74149W        W46409  10.157  16.164   2.414
74150W        W46410   1.381  27.615  13.391
74151W        W46411  21.024  28.120  13.629
74152W        W46412  22.659  10.790   1.601
74153W        W46413  14.713  30.979   0.382
74154W        W46414  41.530  37.957  12.283
74155W        W46415  42.340  27.631   4.664
74156W        W46416  42.105  39.458  14.870
74157W        W46417  34.691   9.220   0.350
74158W        W46418  15.251   5.785   2.599
74159W        W46419   1.041  40.857  12.697
74160W        W46420  11.757  27.613  14.037
74161W        W46421  21.776  16.214  11.807
74162W        W46422  39.070  22.288   4.522
74163W        W46423  40.326  15.830   5.000
74164W        W46424   9.713  17.265   1.234
74165W        W46425  18.695   7.912   2.904
74166W        W46426  32.894   5.706   0.427
74167W        W46427  13.923   2.893  14.930
74168W        W46428  41.784   9.884   3.662
74169W        W46429  24.499   0.174   3.195
74170W        W46430  27.147   3.915   2.593
74171W        W46431  38.527  28.110  13.910
74172W        W46432  36.194  42.241   1.300
74173W        W46433  13.150   8.413   4.946
74174W        W46434  33.766   6.579  13.175
74175W        W46435  38.092   5.663   2.976
74176W        W46436   7.650  36.918  12.784
74177W        W46437  32.935   4.323   0.785
74178W        W46438  20.967   9.736   3.667
74179W        W46439  21.127  40.693  14.478
74180W        W46440  20.292  20.041   2.671
74181W        W46441  15.413  23.103   3.940
74182W        W46442   1.360  13.600   2.274
74183W        W46443  37.052  11.144   2.738
74184W        W46444  38.465   7.685  12.260
74185W        W46445  42.466   9.149   2.754
74186W        W46446  27.595  34.893   4.743
74187W        W46447  31.538  35.141   1.176
74188W        W46448  30.356  16.233   1.255
74189W        W46449   8.090  35.997   2.642
74190W        W46450  11.044  33.798  14.830
74191W        W46451  33.032  23.434  12.385
74192W        W46452   2.726   7.700  12.496
74193W        W46453  35.589  15.640   3.899
74194W        W46454  30.502   6.117   2.566
74195W        W46455  12.551   0.298  14.782
74196W        W46456  36.809  19.924  11.044
74197W        W46457   9.338  13.194   0.614
74198W        W46458  44.366   3.372   0.742
74199W        W46459  36.846   8.229  12.080
74200W        W46460  36.856  23.913   1.408
74201W        W46461  14.454   9.854  11.936
74202W        W46462  10.246  22.231  11.260
74203W        W46463   8.823  13.744   1.224
74204W        W46464  40.003  38.867   4.578
74205W        W46465  40.498  15.535   1.789
74206W        W46466  25.758   1.545   2.563
74207W        W46467  11.796  33.018  11.535
74208W        W46468   5.836  11.592  14.896
74209W        W46469  27.886  28.726   1.192
74210W        W46470  20.552  25.810   4.082
74211W        W46471  21.824  10.584   4.170
74212W        W46472  18.724  26.920  11.488
74213W        W46473  13.986  29.978   0.728
74214W        W46474  28.400   4.926   1.220
74215W        W46475  41.766  31.986   3.790
74216W        W46476  24.538   5.338   1.837
74217W        W46477  33.964  44.078  14.869
74218W        W46478  24.114   7.962  14.358
74219W        W46479   4.013  36.021   2.549
74220W        W46480   3.492  24.123   3.433
74221W        W46481  42.488  33.115  14.658
74222W        W46482  26.478  21.169  13.364
74223W        W46483  14.200  21.876   3.272
74224W        W46484  34.598  35.363   1.914
74225W        W46485  37.801   7.684  11.104
74226W        W46486   6.393   4.824   4.200
74227W        W46487  29.547  26.569  11.194
74228W        W46488  39.819  39.856  13.949
74229W        W46489  35.702   9.960  14.935
74230W        W46490  34.109  31.635  10.628
74231W        W46491   7.124  37.283   4.977
74232W        W46492  25.254  25.598   0.354
74233W        W46493  15.738  13.364  14.529
74234W        W46494  39.063  21.595   4.164
74235W        W46495  42.072  14.980   1.432
74236W        W46496  44.250  20.753  13.536
74237W        W46497   6.297  28.097  12.893
74238W        W46498  25.347  43.112   4.642
74239W        W46499  31.369  21.014   1.349
74240W        W46500  30.498  44.865  12.723
74241W        W46501  39.872  28.510   3.622
74242W        W46502   6.683   7.748  13.364
74243W        W46503  40.593   0.869  14.322
74244W        W46504  12.811  39.015   0.779
74245W        W46505  29.696  10.240   4.617
74246W        W46506  39.507  26.954   2.637
74247W        W46507  26.218  22.164   0.756
74248W        W46508  25.573  15.787   1.054
74249W        W46509  16.923  36.557   0.700
74250W        W46510   4.950  15.229   2.227
74251W        W46511  37.298  43.982   2.027
74252W        W46512  12.668  11.443   4.222
74253W        W46513  15.579   5.822   4.102
74254W        W46514  31.033   4.897  11.867
74255W        W46515  44.953  26.095  11.567
74256W        W46516  17.268  20.341   1.878
74257W        W46517  10.974   9.359   2.747
74258W        W46518  32.680   7.905   1.856
74259W        W46519  25.642   7.343   3.675
74260W        W46520  11.591  30.211  11.558
74261W        W46521  31.429   2.198   4.968
74262W        W46522  18.325  40.011  11.952
74263W        W46523  25.993  13.210  12.384
74264W        W46524   1.016   9.151  11.959
74265W        W46525  22.271  13.385   2.736
74266W        W46526  41.677  44.745   2.819
74267W        W46527  42.997  19.752  13.401
74268W        W46528  24.660  22.041  14.209
74269W        W46529   3.209  26.564  14.433
74270W        W46530  21.769  17.760  12.953
74271W        W46531   8.352  13.230   2.804
74272W        W46532  40.869  40.100  12.112
74273W        W46533  23.472  26.369  11.213
74274W        W46534  13.760  30.982   1.759
74275W        W46535  12.328  25.730  10.701
74276W        W46536  35.796  18.701  10.562
74277W        W46537  35.251  11.761  12.105
74278W        W46538  28.912  43.447   1.793
74279W        W46539  28.472  40.793  14.986
74280W        W46540  33.907  39.367  14.475
74281W        W46541  24.546  16.199   3.984
74282W        W46542  13.234  30.599   5.797
74283W        W46543  32.443  38.532   4.340
74284W        W46544  42.086  20.541   0.154
74285W        W46545  38.907  30.016  10.265
74286W        W46546  13.251  35.594   2.946
74287W        W46547  32.702  44.796  12.492
74288W        W46548  18.441  42.996   4.720
74289W        W46549  24.805   2.815   4.592
74290W        W46550  23.710  36.397   0.939
74291W        W46551  16.065  20.130  11.582
74292W        W46552   7.397  32.570  14.934
74293W        W46553  43.372  22.064   0.768
74294W        W46554   6.968  41.932  13.423
74295W        W46555  36.492  30.431   0.409
74296W        W46556  17.681  42.444  11.574
74297W        W46557  12.723  40.615  11.570
74298W        W46558  36.851   0.760   1.110
74299W        W46559  34.385  27.845   3.881
74300W        W46560   2.215  44.840  10.733
74301W        W46561  43.951  29.264  13.414
74302W        W46562  12.180   3.521  14.943
74303W        W46563  42.904  14.349   1.288
74304W        W46564  25.149  14.859   2.749
74305W        W46565  12.495  33.979  11.826
74306W        W46566   8.382  42.426  14.948
74307W        W46567  19.597   1.331   1.847
74308W        W46568  25.756  39.898   2.294
74309W        W46569  21.459   0.913  14.326
74310W        W46570  28.677  18.194   4.015
74311W        W46571  33.850  10.237   3.124
74312W        W46572   3.609  22.574  10.321
74313W        W46573   1.836  27.898   4.445
74314W        W46574  31.940   9.799   3.846
74315W        W46575  34.419  22.960   1.291
74316W        W46576  22.035   2.976  13.365
74317W        W46577  39.965   3.837   4.101
74318W        W46578  21.524  44.889  14.584
74319W        W46579  28.690  11.114  11.942
74320W        W46580  33.356  14.923   0.499
74321W        W46581  20.235  40.334   0.883
74322W        W46582  27.599  42.836   3.828
74323W        W46583  17.782  10.057   0.886
74324W        W46584  41.340  29.423   0.797
74325W        W46585  17.817  16.774  12.118
74326W        W46586  11.905   9.295   2.855
74327W        W46587  14.858  40.843  12.000
74328W        W46588  22.872  41.956   2.224
74329W        W46589  16.116   7.541   3.717
74330W        W46590  38.518  43.207  14.327
74331W        W46591  20.132  23.896   1.311
74332W        W46592  28.883  14.058  11.611
74333W        W46593   2.197  32.932   4.067
74334W        W46594  44.912  36.046  11.635
74335W        W46595   0.438  38.818   1.264
74336W        W46596  34.735  19.079   4.082
74337W        W46597  28.994  12.852   4.739
74338W        W46598  40.543  40.423  13.826
74339W        W46599  20.307   3.736  11.676
74340W        W46600  34.927  26.921  13.380
74341W        W46601  39.428  39.913  10.424
74342W        W46602  27.368  37.365  12.765
74343W        W46603  38.796  28.581  11.997
74344W        W46604  38.103   5.077  13.034
74345W        W46605  43.228   2.489  14.560
74346W        W46606  41.077  40.316  14.865
74347W        W46607  18.188  10.232   4.582
74348W        W46608  10.530  39.868  11.155
74349W        W46609  17.920  25.046  11.693
74350W        W46610  10.924  38.532  11.145
74351W        W46611   2.694   4.893  11.594
74352W        W46612  30.020  21.081  11.617
74353W        W46613  21.314  13.334  10.998
74354W        W46614  31.555  32.583  14.667
74355W        W46615  24.921  14.255  14.815
74356W        W46616   6.852  25.202   2.368
74357W        W46617  27.984  19.304   4.787
74358W        W46618  35.292  36.603  14.331
74359W        W46619  22.608  17.306   1.249
74360W        W46620  25.519  30.275  13.223
74361W        W46621  17.471   5.083  14.518
74362W        W46622  10.226  27.921  14.019
74363W        W46623  37.004  15.481  11.995
74364W        W46624  33.020  35.386   4.236
74365W        W46625  28.104   4.347  12.103
74366W        W46626  25.052  39.932  10.632
74367W        W46627  10.871  29.041   4.347
74368W        W46628  14.104  36.608   3.387
74369W        W46629   9.381  12.288  14.274
74370W        W46630  22.677   1.849   1.184
74371W        W46631  24.160  43.504  13.787
74372W        W46632  39.234  22.789   0.340
74373W        W46633  42.577  21.025  12.646
74374W        W46634  11.629  41.414   4.495
74375W        W46635  39.980  26.698  11.960
74376W        W46636  12.068  38.204  12.416
74377W        W46637  17.448  30.121   0.774
74378W        W46638  38.948  36.382   3.755
74379W        W46639  21.529   6.250   2.762
74380W        W46640  19.301  39.950   0.822
74381W        W46641  40.774  27.455  14.797
74382W        W46642  19.136  20.249  13.935
74383W        W46643  29.401  35.899   4.372
74384W        W46644   3.700  33.052  14.221
74385W        W46645  10.978  37.484   3.764
74386W        W46646  10.262  35.325  13.749
74387W        W46647  38.781  37.397  14.106
74388W        W46648  11.302   8.299   0.496
74389W        W46649  21.689  15.161   3.329
74390W        W46650  13.653  31.158  10.578
74391W        W46651  28.176   4.327  13.148
74392W        W46652  42.998  41.873  13.586
74393W        W46653  41.741  44.608   1.311
74394W        W46654  24.279  42.875   2.751
74395W        W46655  12.149  13.369  10.973
74396W        W46656  12.422  36.565  12.988
74397W        W46657  34.885  29.225  10.900
74398W        W46658  14.779  44.528  13.574
74399W        W46659  22.843  39.465   1.713
74400W        W46660  27.723  33.097   1.142
74401W        W46661   2.962  43.775   3.603
74402W        W46662  17.225  16.957   5.147
74403W        W46663  32.396  36.392   1.461
74404W        W46664  26.382  26.476   2.009
74405W        W46665  35.399   0.965   1.403
74406W        W46666  33.410  37.604  14.016
74407W        W46667  34.464  18.012   2.176
74408W        W46668  20.289  38.515   3.309
74409W        W46669  34.519   6.328  12.103
74410W        W46670   6.137  37.868  11.049
74411W        W46671  30.513  41.020   2.884
74412W        W46672   9.875   5.156  13.867
74413W        W46673  17.102  34.671   3.365
74414W        W46674  21.635  41.190   4.161
74415W        W46675  35.128  42.990  13.144
74416W        W46676  37.024  38.016  10.678
74417W        W46677   7.961  17.031   1.457
74418W        W46678  27.216   9.469   1.772
74419W        W46679  31.582  43.344   0.981
74420W        W46680  15.744   8.097   3.210
74421W        W46681  18.699  34.417   0.792
74422W        W46682   3.893   7.373  11.284
74423W        W46683   4.236  22.567   4.217
74424W        W46684  19.243   2.494   4.863
74425W        W46685  37.974  38.300   4.713
74426W        W46686  36.323  44.427  11.875
74427W        W46687   5.741  14.144   4.458
74428W        W46688  37.295  19.193   1.424
74429W        W46689  18.648  29.637   4.629
74430W        W46690  20.177   7.464  10.246
74431W        W46691   2.332  33.568   2.376
74432W        W46692   1.361  39.923   3.030
74433W        W46693   9.156  18.595  10.667
74434W        W46694   9.851  21.124  14.685
74435W        W46695  40.860  29.397  12.837
74436W        W46696  20.423  28.701   4.284
74437W        W46697  31.635  22.508  13.907
74438W        W46698  39.014  12.581  10.712
74439W        W46699   7.456   3.715  11.516
74440W        W46700   6.922  44.317   4.327
74441W        W46701  14.768  36.882  11.645
74442W        W46702   8.830  36.863  12.314
74443W        W46703  33.432  29.766   1.338
74444W        W46704  35.545  31.036   0.161
74445W        W46705  29.089  17.687  11.225
74446W        W46706  13.866  10.750  11.919
74447W        W46707   6.106  14.797  10.828
74448W        W46708  27.496   1.897   1.718
74449W        W46709  37.982  36.262  14.493
74450W        W46710  32.641  17.123  13.987
74451W        W46711   3.769  12.859  13.829
74452W        W46712  21.152  22.810   1.892
74453W        W46713  11.666   1.815  10.063
74454W        W46714  12.383  34.536  12.899
74455W        W46715  38.766   0.863  12.945
74456W        W46716  13.769  27.411   3.327
74457W        W46717   7.296  44.351  13.701
74458W        W46718  15.217  15.166  14.016
74459W        W46719  26.566  12.388   4.609
74460W        W46720  36.871   3.362   0.948
74461W        W46721  35.235  14.830   3.499
74462W        W46722  31.962   5.996   3.732
74463W        W46723  38.599  44.685   4.285
74464W        W46724  18.316  32.809  13.529
74465W        W46725   9.780  12.857  13.499
74466W        W46726  31.832  31.557   4.516
74467W        W46727   4.719  41.457  10.576
74468W        W46728  27.261   3.255  14.431
74469W        W46729  21.022  34.998  12.832
74470W        W46730   6.207  21.544   1.114
74471W        W46731  19.454   4.923   2.540
74472W        W46732  12.141  44.948  14.397
74473W        W46733  16.979  24.979  10.706
74474W        W46734   8.873   2.706   1.368
74475W        W46735  44.416  35.862  11.026
74476W        W46736  43.939  26.794   3.218
74477W        W46737   7.660  23.099  12.408
74478W        W46738  28.024  34.682  10.605
74479W        W46739  44.996  29.645   3.265
74480W        W46740  19.578  17.513  11.506
74481W        W46741  34.081  10.931   2.870
74482W        W46742  26.104  40.952  14.029
74483W        W46743   8.321  26.722   3.482
74484W        W46744  23.566  34.923  13.908
74485W        W46745  44.271  15.683  11.947
74486W        W46746  34.406  40.646   2.849
74487W        W46747   9.743   6.443   3.127
74488W        W46748   4.823  15.071   3.132
74489W        W46749  39.410  34.859   3.230
74490W        W46750  15.600  14.207  13.875
74491W        W46751  21.907  14.362   4.878
74492W        W46752  25.487  29.863  12.910
74493W        W46753   9.293   2.927   0.355
74494W        W46754   2.377  20.277   3.523
74495W        W46755  11.790  32.113   2.739
74496W        W46756  19.665  23.409   3.857
74497W        W46757  21.465   2.446   1.320
74498W        W46758  43.020   6.724   1.366
74499W        W46759  27.890   9.106   0.380
74500W        W46760   6.867   3.326   2.884
74501W        W46761   5.802  15.389  12.390
74502W        W46762  21.924  29.380  10.627
74503W        W46763  26.935  14.774  14.530
74504W        W46764   8.702  16.592   2.743
74505W        W46765  36.330   8.807  13.988
74506W        W46766  12.034  17.998  13.014
74507W        W46767  29.595  27.667  10.695
74508W        W46768   9.556  15.734  14.843
74509W        W46769   5.252  32.661  13.687
74510W        W46770   1.499  29.163   0.273
74511W        W46771  29.402  21.597   4.236
74512W        W46772  11.273  13.209   0.430
74513W        W46773  28.059  44.236   3.213
74514W        W46774  39.367   6.134   0.257
74515W        W46775   6.130  44.373   4.120
74516W        W46776  32.563  42.354  13.454
74517W        W46777  22.784   4.907   3.088
74518W        W46778  17.170  21.139   0.350
74519W        W46779  44.907  43.852   4.188
74520W        W46780  28.459  11.765   3.367
74521W        W46781   5.195  40.761   4.378
74522W        W46782  41.720  27.635   2.203
74523W        W46783  29.640  23.653  10.433
74524W        W46784  13.616  37.557  10.668
74525W        W46785  37.375  39.825   3.277
74526W        W46786  42.394   5.253   4.843
74527W        W46787  13.293  43.772  12.514
74528W        W46788  12.072  26.469   1.482
74529W        W46789   8.442   6.707  11.672
74530W        W46790   9.825  30.044  13.959
74531W        W46791  14.593   2.713  12.063
74532W        W46792  31.094  25.527   3.896
74533W        W46793   6.636  36.464  14.709
74534W        W46794   0.908  31.719   3.886
74535W        W46795  35.382  40.022  11.119
74536W        W46796  40.016  22.154  12.118
74537W        W46797  30.665  40.787   3.375
74538W        W46798  11.812  40.351   4.204
74539W        W46799  38.500   7.136  11.194
74540W        W46800  24.514  10.734  13.744
74541W        W46801  31.844  21.708  13.313
74542W        W46802   8.338  30.377  14.532
74543W        W46803   2.373  15.692   2.420
74544W        W46804  29.474  23.199  11.473
74545W        W46805  18.268  22.273   0.302
74546W        W46806  43.912  25.648  12.009
74547W        W46807  12.423  34.346  14.419
74548W        W46808  24.547  41.696  10.734
74549W        W46809   4.771  27.616   4.602
74550W        W46810  14.835  43.061   2.138
74551W        W46811  22.560  26.053   1.774
74552W        W46812   4.913  34.034  13.513
74553W        W46813   9.690  24.181  12.180
74554W        W46814  12.114   7.264   0.090
74555W        W46815  26.186   1.513   4.657
74556W        W46816  16.656  34.391  11.669
74557W        W46817  18.486  32.179  11.603
74558W        W46818  16.650  19.674   1.948
74559W        W46819  40.270  27.176  12.570
74560W        W46820  33.604  19.753   2.723
74561W        W46821  34.303  31.789   3.618
74562W        W46822  26.637  14.574  14.151
74563W        W46823  17.644  21.628  12.849
74564W        W46824   0.102  14.839   4.142
74565W        W46825  33.011  20.101  13.523
74566W        W46826  18.512   5.625  11.256
74567W        W46827  36.000  18.950  14.205
74568W        W46828  12.719  21.324  12.057
74569W        W46829  10.848  39.428   3.762
74570W        W46830   8.466  39.395   1.411
74571W        W46831  19.965  15.226   2.245
74572W        W46832  17.369  19.214   1.785
74573W        W46833  34.862  21.373   5.085
74574W        W46834  37.472  24.954   0.906
74575W        W46835  37.056  32.607   2.420
74576W        W46836   7.848   0.413  13.407
74577W        W46837  29.041  34.982   0.880
74578W        W46838  26.224  44.229   1.461
74579W        W46839  35.885   7.676   3.781
74580W        W46840  43.563  23.554   4.461
74581W        W46841  18.585   7.826  10.600
74582W        W46842  29.152  15.598  12.921
74583W        W46843  18.637  43.766  14.037
74584W        W46844  39.355  16.772   4.229
74585W        W46845  31.675  20.046   4.729
74586W        W46846  28.108  28.375  14.360
74587W        W46847  24.707  40.062   5.448
74588W        W46848  37.805   8.164  12.115
74589W        W46849  21.059  37.568  14.863
74590W        W46850  29.664   3.120   3.687
74591W        W46851  22.803  16.133  13.824
74592W        W46852   3.682  18.979   2.795
74593W        W46853  34.535  44.083   0.950
74594W        W46854  42.800  16.582  13.771
74595W        W46855  27.970  40.324   2.350
74596W        W46856  24.521  43.435   4.055
74597W        W46857   7.439  39.510  10.716
74598W        W46858   3.274  16.086   0.379
74599W        W46859  26.724  37.316   0.986
74600W        W46860   6.837  19.770   1.347
74601W        W46861  42.275  34.016   1.803
74602W        W46862   9.472  44.770   1.742
74603W        W46863  14.341  33.479   0.893
74604W        W46864  12.341  27.613   2.118
74605W        W46865  17.315  35.959   3.669
74606W        W46866   1.953  43.074  11.432
74607W        W46867  20.134  14.639  12.962
74608W        W46868  40.823  13.371   2.329
74609W        W46869  22.592  20.238   3.836
74610W        W46870  13.568   9.592  14.543
74611W        W46871  25.384  31.868  12.429
74612W        W46872  41.995   7.395  12.357
74613W        W46873  40.700  20.257  13.040
74614W        W46874   9.710   7.354   1.218
74615W        W46875  17.078  12.652   1.737
74616W        W46876  11.224   5.530   0.510
74617W        W46877   9.768  25.622   3.735
74618W        W46878  27.504   8.167  11.123
74619W        W46879  33.460   6.281  14.434
74620W        W46880  39.560  15.658   4.999
74621W        W46881  13.666  29.496  11.002
74622W        W46882  37.101  38.310   4.113
74623W        W46883  33.673   0.682   1.252
74624W        W46884  43.995  27.521  14.417
74625W        W46885  39.036  21.090   4.104
74626W        W46886  17.464  25.712   4.438
74627W        W46887  31.853   3.256   2.195
74628W        W46888   8.477   3.499   4.323
74629W        W46889  27.772   4.133   3.776
74630W        W46890  22.548  38.025   4.042
74631W        W46891  14.299  36.123   3.646
74632W        W46892  28.620  27.202  14.720
74633W        W46893  18.586   4.770  13.468
74634W        W46894  25.689   3.768   4.575
74635W        W46895  11.043  43.480  12.963
74636W        W46896   2.884  25.293   0.421
74637W        W46897  23.451  42.459  12.587
74638W        W46898   8.094  22.007  12.921
74639W        W46899  18.746  27.985  10.375
74640W        W46900  25.281  21.165   2.748
74641W        W46901  15.589  14.716   1.815
74642W        W46902   0.827   0.401   0.531
74643W        W46903  43.812   1.794  14.261
74644W        W46904  23.162  24.446   2.435
74645W        W46905  42.312  24.490   1.820
74646W        W46906  27.462   2.421   2.963
74647W        W46907   9.638  40.453   1.368
74648W        W46908  15.627  38.031  10.606
74649W        W46909  15.817   9.686   3.966
74650W        W46910  42.940   7.717   4.506
74651W        W46911   6.285   9.122  10.738
74652W        W46912   7.198   3.439  11.072
74653W        W46913  21.868  29.090   0.411
74654W        W46914  14.196  33.047  13.798
74655W        W46915   4.515  28.395  14.514
74656W        W46916  28.111  42.771   2.000
74657W        W46917  28.556  24.142   2.131
74658W        W46918  13.640   1.669  12.564
74659W        W46919  39.372  43.284   2.685
74660W        W46920   8.230  20.721   0.510
74661W        W46921  21.876  37.242  14.856
74662W        W46922  26.942  31.502  14.677
74663W        W46923  37.441   2.349   2.320
74664W        W46924  13.717   0.748   0.991
74665W        W46925  26.017  39.786   4.172
74666W        W46926  11.685  40.343  14.822
74667W        W46927  34.044  18.934  13.347
74668W        W46928  31.436   2.903   0.647
74669W        W46929  25.794  15.103  12.494
74670W        W46930  43.922   1.936   4.929
74671W        W46931  43.542  18.674   3.684
74672W        W46932   5.134  37.016  11.734
74673W        W46933  32.506   0.039  13.769
74674W        W46934  41.496  33.490   4.188
74675W        W46935  29.389  43.502   3.312
74676W        W46936   5.943   3.406  14.982
74677W        W46937  21.755  32.962   1.692
74678W        W46938  33.417   9.312  11.286
74679W        W46939   0.145  20.311   1.875
74680W        W46940  24.452   6.673   0.261
74681W        W46941   5.885  22.490   1.760
74682W        W46942  33.485   8.223   4.628
74683W        W46943  33.966  39.337  11.514
74684W        W46944  42.510   7.979  13.814
74685W        W46945  34.724  43.258  12.974
74686W        W46946  40.426  29.537  12.562
74687W        W46947  30.111   7.883   0.467
74688W        W46948  42.247  28.769   0.689
74689W        W46949  22.457  33.447   0.163
74690W        W46950  11.790   1.301   0.325
74691W        W46951   8.845   3.241   2.215
74692W        W46952  21.570  19.102  11.216
74693W        W46953  32.821  26.647  11.041
74694W        W46954  35.948   9.135  13.102
74695W        W46955   7.820  39.519  14.992
74696W        W46956   2.778  26.562  13.974
74697W        W46957  43.384  13.898   4.668
74698W        W46958  41.889  18.521   3.138
74699W        W46959   5.249  10.301  12.697
74700W        W46960  43.186  21.706  13.827
74701W        W46961   7.344  38.403  10.625
74702W        W46962   0.141   5.391  12.011
74703W        W46963  44.967  31.512   0.700
74704W        W46964  29.676  36.780  12.427
74705W        W46965  23.997  16.328  13.782
74706W        W46966  20.807  38.016  14.727
74707W        W46967  11.048   5.252   4.112
74708W        W46968  18.570   3.718   2.233
74709W        W46969   6.729  20.700  11.621
74710W        W46970  41.851  15.743  10.784
74711W        W46971   1.777  17.286  14.611
74712W        W46972   0.863  37.183   0.237
74713W        W46973  12.544  32.766   4.768
74714W        W46974   6.772   6.494  14.053
74715W        W46975  17.605  41.302  12.414
74716W        W46976  37.652  14.647   4.184
74717W        W46977  15.815  10.728   1.723
74718W        W46978  44.459   1.767   1.520
74719W        W46979  20.460   5.059  12.401
74720W        W46980  41.870  43.782  14.395
74721W        W46981  31.144  40.060   3.680
74722W        W46982   6.734  39.446  11.731
74723W        W46983  27.019  40.952   1.830
74724W        W46984  33.798  11.069   0.410
74725W        W46985   8.651  17.113   3.598
74726W        W46986  37.557  20.063   0.218
74727W        W46987  33.924  28.005  11.061
74728W        W46988  36.108   0.548   0.459
74729W        W46989  30.159  35.321  12.739
74730W        W46990   3.922  17.347   4.650
74731W        W46991  29.032  30.631  14.611
74732W        W46992  40.529  43.231   0.746
74733W        W46993  42.082  36.002  11.633
74734W        W46994   7.431  25.092   0.675
74735W        W46995  20.774  30.623   0.181
74736W        W46996   8.815  39.310   3.226
74737W        W46997  40.776  15.761  13.470
74738W        W46998  35.326  35.455   4.564
74739W        W46999   0.701  29.606  10.751
74740W        W47000  29.722  23.409  10.899
74741W        W47001  13.654   9.294  12.704
74742W        W47002  22.228  26.745  11.484
74743W        W47003  32.421  14.527   2.411
74744W        W47004  11.193  15.632   4.583
74745W        W47005  19.768  11.783   0.116
74746W        W47006  12.394  20.053   2.263
74747W        W47007  16.959  40.867  13.494
74748W        W47008  31.144  32.062   5.547
74749W        W47009   7.867  28.036  10.503
74750W        W47010   3.367  29.518   0.409
74751W        W47011  41.170  12.337   2.743
74752W        W47012  12.907  34.578   4.606
74753W        W47013  23.557  36.312  10.212
74754W        W47014  38.522  30.881   4.572
74755W        W47015  32.529  29.025  13.047
74756W        W47016  31.122  10.309  10.206
74757W        W47017  30.171  43.785   1.465
74758W        W47018  19.025  15.271  14.407
74759W        W47019  42.502  25.000   4.542
74760W        W47020  38.792  21.788   4.563
74761W        W47021  26.168  16.992  14.846
74762W        W47022  31.969  12.649  12.552
74763W        W47023  26.235   0.311  10.657
74764W        W47024  11.749  34.877   4.533
74765W        W47025  10.237   3.528   4.676
74766W        W47026  13.197   2.874  11.800
74767W        W47027   8.836  13.205   0.919
74768W        W47028  12.017   9.360  13.844
74769W        W47029   0.394  44.734  14.868
74770W        W47030   4.795   8.612  13.097
74771W        W47031   4.958  13.664  13.235
74772W        W47032  44.943  36.283   0.858
74773W        W47033   1.758  26.953  11.085
74774W        W47034  12.257  16.727   4.930
74775W        W47035  28.208  32.482   2.750
74776W        W47036  29.828  42.024  11.410
74777W        W47037  13.324  37.170   0.152
74778W        W47038  43.966  23.690  13.783
74779W        W47039   1.374  35.918  14.684
74780W        W47040  17.755  24.187  11.990
74781W        W47041  11.591  44.855  10.860
74782W        W47042   0.065   9.424  12.860
74783W        W47043  38.792  23.869  13.000
74784W        W47044  39.126  40.088  14.872
74785W        W47045   8.822  27.054  11.465
74786W        W47046  11.750  23.314  12.891
74787W        W47047  12.127  30.671  13.615
74788W        W47048   0.355   4.694  12.564
74789W        W47049   1.557  41.164   1.638
74790W        W47050   7.951   2.980  11.632
74791W        W47051  25.976   2.761  12.033
74792W        W47052   8.983  33.528  11.567
74793W        W47053  39.838  25.355   2.843
74794W        W47054  36.379  11.148   1.772
74795W        W47055   3.502  34.418  11.843
74796W        W47056  15.493   2.666  14.569
74797W        W47057  18.567   1.653   1.590
74798W        W47058  38.358  23.785  11.931
74799W        W47059  39.560  32.382   0.885
74800W        W47060  39.704  23.602   0.918
74801W        W47061  13.599   9.816   2.606
74802W        W47062  20.143  26.965  12.564
74803W        W47063  44.218   6.300  12.478
74804W        W47064  26.022  43.604   3.104
74805W        W47065  23.868  31.567  12.360
74806W        W47066  27.150  16.384   0.036
74807W        W47067  30.650  27.865  14.829
74808W        W47068  39.223  23.652   2.336
74809W        W47069   2.728   5.787  13.778
74810W        W47070  31.545  20.054  14.365
74811W        W47071  14.207  37.744   2.750
74812W        W47072  12.811  16.559   0.889
74813W        W47073  18.914  23.480  13.438
74814W        W47074  20.869   1.979   3.788
74815W        W47075  40.434  22.958   2.246
74816W        W47076  35.425  16.103   3.680
74817W        W47077  27.194  41.830   0.052
74818W        W47078  23.992  24.179  12.828
74819W        W47079  42.001  12.125  14.450
74820W        W47080   6.728  21.133   4.609
74821W        W47081  19.193  30.858  14.243
74822W        W47082  34.004   1.292   4.480
74823W        W47083  36.994   1.570   0.829
74824W        W47084  11.551  33.845  13.927
74825W        W47085   1.497  31.400   2.041
74826W        W47086  10.893  18.722  13.932
74827W        W47087  36.084  29.950   3.641
74828W        W47088  15.533  36.384   2.502
74829W        W47089  15.264  40.603   2.337
74830W        W47090  11.652  30.564   0.975
74831W        W47091   6.890  44.990  14.738
74832W        W47092  40.016  23.184  12.100
74833W        W47093  43.006  29.417  13.248
74834W        W47094  14.143   9.016   1.331
74835W        W47095   7.474  34.348   1.495
74836W        W47096  13.565   7.822   3.772
74837W        W47097  32.051  24.127   2.696
74838W        W47098  13.409  41.761   2.885
74839W        W47099  18.802   9.489  12.034
74840W        W47100  16.868  24.184   1.047
74841W        W47101  13.295  16.769   2.792
74842W        W47102  33.522  23.943   2.822
74843W        W47103  25.612   7.372   1.689
74844W        W47104  35.153  44.448  13.778
74845W        W47105  38.478  15.103   1.331
74846W        W47106  19.513  40.270  14.484
74847W        W47107  21.444  21.629  13.295
74848W        W47108  31.197   6.499   1.372
74849W        W47109  15.328  28.191  11.525
74850W        W47110  29.958  12.889  11.623
74851W        W47111  43.890  33.903   2.661
74852W        W47112  21.815  21.528  12.478
74853W        W47113  18.683   1.791   2.564
74854W        W47114  18.099  37.344   2.037
74855W        W47115  28.649  39.469  13.147
74856W        W47116  26.977  17.005  10.172
74857W        W47117  44.912  18.713  14.744
74858W        W47118  38.610  44.297   0.666
74859W        W47119  35.676   0.222  10.966
74860W        W47120  43.929  16.441  14.133
74861W        W47121   5.796   6.987  10.489
74862W        W47122  18.806  26.210   4.618
74863W        W47123   1.330  19.888  12.384
74864W        W47124  34.685  27.519   2.654
74865W        W47125  41.475  23.491   1.904
74866W        W47126  15.805  14.356   1.243
74867W        W47127  36.069   5.203   3.696
74868W        W47128  32.770  13.282  12.759
74869W        W47129   2.816   1.930   2.365
74870W        W47130  33.444  33.356   3.755
74871W        W47131  15.562  21.444   0.903
74872W        W47132  25.487  30.175   3.566
74873W        W47133   7.362  20.997  13.877
74874W        W47134  22.759   0.507   2.820
74875W        W47135  39.020  21.654   2.283
74876W        W47136   0.727  14.130   2.677
74877W        W47137   3.510  14.617  12.443
74878W        W47138   0.386  42.165  10.703
74879W        W47139  27.067   9.172  14.976
74880W        W47140  10.698   9.092   1.832
74881W        W47141  37.584   8.276   1.783
74882W        W47142  23.652   2.733   0.184
74883W        W47143  33.167  15.671   2.755
74884W        W47144  28.197  21.954  12.649
74885W        W47145  36.770  27.006  12.400
74886W        W47146  22.903  13.771  14.317
74887W        W47147   2.994  33.674   2.652
74888W        W47148  30.554  41.314   4.631
74889W        W47149  34.040   4.417  12.855
74890W        W47150  37.616   8.127   4.594
74891W        W47151   5.677  44.932   0.921
74892W        W47152  13.242  32.138   2.470
74893W        W47153  25.061  12.402  11.143
74894W        W47154   7.280  30.183  13.066
74895W        W47155  33.851  19.664  11.878
74896W        W47156  22.211  26.611  13.875
74897W        W47157  15.556  25.655   2.415
74898W        W47158  32.287   2.633  13.877
74899W        W47159  17.194  41.626  12.412
74900W        W47160  24.188  44.805  11.815
74901W        W47161  28.986  25.985   1.861
74902W        W47162  36.556  28.238   0.037
74903W        W47163  40.393  29.198   2.970
74904W        W47164   7.922  14.297  14.853
74905W        W47165  32.423  30.431   3.125
74906W        W47166  26.437   2.689   0.330
74907W        W47167  33.306  35.506  13.582
74908W        W47168  14.503  18.536  10.640
74909W        W47169  19.064  23.279   3.306
74910W        W47170   0.380  16.054   1.726
74911W        W47171  20.280  33.503  13.334
74912W        W47172   5.565  39.603   0.863
74913W        W47173  28.643  10.766   4.129
74914W        W47174  37.962  33.505  10.782
74915W        W47175  34.431   6.854   3.670
74916W        W47176  14.838  35.906  12.235
74917W        W47177  41.251   2.840   3.593
74918W        W47178  37.269  24.591  11.185
74919W        W47179  15.127  12.804   0.110
74920W        W47180  25.757   9.124   1.822
74921W        W47181  23.728  32.634   3.180
74922W        W47182   5.672  12.033  14.568
74923W        W47183  14.267  13.721   5.045
74924W        W47184  42.206  25.408   3.242
74925W        W47185  21.858  39.895  11.530
74926W        W47186   8.191  20.824  12.642
74927W        W47187   3.788  13.328   0.732
74928W        W47188   3.267  27.076   3.754
74929W        W47189   6.881  26.129  10.701
74930W        W47190  21.604  11.882   1.739
74931W        W47191  14.053  43.940  10.611
74932W        W47192   4.974  29.111   4.855
74933W        W47193   4.368  29.422  14.591
74934W        W47194   6.801  37.926  13.869
74935W        W47195  43.727   1.179  12.143
74936W        W47196  39.318  14.247   4.629
74937W        W47197  37.566  12.884   0.872
74938W        W47198  30.011  14.343  13.047
74939W        W47199  41.889   5.208  12.017
74940W        W47200  31.872   1.509   3.876
74941W        W47201   4.810   3.203   4.571
74942W        W47202  29.110   5.655  12.493
74943W        W47203   9.434  35.778  10.117
74944W        W47204  30.188  41.018  11.562
74945W        W47205  17.163  17.592   3.900
74946W        W47206  41.937  24.994   4.205
74947W        W47207  11.178  38.922  13.892
74948W        W47208  12.717  39.980   3.749
74949W        W47209  17.960  43.573   4.562
74950W        W47210  32.048  31.005  10.737
74951W        W47211   6.285  24.735   3.438
74952W        W47212  35.325  10.279   4.634
74953W        W47213  27.441  20.523  11.415
74954W        W47214  24.537  36.661  11.501
74955W        W47215  37.630  24.524   4.109
74956W        W47216  37.921  27.478   4.177
74957W        W47217   8.056  30.131   3.748
74958W        W47218  31.439  33.903   4.896
74959W        W47219  37.505  11.230  12.460
74960W        W47220  25.217  39.021   0.756
74961W        W47221  32.108  17.015   3.805
74962W        W47222  36.618   6.466   3.327
74963W        W47223  24.102  43.468  12.810
74964W        W47224  16.761  22.716  11.116
74965W        W47225   3.190  33.487   3.188
74966W        W47226  33.301  39.725   3.572
74967W        W47227  23.526   0.893   1.427
74968W        W47228  41.934   4.316   0.566
74969W        W47229  29.593  10.202   3.692
74970W        W47230   1.600  30.417   0.345
74971W        W47231  26.089   3.485  12.870
74972W        W47232  43.019  13.594   0.783
74973W        W47233  31.897  11.384   2.276
74974W        W47234  22.707  14.818  13.410
74975W        W47235  22.420  24.083   1.299
74976W        W47236  32.476  42.423  11.150
74977W        W47237  11.157  39.988   2.244
74978W        W47238  38.266  32.109   1.688
74979W        W47239  16.765  32.066  11.666
74980W        W47240   9.161  29.551   3.857
74981W        W47241  13.626  26.613   3.663
74982W        W47242  11.807  28.001   4.532
74983W        W47243  14.763  31.099  10.403
74984W        W47244   3.942  34.905  12.246
74985W        W47245  33.103  41.483   0.345
74986W        W47246  33.419  19.764  14.880
74987W        W47247   9.249   8.122   1.715
74988W        W47248  25.465  22.278  13.904
74989W        W47249  24.117  14.909   2.872
74990W        W47250  15.614  33.808  11.918
74991W        W47251  42.285  31.895  10.809
74992W        W47252  32.147  15.723  11.173
74993W        W47253   6.709  29.191   1.970
74994W        W47254  23.087   9.856  11.656
74995W        W47255  25.238  24.128  12.503
74996W        W47256   6.352   2.959  14.044
74997W        W47257  20.908   0.186  11.073
74998W        W47258  31.565  36.918   1.663
74999W        W47259  15.108   7.593  14.079
75000W        W47260   0.463  43.522   2.767
75001W        W47261   3.960  10.578   0.660
75002W        W47262  44.469  42.870   2.225
75003W        W47263   2.839  40.258   3.382
75004W        W47264  27.615  14.391   1.840
75005W        W47265  42.967  13.989   0.347
75006W        W47266   4.318  10.149   1.903
75007W        W47267   6.290  18.903  12.998
75008W        W47268  30.382  29.190  13.001
75009W        W47269  21.482  23.659  13.553
75010W        W47270   5.788  15.299  10.608
75011W        W47271  40.219  24.489   1.696
75012W        W47272  26.981  30.681   1.305
75013W        W47273   6.778  22.646   1.562
75014W        W47274  38.392  29.565  14.421
75015W        W47275  21.610   7.174  11.506
75016W        W47276  15.083  16.286   1.511
75017W        W47277  17.031  13.176  13.839
75018W        W47278  29.051  30.311   5.322
75019W        W47279   5.628  23.991   0.863
75020W        W47280  31.726  32.703  13.569
75021W        W47281  19.137  15.894   4.659
75022W        W47282  16.596  22.793   1.245
75023W        W47283  11.817  19.000  14.337
75024W        W47284  22.130   8.447  12.537
75025W        W47285  43.570  18.618   1.176
75026W        W47286  35.417  43.198  10.435
75027W        W47287  28.579  21.149   0.372
75028W        W47288   1.445  42.961  10.716
75029W        W47289   9.144  20.918  13.489
75030W        W47290  20.265  17.519  10.719
75031W        W47291   5.872  44.318  12.187
75032W        W47292  23.570  44.468   2.596
75033W        W47293  21.007  18.363  14.823
75034W        W47294   9.861  15.403  11.129
75035W        W47295  29.642   9.566   2.434
75036W        W47296  10.147  22.481   3.519
75037W        W47297  15.236  10.788  11.041
75038W        W47298  23.526  11.346  13.107
75039W        W47299   9.570  41.842   4.530
75040W        W47300   8.440  14.090  12.142
75041W        W47301   0.875  41.960   1.299
75042W        W47302  19.687  21.099   4.564
75043W        W47303  33.948  11.996   2.180
75044W        W47304  20.229  16.793   0.256
75045W        W47305  30.126  37.611  10.704
75046W        W47306  42.564   4.838  11.644
75047W        W47307  26.202   5.507  14.814
75048W        W47308  29.498   3.356   1.727
75049W        W47309   9.596  32.907  11.344
75050W        W47310  24.973  10.546  12.499
75051W        W47311  15.761  26.941  14.837
75052W        W47312  18.100  42.520  14.061
75053W        W47313  26.617   8.877  11.092
75054W        W47314  12.760  15.832  14.787
75055W        W47315   3.777  32.383   3.271
75056W        W47316   9.752  28.175   0.753
75057W        W47317  28.058  42.806  10.058
75058W        W47318  37.315  29.009  13.047
75059W        W47319   2.824   5.519   4.916
75060W        W47320  24.976  39.677  13.430
75061W        W47321  39.063  27.964   2.815
75062W        W47322  38.120  23.091  14.028
75063W        W47323  35.402  13.129  11.192
75064W        W47324  42.200   3.114  12.358
75065W        W47325  20.283  40.280  10.337
75066W        W47326  15.509  44.380   1.928
75067W        W47327  16.254  10.723   3.131
75068W        W47328  22.254  26.310   0.313
75069W        W47329  26.015  34.847  12.134
75070W        W47330  17.634  34.649   0.753
75071W        W47331   7.137  14.653   1.945
75072W        W47332  17.630  22.463   2.245
75073W        W47333  36.382   2.526   1.334
75074W        W47334  15.461  29.193   2.430
75075W        W47335  39.014  44.774   4.611
75076W        W47336  12.603  21.514   4.082
75077W        W47337  15.848  29.620  11.541
75078W        W47338  28.145   3.038  13.644
75079W        W47339  22.707   0.202  11.149
75080W        W47340  24.909  23.092  12.906
75081W        W47341   4.951  28.898   3.224
75082W        W47342  34.410  16.702   3.158
75083W        W47343  38.051  27.243  13.919
75084W        W47344   8.394   4.704  14.915
75085W        W47345  32.146   9.198  13.555
75086W        W47346  19.342   6.319   4.203
75087W        W47347   1.573  25.462   3.310
75088W        W47348  39.292  39.325  13.473
75089W        W47349  31.363  28.492  10.502
75090W        W47350   2.065  39.255  13.230
75091W        W47351  36.889  36.862  14.383
75092W        W47352  35.297  38.449  14.871
75093W        W47353  22.996  26.066  14.913
75094W        W47354   8.439  16.601  14.871
75095W        W47355  17.778   1.190   4.448
75096W        W47356  35.649   0.095  12.517
75097W        W47357  21.757  22.705  13.709
75098W        W47358  35.083  11.300  14.788
75099W        W47359   8.822   5.166   1.377
75100W        W47360   4.998   4.525   3.229
75101W        W47361   4.813  15.770   4.538
75102W        W47362  22.755  30.636   3.126
75103W        W47363   9.512  23.807  11.277
75104W        W47364   1.908  31.119   1.959
75105W        W47365  15.841  40.997   0.794
75106W        W47366  16.492   8.099  11.561
75107W        W47367  30.701  39.787   3.656
75108W        W47368  33.383   8.831   0.473
75109W        W47369  44.886  43.838  11.698
75110W        W47370  18.925  19.537   2.698
75111W        W47371  31.503  24.821  13.311
75112W        W47372  16.455   2.619   4.106
75113W        W47373  40.838  35.805   2.228
75114W        W47374  19.734   5.869  13.285
75115W        W47375  32.566  34.152   3.440
75116W        W47376  31.556  40.554   1.317
75117W        W47377  28.119  30.889   4.155
75118W        W47378   7.103  29.420   3.216
75119W        W47379  33.478  29.562   0.381
75120W        W47380   8.746  32.095  13.109
75121W        W47381  30.516  41.063  11.174
75122W        W47382  39.003  44.565  10.558
75123W        W47383  29.592  12.890  12.002
75124W        W47384   0.796  10.138  10.634
75125W        W47385   7.287  23.523   2.289
75126W        W47386  20.000  28.977   4.395
75127W        W47387  22.295  40.582   0.807
75128W        W47388  42.895  21.862   4.271
75129W        W47389   7.254  31.924   1.720
75130W        W47390   3.366  19.736   0.047
75131W        W47391  21.855  20.092  11.346
75132W        W47392  41.226  30.634   3.314
75133W        W47393  34.450  13.282   3.647
75134W        W47394   7.664  13.326  11.118
75135W        W47395  15.798  14.599  13.589
75136W        W47396  10.098  21.473   0.865
75137W        W47397  44.826  18.652   1.001
75138W        W47398  41.801  33.377  12.006
75139W        W47399  40.323  38.135   1.935
75140W        W47400   6.796  30.898  12.457
75141W        W47401  25.038  33.379   3.065
75142W        W47402  10.279  14.780  12.913
75143W        W47403   2.762  39.805  14.803
75144W        W47404  34.996  13.707  14.149
75145W        W47405  23.151  16.140  11.965
75146W        W47406  11.156  26.365   4.136
75147W        W47407  27.738  21.711   0.822
75148W        W47408  20.631  33.045   2.797
75149W        W47409  28.984   1.257  12.154
75150W        W47410   2.284  30.754   4.335
75151W        W47411  37.321   4.035   2.190
75152W        W47412  22.158  19.503   1.386
75153W        W47413  11.667  37.448   4.541
75154W        W47414  31.080   1.162   4.014
75155W        W47415   2.309  37.293   0.005
75156W        W47416   8.644  18.526  13.464
75157W        W47417  37.971  17.338   1.171
75158W        W47418  33.890  17.573   3.268
75159W        W47419   2.699  20.080  11.092
75160W        W47420  39.918   7.317   0.204
75161W        W47421  35.191  19.822   0.477
75162W        W47422  18.968  39.894  11.051
75163W        W47423  32.991  41.996  12.757
75164W        W47424  24.543  11.282  12.515
75165W        W47425  37.334  18.857  11.992
75166W        W47426   4.493  27.115   1.448
75167W        W47427   0.998   9.272  13.837
75168W        W47428   2.589  41.454  12.932
75169W        W47429  24.978   8.846  12.005
75170W        W47430  29.720  27.908  13.414
75171W        W47431   6.950  27.842  10.181
75172W        W47432  25.539   5.274   4.633
75173W        W47433  28.348  34.774  12.433
75174W        W47434  23.512  30.120   4.140
75175W        W47435  44.713  30.978   4.364
75176W        W47436  20.065  39.098  10.057
75177W        W47437  17.422   8.170   3.795
75178W        W47438  17.779  36.890   2.833
75179W        W47439  28.067  35.724  13.825
75180W        W47440  20.389  10.880   1.111
75181W        W47441   7.833  33.577   2.263
75182W        W47442  18.255   0.827   0.538
75183W        W47443  21.278  31.772  11.541
75184W        W47444  18.627  28.700  10.974
75185W        W47445  38.119   7.790  13.316
75186W        W47446  20.452  30.481   3.771
75187W        W47447  30.606  10.807   0.723
75188W        W47448  37.058  38.071   0.827
75189W        W47449  37.463  42.356   0.582
75190W        W47450  44.706   6.165  10.430
75191W        W47451  26.173  11.884   3.296
75192W        W47452  27.464  27.568  12.839
75193W        W47453  27.545   9.948  12.866
75194W        W47454  30.817  20.302   1.297
75195W        W47455  34.939  12.885   2.714
75196W        W47456  12.748   9.163   3.352
75197W        W47457  29.266  29.422  13.123
75198W        W47458   3.183  42.422   1.960
75199W        W47459  22.093  14.062  10.616
75200W        W47460   6.853  10.633   4.437
75201W        W47461   9.248  42.513  14.915
75202W        W47462  43.925  32.002   1.323
75203W        W47463  29.434  32.168   1.742
75204W        W47464   7.338  13.098   0.332
75205W        W47465  42.074  16.042   1.494
75206W        W47466  21.352  12.431  11.113
75207W        W47467  19.180  28.196  10.611
75208W        W47468  41.437  19.203  12.087
75209W        W47469  29.235  13.360  12.692
75210W        W47470  38.343  25.954   1.970
75211W        W47471  10.822   7.276   3.360
75212W        W47472   6.222  33.082   0.849
75213W        W47473  15.222  31.547   1.722
75214W        W47474  31.633  21.243  12.750
75215W        W47475  38.639  14.242  12.927
75216W        W47476  42.908  36.880   3.602
75217W        W47477  12.685  26.785   2.093
75218W        W47478   3.800   0.459  12.422
75219W        W47479  39.147  33.089   1.509
75220W        W47480  25.220  18.547  11.582
75221W        W47481  38.836  11.258   3.652
75222W        W47482   9.203   2.717   2.695
75223W        W47483  38.457  12.421  11.930
75224W        W47484  18.221  31.274   1.873
75225W        W47485   5.180  25.824  11.594
75226W        W47486  11.210  41.348  14.018
75227W        W47487  38.110  23.460   0.332
75228W        W47488  40.263  44.271   4.644
75229W        W47489  14.232  20.429  11.507
75230W        W47490  18.702  24.449   0.932
75231W        W47491  41.993  27.806   1.792
75232W        W47492  42.901   2.020  14.959
75233W        W47493  17.566   5.620   4.500
75234W        W47494   6.275   7.288   2.701
75235W        W47495   1.354  21.560  11.148
75236W        W47496  13.473  26.971  11.664
75237W        W47497   9.958  36.579  13.968
75238W        W47498  14.607  33.662   0.430
75239W        W47499  29.144  37.030   4.588
75240W        W47500  37.614  41.598   1.268
75241W        W47501  36.081  17.690   1.715
75242W        W47502  44.835  21.309   0.471
75243W        W47503  30.989  14.298   4.603
75244W        W47504  36.423  25.890   3.228
75245W        W47505   8.252   3.022  12.964
75246W        W47506   2.272  33.408  14.580
75247W        W47507  26.164  36.838  13.919
75248W        W47508  34.578  44.531   1.875
75249W        W47509  41.122  25.687   2.230
75250W        W47510   9.804  15.042  12.835
75251W        W47511  24.276  25.514   1.831
75252W        W47512  17.678  14.052  14.563
75253W        W47513  44.643  37.523   4.378
75254W        W47514   5.628  37.420  13.432
75255W        W47515  11.804  42.363  12.159
75256W        W47516  31.797   4.791   9.739
75257W        W47517  20.790  14.226   2.590
75258W        W47518  35.543  42.509   2.693
75259W        W47519   6.914  35.895   0.335
75260W        W47520  17.769  39.294  14.958
75261W        W47521   8.688  14.364   4.197
75262W        W47522  26.725  18.563   1.876
75263W        W47523  16.123  28.531  13.585
75264W        W47524  16.356  27.026   3.268
75265W        W47525  26.660  44.851  13.422
75266W        W47526  36.084  41.844   2.138
75267W        W47527  35.572  29.353  14.286
75268W        W47528   4.139  16.773  12.092
75269W        W47529  15.235   5.880  10.381
75270W        W47530  31.357  10.229   0.246
75271W        W47531   8.426  22.049   1.649
75272W        W47532  19.830  20.034   3.587
75273W        W47533  37.548  37.513  12.059
75274W        W47534  29.741  32.155  13.763
75275W        W47535  38.346   8.882   4.268
75276W        W47536  44.784  21.700  11.466
75277W        W47537   5.907  11.511  11.943
75278W        W47538  25.001  29.978  14.397
75279W        W47539   9.668   8.111  14.449
75280W        W47540  38.409   2.987   3.096
75281W        W47541  29.655  11.013   4.143
75282W        W47542  33.641  35.324   1.473
75283W        W47543  25.696  40.807   5.062
75284W        W47544  34.843  38.597   5.070
75285W        W47545  37.454  14.082  14.843
75286W        W47546  43.497  40.059   0.426
75287W        W47547  24.059  41.875   1.286
75288W        W47548  37.434  18.334  11.993
75289W        W47549   5.421  44.069  12.003
75290W        W47550  11.848  24.127   4.106
75291W        W47551  39.470  30.323  14.002
75292W        W47552  11.715   8.373   1.782
75293W        W47553  13.336   6.284   1.369
75294W        W47554  14.452  10.174   2.059
75295W        W47555  12.913  24.252   4.148
75296W        W47556  41.301  31.409   1.441
75297W        W47557  33.415  18.307   3.713
75298W        W47558  19.193  40.514  14.814
75299W        W47559  12.663   1.748  12.031
75300W        W47560  22.276   1.422  12.528
75301W        W47561   3.764   5.401  12.968
75302W        W47562  28.282   9.605   3.896
75303W        W47563   9.931   1.219   4.370
75304W        W47564  29.473  13.875  14.450
75305W        W47565  21.541  11.014   4.146
75306W        W47566  17.710  38.795   3.703
75307W        W47567   2.985  14.022   4.991
75308W        W47568   8.131  36.411   2.931
75309W        W47569  23.151   3.292   0.399
75310W        W47570  29.461  44.249   0.882
75311W        W47571  34.866  25.754  13.064
75312W        W47572  12.704  35.916  14.920
75313W        W47573  39.082   2.342   1.022
75314W        W47574  29.241   7.365   3.938
75315W        W47575   5.424  39.377   2.228
75316W        W47576   9.162  11.887   3.219
75317W        W47577  23.504  15.015   2.796
75318W        W47578  34.806  30.057  12.941
75319W        W47579  16.367   6.752   0.318
75320W        W47580  38.959  35.403  13.773
75321W        W47581  40.453  42.023   0.259
75322W        W47582  14.544  38.600  13.451
75323W        W47583   0.975  39.552   3.820
75324W        W47584  37.971   0.854  10.146
75325W        W47585  15.177  14.492   4.686
75326W        W47586  35.375  39.575   4.640
75327W        W47587  28.592  11.792  11.606
75328W        W47588   6.693  42.257  12.208
75329W        W47589  36.866  25.842   4.284
75330W        W47590  34.839  43.880  11.126
75331W        W47591  41.343  15.912   3.799
75332W        W47592  40.201  42.751   4.130
75333W        W47593  26.170   1.036  13.949
75334W        W47594  40.550  18.364   2.735
75335W        W47595  40.006   6.947   3.638
75336W        W47596   7.178  33.378  13.326
75337W        W47597  34.887  12.907  10.359
75338W        W47598   5.388  34.841   0.235
75339W        W47599  34.712  13.858   0.026
75340W        W47600   6.373  37.321  14.010
75341W        W47601  37.310  20.189   2.230
75342W        W47602   6.222  40.022  11.037
75343W        W47603   2.855   5.780   4.196
75344W        W47604  12.271  11.872  12.467
75345W        W47605  18.338  13.226   0.258
75346W        W47606   2.192   7.901   3.019
75347W        W47607   9.207  36.029   4.636
75348W        W47608  19.050   1.959  14.374
75349W        W47609  37.008  43.991   4.979
75350W        W47610  35.820  27.421  14.366
75351W        W47611  19.737  37.831  11.651
75352W        W47612  44.208  42.924   0.237
75353W        W47613  16.703  42.596  14.076
75354W        W47614  42.438  36.913  11.209
75355W        W47615  18.778  33.359   3.184
75356W        W47616  13.806  10.364  11.162
75357W        W47617  21.913  11.290  10.676
75358W        W47618  11.331   5.265   2.770
75359W        W47619  22.649   3.946  11.554
75360W        W47620  17.207  36.441   3.207
75361W        W47621  11.134   0.990   1.699
75362W        W47622  35.095  28.205   2.200
75363W        W47623   0.838  15.330  11.900
75364W        W47624  31.547  25.178   1.408
75365W        W47625  10.235  36.820  11.099
75366W        W47626   6.349  28.828   3.291
75367W        W47627  44.062  39.556  10.852
75368W        W47628  22.769   8.470   3.767
75369W        W47629  18.177   0.978   2.740
75370W        W47630  40.807  22.876  11.587
75371W        W47631  13.631  11.406   0.912
75372W        W47632  20.532  38.846  14.418
75373W        W47633   4.451   1.905   3.057
75374W        W47634  15.681  37.206  11.546
75375W        W47635  11.261   1.928   0.011
75376W        W47636  13.659  22.898   0.632
75377W        W47637  22.124  10.141   4.111
75378W        W47638   7.201   3.735   0.911
75379W        W47639  36.509  38.157  13.788
75380W        W47640   1.842  20.911  12.074
75381W        W47641  22.266  25.585  12.418
75382W        W47642  21.098  25.684  12.837
75383W        W47643  28.865  27.075   1.083
75384W        W47644   5.751   1.292  13.417
75385W        W47645  10.744  42.046  12.361
75386W        W47646  12.798  10.623   3.833
75387W        W47647   9.498  40.933  11.385
75388W        W47648  11.262  13.424  11.407
75389W        W47649   3.708  14.651  14.870
75390W        W47650  10.675  33.566  11.165
75391W        W47651   0.862  21.933  14.102
75392W        W47652  44.479   9.866  12.607
75393W        W47653  20.540  22.031  13.857
75394W        W47654   3.690  39.883   1.854
75395W        W47655  43.721  22.125  13.025
75396W        W47656   9.741   9.669   5.025
75397W        W47657  36.474  28.176   4.776
75398W        W47658  12.749  31.960  14.198
75399W        W47659   9.407  40.894   1.579
75400W        W47660   3.913  35.001  13.527
75401W        W47661  13.880   3.759   0.499
75402W        W47662  19.640  10.265   0.106
75403W        W47663  18.607  14.546   2.662
75404W        W47664   8.001  25.418   4.087
75405W        W47665  17.375  28.429   4.259
75406W        W47666  20.736  16.776  12.312
75407W        W47667  32.672  24.713   2.487
75408W        W47668  39.921  37.795   0.789
75409W        W47669  26.155  13.810  10.754
75410W        W47670  26.258  35.599   1.709
75411W        W47671  12.868   0.041  10.912
75412W        W47672  16.444  23.015   4.089
75413W        W47673  12.124  32.076   1.835
75414W        W47674   8.489  35.193  11.029
75415W        W47675  11.946   8.350   2.796
75416W        W47676  13.881   3.920   3.216
75417W        W47677  33.527   5.728   4.600
75418W        W47678  12.755  30.944  10.106
75419W        W47679  29.034  24.002   0.290
75420W        W47680  44.370   6.062   0.139
75421W        W47681  23.630  38.483  13.818
75422W        W47682  19.231  13.227   4.030
75423W        W47683  18.803  28.381  12.995
75424W        W47684  33.090  18.193   4.267
75425W        W47685   1.874  44.278   0.535
75426W        W47686   4.668  16.886  14.385
75427W        W47687  23.701   9.661  14.431
75428W        W47688  29.688  29.177   1.185
75429W        W47689   8.688  42.264  14.231
75430W        W47690  43.521  42.268   3.097
75431W        W47691  42.186   9.913   4.976
75432W        W47692  33.615  11.135  13.578
75433W        W47693  32.596  20.748  12.975
75434W        W47694  35.638  31.168  11.500
75435W        W47695  18.689  18.961  14.345
75436W        W47696  27.009  33.864   4.676
75437W        W47697  28.909   9.110   0.327
75438W        W47698  29.953  34.364  13.783
75439W        W47699  25.061   5.460  10.910
75440W        W47700  33.565  26.068  14.785
75441W        W47701  32.915  35.146   1.450
75442W        W47702  26.036  40.797  14.539
75443W        W47703  34.116  27.948  12.823
75444W        W47704  21.063  31.552  14.753
75445W        W47705  13.259  35.722  14.095
75446W        W47706  43.312   6.252   4.160
75447W        W47707  13.772  24.241  14.432
75448W        W47708  22.262  22.353   0.794
75449W        W47709  34.615  24.281   1.847
75450W        W47710  32.046  20.710   0.803
75451W        W47711  34.565  19.759  13.167
75452W        W47712   4.968  10.856   4.609
75453W        W47713  42.169  28.996   4.253
75454W        W47714  23.609  19.746   4.557
75455W        W47715  11.866  23.822  12.972
75456W        W47716  37.989  26.002  12.266
75457W        W47717  40.732   7.031  14.731
75458W        W47718  38.065  19.119   3.658
75459W        W47719  41.539  21.900   0.972
75460W        W47720   6.708  13.161  11.238
75461W        W47721  18.255  12.408  11.135
75462W        W47722  28.040  22.943  11.541
75463W        W47723  27.296   5.769  10.635
75464W        W47724  42.413  17.201   1.869
75465W        W47725   1.771  10.210  10.487
75466W        W47726  27.945  44.320   0.050
75467W        W47727  28.857  28.329   0.398
75468W        W47728  18.544  15.283   3.697
75469W        W47729   7.830  26.419  13.033
75470W        W47730  17.797   1.813  11.670
75471W        W47731  15.765  40.498  11.122
75472W        W47732  16.559  44.542   0.175
75473W        W47733   5.238  42.330   4.543
75474W        W47734   1.897  25.486  12.639
75475W        W47735  21.308  18.507   0.860
75476W        W47736  43.823  30.889   1.973
75477W        W47737  42.373   3.385  13.025
75478W        W47738  26.687  32.781  11.058
75479W        W47739   2.676   5.290  11.260
75480W        W47740  22.776  26.623  13.960
75481W        W47741  35.574  37.559   4.702
75482W        W47742  11.824  25.080   3.135
75483W        W47743  33.582  39.304  13.337
75484W        W47744  38.349  12.879   0.367
75485W        W47745  28.362  40.197  10.717
75486W        W47746  15.169  20.021  12.540
75487W        W47747   7.790   2.630   2.569
75488W        W47748  22.496  30.688  11.169
75489W        W47749  26.706  31.642   3.197
75490W        W47750   6.303  21.712   3.769
75491W        W47751  18.861  20.333  12.432
75492W        W47752  28.263  12.895   0.317
75493W        W47753  15.683   6.126  10.233
75494W        W47754  32.906  27.203  10.634
75495W        W47755   9.419  23.156   1.332
75496W        W47756  38.374   3.463  12.865
75497W        W47757  13.714  16.077  13.521
75498W        W47758  37.356  37.612   1.310
75499W        W47759  25.150  22.010  14.412
75500W        W47760  18.650  11.857  12.753
75501W        W47761  34.966  43.748   4.847
75502W        W47762  24.061  37.354   2.783
75503W        W47763  37.776  10.551   3.107
75504W        W47764  37.019   8.379  14.403
75505W        W47765   0.867  13.847  14.907
75506W        W47766  33.561  16.344  11.092
75507W        W47767  43.824   6.641  12.498
75508W        W47768  39.917  27.079   3.965
75509W        W47769  40.692  19.665  12.051
75510W        W47770  17.699   9.191   0.472
75511W        W47771  19.324   1.035   3.823
75512W        W47772  12.038   6.199   1.810
75513W        W47773   4.980  30.672  13.927
75514W        W47774  37.984   8.287  13.979
75515W        W47775  20.642   4.640   0.321
75516W        W47776  27.074  37.299   5.110
75517W        W47777  13.409  37.938  14.129
75518W        W47778  39.003  28.208  10.619
75519W        W47779  43.762  26.927  13.137
75520W        W47780  43.112  19.572  11.550
75521W        W47781  32.881  19.597  10.488
75522W        W47782   4.361  14.504  11.224
75523W        W47783  26.543  20.754  10.608
75524W        W47784  37.700  23.265   5.046
75525W        W47785  24.197  21.408   3.303
75526W        W47786  11.680  38.443  10.750
75527W        W47787  20.254   4.904   3.703
75528W        W47788  34.386  29.283   4.019
75529W        W47789  36.361  19.328  13.495
75530W        W47790  31.667  27.748  13.381
75531W        W47791   9.145  17.843  11.209
75532W        W47792  18.177  34.613   0.917
75533W        W47793  10.630  22.641  13.094
75534W        W47794  13.189  18.443  14.743
75535W        W47795   1.158  12.328   0.050
75536W        W47796  37.930  41.295  11.163
75537W        W47797  28.489  31.496   1.378
75538W        W47798  37.543  37.908  10.709
75539W        W47799  37.481   4.291   4.659
75540W        W47800  19.706  14.628  11.576
75541W        W47801  11.069  31.053  13.057
75542W        W47802  24.068   7.630   2.857
75543W        W47803  37.366  19.064  11.494
75544W        W47804  19.541   6.186  14.512
75545W        W47805  44.577   1.671  12.955
75546W        W47806  42.214  28.544   3.616
75547W        W47807  14.551  30.545   9.810
75548W        W47808  40.847  35.799  11.973
75549W        W47809   7.653  21.540   3.217
75550W        W47810  41.751  23.777   2.270
75551W        W47811  31.717  25.732   1.280
75552W        W47812  42.617  37.900  13.163
75553W        W47813  38.316  37.949  12.024
75554W        W47814  14.131   8.095  14.282
75555W        W47815   1.013  36.679   0.279
75556W        W47816  44.349  17.554   0.438
75557W        W47817  30.378  42.036   3.615
75558W        W47818  22.052  27.839   1.864
75559W        W47819  17.355  13.701  14.895
75560W        W47820  25.510  37.057  14.705
75561W        W47821  42.033   7.273  10.971
75562W        W47822  27.617   7.988   2.329
75563W        W47823  30.675  13.173   1.762
75564W        W47824  36.587  17.796  13.330
75565W        W47825  27.563  20.057   0.044
75566W        W47826   5.195  43.565   4.666
75567W        W47827   4.847  28.412   1.877
75568W        W47828  37.326  39.495  14.936
75569W        W47829  40.996  12.164   3.189
75570W        W47830  27.547   3.384  12.600
75571W        W47831  12.775  42.449   2.727
75572W        W47832  27.191  44.638  13.408
75573W        W47833  41.045   8.375  12.028
75574W        W47834  26.729  33.556  11.525
75575W        W47835  33.291  42.810   0.964
75576W        W47836  30.088  37.080  12.601
75577W        W47837  43.253  18.721  11.513
75578W        W47838  31.639  16.779   2.263
75579W        W47839  43.839  15.612   2.493
75580W        W47840   1.684  44.997  12.632
75581W        W47841  10.260   4.408   2.653
75582W        W47842   1.857   1.799   0.370
75583W        W47843  37.160  37.611  13.526
75584W        W47844  19.307   2.030   2.854
75585W        W47845  29.472  44.460  14.976
75586W        W47846   7.928   7.619   1.483
75587W        W47847  33.099   6.664  13.774
75588W        W47848  34.880  42.453  12.143
75589W        W47849   3.867  16.678  11.207
75590W        W47850  27.568  34.457  13.650
75591W        W47851   4.944  43.523  12.779
75592W        W47852   7.775  34.107  11.662
75593W        W47853   7.219  33.109   2.260
75594W        W47854  44.233  18.563   1.856
75595W        W47855  17.619   2.381  14.740
75596W        W47856  29.941  28.047  14.287
75597W        W47857  38.452  32.247   0.831
75598W        W47858   7.927   1.358  11.517
75599W        W47859   9.450  39.741  13.459
75600W        W47860   7.439  14.640  11.190
75601W        W47861  28.126  15.608   1.964
75602W        W47862  10.002  11.155  14.646
75603W        W47863  20.624   1.523   2.625
75604W        W47864   4.035  37.872   2.799
75605W        W47865   7.408  43.772   2.163
75606W        W47866   1.797  35.566  12.078
75607W        W47867   4.373  26.951   2.296
75608W        W47868  34.523  13.877   3.044
75609W        W47869  38.528  21.704   0.474
75610W        W47870  30.164  39.919  14.041
75611W        W47871  23.742  28.965   0.717
75612W        W47872  16.055  21.093  12.860
75613W        W47873  37.912  42.325  14.717
75614W        W47874   4.858  22.606  11.049
75615W        W47875  25.623  28.983   1.175
75616W        W47876  28.556  33.622  14.514
75617W        W47877  12.088  16.110  11.536
75618W        W47878  41.828   6.468  12.491
75619W        W47879  11.074  10.737  10.962
75620W        W47880   8.289  30.488   3.130
75621W        W47881  20.302  29.516   3.282
75622W        W47882  32.441  42.055  12.083
75623W        W47883   8.396  19.112  13.883
75624W        W47884  20.592  24.783   3.117
75625W        W47885  33.308  11.862  13.883
75626W        W47886  19.208   6.733   4.465
75627W        W47887  37.174  44.381   2.301
75628W        W47888  21.709  27.784   2.261
75629W        W47889  21.202  22.267  12.597
75630W        W47890  20.645   5.766  10.162
75631W        W47891  41.082   3.376  14.501
75632W        W47892   5.778  28.000  11.590
75633W        W47893  10.714  34.338   1.168
75634W        W47894   1.751   5.067   1.853
75635W        W47895  26.291   7.659  10.778
75636W        W47896   5.630   7.021  10.984
75637W        W47897  24.157  28.027  13.384
75638W        W47898   4.032   5.329   4.856
75639W        W47899   6.909  41.883  12.600
75640W        W47900  43.243  12.688  13.833
75641W        W47901  39.842   8.006  12.351
75642W        W47902  19.691   5.989   4.314
75643W        W47903  20.717   6.706   3.319
75644W        W47904  37.483  41.796  14.000
75645W        W47905   3.287  13.691   0.088
75646W        W47906  34.846  35.756  11.115
75647W        W47907  23.070   7.224   3.434
75648W        W47908  25.561  25.464   4.073
75649W        W47909   4.613   2.027   5.353
75650W        W47910  35.360  38.937  14.263
75651W        W47911  30.212  34.370  12.409
75652W        W47912  39.928  40.903  10.736
75653W        W47913  40.305  27.754  13.446
75654W        W47914  30.975  31.099   3.630
75655W        W47915  19.794   3.661  13.964
75656W        W47916  16.280   0.406  14.256
75657W        W47917  34.075  15.728   3.773
75658W        W47918  28.496  19.322   4.090
75659W        W47919   9.366  31.893   3.194
75660W        W47920  39.950  25.117  12.562
75661W        W47921  23.580  43.767   4.643
75662W        W47922  20.022  41.844   4.772
75663W        W47923  21.126  27.791  14.021
75664W        W47924  15.369   7.997   3.591
75665W        W47925  19.248   7.553   3.776
75666W        W47926  11.739  13.458  14.669
75667W        W47927  17.905   2.519  11.908
75668W        W47928  42.283  35.470   0.342
75669W        W47929  34.334  41.790   0.205
75670W        W47930  32.179  17.188  13.766
75671W        W47931  41.422  20.510  12.569
75672W        W47932   5.716  37.958   2.412
75673W        W47933  17.446   9.354   3.101
75674W        W47934   4.429  31.018  14.397
75675W        W47935  34.872  28.152   5.148
75676W        W47936  32.259   6.262   2.098
75677W        W47937  21.133   0.667  14.002
75678W        W47938   9.166   1.470   4.458
75679W        W47939  10.929  39.533  11.943
75680W        W47940  22.689  25.251  13.613
75681W        W47941  33.535  42.284   0.251
75682W        W47942  33.455  25.745   4.235
75683W        W47943  43.388  39.575   0.355
75684W        W47944  18.158  16.911   0.875
75685W        W47945  18.998  25.739   3.493
75686W        W47946  26.966  19.751  11.077
75687W        W47947  24.549  27.087   1.125
75688W        W47948  12.619   6.930  14.866
75689W        W47949   6.468   7.234   2.229
75690W        W47950  25.927  19.429  10.275
75691W        W47951  30.564  28.509   3.186
75692W        W47952  25.935  15.649  14.738
75693W        W47953  40.993  30.089   2.660
75694W        W47954  40.800  17.672  11.139
75695W        W47955  39.368  36.110   3.618
75696W        W47956  11.313  19.684  13.429
75697W        W47957  39.467  38.135  14.862
75698W        W47958  42.614   9.869   1.889
75699W        W47959  11.748  44.396   3.158
75700W        W47960  40.790  35.412  12.339
75701W        W47961  22.206  30.644   4.658
75702W        W47962   9.886  12.188   1.262
75703W        W47963  20.353  20.034   3.603
75704W        W47964  30.373  44.787  13.233
75705W        W47965  14.944  10.613   2.126
75706W        W47966   6.943  20.218   0.422
75707W        W47967   6.264  25.931   2.846
75708W        W47968   3.166  13.550  12.093
75709W        W47969  42.743  41.803   4.648
75710W        W47970  30.038  20.291  10.786
75711W        W47971   0.986  20.258  12.479
75712W        W47972  24.608  11.172  14.870
75713W        W47973   7.272  43.568  11.289
75714W        W47974  39.933  37.401  11.693
75715W        W47975  37.887   4.320   4.290
75716W        W47976  38.767  44.801  13.064
75717W        W47977  44.526  15.137   1.398
75718W        W47978  31.288  14.190   1.506
75719W        W47979   5.491  30.612  13.930
75720W        W47980  13.052  16.290  11.730
75721W        W47981   6.514  39.688  14.377
75722W        W47982   5.630  33.539   4.092
75723W        W47983  10.126   6.347   0.341
75724W        W47984  31.661  34.859   4.188
75725W        W47985   6.430  42.118  12.639
75726W        W47986   2.559  23.055   3.166
75727W        W47987  27.430  41.794  12.489
75728W        W47988  30.026  29.941   0.026
75729W        W47989  44.639  17.038   0.931
75730W        W47990  13.603  24.528   0.069
75731W        W47991  22.426  15.118  12.643
75732W        W47992   0.307   0.561   1.418
75733W        W47993  41.000  23.515  14.914
75734W        W47994   5.241  20.885  10.706
75735W        W47995  44.868  27.664   3.137
75736W        W47996  14.486   7.820  12.191
75737W        W47997  21.653  10.418  13.742
75738W        W47998  27.651   4.698   0.800
75739W        W47999   1.017   4.201   3.223
75740W        W48000  10.232  17.218   2.139
75741W        W48001  12.239   9.709   2.921
75742W        W48002   5.481  22.632   3.964
75743W        W48003  10.309   0.057  13.577
75744W        W48004  32.473   7.859   0.225
75745W        W48005   6.373  10.832   4.555
75746W        W48006  39.832  24.579  10.653
75747W        W48007  36.299  37.988   2.348
75748W        W48008  44.984  29.126   3.277
75749W        W48009  21.223  21.197  11.162
75750W        W48010  20.181  34.174  13.845
75751W        W48011  29.665  21.318  13.444
75752W        W48012  37.219  20.662   3.416
75753W        W48013  12.381  40.525   2.473
75754W        W48014  30.485  37.775   3.554
75755W        W48015  44.932  38.424  13.080
75756W        W48016  35.963   9.561  12.839
75757W        W48017  24.384  11.983   5.014
75758W        W48018  39.381  31.930   4.909
75759W        W48019  31.657  40.097   2.656
75760W        W48020  26.100  38.401   2.688
75761W        W48021  15.137  17.559   9.499
75762W        W48022  24.684  32.007  14.335
75763W        W48023  23.309   6.843  12.046
75764W        W48024  12.208  39.506  14.115
75765W        W48025  13.840  36.479  14.462
75766W        W48026  21.181  11.214  11.136
75767W        W48027   8.021   4.367  13.054
75768W        W48028  41.321  18.743   3.386
75769W        W48029  11.701   3.937   1.391
75770W        W48030  18.190  15.114   1.954
75771W        W48031  24.972  29.144   2.006
75772W        W48032  28.471   3.297   0.536
75773W        W48033  29.136  37.513   3.406
75774W        W48034   9.672  36.421   2.313
75775W        W48035  16.809  36.634  12.919
75776W        W48036  23.423  40.519   2.186
75777W        W48037  34.067  18.227   2.449
75778W        W48038  26.198  28.630  13.954
75779W        W48039  37.096  31.405  12.531
75780W        W48040   5.815  35.906   1.173
75781W        W48041  32.351  42.497  13.005
75782W        W48042  38.043   8.819   1.691
75783W        W48043  23.162  26.897   0.507
75784W        W48044  27.058  37.010  10.585
75785W        W48045  23.970  10.419   4.984
75786W        W48046  43.369  35.683   1.792
75787W        W48047  27.652   8.038   2.873
75788W        W48048   7.851   8.820  13.158
75789W        W48049  40.467  23.437  12.141
75790W        W48050  28.856   6.759   2.683
75791W        W48051   9.455  24.075  14.826
75792W        W48052  41.444   5.690  11.492
75793W        W48053   7.938   5.471  11.180
75794W        W48054  40.840   0.002   3.860
75795W        W48055  38.013   8.153  12.967
75796W        W48056  22.608  18.060   1.704
75797W        W48057  17.756  39.976   2.576
75798W        W48058  32.901   6.478  14.920
75799W        W48059  36.002   0.545   4.208
75800W        W48060  13.451  24.759   3.693
75801W        W48061  22.803  22.765  14.986
75802W        W48062  31.042  44.826   4.390
75803W        W48063  42.431  41.775  10.953
75804W        W48064  22.188   9.717   1.692
75805W        W48065  15.562  16.311   2.837
75806W        W48066  39.213   9.386   0.536
75807W        W48067  12.024  43.745  14.940
75808W        W48068   1.680  26.909  12.461
75809W        W48069   0.467  13.728   4.463
75810W        W48070   9.565  21.536  13.924
75811W        W48071   4.887   9.572  10.582
75812W        W48072  17.375  21.158   1.792
75813W        W48073  13.869  21.916  14.715
75814W        W48074  13.687  38.076   3.868
75815W        W48075   7.247  43.355   4.197
75816W        W48076  11.242  21.619  12.556
75817W        W48077  10.453  36.954  14.768
75818W        W48078  17.766  36.332   2.767
75819W        W48079  38.438  44.741  12.191
75820W        W48080  35.522  23.093  14.686
75821W        W48081   7.225  27.350   2.844
75822W        W48082   0.886   4.730   5.101
75823W        W48083  25.611  17.179   4.960
75824W        W48084  11.361  40.483   2.216
75825W        W48085  19.717   5.668   3.365
75826W        W48086   6.740  10.249   0.872
75827W        W48087   3.954  18.161   0.462
75828W        W48088  34.668  24.517  10.283
75829W        W48089   5.865   2.846  14.931
75830W        W48090   7.685   9.106  12.186
75831W        W48091   6.670  14.722   2.266
75832W        W48092  10.830   2.396   1.108
75833W        W48093  22.393  17.314  12.164
75834W        W48094  29.464  30.583   4.046
75835W        W48095  43.972   9.871   0.513
75836W        W48096   6.159   7.744   2.463
75837W        W48097  13.262  32.982   1.899
75838W        W48098   6.481  26.089   4.687
75839W        W48099   7.754   3.847   1.831
75840W        W48100  32.522  21.672   3.293
75841W        W48101  33.095  14.956   1.816
75842W        W48102  21.201  31.716  13.425
75843W        W48103  26.757  15.597  11.044
75844W        W48104  44.144  15.887  13.000
75845W        W48105  16.074   2.322  14.286
75846W        W48106  28.244  39.702   4.555
75847W        W48107  25.747  21.685  11.443
75848W        W48108  26.871  43.744   4.085
75849W        W48109  42.887  36.286   4.911
75850W        W48110  25.192  33.079   1.726
75851W        W48111   3.990  20.793  14.058
75852W        W48112  26.163  34.722  11.674
75853W        W48113   1.449   2.219   2.925
75854W        W48114  28.417  11.272   4.132
75855W        W48115  26.356  17.527   1.259
75856W        W48116  32.659  17.902   5.064
75857W        W48117  29.555  29.663   2.707
75858W        W48118  35.960  27.569   1.321
75859W        W48119  35.387   1.514  12.379
75860W        W48120  35.102  16.260  11.008
75861W        W48121  30.517  24.562   3.205
75862W        W48122  41.702   6.159   4.996
75863W        W48123  38.943   1.328  13.243
75864W        W48124   8.178   7.154   4.124
75865W        W48125  27.517  36.862  13.619
75866W        W48126   7.633  20.292   1.600
75867W        W48127  32.561  20.195  10.823
75868W        W48128  39.949  28.089   4.254
75869W        W48129  41.491  25.479   3.540
75870W        W48130  38.594  39.037   0.954
75871W        W48131   7.889  40.051   1.796
75872W        W48132  33.421  31.383  14.925
75873W        W48133  34.031   5.936   2.801
75874W        W48134  14.499  43.759  11.111
75875W        W48135  38.489  39.676  10.738
75876W        W48136   0.805  16.817  10.844
75877W        W48137   8.678  28.150   3.070
75878W        W48138   2.071  31.831  14.447
75879W        W48139   3.399  44.960  13.775
75880W        W48140  24.731   2.690   3.611
75881W        W48141  37.927   3.187   0.819
75882W        W48142  10.267  24.808   3.160
75883W        W48143   4.942  35.394  11.968
75884W        W48144  43.258  43.657   1.802
75885W        W48145  27.870  41.930  11.071
75886W        W48146  41.039  32.518   3.805
75887W        W48147  39.831  39.378   2.393
75888W        W48148  28.026  20.202  10.681
75889W        W48149  31.088  18.846   3.748
75890W        W48150  43.652  21.695   0.555
75891W        W48151  39.703   3.389   4.236
75892W        W48152   6.117  17.938   2.309
75893W        W48153  30.584  18.260   4.257
75894W        W48154  27.356  35.561   0.940
75895W        W48155  11.411  24.064   4.414
75896W        W48156  26.433  36.909   0.862
75897W        W48157  30.751  11.851  12.221
75898W        W48158   6.281   4.888   2.905
75899W        W48159  38.826  14.552  11.170
75900W        W48160  20.948  16.800   5.174
75901W        W48161  37.147  15.185  12.455
75902W        W48162  27.951  29.092   0.805
75903W        W48163  40.082  16.236   1.495
75904W        W48164  37.349  10.867  12.130
75905W        W48165   1.566  36.024   2.258
75906W        W48166  41.614  14.323   1.746
75907W        W48167  29.365  38.806  12.505
75908W        W48168  24.476  36.049   4.271
75909W        W48169   6.831  31.456  10.744
75910W        W48170  12.148   9.191  11.567
75911W        W48171  19.737  26.455   4.117
75912W        W48172  34.620  28.554   1.531
75913W        W48173  39.725  10.321  14.429
75914W        W48174  41.046  26.688  13.533
75915W        W48175   6.462   1.781  10.689
75916W        W48176  19.750  25.421  11.106
75917W        W48177  41.770   3.288   2.845
75918W        W48178  30.399  17.072   4.095
75919W        W48179  23.231  41.957  14.451
75920W        W48180  43.851   0.850   1.667
75921W        W48181  35.878  13.258  11.032
75922W        W48182  22.828   1.472  14.355
75923W        W48183  29.168   6.955   1.752
75924W        W48184  40.022  44.655  11.564
75925W        W48185  14.316  43.055   1.769
75926W        W48186   6.625  33.365  10.439
75927W        W48187   9.338  35.960   2.248
75928W        W48188  28.436  12.291   4.108
75929W        W48189  43.565   4.493  13.509
75930W        W48190  29.068  40.346   0.055
75931W        W48191   6.034  13.692   3.713
75932W        W48192  30.874  40.810  12.138
75933W        W48193  12.839  27.290  12.843
75934W        W48194  38.378  44.215  14.455
75935W        W48195  13.556   1.820  12.060
75936W        W48196   5.254  12.104   1.280
75937W        W48197  13.136  37.118  13.275
75938W        W48198   9.316   8.194  10.697
75939W        W48199  31.159  42.035   4.122
75940W        W48200   6.762   4.334   1.466
75941W        W48201   5.322  43.293   0.371
75942W        W48202  17.813   2.291  12.388
75943W        W48203  33.466  39.959  14.961
75944W        W48204   1.710   1.212  10.686
75945W        W48205  41.443   6.809  12.514
75946W        W48206  40.391   1.802   1.916
75947W        W48207  10.397  19.511   1.442
75948W        W48208  28.241  37.142  12.497
75949W        W48209  38.606  41.349  11.935
75950W        W48210  43.879  22.187  11.640
75951W        W48211  26.198  20.288   0.856
75952W        W48212  33.561  31.587   2.666
75953W        W48213  23.926   3.759   3.837
75954W        W48214   7.852  16.821  14.011
75955W        W48215  19.494   9.814  14.830
75956W        W48216   6.379  40.367   4.638
75957W        W48217  43.563  12.826  13.363
75958W        W48218  18.855  43.807  12.000
75959W        W48219  26.540  21.116   4.231
75960W        W48220   3.245  16.823  11.145
75961W        W48221  21.887   1.465  14.496
75962W        W48222  19.028  44.381   0.596
75963W        W48223  35.403  29.570  12.458
75964W        W48224  43.686   9.694   3.328
75965W        W48225  16.582  36.577  11.657
75966W        W48226   7.848   3.396  14.409
75967W        W48227  30.013   8.837   1.418
75968W        W48228  29.016  22.895   3.932
75969W        W48229   2.535   2.118  10.788
75970W        W48230   1.952  27.943   2.549
75971W        W48231   4.223  32.482  13.758
75972W        W48232   5.624  40.534  14.797
75973W        W48233   4.310  19.505   3.259
75974W        W48234  27.838  10.822  11.485
75975W        W48235  33.354  17.013  12.445
75976W        W48236  34.338  17.896  13.060
75977W        W48237   4.511  15.155   1.907
75978W        W48238   2.220  15.231   3.756
75979W        W48239  24.102  35.539  14.261
75980W        W48240  19.344   0.349   4.149
75981W        W48241  23.925  27.633  13.964
75982W        W48242  13.260  12.370  13.497
75983W        W48243  17.743  27.563  14.978
75984W        W48244  44.293  44.408   2.241
75985W        W48245   6.616   6.735   0.415
75986W        W48246  24.233  11.329  12.077
75987W        W48247  34.440  24.618  13.343
75988W        W48248  36.593  28.976   0.867
75989W        W48249  38.049  22.806   2.393
75990W        W48250  25.179  21.259   1.839
75991W        W48251  43.369  13.634  12.760
75992W        W48252   7.606  13.668   1.373
75993W        W48253  19.742  34.440  12.055
75994W        W48254  28.914  19.749   0.425
75995W        W48255  31.701  32.595  10.834
75996W        W48256  17.721  39.305  12.455
75997W        W48257  19.102  28.695  10.753
75998W        W48258  33.982  43.524  14.918
75999W        W48259  43.377  10.167   3.512
76000W        W48260  16.772  34.070  14.274
76001W        W48261  38.595  36.983  11.540
76002W        W48262   5.750  42.507   2.486
76003W        W48263  25.140  36.525  11.035
76004W        W48264  36.534  34.151  13.327
76005W        W48265  27.795  11.238   3.208
76006W        W48266  38.982   5.503  10.768
76007W        W48267   0.903  20.693   0.908
76008W        W48268  13.597  18.203  14.484
76009W        W48269  39.981  26.206   2.472
76010W        W48270  15.746  25.533  13.011
76011W        W48271  27.643   6.769  12.916
76012W        W48272  23.197  43.475  13.485
76013W        W48273  19.669  18.068   1.718
76014W        W48274  29.221  18.158  13.822
76015W        W48275  39.937  27.992  11.682
76016W        W48276  43.632   1.736   1.597
76017W        W48277  32.669   1.412   4.583
76018W        W48278  13.991   5.954  10.843
76019W        W48279  39.425  37.549  14.900
76020W        W48280   4.694  12.597  10.695
76021W        W48281  43.728  18.031  13.557
76022W        W48282   6.818  43.449  11.608
76023W        W48283  42.381  35.992  12.576
76024W        W48284  38.564  41.574   2.262
76025W        W48285  25.907  42.503   4.332
76026W        W48286  35.643  11.334  10.690
76027W        W48287   7.136  27.970   4.089
76028W        W48288  42.263  39.803  12.030
76029W        W48289  17.048  42.745   1.724
76030W        W48290  41.857  15.221   4.589
76031W        W48291  27.987   2.312   2.038
76032W        W48292  10.750   3.421  12.859
76033W        W48293  21.744  41.085  14.387
76034W        W48294  26.935  28.023  10.758
76035W        W48295  16.756  37.955   2.279
76036W        W48296   8.613  31.114  14.503
76037W        W48297  10.130  31.480  11.161
76038W        W48298  34.968  27.638  12.029
76039W        W48299  16.271  20.695   0.671
76040W        W48300  22.467  14.620   0.761
76041W        W48301  43.377  17.535   2.271
76042W        W48302   8.593  13.642   1.943
76043W        W48303  44.396  42.393   4.753
76044W        W48304   3.836  11.214   1.553
76045W        W48305  19.172   6.661  13.559
76046W        W48306   1.252   3.583  11.741
76047W        W48307  18.167  12.102  12.881
76048W        W48308  11.030  29.960  12.477
76049W        W48309   9.716  24.244   1.889
76050W        W48310   3.935  30.032   1.745
76051W        W48311  17.606  24.238   3.413
76052W        W48312  37.645  33.077  11.126
76053W        W48313  11.738  37.985   4.657
76054W        W48314  23.962   8.446   4.501
76055W        W48315   6.468   5.963  12.588
76056W        W48316   8.704  27.640   0.312
76057W        W48317  20.415  19.825   3.134
76058W        W48318  41.468  30.408   0.763
76059W        W48319  36.006  29.129  14.131
76060W        W48320  30.412  44.904  11.738
76061W        W48321  14.325  43.303  11.944
76062W        W48322  23.997   9.916  13.304
76063W        W48323  24.578  12.223   4.146
76064W        W48324   1.203  21.669  11.609
76065W        W48325   2.631  34.120   0.811
76066W        W48326  33.850  35.024  10.168
76067W        W48327  20.941   1.289  12.046
76068W        W48328   6.278  35.451  10.266
76069W        W48329  27.389  16.058   4.566
76070W        W48330  43.744  27.613  12.388
76071W        W48331  11.664  31.694  12.910
76072W        W48332   0.847  38.595   3.669
76073W        W48333  20.760   5.127   0.233
76074W        W48334   1.014  24.110   2.170
76075W        W48335  10.625  13.359   3.248
76076W        W48336  18.144   7.444  13.840
76077W        W48337  38.952  19.701  12.849
76078W        W48338  42.552  11.057   0.255
76079W        W48339  18.037  20.219  12.085
76080W        W48340  22.498  29.653  12.360
76081W        W48341  22.734   6.317   9.968
76082W        W48342  34.035   1.679  11.416
76083W        W48343   9.099  35.102  13.347
76084W        W48344  32.682  35.477   1.816
76085W        W48345   9.646  12.112   0.786
76086W        W48346  22.764  21.568  11.486
76087W        W48347  21.672  18.852   4.897
76088W        W48348  33.692  14.918  12.479
76089W        W48349   4.247  10.203  12.354
76090W        W48350  19.305   8.327   0.664
76091W        W48351   8.788   4.884  12.276
76092W        W48352   5.965  34.023  12.429
76093W        W48353  38.453  16.928  14.084
76094W        W48354  10.537  42.201  13.877
76095W        W48355  41.963  16.621  14.796
76096W        W48356   6.086  16.647  11.700
76097W        W48357  44.920  20.194  11.579
76098W        W48358  25.292  28.548  12.793
76099W        W48359   0.305  23.223   4.415
76100W        W48360   8.965  24.012  14.792
76101W        W48361  18.337  19.359  11.708
76102W        W48362  19.033  10.338  12.169
76103W        W48363   8.397  11.605  11.082
76104W        W48364  44.683  40.440   2.353
76105W        W48365  35.217  40.819  14.523
76106W        W48366   9.960  23.137  13.098
76107W        W48367   7.423  23.447  11.683
76108W        W48368  35.971   1.684   1.783
76109W        W48369  19.425  44.042  11.208
76110W        W48370   6.401  12.100  12.513
76111W        W48371  31.532  12.296   4.105
76112W        W48372  37.125  12.227  13.349
76113W        W48373  35.519  42.289  14.725
76114W        W48374  26.290  28.967   4.146
76115W        W48375   2.950  10.740   4.750
76116W        W48376   3.726  21.162   0.839
76117W        W48377   5.732  13.804   3.226
76118W        W48378  42.237  34.847  12.442
76119W        W48379  30.211  26.436  14.833
76120W        W48380  19.201  30.493   1.412
76121W        W48381   5.508   0.317   1.882
76122W        W48382  24.006  40.237  12.924
76123W        W48383  44.931  27.114  12.533
76124W        W48384  23.046  42.929   3.120
76125W        W48385  32.124  30.428   1.339
76126W        W48386  27.462   2.367  12.883
76127W        W48387  15.482   9.335   2.446
76128W        W48388   7.247  42.556  10.662
76129W        W48389  16.050  37.960   2.693
76130W        W48390  33.085  16.785   0.976
76131W        W48391  26.940  27.592   4.774
76132W        W48392  21.025  35.535   0.937
76133W        W48393  30.707   5.011   0.988
76134W        W48394  24.585  26.858  10.165
76135W        W48395   2.186  30.345   3.351
76136W        W48396  30.982  15.155   3.174
76137W        W48397  31.307  32.956  10.959
76138W        W48398  20.363  21.733  11.131
76139W        W48399  27.641  24.973  10.917
76140W        W48400  39.011  21.132   2.297
76141W        W48401  21.789  16.221   1.956
76142W        W48402   9.195  44.650   0.949
76143W        W48403  43.508  14.132  12.732
76144W        W48404  29.936  15.328   0.394
76145W        W48405  35.687   9.084   2.682
76146W        W48406  44.855  25.508  13.785
76147W        W48407  27.719   8.160  11.589
76148W        W48408  25.509  26.619  12.049
76149W        W48409   6.458  23.461  13.501
76150W        W48410  40.897  23.246   4.490
76151W        W48411  31.733  34.817  13.387
76152W        W48412  32.875   9.273   2.908
76153W        W48413  40.913  18.914   3.660
76154W        W48414  28.498   7.613  13.392
76155W        W48415  10.021  28.037   1.742
76156W        W48416   8.782   8.290  12.498
76157W        W48417  13.329  39.510  11.486
76158W        W48418  36.614  36.564   0.064
76159W        W48419  29.041  28.886  13.957
76160W        W48420  12.145   8.899  12.882
76161W        W48421   8.865  24.755  12.016
76162W        W48422  39.135  24.007   1.187
76163W        W48423  41.298   5.994   2.741
76164W        W48424  30.106  25.098   1.429
76165W        W48425   0.754  20.767  11.628
76166W        W48426  23.292   1.331  14.521
76167W        W48427  15.076   4.371   1.757
76168W        W48428  38.661   9.444  10.385
76169W        W48429  14.982   3.346  14.279
76170W        W48430   9.783  34.863   4.116
76171W        W48431  25.260  26.108   2.321
76172W        W48432  27.731  22.528   1.808
76173W        W48433  40.374  37.073  14.516
76174W        W48434  38.028  31.963  11.602
76175W        W48435  33.173   8.717   1.751
76176W        W48436  22.131  37.600  11.476
76177W        W48437  43.393   6.171  10.654
76178W        W48438  18.018  24.111   3.110
76179W        W48439  18.755  10.642   2.327
76180W        W48440  35.609  30.634   2.424
76181W        W48441   2.498  23.635   4.390
76182W        W48442  37.767  41.540   0.733
76183W        W48443  25.137  28.108  14.724
76184W        W48444  14.909  43.534   2.281
76185W        W48445  20.285   0.868  13.628
76186W        W48446   2.654  13.390  13.401
76187W        W48447   5.603   2.215  13.037
76188W        W48448  20.929   0.712  11.245
76189W        W48449  20.201   5.319   2.726
76190W        W48450   6.080   2.643   4.410
76191W        W48451  14.310   3.837   0.843
76192W        W48452  36.517   3.408   4.632
76193W        W48453  19.891  40.547  12.222
76194W        W48454  32.440  42.932  10.559
76195W        W48455  43.261  40.805  11.155
76196W        W48456  33.400   6.709  14.734
76197W        W48457   9.615  29.659  12.576
76198W        W48458  41.503   4.770   1.010
76199W        W48459  19.015  11.395  11.573
76200W        W48460  14.205  36.772   0.328
76201W        W48461  36.598  40.337   4.558
76202W        W48462   7.132  10.854  10.780
76203W        W48463   3.995  34.923   1.705
76204W        W48464  40.335  43.316  12.445
76205W        W48465  37.807  20.509   4.033
76206W        W48466  18.754  17.624  11.966
76207W        W48467  34.458  16.598  11.041
76208W        W48468  39.066  44.918  14.992
76209W        W48469  18.638   7.387   4.155
76210W        W48470  35.503   2.293   1.396
76211W        W48471  40.433  42.323   1.726
76212W        W48472   9.838   3.889  14.971
76213W        W48473  12.603  44.915   0.728
76214W        W48474  43.008   8.148   4.230
76215W        W48475  31.652  10.820  14.432
76216W        W48476  29.190   0.443  10.832
76217W        W48477  28.018   4.589  10.730
76218W        W48478  22.909  22.115  10.189
76219W        W48479  13.534  44.922   4.237
76220W        W48480  41.011  38.568   1.316
76221W        W48481  24.658  41.784   3.233
76222W        W48482   3.654  42.939  10.808
76223W        W48483  13.359  17.280  13.924
76224W        W48484  16.799  12.009  12.505
76225W        W48485  35.950  44.567   4.139
76226W        W48486  26.127   7.237   1.660
76227W        W48487  32.553  25.126   2.212
76228W        W48488   4.402  32.921   2.399
76229W        W48489  42.724   0.161   1.839
76230W        W48490  14.375  27.468   9.627
76231W        W48491   6.356  43.420   0.432
76232W        W48492  26.808  26.416  11.081
76233W        W48493  16.974  12.733   0.269
76234W        W48494  34.441  26.465   3.730
76235W        W48495  38.894  24.644  12.528
76236W        W48496  33.494  33.191   4.223
76237W        W48497  25.189  39.734  14.295
76238W        W48498   1.404  37.952   2.075
76239W        W48499  26.057  27.936  10.529
76240W        W48500  12.715  37.403   1.111
76241W        W48501  19.732   0.181  14.865
76242W        W48502  41.992  19.014   2.978
76243W        W48503  28.615  31.336  10.582
76244W        W48504   3.695   2.149  12.979
76245W        W48505  35.480  30.598   4.371
76246W        W48506  28.932   5.363   2.895
76247W        W48507  42.865  20.366   4.109
76248W        W48508  26.719  28.961   4.445
76249W        W48509   4.505  33.657   0.857
76250W        W48510  16.255  38.363  13.318
76251W        W48511   9.316   7.746   4.055
76252W        W48512  37.284  17.572  11.456
76253W        W48513  26.796   6.419  11.213
76254W        W48514  11.543  34.888  12.093
76255W        W48515  15.086  41.230  13.263
76256W        W48516  21.149  13.094   2.274
76257W        W48517  39.264  10.078  11.838
76258W        W48518  22.418  27.955  14.245
76259W        W48519  20.289   7.002  14.825
76260W        W48520  25.502  38.572   0.451
76261W        W48521  13.728  20.819   3.830
76262W        W48522   1.620   0.337  13.557
76263W        W48523  44.323   8.076  13.372
76264W        W48524   4.293   6.854  10.738
76265W        W48525  41.340  42.507  11.734
76266W        W48526   8.120  24.963  10.446
76267W        W48527  29.855  32.945   1.879
76268W        W48528  16.294  19.999   3.225
76269W        W48529  22.175  21.305   1.462
76270W        W48530   3.772   4.023  10.659
76271W        W48531  10.633  19.598  14.062
76272W        W48532  19.168  38.282  14.280
76273W        W48533  20.041  44.048   4.667
76274W        W48534  38.118   9.887   5.034
76275W        W48535  33.075  42.639  10.486
76276W        W48536  44.170   5.926  10.301
76277W        W48537  28.942  17.224  10.388
76278W        W48538   1.775  18.027   4.814
76279W        W48539  13.885  19.183  11.180
76280W        W48540  13.237  30.973  14.957
76281W        W48541  26.366  10.924   2.056
76282W        W48542   7.277   6.283  12.528
76283W        W48543  20.718  31.896   4.845
76284W        W48544  40.253   0.096   3.208
76285W        W48545  34.788  31.536  13.584
76286W        W48546  21.399  36.738   3.294
76287W        W48547   1.681  40.623   5.244
76288W        W48548  19.991  27.947   1.908
76289W        W48549   7.108  38.713  11.573
76290W        W48550  39.860  26.622   3.720
76291W        W48551  40.923  27.008   2.776
76292W        W48552   9.273  31.358  13.014
76293W        W48553  25.052  23.102  10.438
76294W        W48554  43.438  34.495  12.450
76295W        W48555  18.085  15.159  11.332
76296W        W48556  28.702  32.491   2.363
76297W        W48557  22.001  25.390   9.696
76298W        W48558  10.145   4.765  11.885
76299W        W48559  13.907   9.774  12.793
76300W        W48560   2.807  29.886  11.176
76301W        W48561   8.322  36.487  11.117
76302W        W48562  25.462  12.301   3.922
76303W        W48563  20.522  42.940  10.556
76304W        W48564  29.876  24.092  13.972
76305W        W48565   5.803  11.588  12.909
76306W        W48566  26.254  36.325   2.257
76307W        W48567  28.669  25.260   2.279
76308W        W48568  21.278   1.481  12.386
76309W        W48569  17.330  39.012  13.902
76310W        W48570  22.001  19.515  13.284
76311W        W48571  34.999  25.155  10.872
76312W        W48572  44.530  35.433   2.289
76313W        W48573  15.343  11.680   3.196
76314W        W48574   6.878  36.066  13.338
76315W        W48575  41.908  26.711   0.005
76316W        W48576  37.632  41.088  10.700
76317W        W48577   1.297   2.432  14.894
76318W        W48578  37.842  22.247  13.528
76319W        W48579  31.434  28.354  14.433
76320W        W48580  22.621  40.178  13.109
76321W        W48581  24.250   3.741  11.150
76322W        W48582  16.538   8.946  13.008
76323W        W48583   2.550   8.481   2.527
76324W        W48584  38.936   6.423   0.243
76325W        W48585   2.501  22.129   2.785
76326W        W48586  29.545   5.704  11.876
76327W        W48587   6.849  12.769   0.933
76328W        W48588  35.860  15.809  11.439
76329W        W48589  13.724  19.069   2.377
76330W        W48590   1.516   3.224   4.616
76331W        W48591   6.623  27.437  14.179
76332W        W48592  20.886  39.796  10.720
76333W        W48593  28.300   8.838  10.245
76334W        W48594  44.573  24.665   0.847
76335W        W48595  10.792   0.858  14.752
76336W        W48596  10.896  38.953   3.223
76337W        W48597   8.226   5.564  11.897
76338W        W48598  31.965  31.563  12.748
76339W        W48599  11.749  22.516  12.448
76340W        W48600  36.922  41.512   2.718
76341W        W48601  13.147  16.839   3.279
76342W        W48602  14.912  44.850   0.894
76343W        W48603  33.688  17.979   0.226
76344W        W48604  25.141  20.105   5.064
76345W        W48605  29.687  14.736   3.152
76346W        W48606  42.387  30.877  10.649
76347W        W48607  28.387  34.830   1.375
76348W        W48608  41.874  29.871  14.006
76349W        W48609  25.045  35.371  14.562
76350W        W48610  21.634  33.413  13.094
76351W        W48611   9.851  25.502  11.562
76352W        W48612  29.651  23.145   3.671
76353W        W48613  33.184  20.532  13.041
76354W        W48614  39.922   1.562  12.277
76355W        W48615  18.511  15.187  11.666
76356W        W48616  16.600  26.534   3.105
76357W        W48617  21.654  23.516  14.053
76358W        W48618   5.656  27.323   5.077
76359W        W48619   7.760   5.014  11.336
76360W        W48620  41.425   4.780  13.620
76361W        W48621  21.413  34.409   0.181
76362W        W48622  33.223   9.541  13.078
76363W        W48623  28.053  42.778   4.633
76364W        W48624   5.340   7.761   0.883
76365W        W48625  16.255   1.010   0.695
76366W        W48626  10.888   0.281   3.895
76367W        W48627  42.492   2.143  11.445
76368W        W48628   0.169  27.714   2.364
76369W        W48629  27.884  37.919  11.680
76370W        W48630  15.980  16.261   0.449
76371W        W48631  10.158   8.286  12.420
76372W        W48632  43.806  40.396  11.419
76373W        W48633  37.576  39.082   4.964
76374W        W48634  35.053  33.212  14.410
76375W        W48635  33.642  11.114   3.596
76376W        W48636  37.695  19.551   0.127
76377W        W48637  39.941   4.367   3.428
76378W        W48638  10.076  28.390  12.723
76379W        W48639  17.777  42.677  11.139
76380W        W48640  37.743  10.142  14.585
76381W        W48641   6.748  33.784   4.701
76382W        W48642   2.660  35.375   4.156
76383W        W48643  27.330  19.314   1.006
76384W        W48644   0.107   3.157  11.336
76385W        W48645   0.242  19.185   3.169
76386W        W48646  12.382  12.197   0.894
76387W        W48647   2.336  16.112  12.323
76388W        W48648  34.877  12.581   1.421
76389W        W48649  28.856  34.904  12.490
76390W        W48650  37.259  27.940   0.797
76391W        W48651  27.614  36.112  13.049
76392W        W48652  44.323   5.397   2.457
76393W        W48653   5.995  34.624   1.837
76394W        W48654  40.368  39.874   4.212
76395W        W48655   8.140  12.772  14.443
76396W        W48656  10.767  32.867  11.647
76397W        W48657  16.512  31.049  14.278
76398W        W48658   8.240   5.912  14.052
76399W        W48659  22.927  25.172   3.147
76400W        W48660  44.041   1.009   1.188
76401W        W48661  35.785   0.751  13.535
76402W        W48662  43.905  26.441   2.853
76403W        W48663   1.524  37.100  13.985
76404W        W48664   0.324  23.652   2.357
76405W        W48665  29.224  27.885   0.073
76406W        W48666  43.514  19.025  13.471
76407W        W48667  33.126  42.984  14.999
76408W        W48668  34.965  36.285   4.971
76409W        W48669  29.094  37.940  12.525
76410W        W48670   5.363   1.439  14.395
76411W        W48671  38.478   0.925   3.166
76412W        W48672  12.230  37.423   0.826
76413W        W48673  37.348  21.963  13.464
76414W        W48674  34.899  13.375   0.906
76415W        W48675  18.432   9.778   1.966
76416W        W48676   8.019  27.454   5.437
76417W        W48677  38.505  31.044   3.125
76418W        W48678  30.197   6.655   0.431
76419W        W48679  28.426  31.591  12.339
76420W        W48680  11.237   4.172   1.426
76421W        W48681  40.938   0.311   0.629
76422W        W48682  42.543  35.227  14.895
76423W        W48683  44.749  26.235  11.106
76424W        W48684  20.204  40.361   4.073
76425W        W48685  41.415  39.902  13.978
76426W        W48686   2.872   2.134   1.253
76427W        W48687  18.723  35.866  14.891
76428W        W48688  32.918  42.162  11.255
76429W        W48689  21.054  43.332  14.047
76430W        W48690  40.985   8.256   3.322
76431W        W48691  11.932  39.700   1.904
76432W        W48692  19.757  39.018  13.296
76433W        W48693  37.373  16.461  14.826
76434W        W48694  34.414  43.795  14.963
76435W        W48695  24.997  20.763  13.581
76436W        W48696  29.931  10.665  13.849
76437W        W48697  34.421  11.246   1.741
76438W        W48698  21.979  40.854  12.770
76439W        W48699  11.074  29.000  12.146
76440W        W48700   1.971   6.961  13.431
76441W        W48701  36.590  42.861   4.093
76442W        W48702  10.761  44.728   3.129
76443W        W48703  36.908  19.356  13.865
76444W        W48704  39.863  40.857   0.452
76445W        W48705  34.808   1.201   1.150
76446W        W48706  37.147  28.684  12.106
76447W        W48707  14.843  30.518   5.040
76448W        W48708  10.779   7.921   2.629
76449W        W48709  43.486  15.225   0.399
76450W        W48710  24.560  37.656   4.894
76451W        W48711  41.413  21.069  11.125
76452W        W48712   2.904  44.734  13.665
76453W        W48713  18.261  41.032  11.402
76454W        W48714  28.901  44.639  11.149
76455W        W48715  36.583  17.721   2.702
76456W        W48716   7.699  44.296   0.861
76457W        W48717  21.591  28.723  10.115
76458W        W48718   6.864  39.512   2.412
76459W        W48719   8.204  38.470   2.427
76460W        W48720  39.385  23.466  13.942
76461W        W48721  21.708   8.391  11.196
76462W        W48722  34.541   3.364   2.256
76463W        W48723  28.010  29.693   1.261
76464W        W48724  29.922   3.420  13.492
76465W        W48725  33.535  21.349   4.770
76466W        W48726  24.719  38.548   3.666
76467W        W48727  25.672  21.049   0.797
76468W        W48728  18.649  35.435   4.632
76469W        W48729   0.421   6.214   3.426
76470W        W48730  15.630   0.578   2.812
76471W        W48731  39.274  32.516  13.959
76472W        W48732  16.429   3.019  12.226
76473W        W48733  13.005  44.845   4.201
76474W        W48734  42.776  16.594   1.364
76475W        W48735   8.104  35.145   2.760
76476W        W48736  28.439  41.769   3.292
76477W        W48737  21.517   9.162  11.581
76478W        W48738  10.656   9.926   4.587
76479W        W48739   9.625   1.314  11.999
76480W        W48740  25.105  27.384   2.177
76481W        W48741   4.276  30.735  10.445
76482W        W48742  22.973  10.784  13.899
76483W        W48743  31.632  44.070  13.331
76484W        W48744  38.549  39.159  10.854
76485W        W48745   7.486  40.363   1.824
76486W        W48746  41.807   3.393  13.266
76487W        W48747   5.903  10.629   4.328
76488W        W48748  23.682  23.954  14.920
76489W        W48749  10.879   9.897  14.834
76490W        W48750   0.451  30.107  11.276
76491W        W48751  25.235  13.448  11.109
76492W        W48752  28.850   1.715  13.320
76493W        W48753  21.646  25.292   4.017
76494W        W48754  29.683  41.763   4.076
76495W        W48755   2.268   9.303   3.548
76496W        W48756   9.857  31.377  13.418
76497W        W48757  28.738  30.814  10.534
76498W        W48758  18.255  24.111  13.902
76499W        W48759   5.885  37.018  11.101
76500W        W48760  35.672  10.613   2.656
76501W        W48761  35.074  10.695   1.255
76502W        W48762  21.155  19.826   0.354
76503W        W48763  29.974   8.542   3.106
76504W        W48764  32.661  24.160  13.596
76505W        W48765  11.928   1.998   3.083
76506W        W48766  27.099  36.597   2.247
76507W        W48767  18.536   7.798  13.894
76508W        W48768  24.825  22.052   3.661
76509W        W48769  14.632  14.776  14.979
76510W        W48770  28.546  25.204  14.719
76511W        W48771  19.538  23.955   4.644
76512W        W48772  14.832  14.799   3.685
76513W        W48773   8.767  16.605  14.031
76514W        W48774   1.472   0.561   3.751
76515W        W48775   2.876  20.025   1.338
76516W        W48776   3.714   2.303   0.898
76517W        W48777  24.140  17.602   1.705
76518W        W48778  37.374  36.930  12.955
76519W        W48779  17.823   6.666   0.383
76520W        W48780  18.506  42.488  14.987
76521W        W48781  20.448  24.689  14.930
76522W        W48782  28.694  13.041   3.567
76523W        W48783  10.094  34.898  14.457
76524W        W48784  24.495  16.226  13.880
76525W        W48785  15.463   8.785  14.379
76526W        W48786   2.778  28.842  12.552
76527W        W48787  19.834  23.719  10.732
76528W        W48788   6.384   1.510  14.510
76529W        W48789  24.141  32.939   3.276
76530W        W48790   3.183  44.763  11.848
76531W        W48791  33.038   1.215   2.729
76532W        W48792  44.853  16.597   2.328
76533W        W48793  31.466  41.239   1.914
76534W        W48794  34.690  34.379  14.578
76535W        W48795  32.660  42.915  11.231
76536W        W48796  44.090  17.603   3.587
76537W        W48797   6.753  15.845  10.625
76538W        W48798  19.485  14.699  13.328
76539W        W48799  22.999   8.824   4.187
76540W        W48800  16.105  27.692   2.844
76541W        W48801  36.499  33.409  12.851
76542W        W48802  34.455  41.601   1.816
76543W        W48803  22.776   9.731   2.217
76544W        W48804   1.410  29.938  14.848
76545W        W48805  32.959   9.199  14.054
76546W        W48806  20.308  13.142   1.908
76547W        W48807  34.375  30.882   0.909
76548W        W48808  38.317   1.225   1.792
76549W        W48809  22.762  20.658  12.044
76550W        W48810  27.016  44.032   2.679
76551W        W48811  44.886  21.535   3.345
76552W        W48812  27.628  20.902  12.966
76553W        W48813  21.451  20.665   1.404
76554W        W48814  23.040  42.173   4.672
76555W        W48815   3.837  43.765  12.598
76556W        W48816  27.498  21.023   4.521
76557W        W48817  22.079  11.869   1.401
76558W        W48818  37.816   6.314   2.377
76559W        W48819  12.713  16.597  12.066
76560W        W48820  42.391  28.269   0.205
76561W        W48821  41.845  39.944  11.695
76562W        W48822  36.771  29.068   4.141
76563W        W48823   5.371  41.823   4.478
76564W        W48824  41.799  12.814   5.014
76565W        W48825  24.678   2.882  14.364
76566W        W48826  23.060  40.318   0.388
76567W        W48827   0.453   1.399   2.672
76568W        W48828  26.114  21.151   3.332
76569W        W48829   2.747  37.927  13.855
76570W        W48830  41.425  31.874  13.353
76571W        W48831  43.905  16.213   0.576
76572W        W48832  21.754  29.535  11.109
76573W        W48833  29.419  25.703   2.699
76574W        W48834  34.334  15.048   4.148
76575W        W48835  33.090  31.430  14.445
76576W        W48836  28.046  30.389   5.057
76577W        W48837  31.277   3.927  11.880
76578W        W48838  27.005  41.373  14.908
76579W        W48839  43.993  39.944  11.205
76580W        W48840  39.585  10.794  14.217
76581W        W48841  33.360  19.640  10.650
76582W        W48842  26.397  31.048   3.951
76583W        W48843   3.909   1.761  12.088
76584W        W48844  23.435   9.699  11.117
76585W        W48845   9.169  22.650   2.574
76586W        W48846  41.835   5.885   0.804
76587W        W48847  43.604  15.624  11.197
76588W        W48848  23.217  16.100   2.366
76589W        W48849  28.139  13.155  13.540
76590W        W48850   1.744  28.087   1.056
76591W        W48851   9.421  22.969  11.869
76592W        W48852  34.252   8.723   0.786
76593W        W48853  43.788  18.742   0.193
76594W        W48854  32.600  27.990  10.786
76595W        W48855  10.199  18.292  12.155
76596W        W48856   8.216   0.736  13.560
76597W        W48857  24.615  30.338  14.451
76598W        W48858  10.621  42.050  11.454
76599W        W48859   9.922  13.632   0.434
76600W        W48860  17.558  13.398   3.209
76601W        W48861  30.919  29.892   4.642
76602W        W48862  29.043  42.508  14.487
76603W        W48863  24.199  32.508  11.000
76604W        W48864  37.738  34.272  13.802
76605W        W48865  18.448  13.655  12.587
76606W        W48866  28.444  43.511   1.573
76607W        W48867   8.215  25.125  11.396
76608W        W48868  21.548  29.042   0.827
76609W        W48869   3.461  41.757  12.945
76610W        W48870  18.921  31.903  10.368
76611W        W48871  24.542  35.571   2.684
76612W        W48872  33.613  10.612  13.589
76613W        W48873  13.073  33.949   3.684
76614W        W48874  43.022   8.652   3.089
76615W        W48875  44.925  25.793  14.536
76616W        W48876  39.292   7.104  10.197
76617W        W48877  22.013  38.759  13.534
76618W        W48878  33.644  16.751   3.685
76619W        W48879  34.017  17.795   4.145
76620W        W48880   6.261  39.022   4.990
76621W        W48881  10.073  32.367   1.244
76622W        W48882  15.507  41.927  14.020
76623W        W48883  14.141  10.368   3.287
76624W        W48884  20.485  36.867  12.412
76625W        W48885  36.902  44.888   0.351
76626W        W48886   0.837  15.875  10.991
76627W        W48887  38.837   4.484   3.348
76628W        W48888  43.174  27.047  14.868
76629W        W48889  44.739  24.722   3.258
76630W        W48890  11.228  20.683   0.852
76631W        W48891  32.982  10.192  14.347
76632W        W48892  44.605  19.582   1.893
76633W        W48893   9.436  13.345   2.130
76634W        W48894  44.778   7.414   4.574
76635W        W48895  13.997  31.007   2.228
76636W        W48896  11.205  35.042   4.448
76637W        W48897  17.868  39.222   4.024
76638W        W48898  31.999   8.776  10.112
76639W        W48899  17.273  36.159   9.908
76640W        W48900  30.556  31.323  10.646
76641W        W48901  17.759  10.948  14.527
76642W        W48902  18.735  19.551   4.536
76643W        W48903  24.058   0.397   0.271
76644W        W48904  43.511  33.692  14.065
76645W        W48905  11.779  24.649  12.669
76646W        W48906  32.041  24.658   2.698
76647W        W48907  26.722  29.663   0.772
76648W        W48908  16.448  17.128  12.850
76649W        W48909   5.857  31.955  12.152
76650W        W48910  23.568  15.881  10.898
76651W        W48911  18.028  35.089   2.584
76652W        W48912   9.956  12.521   2.263
76653W        W48913   7.654  38.417   2.400
76654W        W48914  29.579  34.354   1.772
76655W        W48915  15.840  30.046  14.847
76656W        W48916  16.902  42.736  10.297
76657W        W48917  27.627   8.760  14.485
76658W        W48918  36.442  40.922   1.759
76659W        W48919  37.845   5.630  12.033
76660W        W48920   0.919  21.497   2.888
76661W        W48921  22.667  29.892  10.851
76662W        W48922  41.846   2.757   1.911
76663W        W48923  33.356  12.124   2.787
76664W        W48924  33.993   4.827   1.284
76665W        W48925  25.674  37.845   2.350
76666W        W48926   7.318  11.049   0.916
76667W        W48927  33.994  38.987  13.292
76668W        W48928   7.938  29.502   4.598
76669W        W48929   5.313   3.034   0.800
76670W        W48930  14.703   9.063  10.386
76671W        W48931   7.768   0.960   1.827
76672W        W48932  35.854  42.757   3.691
76673W        W48933   5.445  10.302  11.422
76674W        W48934   5.172  27.617  13.164
76675W        W48935  14.832  39.911   1.351
76676W        W48936  24.336  38.433   0.657
76677W        W48937   7.160  33.873   1.831
76678W        W48938   2.976  32.438   2.371
76679W        W48939  41.263   3.647   1.866
76680W        W48940   5.406  30.310   4.565
76681W        W48941  30.733  12.536  12.958
76682W        W48942   1.238  14.181   2.726
76683W        W48943  30.072  28.966   2.846
76684W        W48944  19.319  27.663  10.675
76685W        W48945  16.472  12.131   0.818
76686W        W48946  37.221   1.285   2.542
76687W        W48947  25.788  37.695  13.086
76688W        W48948  38.042   7.516  10.655
76689W        W48949  38.361  14.789   1.759
76690W        W48950  33.665  34.578  13.819
76691W        W48951  24.935  24.267  13.996
76692W        W48952  12.794   3.741  13.938
76693W        W48953  32.102  34.374   3.290
76694W        W48954  18.159  10.164  12.993
76695W        W48955  14.101  40.470   1.741
76696W        W48956  29.397  16.536  12.081
76697W        W48957   9.148  24.048   3.692
76698W        W48958   5.018  20.272  13.558
76699W        W48959  29.873  37.365  14.001
76700W        W48960   7.796  32.326   4.065
76701W        W48961   5.062   5.649   4.288
76702W        W48962   0.202  19.507   0.173
76703W        W48963  26.000  38.639  13.987
76704W        W48964  17.289   5.503  11.127
76705W        W48965  10.795   8.187   0.470
76706W        W48966  14.140  23.854  14.722
76707W        W48967  37.869   5.356   3.705
76708W        W48968   2.152  15.139   3.260
76709W        W48969   3.036  32.959  12.153
76710W        W48970  41.895  29.895   4.306
76711W        W48971  40.048  16.749   2.767
76712W        W48972  14.413   5.544  14.953
76713W        W48973  29.172  21.551   0.293
76714W        W48974   0.468  23.057  10.400
76715W        W48975   4.769  27.566   1.504
76716W        W48976   0.307  23.990  14.455
76717W        W48977  11.951  15.280   3.152
76718W        W48978  41.427  17.292  13.732
76719W        W48979  13.623  15.904  12.642
76720W        W48980  12.200   4.785  13.399
76721W        W48981  11.658   8.680   1.363
76722W        W48982  22.538  18.154  14.360
76723W        W48983  22.649  44.611   0.881
76724W        W48984   5.379   9.132  12.155
76725W        W48985  39.839  25.677   3.714
76726W        W48986  19.220  10.289   0.792
76727W        W48987  37.365  42.882   1.258
76728W        W48988  31.013  19.269  14.300
76729W        W48989  21.957  18.245  12.479
76730W        W48990  36.044  36.012   0.511
76731W        W48991  39.239  10.687   4.144
76732W        W48992  40.590  32.485   3.560
76733W        W48993  10.280  11.340  10.759
76734W        W48994  17.331  39.888  13.324
76735W        W48995  31.963  36.879  13.908
76736W        W48996  38.510   1.887  12.045
76737W        W48997   0.883  37.047   3.730
76738W        W48998  44.048   9.280  14.875
76739W        W48999  14.771   7.366   0.868
76740W        W49000   1.887   7.777  12.685
76741W        W49001  16.594   1.321  11.627
76742W        W49002   8.785  19.302  10.756
76743W        W49003  38.758   5.237  11.222
76744W        W49004  13.683  17.662  10.684
76745W        W49005  40.474  31.514   3.642
76746W        W49006   4.903  32.516   0.875
76747W        W49007  20.795   6.756  13.158
76748W        W49008  39.700  24.528   1.782
76749W        W49009  24.552  18.982  12.126
76750W        W49010  30.237  40.694  14.382
76751W        W49011   3.340  16.282   4.216
76752W        W49012  23.781  38.324   3.065
76753W        W49013   6.467  41.837   2.447
76754W        W49014  16.966  22.146  14.021
76755W        W49015   7.216  16.177  10.707
76756W        W49016  17.252  36.446  13.837
76757W        W49017  20.474   1.834   4.545
76758W        W49018  18.074  20.968   0.178
76759W        W49019  42.612  15.301  12.166
76760W        W49020  14.118  19.588   1.751
76761W        W49021  36.839  35.954  14.369
76762W        W49022  14.556  12.216   3.384
76763W        W49023  26.915  21.257  10.073
76764W        W49024  23.824   6.729  13.031
76765W        W49025  30.015  10.902  12.813
76766W        W49026  16.805  40.482   2.262
76767W        W49027  12.357   4.313   1.997
76768W        W49028   8.256  37.813  14.597
76769W        W49029  17.731  17.074  14.786
76770W        W49030   0.847   7.393   2.666
76771W        W49031   8.986  28.221  11.481
76772W        W49032   7.870  19.014  12.315
76773W        W49033   6.889  17.645  12.153
76774W        W49034  30.020  40.441  11.657
76775W        W49035   6.247  20.681   3.773
76776W        W49036  10.231  34.557   2.399
76777W        W49037  21.964   4.225   0.316
76778W        W49038  14.744  25.880   0.696
76779W        W49039  20.036   3.393  11.390
76780W        W49040  14.679  16.226  11.300
76781W        W49041  41.413  10.690  14.934
76782W        W49042  18.541  14.012   2.733
76783W        W49043  18.586   1.597   3.393
76784W        W49044  40.603   3.544  10.781
76785W        W49045  15.654  30.628   1.196
76786W        W49046  31.007  25.020   3.152
76787W        W49047  16.791  37.928  14.831
76788W        W49048  23.277  39.026   2.384
76789W        W49049  13.701  40.990  13.462
76790W        W49050  14.935  30.096   1.168
76791W        W49051   7.224  10.312   2.364
76792W        W49052   1.957  43.546  14.770
76793W        W49053  14.789  31.721   3.760
76794W        W49054  15.795  17.045   2.259
76795W        W49055   9.650   1.445   1.757
76796W        W49056   1.920   4.679  11.176
76797W        W49057  32.684  15.551  13.001
76798W        W49058   7.040  28.985  12.396
76799W        W49059  11.630   3.691  13.880
76800W        W49060  23.537   6.097   3.045
76801W        W49061   1.494   5.360   3.681
76802W        W49062  43.184  21.591  11.445
76803W        W49063  14.382  18.183  13.800
76804W        W49064   9.401  32.201  14.957
76805W        W49065  12.096  13.073   0.894
76806W        W49066  29.010   7.910  14.090
76807W        W49067  25.048   5.196  14.942
76808W        W49068  23.321  39.084   3.205
76809W        W49069  25.904   1.429  11.850
76810W        W49070  20.291  27.491   1.161
76811W        W49071  36.517  24.132  14.218
76812W        W49072  26.187  31.081  11.617
76813W        W49073  16.223  30.193   0.535
76814W        W49074  41.313  26.512   2.670
76815W        W49075  17.775  17.277   1.372
76816W        W49076  29.857   8.706  11.593
76817W        W49077   5.244  21.285  12.517
76818W        W49078   0.173  31.704   4.173
76819W        W49079  20.241  35.957  12.824
76820W        W49080  42.527  36.186   3.684
76821W        W49081  16.219  17.155  10.041
76822W        W49082  22.251   4.955  12.602
76823W        W49083   2.697  19.755  11.497
76824W        W49084  12.271  29.214   4.490
76825W        W49085  13.235  36.926  12.810
76826W        W49086  18.629  15.729   0.297
76827W        W49087   3.761  36.053  10.963
76828W        W49088   5.789  14.420  14.019
76829W        W49089   6.145   6.761   1.242
76830W        W49090  31.259  13.260  13.997
76831W        W49091   4.830  29.907   2.164
76832W        W49092  30.439  19.799  11.947
76833W        W49093  41.925  18.289  12.881
76834W        W49094  31.135  31.669  10.027
76835W        W49095  27.153   7.297  12.604
76836W        W49096  21.222  25.436   3.217
76837W        W49097  33.535  30.116   1.764
76838W        W49098  13.606  22.018  12.449
76839W        W49099  27.020  43.015  12.053
76840W        W49100   9.208  12.850   0.211
76841W        W49101  38.454  35.513  11.352
76842W        W49102   4.629   7.436   5.014
76843W        W49103  38.274  33.051   3.768
76844W        W49104  44.710  42.771   4.556
76845W        W49105  19.193  22.495  13.430
76846W        W49106   6.754  31.907  11.605
76847W        W49107  17.205  34.425   2.429
76848W        W49108  16.283  35.157   1.353
76849W        W49109  26.820  25.378   4.273
76850W        W49110  22.282  26.028   2.230
76851W        W49111   8.790  16.085   4.635
76852W        W49112   7.749  10.237  12.408
76853W        W49113  28.547  18.110   0.223
76854W        W49114  44.204   6.799  12.142
76855W        W49115  10.344   9.871  14.037
76856W        W49116   3.341   1.675   1.262
76857W        W49117   3.845  27.392  12.976
76858W        W49118  39.530  21.056   3.065
76859W        W49119  39.821  19.186  12.940
76860W        W49120  42.336  23.376  11.748
76861W        W49121  32.115  26.069  14.362
76862W        W49122   6.334  21.491   4.252
76863W        W49123  17.346  21.495  11.927
76864W        W49124  22.804  12.009  13.470
76865W        W49125  11.773  18.404   4.261
76866W        W49126  11.809  16.146  12.103
76867W        W49127  12.436  32.705  12.475
76868W        W49128  42.489  40.049   0.952
76869W        W49129  31.540  33.099   2.945
76870W        W49130  15.845  43.411   4.456
76871W        W49131  10.360   9.084   0.070
76872W        W49132  37.399  30.415  11.546
76873W        W49133  20.642  13.812   2.305
76874W        W49134  44.817  33.514   4.560
76875W        W49135  38.882  37.583  13.090
76876W        W49136  32.528   8.216   1.460
76877W        W49137   0.267  38.586  13.488
76878W        W49138  14.212  39.291  14.019
76879W        W49139  15.947  30.291   3.592
76880W        W49140  24.977  41.644  14.840
76881W        W49141  41.278  26.900   2.304
76882W        W49142  15.164  23.095   4.888
76883W        W49143   0.362  12.063  14.612
76884W        W49144  29.589   5.221  10.499
76885W        W49145   7.229  36.241  12.005
76886W        W49146  25.037  10.724  13.810
76887W        W49147  32.506  23.619   0.317
76888W        W49148  44.864   5.677  13.420
76889W        W49149   5.520   9.967   0.467
76890W        W49150  17.142   4.379  12.907
76891W        W49151  26.153  14.603  12.124
76892W        W49152   0.055  22.971  13.862
76893W        W49153  21.740  42.751  11.152
76894W        W49154  20.807  26.117  12.815
76895W        W49155  32.495  32.907   3.805
76896W        W49156  38.959  24.910   0.933
76897W        W49157   7.353  10.533   1.888
76898W        W49158  31.554  12.619   1.768
76899W        W49159  37.793   5.714   1.871
76900W        W49160  16.064  25.080   2.207
76901W        W49161  14.015   4.476  14.787
76902W        W49162  22.197   7.185   3.302
76903W        W49163  28.470  21.240  14.525
76904W        W49164  12.573  42.968  12.506
76905W        W49165  25.379  36.995  13.582
76906W        W49166   5.825   1.866   2.691
76907W        W49167  34.112  19.082   1.703
76908W        W49168  36.386  13.021  13.441
76909W        W49169  30.903  13.691  11.612
76910W        W49170  21.402  14.603  14.956
76911W        W49171  34.474  22.222  12.905
76912W        W49172  29.981  33.880   1.450
76913W        W49173  39.311  42.617   4.793
76914W        W49174  16.518   2.185   0.425
76915W        W49175  26.099   3.002  13.029
76916W        W49176  33.960   4.928  14.325
76917W        W49177   8.980  39.048   0.712
76918W        W49178  29.264   3.867  12.072
76919W        W49179   7.157  34.156   0.402
76920W        W49180  37.865  31.839  12.463
76921W        W49181  10.725  22.594   0.868
76922W        W49182   5.679  25.592   4.910
76923W        W49183  14.849  22.555   4.494
76924W        W49184  30.911  40.122   1.801
76925W        W49185  42.530  26.293   1.686
76926W        W49186  21.808  39.334  12.548
76927W        W49187   5.797  27.071   3.366
76928W        W49188  36.083   0.386  12.550
76929W        W49189  18.190   4.808  11.941
76930W        W49190  26.193  36.025   4.502
76931W        W49191  20.628  22.180   1.435
76932W        W49192  30.921  35.798  10.878
76933W        W49193   4.393   3.555  12.571
76934W        W49194  44.558   5.839   2.304
76935W        W49195  18.073  15.737  13.843
76936W        W49196   3.405  16.581   4.619
76937W        W49197   9.256  39.499   3.376
76938W        W49198  26.588   9.801   4.541
76939W        W49199  14.681  42.817  11.999
76940W        W49200  24.489  35.640  11.640
76941W        W49201  11.586  22.777   1.842
76942W        W49202  41.016  12.106   0.815
76943W        W49203   3.227  12.646  12.518
76944W        W49204  18.575  33.935  11.172
76945W        W49205  11.658  18.971   4.358
76946W        W49206  38.818  22.059   4.131
76947W        W49207  42.801  33.162   0.123
76948W        W49208  41.886  29.631  12.455
76949W        W49209   0.247  14.200   1.166
76950W        W49210  38.739  27.447   1.647
76951W        W49211  23.883  29.274  14.284
76952W        W49212   9.417  23.041   2.842
76953W        W49213  10.905   6.763   5.011
76954W        W49214   1.377  39.399  13.775
76955W        W49215  19.945  19.251  13.358
76956W        W49216   2.914  39.319   3.420
76957W        W49217   8.770  15.079   1.727
76958W        W49218  23.384  27.979  14.532
76959W        W49219  25.280   2.738  10.567
76960W        W49220  14.173  33.413   1.922
76961W        W49221  38.110  37.271   2.295
76962W        W49222   7.877  18.673  14.236
76963W        W49223  20.790   4.707   3.220
76964W        W49224   8.746  33.502  14.787
76965W        W49225  37.860  29.540   0.849
76966W        W49226   9.780  38.469  12.651
76967W        W49227  41.539  32.899   3.138
76968W        W49228  36.688   8.307   4.222
76969W        W49229  24.111  20.606   0.428
76970W        W49230  17.939   0.699   2.370
76971W        W49231  12.787  24.066   2.773
76972W        W49232  22.697   8.610  11.514
76973W        W49233   5.167  31.125  10.622
76974W        W49234   5.430  35.744  11.169
76975W        W49235  43.072  10.016  13.456
76976W        W49236  19.828  13.886   4.215
76977W        W49237  44.350  14.126  10.822
76978W        W49238   7.641  35.871   0.817
76979W        W49239  20.482   0.492   3.855
76980W        W49240  43.153  13.201  13.980
76981W        W49241  25.134  14.656  14.061
76982W        W49242  23.622  17.622  12.518
76983W        W49243  36.942   9.381   9.786
76984W        W49244  18.690  16.178   4.548
76985W        W49245  34.640  26.946   2.338
76986W        W49246   3.440  37.973   2.272
76987W        W49247  20.283   9.225   1.297
76988W        W49248  30.645  29.548  12.754
76989W        W49249  20.100  41.291  11.767
76990W        W49250  12.770  43.254   1.809
76991W        W49251  41.878   3.001   2.399
76992W        W49252  43.852  24.680  14.948
76993W        W49253  20.006  13.517   0.994
76994W        W49254  44.755   0.153   0.029
76995W        W49255   5.143  20.129   0.871
76996W        W49256   3.453  28.477  14.566
76997W        W49257  16.625  12.913   4.583
76998W        W49258  41.705  13.009   1.455
76999W        W49259  18.597  20.471   3.333
77000W        W49260   9.950   9.344  14.802
77001W        W49261  32.047  13.259  14.226
77002W        W49262  35.914  11.925   3.789
77003W        W49263  38.449  28.443  14.703
77004W        W49264  16.440  40.955  13.532
77005W        W49265  19.914  29.550  11.996
77006W        W49266   7.360  21.022   2.348
77007W        W49267  22.921  37.308   1.323
77008W        W49268   8.368  19.345   0.951
77009W        W49269  37.852  18.769  10.207
77010W        W49270  40.285   4.264  14.493
77011W        W49271  17.131  37.168  10.708
77012W        W49272   5.909  19.391   3.642
77013W        W49273   5.217  18.645  11.220
77014W        W49274  34.944  29.387   3.299
77015W        W49275   9.821   0.131  14.283
77016W        W49276  15.690  12.044  13.874
77017W        W49277  39.007  27.578   4.183
77018W        W49278  39.470  16.691   4.741
77019W        W49279  21.808   9.698  12.852
77020W        W49280  31.371  30.542   4.593
77021W        W49281  41.837  19.735  13.985
77022W        W49282  30.388  17.512  11.652
77023W        W49283  33.056   1.646   4.863
77024W        W49284  26.423  31.914  10.893
77025W        W49285  30.914  38.576   2.293
77026W        W49286   9.519  26.119   2.698
77027W        W49287   3.525  43.303   3.555
77028W        W49288  18.253  26.197   4.499
77029W        W49289   3.900  22.246   4.030
77030W        W49290  42.523  40.822   2.257
77031W        W49291  11.808  14.437   2.292
77032W        W49292  11.515  16.270  13.847
77033W        W49293   8.863   8.786   4.909
77034W        W49294   2.390  19.904   1.234
77035W        W49295  38.439  27.528   4.996
77036W        W49296  25.467  21.780  14.069
77037W        W49297  24.699  31.422   3.840
77038W        W49298  32.944   3.975   4.193
77039W        W49299  34.544  16.276   4.593
77040W        W49300  25.297  23.952   2.805
77041W        W49301  33.117  27.475  12.541
77042W        W49302  15.848  31.451  13.296
77043W        W49303  11.946  13.721  11.939
77044W        W49304  35.968   7.468  13.595
77045W        W49305  41.310  38.026   2.948
77046W        W49306   6.156   1.329   1.958
77047W        W49307   5.030  30.980  12.029
77048W        W49308  19.590  43.253   0.035
77049W        W49309  11.178  44.871  14.425
77050W        W49310  36.041  22.459  14.534
77051W        W49311   3.388  32.411  12.774
77052W        W49312   9.100  25.525  13.072
77053W        W49313  31.642   3.466  14.983
77054W        W49314  43.463  22.005  13.482
77055W        W49315  39.499  24.198  11.652
77056W        W49316  33.510   2.382  10.886
77057W        W49317   1.391  24.754  14.336
77058W        W49318  28.627  37.312   1.166
77059W        W49319  23.837  22.160   2.174
77060W        W49320  42.026  15.664  13.762
77061W        W49321  12.703  14.161  11.970
77062W        W49322  23.969  14.668  10.800
77063W        W49323  29.271   1.503   2.903
77064W        W49324  14.591  19.056   1.306
77065W        W49325  42.289  41.072  12.567
77066W        W49326  35.547  29.040  14.745
77067W        W49327  28.961  28.569   3.178
77068W        W49328  19.914  30.532   4.557
77069W        W49329  27.196  33.307   2.569
77070W        W49330  32.608   8.338   2.309
77071W        W49331  23.952  42.087  14.901
77072W        W49332   1.055   8.445   2.883
77073W        W49333  23.605  42.028   1.612
77074W        W49334  20.568  40.957   0.161
77075W        W49335  18.164  11.698  14.364
77076W        W49336  26.135   5.895   1.696
77077W        W49337  28.299   5.366  12.396
77078W        W49338  41.525  12.894   3.704
77079W        W49339  17.723  25.684   0.212
77080W        W49340  43.798  36.880   2.673
77081W        W49341  19.053  33.331  11.623
77082W        W49342  16.960   2.459   4.764
77083W        W49343   3.057  20.284   4.532
77084W        W49344  37.083  11.803  13.979
77085W        W49345  38.898  27.578  14.849
77086W        W49346  32.097  24.233  13.627
77087W        W49347   0.351  23.567   3.664
77088W        W49348  23.208   3.760   1.381
77089W        W49349  15.691  33.682   4.634
77090W        W49350  20.322  25.643   3.137
77091W        W49351  16.827   8.886   2.412
77092W        W49352  27.169  17.822   0.890
77093W        W49353  39.012  34.828   4.638
77094W        W49354  42.359   2.982  11.822
77095W        W49355  41.580  37.938   1.178
77096W        W49356  41.425  40.478  12.800
77097W        W49357  33.029  11.760   0.846
77098W        W49358  37.016   5.637  10.635
77099W        W49359  19.134  19.610   3.784
77100W        W49360  14.293  25.496   2.661
77101W        W49361  39.794   8.584  12.996
77102W        W49362  41.150  20.209  10.766
77103W        W49363  27.909  39.774   3.420
77104W        W49364  35.065  38.343   0.361
77105W        W49365  43.042  26.478   4.752
77106W        W49366  37.938  27.485   3.215
77107W        W49367  12.389  29.580  13.492
77108W        W49368  17.286  23.714   2.388
77109W        W49369  32.149  19.062  11.499
77110W        W49370  16.872  16.187   5.486
77111W        W49371  19.582  38.001  13.241
77112W        W49372  24.184  30.177   1.662
77113W        W49373   6.961  30.637   0.319
77114W        W49374   8.825   9.674  14.334
77115W        W49375  17.021  17.167  11.053
77116W        W49376   6.724  40.253  10.590
77117W        W49377   5.334  10.720  12.079
77118W        W49378  33.019  33.935   3.287
77119W        W49379  33.979  13.320   3.901
77120W        W49380  19.839  22.715  14.963
77121W        W49381  21.491  38.374  14.428
77122W        W49382  24.447   5.861   3.438
77123W        W49383   8.369  12.137  11.559
77124W        W49384  33.537  22.914  11.209
77125W        W49385  14.164  16.903  14.849
77126W        W49386  35.508  17.776   3.279
77127W        W49387  44.425  20.165   4.668
77128W        W49388  32.850   5.754   1.079
77129W        W49389   2.185  39.034  13.936
77130W        W49390   5.860  10.550  11.960
77131W        W49391  39.472  30.849  14.188
77132W        W49392  24.316  23.404   3.314
77133W        W49393  33.793  18.391  14.862
77134W        W49394  11.758   5.990   3.147
77135W        W49395  28.881  39.935  14.753
77136W        W49396  43.539  33.358   2.290
77137W        W49397   4.523   1.538   3.874
77138W        W49398  32.387  24.686   3.473
77139W        W49399  12.602   2.543  14.881
77140W        W49400  16.852  15.871  11.821
77141W        W49401   8.422  40.923   1.124
77142W        W49402  26.164   8.628  12.856
77143W        W49403  18.804  10.951  12.958
77144W        W49404  20.644  25.737  11.127
77145W        W49405   5.672   8.793  14.222
77146W        W49406   2.952  18.845   4.535
77147W        W49407  26.051  44.460   3.335
77148W        W49408  21.661  25.892  10.129
77149W        W49409  10.765   4.407   1.592
77150W        W49410  38.933  16.733  14.063
77151W        W49411  36.289  35.351   2.286
77152W        W49412  22.089   0.643  13.587
77153W        W49413  20.697  15.869   1.366
77154W        W49414   7.690  16.712   2.742
77155W        W49415   4.786   6.189   3.666
77156W        W49416  20.250  41.560  14.403
77157W        W49417  32.361  43.258  10.118
77158W        W49418   2.320  22.162   1.483
77159W        W49419  44.277  32.154  12.338
77160W        W49420   7.949  31.674  11.528
77161W        W49421   8.890  43.722   1.600
77162W        W49422  20.010   4.979  14.860
77163W        W49423  42.859  13.768  13.411
77164W        W49424  35.623  44.891   2.932
77165W        W49425  31.578  25.693   2.103
77166W        W49426   7.441  40.915   1.413
77167W        W49427  34.890   7.403  10.944
77168W        W49428  21.204  24.065  14.828
77169W        W49429   5.648  35.287  12.647
77170W        W49430  40.218  15.644   3.160
77171W        W49431  14.611   9.535  12.311
77172W        W49432  25.433   2.280   4.536
77173W        W49433  12.821  13.353   4.806
77174W        W49434  27.147  19.177  13.891
77175W        W49435  44.996  17.730   4.377
77176W        W49436  10.322   0.190   0.394
77177W        W49437  42.065  18.088   3.365
77178W        W49438  19.006  29.027   3.236
77179W        W49439  33.971   4.184   3.275
77180W        W49440  28.384   7.998  10.480
77181W        W49441   7.245  25.660  12.961
77182W        W49442  26.671  34.504  14.028
77183W        W49443   7.330  36.890   1.057
77184W        W49444  30.583  29.095  13.511
77185W        W49445  25.112  41.644  13.456
77186W        W49446   8.155  42.671  11.513
77187W        W49447   9.214  15.685  14.377
77188W        W49448  22.403  32.143  12.312
77189W        W49449  15.710  22.443   0.757
77190W        W49450  23.203   8.180  11.862
77191W        W49451  33.077  18.958  11.065
77192W        W49452   5.450  12.167   1.880
77193W        W49453  22.685  19.970  13.303
77194W        W49454  43.320   7.469   0.940
77195W        W49455  18.342  19.815  11.993
77196W        W49456  15.084  26.491  10.723
77197W        W49457  29.030  18.092   1.017
77198W        W49458  29.567  34.060   3.734
77199W        W49459  37.547   5.631  10.935
77200W        W49460  31.197  21.047   4.314
77201W        W49461   8.153  33.442   0.740
77202W        W49462  40.557   3.764  13.042
77203W        W49463  43.211  25.143   2.957
77204W        W49464  34.378  36.860  14.101
77205W        W49465  18.466  31.932  11.158
77206W        W49466  26.914   8.253  13.011
77207W        W49467   4.092  39.297   4.792
77208W        W49468   2.518  42.394   3.843
77209W        W49469  28.216   1.327   1.384
77210W        W49470  35.964  29.343  13.650
77211W        W49471   6.279   3.979   2.852
77212W        W49472  37.767  40.358   1.346
77213W        W49473   6.750   4.561  10.891
77214W        W49474  17.984  40.102   1.297
77215W        W49475  41.958   0.599  10.758
77216W        W49476   7.607   2.170  11.526
77217W        W49477  14.674  21.160  13.875
77218W        W49478  18.692   4.013  11.144
77219W        W49479  37.382  43.904   4.116
77220W        W49480  23.605  44.034   2.895
77221W        W49481  38.351  11.460  12.053
77222W        W49482   5.332  14.145   4.885
77223W        W49483  12.068   6.304   5.330
77224W        W49484  24.880  30.356  13.983
77225W        W49485  23.553  18.609  12.766
77226W        W49486  24.752  38.617   2.775
77227W        W49487  21.587  25.138  13.400
77228W        W49488  27.063   8.215  14.903
77229W        W49489  13.751  16.658  11.342
77230W        W49490  28.914  41.721  12.146
77231W        W49491  29.375  24.126   1.993
77232W        W49492  30.480  36.749  12.670
77233W        W49493  41.870   9.346  14.076
77234W        W49494  28.477  26.939  13.637
77235W        W49495  38.518   1.513   3.532
77236W        W49496   8.136  30.918  14.512
77237W        W49497  35.577   5.311   1.996
77238W        W49498  20.681  38.261   4.219
77239W        W49499  25.998  38.363   4.086
77240W        W49500  13.701   9.805  11.419
77241W        W49501   7.949  12.511  10.722
77242W        W49502  41.972  32.371   1.085
77243W        W49503  26.107  33.904  13.894
77244W        W49504  14.096  27.488   0.331
77245W        W49505  18.569  24.396  12.240
77246W        W49506   5.025   2.603   0.706
77247W        W49507  19.466   5.229   3.526
77248W        W49508  27.514  19.244  12.449
77249W        W49509  37.719  31.110  14.289
77250W        W49510  36.918   6.173  10.574
77251W        W49511  14.344  25.161  11.571
77252W        W49512  30.105  41.945   1.767
77253W        W49513  11.745  30.941  11.116
77254W        W49514  13.738  18.097  10.420
77255W        W49515  42.399  35.458  10.428
77256W        W49516  13.767  40.487   1.316
77257W        W49517  16.088   5.932   2.198
77258W        W49518   6.467  33.920   1.224
77259W        W49519  39.944  43.032   1.331
77260W        W49520   5.268  17.622  10.619
77261W        W49521  10.369  44.593  13.342
77262W        W49522   7.632  23.888  11.135
77263W        W49523   1.283   9.229   2.602
77264W        W49524  33.452  27.458  14.883
77265W        W49525  28.560  10.297  10.591
77266W        W49526  22.391   6.235  14.405
77267W        W49527  21.688   4.355  12.299
77268W        W49528   6.828  28.721   4.148
77269W        W49529  14.553  36.654  14.955
77270W        W49530   6.202  22.798  11.140
77271W        W49531  41.455  32.927  10.814
77272W        W49532  23.035  19.470   2.390
77273W        W49533  13.772  11.133   3.733
77274W        W49534  21.452  37.674   1.040
77275W        W49535   0.044   9.385  14.429
77276W        W49536  22.662   2.918  11.567
77277W        W49537   4.714  21.281  10.204
77278W        W49538  13.351  11.008   2.220
77279W        W49539  32.565  28.288  13.500
77280W        W49540  28.157  42.797  10.567
77281W        W49541   9.803  30.104   1.313
77282W        W49542  23.767  25.379  12.484
77283W        W49543  34.076  10.836   0.804
77284W        W49544   8.011  26.785   1.618
77285W        W49545  36.337  32.865   0.948
77286W        W49546   1.789  11.932   4.623
77287W        W49547  24.893  27.177   9.882
77288W        W49548   9.814   7.857   4.191
77289W        W49549  43.036  36.370  12.366
77290W        W49550  22.179  33.546   3.664
77291W        W49551  15.259  25.267   3.973
77292W        W49552  21.867  11.712   3.216
77293W        W49553  14.016   6.213   0.631
77294W        W49554   3.724  18.059   0.904
77295W        W49555  43.257  27.550  13.642
77296W        W49556   2.255  22.088  14.617
77297W        W49557   8.760  32.087  11.629
77298W        W49558   7.026  25.797  11.497
77299W        W49559  40.606   5.896  11.149
77300W        W49560  39.350  13.791   0.402
77301W        W49561  35.086  14.661  13.715
77302W        W49562  14.744  15.130   1.298
77303W        W49563  38.264  25.488  12.403
77304W        W49564  16.712  35.882   1.081
77305W        W49565  10.396   6.786   0.196
77306W        W49566  27.467  29.220  14.417
77307W        W49567  12.410  14.568  12.188
77308W        W49568   3.985  31.800  14.496
77309W        W49569  10.339  10.349   2.906
77310W        W49570  18.849   2.783  12.850
77311W        W49571   4.252  18.851   0.230
77312W        W49572  42.368  21.980   3.398
77313W        W49573  21.551   9.576   4.560
77314W        W49574  24.671  31.932   3.781
77315W        W49575  13.883  35.980  13.086
77316W        W49576  28.592  42.812  11.521
77317W        W49577  14.242   8.409   2.184
77318W        W49578  24.567  32.986   0.909
77319W        W49579  33.232  37.425  13.561
77320W        W49580  22.217  12.379   3.692
77321W        W49581  12.348  39.119   4.121
77322W        W49582  41.073   7.997   4.262
77323W        W49583   5.850  31.944   3.603
77324W        W49584   8.129  13.266  12.065
77325W        W49585  16.255   3.220  13.795
77326W        W49586  14.857  20.164   2.041
77327W        W49587  32.529  28.613   4.667
77328W        W49588  17.246  23.182   2.404
77329W        W49589   6.802  43.121   4.302
77330W        W49590  41.494  21.980  13.338
77331W        W49591  39.672  13.133  14.253
77332W        W49592  34.550  33.723   0.523
77333W        W49593  14.283   7.796   0.480
77334W        W49594   5.860  13.814  13.334
77335W        W49595  26.153   2.963   1.711
77336W        W49596   9.154  43.607   4.252
77337W        W49597   5.933  22.634   3.723
77338W        W49598  30.808   2.906  14.363
77339W        W49599  36.285  39.608   0.461
77340W        W49600  36.352   9.519   2.210
77341W        W49601  32.044   2.796  11.206
77342W        W49602  30.257  35.354   0.453
77343W        W49603  11.630  32.861   2.216
77344W        W49604  38.496  21.548  12.918
77345W        W49605  30.845  13.157  12.395
77346W        W49606  30.731  26.629  11.902
77347W        W49607  14.645  21.578   4.490
77348W        W49608  37.467   0.987   1.806
77349W        W49609  21.615  34.821   2.544
77350W        W49610  26.235  32.157   1.323
77351W        W49611  29.918  43.889   2.412
77352W        W49612  36.595   3.374   2.282
77353W        W49613  13.088  44.928   1.489
77354W        W49614  43.799  13.310   2.943
77355W        W49615   4.263  14.245   2.358
77356W        W49616  13.723  33.630  10.368
77357W        W49617  19.547  26.256  10.909
77358W        W49618   1.852  25.094   4.125
77359W        W49619  26.268  22.033   3.391
77360W        W49620  35.286   4.213   4.095
77361W        W49621  25.582  42.373   3.258
77362W        W49622  40.318  30.463  12.197
77363W        W49623  36.452   2.926   4.883
77364W        W49624  13.146   1.976   0.533
77365W        W49625  32.770  23.307   4.679
77366W        W49626  32.203  33.292  10.938
77367W        W49627   0.409  35.963   1.434
77368W        W49628   5.198  31.586   3.469
77369W        W49629  23.815  43.952  12.983
77370W        W49630  29.493  21.193  11.660
77371W        W49631  36.285  34.806   2.803
77372W        W49632  32.421  20.641  11.532
77373W        W49633  10.137  16.650  13.749
77374W        W49634  28.060  38.850  13.531
77375W        W49635  17.631  22.568   4.205
77376W        W49636  36.423  34.709  14.781
77377W        W49637   1.671  25.657   2.378
77378W        W49638   5.816  43.749  14.852
77379W        W49639  34.359  15.290   3.123
77380W        W49640  23.143  10.942   0.300
77381W        W49641  14.765   5.013  11.783
77382W        W49642  29.028  14.303   2.878
77383W        W49643  40.389  44.345  12.497
77384W        W49644  23.566  23.978  11.235
77385W        W49645   1.741  40.257   0.269
77386W        W49646  10.946  27.688  14.833
77387W        W49647  30.697   9.870   5.031
77388W        W49648  25.616  42.424  10.047
77389W        W49649  42.085  32.902   0.597
77390W        W49650  12.221  11.271   2.518
77391W        W49651  25.131  13.794  14.973
77392W        W49652   0.854  38.078   3.757
77393W        W49653   1.504  31.669  12.570
77394W        W49654  42.518  24.624  11.613
77395W        W49655   2.524  25.596   1.671
77396W        W49656  13.684  19.345   1.905
77397W        W49657   9.143  18.351  11.157
77398W        W49658  25.465   6.727  11.112
77399W        W49659   4.662  20.014  12.870
77400W        W49660  11.171  35.703  13.645
77401W        W49661  15.299  38.135   2.389
77402W        W49662  34.148  37.443  14.418
77403W        W49663   3.778  34.115  11.517
77404W        W49664  41.021  29.038  12.481
77405W        W49665  21.188  34.990   3.332
77406W        W49666   0.541  44.493  11.532
77407W        W49667  25.241  29.021   3.025
77408W        W49668  22.006  28.564  12.232
77409W        W49669  24.901  19.756   4.196
77410W        W49670  29.182  26.901  11.060
77411W        W49671  37.125  26.393   0.332
77412W        W49672  13.358  19.887   2.279
77413W        W49673  30.370   8.753  11.605
77414W        W49674  36.921  40.167   1.794
77415W        W49675  24.222  10.420   2.846
77416W        W49676  11.920  38.932  12.952
77417W        W49677  15.534  18.127  10.946
77418W        W49678  15.846  20.006  11.143
77419W        W49679  19.751  40.444  12.685
77420W        W49680  21.739   7.624   0.329
77421W        W49681  13.161  31.871   3.782
77422W        W49682  22.257  31.696   4.673
77423W        W49683  34.904  42.634  10.487
77424W        W49684  11.344  17.294   2.836
77425W        W49685   2.936  26.075   1.360
77426W        W49686   3.300  23.037  14.370
77427W        W49687  15.822  18.493  12.063
77428W        W49688  29.031  35.100   4.529
77429W        W49689  22.986  32.650  12.122
77430W        W49690  33.894   8.126  13.485
77431W        W49691  39.989   6.409   3.676
77432W        W49692  30.576  13.022  12.818
77433W        W49693  24.169   2.492   0.002
77434W        W49694  33.081   1.771   0.967
77435W        W49695  32.179  44.803   5.053
77436W        W49696  24.828  12.087  14.964
77437W        W49697   6.227  19.516   1.322
77438W        W49698  35.146  43.350   0.209
77439W        W49699  35.654   5.416  10.752
77440W        W49700   7.627  32.567   1.235
77441W        W49701  10.732  11.880  11.682
77442W        W49702  29.012  23.533  13.859
77443W        W49703   6.360  11.105  10.610
77444W        W49704   1.629  20.569   1.304
77445W        W49705  21.228  26.522   4.681
77446W        W49706  14.087  44.916   4.125
77447W        W49707  19.035  12.645  12.878
77448W        W49708  39.960   3.397  14.512
77449W        W49709  34.511   3.680  12.154
77450W        W49710  22.212   7.397  13.895
77451W        W49711  17.239  22.207  13.572
77452W        W49712  32.445  18.313  13.274
77453W        W49713   2.527  28.145  13.406
77454W        W49714  36.062  28.830   1.502
77455W        W49715  41.976  34.000   3.111
77456W        W49716  11.661  19.983   4.172
77457W        W49717  41.309  11.684   0.485
77458W        W49718  16.850  28.314  10.669
77459W        W49719  19.703   9.790   0.318
77460W        W49720  29.856  11.643   3.771
77461W        W49721   9.675  20.311  11.622
77462W        W49722   2.910  28.904   1.772
77463W        W49723  35.531  24.410  14.481
77464W        W49724  34.502   1.512   4.622
77465W        W49725  43.944  11.706   2.171
77466W        W49726  34.102  16.562   0.730
77467W        W49727  42.559  36.572   0.017
77468W        W49728  16.246  22.238   2.960
77469W        W49729   1.193  37.430   0.672
77470W        W49730  28.707   5.210   0.281
77471W        W49731   7.771  10.210   0.655
77472W        W49732  32.481  27.928   0.968
77473W        W49733  24.392   6.249  10.703
77474W        W49734   5.306  43.289  11.535
77475W        W49735  43.931  30.139   0.423
77476W        W49736   3.207   6.593  12.638
77477W        W49737  14.047   1.346  10.744
77478W        W49738  26.109   8.281   3.158
77479W        W49739  34.341  12.179   0.913
77480W        W49740  15.656  29.657  14.544
77481W        W49741  17.481  17.267  12.884
77482W        W49742  25.981  18.095   1.317
77483W        W49743  17.073  10.595  10.145
77484W        W49744   0.447   2.380   2.255
77485W        W49745  16.296   7.653  13.844
77486W        W49746   3.120  13.183  10.901
77487W        W49747  26.278  21.969   4.777
77488W        W49748   0.513  35.366   4.094
77489W        W49749  17.353  24.626  10.871
77490W        W49750   3.401  44.957   0.545
77491W        W49751  18.292  32.882  10.698
77492W        W49752  16.107  43.250   0.581
77493W        W49753  15.455  42.997   0.297
77494W        W49754  25.125   4.921  14.507
77495W        W49755  15.328   4.961  10.588
77496W        W49756  40.516  29.854   4.231
77497W        W49757  10.643  39.568  12.846
77498W        W49758  36.055   4.441  11.577
77499W        W49759  38.428  23.225   2.342
77500W        W49760   8.263  30.792  10.624
77501W        W49761  32.694  43.714  13.370
77502W        W49762  22.791   5.593   3.708
77503W        W49763  28.453  16.613  12.429
77504W        W49764  41.352   3.874   4.574
77505W        W49765  28.210  30.408  14.324
77506W        W49766  18.189  27.399   3.192
77507W        W49767  24.409  40.381   3.168
77508W        W49768  36.375  13.335  10.901
77509W        W49769  34.544  10.286  12.101
77510W        W49770  37.602   3.729  12.504
77511W        W49771  12.255   9.325   4.735
77512W        W49772  36.915  29.789  14.933
77513W        W49773  40.393  34.907  11.949
77514W        W49774   1.466  17.689  14.644
77515W        W49775  13.823  37.091  10.609
77516W        W49776   2.443   2.948   4.483
77517W        W49777  29.228  27.801   1.465
77518W        W49778   5.443  36.521  13.490
77519W        W49779  30.871  10.026   0.423
77520W        W49780  37.578  11.612  13.879
77521W        W49781   5.404  21.086   4.137
77522W        W49782  10.071  15.892   0.814
77523W        W49783  43.398   0.151  13.999
77524W        W49784  32.919  26.636  11.984
77525W        W49785  41.390  43.012   0.664
77526W        W49786  11.721  40.418  13.323
77527W        W49787  13.884  31.544   4.017
77528W        W49788   5.604   2.806   0.410
77529W        W49789   3.066   7.128  14.409
77530W        W49790  40.422  25.200  11.522
77531W        W49791  21.333  34.594  12.850
77532W        W49792  34.488  37.827  13.656
77533W        W49793  36.704   0.490  14.477
77534W        W49794   0.390  27.529  14.423
77535W        W49795  27.010  22.518   4.612
77536W        W49796  28.237  43.591  11.631
77537W        W49797  13.240  38.077   3.612
77538W        W49798  33.540  37.131   0.541
77539W        W49799  24.645   3.223   3.812
77540W        W49800  23.071  20.515   5.019
77541W        W49801  24.766  12.083   4.672
77542W        W49802  42.587  15.591  11.110
77543W        W49803  43.662  24.003   0.743
77544W        W49804  36.743  28.607   1.226
77545W        W49805  39.859   9.341  12.092
77546W        W49806  36.439   6.660  11.165
77547W        W49807  39.109   4.682  12.979
77548W        W49808  40.244  14.437   4.545
77549W        W49809  32.465  32.967   0.943
77550W        W49810  41.534  28.909  11.149
77551W        W49811  28.045  37.636  14.346
77552W        W49812  34.172  42.919   4.524
77553W        W49813  14.610  35.452   0.433
77554W        W49814  41.550  26.096   4.302
77555W        W49815  35.324  21.099   4.558
77556W        W49816  21.464  24.569  14.952
77557W        W49817   3.929  43.380  14.975
77558W        W49818  19.308  24.404  13.655
77559W        W49819   8.732   7.268  10.638
77560W        W49820   2.790  37.056  14.940
77561W        W49821  34.085  41.264  11.248
77562W        W49822  13.138  12.799   5.174
77563W        W49823  12.860  10.436  11.451
77564W        W49824   4.889   5.353   2.309
77565W        W49825  24.461   0.759  13.140
77566W        W49826  24.690  42.062   4.504
77567W        W49827  18.689   9.338   3.659
77568W        W49828   8.343  27.702   0.878
77569W        W49829   0.550  15.115  14.464
77570W        W49830   0.893  43.842   3.681
77571W        W49831  43.734   6.137  12.551
77572W        W49832  44.753  38.490  14.963
77573W        W49833  42.407  21.697  12.870
77574W        W49834  29.436  14.869   3.787
77575W        W49835  19.074  14.428   1.055
77576W        W49836   4.904   6.173   0.689
77577W        W49837  15.185   2.443   2.928
77578W        W49838  26.693  14.078  14.275
77579W        W49839  17.119  25.201  13.519
77580W        W49840  19.402  42.589  11.839
77581W        W49841  44.063  35.560  14.073
77582W        W49842  34.670  18.763   9.827
77583W        W49843  11.767  32.174  12.432
77584W        W49844   4.753  24.616  12.518
77585W        W49845  34.877  44.920  13.224
77586W        W49846  35.041  30.628  10.805
77587W        W49847  42.569  43.710   3.353
77588W        W49848  18.559  33.838   4.134
77589W        W49849  21.118  42.997   3.381
77590W        W49850  10.135  13.756  10.384
77591W        W49851  40.449  15.885   2.739
77592W        W49852  11.878   3.789   3.126
77593W        W49853   1.100   2.892   4.584
77594W        W49854   7.201  11.178  14.546
77595W        W49855  20.941  36.547   1.993
77596W        W49856  23.806  28.939   9.975
77597W        W49857   4.033  29.870   4.139
77598W        W49858  18.271  16.512   4.269
77599W        W49859   4.273   7.575   4.309
77600W        W49860  23.528  38.586   2.218
77601W        W49861  35.889  13.867  11.655
77602W        W49862  40.518  19.590   3.325
77603W        W49863  37.834  35.903   1.249
77604W        W49864  27.800  21.471  14.413
77605W        W49865  19.301   6.627  14.918
77606W        W49866  34.824  23.735  11.452
77607W        W49867  19.724  18.559   3.340
77608W        W49868  24.577   4.272  14.175
77609W        W49869  44.534  30.523   4.145
77610W        W49870  16.837  40.016   1.937
77611W        W49871  14.612  25.927  12.399
77612W        W49872   6.361  37.806   1.720
77613W        W49873  10.835   5.878  11.718
77614W        W49874  41.993  40.276   4.893
77615W        W49875  14.682  26.953   0.719
77616W        W49876  40.416  16.988   1.711
77617W        W49877  17.946  18.054  14.958
77618W        W49878  19.050  25.649   0.434
77619W        W49879   7.920  28.671  14.476
77620W        W49880  39.561  21.964   0.384
77621W        W49881  34.316  15.892  14.923
77622W        W49882  36.998  26.499   2.979
77623W        W49883  29.890   5.975   1.350
77624W        W49884  18.368  20.129   2.393
77625W        W49885  40.652  43.536  13.747
77626W        W49886  12.429  36.779  12.481
77627W        W49887  38.215  37.962  11.511
77628W        W49888  40.385  11.667   0.856
77629W        W49889  38.819  20.726  13.904
77630W        W49890  25.674  17.782  11.606
77631W        W49891  36.260  36.045   1.641
77632W        W49892  34.904   6.580   5.003
77633W        W49893  12.087  12.214   0.473
77634W        W49894  40.668  31.953   4.526
77635W        W49895  15.800  29.140  14.350
77636W        W49896  21.968  44.421   3.173
77637W        W49897  39.325  21.287  11.566
77638W        W49898  23.502  18.084  11.532
77639W        W49899  22.549   6.410  11.938
77640W        W49900  17.056  35.929   3.213
77641W        W49901  25.107  20.193  10.732
77642W        W49902   0.270  29.392  14.005
77643W        W49903  39.604  39.311   3.639
77644W        W49904  39.130  29.507  13.438
77645W        W49905   8.235  12.665  13.444
77646W        W49906  40.510  21.057  13.550
77647W        W49907  41.065  17.598   3.728
77648W        W49908  14.022  43.009   2.627
77649W        W49909   2.233  17.530   3.600
77650W        W49910  34.561  44.593   0.908
77651W        W49911  20.755  44.554   4.108
77652W        W49912  26.257  20.097  12.963
77653W        W49913  38.444  15.747   3.209
77654W        W49914  12.701  15.358   0.157
77655W        W49915  30.129   8.514  10.732
77656W        W49916  25.806  32.724   0.935
77657W        W49917  29.071  42.984   0.447
77658W        W49918  10.781  39.399   0.913
77659W        W49919  15.093   1.360   1.981
77660W        W49920   5.280  28.435   1.385
77661W        W49921   5.453  24.531  11.063
77662W        W49922   2.011   1.965  13.309
77663W        W49923   7.397   4.911   1.885
77664W        W49924   0.670  44.876  13.296
77665W        W49925   6.527  13.592   4.573
77666W        W49926  30.070   5.803   2.664
77667W        W49927  18.953   0.430   1.883
77668W        W49928  30.434  30.652   1.748
77669W        W49929   7.345  23.484   0.384
77670W        W49930  24.428   4.382   0.183
77671W        W49931  24.404  16.594  12.041
77672W        W49932   3.931   4.349   0.957
77673W        W49933  21.775   1.370  12.478
77674W        W49934   3.262  34.413   9.983
77675W        W49935   7.385  43.292  12.702
77676W        W49936  19.153  41.594  13.881
77677W        W49937   8.356  42.503   4.613
77678W        W49938  40.369  36.471  12.883
77679W        W49939  40.552  39.022   1.911
77680W        W49940  35.079   4.816   1.325
77681W        W49941  42.911  39.506   3.781
77682W        W49942   9.152   2.191   2.752
77683W        W49943   9.288  15.266   4.810
77684W        W49944  36.098  26.237   2.240
77685W        W49945   7.365  35.155  14.365
77686W        W49946  30.900  43.300  12.523
77687W        W49947  22.590  28.004  14.920
77688W        W49948   1.528  12.661  14.881
77689W        W49949   1.257  33.912   2.888
77690W        W49950  43.567  29.994   2.343
77691W        W49951  37.880  32.442   1.393
77692W        W49952  23.730  20.679   9.792
77693W        W49953   6.925  40.313  11.877
77694W        W49954  17.208  34.839   4.659
77695W        W49955  31.011  18.490   1.430
77696W        W49956  33.551  12.299   9.930
77697W        W49957   2.238  43.527  10.631
77698W        W49958  17.806  22.479  12.560
77699W        W49959  10.923  32.407  10.802
77700W        W49960   2.232  37.971   3.709
77701W        W49961   6.909   7.258  12.853
77702W        W49962  27.051   3.692  13.167
77703W        W49963  22.334  32.977   4.868
77704W        W49964  13.710  40.276   5.119
77705W        W49965  33.106  10.236   0.885
77706W        W49966  11.184  14.604   2.343
77707W        W49967  40.584  13.917   3.852
77708W        W49968  28.647  17.680   4.782
77709W        W49969  16.956   5.203   2.241
77710W        W49970   1.472  41.480   3.353
77711W        W49971  27.794  40.465  11.997
77712W        W49972   4.951  41.804  14.438
77713W        W49973  18.765  14.725  14.337
77714W        W49974  34.616  17.047  10.807
77715W        W49975  39.283  27.854   3.744
77716W        W49976  14.247   0.861  10.773
77717W        W49977  13.663  19.953   0.386
77718W        W49978  36.643  16.069   4.250
77719W        W49979  22.022  33.366  14.051
77720W        W49980  42.395  33.026  11.556
77721W        W49981  36.506  32.361  12.979
77722W        W49982  31.915   1.560  12.435
77723W        W49983  13.132  14.283  13.929
77724W        W49984  29.668  42.915  12.079
77725W        W49985  30.045  19.752   0.243
77726W        W49986  17.817  41.745   2.157
77727W        W49987  10.239  38.823  10.605
77728W        W49988  43.904  27.745  10.888
77729W        W49989  23.020  11.282   4.275
77730W        W49990  24.252  25.115   2.241
77731W        W49991   1.747  27.476   2.354
77732W        W49992  29.638  37.284  12.412
77733W        W49993   3.425  20.684  14.809
77734W        W49994  10.870  19.593   5.259
77735W        W49995  38.296  13.751  10.684
77736W        W49996  20.154  19.014   2.072
77737W        W49997  30.019   5.363  14.925
77738W        W49998  33.177  37.718   1.335
77739W        W49999  24.458  27.450  13.106
77740W        W50000  39.542  21.934  14.862
77741W        W50001  40.957  29.126  11.539
77742W        W50002   7.302  26.722   3.834
77743W        W50003   2.298  34.940   2.323
77744W        W50004   9.374  17.253   0.033
77745W        W50005  30.425   7.946  11.448
77746W        W50006  29.762   3.721  12.182
77747W        W50007  44.962  15.291   1.647
77748W        W50008  24.943  40.481  12.018
77749W        W50009  34.963  17.610   4.855
77750W        W50010  20.048  34.401  12.469
77751W        W50011  10.832  17.508   2.176
77752W        W50012   7.635  38.360  14.483
77753W        W50013   5.920  24.752   1.254
77754W        W50014   3.822   3.378  13.896
77755W        W50015  22.714  15.902  12.122
77756W        W50016  12.617  24.745  13.925
77757W        W50017   2.491   4.336   4.143
77758W        W50018  40.960   0.308   3.103
77759W        W50019  31.105  34.987  14.428
77760W        W50020  44.262  12.868  12.368
77761W        W50021  33.986   6.166  13.414
77762W        W50022  37.317  42.938   2.646
77763W        W50023  27.079  43.964   1.738
77764W        W50024  22.519   4.361  13.621
77765W        W50025   8.903  13.511  12.482
77766W        W50026  18.556   5.253  11.614
77767W        W50027   3.679  29.140  11.170
77768W        W50028   5.471  29.867   4.806
77769W        W50029   7.015  20.226  12.597
77770W        W50030   8.125   3.205  14.010
77771W        W50031   0.672  10.531   5.334
77772W        W50032  28.212  17.128  11.110
77773W        W50033  25.964  12.831   2.363
77774W        W50034  16.825  15.842  10.601
77775W        W50035   3.517   2.428   1.765
77776W        W50036   1.825   3.711   2.172
77777W        W50037  36.050   4.690   3.763
77778W        W50038  30.018   8.951   4.548
77779W        W50039  40.367  43.530   0.276
77780W        W50040   4.910  27.514   0.496
77781W        W50041   8.323  41.489   4.985
77782W        W50042  27.623  44.814  11.886
77783W        W50043  40.460  30.899  13.280
77784W        W50044  24.186  31.979  14.521
77785W        W50045  15.617  17.545  12.002
77786W        W50046  35.349  12.625  11.217
77787W        W50047   8.331  32.462   1.713
77788W        W50048  22.496  29.541  13.734
77789W        W50049  24.838  20.658  10.892
77790W        W50050  23.054   5.082  11.014
77791W        W50051  41.751  12.337  13.957
77792W        W50052  41.506  11.853   0.921
77793W        W50053  15.604  16.228   0.858
77794W        W50054  41.735  30.380   0.315
77795W        W50055  11.574  18.945  12.439
77796W        W50056  12.654  40.293   4.668
77797W        W50057  15.915   3.163  12.072
77798W        W50058   5.095  32.574  11.654
77799W        W50059  16.594   0.941  14.373
77800W        W50060   3.837  40.052  13.645
77801W        W50061   8.713  14.738   3.209
77802W        W50062  42.114   1.451  13.942
77803W        W50063  30.958   9.825  13.653
77804W        W50064  29.542  13.156   2.010
77805W        W50065  22.694   2.442  14.371
77806W        W50066   8.255  22.025  14.351
77807W        W50067  35.406  16.050  11.509
77808W        W50068  27.341   2.999  11.365
77809W        W50069   6.409  34.480  14.964
77810W        W50070  27.507  21.235  13.344
77811W        W50071   8.559  36.333  10.684
77812W        W50072  23.525  39.542   3.553
77813W        W50073   6.510  11.184  14.275
77814W        W50074  34.828  41.956  11.111
77815W        W50075  26.060  42.078   0.163
77816W        W50076  37.059  10.463   3.802
77817W        W50077  31.119  43.784  12.476
77818W        W50078  12.127   4.028  12.023
77819W        W50079  25.923  17.550   4.719
77820W        W50080  11.731  29.610  12.226
77821W        W50081  31.629  36.484  12.385
77822W        W50082  19.870  33.436  12.418
77823W        W50083  22.156  34.298  13.902
77824W        W50084  21.906  14.573  14.877
77825W        W50085  34.173  31.059  10.645
77826W        W50086  27.912  32.387  11.854
77827W        W50087  16.349   5.903  10.988
77828W        W50088  15.421   5.556   0.825
77829W        W50089  41.924  37.567   0.895
77830W        W50090   8.541  43.847  13.449
77831W        W50091  32.741  15.385   0.945
77832W        W50092   7.837  16.246   1.496
77833W        W50093  37.582  43.714  10.318
77834W        W50094  42.920  10.874  14.799
77835W        W50095  25.207  27.482   0.441
77836W        W50096  24.108  30.590  14.765
77837W        W50097   3.386  12.269  11.509
77838W        W50098   7.907  32.774   1.674
77839W        W50099   3.441  16.355  11.053
77840W        W50100  44.366   1.424   9.987
77841W        W50101   2.380   7.325   4.488
77842W        W50102   4.873  23.646   4.956
77843W        W50103  30.318   7.148   0.304
77844W        W50104   5.004   1.405  11.984
77845W        W50105   4.289   5.774  11.444
77846W        W50106   0.062  44.486  12.675
77847W        W50107   8.906  10.828  13.314
77848W        W50108  43.305  23.301  12.730
77849W        W50109  29.241  19.104  13.052
77850W        W50110  18.154  13.240   0.750
77851W        W50111  29.625  30.129   4.213
77852W        W50112  35.427   0.549  10.666
77853W        W50113  10.911   9.839  14.313
77854W        W50114  43.840  24.320  10.700
77855W        W50115  40.852  26.009  13.977
77856W        W50116  20.089  16.123  12.289
77857W        W50117  42.982  21.719   1.829
77858W        W50118   7.334  28.097   4.958
77859W        W50119  32.918   1.529   3.110
77860W        W50120   6.410   1.948  12.614
77861W        W50121  12.094  35.966   4.508
77862W        W50122   9.428  18.125   4.170
77863W        W50123  34.666  35.542  11.602
77864W        W50124  27.616  44.950  13.462
77865W        W50125  23.926  38.189   0.476
77866W        W50126   6.726  24.897  10.629
77867W        W50127  10.350  40.653   1.072
77868W        W50128  19.825  27.238  14.859
77869W        W50129  44.652   3.368  13.346
77870W        W50130  40.424  39.603   3.777
77871W        W50131   7.170   8.620  10.703
77872W        W50132   6.826  26.325  11.179
77873W        W50133  43.815  31.780   2.182
77874W        W50134  33.935  36.827  13.290
77875W        W50135   5.188  13.359   2.196
77876W        W50136  23.456  41.288   3.241
77877W        W50137   8.783  44.161   1.326
77878W        W50138  21.508   0.538   3.716
77879W        W50139  39.840  33.031  11.321
77880W        W50140   3.960  12.059   2.642
77881W        W50141  23.049   7.855  14.862
77882W        W50142   0.540  36.975  14.035
77883W        W50143  16.030  22.957  13.936
77884W        W50144  36.139  32.851   2.294
77885W        W50145  18.170   5.941   0.542
77886W        W50146  33.114  39.812   2.754
77887W        W50147  27.266  20.467   2.727
77888W        W50148  44.363  39.292  14.957
77889W        W50149  38.844  40.810   4.959
77890W        W50150  12.102  43.234  12.847
77891W        W50151  29.975  14.825  12.831
77892W        W50152   0.253  42.476  14.839
77893W        W50153  32.566  24.151   4.689
77894W        W50154  28.368  14.897  13.132
77895W        W50155   6.790  15.376   0.028
77896W        W50156  27.015  25.643  13.379
77897W        W50157  13.798  24.472   4.894
77898W        W50158  12.620  44.210   1.143
77899W        W50159  28.664   6.875   1.908
77900W        W50160  15.122  30.027  13.356
77901W        W50161  37.410  17.519  13.857
77902W        W50162  10.830  28.207   2.190
77903W        W50163  42.424  22.130   0.447
77904W        W50164  18.484  30.559  13.965
77905W        W50165  43.272  40.432  12.259
77906W        W50166  25.154  32.131   4.473
77907W        W50167  32.001  42.018   2.397
77908W        W50168  29.082  38.042  13.519
77909W        W50169  25.985  14.334  14.848
77910W        W50170  43.438  31.363   3.515
77911W        W50171  16.340  39.444  12.043
77912W        W50172   1.305  17.126   3.859
77913W        W50173   3.405  44.451  12.769
77914W        W50174   6.445  38.881   3.113
77915W        W50175  42.466  41.865   2.414
77916W        W50176  34.519  39.381  14.269
77917W        W50177  31.571  36.257   1.187
77918W        W50178  12.679   5.266  10.676
77919W        W50179  26.149   6.296  12.140
77920W        W50180  14.835  33.748  11.575
77921W        W50181  26.536  10.395   3.999
77922W        W50182   0.749  14.276  12.054
77923W        W50183  27.118  22.845  12.517
77924W        W50184  40.853  23.896  14.496
77925W        W50185  41.892  14.266  14.372
77926W        W50186  38.320   4.912  14.801
77927W        W50187  26.535  10.588   4.955
77928W        W50188  39.310  15.247   3.239
77929W        W50189  30.332  13.667   3.700
77930W        W50190  15.698  28.964  10.811
77931W        W50191  33.203  16.470  12.430
77932W        W50192  41.828  13.786   0.679
77933W        W50193   7.390  40.908  12.522
77934W        W50194   3.293   3.294   1.682
77935W        W50195  41.681  32.544   1.476
77936W        W50196  40.607  44.254   1.880
77937W        W50197   7.654  19.703   4.123
77938W        W50198  10.820  44.273   0.415
77939W        W50199  10.279  24.406  14.928
77940W        W50200  40.255  30.632   4.627
77941W        W50201  36.884  32.855   2.828
77942W        W50202  36.970  29.374   1.742
77943W        W50203  37.866  37.500  10.616
77944W        W50204   8.726  10.243  12.667
77945W        W50205   5.815  32.401   0.910
77946W        W50206  19.115  37.500   4.377
77947W        W50207   4.335  35.646   0.530
77948W        W50208   8.822   7.174  12.184
77949W        W50209  16.230  18.531   2.379
77950W        W50210  20.878   6.963  14.466
77951W        W50211  37.292  37.579   4.086
77952W        W50212   7.906  27.433   0.755
77953W        W50213  27.261  35.361  11.685
77954W        W50214   4.249  29.435  13.138
77955W        W50215  20.120  30.504  14.825
77956W        W50216  17.565  15.026   1.331
77957W        W50217  25.859   1.058   2.523
77958W        W50218  10.815   0.176  10.525
77959W        W50219   8.386  38.058  12.983
77960W        W50220  28.658  40.484  13.433
77961W        W50221  43.239  37.692  11.484
77962W        W50222  37.355  22.914   4.731
77963W        W50223  19.581  21.754  13.190
77964W        W50224   1.464  22.135   1.884
77965W        W50225  20.898  18.485  11.855
77966W        W50226   7.315  37.046   0.088
77967W        W50227  33.681  12.367   2.454
77968W        W50228  12.862  40.440   2.344
77969W        W50229   2.118   4.895   1.437
77970W        W50230  26.534  20.612  12.094
77971W        W50231  30.008  18.316   1.381
77972W        W50232  40.460  39.289  12.599
77973W        W50233  10.613  17.258   0.756
77974W        W50234  42.274  43.900  11.648
77975W        W50235  40.939  10.055   0.839
77976W        W50236  26.236  33.366   0.416
77977W        W50237  29.689  35.979  13.934
77978W        W50238  13.776  35.654   0.763
77979W        W50239  18.057  16.594   1.757
77980W        W50240   9.906  35.596   2.938
77981W        W50241  13.418  13.686   2.383
77982W        W50242  19.776  44.952   0.373
77983W        W50243  35.615  30.923  12.800
77984W        W50244   7.218  21.172   4.371
77985W        W50245   4.330  13.396   0.878
77986W        W50246  25.505   4.178   1.467
77987W        W50247   5.931  32.090  14.523
77988W        W50248   4.142  25.764   9.888
77989W        W50249  14.787   4.265  13.487
77990W        W50250  33.122  11.300  12.011
77991W        W50251  29.518  19.302  13.514
77992W        W50252  10.097  43.772   0.280
77993W        W50253  13.124  23.541   0.383
77994W        W50254  18.384  36.421  14.014
77995W        W50255  17.268  17.575  11.417
77996W        W50256  22.713  34.018   1.952
77997W        W50257   8.148  42.421  12.470
77998W        W50258  14.740  37.838  11.658
77999W        W50259  31.565   7.218   2.925
78000W        W50260  14.547   7.380  11.950
78001W        W50261  13.807  41.279   0.617
78002W        W50262  37.427  35.600  13.255
78003W        W50263  43.740  34.419   4.706
78004W        W50264  12.556  23.673   2.179
78005W        W50265  23.363  34.351   0.416
78006W        W50266  28.100   3.570   0.284
78007W        W50267  14.502  19.470   0.181
78008W        W50268  11.341   7.131  10.717
78009W        W50269  17.317  33.840   0.193
78010W        W50270  12.754  28.068  12.320
78011W        W50271  23.225  37.324   3.193
78012W        W50272  32.044  11.143  14.316
78013W        W50273  19.082  34.450   4.022
78014W        W50274   5.805  35.962   3.791
78015W        W50275  16.636  31.062  13.301
78016W        W50276  43.058  36.030   0.365
78017W        W50277  30.243  21.537  11.600
78018W        W50278  16.155  37.610   3.945
78019W        W50279  31.171  20.477  12.915
78020W        W50280  38.403  31.453   2.818
78021W        W50281   2.282  32.477   0.020
78022W        W50282   0.401   1.469   4.534
78023W        W50283  25.210  38.238  11.965
78024W        W50284  23.650  14.613   0.062
78025W        W50285  33.957  39.300  10.629
78026W        W50286  35.531  13.916  10.672
78027W        W50287  24.120  34.092  14.011
78028W        W50288  28.327  25.512  12.083
78029W        W50289  14.309   0.280  10.777
78030W        W50290   3.250  22.089  11.908
78031W        W50291   2.975  43.551  14.897
78032W        W50292  33.361   1.065  11.507
78033W        W50293   8.222  39.367  13.814
78034W        W50294  39.059   6.304   2.513
78035W        W50295  44.477  36.309   4.317
78036W        W50296  44.007  14.615   3.277
78037W        W50297   8.698  22.642   3.311
78038W        W50298  22.091  42.308   1.934
78039W        W50299  21.474  25.064   3.571
78040W        W50300   7.520  37.023   2.862
78041W        W50301   6.408  42.086  14.096
78042W        W50302   4.774   3.008   1.476
78043W        W50303  11.812  10.204   3.737
78044W        W50304  26.484  17.413   2.864
78045W        W50305  17.216  37.774   2.233
78046W        W50306   3.662  14.249  13.551
78047W        W50307  34.414  33.095   3.675
78048W        W50308   9.376  25.828   2.240
78049W        W50309   0.976  13.341  14.815
78050W        W50310   7.677  25.193  11.426
78051W        W50311   0.444  40.930   2.594
78052W        W50312   8.753  17.548  11.066
78053W        W50313  22.926   0.272   2.204
78054W        W50314  22.411   7.702  12.123
78055W        W50315   1.826  36.066  14.933
78056W        W50316  36.593  23.639  13.477
78057W        W50317  41.411   2.844   0.279
78058W        W50318  39.676   6.313   1.194
78059W        W50319   1.433  39.626  11.957
78060W        W50320  14.695   5.807  14.061
78061W        W50321  32.577  20.644   0.883
78062W        W50322  35.124  20.198   3.705
78063W        W50323  27.984   9.261  11.787
78064W        W50324  32.552  38.621   4.835
78065W        W50325  33.000  37.763   1.823
78066W        W50326  21.049  16.279   2.803
78067W        W50327   1.322  42.116   1.517
78068W        W50328   3.481   3.518   2.118
78069W        W50329  13.773  15.819   4.627
78070W        W50330   5.345   4.457   1.345
78071W        W50331  22.116  33.833  10.716
78072W        W50332  23.010  32.201   2.882
78073W        W50333  10.705  15.196   1.392
78074W        W50334  17.236  10.621   0.525
78075W        W50335   8.683   7.121  14.376
78076W        W50336  30.212  32.991   3.234
78077W        W50337  35.313  41.926   4.485
78078W        W50338  35.487  13.620  11.073
78079W        W50339   6.813  38.642  11.111
78080W        W50340  10.389  16.256  12.375
78081W        W50341  25.730  27.132  14.074
78082W        W50342  44.449  26.528  11.955
78083W        W50343  38.852  24.408   1.019
78084W        W50344  19.347  28.940  12.692
78085W        W50345  44.078  26.020  13.469
78086W        W50346  21.527  24.985   3.052
78087W        W50347  29.098  31.407  11.222
78088W        W50348  21.892  32.982  11.561
78089W        W50349  13.599  37.350   1.715
78090W        W50350   8.426  34.033  14.392
78091W        W50351   8.719  43.308   1.271
78092W        W50352  32.997  27.731   0.738
78093W        W50353  18.473   5.775   4.252
78094W        W50354  43.721  37.038   3.591
78095W        W50355  42.594   4.515  14.777
78096W        W50356  38.158  34.292  12.521
78097W        W50357  33.180  41.594  12.501
78098W        W50358  31.457  29.857  14.738
78099W        W50359  22.661   9.605   0.309
78100W        W50360   9.456  16.050   3.029
78101W        W50361  17.009  31.066  14.595
78102W        W50362  17.673  36.524   1.329
78103W        W50363   7.349  40.850   3.094
78104W        W50364  28.047   9.827  11.031
78105W        W50365  40.658  11.304   3.239
78106W        W50366   0.825  24.746   4.147
78107W        W50367  24.251   2.011  12.670
78108W        W50368  42.905  22.025  11.271
78109W        W50369  37.369  35.867   4.552
78110W        W50370  18.171  29.393   4.614
78111W        W50371  39.297   0.309   1.905
78112W        W50372   4.318  39.235  13.017
78113W        W50373   0.777  16.307  14.977
78114W        W50374  28.979  40.155  14.297
78115W        W50375  24.740   2.535  11.283
78116W        W50376   7.846  27.168  10.439
78117W        W50377  13.791  20.267   2.787
78118W        W50378  22.254  33.353   0.787
78119W        W50379  16.416   0.423   0.587
78120W        W50380   5.441  16.110   2.278
78121W        W50381   3.494   8.881  14.340
78122W        W50382  41.031  28.786  11.160
78123W        W50383  33.959  16.037  11.595
78124W        W50384  20.697   8.293  14.712
78125W        W50385  41.036  38.097  12.089
78126W        W50386   5.196  44.775  13.259
78127W        W50387  16.553  16.594   2.479
78128W        W50388  40.273   2.781  12.821
78129W        W50389  23.344  24.727   4.195
78130W        W50390  19.219  24.730   3.593
78131W        W50391  27.675  42.889   1.402
78132W        W50392  35.388   9.371  11.557
78133W        W50393  44.238   9.387  12.596
78134W        W50394  11.087  37.760   3.340
78135W        W50395  39.306   4.901   4.145
78136W        W50396  20.718  14.139   0.611
78137W        W50397  38.536  33.724   0.263
78138W        W50398  16.354  25.612   0.411
78139W        W50399   4.862  16.615   0.227
78140W        W50400  13.030  22.329   4.188
78141W        W50401  42.998  34.987  10.412
78142W        W50402  43.898  39.989   0.755
78143W        W50403  43.273  36.692   1.898
78144W        W50404  19.306   7.167  14.964
78145W        W50405  31.482  23.685  11.843
78146W        W50406  44.197  27.903   2.788
78147W        W50407   7.404  39.517   2.434
78148W        W50408   4.848  23.055   2.863
78149W        W50409  10.729   8.639  13.475
78150W        W50410  16.587  17.837  13.956
78151W        W50411  34.165  14.446  11.179
78152W        W50412   9.443  16.150   3.547
78153W        W50413  40.965  40.738  13.933
78154W        W50414  27.458   3.084  14.875
78155W        W50415  16.944   9.886   2.335
78156W        W50416  18.118  23.196   3.115
78157W        W50417  21.270   2.056  11.549
78158W        W50418   6.487  42.912  13.783
78159W        W50419   4.466  43.033   3.699
78160W        W50420  41.698  20.176  10.802
78161W        W50421  40.635  32.062  13.873
78162W        W50422  10.590  35.594   1.009
78163W        W50423   3.413  31.636   4.158
78164W        W50424  41.292  10.283  11.162
78165W        W50425  26.456  15.006   4.243
78166W        W50426  34.224  34.588  13.814
78167W        W50427  31.527  34.631  12.921
78168W        W50428  16.217  18.476  12.407
78169W        W50429  39.873  24.627   1.280
78170W        W50430  25.137   5.951   0.776
78171W        W50431  40.888  24.046   1.327
78172W        W50432  37.999  44.197   1.400
78173W        W50433  19.264  39.392   2.186
78174W        W50434   5.262  15.575   4.710
78175W        W50435  26.419  18.600  12.160
78176W        W50436  23.717  13.123   3.121
78177W        W50437   7.612  21.478   2.377
78178W        W50438  20.663   5.246  12.841
78179W        W50439  31.898   8.035  14.366
78180W        W50440  22.808  32.628  11.236
78181W        W50441   4.429   7.809  13.937
78182W        W50442  23.646  14.777  11.203
78183W        W50443  33.425  30.128   4.804
78184W        W50444  39.426   3.925   1.228
78185W        W50445  17.292  16.755  12.092
78186W        W50446   7.771  15.315  12.635
78187W        W50447  44.837   5.242   4.580
78188W        W50448  30.183  30.541  11.945
78189W        W50449  21.062  23.685  11.463
78190W        W50450  38.624  22.701   3.643
78191W        W50451  28.470  25.692   4.564
78192W        W50452  30.113  10.402  12.929
78193W        W50453  23.038   7.776   2.751
78194W        W50454   4.859   0.393  12.141
78195W        W50455  36.589  36.670  11.103
78196W        W50456   6.669   6.227   0.406
78197W        W50457  21.527  37.836   2.898
78198W        W50458  36.140  36.566  14.783
78199W        W50459  35.001  33.518   0.675
78200W        W50460  21.890   9.178  10.808
78201W        W50461   4.270  31.533  11.544
78202W        W50462  41.998  42.828  14.772
78203W        W50463  24.254   1.697  14.360
78204W        W50464  28.095  33.413  12.925
78205W        W50465  29.252  31.077  13.810
78206W        W50466  17.325  11.946  11.141
78207W        W50467   1.298   8.898   3.050
78208W        W50468   0.942  27.969   3.566
78209W        W50469  33.672   0.359   3.043
78210W        W50470  27.512   6.213  13.892
78211W        W50471  23.260  40.467   4.593
78212W        W50472  36.384  38.263  11.066
78213W        W50473  14.312  37.129  11.327
78214W        W50474   4.829  42.957   1.664
78215W        W50475  10.404   9.397   0.475
78216W        W50476  44.365  12.302  14.707
78217W        W50477  40.583  41.832   1.712
78218W        W50478  42.488  33.875  10.715
78219W        W50479   6.393  20.711  13.829
78220W        W50480  29.965  20.456   4.238
78221W        W50481   9.440  11.032   4.440
78222W        W50482  20.706  43.584   1.395
78223W        W50483  24.104  19.093   3.316
78224W        W50484   3.020  22.449  11.618
78225W        W50485  12.973  36.148   0.808
78226W        W50486  40.566  10.275  12.436
78227W        W50487  40.394  22.406  12.348
78228W        W50488  28.947   3.711  13.433
78229W        W50489   3.999  23.607   1.773
78230W        W50490  16.734  41.469  12.595
78231W        W50491  20.351  11.727   4.099
78232W        W50492  11.822  17.731   0.165
78233W        W50493   9.783  14.789  14.895
78234W        W50494  15.799   4.989   2.364
78235W        W50495   6.792  34.513   0.300
78236W        W50496  25.926   7.226   1.166
78237W        W50497   1.873   8.363  13.063
78238W        W50498  41.553  38.213  10.546
78239W        W50499  44.503  31.555   0.978
78240W        W50500   0.320  16.908  11.989
78241W        W50501  29.661  19.167  11.623
78242W        W50502   3.710  16.786   1.265
78243W        W50503  43.458  22.442  12.253
78244W        W50504  38.703   0.288   0.194
78245W        W50505  35.375   4.007  11.575
78246W        W50506  16.463   0.360   1.342
78247W        W50507  42.371  44.361  11.410
78248W        W50508   4.424  38.486   3.690
78249W        W50509   8.737  43.014  10.594
78250W        W50510  31.987   3.451  11.646
78251W        W50511  44.445  10.819   3.388
78252W        W50512  23.318  32.860  12.856
78253W        W50513  34.096   0.334  14.865
78254W        W50514  20.224  14.780   2.330
78255W        W50515  44.891   1.352   0.329
78256W        W50516  25.226  25.880   4.642
78257W        W50517  12.937  38.939  12.660
78258W        W50518  17.885  40.973  14.435
78259W        W50519  25.081  36.341  11.511
78260W        W50520  15.657  25.550  11.609
78261W        W50521  12.909  37.090   1.951
78262W        W50522  16.268  10.700  14.545
78263W        W50523  37.048  43.240   0.084
78264W        W50524  32.388   5.463   1.339
78265W        W50525  12.232  26.269   1.931
78266W        W50526   9.779  27.663  13.817
78267W        W50527  17.014  31.026   2.166
78268W        W50528  20.350   6.686  11.692
78269W        W50529  14.088  14.016   3.735
78270W        W50530  15.982   6.389  14.941
78271W        W50531  11.866  15.626  11.588
78272W        W50532  36.377  12.445  12.134
78273W        W50533  33.126  40.841  14.848
78274W        W50534  28.156  14.796  14.943
78275W        W50535   5.695  23.478   0.870
78276W        W50536   5.162  15.969  12.394
78277W        W50537  28.445  29.050  11.092
78278W        W50538   4.748   0.245  14.802
78279W        W50539  17.584  34.020  13.860
78280W        W50540  41.304  22.515  11.538
78281W        W50541  22.230  36.053   1.914
78282W        W50542  29.129  29.222   0.496
78283W        W50543  33.057  43.299  14.102
78284W        W50544  17.245  13.937   1.790
78285W        W50545  41.391  26.105   2.332
78286W        W50546  43.105  16.653   1.759
78287W        W50547  29.842  14.309  11.708
78288W        W50548  27.921  31.405   5.055
78289W        W50549   6.913  22.243   4.249
78290W        W50550   8.840  36.191  14.608
78291W        W50551   5.538  15.277  13.089
78292W        W50552   9.157  10.042  12.514
78293W        W50553  10.223  19.297   2.801
78294W        W50554   5.876  14.820   1.346
78295W        W50555  18.837  13.967   0.903
78296W        W50556   7.367  38.772  13.992
78297W        W50557  34.358  18.374  13.971
78298W        W50558   7.213  11.802  12.548
78299W        W50559  17.390  22.084   1.640
78300W        W50560  16.992  29.762  10.782
78301W        W50561   4.399  25.515   3.169
78302W        W50562  27.183   5.347   1.441
78303W        W50563  16.258   8.002  11.099
78304W        W50564  35.340  40.346  11.974
78305W        W50565   8.876  25.198   4.142
78306W        W50566  29.492   3.286  12.069
78307W        W50567   3.163  37.865   0.484
78308W        W50568  20.730  39.519   0.866
78309W        W50569  32.963   6.968  14.792
78310W        W50570  13.715  36.008   0.338
78311W        W50571  15.071  26.743   1.651
78312W        W50572  14.518  32.070   1.845
78313W        W50573  15.573   9.912  13.946
78314W        W50574  31.581  33.154  11.945
78315W        W50575  25.968  10.158  10.715
78316W        W50576   5.635  44.553   1.355
78317W        W50577  27.661  33.702  12.957
78318W        W50578  22.743  31.010   0.788
78319W        W50579  11.047   3.911   4.162
78320W        W50580  38.596  37.077   2.677
78321W        W50581  37.553  10.744  11.490
78322W        W50582   1.460  12.094  11.436
78323W        W50583   3.685  17.668  11.929
78324W        W50584   5.400   5.605   0.262
78325W        W50585  10.922  32.220   1.531
78326W        W50586  20.191  31.651  10.737
78327W        W50587  40.487   3.361  14.502
78328W        W50588   6.359  27.466  12.219
78329W        W50589  22.939  36.865   3.243
78330W        W50590  14.072   9.826   3.209
78331W        W50591  13.590  42.556  12.392
78332W        W50592  37.815  21.084   2.124
78333W        W50593  32.068  43.618  13.924
78334W        W50594   5.989   3.184   3.727
78335W        W50595  38.112  24.808  10.881
78336W        W50596  27.957  36.733  13.376
78337W        W50597  29.714  31.947  11.540
78338W        W50598  14.648  26.149   2.094
78339W        W50599   5.244  16.305   1.862
78340W        W50600  27.658  44.101  13.879
78341W        W50601  27.178  42.981   1.192
78342W        W50602  11.114  17.128   0.508
78343W        W50603  37.803  33.963  13.404
78344W        W50604  44.193  27.672  12.645
78345W        W50605  34.212  42.787   3.106
78346W        W50606  20.224   9.868  11.572
78347W        W50607  24.255  25.092  12.409
78348W        W50608   9.653  23.131  13.973
78349W        W50609  35.370  29.718   0.988
78350W        W50610  22.073  39.514   3.838
78351W        W50611  35.002  39.643   1.389
78352W        W50612  32.659  30.708  12.155
78353W        W50613  25.994  11.202  14.839
78354W        W50614   8.754   6.019   4.591
78355W        W50615  19.113   6.472  11.419
78356W        W50616  27.372  29.699   4.296
78357W        W50617  12.152  32.379  14.250
78358W        W50618  18.615   4.747   2.336
78359W        W50619  26.171  22.233   2.924
78360W        W50620  44.955  28.554  14.975
78361W        W50621  20.269  12.274  13.949
78362W        W50622  29.988  30.827   3.445
78363W        W50623   9.740   3.466   2.659
78364W        W50624  16.763   8.371   0.912
78365W        W50625   9.204   1.490  12.801
78366W        W50626   8.785  15.579   2.723
78367W        W50627  40.829  23.396  11.622
78368W        W50628  28.051  19.710   3.195
78369W        W50629  39.558  10.978  11.952
78370W        W50630   7.701  20.193  14.915
78371W        W50631  35.479  33.328  14.740
78372W        W50632  23.987  25.098  12.886
78373W        W50633  29.643  27.105  13.849
78374W        W50634  19.329  25.734   4.582
78375W        W50635  22.950   7.742  12.125
78376W        W50636   7.419  43.057  13.316
78377W        W50637  34.103   8.799   2.705
78378W        W50638  18.836   0.404   4.236
78379W        W50639  30.933   5.790   3.805
78380W        W50640  31.638   5.408  12.968
78381W        W50641   6.013  24.654   1.877
78382W        W50642   3.459  44.416  12.116
78383W        W50643   7.851   2.754  13.805
78384W        W50644   4.441  25.199  12.043
78385W        W50645  25.761  24.023  12.432
78386W        W50646  31.593   8.867  10.542
78387W        W50647  12.622  40.901   0.855
78388W        W50648  27.077   6.348   1.669
78389W        W50649  23.272  37.852  14.440
78390W        W50650  30.041   4.916  13.895
78391W        W50651  12.824  15.354  14.644
78392W        W50652   1.052  13.595   1.412
78393W        W50653  41.492  38.287  11.896
78394W        W50654  17.345  22.055   2.521
78395W        W50655  23.384  19.450   4.904
78396W        W50656   9.712   8.722   0.613
78397W        W50657  26.146  29.432  14.891
78398W        W50658  44.511  37.412  13.380
78399W        W50659   5.765  33.561  13.499
78400W        W50660   2.303   8.134  14.336
78401W        W50661  17.053  41.288   4.245
78402W        W50662   7.158  13.629   0.812
78403W        W50663  41.902  11.843   2.727
78404W        W50664  11.693  12.140  14.656
78405W        W50665   0.264  20.218   4.762
78406W        W50666   2.263  33.118  10.532
78407W        W50667  44.542  35.135   1.825
78408W        W50668  30.704  28.356  12.185
78409W        W50669   4.299  43.733  14.237
78410W        W50670   0.376  33.138   0.409
78411W        W50671  23.125   6.793   3.141
78412W        W50672   7.036  19.532  12.925
78413W        W50673  10.476  24.343   4.078
78414W        W50674  40.518  23.204  12.608
78415W        W50675  44.098  17.786   2.721
78416W        W50676   0.854   6.945   0.461
78417W        W50677  23.293  30.560  14.987
78418W        W50678  43.298  36.906  10.888
78419W        W50679  20.486  35.955   4.212
78420W        W50680   6.863  18.740   0.190
78421W        W50681  25.530   6.285   4.563
78422W        W50682  27.667  26.662   4.091
78423W        W50683   9.909  31.558  11.615
78424W        W50684  41.344  13.389   1.482
78425W        W50685  15.270  12.864  12.478
78426W        W50686  33.549  14.376   2.208
78427W        W50687  28.355  18.672  14.394
78428W        W50688  20.599  13.285   3.130
78429W        W50689  26.948   7.558  13.481
78430W        W50690  12.694  34.877   0.312
78431W        W50691  29.511  39.095   2.198
78432W        W50692  30.189   0.995   4.088
78433W        W50693  19.750  11.803   4.988
78434W        W50694  43.044   3.790   1.389
78435W        W50695  42.279   5.665   1.745
78436W        W50696  34.846  30.183  11.012
78437W        W50697   7.205   6.423   0.100
78438W        W50698  23.122  11.807   3.656
78439W        W50699  42.658   1.540  14.960
78440W        W50700  30.320  10.905  11.525
78441W        W50701   7.442  24.567   5.028
78442W        W50702  25.642  18.778   4.868
78443W        W50703  44.925  24.655  13.375
78444W        W50704  25.534  24.545   2.334
78445W        W50705   4.188  12.324  11.152
78446W        W50706   3.818  17.098   0.838
78447W        W50707  29.247  40.512  14.576
78448W        W50708  35.742  24.174  13.482
78449W        W50709  19.681  14.773   3.449
78450W        W50710  27.148  15.206  12.347
78451W        W50711   6.401  13.346  12.819
78452W        W50712  33.351  14.095   0.840
78453W        W50713  14.117   8.449  12.851
78454W        W50714  20.543   6.947  14.043
78455W        W50715  27.605   7.482   2.208
78456W        W50716   6.314  15.627   4.048
78457W        W50717  38.812  19.840  10.997
78458W        W50718  20.036   3.221  13.998
78459W        W50719  25.601  11.560  12.953
78460W        W50720  21.295  10.875  11.521
78461W        W50721  27.089  22.039  10.645
78462W        W50722  20.145   9.381  11.547
78463W        W50723  25.946  36.987   3.824
78464W        W50724  35.431  16.213  14.367
78465W        W50725  14.716  38.960   1.037
78466W        W50726   8.332  30.869  12.057
78467W        W50727  31.986  23.637  14.083
78468W        W50728  25.131  36.646   0.180
78469W        W50729  20.631   8.849  12.025
78470W        W50730  42.955  21.286   5.090
78471W        W50731  11.580  37.043   1.518
78472W        W50732  15.225  29.593  12.088
78473W        W50733   6.592  12.665  11.995
78474W        W50734  40.299  26.100  13.328
78475W        W50735   2.671  17.659  11.023
78476W        W50736  39.599  33.210   1.233
78477W        W50737   4.533  36.684  11.154
78478W        W50738  25.318  37.511   1.697
78479W        W50739  12.803   0.681   1.170
78480W        W50740  36.301  23.941   3.207
78481W        W50741  20.592  18.813   2.267
78482W        W50742  34.855  33.015  11.524
78483W        W50743  13.965   2.720  12.940
78484W        W50744   0.383  14.245  10.748
78485W        W50745   8.225  39.472  13.335
78486W        W50746  16.661  39.385  12.968
78487W        W50747   1.996  36.098   1.945
78488W        W50748   5.252   2.991   2.256
78489W        W50749  34.460  10.590  13.370
78490W        W50750   3.639  43.491   4.036
78491W        W50751  37.866  29.716  13.951
78492W        W50752  17.805  30.875   3.027
78493W        W50753  10.942  28.475  13.506
78494W        W50754  36.084   1.324   0.902
78495W        W50755  20.361  42.279   1.641
78496W        W50756   6.818  20.895   1.352
78497W        W50757  26.600  32.769  12.503
78498W        W50758   9.179  17.378   4.268
78499W        W50759  12.873  44.340  12.537
78500W        W50760   9.874  38.376   4.643
78501W        W50761  33.598  13.885   1.279
78502W        W50762   9.293  43.544  13.377
78503W        W50763  44.404  44.592   3.557
78504W        W50764  12.370  16.288  13.480
78505W        W50765  43.989  36.384   4.136
78506W        W50766  17.539  37.597  11.544
78507W        W50767  12.358  38.062   2.084
78508W        W50768  13.615  13.928  11.440
78509W        W50769   0.025   7.749  12.912
78510W        W50770  39.504  21.078   2.171
78511W        W50771   1.911  21.215  14.139
78512W        W50772  34.433  39.262  13.247
78513W        W50773   0.059  10.707  12.444
78514W        W50774  21.559  11.643  11.987
78515W        W50775   3.293  14.109   0.438
78516W        W50776  13.349  33.701   4.990
78517W        W50777   7.999   2.263  11.836
78518W        W50778  39.128  17.688   4.238
78519W        W50779   8.669   3.202  12.081
78520W        W50780  17.785  43.245  11.959
78521W        W50781  29.837  16.351  13.404
78522W        W50782   9.745  12.638  12.550
78523W        W50783  39.313  41.350  11.121
78524W        W50784   1.874  28.904   2.164
78525W        W50785  34.887  17.273  13.539
78526W        W50786  44.714  12.229   2.103
78527W        W50787  27.092   9.781   4.396
78528W        W50788  28.398   9.572  14.944
78529W        W50789   2.975  43.458  12.917
78530W        W50790  16.412  43.936  12.881
78531W        W50791  10.271  37.250   5.053
78532W        W50792  44.188  16.277  13.321
78533W        W50793  40.449  16.554   4.743
78534W        W50794  30.769  38.454   3.122
78535W        W50795   4.282  14.165   9.842
78536W        W50796  27.761  38.761   3.502
78537W        W50797  29.532   3.753  12.651
78538W        W50798  36.884  16.616  13.795
78539W        W50799  27.524  44.263   4.227
78540W        W50800  21.322  39.453   3.212
78541W        W50801   2.372  35.158   1.260
78542W        W50802  11.374  12.204  12.858
78543W        W50803   3.845  22.231  14.385
78544W        W50804   2.164  19.079   0.881
78545W        W50805  35.506  43.039  12.441
78546W        W50806  11.506  40.274   4.654
78547W        W50807  19.192  30.024   1.175
78548W        W50808  38.387  16.755  14.967
78549W        W50809  43.749  35.400  10.581
78550W        W50810   2.011  42.838  11.919
78551W        W50811  11.718  16.073  14.268
78552W        W50812   8.614  39.190   3.678
78553W        W50813  35.090  44.362  11.150
78554W        W50814  40.332  29.890   0.295
78555W        W50815  23.334  29.161   9.848
78556W        W50816  28.539   8.841  12.444
78557W        W50817  12.002  44.321   3.599
78558W        W50818  21.745  17.782   1.737
78559W        W50819   8.333  38.772   4.553
78560W        W50820  14.139   1.011   2.289
78561W        W50821  21.678  40.448   2.390
78562W        W50822  28.429   0.828  13.321
78563W        W50823  32.134  33.880   2.841
78564W        W50824   5.998  36.848   0.455
78565W        W50825   2.009  24.935   0.759
78566W        W50826  20.924  19.652  14.911
78567W        W50827  40.466  17.009  13.948
78568W        W50828  31.960  16.427  14.407
78569W        W50829  15.790   0.389  14.081
78570W        W50830  12.248  27.937  11.497
78571W        W50831  26.971  12.704  12.690
78572W        W50832   7.703  42.797   2.089
78573W        W50833  27.706  39.465   2.716
78574W        W50834  20.991  14.910   0.004
78575W        W50835  35.486   8.309  10.734
78576W        W50836   3.456  21.288  13.219
78577W        W50837  42.661  26.979  12.562
78578W        W50838  18.689  11.792  12.250
78579W        W50839  29.835  24.246   2.236
78580W        W50840  22.940  25.008  12.836
78581W        W50841   7.198  26.125  14.268
78582W        W50842  30.943  30.600   3.728
78583W        W50843  30.906  11.318  12.320
78584W        W50844  32.837  43.020   0.439
78585W        W50845  23.278  15.320   4.596
78586W        W50846  32.086   7.118  10.772
78587W        W50847   9.729   5.374   2.851
78588W        W50848  27.151  21.277   4.121
78589W        W50849  24.086   0.558   3.106
78590W        W50850  26.711  30.489   3.627
78591W        W50851  42.435  30.154   3.726
78592W        W50852  37.135  18.027  12.270
78593W        W50853  36.094   7.977   0.925
78594W        W50854  20.414  18.640   1.782
78595W        W50855  14.286  27.537   3.286
78596W        W50856  17.090  43.251  13.488
78597W        W50857  15.508   0.422  11.933
78598W        W50858  37.318  23.151   2.020
78599W        W50859   3.251   3.818   1.750
78600W        W50860   3.306  44.462   1.845
78601W        W50861  42.491  35.173  12.116
78602W        W50862  41.052   6.108  14.927
78603W        W50863   3.911  26.645  11.531
78604W        W50864  28.008  15.048   4.187
78605W        W50865  18.513   1.966   2.007
78606W        W50866  18.606  18.424  11.832
78607W        W50867  10.238  25.933  12.053
78608W        W50868  37.120  43.365  11.947
78609W        W50869  44.319  40.268   2.715
78610W        W50870  18.483  23.475  12.082
78611W        W50871  25.979   4.693  13.470
78612W        W50872  22.062   4.831  10.644
78613W        W50873  21.175  14.175   0.275
78614W        W50874  31.986  30.207  13.838
78615W        W50875  22.670  12.232   3.430
78616W        W50876  25.271  21.099  10.779
78617W        W50877  43.526  35.865  13.399
78618W        W50878   6.694  32.460  10.756
78619W        W50879  16.177  22.207   3.456
78620W        W50880  38.048   6.281  13.399
78621W        W50881  42.819  10.354  14.788
78622W        W50882  38.569  41.983   4.533
78623W        W50883  38.951  26.648   1.077
78624W        W50884   9.109  42.967   0.628
78625W        W50885   1.388   3.823  13.399
78626W        W50886  25.582  43.933   3.179
78627W        W50887  28.525  32.180   3.281
78628W        W50888  11.298   9.120  14.202
78629W        W50889  22.601  39.961   0.907
78630W        W50890  20.174  14.124  12.903
78631W        W50891  38.493  25.567  14.217
78632W        W50892  20.338   9.646   0.909
78633W        W50893  42.412  12.342   2.188
78634W        W50894   0.734  19.960  12.076
78635W        W50895  17.291   2.663   2.563
78636W        W50896  35.654  37.481  13.403
78637W        W50897  38.491  39.386   0.012
78638W        W50898  32.464  35.695  10.780
78639W        W50899   9.604  31.671   3.689
78640W        W50900   5.855  28.588   3.091
78641W        W50901  43.637  42.350   0.910
78642W        W50902  17.324  42.981  12.226
78643W        W50903   1.791  27.944  13.581
78644W        W50904   5.561  35.504   3.699
78645W        W50905  36.461  18.308  13.368
78646W        W50906  31.936  36.172   3.770
78647W        W50907  12.903  43.630  11.958
78648W        W50908  23.105  23.536   1.934
78649W        W50909   5.182  31.474  12.455
78650W        W50910   6.791  10.651  12.869
78651W        W50911  31.249   4.833  13.591
78652W        W50912   1.996  38.625  14.928
78653W        W50913  15.491   2.192   4.889
78654W        W50914  25.456   6.790  14.965
78655W        W50915  17.285  10.227  11.946
78656W        W50916  21.769  24.559  12.549
78657W        W50917  18.758  19.142  13.032
78658W        W50918  39.234  11.678  13.323
78659W        W50919  23.018  43.994   1.811
78660W        W50920  10.646  13.319   2.439
78661W        W50921   4.013   4.852   4.164
78662W        W50922  35.603  11.406  11.923
78663W        W50923   8.398   2.081   3.519
78664W        W50924  22.707  34.861  10.099
78665W        W50925  25.386  23.612   4.591
78666W        W50926  13.781  15.204   1.748
78667W        W50927   3.576  36.799   2.353
78668W        W50928  17.834  10.698   3.335
78669W        W50929  31.119  13.780  14.066
78670W        W50930   0.201   7.852  14.587
78671W        W50931  39.137  23.581  14.406
78672W        W50932  22.005  17.314   0.290
78673W        W50933  43.364  31.848  12.514
78674W        W50934   6.694  27.738   4.177
78675W        W50935  12.756  26.926  14.944
78676W        W50936  41.532  35.769   1.660
78677W        W50937  22.770  17.991  10.145
78678W        W50938  14.753  21.960   1.699
78679W        W50939  25.444  39.858  12.527
78680W        W50940  12.943  30.579  12.112
78681W        W50941  37.291  32.161   1.674
78682W        W50942  23.220  28.184  10.107
78683W        W50943  14.560   5.456   2.170
78684W        W50944  17.715  15.753   1.797
78685W        W50945   4.663  18.175   3.222
78686W        W50946  33.581  17.471   2.397
78687W        W50947  34.931  30.542   4.119
78688W        W50948  43.472  19.254   2.783
78689W        W50949  11.880  16.800   0.394
78690W        W50950  32.572  43.722   3.140
78691W        W50951  14.828  10.892   0.268
78692W        W50952  24.755  41.334  14.374
78693W        W50953  37.046  31.292   1.871
78694W        W50954  30.941  31.089   1.190
78695W        W50955  35.451  30.464   1.364
78696W        W50956  39.922  44.143  12.424
78697W        W50957  31.958  43.412  12.546
78698W        W50958  24.920  15.097   0.254
78699W        W50959  21.929  20.362   3.654
78700W        W50960  42.227  29.426  10.436
78701W        W50961  20.072   0.110  11.193
78702W        W50962  16.510  10.298  12.416
78703W        W50963   3.412  33.012   2.018
78704W        W50964  34.890  35.446   2.363
78705W        W50965  27.119  44.500   1.760
78706W        W50966  36.107  23.523   4.153
78707W        W50967   3.910   7.136   4.423
78708W        W50968  22.773  32.866  12.942
78709W        W50969  23.113  17.188   4.376
78710W        W50970   7.808   3.189  12.171
78711W        W50971  35.317  43.063   1.296
78712W        W50972  29.449  18.634  11.492
78713W        W50973  20.109  28.803   0.726
78714W        W50974  12.814  19.746  11.538
78715W        W50975  35.056  40.920   4.188
78716W        W50976   0.740  34.430  12.052
78717W        W50977  20.154  20.537   2.718
78718W        W50978  30.931  24.217  12.443
78719W        W50979   5.785  21.276  13.885
78720W        W50980  16.256  12.292  12.941
78721W        W50981  15.376  11.120   0.888
78722W        W50982  13.703  38.364  12.359
78723W        W50983  41.235  34.084   1.678
78724W        W50984  11.750  26.833  10.647
78725W        W50985  11.981  29.024  14.993
78726W        W50986  38.104  27.191   0.743
78727W        W50987  11.658  29.079  13.595
78728W        W50988  41.735   4.253   4.941
78729W        W50989   7.803  19.843  11.925
78730W        W50990  11.167  37.325   0.785
78731W        W50991  16.204  17.082   0.964
78732W        W50992  25.246  15.728   3.953
78733W        W50993  41.330  13.649   1.937
78734W        W50994  26.700  22.766   3.249
78735W        W50995  42.704  15.063   2.145
78736W        W50996  40.314  30.479  11.207
78737W        W50997  22.995  10.487   1.363
78738W        W50998  14.541  31.142  13.979
78739W        W50999   6.650   6.009  10.635
78740W        W51000  35.620   4.512  10.761
78741W        W51001  42.300  30.470  13.026
78742W        W51002  24.786  28.676  14.905
78743W        W51003  41.176  41.004   4.146
78744W        W51004  42.387  27.030  11.532
78745W        W51005  26.163  23.733  11.507
78746W        W51006  28.900   6.649  12.347
78747W        W51007  38.540  10.817   9.807
78748W        W51008   5.373  19.020   0.191
78749W        W51009   3.386  34.733   0.081
78750W        W51010   8.246  42.428   3.080
78751W        W51011  34.825  15.342  13.520
78752W        W51012  25.792  40.916  11.987
78753W        W51013  34.340  26.257  12.935
78754W        W51014  23.171  29.253   1.601
78755W        W51015  24.050  22.662  11.084
78756W        W51016   6.352   8.683  13.472
78757W        W51017  40.815  23.143   3.668
78758W        W51018  12.289  36.612   2.421
78759W        W51019  14.304  25.282   3.468
78760W        W51020  14.242  25.920  13.570
78761W        W51021  11.396  12.961  12.189
78762W        W51022  20.058  10.409   2.364
78763W        W51023  42.113   5.034   0.243
78764W        W51024  23.038  21.458   0.921
78765W        W51025  38.570   9.151  11.732
78766W        W51026  34.164   7.640  13.829
78767W        W51027  42.086  43.322  12.693
78768W        W51028   8.614  30.693   3.470
78769W        W51029  37.897  10.837   2.698
78770W        W51030  43.321  16.325  13.020
78771W        W51031  39.121  11.406   0.447
78772W        W51032  40.531  43.487   4.726
78773W        W51033  23.018  25.622   3.810
78774W        W51034  40.748  12.693  14.509
78775W        W51035   6.692   8.846  14.384
78776W        W51036  23.064  23.200  14.955
78777W        W51037  24.982   2.313  11.656
78778W        W51038  23.208   8.557  11.507
78779W        W51039   3.304   2.079   3.704
78780W        W51040  35.854  19.820  11.137
78781W        W51041   1.101  17.649  14.232
78782W        W51042  44.442  43.489  12.924
78783W        W51043  36.413  41.842  10.976
78784W        W51044  26.200  31.650   1.438
78785W        W51045  41.480  34.451   2.810
78786W        W51046  33.506  43.219  12.006
78787W        W51047  18.242  35.565   0.453
78788W        W51048  14.348  11.352  11.164
78789W        W51049  20.026  38.962   0.451
78790W        W51050  41.407  27.924   0.317
78791W        W51051  32.725  22.027   2.986
78792W        W51052  10.297  19.712   0.411
78793W        W51053  29.997   2.539   2.611
78794W        W51054   7.282  44.006  12.032
78795W        W51055  35.430  15.088   4.606
78796W        W51056  36.591  30.895  11.775
78797W        W51057  27.255  29.542   3.804
78798W        W51058  18.725  37.411  10.897
78799W        W51059  33.790  33.155   2.595
78800W        W51060  35.452  27.219   3.014
78801W        W51061  28.608   3.352   3.291
78802W        W51062  27.874  43.422  13.554
78803W        W51063   7.045  35.080  12.858
78804W        W51064  33.633  23.060  13.677
78805W        W51065  41.241  33.365  11.107
78806W        W51066  36.985   9.128  13.880
78807W        W51067  10.866   2.401   2.127
78808W        W51068  19.528  39.871  13.649
78809W        W51069  31.894  44.755   1.494
78810W        W51070  18.508  16.624  13.474
78811W        W51071  15.393  13.626   4.161
78812W        W51072  21.181   9.316   0.886
78813W        W51073  44.220  36.980  10.664
78814W        W51074  27.890   3.427   3.054
78815W        W51075  31.599   6.630  13.382
78816W        W51076  35.135  35.465  12.963
78817W        W51077  37.647  40.402   4.520
78818W        W51078  42.332  33.840   1.324
78819W        W51079  17.176   7.760  14.278
78820W        W51080   4.350  41.178   1.235
78821W        W51081  21.472  44.215  10.341
78822W        W51082  36.324  16.564  13.058
78823W        W51083  31.558  11.537   1.430
78824W        W51084   7.406   9.900  11.229
78825W        W51085   6.017  38.902  11.652
78826W        W51086  20.400   2.921  14.889
78827W        W51087   8.262  42.830  10.762
78828W        W51088  32.433  24.644  13.569
78829W        W51089  10.258   9.787   2.339
78830W        W51090  44.375  18.480   4.030
78831W        W51091  26.229  18.370   2.601
78832W        W51092  39.083  32.354   0.450
78833W        W51093  34.606  17.569  10.666
78834W        W51094  27.120  29.031  12.630
78835W        W51095  23.540   9.281   1.192
78836W        W51096   1.388  21.223   4.050
78837W        W51097   0.999  34.036   1.705
78838W        W51098  36.684  18.127   3.057
78839W        W51099  35.008  27.628   3.442
78840W        W51100  36.093   4.955  12.376
78841W        W51101   7.832  16.540   4.869
78842W        W51102  38.355  35.490  14.218
78843W        W51103  32.564  21.820  12.671
78844W        W51104  11.057  21.097   2.816
78845W        W51105  34.265  36.931   0.726
78846W        W51106  12.167  42.895   3.637
78847W        W51107  27.735   6.952   0.070
78848W        W51108  44.452   4.328   1.831
78849W        W51109   6.443  16.076   3.826
78850W        W51110  31.242  40.948  11.665
78851W        W51111  35.808  17.908  12.607
78852W        W51112  27.183  10.869  11.229
78853W        W51113  43.718   5.194  12.506
78854W        W51114   6.695  36.901  13.953
78855W        W51115  19.780  16.650  11.492
78856W        W51116  31.626  22.449  11.088
78857W        W51117  42.700  42.950  14.276
78858W        W51118  42.394  35.716  14.880
78859W        W51119  20.360  18.692   0.678
78860W        W51120  32.061  40.393   4.583
78861W        W51121  11.156  42.482  10.736
78862W        W51122   8.777  38.338  10.319
78863W        W51123  30.171   8.179   0.891
78864W        W51124  33.081  13.169  11.369
78865W        W51125  40.398  18.324  14.792
78866W        W51126  23.400   3.233  10.075
78867W        W51127  12.128  10.804  10.644
78868W        W51128  42.030  14.808  10.786
78869W        W51129  11.660  21.627  12.911
78870W        W51130  22.637   4.808   2.160
78871W        W51131  16.839   8.312  12.476
78872W        W51132  21.081  23.732   4.597
78873W        W51133  12.137   6.757  14.976
78874W        W51134  26.986  10.631   4.651
78875W        W51135  26.870  16.139   1.303
78876W        W51136   7.791  43.032   0.230
78877W        W51137  18.642  19.698  10.476
78878W        W51138   1.971  25.494  11.024
78879W        W51139  12.628  34.171  11.372
78880W        W51140  25.748  35.807   4.640
78881W        W51141  32.439  32.746   2.682
78882W        W51142  28.583  29.616   1.299
78883W        W51143  12.277  17.148  12.586
78884W        W51144  18.734  35.363   2.774
78885W        W51145  24.121  37.201   0.531
78886W        W51146  10.808  25.131   3.108
78887W        W51147  20.036  25.729   3.613
78888W        W51148  23.726  37.580  12.454
78889W        W51149   8.345  44.276   4.323
78890W        W51150   3.243  20.799   3.535
78891W        W51151   3.976   9.767  12.442
78892W        W51152  42.751  31.232  12.912
78893W        W51153  13.398  17.266   1.862
78894W        W51154  17.622  38.266   3.102
78895W        W51155  19.167  32.324   5.072
78896W        W51156   3.054  38.923  12.291
78897W        W51157  24.781   8.285  11.084
78898W        W51158   8.224  43.376  13.287
78899W        W51159  17.680  30.374   3.143
78900W        W51160  15.776  15.111   3.125
78901W        W51161  12.042  30.066   4.058
78902W        W51162  21.046   2.528  10.694
78903W        W51163  13.804  38.696  13.982
78904W        W51164   0.887  38.897  12.209
78905W        W51165  13.829  16.689   1.553
78906W        W51166   7.815  15.403  13.159
78907W        W51167  34.501  38.011   4.646
78908W        W51168  18.022  23.536  12.973
78909W        W51169  31.058  36.402  14.034
78910W        W51170  12.780  29.408   0.197
78911W        W51171   6.702  34.207  13.816
78912W        W51172  21.211  25.315   4.558
78913W        W51173   9.791  14.799   1.213
78914W        W51174   6.390  26.121   0.820
78915W        W51175  33.372  41.578   1.800
78916W        W51176  33.225   3.501  13.345
78917W        W51177   2.732   1.349  10.707
78918W        W51178   8.897  34.226  12.838
78919W        W51179  28.180  38.048   1.810
78920W        W51180  24.368  35.151   4.752
78921W        W51181  37.987  30.227  14.051
78922W        W51182  38.080   8.662   0.389
78923W        W51183  26.637  43.325  13.012
78924W        W51184  35.663  35.515   4.129
78925W        W51185  38.959  22.782  13.038
78926W        W51186   5.404   6.285  11.958
78927W        W51187   1.825   3.993   1.727
78928W        W51188  18.039  15.095   4.599
78929W        W51189   7.790  21.698   1.945
78930W        W51190  15.772  42.050  12.030
78931W        W51191  10.711  25.734  11.938
78932W        W51192  31.868  19.598   4.510
78933W        W51193  17.550   9.917   2.603
78934W        W51194  37.900  11.009   4.028
78935W        W51195   1.781   6.244   3.827
78936W        W51196   3.336   0.067   2.622
78937W        W51197   2.570  36.699  13.227
78938W        W51198  37.454   9.582  10.408
78939W        W51199   8.243  37.504   1.734
78940W        W51200  37.494  44.879   3.737
78941W        W51201   3.782  37.709  12.476
78942W        W51202  37.512   4.292  14.732
78943W        W51203  32.662  18.615  12.728
78944W        W51204  32.995  17.197   0.247
78945W        W51205   0.676  20.964   1.372
78946W        W51206  22.235   2.529  14.026
78947W        W51207  29.235  26.592   4.146
78948W        W51208   0.688  42.024   3.674
78949W        W51209  18.870  27.870   0.646
78950W        W51210  25.183  22.805   2.505
78951W        W51211   9.119  27.460  11.530
78952W        W51212  39.326  25.410   2.866
78953W        W51213  28.172  16.771   4.715
78954W        W51214  18.820  32.098   1.981
78955W        W51215  34.013  40.354  10.679
78956W        W51216   3.227  30.321   4.506
78957W        W51217  21.288  36.106  11.529
78958W        W51218  36.064  20.954  13.197
78959W        W51219   7.385  34.604   3.854
78960W        W51220   3.329  35.651  14.029
78961W        W51221  37.979  12.815  14.067
78962W        W51222  20.250  36.770   2.067
78963W        W51223  40.726  25.480  12.697
78964W        W51224  16.535  13.140   1.873
78965W        W51225  27.740   4.991   0.359
78966W        W51226  32.670  20.383  11.872
78967W        W51227  10.398  26.234   2.370
78968W        W51228   3.705   8.455   1.824
78969W        W51229   0.507  12.936   1.421
78970W        W51230  37.441  10.185   4.602
78971W        W51231  21.215  38.419   4.919
78972W        W51232  20.799  21.541   0.185
78973W        W51233   0.363  23.116   3.917
78974W        W51234  14.111  23.628   0.688
78975W        W51235  21.683  39.445   2.684
78976W        W51236  19.118  16.860   2.486
78977W        W51237  27.520  35.492  11.115
78978W        W51238  14.974   6.288   5.107
78979W        W51239  11.653  40.842  12.038
78980W        W51240   1.316  21.776  14.290
78981W        W51241  27.174  21.964   4.655
78982W        W51242  34.928  18.076  12.153
78983W        W51243   2.351  13.705   3.889
78984W        W51244   2.380  29.591   2.760
78985W        W51245  43.759  18.314  12.037
78986W        W51246  19.899  27.552  13.481
78987W        W51247  27.574   0.050   3.254
78988W        W51248  40.432  38.880   2.418
78989W        W51249  36.010  26.960  11.989
78990W        W51250  41.388  23.178  14.699
78991W        W51251  15.129  39.799  12.876
78992W        W51252  20.629  19.632   4.576
78993W        W51253  11.324  29.878  14.443
78994W        W51254   2.387  42.558  10.735
78995W        W51255  23.251  29.760   0.705
78996W        W51256   7.388   8.905   1.348
78997W        W51257  32.494  31.051  14.666
78998W        W51258  44.419  10.270  12.937
78999W        W51259  44.697  13.009  12.044
79000W        W51260  34.191  44.504  14.210
79001W        W51261  44.025  22.343   4.196
79002W        W51262  24.137  25.991   1.636
79003W        W51263   0.990  28.605  13.849
79004W        W51264  26.868  30.616   4.099
79005W        W51265  31.608  39.408  14.416
79006W        W51266  31.458  19.608  10.662
79007W        W51267  33.947  17.787   1.676
79008W        W51268  33.143  39.476   1.747
79009W        W51269  29.708  40.841  11.557
79010W        W51270  42.813  23.895   3.700
79011W        W51271  29.192  10.244  14.279
79012W        W51272  28.955  14.587  11.924
79013W        W51273  31.641  17.540  10.807
79014W        W51274  18.202  25.038   2.753
79015W        W51275  32.509  32.096  14.388
79016W        W51276  34.529  38.329  11.288
79017W        W51277  29.960   8.322  11.220
79018W        W51278  15.714  18.450  13.109
79019W        W51279   7.819  17.207   2.992
79020W        W51280  18.992  12.314  11.588
79021W        W51281  18.725  13.066  13.450
79022W        W51282   1.530   4.900  14.288
79023W        W51283  30.135   8.606   2.612
79024W        W51284  18.415  41.341   4.915
79025W        W51285  26.082   1.930  13.517
79026W        W51286   8.618  36.025   2.593
79027W        W51287   3.374  30.913  10.625
79028W        W51288   7.008   2.287   0.899
79029W        W51289   8.231  16.691  12.959
79030W        W51290  11.098  23.196   2.372
79031W        W51291  24.706   9.142   4.590
79032W        W51292  30.175  19.137  11.568
79033W        W51293   8.773  15.729   3.660
79034W        W51294   4.436  19.539  13.072
79035W        W51295  26.818   1.402  12.046
79036W        W51296  22.246  13.065  12.519
79037W        W51297  26.030  14.039   4.982
79038W        W51298  32.151   5.247   2.184
79039W        W51299   1.871  42.049   0.406
79040W        W51300  39.680  20.303   1.113
79041W        W51301  37.383  20.136   1.247
79042W        W51302  34.061  11.817  14.274
79043W        W51303  35.037  20.945   2.518
79044W        W51304   7.684   7.641  13.542
79045W        W51305  26.060   8.688   4.196
79046W        W51306  24.542  40.674  10.629
79047W        W51307  34.436  25.129   0.267
79048W        W51308  20.824  20.952   3.718
79049W        W51309  44.209  33.863   0.354
79050W        W51310  31.828  25.669   4.951
79051W        W51311   2.244  22.120  11.053
79052W        W51312   0.468   8.812  11.676
79053W        W51313  36.105   2.483   3.182
79054W        W51314  10.248  18.513  12.600
79055W        W51315  44.580  40.108   1.839
79056W        W51316   9.945   0.900  12.644
79057W        W51317   9.696  26.029  13.289
79058W        W51318  18.165  33.694  13.237
79059W        W51319  15.338  28.615  12.942
79060W        W51320  38.589   3.330   1.343
79061W        W51321  35.547  19.163  10.616
79062W        W51322  30.923   3.922  14.795
79063W        W51323  43.895  37.312   2.015
79064W        W51324  27.349  33.383   4.684
79065W        W51325  31.981  26.017   2.091
79066W        W51326  30.995   0.871   3.491
79067W        W51327  23.556  41.743  13.970
79068W        W51328  31.897  24.116  11.445
79069W        W51329  17.086  14.420   1.939
79070W        W51330  13.752  38.859   3.390
79071W        W51331  41.284  21.439   0.992
79072W        W51332  18.465  43.480   1.251
79073W        W51333  39.120  41.962  11.537
79074W        W51334  31.125   5.988   1.399
79075W        W51335  36.348  25.450  14.944
79076W        W51336  29.208  27.933  11.942
79077W        W51337  37.313   2.015  11.137
79078W        W51338   8.146  10.054   5.046
79079W        W51339  26.787  30.443   2.605
79080W        W51340  29.435  38.836  14.052
79081W        W51341  30.185  38.931  14.366
79082W        W51342  27.256  37.727  13.392
79083W        W51343  12.919   3.586   1.580
79084W        W51344  40.354  34.831   3.139
79085W        W51345   8.341  29.169  13.899
79086W        W51346  19.236  44.286  12.510
79087W        W51347  11.689  30.195  14.263
79088W        W51348   5.350   5.400   3.615
79089W        W51349  32.871   6.799   2.364
79090W        W51350  43.991  18.094   3.425
79091W        W51351  16.821   6.767   1.446
79092W        W51352  13.588  28.797   1.408
79093W        W51353   6.922  15.634   3.296
79094W        W51354  44.403  28.691  12.908
79095W        W51355  29.698   4.746   1.704
79096W        W51356  41.475  28.400  11.984
79097W        W51357  12.818   2.938  13.607
79098W        W51358   7.853   8.416   3.235
79099W        W51359  29.004  16.793  14.306
79100W        W51360   1.283  17.817  13.753
79101W        W51361  10.122  15.215   4.073
79102W        W51362   0.390   8.822  12.197
79103W        W51363  41.894   5.882  13.396
79104W        W51364   4.777  39.894   2.640
79105W        W51365  31.001  39.479  13.272
79106W        W51366  20.258   0.544  14.141
79107W        W51367  15.238  44.886  11.650
79108W        W51368   0.757  33.962   1.243
79109W        W51369  36.267  20.784  11.843
79110W        W51370  23.408  22.198  12.025
79111W        W51371  37.309  40.228  11.105
79112W        W51372  42.049   0.930  12.482
79113W        W51373  34.812  42.402  14.023
79114W        W51374   5.331  24.342  13.890
79115W        W51375   5.821  35.644   2.388
79116W        W51376   7.748  32.353  12.530
79117W        W51377  31.658  10.881  12.551
79118W        W51378  21.682   0.473   1.224
79119W        W51379  28.917  23.035  10.747
79120W        W51380  13.234  36.334   3.902
79121W        W51381  12.276  30.687   4.250
79122W        W51382   4.354  27.667   4.926
79123W        W51383  15.848   3.266  10.995
79124W        W51384  36.833  44.234  11.615
79125W        W51385  36.490  41.372   5.138
79126W        W51386  36.371  15.865  12.538
79127W        W51387  40.733  34.942  12.524
79128W        W51388  13.863  14.741  11.124
79129W        W51389  19.088  28.493  12.570
79130W        W51390  36.806  18.701  10.560
79131W        W51391   9.874  34.047   3.087
79132W        W51392  34.995  30.234   2.783
79133W        W51393  43.303   3.539   0.409
79134W        W51394   4.493  27.922   2.360
79135W        W51395   9.878   7.140   2.279
79136W        W51396  12.699  11.881  13.975
79137W        W51397  42.475   7.130   3.301
79138W        W51398  19.277  37.106  14.896
79139W        W51399  10.831  31.852  11.631
79140W        W51400  43.583  19.732   4.159
79141W        W51401  41.479   1.939   4.883
79142W        W51402   4.173   2.758  14.735
79143W        W51403  22.618  22.054   1.216
79144W        W51404  28.618  21.748  11.634
79145W        W51405  44.358  35.675  13.253
79146W        W51406  38.663   3.628   1.778
79147W        W51407   7.083  26.778  12.354
79148W        W51408  43.004  33.838   2.146
79149W        W51409   3.646  39.782  11.189
79150W        W51410   5.435  42.527   3.700
79151W        W51411   7.324   9.437  11.999
79152W        W51412  12.911  17.002  10.640
79153W        W51413  16.143   3.365  13.270
79154W        W51414  17.526  11.244   2.185
79155W        W51415  19.133  41.694  12.498
79156W        W51416   9.106  38.576   4.307
79157W        W51417  13.606  32.541  14.141
79158W        W51418  16.762  19.997  11.065
79159W        W51419   8.709  17.754   0.335
79160W        W51420  14.558  36.333   1.126
79161W        W51421  18.290  35.573  11.220
79162W        W51422  16.064  17.862   1.549
79163W        W51423  13.589   2.565   4.693
79164W        W51424  24.777   8.226   0.527
79165W        W51425   1.484  40.048  12.942
79166W        W51426  25.180  31.523   1.789
79167W        W51427  14.594  30.835  11.825
79168W        W51428  41.363  31.361  10.689
79169W        W51429  22.481  30.928  13.511
79170W        W51430  21.787   4.790  12.012
79171W        W51431  25.143  26.510  14.072
79172W        W51432  44.047  42.582  11.963
79173W        W51433  18.624  24.991   4.543
79174W        W51434   8.741  33.386   3.205
79175W        W51435  30.880  22.452  11.610
79176W        W51436  16.196  19.832  12.454
79177W        W51437  29.656  39.462  10.889
79178W        W51438  10.867  15.959  11.149
79179W        W51439  14.114  38.525  12.093
79180W        W51440  35.609  43.226   4.232
79181W        W51441  14.276  41.656  13.359
79182W        W51442  28.446  18.255   3.537
79183W        W51443  33.949  33.121  11.150
79184W        W51444  32.405  29.509   0.372
79185W        W51445  21.806   2.240  11.040
79186W        W51446  23.621  35.639   4.200
79187W        W51447  31.860  40.602  12.815
79188W        W51448   9.286  41.361  10.863
79189W        W51449  14.811  13.100  13.447
79190W        W51450  25.709   6.576   4.127
79191W        W51451  12.054  19.689   5.073
79192W        W51452  40.570   3.612  12.543
79193W        W51453  19.539  38.898   3.225
79194W        W51454  42.003  37.938  10.488
79195W        W51455   3.028  31.354   1.384
79196W        W51456   2.469  35.471  14.398
79197W        W51457   8.029  28.502   1.833
79198W        W51458   9.854  32.808   0.328
79199W        W51459  22.057  27.720   3.529
79200W        W51460  36.647  41.546  14.075
79201W        W51461   7.946  17.116  14.430
79202W        W51462  31.999  29.551   2.731
79203W        W51463  18.663  32.105   2.487
79204W        W51464   0.197  16.820   2.781
79205W        W51465   3.266  28.932  14.789
79206W        W51466  13.481   7.988  14.826
79207W        W51467  12.066   7.099   3.167
79208W        W51468  25.455  41.422   0.510
79209W        W51469  30.308  41.366   1.414
79210W        W51470  18.179   1.830   2.377
79211W        W51471  21.250  17.109   3.285
79212W        W51472  40.320  23.548   3.180
79213W        W51473  22.688  23.851   1.722
79214W        W51474   4.853  28.076  14.818
79215W        W51475  44.734   3.874  14.135
79216W        W51476   6.176  37.116  10.672
79217W        W51477  22.091  10.324  13.472
79218W        W51478  26.551  24.010   4.625
79219W        W51479  40.860   0.820   0.755
79220W        W51480  16.067  42.384   3.410
79221W        W51481  11.916   2.189   4.319
79222W        W51482  28.027  42.155   1.587
79223W        W51483  22.568  16.979   3.272
79224W        W51484  26.975   2.645  11.582
79225W        W51485  11.374  41.864  14.740
79226W        W51486  18.024  28.141   2.283
79227W        W51487  12.292  44.737  12.949
79228W        W51488  32.559  13.106   2.654
79229W        W51489  10.777  35.386   0.576
79230W        W51490  27.239  22.188   1.988
79231W        W51491   7.748  30.922  10.659
79232W        W51492  19.243   2.518   2.698
79233W        W51493  17.454  21.902  10.738
79234W        W51494  38.295   5.163   3.445
79235W        W51495  42.913  10.042   4.651
79236W        W51496  11.593  25.086   1.771
79237W        W51497  44.846  32.213  11.061
79238W        W51498  36.591  23.682   4.103
79239W        W51499   1.326  30.579  13.445
79240W        W51500  23.261  27.970   2.803
79241W        W51501   0.350  30.588  12.028
79242W        W51502  28.490  18.251   0.761
79243W        W51503  29.682  13.618   1.758
79244W        W51504  43.432  35.955   3.668
79245W        W51505  20.694   7.485   3.276
79246W        W51506  39.283  36.234   2.365
79247W        W51507  21.079   4.410  12.613
79248W        W51508   6.899  38.120   2.710
79249W        W51509  38.249  42.915  13.985
79250W        W51510   3.842   1.107   3.213
79251W        W51511   4.895  22.242   1.773
79252W        W51512  14.916  38.589  14.425
79253W        W51513   0.898   8.701  12.180
79254W        W51514  41.219  20.036  11.691
79255W        W51515  19.528  13.524  10.839
79256W        W51516  32.810  21.602   0.902
79257W        W51517  43.515  16.865  11.606
79258W        W51518  25.754  12.393  14.032
79259W        W51519  35.578  19.494  13.057
79260W        W51520  24.046  25.566  11.649
79261W        W51521  20.252  15.348   3.177
79262W        W51522  40.590  29.776   1.644
79263W        W51523  23.667  28.101   1.256
79264W        W51524  43.347  24.559   4.369
79265W        W51525   5.780  30.378   1.888
79266W        W51526  29.132  34.597   2.073
79267W        W51527   6.955  24.542   1.694
79268W        W51528   4.888  41.966   4.200
79269W        W51529   2.686   7.218   9.980
79270W        W51530  18.402   1.960  12.990
79271W        W51531  33.109  42.042   3.814
79272W        W51532   5.276   2.024  11.374
79273W        W51533  10.302  14.129   0.477
79274W        W51534  43.919  16.630   1.950
79275W        W51535   4.570  37.945  11.234
79276W        W51536  38.609  13.468  10.988
79277W        W51537   9.942  41.801  14.448
79278W        W51538   7.522  22.327  14.745
79279W        W51539  21.269   9.249   1.382
79280W        W51540  20.294  32.134   1.221
79281W        W51541   2.710  30.883  12.060
79282W        W51542  37.383  14.761  10.809
79283W        W51543   4.358  32.006   0.500
79284W        W51544  13.845  13.721   4.390
79285W        W51545  42.484  34.671  12.005
79286W        W51546  34.365  43.487  13.298
79287W        W51547   1.814  32.182  14.733
79288W        W51548  41.935  25.996  12.358
79289W        W51549  31.896  39.599   4.071
79290W        W51550  20.120  18.294   4.627
79291W        W51551  43.926   9.857   1.024
79292W        W51552  16.618  25.999   2.344
79293W        W51553   1.056  41.431  12.855
79294W        W51554   2.850  44.362   2.570
79295W        W51555   2.622  39.413  12.508
79296W        W51556  17.878  37.026   1.419
79297W        W51557  29.689  24.931  13.032
79298W        W51558  10.809   0.208  11.945
79299W        W51559  11.049  23.642  11.645
79300W        W51560  30.082  20.634   0.756
79301W        W51561  20.264  34.595  11.214
79302W        W51562  25.113  19.028  10.836
79303W        W51563  16.281  35.637   1.196
79304W        W51564  22.543  12.624  11.602
79305W        W51565  22.619  26.420  11.346
79306W        W51566   2.476  17.811  13.964
79307W        W51567  31.129  35.407   1.357
79308W        W51568  37.595  30.293   3.635
79309W        W51569   2.176  36.891   2.280
79310W        W51570  39.967  16.751   1.855
79311W        W51571  10.362  34.004  11.131
79312W        W51572   1.648  25.013   3.635
79313W        W51573   8.625  31.339  13.838
79314W        W51574  25.622   1.647   3.614
79315W        W51575  12.672   4.794  13.154
79316W        W51576  35.380  42.712  14.481
79317W        W51577   0.791  24.184  14.537
79318W        W51578  15.563  23.988  12.090
79319W        W51579  30.815  18.498  14.927
79320W        W51580  37.079   0.562  14.099
79321W        W51581  42.960  34.960  13.042
79322W        W51582  30.488  29.866   0.236
79323W        W51583  33.038  22.009  12.596
79324W        W51584  34.436  20.675  10.669
79325W        W51585  10.540  22.583   1.940
79326W        W51586  20.312  11.810   3.196
79327W        W51587  28.834  14.143  12.133
79328W        W51588  10.550  33.549  14.822
79329W        W51589  21.100  39.053   0.328
79330W        W51590   1.366  43.658   3.935
79331W        W51591  39.533  28.176  12.960
79332W        W51592  36.950  40.186  12.402
79333W        W51593   6.694  30.404  12.439
79334W        W51594  42.805  35.581   1.425
79335W        W51595   7.297  29.350  14.708
79336W        W51596  29.347   0.959  12.438
79337W        W51597  10.697   9.395  12.946
79338W        W51598  22.054   6.680  12.517
79339W        W51599   9.515   8.161   3.795
79340W        W51600  30.041  29.203   3.322
79341W        W51601  31.203  15.176   1.830
79342W        W51602   1.708  22.867  12.481
79343W        W51603  13.946  31.582  10.644
79344W        W51604   0.644  40.327   3.279
79345W        W51605  38.433  34.790   0.549
79346W        W51606  24.332  11.156   4.600
79347W        W51607  39.808  13.793  13.875
79348W        W51608  35.068  11.849   4.469
79349W        W51609   6.913   6.469   4.240
79350W        W51610  12.948  40.621   0.550
79351W        W51611  15.201  17.699   1.286
79352W        W51612  18.848  19.812  13.901
79353W        W51613  42.452   7.170  13.516
79354W        W51614  42.414  21.413   4.027
79355W        W51615  33.118  18.769  12.406
79356W        W51616   6.937  39.014  13.324
79357W        W51617  39.540   5.329  11.620
79358W        W51618  14.484  35.984   2.790
79359W        W51619  24.653  31.075  11.635
79360W        W51620  22.005  38.858   2.875
79361W        W51621   5.894   5.179  14.190
79362W        W51622  43.373  28.347   0.871
79363W        W51623  24.022  40.170  10.174
79364W        W51624   5.476  23.133   4.127
79365W        W51625   8.449  11.196  12.476
79366W        W51626  23.215  16.738   3.697
79367W        W51627  26.640  15.668   0.037
79368W        W51628  11.510  21.109  14.527
79369W        W51629  14.283  19.746   1.197
79370W        W51630  27.528  18.137   2.543
79371W        W51631  12.156  40.114  11.144
79372W        W51632  24.495  40.511   0.184
79373W        W51633  13.766  19.620  11.461
79374W        W51634  36.975  32.602   3.838
79375W        W51635  16.252  28.958   4.825
79376W        W51636  44.510  13.186  14.649
79377W        W51637  42.333  11.190  12.095
79378W        W51638  41.419  39.092  11.601
79379W        W51639  41.445   1.450  10.897
79380W        W51640  15.034  23.808   4.176
79381W        W51641  16.275  33.128  12.258
79382W        W51642  21.207   2.790   3.587
79383W        W51643  44.986  40.978   1.314
79384W        W51644  20.369  35.099   4.335
79385W        W51645   5.262   0.581  11.871
79386W        W51646  36.316  11.732   4.560
79387W        W51647   8.176  14.597   1.905
79388W        W51648  21.849  35.663   1.858
79389W        W51649  19.598  19.638   2.770
79390W        W51650  37.431  28.251   0.412
79391W        W51651  10.050  43.389   0.760
79392W        W51652  40.687   1.818  11.289
79393W        W51653  16.848  11.877   4.372
79394W        W51654   2.607  37.912   2.773
79395W        W51655   8.810  16.114   1.845
79396W        W51656  23.124  28.873   4.326
79397W        W51657   5.424  37.295  13.903
79398W        W51658  24.384   5.370  13.421
79399W        W51659  30.816  15.255   2.679
79400W        W51660  16.145  34.580  12.861
79401W        W51661  27.399  32.224   5.026
79402W        W51662  23.478  16.330  13.235
79403W        W51663  37.472  26.214  12.999
79404W        W51664   3.530  30.241   2.013
79405W        W51665  16.677  15.337   2.087
79406W        W51666  18.405   2.518  12.864
79407W        W51667   9.079  32.513   1.531
79408W        W51668   9.259  18.494  12.970
79409W        W51669  39.892  21.152   3.454
79410W        W51670  19.535   2.882  14.312
79411W        W51671  32.174  39.304   3.740
79412W        W51672   9.814  30.015   3.641
79413W        W51673   4.268  11.929   3.230
79414W        W51674  15.168  14.896  12.773
79415W        W51675  23.803  26.182   2.304
79416W        W51676   7.813  39.780   0.445
79417W        W51677   7.231  44.722   4.335
79418W        W51678  34.671  34.500  10.792
79419W        W51679  19.486  21.008   3.242
79420W        W51680  31.915  40.089  14.863
79421W        W51681  29.492  43.832  14.699
79422W        W51682  28.907   6.644  10.876
79423W        W51683   2.846  16.290  14.786
79424W        W51684  36.396  21.080  11.413
79425W        W51685  39.401  35.206   2.286
79426W        W51686  22.890   1.810   2.810
79427W        W51687  12.490   9.391   2.148
79428W        W51688  40.668  26.125   0.371
79429W        W51689  18.341  21.518  11.159
79430W        W51690  22.775  40.731   3.657
79431W        W51691  39.077  36.065   5.086
79432W        W51692  30.916   2.517  11.020
79433W        W51693  10.457   6.832   1.231
79434W        W51694  26.628   6.188   3.741
79435W        W51695   9.265   2.448   2.241
79436W        W51696  21.555  35.751   2.392
79437W        W51697  37.094  34.878  14.869
79438W        W51698  22.118  25.667  10.141
79439W        W51699   9.870  30.542   2.106
79440W        W51700  16.127  12.726   0.211
79441W        W51701  24.777  20.159  12.903
79442W        W51702  44.962  28.357   2.780
79443W        W51703  44.995   4.805  13.987
79444W        W51704  38.887  15.909   4.540
79445W        W51705   5.255  17.150   2.740
79446W        W51706   7.704  18.487   0.512
79447W        W51707  10.739  37.024   3.316
79448W        W51708   9.749  15.631   3.186
79449W        W51709  15.522   4.892   4.194
79450W        W51710  44.529  14.237   0.486
79451W        W51711   7.276  32.135   0.299
79452W        W51712  41.773  13.804   4.190
79453W        W51713  18.308  31.918   0.014
79454W        W51714  35.292   0.576   0.803
79455W        W51715  16.198  33.282   9.949
79456W        W51716  27.923   6.213  11.471
79457W        W51717  24.542  18.511   1.951
79458W        W51718  15.357  43.116   2.261
79459W        W51719   9.440   4.832   1.846
79460W        W51720   0.992   7.318   2.174
79461W        W51721   7.732  44.738  10.714
79462W        W51722  10.593  35.926  12.194
79463W        W51723   7.732  43.905   2.721
79464W        W51724  42.835  32.082   2.747
79465W        W51725  34.033   9.373  14.912
79466W        W51726  36.271  32.616   3.237
79467W        W51727   5.237  16.582   3.356
79468W        W51728  41.360   1.491  14.364
79469W        W51729   5.186  39.815  11.186
79470W        W51730   0.458  37.836  13.825
79471W        W51731  39.071   1.127  14.785
79472W        W51732  23.542   7.341   3.633
79473W        W51733  10.944  24.709   2.324
79474W        W51734  14.054  43.718  14.557
79475W        W51735  35.895  25.662   1.252
79476W        W51736   1.350  21.531   1.299
79477W        W51737  11.188  44.757   0.024
79478W        W51738  13.298  13.083   4.772
79479W        W51739  39.371  22.624   1.022
79480W        W51740   6.646  36.810  11.508
79481W        W51741  11.514  13.755  12.767
79482W        W51742  32.659   8.713  12.875
79483W        W51743  40.545  30.956  11.935
79484W        W51744   3.881  41.419  12.860
79485W        W51745   2.821  15.054   4.311
79486W        W51746  34.601  25.783  11.149
79487W        W51747  24.365  30.898  13.170
79488W        W51748  44.217   5.417  11.144
79489W        W51749  43.840  38.145  12.102
79490W        W51750  32.722  36.126   4.487
79491W        W51751  14.166  12.565  13.783
79492W        W51752  11.717   1.757   4.518
79493W        W51753  22.599  39.886   2.364
79494W        W51754  24.618  28.966   0.757
79495W        W51755  33.110  44.908   1.267
79496W        W51756  22.567  36.873   1.410
79497W        W51757  15.785  36.463   5.004
79498W        W51758  42.167   8.769   5.248
79499W        W51759   9.591   6.976   3.174
79500W        W51760  44.814  30.240   1.552
79501W        W51761  19.549  25.667   2.777
79502W        W51762  44.725   6.220  10.985
79503W        W51763  38.232  16.540   0.674
79504W        W51764   7.331  41.320  12.852
79505W        W51765  32.076   8.370  13.950
79506W        W51766  28.175  11.196   0.878
79507W        W51767  11.427  35.976   0.817
79508W        W51768  10.995  26.987   2.253
79509W        W51769  22.545  35.877   2.435
79510W        W51770   2.783  42.432   3.409
79511W        W51771  43.708  37.895   0.233
79512W        W51772  31.425  15.177   4.343
79513W        W51773  12.547   4.267  10.632
79514W        W51774   4.398  27.723   5.434
79515W        W51775  30.460  16.252  11.939
79516W        W51776  43.257  39.238  11.199
79517W        W51777  36.131  26.140   2.780
79518W        W51778  22.238   8.369   0.870
79519W        W51779  29.906  15.756   1.876
79520W        W51780   5.602  42.937   5.170
79521W        W51781  23.161  22.157   3.256
79522W        W51782  19.716  10.218   0.625
79523W        W51783   3.812  27.451   1.909
79524W        W51784   9.735   8.469  10.667
79525W        W51785  25.462  30.905   4.866
79526W        W51786   9.723   8.459  14.880
79527W        W51787  18.825  26.505   4.182
79528W        W51788   2.734   5.957   4.663
79529W        W51789  33.830  44.440   0.238
79530W        W51790   9.312  30.010   4.555
79531W        W51791  40.873  31.840   2.864
79532W        W51792   8.965  29.456  10.277
79533W        W51793  27.828   0.873   3.170
79534W        W51794   1.778  30.875   0.682
79535W        W51795  11.348  32.901   3.101
79536W        W51796  23.983  23.506   4.140
79537W        W51797  24.978  22.744  11.289
79538W        W51798   3.806  35.158   2.150
79539W        W51799   9.011  24.205  10.658
79540W        W51800  16.822  23.711   0.235
79541W        W51801  26.241   5.943   4.756
79542W        W51802  11.892  33.491   4.132
79543W        W51803   0.986  39.883  10.242
79544W        W51804  27.117  11.973   4.246
79545W        W51805  12.548   1.959  13.878
79546W        W51806  30.434  34.163   4.357
79547W        W51807   2.990  17.041   2.305
79548W        W51808  24.552  17.867  14.874
79549W        W51809  21.770  30.616   0.777
79550W        W51810  29.287   0.766   0.955
79551W        W51811   7.981  38.296   1.998
79552W        W51812   4.055   1.968   1.800
79553W        W51813  19.487   6.786   4.025
79554W        W51814   2.726  33.928   0.111
79555W        W51815  40.020  36.916   2.563
79556W        W51816  31.926  16.810   4.616
79557W        W51817  44.430  30.885   0.372
79558W        W51818  32.161  43.136   0.033
79559W        W51819  32.631  11.718  10.830
79560W        W51820  36.638  38.331   0.949
79561W        W51821  42.705  20.675  13.723
79562W        W51822  22.654  24.600   4.703
79563W        W51823  19.104  32.557   4.569
79564W        W51824  40.053  39.959  12.508
79565W        W51825   3.838  24.632  14.828
79566W        W51826  18.234  29.297  13.498
79567W        W51827   8.638  39.029   0.338
79568W        W51828  33.949  27.803   1.422
79569W        W51829  32.482  22.093  11.871
79570W        W51830  18.670  29.431  14.967
79571W        W51831   2.880  27.705  10.647
79572W        W51832   5.272  19.487  13.358
79573W        W51833   8.935  31.993  10.084
79574W        W51834  22.593  27.483  12.416
79575W        W51835  29.166   5.407  13.022
79576W        W51836   5.616  29.952  13.439
79577W        W51837  24.681  10.341   2.233
79578W        W51838  20.781  17.504   2.019
79579W        W51839  21.053  25.121  10.006
79580W        W51840  22.153  37.955   0.391
79581W        W51841  42.298  41.281   2.352
79582W        W51842  16.014  43.903   2.724
79583W        W51843  23.393  36.010   0.812
79584W        W51844  12.875  40.968   4.673
79585W        W51845  32.419   3.262  14.367
79586W        W51846  19.023  40.482   2.749
79587W        W51847  14.121  16.804   3.263
79588W        W51848  31.594  23.094   3.739
79589W        W51849  32.847   0.019   3.709
79590W        W51850  28.468   0.434   0.956
79591W        W51851  15.820  11.677   0.539
79592W        W51852  38.845  21.559  11.587
79593W        W51853  38.156  19.539  11.467
79594W        W51854  23.312  43.345  10.568
79595W        W51855   5.730  16.519   4.294
79596W        W51856  11.842   9.408   0.906
79597W        W51857  42.779  16.883   3.817
79598W        W51858   5.866  11.719   0.438
79599W        W51859  15.777  19.384  13.833
79600W        W51860  27.802  15.285  13.742
79601W        W51861  32.914  22.847   3.291
79602W        W51862  26.208  44.426  11.069
79603W        W51863  40.937  43.298  12.045
79604W        W51864  35.652  33.894   1.772
79605W        W51865   7.637   7.846  12.089
79606W        W51866  42.312  31.410  11.585
79607W        W51867  31.787  43.495  14.728
79608W        W51868   7.802   5.921   3.159
79609W        W51869  10.344  16.967   3.117
79610W        W51870   5.292   3.435  11.147
79611W        W51871   3.557  22.528  11.650
79612W        W51872  34.797   5.680  11.580
79613W        W51873  37.866   1.779  14.733
79614W        W51874  15.722  12.377   3.954
79615W        W51875  10.328  35.313  10.954
79616W        W51876  42.315  14.098  11.205
79617W        W51877  10.134  14.811   1.610
79618W        W51878  14.182   7.346   4.566
79619W        W51879   2.469  35.989   0.819
79620W        W51880  32.600  14.299   1.322
79621W        W51881   9.358  19.359  11.896
79622W        W51882  28.928  31.378   2.754
79623W        W51883  14.647  35.619   1.013
79624W        W51884  40.416  24.664  13.388
79625W        W51885  38.474  23.069   0.477
79626W        W51886  15.104  31.555  13.917
79627W        W51887  37.136  43.323  13.849
79628W        W51888  13.701  44.806  14.390
79629W        W51889  42.661  37.810  14.378
79630W        W51890  43.748  14.654  11.331
79631W        W51891  26.939  41.301   5.068
79632W        W51892  43.173  30.537   4.362
79633W        W51893  39.507  18.676  13.556
79634W        W51894  27.298  32.426   0.416
79635W        W51895   2.620   1.313   1.171
79636W        W51896   4.835   1.192  12.439
79637W        W51897  15.705  44.218  14.925
79638W        W51898  12.332  35.536  11.997
79639W        W51899  18.190   4.551  10.918
79640W        W51900  41.003  29.783  10.958
79641W        W51901  34.828  38.882   1.861
79642W        W51902  32.920  34.439   1.631
79643W        W51903   5.346  15.446   3.855
79644W        W51904  32.014  15.424   2.220
79645W        W51905   3.501  41.941   4.512
79646W        W51906  30.948  36.676  11.152
79647W        W51907   6.609  38.392   0.841
79648W        W51908   9.831  36.613   3.170
79649W        W51909   9.023  42.135  12.414
79650W        W51910  14.947  27.417  11.219
79651W        W51911   2.121  40.287  13.558
79652W        W51912  25.424  34.355  10.647
79653W        W51913   5.132  21.837   2.022
79654W        W51914  43.736   7.315   4.552
79655W        W51915  12.932  28.100   2.585
79656W        W51916  26.918  15.585   3.330
79657W        W51917  41.862  44.179  13.320
79658W        W51918  20.239  11.271   4.617
79659W        W51919  35.385   6.361  14.297
79660W        W51920   1.608   5.007  13.782
79661W        W51921  15.366  28.569  11.152
79662W        W51922  35.997  44.048   0.938
79663W        W51923  44.393  23.458   1.866
79664W        W51924  40.518   0.998   3.419
79665W        W51925  33.301   5.363   2.572
79666W        W51926   8.172   4.437  11.140
79667W        W51927   2.944  21.875  14.049
79668W        W51928  16.546   5.312   3.598
79669W        W51929  44.204  20.116  13.923
79670W        W51930  40.679  16.274  14.295
79671W        W51931  11.784  28.808  10.140
79672W        W51932  33.392  33.708  13.404
79673W        W51933  15.720  14.157  12.996
79674W        W51934  22.982  25.122   4.045
79675W        W51935  21.163  34.405  10.715
79676W        W51936  36.161  28.485   2.758
79677W        W51937  25.762  35.816  12.881
79678W        W51938  41.809   3.450  12.411
79679W        W51939  32.560  20.584   0.357
79680W        W51940  44.636  28.738   0.899
79681W        W51941  24.068  13.231  14.378
79682W        W51942   4.275   9.515  11.108
79683W        W51943  41.378  30.412   2.891
79684W        W51944  43.909   2.346  13.037
79685W        W51945  25.348   6.359   0.336
79686W        W51946   0.594   1.855  10.345
79687W        W51947  25.217  41.542  14.341
79688W        W51948  35.109  30.882  12.905
79689W        W51949   6.612  16.483  12.563
79690W        W51950  11.751  28.568   0.941
79691W        W51951  27.088  32.133  13.312
79692W        W51952  37.088   8.571   5.659
79693W        W51953  26.599  19.715  14.857
79694W        W51954   5.169  31.909   2.265
79695W        W51955  32.480  11.276  11.601
79696W        W51956  40.491  32.982   1.738
79697W        W51957  43.383  32.865  10.682
79698W        W51958   8.243  22.629  12.917
79699W        W51959  26.260  42.585   3.855
79700W        W51960  14.528  11.814   0.538
79701W        W51961  33.465   8.852   3.511
79702W        W51962  13.815  31.654  11.712
79703W        W51963   2.959  24.852   3.411
79704W        W51964  40.444  13.962   4.649
79705W        W51965   0.465  26.121  11.573
79706W        W51966  33.995  31.416  11.893
79707W        W51967  23.651  42.911   4.243
79708W        W51968  10.601   5.861  14.895
79709W        W51969  32.492   7.484   9.656
79710W        W51970   3.705   9.441   4.103
79711W        W51971  10.903  40.291   3.992
79712W        W51972  39.690  42.610   0.911
79713W        W51973  37.103   6.941   2.209
79714W        W51974  21.471  16.746   0.970
79715W        W51975  32.917   0.550   3.643
79716W        W51976   4.768  29.176   4.359
79717W        W51977  21.951   6.945  13.891
79718W        W51978  36.587  40.834   3.712
79719W        W51979   3.755   5.234   2.334
79720W        W51980  36.995  16.322   4.526
79721W        W51981  19.117   6.592   1.231
79722W        W51982  44.086   6.884   0.326
79723W        W51983  18.131   6.951   2.654
79724W        W51984  38.252  32.427  11.554
79725W        W51985  19.026  37.361   3.858
79726W        W51986  23.695  10.361  13.371
79727W        W51987  31.566  34.790  14.296
79728W        W51988  21.112  23.509  13.222
79729W        W51989  42.640  32.681  14.950
79730W        W51990  26.323  19.608   0.298
79731W        W51991  20.534  22.693   2.655
79732W        W51992   0.911  14.601  12.880
79733W        W51993  16.062  26.543  13.090
79734W        W51994   9.918  16.233   3.182
79735W        W51995  14.841   4.630  11.423
79736W        W51996   2.264   2.179   1.823
79737W        W51997  43.384  37.542   2.072
79738W        W51998  35.880   3.551   0.303
79739W        W51999  41.472  20.674   3.709
79740W        W52000  21.009  32.403   3.768
79741W        W52001   5.181   2.790   3.689
79742W        W52002   3.625  41.795   3.771
79743W        W52003  17.236   1.273  14.772
79744W        W52004  28.049  20.453   2.148
79745W        W52005  25.025  11.695   2.754
79746W        W52006  31.361  38.817   0.049
79747W        W52007   6.678  43.945  12.514
79748W        W52008  27.666  39.917   0.505
79749W        W52009  16.739  38.616   3.574
79750W        W52010  20.051  25.861  12.446
79751W        W52011  26.254  29.423   0.763
79752W        W52012  40.074  38.173   3.726
79753W        W52013  33.627  10.230   0.384
79754W        W52014   1.725   5.680  12.495
79755W        W52015  23.103   2.455   1.591
79756W        W52016  21.684  32.179   0.542
79757W        W52017  21.704  25.983  13.079
79758W        W52018  26.196  44.752   2.359
79759W        W52019  26.171  43.301   4.631
79760W        W52020  39.632  44.095   1.905
79761W        W52021   7.131  14.338  11.480
79762W        W52022  18.004  23.201  13.871
79763W        W52023   5.603  29.011   3.754
79764W        W52024  30.391  12.736   3.386
79765W        W52025  22.908   2.414   0.625
79766W        W52026  11.125  10.743   4.533
79767W        W52027   6.821  35.944   1.696
79768W        W52028  31.774  30.915   3.685
79769W        W52029  35.579  32.854  14.533
79770W        W52030  25.912  17.764  10.518
79771W        W52031  32.593  42.451  13.995
79772W        W52032  20.770  41.319   2.883
79773W        W52033  17.776  24.544   1.428
79774W        W52034  18.480  39.558  13.386
79775W        W52035   9.631  30.201  12.626
79776W        W52036   1.861  44.421   3.257
79777W        W52037  32.410  11.751  13.824
79778W        W52038  22.669  27.251  11.956
79779W        W52039  36.878   5.399   2.286
79780W        W52040   2.373   7.739  12.858
79781W        W52041  36.809  32.013  14.329
79782W        W52042  38.897  16.537   3.176
79783W        W52043  44.759  16.824  12.076
79784W        W52044  17.484  14.525   1.369
79785W        W52045   6.315  41.308  12.909
79786W        W52046  18.143  43.990  13.961
79787W        W52047  29.460  33.411   2.663
79788W        W52048  14.263   2.260   3.526
79789W        W52049  39.010  41.955   4.762
79790W        W52050  22.000  21.865  11.075
79791W        W52051  40.005  23.557   1.871
79792W        W52052  14.778  10.912  13.049
79793W        W52053  42.477   1.243  13.568
79794W        W52054   4.688  30.621   4.326
79795W        W52055  33.656  14.347  11.082
79796W        W52056  43.873  44.251   4.297
79797W        W52057  34.321  43.041  14.238
79798W        W52058  12.259  25.421  11.118
79799W        W52059  42.667  11.812   2.297
79800W        W52060  11.321  35.315   1.938
79801W        W52061  43.492  22.926   3.698
79802W        W52062  39.332  11.413   3.709
79803W        W52063   9.168  23.725   0.265
79804W        W52064  29.055  34.897   0.315
79805W        W52065  32.397  22.735  12.504
79806W        W52066  12.419  17.841   2.605
79807W        W52067  23.955  19.565   3.197
79808W        W52068  31.731  17.199   5.172
79809W        W52069  11.295   8.407  13.551
79810W        W52070  26.701  13.716   4.366
79811W        W52071  39.045  18.473   4.444
79812W        W52072  27.511  22.055   3.465
79813W        W52073  17.858  29.375  12.347
79814W        W52074  14.331   1.496  11.153
79815W        W52075  27.629  30.199   3.754
79816W        W52076  35.083  36.480   4.487
79817W        W52077   5.744  34.317   2.602
79818W        W52078   1.465  21.195  11.520
79819W        W52079  28.123  12.363   0.322
79820W        W52080  14.210   1.754  13.003
79821W        W52081  38.267  12.398   0.224
79822W        W52082  14.015  32.120  14.834
79823W        W52083  35.326  26.300   0.437
79824W        W52084  22.840  24.658   4.208
79825W        W52085  36.479  21.022  14.262
79826W        W52086  25.917  32.063  11.572
79827W        W52087  32.934   9.897  11.924
79828W        W52088  40.800  17.118  10.528
79829W        W52089  39.768  34.816  12.583
79830W        W52090  23.460  32.767   1.274
79831W        W52091  23.000  43.892  14.328
79832W        W52092  22.634   0.824  11.942
79833W        W52093  43.257  12.160  11.118
79834W        W52094   4.838  10.940  12.084
79835W        W52095   1.860   0.427   2.104
79836W        W52096   5.354  42.179   4.067
79837W        W52097  10.249   0.027  13.085
79838W        W52098  16.774   3.508   2.805
79839W        W52099  26.061  13.253  11.881
79840W        W52100  14.574   9.312   3.681
79841W        W52101  35.159   7.748   2.341
79842W        W52102  29.524  32.110  14.308
79843W        W52103  26.107  26.022   4.636
79844W        W52104  34.708  40.963  14.721
79845W        W52105   1.921  34.077   0.749
79846W        W52106  34.653   3.737   2.739
79847W        W52107  40.075  36.018   1.882
79848W        W52108  25.207  38.466   2.443
79849W        W52109  16.743   1.344   3.169
79850W        W52110  42.824  20.567   2.346
79851W        W52111   7.923  39.508  11.607
79852W        W52112  36.512  39.314   4.478
79853W        W52113  19.505   9.730  12.387
79854W        W52114  27.189  11.570   1.862
79855W        W52115  22.991  34.384  12.112
79856W        W52116   1.597   0.791  13.845
79857W        W52117  36.596  41.116   2.384
79858W        W52118   1.185  35.021  13.774
79859W        W52119  26.138   8.290   0.842
79860W        W52120   2.958   0.175  12.546
79861W        W52121   8.844  28.578  14.507
79862W        W52122  31.531  11.723  11.019
79863W        W52123  39.545  24.978   2.629
79864W        W52124   2.699  18.561   1.482
79865W        W52125  44.232  24.318   2.264
79866W        W52126  40.097   6.176  14.776
79867W        W52127  10.342  37.061   4.244
79868W        W52128  36.122   2.150  10.668
79869W        W52129  25.024  36.890  14.722
79870W        W52130   4.247   6.666   1.694
79871W        W52131  13.087  23.509   3.674
79872W        W52132  36.928  16.812  11.384
79873W        W52133  29.360   4.323   0.767
79874W        W52134  29.072  31.018  10.880
79875W        W52135  29.512  30.094   3.697
79876W        W52136  35.156  17.789  13.484
79877W        W52137  12.453   9.342   4.267
79878W        W52138  35.026  31.925  10.060
79879W        W52139  12.696   3.481   0.888
79880W        W52140  44.395  34.138  11.707
79881W        W52141  38.117  33.068  11.997
79882W        W52142   3.096   1.076  12.140
79883W        W52143  31.730  35.908   3.360
79884W        W52144  15.332  32.661  11.064
79885W        W52145  18.392  28.026  13.455
79886W        W52146  30.787  43.025  11.188
79887W        W52147  13.905  30.517  13.057
79888W        W52148  13.789  33.389  12.489
79889W        W52149  32.542  38.898   2.697
79890W        W52150  18.177  18.999   4.634
79891W        W52151  37.508  44.979   2.834
79892W        W52152  16.728  25.503  14.509
79893W        W52153  35.062  27.689  13.974
79894W        W52154  33.922   2.565  14.665
79895W        W52155  34.929  26.600   3.562
79896W        W52156   1.959  31.862   1.821
79897W        W52157  38.734  22.225  11.031
79898W        W52158  10.139  14.693  10.676
79899W        W52159  18.120  43.309  14.297
79900W        W52160   2.592  36.427   1.054
79901W        W52161  26.197   7.221   4.374
79902W        W52162   3.411   0.998   2.170
79903W        W52163  37.482  44.224   1.351
79904W        W52164  24.637   5.355  12.554
79905W        W52165  25.229  25.919   0.753
79906W        W52166  35.288  39.074   4.817
79907W        W52167  10.549  25.920   1.847
79908W        W52168  30.147  28.926   1.248
79909W        W52169  35.380  38.018   0.925
79910W        W52170  20.156  14.344   5.023
79911W        W52171  43.563   2.674   0.997
79912W        W52172  33.782  44.434  13.884
79913W        W52173  21.887  11.886  11.618
79914W        W52174  40.267  24.986   0.468
79915W        W52175  43.362  38.544  12.306
79916W        W52176  35.981  28.907  12.061
79917W        W52177   8.383  20.333  12.549
79918W        W52178  33.861  39.763   4.728
79919W        W52179  37.583  25.576   0.226
79920W        W52180  41.815  10.688  10.858
79921W        W52181   8.710  26.602  14.773
79922W        W52182  18.148  25.907   4.073
79923W        W52183  34.323  12.618   0.583
79924W        W52184  17.043  37.528   5.372
79925W        W52185  11.784  43.493   1.396
79926W        W52186  26.070  35.674   1.226
79927W        W52187  11.647  15.681   3.654
79928W        W52188  37.535  43.693  14.298
79929W        W52189  15.966  39.481   1.983
79930W        W52190  17.797  15.098   4.142
79931W        W52191  15.282  15.655   2.688
79932W        W52192  19.611  33.367  13.876
79933W        W52193  20.201  40.794  11.719
79934W        W52194   5.175   0.213   4.825
79935W        W52195  25.719   3.984   1.026
79936W        W52196  39.100  37.378   3.266
79937W        W52197  44.707   6.174  12.491
79938W        W52198  10.402  13.383  10.816
79939W        W52199  41.469  31.971  11.488
79940W        W52200   5.463  31.031  12.317
79941W        W52201  10.665  12.846   4.129
79942W        W52202   1.622  37.510   4.168
79943W        W52203  18.260  36.585   4.849
79944W        W52204  26.066  25.974  13.525
79945W        W52205  23.567   1.511  10.606
79946W        W52206  31.200  41.556   0.393
79947W        W52207   8.966  17.025  13.359
79948W        W52208  16.553  26.527   2.584
79949W        W52209  12.177  26.907  11.725
79950W        W52210   0.002  38.818  14.397
79951W        W52211  39.985  21.033   2.356
79952W        W52212  17.104  18.085   4.135
79953W        W52213  19.316  33.501  11.199
79954W        W52214  17.085  16.221  13.406
79955W        W52215  23.480  17.400  11.992
79956W        W52216   3.252  11.025   0.281
79957W        W52217   3.780   4.182  13.575
79958W        W52218   7.913  21.982   0.586
79959W        W52219  13.003  34.859  12.029
79960W        W52220  20.444  36.384  11.436
79961W        W52221  23.635  19.100  12.586
79962W        W52222  35.163  26.440  11.604
79963W        W52223   6.752   6.656   4.690
79964W        W52224  42.529  13.903   3.519
79965W        W52225  18.352   5.373   1.806
79966W        W52226  30.603  43.355   3.916
79967W        W52227  33.670   6.800   0.392
79968W        W52228  21.099   0.576   2.179
79969W        W52229   8.688  42.095  11.477
79970W        W52230   2.426  41.273   1.769
79971W        W52231  40.428  31.438  13.365
79972W        W52232  17.110  13.675   3.291
79973W        W52233  42.167  11.967   4.368
79974W        W52234   4.882   5.158   3.737
79975W        W52235  34.672  17.906   3.370
79976W        W52236  21.248  26.475  11.525
79977W        W52237  19.813   3.740   3.593
79978W        W52238  22.602  12.531   4.950
79979W        W52239  12.649  34.552   0.941
79980W        W52240   2.236  40.864  13.097
79981W        W52241  12.155   0.497  10.322
79982W        W52242  17.775  38.029  13.840
79983W        W52243   6.891  12.689  13.465
79984W        W52244  24.586  22.555   2.197
79985W        W52245  13.152  22.467   3.697
79986W        W52246  31.121  15.107  12.067
79987W        W52247  42.086  17.081   2.241
79988W        W52248  25.493   4.573   4.624
79989W        W52249  22.082   2.257  10.602
79990W        W52250  35.822   9.082  11.533
79991W        W52251   6.711  35.997  13.989
79992W        W52252  12.112   1.993   4.761
79993W        W52253  34.405  35.998  11.127
79994W        W52254  41.943  44.843  14.791
79995W        W52255  40.502  33.259   2.798
79996W        W52256  42.245  17.157  12.442
79997W        W52257  34.344  32.529  13.042
79998W        W52258   5.618  26.094  10.212
79999W        W52259  26.678  10.699   1.710
80000W        W52260  16.727  25.630  12.879
80001W        W52261  23.486  35.913   0.317
80002W        W52262   6.192   1.029  13.573
80003W        W52263  25.570   3.525   3.031
80004W        W52264  41.309  24.462  11.652
80005W        W52265  26.995  26.157  13.551
80006W        W52266  24.169  29.041   0.992
80007W        W52267  15.681  37.778   2.339
80008W        W52268  16.419  32.400  14.900
80009W        W52269  24.550  31.570  11.606
80010W        W52270  39.032  28.158  13.773
80011W        W52271  22.598  30.356  11.569
80012W        W52272  23.881  38.215  11.253
80013W        W52273  25.139  14.306  11.510
80014W        W52274  34.167   4.979   3.611
80015W        W52275  10.749  20.725   0.644
80016W        W52276  18.706  36.271   4.838
80017W        W52277  19.727  34.928   2.291
80018W        W52278  12.197  38.410  10.737
80019W        W52279  16.260  39.520  13.821
80020W        W52280  44.361  24.995  12.718
80021W        W52281   5.662  16.645   0.674
80022W        W52282   4.944  37.377  14.860
80023W        W52283  38.743  37.701  14.556
80024W        W52284  21.499  21.289  11.623
80025W        W52285  40.637  42.012  13.472
80026W        W52286  26.400  16.248   1.435
80027W        W52287  23.747  31.906   1.527
80028W        W52288  36.317   9.871  13.081
80029W        W52289  13.717  39.257  13.834
80030W        W52290  13.570  26.230   0.727
80031W        W52291  14.226  28.123   4.965
80032W        W52292   6.815  25.507   9.944
80033W        W52293  30.997   3.329   3.355
80034W        W52294  26.021  19.027   1.860
80035W        W52295  27.996  21.982   3.639
80036W        W52296  41.032  35.825  12.491
80037W        W52297  20.492  42.520   3.541
80038W        W52298  17.396  31.260  10.693
80039W        W52299  15.797  33.582   3.740
80040W        W52300  43.420  39.089   2.653
80041W        W52301  44.243  40.113  13.076
80042W        W52302  39.643  40.600  14.343
80043W        W52303   4.969  37.334   4.605
80044W        W52304   5.822   1.754  14.021
80045W        W52305  33.679   8.720   1.816
80046W        W52306   3.267  11.159  12.515
80047W        W52307  30.629  25.964   4.934
80048W        W52308  16.367  11.849   4.042
80049W        W52309   6.223  42.060   4.269
80050W        W52310  41.257  18.234   4.241
80051W        W52311  17.076  44.914   4.035
80052W        W52312  42.955  42.910   3.327
80053W        W52313  11.108  38.184   3.078
80054W        W52314  28.875  25.758   2.307
80055W        W52315  23.071   8.214  10.588
80056W        W52316  11.707  22.228   3.260
80057W        W52317  25.452  19.574  12.832
80058W        W52318  20.767  18.359   0.506
80059W        W52319  23.603   2.883   2.353
80060W        W52320   4.265  34.677   0.751
80061W        W52321  19.191   3.309   4.298
80062W        W52322  20.263   2.442   4.265
80063W        W52323  12.706  30.021   5.404
80064W        W52324  16.087  30.154  13.504
80065W        W52325  39.780   2.781  12.971
80066W        W52326  37.334   0.840   0.270
80067W        W52327  18.576   1.379  14.836
80068W        W52328  30.679   4.290  12.963
80069W        W52329  44.811   5.003   0.575
80070W        W52330  20.596   4.199  13.616
80071W        W52331   9.467  28.474  13.502
80072W        W52332   0.451   4.859   2.573
80073W        W52333  13.754  20.594  14.979
80074W        W52334  37.436  27.243   0.332
80075W        W52335  42.270  41.384   0.908
80076W        W52336  13.197  24.722   2.859
80077W        W52337  10.473  40.523   3.836
80078W        W52338  44.398  22.748   3.108
80079W        W52339   0.462   3.263  11.703
80080W        W52340  39.219  23.830   5.058
80081W        W52341   2.203  33.958   2.745
80082W        W52342  16.143  24.119  14.786
80083W        W52343   4.639   5.227  12.066
80084W        W52344  39.970  33.230  14.408
80085W        W52345  22.211  18.216  11.045
80086W        W52346   2.503  27.157   0.482
80087W        W52347  25.921  34.509  10.725
80088W        W52348   3.852  37.338   4.426
80089W        W52349  15.912   4.300   4.794
80090W        W52350   7.341  15.666  12.064
80091W        W52351   7.093  40.282   4.111
80092W        W52352  34.431  22.684   3.856
80093W        W52353  42.757  44.271   3.310
80094W        W52354  22.784  35.645  12.952
80095W        W52355  29.912   2.709  14.442
80096W        W52356  41.627  12.645   4.557
80097W        W52357  20.644  19.625   2.707
80098W        W52358  44.755  35.418  14.990
80099W        W52359  23.675  10.246   3.689
80100W        W52360   8.484  36.078  13.335
80101W        W52361  22.018  39.235   4.276
80102W        W52362  12.121  15.196   4.954
80103W        W52363  31.658  15.093   2.406
80104W        W52364   1.491  34.957   0.759
80105W        W52365   2.547  27.272  13.240
80106W        W52366  35.577  28.033   2.223
80107W        W52367  41.706   7.437  10.607
80108W        W52368  12.647  28.938  13.499
80109W        W52369   7.139  10.913  12.614
80110W        W52370   9.404  32.149   3.661
80111W        W52371  43.948  33.800  12.842
80112W        W52372  20.184   9.627  12.081
80113W        W52373  37.798  15.151   3.290
80114W        W52374  39.414   2.926   2.700
80115W        W52375  11.226  26.079   0.376
80116W        W52376  39.434  31.883   4.373
80117W        W52377   7.512  41.438  11.099
80118W        W52378  10.395  17.878   4.578
80119W        W52379  24.134  18.230  11.042
80120W        W52380  15.710  21.474   1.862
80121W        W52381  20.880  41.522  12.078
80122W        W52382  38.834  39.281   2.518
80123W        W52383  37.740  24.515  13.406
80124W        W52384   9.874   6.417   3.654
80125W        W52385   6.422  24.476   3.007
80126W        W52386   7.143  39.075  14.359
80127W        W52387  43.446  42.049   1.303
80128W        W52388  34.461  29.384   1.256
80129W        W52389   7.981  32.554  12.946
80130W        W52390   4.395  26.086  14.310
80131W        W52391  28.082  37.133   0.547
80132W        W52392  38.199  25.246  13.822
80133W        W52393  28.993   6.124   3.442
80134W        W52394  23.297   3.969  13.812
80135W        W52395  41.441  16.722  12.471
80136W        W52396  25.607  40.309   0.791
80137W        W52397  38.194  28.061  13.508
80138W        W52398  10.582  37.210   1.169
80139W        W52399  39.032   8.924   1.768
80140W        W52400  39.995   0.669  12.505
80141W        W52401  30.671  25.571   3.564
80142W        W52402  10.322  20.252   0.377
80143W        W52403  37.582  26.634  11.650
80144W        W52404  10.298   7.748  13.123
80145W        W52405  24.680   0.021   1.714
80146W        W52406   5.728  30.469  13.411
80147W        W52407  38.388   7.347   4.551
80148W        W52408  39.034  23.078   4.131
80149W        W52409   3.218   4.510   1.003
80150W        W52410  39.029  30.562  10.262
80151W        W52411  18.783   8.508  11.709
80152W        W52412  41.969  25.932  14.374
80153W        W52413  26.757   1.818   2.413
80154W        W52414  38.345  23.688   3.091
80155W        W52415  25.969  12.751  10.240
80156W        W52416  10.079  39.117   1.766
80157W        W52417  17.575  13.823  11.610
80158W        W52418  22.905   7.793   1.443
80159W        W52419   3.929  19.627   0.823
80160W        W52420   7.816  37.144   5.213
80161W        W52421   2.721  30.656  14.866
80162W        W52422  37.048  18.864  13.977
80163W        W52423   1.110  11.586   2.833
80164W        W52424  44.780   9.839  13.026
80165W        W52425  35.322  39.473  14.996
80166W        W52426  24.193  19.156   4.283
80167W        W52427   1.956  41.819  11.125
80168W        W52428   3.028  31.925   0.353
80169W        W52429  25.066   0.702   4.043
80170W        W52430  37.081  18.610  13.046
80171W        W52431  22.489  24.961   3.941
80172W        W52432  26.131  44.791  10.717
80173W        W52433   8.443  12.441   0.360
80174W        W52434   8.659  35.139   2.737
80175W        W52435   8.907  32.020  14.931
80176W        W52436  19.575  12.509   1.435
80177W        W52437  23.618  16.143  11.723
80178W        W52438  25.518   3.201   0.659
80179W        W52439  18.689  39.954  14.240
80180W        W52440  40.867  16.734   3.219
80181W        W52441   9.290  37.216  11.584
80182W        W52442  35.955  13.511   1.770
80183W        W52443  11.612  16.211  12.990
80184W        W52444   5.794  21.257   1.240
80185W        W52445  25.039   1.158  13.747
80186W        W52446   8.103  28.344  14.837
80187W        W52447  35.705  22.208   1.239
80188W        W52448  11.868   7.530  12.017
80189W        W52449  23.307  31.156  11.062
80190W        W52450  19.071  34.841  11.569
80191W        W52451  31.570  14.157   3.884
80192W        W52452   2.804   1.497   3.269
80193W        W52453  30.630   8.900  11.193
80194W        W52454   3.204  10.833   2.569
80195W        W52455  33.462  32.890   0.686
80196W        W52456  44.899   9.181  11.127
80197W        W52457   3.210  39.012   2.691
80198W        W52458  31.055  11.388   4.943
80199W        W52459   1.739  30.063   1.800
80200W        W52460  38.307  22.761   4.529
80201W        W52461  16.639  10.335   2.169
80202W        W52462   9.412   5.864  12.643
80203W        W52463  36.087   6.131  14.068
80204W        W52464   2.012  21.646   2.107
80205W        W52465  12.620   0.526   4.819
80206W        W52466  11.502  44.737   2.421
80207W        W52467  19.530  25.704   1.833
80208W        W52468   7.304  35.259  12.034
80209W        W52469  28.924  28.967  12.440
80210W        W52470  41.686  41.225  13.876
80211W        W52471  32.572  44.202  13.354
80212W        W52472  34.704  22.176  12.447
80213W        W52473  16.640  26.200  11.202
80214W        W52474  36.350  18.596  14.815
80215W        W52475   3.467  10.886  11.552
80216W        W52476  24.126   3.898  14.889
80217W        W52477  13.747  38.909   0.111
80218W        W52478  18.781  24.747  12.554
80219W        W52479  28.495  25.472  13.825
80220W        W52480  12.834  42.020   2.396
80221W        W52481  38.388  35.948  14.465
80222W        W52482   6.379  22.327   4.990
80223W        W52483  42.670   8.071   0.815
80224W        W52484  20.271  29.460  13.581
80225W        W52485   6.780   5.548   0.917
80226W        W52486  20.457  30.481  10.504
80227W        W52487   4.690  11.611   3.260
80228W        W52488  35.349  14.812  10.994
80229W        W52489  23.779  44.157  10.166
80230W        W52490  24.807  38.771  13.332
80231W        W52491   2.533  11.953   2.752
80232W        W52492  32.069   0.326   5.161
80233W        W52493   0.846  32.128  13.213
80234W        W52494   7.715   7.195  10.273
80235W        W52495  44.442  22.779   2.229
80236W        W52496  12.625  44.535  13.842
80237W        W52497   3.476  11.116  14.820
80238W        W52498  15.549   4.388  14.743
80239W        W52499  22.834   6.207  12.542
80240W        W52500  43.784  37.418   1.528
80241W        W52501  27.705  21.082  14.066
80242W        W52502  18.558   5.923  13.881
80243W        W52503  17.269  22.028   3.834
80244W        W52504   9.313   4.784  11.603
80245W        W52505  13.958   9.646  14.186
80246W        W52506  26.658  17.734  13.765
80247W        W52507  24.706  10.228  11.148
80248W        W52508  29.420  22.626  10.679
80249W        W52509   4.415  17.864   4.123
80250W        W52510  27.013  28.969  14.389
80251W        W52511   6.840   9.186  12.013
80252W        W52512   5.734  20.084  10.426
80253W        W52513  25.649  20.249  14.962
80254W        W52514   9.791  12.916   4.018
80255W        W52515   6.601  29.164  10.265
80256W        W52516  10.843  24.657   3.303
80257W        W52517  14.670  32.113  11.348
80258W        W52518  13.185  14.186   2.264
80259W        W52519  17.443  31.659  11.093
80260W        W52520  38.081  43.863  12.440
80261W        W52521  41.923  23.162   4.610
80262W        W52522  23.523  31.544   1.859
80263W        W52523  44.388  30.291   3.285
80264W        W52524  13.863  10.406   0.819
80265W        W52525  29.702  16.051   3.143
80266W        W52526  37.016  35.317   2.813
80267W        W52527  23.986   0.479   4.837
80268W        W52528  15.417  38.657  14.534
80269W        W52529  44.281  10.637  13.584
80270W        W52530   1.896  21.993  11.921
80271W        W52531  14.771  22.348  11.608
80272W        W52532  10.361  30.571   0.048
80273W        W52533  16.078  27.119  13.866
80274W        W52534  27.580  15.356   2.674
80275W        W52535  36.174  18.149  12.285
80276W        W52536  13.616  39.802  10.351
80277W        W52537   1.775  23.014   0.438
80278W        W52538   1.801  28.001  14.133
80279W        W52539  12.656  37.504  10.695
80280W        W52540  13.718  28.250  14.958
80281W        W52541  18.352  43.025   3.107
80282W        W52542  16.112   9.355  10.677
80283W        W52543   0.006   2.246  14.913
80284W        W52544  19.964  20.497  12.061
80285W        W52545  13.124  28.034  10.213
80286W        W52546  42.053  38.325   1.367
80287W        W52547  25.699  16.720  10.659
80288W        W52548   8.847  36.988   3.153
80289W        W52549   8.766  19.600   4.961
80290W        W52550  20.767   3.009  12.973
80291W        W52551  39.453  24.329  12.638
80292W        W52552  17.486  13.873  13.655
80293W        W52553  41.429  44.903  13.019
80294W        W52554  15.910   5.549   2.943
80295W        W52555  25.486  14.377  11.110
80296W        W52556  33.329  22.640   2.961
80297W        W52557  27.511   4.799   2.659
80298W        W52558  11.848  40.709  12.910
80299W        W52559   3.146  28.119  14.305
80300W        W52560   3.508  17.245  11.069
80301W        W52561   3.248  33.505  13.899
80302W        W52562  24.250  17.264  14.561
80303W        W52563   3.735  38.818  11.692
80304W        W52564  24.288   5.843   1.858
80305W        W52565  17.930   5.720   4.129
80306W        W52566  25.656   5.631  14.285
80307W        W52567   4.261  21.628  13.472
80308W        W52568  18.717  41.229   0.054
80309W        W52569  36.284   1.316  11.620
80310W        W52570  18.817  34.985   1.282
80311W        W52571  23.949   2.361  11.602
80312W        W52572  32.167  33.596   2.151
80313W        W52573   6.922  14.136  11.905
80314W        W52574  33.389  43.418  11.034
80315W        W52575  28.751  39.887  11.840
80316W        W52576  11.219  22.138  11.236
80317W        W52577  37.595  23.908  12.397
80318W        W52578  12.242  16.377   3.540
80319W        W52579  15.882  41.939   2.877
80320W        W52580  20.655   5.338  11.999
80321W        W52581   3.884  37.461  10.638
80322W        W52582  21.563  21.261   0.455
80323W        W52583  44.848  23.681   0.743
80324W        W52584  14.694  22.898  12.466
80325W        W52585  35.967  36.157  14.501
80326W        W52586  44.320   4.216  14.744
80327W        W52587   1.842  11.664  12.328
80328W        W52588  33.126  23.006   3.740
80329W        W52589  30.883  32.460   1.355
80330W        W52590  27.702  40.868   0.510
80331W        W52591  13.841  34.378  11.145
80332W        W52592   5.692  34.930  14.828
80333W        W52593  24.866  33.925  14.992
80334W        W52594  18.825  33.258   9.957
80335W        W52595  27.929  25.702  11.052
80336W        W52596  39.765  34.387  14.013
80337W        W52597  22.907   3.713   3.729
80338W        W52598  12.873  24.657   0.855
80339W        W52599  40.721   5.457   4.141
80340W        W52600   9.433  38.834  13.350
80341W        W52601  24.881  42.922  11.257
80342W        W52602  31.458  35.878   2.134
80343W        W52603   2.800  27.446   2.652
80344W        W52604  27.137   1.941   5.003
80345W        W52605  18.540  22.444   2.296
80346W        W52606   8.344  33.004  13.864
80347W        W52607  17.375  30.993   1.306
80348W        W52608  25.123  24.040   1.914
80349W        W52609  43.961  34.927   2.795
80350W        W52610   5.616  16.409   2.870
80351W        W52611  36.507   1.719   2.632
80352W        W52612  23.191   0.281  11.320
80353W        W52613   8.897  25.601  14.799
80354W        W52614  21.140   6.927   4.985
80355W        W52615   5.283  27.971   3.067
80356W        W52616  12.759   7.224   1.924
80357W        W52617  22.315   3.518   2.792
80358W        W52618  12.387  44.444  14.433
80359W        W52619  32.984  40.944   1.304
80360W        W52620  21.765  38.021  10.749
80361W        W52621  19.235   4.774  11.982
80362W        W52622   0.941  36.466   4.356
80363W        W52623  38.050  41.507   2.744
80364W        W52624  17.883  41.723  12.519
80365W        W52625  39.468  28.077   2.538
80366W        W52626  41.477  12.325   0.719
80367W        W52627  35.139  37.039  10.774
80368W        W52628   0.594  30.839   2.216
80369W        W52629   2.851  31.309   2.390
80370W        W52630  22.227  44.525   1.862
80371W        W52631  42.021  21.848   1.246
80372W        W52632  30.441  21.222  12.867
80373W        W52633  16.338  20.115   1.394
80374W        W52634   6.633  15.410  10.866
80375W        W52635   5.389  43.992   1.458
80376W        W52636  28.292   8.666   4.892
80377W        W52637  10.854   2.280  14.536
80378W        W52638  43.585  15.036  12.435
80379W        W52639   7.270  38.038  12.316
80380W        W52640   0.312   0.501   2.336
80381W        W52641  29.022  27.647  13.339
80382W        W52642  27.714  44.464  14.270
80383W        W52643  19.814  34.636   1.689
80384W        W52644  38.836  29.554  11.946
80385W        W52645  38.183  35.011  11.430
80386W        W52646  42.859   6.965   2.840
80387W        W52647  15.613   9.783   3.318
80388W        W52648  22.919   0.463  12.166
80389W        W52649  31.386  24.077  11.502
80390W        W52650  22.304  22.067   9.874
80391W        W52651  34.474   1.134   4.252
80392W        W52652  13.756  41.833  13.830
80393W        W52653  22.610  39.389   3.856
80394W        W52654  15.308  34.716   2.133
80395W        W52655   9.290  36.440  13.960
80396W        W52656   0.967  42.903   1.746
80397W        W52657  23.810  35.533  12.083
80398W        W52658  38.354  19.057  11.443
80399W        W52659   1.325  16.337  14.829
80400W        W52660  32.512  33.532   4.257
80401W        W52661  22.152  36.323   2.335
80402W        W52662  24.705  13.051   1.802
80403W        W52663  20.650  12.239  14.962
80404W        W52664  35.522  42.530   0.701
80405W        W52665  33.882  33.422  12.847
80406W        W52666   3.883   3.188   4.214
80407W        W52667  40.067  43.418   0.977
80408W        W52668  41.928  39.263   3.312
80409W        W52669  35.559  18.393  10.225
80410W        W52670   4.683  17.738  14.285
80411W        W52671   1.427  10.139   2.320
80412W        W52672   4.343  42.304   4.451
80413W        W52673  15.786  20.758   2.303
80414W        W52674  25.058  20.574  11.635
80415W        W52675  29.636  44.485  13.095
80416W        W52676  10.385  44.344   2.934
80417W        W52677  17.292  33.499   2.296
80418W        W52678  28.070   0.759   3.619
80419W        W52679   9.484  35.767   5.002
80420W        W52680   4.758  10.698   3.379
80421W        W52681  19.081   0.289   1.366
80422W        W52682  44.498  28.662  14.402
80423W        W52683   4.476  21.957   1.903
80424W        W52684  31.381  44.192   4.956
80425W        W52685  35.622   0.348   0.455
80426W        W52686  29.757  30.637  13.090
80427W        W52687  32.447  44.847   4.006
80428W        W52688  10.425  36.852  13.942
80429W        W52689  23.655   1.250  14.897
80430W        W52690  23.656  32.309  14.917
80431W        W52691   9.287   3.886   3.816
80432W        W52692  28.474  34.365   2.745
80433W        W52693  19.226  19.674   4.839
80434W        W52694   6.038   0.825  11.577
80435W        W52695   4.497  31.903  14.507
80436W        W52696  34.750   3.222  12.162
80437W        W52697  15.067  41.068  12.402
80438W        W52698  28.646   3.806  14.753
80439W        W52699  26.370   4.247   1.000
80440W        W52700  36.590  21.639   4.416
80441W        W52701   7.229  15.801  13.355
80442W        W52702  34.693  22.742  11.569
80443W        W52703   9.778  41.763  14.930
80444W        W52704  11.921  19.303  14.823
80445W        W52705  21.733  10.690   0.830
80446W        W52706  37.367  12.745   1.748
80447W        W52707  13.630  16.904   5.537
80448W        W52708  13.680  38.331   3.290
80449W        W52709  13.137  27.636  13.072
80450W        W52710  25.732  26.885   2.001
80451W        W52711   8.419  16.741   0.736
80452W        W52712  42.259   6.634   3.247
80453W        W52713  29.145  28.686  13.126
80454W        W52714   0.279  37.827   1.824
80455W        W52715  30.514  25.910  13.955
80456W        W52716   8.480  27.521   4.504
80457W        W52717  22.504  23.735   4.078
80458W        W52718  11.854   5.906  11.542
80459W        W52719  35.537  35.121   2.146
80460W        W52720  19.037  26.212  12.556
80461W        W52721  16.261  13.747  10.755
80462W        W52722  40.897  20.224  14.086
80463W        W52723  18.364  22.321   1.808
80464W        W52724  32.959  41.576   2.144
80465W        W52725  10.788   4.423   3.873
80466W        W52726  14.522  30.856  13.537
80467W        W52727  16.874   6.724   0.427
80468W        W52728   7.251   0.258   2.332
80469W        W52729  19.213  26.619   2.395
80470W        W52730  19.292  27.447   4.039
80471W        W52731  37.798  11.708  11.973
80472W        W52732  14.249  29.155   4.039
80473W        W52733  12.037  22.507  10.747
80474W        W52734  17.014  23.152  12.475
80475W        W52735  29.963   5.311   3.720
80476W        W52736  17.489   9.793  14.040
80477W        W52737   4.945  19.561   3.771
80478W        W52738  43.594  43.165  12.539
80479W        W52739  10.332  37.405   9.954
80480W        W52740   2.455  20.770   0.874
80481W        W52741  40.608  14.148  11.550
80482W        W52742  12.669   5.940  13.982
80483W        W52743   2.796  29.539  13.337
80484W        W52744  43.459  41.949  11.539
80485W        W52745  14.040  21.002  14.819
80486W        W52746  38.359   9.414  11.129
80487W        W52747  33.102   0.881  14.473
80488W        W52748   4.464  15.784  14.223
80489W        W52749  32.125   0.842  14.426
80490W        W52750  24.442  41.775  14.935
80491W        W52751  18.064  28.780  13.518
80492W        W52752  26.146  24.527   2.546
80493W        W52753  19.987   2.181  13.324
80494W        W52754  42.292   4.986  13.072
80495W        W52755  19.117  31.463   1.341
80496W        W52756  24.459  20.726   2.633
80497W        W52757   5.342  29.379  10.439
80498W        W52758  21.607   4.471   1.228
80499W        W52759  34.769  21.188  12.056
80500W        W52760  22.367  26.515   1.048
80501W        W52761   8.638  15.326  14.352
80502W        W52762  30.687  33.806   0.703
80503W        W52763  42.565   1.651  13.879
80504W        W52764  26.910   5.645   4.178
80505W        W52765   8.957  25.386  13.543
80506W        W52766  39.487  10.766  10.510
80507W        W52767  16.017  14.266   5.085
80508W        W52768  32.241  21.679  11.027
80509W        W52769  14.357  11.354  14.973
80510W        W52770  34.120  11.536   4.128
80511W        W52771   1.637  18.837   0.834
80512W        W52772  10.539  20.116  11.445
80513W        W52773  29.102  11.221  12.756
80514W        W52774  24.244  40.300   4.956
80515W        W52775  16.636   5.321   1.810
80516W        W52776  24.804   6.802  12.300
80517W        W52777  15.621  22.959   5.134
80518W        W52778  29.039  17.722   1.380
80519W        W52779  17.688  18.378  13.407
80520W        W52780  30.586  31.839   2.201
80521W        W52781  28.067  24.000  11.622
80522W        W52782  32.211   3.756  14.391
80523W        W52783   7.249  39.428   3.885
80524W        W52784   0.141  33.845  11.693
80525W        W52785  23.642  25.439  14.237
80526W        W52786  33.376  23.046  12.181
80527W        W52787  24.155  36.437  14.924
80528W        W52788   8.724  15.838  14.499
80529W        W52789  33.163  28.442  14.909
80530W        W52790  11.266  35.854  11.991
80531W        W52791  31.445   9.181   1.909
80532W        W52792  10.141  22.603  14.300
80533W        W52793  43.285  18.041   4.136
80534W        W52794  38.581   6.429  11.808
80535W        W52795  26.611  33.023   3.614
80536W        W52796  41.337  37.850  14.705
80537W        W52797  31.050   2.690  10.556
80538W        W52798  28.550  18.573   1.275
80539W        W52799  28.944  28.978   0.930
80540W        W52800  19.037  11.239  13.334
80541W        W52801  12.177  11.105  13.604
80542W        W52802  36.006   1.793  14.245
80543W        W52803  12.249  12.815   2.467
80544W        W52804  12.549  16.098   0.829
80545W        W52805  39.615  31.499   4.074
80546W        W52806  37.020  33.667  11.188
80547W        W52807  16.960  38.891   4.076
80548W        W52808  40.121  31.393   4.095
80549W        W52809  42.680  43.011  13.430
80550W        W52810  31.178  22.199   0.241
80551W        W52811   1.537   4.991   5.138
80552W        W52812  38.526  42.771  13.560
80553W        W52813  43.227  28.408  11.176
80554W        W52814  25.066  38.707  10.016
80555W        W52815  23.043  12.019   2.692
80556W        W52816  32.177  15.708  13.006
80557W        W52817  15.717  15.216   1.700
80558W        W52818  37.344  34.147  14.931
80559W        W52819  26.681  24.103   2.679
80560W        W52820  38.879  40.406   1.826
80561W        W52821  12.395   1.341  14.389
80562W        W52822  44.954  22.714  10.640
80563W        W52823  33.311   5.745   0.821
80564W        W52824  42.789  39.777  11.679
80565W        W52825  34.887  41.299   4.528
80566W        W52826  39.744  29.032   3.722
80567W        W52827   5.929  41.763  12.521
80568W        W52828   4.748  40.451  12.418
80569W        W52829  34.178  19.875   0.476
80570W        W52830   9.964   7.766  12.267
80571W        W52831  40.414   0.801  14.824
80572W        W52832  15.594  22.728   1.222
80573W        W52833  10.267  16.076  11.881
80574W        W52834  26.658   9.696   0.232
80575W        W52835  44.297  39.228   0.899
80576W        W52836  44.330  41.887  11.953
80577W        W52837   1.564  43.052  13.454
80578W        W52838  17.805   6.759  11.982
80579W        W52839   2.462  18.658  10.700
80580W        W52840  19.066   6.147   3.774
80581W        W52841   0.482  15.171   2.516
80582W        W52842  42.349  27.715  13.514
80583W        W52843  19.257   3.786  13.893
80584W        W52844  32.774  15.322   0.427
80585W        W52845  22.349   1.228  14.402
80586W        W52846  21.003  33.584   1.826
80587W        W52847   4.619  25.747   2.732
80588W        W52848  38.127  18.606   3.983
80589W        W52849  41.053  19.255   4.578
80590W        W52850  26.282  26.090   0.827
80591W        W52851  44.872  39.983   2.281
80592W        W52852  23.576   0.015   0.887
80593W        W52853   7.758   0.967   2.689
80594W        W52854  35.072  14.100  10.539
80595W        W52855   3.649  26.675  11.989
80596W        W52856  31.963  28.363   1.921
80597W        W52857   9.258  19.540  13.991
80598W        W52858  20.654   1.911  12.947
80599W        W52859   3.319  15.045   0.370
80600W        W52860  41.388  39.248   1.709
80601W        W52861  31.225   7.410   2.464
80602W        W52862   1.769  34.049  14.765
80603W        W52863   7.779   0.079  13.813
80604W        W52864  18.555  33.526   0.273
80605W        W52865  11.155  43.422   2.721
80606W        W52866  21.774   4.020  13.948
80607W        W52867  20.235  15.290  14.299
80608W        W52868  38.038  26.468   2.822
80609W        W52869  30.993  16.656  13.955
80610W        W52870  35.801  15.905   0.957
80611W        W52871  29.625  38.011   1.327
80612W        W52872  13.300   9.072  11.573
80613W        W52873  25.960  33.903  10.649
80614W        W52874  13.854   0.296  14.590
80615W        W52875  17.734   0.298   4.185
80616W        W52876  39.222  39.883  11.165
80617W        W52877  35.514  42.116   3.039
80618W        W52878  12.048   5.428  11.465
80619W        W52879  35.342  20.268   0.826
80620W        W52880  11.715  26.603   4.933
80621W        W52881   1.371  10.208   1.429
80622W        W52882  29.643  28.928   2.122
80623W        W52883   5.953  35.393  11.693
80624W        W52884  41.732   2.365  14.809
80625W        W52885  29.074  11.101   1.281
80626W        W52886   2.322   3.813  13.705
80627W        W52887  26.447  23.264   1.376
80628W        W52888  31.182  18.327  12.019
80629W        W52889  14.386  26.977  13.431
80630W        W52890  16.252  35.007  12.063
80631W        W52891   9.216   1.168   1.811
80632W        W52892   1.853  30.529   4.505
80633W        W52893  28.542  41.509   0.804
80634W        W52894  40.396   7.765  12.084
80635W        W52895  37.611  13.304   1.987
80636W        W52896  30.437   3.837  11.071
80637W        W52897   2.387  23.016  12.340
80638W        W52898  14.115  27.874  11.028
80639W        W52899  39.581  29.376  13.706
80640W        W52900  35.067  36.450  11.533
80641W        W52901  17.507  26.576   4.552
80642W        W52902  19.389  33.748  13.608
80643W        W52903   1.852  37.405  14.288
80644W        W52904  32.434  32.025   4.330
80645W        W52905  32.207  28.086   0.378
80646W        W52906  40.423  37.159   2.758
80647W        W52907  42.077  28.933  10.309
80648W        W52908   8.321  26.161   0.241
80649W        W52909  34.997  25.190  11.869
80650W        W52910  21.992  20.383   2.815
80651W        W52911   8.735   0.464  13.344
80652W        W52912  33.903   4.370  12.327
80653W        W52913  15.919  29.469   2.841
80654W        W52914  33.203  14.451  14.960
80655W        W52915  10.033   7.891  14.111
80656W        W52916  21.082  29.233   0.013
80657W        W52917  44.319  30.620   3.659
80658W        W52918  28.648  39.294   3.940
80659W        W52919  13.782  12.792   3.989
80660W        W52920  36.411   9.796  14.030
80661W        W52921  30.276  20.681  12.861
80662W        W52922  13.751  16.121   4.220
80663W        W52923  12.757   2.265   2.310
80664W        W52924  14.185   2.336  11.715
80665W        W52925  35.072  43.398   4.211
80666W        W52926  13.837  38.909   4.874
80667W        W52927  43.398   2.013  11.616
80668W        W52928  35.449  15.791  12.205
80669W        W52929  35.412  21.597  12.452
80670W        W52930  41.845  31.865   1.938
80671W        W52931  17.682  34.823   2.878
80672W        W52932   0.102  16.407   1.487
80673W        W52933  36.442  36.496  12.630
80674W        W52934   8.820  29.185  12.539
80675W        W52935  31.910  26.967   2.425
80676W        W52936  29.002   9.817   0.724
80677W        W52937  41.333  33.363   0.343
80678W        W52938  36.055  19.216   4.598
80679W        W52939  19.629  13.479   1.363
80680W        W52940   0.369  34.448   2.212
80681W        W52941  43.795   1.954  10.690
80682W        W52942  32.684  32.038  12.585
80683W        W52943   5.794  17.705   3.344
80684W        W52944  34.320  39.436   2.188
80685W        W52945  43.063  18.972   0.892
80686W        W52946  11.636  23.768  14.528
80687W        W52947   0.408  42.070  11.690
80688W        W52948  22.547  17.820  13.345
80689W        W52949  13.310  11.102   3.452
80690W        W52950  34.543  21.130   0.384
80691W        W52951  26.693  27.939  12.029
80692W        W52952  11.903  43.736   1.848
80693W        W52953  25.626   1.989  13.750
80694W        W52954  44.961   7.415   1.253
80695W        W52955   9.711  38.768   4.940
80696W        W52956  31.135  14.700   4.885
80697W        W52957  39.027  28.951   3.157
80698W        W52958  31.039  17.534   2.542
80699W        W52959   7.835  33.591   4.571
80700W        W52960  14.107   2.025  14.906
80701W        W52961  22.854  11.662  12.573
80702W        W52962  28.061  21.085  11.620
80703W        W52963  21.580  24.342   0.399
80704W        W52964  22.090  23.338  12.305
80705W        W52965   2.936   0.415  14.246
80706W        W52966  19.092  29.655   3.126
80707W        W52967  34.446  44.042   1.792
80708W        W52968   8.259  24.416  14.504
80709W        W52969  21.277   7.281  12.460
80710W        W52970  41.900   1.473  11.136
80711W        W52971  22.803  28.848   4.996
80712W        W52972   9.303   9.806   2.259
80713W        W52973  25.330  41.288  12.842
80714W        W52974  12.851   0.254   3.905
80715W        W52975  26.116   4.934   3.950
80716W        W52976  10.873  20.128   1.479
80717W        W52977  22.242  20.026   1.328
80718W        W52978   9.859  18.807  10.978
80719W        W52979  22.181  38.314  10.626
80720W        W52980  37.459   4.539   0.229
80721W        W52981  40.870  32.119  11.193
80722W        W52982  41.519   5.171   2.303
80723W        W52983  37.355  21.657   1.469
80724W        W52984  25.907  18.515   1.798
80725W        W52985  36.327  33.736  14.835
80726W        W52986  35.432   7.237   1.895
80727W        W52987   9.694   3.213  13.948
80728W        W52988  15.268  38.305   1.526
80729W        W52989  23.623   0.744  14.843
80730W        W52990  28.207   2.858   0.888
80731W        W52991  28.978  38.565  14.242
80732W        W52992  29.168  39.815   2.723
80733W        W52993  42.759  31.838   2.261
80734W        W52994  27.937   1.740   4.531
80735W        W52995   9.911   7.745  12.784
80736W        W52996  17.521  22.167  14.012
80737W        W52997  24.543  35.090   2.867
80738W        W52998  13.345  39.304   4.190
80739W        W52999  14.349  27.914  10.571
80740W        W53000  22.106   6.677  11.209
80741W        W53001  27.298   3.630  14.043
80742W        W53002   5.579  28.245  11.163
80743W        W53003  29.069   2.768   0.060
80744W        W53004  41.881   1.975   3.402
80745W        W53005   9.781  26.938   1.741
80746W        W53006  38.517   0.719   1.736
80747W        W53007   8.178  25.932  12.664
80748W        W53008  20.797  29.044  14.004
80749W        W53009  38.319  33.046   4.834
80750W        W53010  30.649  38.233  12.117
80751W        W53011  43.780  20.693  12.090
80752W        W53012  24.784  39.868  14.571
80753W        W53013  23.169  41.103  10.898
80754W        W53014  37.007   9.396  10.681
80755W        W53015  19.311  18.707   2.547
80756W        W53016  27.088  44.779   2.215
80757W        W53017   1.140  13.290   0.701
80758W        W53018  22.134   8.279   1.902
80759W        W53019  20.769  40.041   0.921
80760W        W53020  32.190   3.146  13.897
80761W        W53021   5.794  43.068   2.515
80762W        W53022  33.678  30.440  11.770
80763W        W53023  30.086  19.674   2.797
80764W        W53024  42.753  33.058   1.830
80765W        W53025  30.104  35.552  13.489
80766W        W53026  22.509  20.141   4.349
80767W        W53027  12.033  24.114  14.594
80768W        W53028  20.136  27.437   1.876
80769W        W53029  17.579   2.719  10.637
80770W        W53030  32.754  19.984  12.626
80771W        W53031  23.795  37.791  14.399
80772W        W53032  19.530   6.298  11.137
80773W        W53033  44.399  44.869  10.890
80774W        W53034  17.708  16.300   0.326
80775W        W53035   0.370   3.968  12.131
80776W        W53036  35.515  37.008  14.844
80777W        W53037  26.183  10.688   3.739
80778W        W53038   1.076   6.813   4.517
80779W        W53039  24.170  37.792  11.185
80780W        W53040   1.720  36.351  12.340
80781W        W53041  25.942  16.399   2.228
80782W        W53042  25.612  27.737   2.876
80783W        W53043   9.105  37.880  12.054
80784W        W53044  13.232   3.041   0.392
80785W        W53045   9.876  17.187  12.895
80786W        W53046   8.555   0.844   1.265
80787W        W53047  40.218  20.682  12.005
80788W        W53048  31.401  21.717   4.227
80789W        W53049  21.746  42.419   1.210
80790W        W53050  10.232  41.547   2.593
80791W        W53051  12.410  16.613  14.088
80792W        W53052  21.522  15.577   3.625
80793W        W53053  41.225  42.910   4.240
80794W        W53054  42.476   6.872   4.821
80795W        W53055  22.274  33.005   1.677
80796W        W53056  10.500  39.378   4.175
80797W        W53057  40.622  34.460  11.861
80798W        W53058  36.277  29.130   4.268
80799W        W53059  27.071  28.918   1.879
80800W        W53060   2.234  23.249   4.154
80801W        W53061  30.840  29.521   3.221
80802W        W53062  12.742  30.414   2.569
80803W        W53063  19.014  18.708   4.210
80804W        W53064  39.122  31.571  10.254
80805W        W53065   7.390  31.151  11.440
80806W        W53066   5.261  10.698  11.162
80807W        W53067  29.471  24.682   3.567
80808W        W53068  29.477  44.912  10.803
80809W        W53069  18.984   5.542  11.474
80810W        W53070  26.042  12.675   0.010
80811W        W53071  25.230  12.242   2.364
80812W        W53072  39.076  36.201  10.385
80813W        W53073  14.532  28.203  11.050
80814W        W53074  28.063  19.297   3.812
80815W        W53075  29.988  43.946  13.349
80816W        W53076  18.254  22.417  12.226
80817W        W53077   7.715  28.242   2.770
80818W        W53078  44.817  27.197  13.429
80819W        W53079   3.931  34.110   0.055
80820W        W53080   4.489  29.694   2.662
80821W        W53081  10.179  19.216   0.417
80822W        W53082  15.231  13.236  10.847
80823W        W53083  24.127  44.958   3.462
80824W        W53084  11.303   2.904   1.878
80825W        W53085   9.370  44.951  14.970
80826W        W53086  27.016  37.515   0.180
80827W        W53087  31.311  19.324   3.879
80828W        W53088  14.616  18.649  13.911
80829W        W53089  39.194  13.359  14.385
80830W        W53090   4.572   8.238   5.179
80831W        W53091  17.651  35.691   1.508
80832W        W53092  37.731   9.116   1.289
80833W        W53093  16.989   2.799   2.156
80834W        W53094  15.124  24.190  11.138
80835W        W53095   9.900  21.840   1.713
80836W        W53096  33.880   9.854   2.735
80837W        W53097  32.167  22.061   3.838
80838W        W53098   6.721   1.008  12.215
80839W        W53099  30.108  18.730  10.736
80840W        W53100  44.218  39.170   1.838
80841W        W53101  32.381   7.450  14.447
80842W        W53102  19.478   9.493   3.197
80843W        W53103  14.725  14.737   4.650
80844W        W53104  38.874  19.027  11.526
80845W        W53105  18.786  22.198   0.289
80846W        W53106   2.707   1.356   2.776
80847W        W53107  31.646  43.461   2.456
80848W        W53108  28.158  36.038   1.448
80849W        W53109  42.903  34.623   0.135
80850W        W53110  14.145  30.404   3.090
80851W        W53111  23.660  22.575  14.914
80852W        W53112  31.972  43.125  10.610
80853W        W53113  28.157  30.093   3.715
80854W        W53114  32.358  35.911   1.192
80855W        W53115  16.316   5.888   2.954
80856W        W53116  37.286  32.508   3.405
80857W        W53117  43.604   2.150   0.902
80858W        W53118  20.751  19.336  12.999
80859W        W53119   8.998  26.528  12.689
80860W        W53120   3.940  21.344   4.040
80861W        W53121  43.052  24.974  12.142
80862W        W53122  28.647   5.332   2.467
80863W        W53123  21.006  19.691   4.236
80864W        W53124  20.778  11.114   2.839
80865W        W53125  44.767  30.671  10.693
80866W        W53126   7.897  33.216  14.078
80867W        W53127  14.822  42.798  11.167
80868W        W53128  15.674  32.399   2.208
80869W        W53129  10.867  16.962  11.219
80870W        W53130  21.546  20.995  14.986
80871W        W53131  19.529  40.787   0.310
80872W        W53132   1.394  11.948   1.500
80873W        W53133  29.123  10.830   2.154
80874W        W53134  22.131  24.710   1.032
80875W        W53135  32.170  34.343  14.861
80876W        W53136  23.386  14.692  11.695
80877W        W53137   6.773  30.318  13.347
80878W        W53138  40.645  24.188  13.317
80879W        W53139   5.422  36.792  11.051
80880W        W53140  38.193  18.513  14.845
80881W        W53141  19.345  31.947   1.441
80882W        W53142  20.259  24.420   2.914
80883W        W53143  29.980  29.921  12.521
80884W        W53144  16.717  40.248  14.475
80885W        W53145  44.220  44.457  13.653
80886W        W53146  16.325   3.993  12.207
80887W        W53147  39.620  23.165   1.867
80888W        W53148  11.380  38.732   0.234
80889W        W53149  24.604  30.607  14.902
80890W        W53150   2.148   1.329   1.971
80891W        W53151  41.810  28.606   0.464
80892W        W53152  25.101  38.740   1.196
80893W        W53153  24.060  11.657  13.846
80894W        W53154  42.468  29.109  12.487
80895W        W53155  17.212  44.264   4.777
80896W        W53156  10.725   1.920   3.617
80897W        W53157  18.680  29.218   1.818
80898W        W53158  21.913  22.844  14.578
80899W        W53159  27.971  35.457  12.870
80900W        W53160   3.031  42.417   4.743
80901W        W53161  23.816  27.013   4.178
80902W        W53162  32.418   5.430   4.103
80903W        W53163  18.235  27.052   0.825
80904W        W53164  10.293  41.246   3.253
80905W        W53165  26.552  34.409  14.527
80906W        W53166   9.760  29.766  11.659
80907W        W53167   7.263   0.513  11.173
80908W        W53168  33.341  36.935   1.002
80909W        W53169  26.490  26.171  13.283
80910W        W53170   4.494  34.392  11.912
80911W        W53171   1.717  12.216   2.795
80912W        W53172   7.788   5.131  10.819
80913W        W53173   7.310  43.261   1.360
80914W        W53174  40.854   8.787   0.227
80915W        W53175  13.373   7.213  11.139
80916W        W53176   9.688  38.848   2.917
80917W        W53177  36.834  20.007  12.809
80918W        W53178  11.152  26.565  12.720
80919W        W53179  25.432  38.376  13.566
80920W        W53180  20.809   8.473   1.329
80921W        W53181  43.577  27.149   3.310
80922W        W53182  23.652  10.844  10.667
80923W        W53183  41.051  14.052   0.837
80924W        W53184   0.158  26.141   1.582
80925W        W53185  44.034  37.611   2.401
80926W        W53186   5.452   3.267  12.977
80927W        W53187  19.758   3.353  14.411
80928W        W53188  31.168  17.643  13.444
80929W        W53189  43.372  11.672  10.941
80930W        W53190  19.598  13.714   1.827
80931W        W53191   3.942  44.111  14.078
80932W        W53192  13.037   2.282  12.491
80933W        W53193  37.068  43.866  14.468
80934W        W53194   7.152  21.683   3.254
80935W        W53195  14.899  29.712   5.480
80936W        W53196  18.909  43.960  11.486
80937W        W53197   5.467  20.443  13.756
80938W        W53198   4.303  44.227   4.409
80939W        W53199  26.905  30.903  11.101
80940W        W53200  44.672   8.235   3.742
80941W        W53201  10.221  43.361   4.188
80942W        W53202  33.668   2.508   2.810
80943W        W53203  31.049  20.233  13.633
80944W        W53204  38.856  42.475   0.771
80945W        W53205  24.928  30.246   4.197
80946W        W53206   7.759  34.839   0.421
80947W        W53207   3.760  31.039   1.446
80948W        W53208   8.708  41.221   4.750
80949W        W53209  37.533  28.042  14.915
80950W        W53210  15.204   7.112  14.294
80951W        W53211  33.103   2.713  14.139
80952W        W53212  12.491  24.987  13.205
80953W        W53213   7.235   9.188   4.624
80954W        W53214  38.490  14.638  12.332
80955W        W53215  28.515  12.585   1.611
80956W        W53216  37.771  23.299  14.870
80957W        W53217  33.955  16.693  11.025
80958W        W53218   1.528  40.337  11.666
80959W        W53219   9.705  26.085   3.208
80960W        W53220  12.361  25.673  13.510
80961W        W53221  29.679  24.016  14.472
80962W        W53222   5.828  21.489  11.103
80963W        W53223  22.220  26.488   4.892
80964W        W53224  18.578  14.310  14.596
80965W        W53225  23.220  44.389  11.853
80966W        W53226   9.772  36.871   1.483
80967W        W53227  33.544  22.611   3.966
80968W        W53228   5.528  27.537  12.801
80969W        W53229  23.996  24.893  14.829
80970W        W53230  36.615   7.780   1.196
80971W        W53231   5.423  41.027   0.917
80972W        W53232  29.439  13.756  12.966
80973W        W53233  35.548  14.233  14.231
80974W        W53234  13.156  12.131   1.639
80975W        W53235   1.867  24.703  12.967
80976W        W53236   2.678   1.350   3.757
80977W        W53237  15.297  23.091   1.494
80978W        W53238  40.591  36.034   1.844
80979W        W53239  39.102   0.746  12.557
80980W        W53240   1.532   8.710  11.463
80981W        W53241   6.668  29.738   1.388
80982W        W53242  27.161  38.048   3.342
80983W        W53243  43.344   3.618   4.210
80984W        W53244  13.009   3.948   2.629
80985W        W53245  42.358  23.561   1.751
80986W        W53246  30.161  14.625  11.451
80987W        W53247  17.699  33.692  14.269
80988W        W53248  43.977   3.847  13.015
80989W        W53249  30.478  14.128  12.964
80990W        W53250  11.626   4.981  14.404
80991W        W53251  30.179  28.782  12.793
80992W        W53252  22.564   3.296   3.705
80993W        W53253  31.131  10.895  12.519
80994W        W53254   1.252  19.805  10.698
80995W        W53255  17.617  20.521  11.189
80996W        W53256   1.845   1.029  11.727
80997W        W53257  19.135  29.926   3.617
80998W        W53258  38.990  23.822   1.734
80999W        W53259   1.579  42.767  14.926
81000W        W53260  34.340  17.606   1.344
81001W        W53261   8.375  21.025   2.450
81002W        W53262   0.532  43.421   3.696
81003W        W53263  23.227   0.249  11.822
81004W        W53264   0.514  43.837   1.363
81005W        W53265  21.636   1.830  14.196
81006W        W53266  36.567  40.912  11.010
81007W        W53267  36.636  12.278   2.267
81008W        W53268  29.900   5.871  14.814
81009W        W53269  16.739  22.313  13.379
81010W        W53270  27.386  32.118   4.180
81011W        W53271  17.810  30.725  11.231
81012W        W53272  41.460  24.215   3.181
81013W        W53273  10.141  24.287  13.621
81014W        W53274  40.774   6.817  12.041
81015W        W53275   6.513  44.032   4.146
81016W        W53276  29.911  28.388   1.843
81017W        W53277  25.769   9.351  13.568
81018W        W53278  13.658  44.024   4.104
81019W        W53279   4.868  10.560  12.964
81020W        W53280  17.175  27.113   2.880
81021W        W53281  13.187   9.230  12.467
81022W        W53282  24.157  31.088   2.234
81023W        W53283   3.286   5.991  14.967
81024W        W53284  29.445  24.123  11.580
81025W        W53285  19.052  35.600   3.215
81026W        W53286  15.369  20.855  11.633
81027W        W53287  31.222  27.456  13.386
81028W        W53288  21.349  18.655   3.866
81029W        W53289  27.940  21.150  13.611
81030W        W53290   3.463  18.731   1.884
81031W        W53291   5.757  29.886   1.680
81032W        W53292   9.904   3.007  13.532
81033W        W53293  33.065  37.211   2.638
81034W        W53294  12.789  43.987   0.710
81035W        W53295  24.701  34.036   0.975
81036W        W53296  21.132   4.082  11.639
81037W        W53297   6.367  31.927   3.667
81038W        W53298  41.772  22.666   4.631
81039W        W53299   9.649  13.137  12.858
81040W        W53300  25.659   5.726   3.722
81041W        W53301   0.447   8.810  10.688
81042W        W53302  12.806   4.270   2.275
81043W        W53303  21.742  30.850   4.561
81044W        W53304   9.890  24.390   0.912
81045W        W53305   4.566   0.838   2.783
81046W        W53306  41.779  27.639   0.027
81047W        W53307   8.649   6.924   3.468
81048W        W53308   7.298  14.639   2.437
81049W        W53309   0.757   7.199  11.952
81050W        W53310   2.781  42.459  13.258
81051W        W53311  38.844  17.324   0.623
81052W        W53312  37.102  18.203  12.729
81053W        W53313  21.950  25.251  12.115
81054W        W53314  10.127  38.739   3.654
81055W        W53315  26.852   1.741   0.254
81056W        W53316   9.155  41.380  14.452
81057W        W53317   3.121  13.169   3.587
81058W        W53318  34.934  26.012   0.680
81059W        W53319  18.675  14.755   3.594
81060W        W53320   5.094  29.992   3.805
81061W        W53321  14.079  20.311   0.334
81062W        W53322   2.717  33.649  12.961
81063W        W53323   7.648  44.990  14.803
81064W        W53324  31.665  23.959   3.031
81065W        W53325   6.369  44.618   0.542
81066W        W53326  32.444  23.180   3.356
81067W        W53327  31.114  35.931  14.234
81068W        W53328  39.790  27.464   3.079
81069W        W53329  29.994  29.387   4.627
81070W        W53330   7.440   1.618   0.163
81071W        W53331  17.786  41.325   0.958
81072W        W53332  19.535   4.496   0.819
81073W        W53333  40.821  33.427  14.226
81074W        W53334  43.752  34.624   0.108
81075W        W53335  28.334  24.674  12.375
81076W        W53336  42.959  19.207   1.349
81077W        W53337  36.548   9.459   4.705
81078W        W53338  25.185  13.634   2.768
81079W        W53339   0.451  36.318   2.818
81080W        W53340  23.594   6.729   1.971
81081W        W53341  35.017  30.188  14.372
81082W        W53342   3.953   5.480   2.745
81083W        W53343  38.353  36.911  12.806
81084W        W53344  26.495  29.059  13.306
81085W        W53345  34.525  39.275  12.267
81086W        W53346  44.923  11.365  10.557
81087W        W53347  12.815  44.086   3.423
81088W        W53348  22.710  11.285   1.461
81089W        W53349   8.897   6.388  14.331
81090W        W53350  16.759  32.966  11.987
81091W        W53351   2.458  35.657  13.873
81092W        W53352  22.541  15.600  13.950
81093W        W53353  15.768  23.311  13.669
81094W        W53354   6.539  19.478  11.122
81095W        W53355  30.949   7.688  13.955
81096W        W53356  41.780  43.092  12.039
81097W        W53357  31.042  38.550  12.132
81098W        W53358  23.522  29.367   3.623
81099W        W53359  24.020  25.581   2.267
81100W        W53360  36.155  36.149  12.342
81101W        W53361  32.403  33.190   2.382
81102W        W53362  30.024  15.855   0.521
81103W        W53363  33.920  44.083   2.919
81104W        W53364  18.645   6.155  14.427
81105W        W53365  35.895  38.774   2.834
81106W        W53366  41.006  13.132  14.262
81107W        W53367  23.768  28.003   5.026
81108W        W53368   1.381  38.569   3.301
81109W        W53369  26.214  44.913  11.208
81110W        W53370  40.390  15.529   3.639
81111W        W53371  27.988  25.082   3.109
81112W        W53372  39.570   1.725   0.816
81113W        W53373   8.742  21.704   3.451
81114W        W53374   9.722  11.596  14.350
81115W        W53375  27.392  36.888  12.574
81116W        W53376  21.217  21.228   1.825
81117W        W53377  33.150   5.245  12.057
81118W        W53378  40.297  11.200  12.946
81119W        W53379   3.400   3.830   3.090
81120W        W53380  42.839  19.400  14.874
81121W        W53381  30.526  44.678   0.501
81122W        W53382  26.958  35.098  12.508
81123W        W53383  13.232  29.323  12.617
81124W        W53384  26.753  39.992  11.165
81125W        W53385  35.697  31.704   4.316
81126W        W53386  44.761  13.545   3.334
81127W        W53387   5.415  15.331  14.518
81128W        W53388  16.576  22.516  10.680
81129W        W53389  20.840  43.353   2.362
81130W        W53390  18.044  41.750  11.017
81131W        W53391   0.434  17.134   4.955
81132W        W53392  44.037  25.657   0.216
81133W        W53393  42.344  31.675   4.598
81134W        W53394  11.210  22.292   0.777
81135W        W53395   6.272  15.946  13.535
81136W        W53396   0.888   1.408   4.325
81137W        W53397  14.132  17.780  10.934
81138W        W53398  29.869  10.745  14.507
81139W        W53399   1.417  38.072   3.115
81140W        W53400  25.985  44.458   0.846
81141W        W53401  35.906  42.074  10.919
81142W        W53402  11.282   0.914  11.845
81143W        W53403  27.541  42.825   1.934
81144W        W53404  19.077   4.217   2.759
81145W        W53405  16.716  33.175  10.493
81146W        W53406  33.870  31.562  13.843
81147W        W53407  20.321  14.265  14.841
81148W        W53408   3.258  15.854  10.987
81149W        W53409  39.953   7.697  14.372
81150W        W53410  44.468  33.194   1.376
81151W        W53411  27.981  27.033   3.933
81152W        W53412   3.551  36.529  10.764
81153W        W53413  25.445  13.430   1.206
81154W        W53414  17.700  37.424  12.327
81155W        W53415  15.817  31.145   4.556
81156W        W53416  16.693  39.793  13.768
81157W        W53417   3.047  18.609   3.776
81158W        W53418  40.102  31.630  11.566
81159W        W53419  34.942  14.877   4.885
81160W        W53420  29.516  35.839   2.068
81161W        W53421  16.767  37.936   0.792
81162W        W53422  41.184  27.616  10.750
81163W        W53423  18.147  35.588   4.626
81164W        W53424  44.234  30.574   2.160
81165W        W53425  18.888   7.701   1.895
81166W        W53426   5.184  19.107  12.905
81167W        W53427  31.652  20.008   3.313
81168W        W53428  21.074  20.531   4.644
81169W        W53429  23.748  38.239   2.559
81170W        W53430   6.341  31.225  11.114
81171W        W53431   9.253  19.752  14.471
81172W        W53432  44.896  40.261   2.808
81173W        W53433  38.960  22.470   3.290
81174W        W53434  24.177  23.521  14.290
81175W        W53435  19.097  44.504  12.048
81176W        W53436   9.617  29.044  13.402
81177W        W53437  40.382   8.645   2.843
81178W        W53438  10.552  37.872   1.687
81179W        W53439  30.504  30.011  10.182
81180W        W53440  37.695  16.579  11.595
81181W        W53441  36.058  24.982   3.955
81182W        W53442  43.823  33.112  11.434
81183W        W53443  14.823  40.112  11.502
81184W        W53444  36.913  18.382   0.892
81185W        W53445  43.429   1.390   4.533
81186W        W53446  29.118   7.104  11.032
81187W        W53447  35.028  29.000  14.970
81188W        W53448   3.949  12.888  11.172
81189W        W53449  36.064  23.956   1.813
81190W        W53450   7.415  29.561   2.813
81191W        W53451  13.001   2.054  10.514
81192W        W53452  28.245  33.182  14.420
81193W        W53453  38.441  32.625   4.573
81194W        W53454  33.636  26.728  12.481
81195W        W53455  41.607   7.863   2.128
81196W        W53456   1.430  10.683   2.358
81197W        W53457   8.784  34.400   2.312
81198W        W53458  38.768  28.907   3.603
81199W        W53459  26.560  12.291  10.692
81200W        W53460  26.568  10.327  12.231
81201W        W53461  17.862  21.596  11.834
81202W        W53462  21.631  18.774  12.964
81203W        W53463  26.039  33.324  12.043
81204W        W53464  11.089  11.267   3.285
81205W        W53465  33.625  40.992  11.406
81206W        W53466  35.949  11.704   3.276
81207W        W53467  13.697  16.296  14.780
81208W        W53468  13.748   5.651   4.710
81209W        W53469  44.474  27.196   3.878
81210W        W53470  39.520  13.181  14.764
81211W        W53471  26.488   4.286   0.517
81212W        W53472  16.600  24.606   0.368
81213W        W53473  43.309  33.223   3.111
81214W        W53474  37.878  25.951   4.220
81215W        W53475  40.995   8.299   0.562
81216W        W53476   2.265  18.152   2.858
81217W        W53477  25.119   7.202  14.994
81218W        W53478  37.051  39.059  12.893
81219W        W53479  25.730   6.262  11.847
81220W        W53480  25.222  10.345   3.295
81221W        W53481   1.815  31.717  10.627
81222W        W53482  15.404  38.768   3.217
81223W        W53483   0.572  26.646  10.423
81224W        W53484  13.240  29.901  10.728
81225W        W53485  42.801   5.712   1.751
81226W        W53486  15.066  36.928   4.641
81227W        W53487  40.742  32.904  12.334
81228W        W53488  33.472  13.766  13.499
81229W        W53489   5.753  19.221  11.420
81230W        W53490   3.608   4.716   2.360
81231W        W53491  33.246  15.030   3.857
81232W        W53492   2.453  15.085   2.186
81233W        W53493   3.956  37.215   3.912
81234W        W53494  28.407  19.951  14.964
81235W        W53495  32.472  18.158   0.877
81236W        W53496  27.950  30.659  11.583
81237W        W53497  12.268  15.108  10.366
81238W        W53498  21.681  31.416   3.355
81239W        W53499  11.080  41.123  10.639
81240W        W53500  26.121   1.253   0.336
81241W        W53501  40.136  40.703  12.080
81242W        W53502  34.451   2.682  14.604
81243W        W53503  13.830  28.646   2.207
81244W        W53504  43.389   7.311  14.883
81245W        W53505  30.067   6.198  13.586
81246W        W53506  24.670  13.348   4.702
81247W        W53507  16.356  33.719  13.989
81248W        W53508  34.047   2.977   1.724
81249W        W53509   7.735  27.206   4.116
81250W        W53510  19.424   5.828  12.344
81251W        W53511  41.874  33.819  13.029
81252W        W53512  17.071  37.688   0.410
81253W        W53513   5.823  33.465  12.448
81254W        W53514  23.558  24.324   0.792
81255W        W53515  10.933   8.813   2.192
81256W        W53516  40.805  15.780   2.356
81257W        W53517  37.551  23.338   3.315
81258W        W53518  39.623  18.625  11.225
81259W        W53519  17.334  24.193   0.802
81260W        W53520  21.069  32.155   4.562
81261W        W53521  34.146  13.293   0.462
81262W        W53522  16.228  25.863  14.451
81263W        W53523  40.753  12.100  13.852
81264W        W53524   9.904  16.303  10.889
81265W        W53525  17.872  33.842  12.323
81266W        W53526  16.537  36.956  13.947
81267W        W53527  41.570  35.314   0.185
81268W        W53528  16.386   4.368   3.611
81269W        W53529   6.784   1.199   3.153
81270W        W53530   2.193   9.831   1.884
81271W        W53531  17.940  37.488   0.329
81272W        W53532  41.689  14.634   2.887
81273W        W53533  20.149  34.693  10.303
81274W        W53534   1.962  32.602  13.559
81275W        W53535  42.314  20.467   4.116
81276W        W53536  23.218  25.968   1.383
81277W        W53537  34.904   6.429   3.751
81278W        W53538   7.917   8.806   4.512
81279W        W53539  37.957  44.093  10.371
81280W        W53540  40.653  10.058   1.901
81281W        W53541   1.490  27.214   1.406
81282W        W53542  33.905  27.215  13.796
81283W        W53543  17.069   1.461  11.667
81284W        W53544   1.343   4.459   2.440
81285W        W53545   9.778  35.938  12.459
81286W        W53546   4.113  41.511   0.878
81287W        W53547  42.927  31.080  13.738
81288W        W53548  32.855   7.909  12.021
81289W        W53549  24.566  29.394   4.590
81290W        W53550  32.957   5.205  13.013
81291W        W53551  11.667  38.790  12.084
81292W        W53552  44.157  38.466   3.055
81293W        W53553  43.912  23.046  12.033
81294W        W53554  35.894   0.779   1.346
81295W        W53555   5.384  32.363   2.401
81296W        W53556   8.769  12.211   1.974
81297W        W53557  27.666   5.199   4.144
81298W        W53558  18.108   9.435  10.883
81299W        W53559  35.483  43.296  12.879
81300W        W53560  27.255   2.859  10.743
81301W        W53561  15.025  19.585   0.293
81302W        W53562  15.088  24.423  14.471
81303W        W53563   7.217   5.448   1.179
81304W        W53564   3.665  19.510   0.397
81305W        W53565  13.432  34.214   0.195
81306W        W53566  25.056   6.745   2.099
81307W        W53567   3.853  29.267   3.812
81308W        W53568  43.415  12.577   1.283
81309W        W53569  32.235   8.019  14.776
81310W        W53570  14.998  43.773  11.797
81311W        W53571  41.735  26.738   3.675
81312W        W53572  30.184  37.017   0.406
81313W        W53573  11.210  36.758   3.170
81314W        W53574  25.920  33.390   2.264
81315W        W53575   7.428  14.122  11.110
81316W        W53576  39.576  23.266  14.459
81317W        W53577  13.227  38.206   2.684
81318W        W53578  20.504  22.324  13.419
81319W        W53579   2.950  15.347   0.197
81320W        W53580  35.486  35.131   0.329
81321W        W53581  36.875  12.264   4.694
81322W        W53582  42.739   2.944   4.697
81323W        W53583  16.900  18.996   0.863
81324W        W53584  21.561  24.175  14.415
81325W        W53585  15.336  15.793   0.739
81326W        W53586   1.327  14.494   5.039
81327W        W53587  32.161  13.501   4.240
81328W        W53588  25.332  39.400  13.031
81329W        W53589  14.983  21.541   1.449
81330W        W53590  21.800  25.944  14.918
81331W        W53591  33.815  23.628   1.407
81332W        W53592  41.331  13.710   2.800
81333W        W53593   8.671  39.832  13.876
81334W        W53594  34.739   0.944  10.948
81335W        W53595  16.101  10.323  10.789
81336W        W53596  29.375   5.733   4.418
81337W        W53597  31.494  17.468   4.107
81338W        W53598   7.944  28.697  10.626
81339W        W53599   1.171  26.180   3.700
81340W        W53600  22.539  22.546   4.601
81341W        W53601  43.879  43.412   2.965
81342W        W53602   7.660  44.840   4.610
81343W        W53603  21.913  28.109   0.487
81344W        W53604  18.549  33.314   0.761
81345W        W53605  18.737  34.143   1.515
81346W        W53606  33.708  43.291  10.638
81347W        W53607  27.946  16.245   4.615
81348W        W53608   7.269  20.494   2.337
81349W        W53609  30.907  38.266  12.559
81350W        W53610  27.180   8.217  11.536
81351W        W53611  21.764   1.303   1.892
81352W        W53612  30.470  40.651   3.856
81353W        W53613  21.809  11.665  13.359
81354W        W53614  30.060  31.012   2.963
81355W        W53615  33.945  10.899  14.264
81356W        W53616  36.942  14.041   0.401
81357W        W53617  13.327  23.058   2.231
81358W        W53618  27.710  43.531  14.602
81359W        W53619   5.765  36.618  14.850
81360W        W53620  26.681  34.174   4.977
81361W        W53621  10.984  39.824  13.691
81362W        W53622  44.927  41.005   4.010
81363W        W53623   6.622  15.122  13.982
81364W        W53624   4.315   4.238   4.576
81365W        W53625   3.077  36.014   4.618
81366W        W53626  32.524   5.735  14.993
81367W        W53627  27.420  10.274  12.069
81368W        W53628   9.222   5.275   1.753
81369W        W53629   2.870  30.440   4.076
81370W        W53630   0.863  44.599   0.916
81371W        W53631  11.578  24.993   3.574
81372W        W53632   3.278  22.617  12.057
81373W        W53633   5.650  21.809  13.828
81374W        W53634  28.433   0.389   2.510
81375W        W53635  43.798   5.203   4.592
81376W        W53636  37.849   0.122   4.610
81377W        W53637  15.812   7.974   4.214
81378W        W53638  14.648  31.163  14.874
81379W        W53639  15.189  13.642   5.058
81380W        W53640   9.876  36.061   0.820
81381W        W53641  31.174  25.639   4.933
81382W        W53642  25.123  13.686  10.667
81383W        W53643  35.506   0.343  13.277
81384W        W53644  36.834   0.902   0.331
81385W        W53645  18.744  16.629  13.966
81386W        W53646  20.967  27.889  11.184
81387W        W53647  12.897  34.572  12.904
81388W        W53648  39.484  38.073   0.849
81389W        W53649  15.403  27.243  11.080
81390W        W53650  44.778   8.641  12.185
81391W        W53651  14.299  41.988   2.787
81392W        W53652   4.297   0.427   3.861
81393W        W53653  18.087  42.905  11.649
81394W        W53654  32.918  16.663  13.976
81395W        W53655  10.133  25.385   4.028
81396W        W53656   6.430   4.464   1.034
81397W        W53657   3.898  21.809   4.304
81398W        W53658  18.585  13.321  14.718
81399W        W53659  26.464  34.552  10.632
81400W        W53660   5.846  26.635  12.328
81401W        W53661  26.615  39.837   3.649
81402W        W53662  38.790  38.385  14.033
81403W        W53663  20.911  22.663  13.409
81404W        W53664  32.178   8.736   0.712
81405W        W53665   1.349  10.170   0.534
81406W        W53666  26.146  12.728   4.439
81407W        W53667  15.452  17.362  11.077
81408W        W53668  39.430  39.263   1.281
81409W        W53669  28.660  26.107  13.414
81410W        W53670  40.765   5.357  10.950
81411W        W53671   6.545   1.975   3.307
81412W        W53672  44.312  24.561   4.790
81413W        W53673   7.143  32.848  11.509
81414W        W53674  20.648  25.721  14.644
81415W        W53675   4.081  33.850  12.860
81416W        W53676  14.270  18.360   4.833
81417W        W53677  37.904   0.337   1.783
81418W        W53678   1.074  38.809   4.504
81419W        W53679  40.400  29.718  10.531
81420W        W53680  35.616  27.558   4.543
81421W        W53681  31.665   2.749   2.385
81422W        W53682  39.510  31.526   2.817
81423W        W53683  33.142  17.793   2.260
81424W        W53684  25.672  41.603   3.716
81425W        W53685  27.014  25.247   4.927
81426W        W53686  40.931  41.577   2.694
81427W        W53687  11.746  24.239  11.198
81428W        W53688  16.879   8.088   2.610
81429W        W53689  10.554  17.714  12.979
81430W        W53690  12.757   5.803   3.898
81431W        W53691   1.718   7.820   4.093
81432W        W53692  20.628   1.801   1.439
81433W        W53693  43.664  20.462  11.124
81434W        W53694  20.636  37.288  14.995
81435W        W53695  19.581  30.997   2.404
81436W        W53696   7.810   8.295  11.264
81437W        W53697  37.092  42.405  14.351
81438W        W53698   3.025  34.780  12.153
81439W        W53699  13.771  12.880  14.827
81440W        W53700  31.348  41.384   0.899
81441W        W53701  25.775  25.744   0.359
81442W        W53702   8.816  21.778  12.816
81443W        W53703  24.405  30.022  11.034
81444W        W53704   2.894  13.545   4.359
81445W        W53705  36.274   3.915   0.323
81446W        W53706  16.565  20.755   1.697
81447W        W53707  39.949   8.111  11.475
81448W        W53708  41.368   2.964   2.321
81449W        W53709  11.637  39.770   3.899
81450W        W53710  22.051  37.890  12.516
81451W        W53711  23.478  31.733   3.215
81452W        W53712  30.650  20.756  11.110
81453W        W53713  21.987  21.411  14.347
81454W        W53714  15.339  14.501   1.400
81455W        W53715  11.960  42.352  13.053
81456W        W53716  41.084  13.872   3.756
81457W        W53717  32.513  25.528   2.518
81458W        W53718  37.527  34.897  12.592
81459W        W53719  35.596  35.417   1.694
81460W        W53720  12.075  38.492  11.974
81461W        W53721  13.082  17.230  11.574
81462W        W53722  11.180  23.827   0.738
81463W        W53723  29.618  44.232  11.433
81464W        W53724   0.770  41.893   0.387
81465W        W53725  22.990  29.604  12.883
81466W        W53726  25.613  36.447   3.630
81467W        W53727  18.989  16.372  11.667
81468W        W53728  39.026  11.023  12.043
81469W        W53729  44.495   0.258   4.549
81470W        W53730  15.315  34.637   1.368
81471W        W53731  30.941  20.788  13.877
81472W        W53732   4.964  31.700  11.499
81473W        W53733  42.722  34.349   4.537
81474W        W53734  40.019  11.073   1.002
81475W        W53735  44.845  33.781   4.108
81476W        W53736  25.756  43.223   3.369
81477W        W53737   2.453  15.839   4.387
81478W        W53738  28.741  10.734  10.389
81479W        W53739  28.890  42.391   1.231
81480W        W53740   8.166   9.322   0.459
81481W        W53741  43.311  11.860  13.369
81482W        W53742  15.718  11.232  14.564
81483W        W53743  43.291  14.097  13.480
81484W        W53744  14.301  10.922   0.286
81485W        W53745  43.784  17.780  11.986
81486W        W53746   9.754  38.033  11.455
81487W        W53747  10.638  22.282   3.284
81488W        W53748  27.443  40.566   3.753
81489W        W53749  15.591   6.350   2.924
81490W        W53750  30.560  28.367   2.292
81491W        W53751  16.080  15.161   3.518
81492W        W53752  35.833  13.251  11.949
81493W        W53753  13.320  41.677  14.970
81494W        W53754  30.635  40.355   0.816
81495W        W53755   7.144   5.301   4.073
81496W        W53756   0.941  39.112   0.414
81497W        W53757  14.660  37.440   4.116
81498W        W53758  32.746  25.015   4.080
81499W        W53759  40.672  14.260  14.009
81500W        W53760  16.582  35.930   4.118
81501W        W53761   3.396   9.406   1.871
81502W        W53762  35.113  33.944   1.531
81503W        W53763  23.731  42.459   1.342
81504W        W53764  39.942   8.839   2.694
81505W        W53765  20.673  41.337  13.089
81506W        W53766  29.683  27.140   2.101
81507W        W53767  34.081  24.895   2.174
81508W        W53768  10.080   1.040  11.158
81509W        W53769   7.764  25.887   4.069
81510W        W53770  21.511   3.612   3.761
81511W        W53771  14.708  12.691   1.465
81512W        W53772  33.572  42.100  13.852
81513W        W53773   6.696  27.040   3.407
81514W        W53774   1.679  36.034   4.086
81515W        W53775  15.113  39.466  13.551
81516W        W53776   4.803   1.465  10.147
81517W        W53777  27.759   4.368   2.847
81518W        W53778  21.231   0.259   1.316
81519W        W53779  30.612  26.974  10.549
81520W        W53780   5.274  15.014   3.398
81521W        W53781  19.073  16.764   0.837
81522W        W53782  27.507  30.013   1.038
81523W        W53783  22.925   0.421   1.707
81524W        W53784  40.264   7.629   2.963
81525W        W53785  28.591  20.057   2.693
81526W        W53786  18.547  38.362   3.348
81527W        W53787  19.745  16.040  14.426
81528W        W53788   2.910  19.186  12.256
81529W        W53789  23.120  16.029  12.960
81530W        W53790  35.037   8.678   4.264
81531W        W53791  44.332  17.494  10.580
81532W        W53792   2.272  12.684  13.844
81533W        W53793  36.036  40.407  12.506
81534W        W53794   3.942  14.209  11.280
81535W        W53795  13.196   8.289   1.037
81536W        W53796  43.304  16.175  14.436
81537W        W53797  17.735  29.888   3.324
81538W        W53798  38.910  31.807  10.664
81539W        W53799  23.765  22.714  12.055
81540W        W53800  19.825  27.163   3.668
81541W        W53801  22.648  44.710   3.607
81542W        W53802  18.105  41.360   3.264
81543W        W53803   9.237  11.292  10.575
81544W        W53804   5.148  11.641  11.560
81545W        W53805  44.911  36.712   3.115
81546W        W53806  42.902  23.360   3.709
81547W        W53807  33.788  26.235   2.169
81548W        W53808  24.009   5.135  11.733
81549W        W53809  11.317  30.479   2.380
81550W        W53810  28.044  11.361  13.816
81551W        W53811  24.484   2.952   4.228
81552W        W53812  11.918  41.137   1.773
81553W        W53813   1.242  23.304  14.492
81554W        W53814   6.369  40.816   2.187
81555W        W53815  13.883  11.129   2.285
81556W        W53816  33.581   2.445   0.523
81557W        W53817  31.027  18.815   2.719
81558W        W53818  14.844  40.939   1.820
81559W        W53819  14.656  19.947   0.320
81560W        W53820  13.723  32.600  10.714
81561W        W53821  38.364  33.428  11.542
81562W        W53822  12.328  39.802  11.570
81563W        W53823  39.234  29.735  13.893
81564W        W53824  41.412  29.398  12.431
81565W        W53825  22.674  14.174  14.827
81566W        W53826  14.566   1.286  10.734
81567W        W53827  24.761   7.057  11.824
81568W        W53828  37.545  15.168   1.904
81569W        W53829  16.292  20.831  14.084
81570W        W53830  27.727   7.205   1.767
81571W        W53831  36.904  35.074   0.878
81572W        W53832   3.463  41.838  14.803
81573W        W53833  30.346  18.730  12.842
81574W        W53834  31.854   2.788   0.932
81575W        W53835  27.507  37.053  11.251
81576W        W53836  24.958   9.991   4.930
81577W        W53837  40.617  22.254   0.659
81578W        W53838  33.793  24.888   2.883
81579W        W53839  25.579  15.784  13.847
81580W        W53840  17.012  40.647  14.330
81581W        W53841  44.867   0.239   2.308
81582W        W53842  17.994  18.902   2.595
81583W        W53843  43.353  26.759   0.493
81584W        W53844  17.651   4.156   1.248
81585W        W53845   1.774  34.400   1.396
81586W        W53846  13.342  26.088  13.428
81587W        W53847  25.442  13.669   0.432
81588W        W53848   0.458  33.643  13.489
81589W        W53849  30.347  22.921  11.110
81590W        W53850  44.256  29.202   4.129
81591W        W53851  27.672  19.366  13.854
81592W        W53852   9.266  28.223  14.983
81593W        W53853  11.173  31.201   0.241
81594W        W53854  39.082  42.260   1.234
81595W        W53855   3.257  26.186  15.000
81596W        W53856  10.806  38.004   2.690
81597W        W53857  20.583  15.138  13.927
81598W        W53858  10.721  40.054   1.248
81599W        W53859  29.114  29.088   3.206
81600W        W53860   3.213  20.200   0.861
81601W        W53861  17.156   3.397  10.655
81602W        W53862  38.289  19.828  11.069
81603W        W53863  42.737  42.266  11.544
81604W        W53864   7.710  19.245   0.129
81605W        W53865  15.851  27.802   0.370
81606W        W53866   9.719   6.489   0.032
81607W        W53867  18.743  38.690   0.901
81608W        W53868  18.388   9.848   2.860
81609W        W53869   9.112  43.277   3.283
81610W        W53870  42.329   8.342  10.645
81611W        W53871  33.571  41.806  13.415
81612W        W53872  13.448   7.338  12.914
81613W        W53873  30.424  18.975   0.690
81614W        W53874  35.072  40.331  11.490
81615W        W53875  12.731  38.828   0.287
81616W        W53876  21.081  29.202   3.226
81617W        W53877  25.549  30.567  11.587
81618W        W53878  13.311   9.123  14.452
81619W        W53879  17.699   6.580  14.443
81620W        W53880  28.239   3.824   0.720
81621W        W53881  35.640   3.987  10.755
81622W        W53882  34.547  21.593   4.028
81623W        W53883  35.654  44.765  10.710
81624W        W53884  11.245   9.599   2.382
81625W        W53885  22.606  24.799  10.177
81626W        W53886  33.189  33.619   2.378
81627W        W53887  28.556  11.584   0.557
81628W        W53888  19.246  39.464  14.748
81629W        W53889  31.098  39.595   0.212
81630W        W53890  26.907  33.553  10.672
81631W        W53891  24.059  15.044  11.151
81632W        W53892  29.162   6.380   4.426
81633W        W53893  12.095  40.789   4.055
81634W        W53894   8.697  24.465   4.713
81635W        W53895   5.186   7.727   2.501
81636W        W53896  38.757  27.583  11.980
81637W        W53897  42.315  44.978   2.744
81638W        W53898   7.392  20.328  11.122
81639W        W53899  22.117  44.993  12.331
81640W        W53900  43.098  23.922  14.235
81641W        W53901   7.067   0.321   3.278
81642W        W53902  10.120  26.541   0.760
81643W        W53903  30.132  19.786  10.934
81644W        W53904  33.627  40.334  12.464
81645W        W53905  20.647  18.663  10.860
81646W        W53906  37.309  36.032   3.292
81647W        W53907  34.799   7.512   0.377
81648W        W53908  13.723  35.019   4.953
81649W        W53909  33.047   2.944  12.928
81650W        W53910   9.426   0.690  12.596
81651W        W53911   5.887  11.190   4.692
81652W        W53912   6.354  16.117  10.447
81653W        W53913  17.809  20.669   2.796
81654W        W53914   3.504  28.425  11.015
81655W        W53915  30.372  32.677   5.535
81656W        W53916   6.737  34.412   2.382
81657W        W53917  42.035  39.495  13.931
81658W        W53918  17.836  23.246   4.865
81659W        W53919  28.677  17.385  11.154
81660W        W53920  31.748  28.741   2.257
81661W        W53921  19.063  42.893  12.118
81662W        W53922  43.381   4.329  11.123
81663W        W53923   6.325  32.577   0.841
81664W        W53924   5.610  20.037  14.964
81665W        W53925  24.324   6.424  12.511
81666W        W53926   2.598   4.139   0.290
81667W        W53927  34.365   7.864   3.684
81668W        W53928  39.514  30.968  10.881
81669W        W53929  10.215  42.992  12.492
81670W        W53930   0.282  36.814  13.033
81671W        W53931   4.060  19.567   2.305
81672W        W53932  36.526  18.158   4.975
81673W        W53933  35.050  26.598   2.598
81674W        W53934  41.774  17.472  10.162
81675W        W53935  38.401  43.804   0.737
81676W        W53936  28.921  35.504   0.818
81677W        W53937  32.445  21.067   3.765
81678W        W53938  30.080   4.336   0.016
81679W        W53939  39.287  26.866  10.782
81680W        W53940  14.773  10.886   1.693
81681W        W53941  27.914  18.104  14.096
81682W        W53942  24.979  36.552  12.890
81683W        W53943   5.939  20.271   1.350
81684W        W53944  42.921  13.192   2.397
81685W        W53945  37.549  16.783   1.743
81686W        W53946  14.713  21.709  11.148
81687W        W53947  21.017  29.882   2.139
81688W        W53948  43.288  29.969   0.973
81689W        W53949  27.523  31.672  12.944
81690W        W53950  26.054  27.948   1.659
81691W        W53951   9.775  26.296  13.708
81692W        W53952   9.384  21.365  13.455
81693W        W53953  23.597  20.227   3.665
81694W        W53954  14.544  36.305   3.200
81695W        W53955  31.958  16.316   1.693
81696W        W53956  17.042  38.229   1.134
81697W        W53957  14.813  15.175  12.486
81698W        W53958  42.316  20.886   2.349
81699W        W53959  42.699  31.563  10.300
81700W        W53960  33.166   9.701  13.915
81701W        W53961  18.169  28.010  12.921
81702W        W53962  25.228  25.717  11.152
81703W        W53963  12.251  17.878  14.301
81704W        W53964  34.581   3.883   1.306
81705W        W53965  33.168  17.817   0.521
81706W        W53966  31.441  36.630  11.010
81707W        W53967  18.118  29.292   0.068
81708W        W53968   0.167  36.092   4.096
81709W        W53969  35.574  27.482  14.846
81710W        W53970  36.874   2.151  14.678
81711W        W53971  24.045  25.387   1.396
81712W        W53972  34.862   0.441  12.050
81713W        W53973  23.634  44.761  11.164
81714W        W53974   1.846  24.837  10.564
81715W        W53975  29.967   3.340   4.965
81716W        W53976  34.284   7.620  11.975
81717W        W53977  20.888  19.210  12.499
81718W        W53978  34.707  44.389  10.550
81719W        W53979  28.665  41.450  14.896
81720W        W53980  32.352  22.516  13.344
81721W        W53981   2.223  10.724  14.470
81722W        W53982  37.094  35.382  13.586
81723W        W53983  32.328  34.347  12.130
81724W        W53984   9.203  20.947   4.658
81725W        W53985  42.762   5.989   2.692
81726W        W53986  12.372  36.126  13.754
81727W        W53987  28.064   6.232  10.532
81728W        W53988  12.539   3.290  13.875
81729W        W53989   9.666  23.726   0.468
81730W        W53990  21.544  40.795   2.771
81731W        W53991  37.238   7.189  11.990
81732W        W53992  15.804  20.518   0.846
81733W        W53993  42.349  14.832  14.007
81734W        W53994  23.795  35.888   5.138
81735W        W53995   3.194  44.256  13.595
81736W        W53996  16.699  19.324   4.584
81737W        W53997  39.495  32.781   4.131
81738W        W53998  17.666  25.319   3.110
81739W        W53999  34.978   6.893  12.953
81740W        W54000   8.721   9.150  12.232
81741W        W54001  14.172  31.400   3.026
81742W        W54002  32.421  33.561   0.827
81743W        W54003  28.891  30.343   0.970
81744W        W54004  24.599  44.497   4.111
81745W        W54005  18.635  34.349  14.838
81746W        W54006   3.244   6.346  10.554
81747W        W54007  24.139  28.829  12.443
81748W        W54008   8.428  23.608   3.513
81749W        W54009  43.734  31.728   3.725
81750W        W54010  23.122  12.351   3.671
81751W        W54011  23.697  40.827   3.734
81752W        W54012   4.462   8.904   0.294
81753W        W54013  19.637  17.806  10.703
81754W        W54014  25.658  34.413  13.809
81755W        W54015  12.025  44.838   4.256
81756W        W54016  42.851  26.248  14.824
81757W        W54017   3.798  35.547  11.584
81758W        W54018   7.228  17.585  10.746
81759W        W54019  39.064  19.548  13.361
81760W        W54020  17.144   8.012  10.731
81761W        W54021  22.135  28.513  13.830
81762W        W54022  35.073  31.567   4.951
81763W        W54023  19.617   6.715   1.200
81764W        W54024  30.894  11.723  11.733
81765W        W54025  26.024  44.549  12.937
81766W        W54026  23.808  32.121   4.039
81767W        W54027  10.890  29.618  12.841
81768W        W54028  29.672  25.508   1.357
81769W        W54029  26.016  13.351  14.084
81770W        W54030  29.569  13.560   0.675
81771W        W54031  29.539  23.933   1.005
81772W        W54032   9.849  13.877   2.636
81773W        W54033   1.728  25.970   0.955
81774W        W54034  35.354  37.542  11.547
81775W        W54035  22.155  33.044   2.648
81776W        W54036  10.652  22.509  10.143
81777W        W54037  15.821  22.676   4.714
81778W        W54038  20.496  16.714   0.706
81779W        W54039   6.881  39.478  13.616
81780W        W54040  30.013  27.435  12.039
81781W        W54041  11.637  12.307   1.914
81782W        W54042  28.696  34.065   4.076
81783W        W54043  16.001  42.607   3.957
81784W        W54044  25.000  11.332   0.218
81785W        W54045  25.670  43.682  11.884
81786W        W54046  13.308   7.848   0.290
81787W        W54047  35.671  17.777  13.445
81788W        W54048   2.508  22.631  12.889
81789W        W54049   7.265  36.314   3.245
81790W        W54050  19.336   6.524   0.759
81791W        W54051  11.344  25.584  10.641
81792W        W54052  22.520  38.006  11.488
81793W        W54053  24.665  31.615   4.315
81794W        W54054  14.945  14.856   1.715
81795W        W54055  28.393  13.847  11.488
81796W        W54056   4.588  12.741   4.073
81797W        W54057  17.068  20.009  11.953
81798W        W54058   6.176  42.345   1.162
81799W        W54059  33.135  13.584   0.434
81800W        W54060  21.816   6.730  12.026
81801W        W54061  44.557   1.046   5.100
81802W        W54062  33.132   5.474   4.895
81803W        W54063   9.331  37.359   0.427
81804W        W54064  13.483  16.746   1.945
81805W        W54065   6.164  16.972  13.511
81806W        W54066   6.886  13.660  12.143
81807W        W54067  26.553  44.468  10.644
81808W        W54068  17.857   2.220   2.351
81809W        W54069  24.201  32.151   3.687
81810W        W54070  30.165  41.897  14.281
81811W        W54071  18.828   6.757  11.891
81812W        W54072  28.959  36.683  13.242
81813W        W54073  12.814  38.366   0.027
81814W        W54074  37.034  11.368   4.910
81815W        W54075  41.023  39.882   4.805
81816W        W54076  10.901   4.855  13.859
81817W        W54077  29.658  36.549  14.780
81818W        W54078  14.895  44.342  13.009
81819W        W54079  10.270  14.102   1.473
81820W        W54080   3.333  33.075  10.830
81821W        W54081   0.282  14.679  12.093
81822W        W54082  44.262  44.418   1.318
81823W        W54083  21.972  42.995   0.223
81824W        W54084  11.250  19.548   4.698
81825W        W54085   4.880  24.845   0.614
81826W        W54086  12.082  25.903  12.083
81827W        W54087   6.238  30.199  12.338
81828W        W54088  29.245  37.842   1.025
81829W        W54089  29.449  27.913   0.985
81830W        W54090  20.987  35.721  13.450
81831W        W54091  39.267   8.586  11.011
81832W        W54092  43.284  33.354  13.466
81833W        W54093   9.427  39.986  14.998
81834W        W54094  31.975  17.293  11.950
81835W        W54095  35.347  40.496   4.066
81836W        W54096  20.543   7.299   1.887
81837W        W54097  44.011  11.257   1.102
81838W        W54098  15.557   3.193  12.483
81839W        W54099  25.553  12.678   0.739
81840W        W54100  33.107  22.684   4.187
81841W        W54101  14.865  25.018   2.817
81842W        W54102  24.168  24.699   3.744
81843W        W54103  39.461  44.404  12.434
81844W        W54104  31.633  16.439   4.835
81845W        W54105  38.039  22.296   4.616
81846W        W54106  15.059  44.963   3.145
81847W        W54107   8.147  36.403   0.912
81848W        W54108  42.016  11.219  13.361
81849W        W54109  13.663  38.025   4.374
81850W        W54110  15.335  21.259   3.646
81851W        W54111  23.293  36.629   4.194
81852W        W54112  12.096  18.752  13.388
81853W        W54113   7.198   2.737   4.137
81854W        W54114  44.491  34.895   4.549
81855W        W54115  38.791  33.090   3.853
81856W        W54116   7.711   6.774  13.634
81857W        W54117   3.870  43.932   4.254
81858W        W54118   3.784   2.896  12.049
81859W        W54119  18.676  31.982   3.359
81860W        W54120  40.816  12.460  11.063
81861W        W54121   5.441   6.464  14.390
81862W        W54122  20.769   3.388  10.638
81863W        W54123   7.434  18.612   1.522
81864W        W54124  37.870  36.880   3.572
81865W        W54125  33.803  37.039   1.853
81866W        W54126  14.247  35.119  10.758
81867W        W54127  13.648  16.337   0.384
81868W        W54128   8.372  22.811  10.738
81869W        W54129  18.546   3.348   2.628
81870W        W54130   4.785   9.086   2.644
81871W        W54131  26.503  23.363   4.568
81872W        W54132  36.907  28.821   3.647
81873W        W54133  39.730  14.184   1.274
81874W        W54134  24.519  38.743  14.798
81875W        W54135  25.278   9.696   2.105
81876W        W54136  34.346  20.350   0.632
81877W        W54137  25.841   0.609  13.911
81878W        W54138  30.139  22.037   0.467
81879W        W54139  22.535   0.763  12.448
81880W        W54140  43.245  21.573   0.224
81881W        W54141   7.473  36.471   3.696
81882W        W54142   3.285  38.704   0.415
81883W        W54143   7.797  35.161   3.600
81884W        W54144   2.948  35.512   3.736
81885W        W54145  36.159  24.636  11.826
81886W        W54146  42.764   2.752   3.789
81887W        W54147  16.010  19.578  14.303
81888W        W54148  42.773   4.741  12.935
81889W        W54149  22.625  31.525  12.016
81890W        W54150  10.798  31.034   2.887
81891W        W54151  32.980  16.888   1.878
81892W        W54152   0.632  12.417  14.875
81893W        W54153  24.509  35.126   2.346
81894W        W54154  16.162   0.173  13.791
81895W        W54155  14.874  43.906   0.809
81896W        W54156  15.514  44.979  13.270
81897W        W54157  17.655  23.948  14.444
81898W        W54158   8.883  37.496   2.909
81899W        W54159  20.689  25.298   4.071
81900W        W54160   1.634  11.012  14.919
81901W        W54161  42.999  12.251  13.513
81902W        W54162  17.014  41.905  14.548
81903W        W54163  19.220   9.045   0.274
81904W        W54164  36.793  34.581   0.718
81905W        W54165  15.333  13.323   3.616
81906W        W54166  13.898  32.169  13.795
81907W        W54167   6.940   4.874  12.578
81908W        W54168  13.200  23.697  11.207
81909W        W54169  39.570  26.695  12.823
81910W        W54170  30.514   2.034   4.768
81911W        W54171  28.058  35.561  10.633
81912W        W54172  40.253  21.344   3.765
81913W        W54173  30.205  22.045  13.098
81914W        W54174  26.122  34.915   0.563
81915W        W54175  36.664   8.134   3.726
81916W        W54176   6.926  19.107  12.640
81917W        W54177  26.907  18.971  14.329
81918W        W54178  17.776  13.225  10.737
81919W        W54179  11.922  32.549  11.221
81920W        W54180  25.667  22.888  12.434
81921W        W54181  40.612  34.814   0.461
81922W        W54182  36.858  44.563  12.806
81923W        W54183  35.175  32.024   5.227
81924W        W54184   7.865  29.181  12.724
81925W        W54185  16.183  38.930   4.548
81926W        W54186  23.650  23.590  14.364
81927W        W54187  37.856  40.515   1.829
81928W        W54188   3.349  32.988   1.500
81929W        W54189   3.975  34.102   4.103
81930W        W54190  29.986  44.609  14.891
81931W        W54191  25.509  41.074   1.449
81932W        W54192  16.609  33.702   4.866
81933W        W54193  27.205  25.121   4.490
81934W        W54194  30.403   4.191   3.230
81935W        W54195  33.721  38.069   4.040
81936W        W54196  42.491  33.358  10.740
81937W        W54197  12.690  13.169  12.099
81938W        W54198  36.430  32.420  11.219
81939W        W54199   1.804  41.719   0.804
81940W        W54200  43.828   9.423   0.319
81941W        W54201  32.605  29.376  11.192
81942W        W54202  36.467  13.332  12.039
81943W        W54203  38.049  17.596  11.112
81944W        W54204  25.093  15.555  13.938
81945W        W54205  44.736   8.093  12.107
81946W        W54206  19.943  29.613   0.625
81947W        W54207  12.262  16.576   2.223
81948W        W54208  23.775  39.750  12.872
81949W        W54209   4.667   1.342   2.890
81950W        W54210   7.199  22.180   3.810
81951W        W54211   9.113  16.543   1.715
81952W        W54212   8.232   7.234  10.935
81953W        W54213  25.517  25.448   0.764
81954W        W54214  34.660   8.599  13.601
81955W        W54215  44.726  27.840  11.465
81956W        W54216   0.088   4.909   1.427
81957W        W54217  15.036  13.582  11.176
81958W        W54218   3.902  34.026   0.576
81959W        W54219  38.586  15.224  10.659
81960W        W54220  17.294   0.947  13.026
81961W        W54221   8.407  20.536  13.040
81962W        W54222  23.065  17.024  10.026
81963W        W54223  18.887  25.460  11.405
81964W        W54224  26.626  29.626   2.708
81965W        W54225  30.344   6.303   3.415
81966W        W54226   7.164  16.518   1.937
81967W        W54227  18.598  27.711   0.241
81968W        W54228  29.904  35.530  14.113
81969W        W54229  32.571  29.583  12.996
81970W        W54230  23.509  26.719   4.536
81971W        W54231  23.784  15.349   4.741
81972W        W54232  17.685  38.050  12.932
81973W        W54233  21.567  42.714   4.514
81974W        W54234  23.251  15.055  11.346
81975W        W54235  20.804  41.606  14.454
81976W        W54236  32.835  40.884   0.778
81977W        W54237  32.869   3.247  11.645
81978W        W54238  13.624   6.344   1.893
81979W        W54239  39.801  40.970   2.253
81980W        W54240   7.066  22.126   2.930
81981W        W54241  24.656   5.564  11.224
81982W        W54242   5.906   0.243   0.174
81983W        W54243  19.613  23.245   2.412
81984W        W54244  32.784  26.112   4.181
81985W        W54245  30.194   6.634  14.562
81986W        W54246  29.658  20.057   0.411
81987W        W54247   1.460   1.507  14.462
81988W        W54248  22.738   2.354   1.237
81989W        W54249   1.658   3.380   3.286
81990W        W54250  15.390   5.260   1.253
81991W        W54251  40.291  39.249  14.356
81992W        W54252  12.142   9.700  11.979
81993W        W54253  22.519  34.664  13.906
81994W        W54254  16.813   9.134   1.001
81995W        W54255  21.243  35.091   0.793
81996W        W54256  18.309  36.822  13.702
81997W        W54257  24.650  38.488   1.050
81998W        W54258  11.626  27.870   3.084
81999W        W54259  11.871  31.450   3.657
82000W        W54260  35.949  43.592  10.666
82001W        W54261  16.731  21.565  14.890
82002W        W54262   4.181  31.857  13.186
82003W        W54263  37.398  41.267   1.978
82004W        W54264  21.659   9.838   0.384
82005W        W54265  32.850  29.590   3.763
82006W        W54266  40.413  18.097   4.739
82007W        W54267   6.876  20.852   3.801
82008W        W54268  13.323  34.419   1.891
82009W        W54269   3.183  30.977   3.286
82010W        W54270  34.795  29.640   4.730
82011W        W54271  23.342   7.198   4.878
82012W        W54272  42.361  25.419   1.649
82013W        W54273   7.270  15.072   0.010
82014W        W54274  18.267  21.089   2.314
82015W        W54275  21.245  14.310   2.854
82016W        W54276  33.625  16.294   3.300
82017W        W54277  35.626  21.008  14.826
82018W        W54278   5.250   1.299   1.718
82019W        W54279  41.448  18.491  13.809
82020W        W54280   5.128  11.834  10.199
82021W        W54281  34.808  19.582  13.576
82022W        W54282   1.384   1.578   0.326
82023W        W54283  19.703   8.169  11.261
82024W        W54284  17.163   5.484   1.345
82025W        W54285  11.170  40.472  12.537
82026W        W54286  40.860  13.058  13.721
82027W        W54287  13.209   0.016  12.135
82028W        W54288  19.324  26.958  13.817
82029W        W54289  19.117   3.975   1.429
82030W        W54290  31.080  40.175   0.347
82031W        W54291  43.616  26.103  11.968
82032W        W54292  20.464  33.424  14.865
82033W        W54293  20.513   1.266   1.716
82034W        W54294  40.987  27.625  12.597
82035W        W54295  24.924  30.209  14.862
82036W        W54296  12.802  39.395  12.384
82037W        W54297  26.433  14.799   0.464
82038W        W54298   9.725  13.231   1.330
82039W        W54299  22.649  18.095   2.603
82040W        W54300  42.868  19.031  11.666
82041W        W54301  40.438  31.014  14.285
82042W        W54302   3.487  34.912  11.081
82043W        W54303  27.009   9.969  11.680
82044W        W54304  27.042  10.271   2.383
82045W        W54305  37.236  15.688  12.421
82046W        W54306  24.543  14.019   1.912
82047W        W54307  29.193  42.884  10.668
82048W        W54308  35.638  18.096   5.078
82049W        W54309   2.755   1.997   1.855
82050W        W54310  25.513   2.227   0.548
82051W        W54311  24.382   6.340   0.658
82052W        W54312  33.221  38.516  11.980
82053W        W54313  18.541  37.530  14.348
82054W        W54314  11.163   7.308   1.010
82055W        W54315  14.648  22.231  13.934
82056W        W54316  44.478  35.488   1.387
82057W        W54317  36.387  16.654   1.218
82058W        W54318  21.968  15.677  11.773
82059W        W54319  18.720  44.058   2.029
82060W        W54320   1.205  34.994  13.252
82061W        W54321  20.327   8.589   4.771
82062W        W54322  37.178  35.137  13.132
82063W        W54323  11.185  11.391  11.610
82064W        W54324  43.036   4.803   3.360
82065W        W54325   6.212   0.485   3.772
82066W        W54326  26.211  33.579  11.588
82067W        W54327  20.625  36.936   0.386
82068W        W54328  44.356  16.107  10.551
82069W        W54329  11.297   5.806   2.893
82070W        W54330  16.754  38.909   1.856
82071W        W54331  40.532  43.239   1.668
82072W        W54332  22.583  19.502  11.007
82073W        W54333  20.468  39.711   0.384
82074W        W54334   6.229  18.769  14.341
82075W        W54335  15.189   6.243   1.444
82076W        W54336  31.953  19.100   3.282
82077W        W54337   4.512   4.962   4.054
82078W        W54338  12.145  22.497  11.576
82079W        W54339   2.179  38.306  11.492
82080W        W54340  34.386  14.689   0.548
82081W        W54341  26.175  42.800   2.698
82082W        W54342  23.523   2.193  13.803
82083W        W54343  39.146  22.200  10.721
82084W        W54344  41.494  19.053   4.702
82085W        W54345   7.384   6.410  14.600
82086W        W54346  41.850  20.398   3.107
82087W        W54347  23.113  38.848   1.342
82088W        W54348  32.552  17.166   4.033
82089W        W54349  44.997   8.749   0.754
82090W        W54350  16.276   2.654   2.765
82091W        W54351  43.694  15.396  10.444
82092W        W54352   5.187  11.090   1.354
82093W        W54353  37.425  23.925   0.787
82094W        W54354  35.325  43.115  11.490
82095W        W54355   5.086  32.836  12.103
82096W        W54356  11.171  22.084  12.800
82097W        W54357  40.956   3.872  14.361
82098W        W54358  27.898  38.444  11.694
82099W        W54359   6.221  10.947   4.078
82100W        W54360   6.308  15.879  14.367
82101W        W54361   8.277  31.364   4.159
82102W        W54362   2.901  11.583   2.691
82103W        W54363  40.266  26.566   5.070
82104W        W54364  16.899  28.384   4.070
82105W        W54365  16.498   6.936  14.328
82106W        W54366   0.298  31.672   1.271
82107W        W54367  39.200  12.539  13.463
82108W        W54368  28.373  39.793  14.888
82109W        W54369  13.297  42.966  14.599
82110W        W54370   5.444   6.894   2.657
82111W        W54371  28.047  14.680  11.675
82112W        W54372   2.712  42.115   0.833
82113W        W54373  40.878  32.515  14.007
82114W        W54374  15.202  15.798  10.216
82115W        W54375  38.757  19.572  12.327
82116W        W54376  20.057   9.049   4.618
82117W        W54377  30.633  44.391  12.998
82118W        W54378  26.546  10.227  11.685
82119W        W54379  35.386  42.739  10.697
82120W        W54380  24.454  12.602   1.851
82121W        W54381  23.537  37.343   2.696
82122W        W54382  13.102   3.119   3.216
82123W        W54383  34.147   4.926   1.777
82124W        W54384   0.616  28.188   4.896
82125W        W54385  34.160  22.173  12.477
82126W        W54386  41.935  43.461   0.881
82127W        W54387  37.297   5.549  13.296
82128W        W54388  43.775   3.576   0.615
82129W        W54389  35.294   0.963   4.390
82130W        W54390  35.953  32.522  14.677
82131W        W54391   9.916  22.684   0.308
82132W        W54392  20.334  39.189   5.054
82133W        W54393  41.222  29.219  14.507
82134W        W54394  28.719  19.061   1.184
82135W        W54395  24.014  22.007  14.824
82136W        W54396  31.358   2.246  10.781
82137W        W54397  12.696  32.710  12.956
82138W        W54398  29.661  29.135   3.691
82139W        W54399  34.874   3.730   3.210
82140W        W54400  20.228  44.789  13.514
82141W        W54401  31.853   7.478  14.465
82142W        W54402   1.172   6.134   1.344
82143W        W54403   8.854  23.949   1.469
82144W        W54404  19.155  34.562   3.023
82145W        W54405  43.241  43.699   4.099
82146W        W54406  25.639  42.118   4.576
82147W        W54407  40.401  32.409   0.362
82148W        W54408  27.999   0.579   2.753
82149W        W54409  36.364   3.189   0.931
82150W        W54410  44.639  26.003  13.690
82151W        W54411   1.292   7.931  13.854
82152W        W54412  11.804  23.507  13.377
82153W        W54413  27.031   0.268   0.296
82154W        W54414  18.058   8.016  13.767
82155W        W54415  40.406  35.380  14.584
82156W        W54416  31.859  27.580   0.279
82157W        W54417  10.628  37.141  11.017
82158W        W54418  39.770  14.469   4.783
82159W        W54419  36.197   7.698   2.338
82160W        W54420  18.620  11.943  14.373
82161W        W54421  13.433   4.968   1.490
82162W        W54422  14.547   7.456   3.721
82163W        W54423  25.678  37.885   4.653
82164W        W54424  32.459  35.172  10.715
82165W        W54425  22.984   2.800   4.145
82166W        W54426  21.958  26.778   1.760
82167W        W54427  35.477  10.716   0.905
82168W        W54428  25.613  27.934  13.679
82169W        W54429  35.433   2.336  10.776
82170W        W54430  42.405   2.330   2.803
82171W        W54431   1.217  22.701  10.429
82172W        W54432  13.729  42.369  13.009
82173W        W54433  32.716  27.003   2.782
82174W        W54434  37.553  34.421   4.396
82175W        W54435  10.911   9.244   0.800
82176W        W54436   2.006   0.215   4.488
82177W        W54437  28.434  10.105  14.052
82178W        W54438  31.920  21.680   4.114
82179W        W54439  42.452   3.388   1.231
82180W        W54440  31.190  34.913  13.387
82181W        W54441   6.150  33.160  10.406
82182W        W54442  13.803   5.694   2.746
82183W        W54443  18.032  41.514  13.763
82184W        W54444  28.053  30.103   2.702
82185W        W54445  35.989  38.078   4.190
82186W        W54446  41.531  27.186   1.908
82187W        W54447  44.774  16.168  12.551
82188W        W54448  25.434  33.849  10.616
82189W        W54449   3.310   4.204   3.689
82190W        W54450  18.116  34.295   0.011
82191W        W54451  25.727  38.993  14.274
82192W        W54452  37.352  43.724   3.106
82193W        W54453  29.871  43.187  12.505
82194W        W54454  15.048  12.814  14.329
82195W        W54455  17.827  34.581  11.064
82196W        W54456  42.062   1.150  10.711
82197W        W54457  36.525   0.333  10.742
82198W        W54458  19.875  43.976   0.363
82199W        W54459   4.363   9.853  12.798
82200W        W54460   7.283  22.177  11.109
82201W        W54461  22.412   8.836   3.703
82202W        W54462  34.313  15.727  12.328
82203W        W54463  24.271   5.325  14.392
82204W        W54464   6.935   2.848  12.507
82205W        W54465  42.971  26.514   0.240
82206W        W54466  42.874  11.708  11.816
82207W        W54467   3.517  28.681   1.472
82208W        W54468  21.964   8.780   4.200
82209W        W54469  10.167   8.860  14.220
82210W        W54470  40.503   6.807   4.268
82211W        W54471  24.459  11.216   3.138
82212W        W54472  19.656  19.674  10.348
82213W        W54473  24.323   6.668  12.976
82214W        W54474   9.331   9.260  14.027
82215W        W54475  44.973  17.794   0.002
82216W        W54476  39.338  24.363  10.720
82217W        W54477  23.456   3.971  13.303
82218W        W54478  17.112  18.590   0.593
82219W        W54479  31.149  43.975   0.785
82220W        W54480   7.671  39.773  12.922
82221W        W54481   9.230   4.312  13.889
82222W        W54482  43.301  32.010   3.771
82223W        W54483   7.796  42.968  14.325
82224W        W54484  29.974  39.820   1.698
82225W        W54485  19.312  36.581  14.835
82226W        W54486  39.363  27.675   1.400
82227W        W54487  35.065  28.618  12.046
82228W        W54488  35.846  18.227   4.642
82229W        W54489  39.375  44.537   3.288
82230W        W54490  30.570  32.002  13.464
82231W        W54491  32.863  43.077  10.281
82232W        W54492   7.369  12.402  13.383
82233W        W54493  20.240   2.527   2.835
82234W        W54494  44.354  42.461   4.253
82235W        W54495  16.224  14.814   0.393
82236W        W54496   1.876   9.632  13.353
82237W        W54497  43.297  41.819   3.801
82238W        W54498  14.549  13.540  11.365
82239W        W54499   1.252   0.232  14.970
82240W        W54500  18.227  17.982   4.844
82241W        W54501  43.971  33.825   0.846
82242W        W54502  30.331  17.833  12.796
82243W        W54503   7.962   1.834   2.729
82244W        W54504  13.681  22.369  14.882
82245W        W54505  21.554  23.598   1.200
82246W        W54506  10.580  27.573  13.112
82247W        W54507   3.477  26.692  11.238
82248W        W54508  12.173  25.638  11.615
82249W        W54509   4.839  39.733  11.583
82250W        W54510  33.515  33.009  12.094
82251W        W54511  11.326  27.085  13.640
82252W        W54512  12.834  12.394  13.890
82253W        W54513  19.985  40.556   0.160
82254W        W54514  11.050   4.917  11.996
82255W        W54515   3.971  25.013   2.084
82256W        W54516  39.238  24.711  13.407
82257W        W54517  24.734  33.961   3.665
82258W        W54518  21.653  32.003  14.336
82259W        W54519  21.722  25.633   4.897
82260W        W54520  31.016  20.554   0.884
82261W        W54521  42.041  18.531   4.331
82262W        W54522  16.649  42.173   0.831
82263W        W54523  15.090  27.246   1.849
82264W        W54524  12.076   6.706   4.143
82265W        W54525  15.141  38.094   4.092
82266W        W54526   6.480   2.280  11.174
82267W        W54527  39.874  27.913  13.224
82268W        W54528  33.943  42.809  10.722
82269W        W54529   5.239  26.456   0.354
82270W        W54530  36.350  19.740  10.976
82271W        W54531  38.040  10.243  12.505
82272W        W54532   3.184  37.802  14.972
82273W        W54533  29.936  18.353   0.079
82274W        W54534  22.742   1.761   0.667
82275W        W54535  16.747  43.575   3.228
82276W        W54536   5.992  16.640  13.135
82277W        W54537  29.186  23.923   4.125
82278W        W54538  34.492   0.544   1.753
82279W        W54539  35.308  44.426  12.022
82280W        W54540  19.504  18.559  11.653
82281W        W54541  37.896   8.860  10.605
82282W        W54542   3.212  36.223  14.957
82283W        W54543  36.991   8.902  10.632
82284W        W54544  30.124  24.791  14.500
82285W        W54545  29.872  27.596   2.307
82286W        W54546   9.694   4.629  12.556
82287W        W54547   8.415  41.485  14.880
82288W        W54548   7.910  16.337  14.930
82289W        W54549  11.785   7.107   1.654
82290W        W54550  16.442  14.921   3.205
82291W        W54551  26.542  28.711  10.723
82292W        W54552  36.957  41.040   3.408
82293W        W54553   6.318  41.455   4.665
82294W        W54554   4.445  39.415   3.898
82295W        W54555  35.570  11.169  14.904
82296W        W54556  30.047  28.522  14.988
82297W        W54557  29.463  19.756   1.737
82298W        W54558   2.383  27.023   4.421
82299W        W54559  40.932  29.969   2.120
82300W        W54560  30.878  14.381   1.776
82301W        W54561  26.469  38.439   3.438
82302W        W54562  22.231  31.918  10.831
82303W        W54563  39.926   7.489   3.736
82304W        W54564  10.994   8.267   0.936
82305W        W54565   3.870  25.676  10.481
82306W        W54566  22.735  44.947   0.484
82307W        W54567  18.556  10.625  10.787
82308W        W54568  22.628  20.373   1.209
82309W        W54569  22.777  30.986  10.225
82310W        W54570  24.119   6.475   2.304
82311W        W54571  25.671  10.805   4.864
82312W        W54572  20.465  32.017  13.799
82313W        W54573  32.550  22.297   4.096
82314W        W54574  40.879  18.717  13.507
82315W        W54575  42.338  11.546   0.384
82316W        W54576   9.151   0.831   3.210
82317W        W54577  23.531  24.730   1.114
82318W        W54578  23.287  41.033  13.345
82319W        W54579  42.509   5.879   3.611
82320W        W54580   3.828  19.550  14.863
82321W        W54581  28.613  42.143  14.348
82322W        W54582  12.032  29.159  10.961
82323W        W54583  41.507  20.840  14.503
82324W        W54584  12.807  31.027  12.607
82325W        W54585  29.330   8.342   2.878
82326W        W54586  38.094  30.829  12.581
82327W        W54587   5.949   7.536  14.902
82328W        W54588  44.390  18.296  11.572
82329W        W54589   5.413   9.738   3.681
82330W        W54590  21.381  22.096  13.045
82331W        W54591   5.739  23.228  13.961
82332W        W54592  33.366  26.422  10.158
82333W        W54593  16.018  42.565  12.429
82334W        W54594  10.638  28.935  10.281
82335W        W54595  43.802  14.107   4.353
82336W        W54596  29.430  17.208  14.707
82337W        W54597  10.637   1.713   1.726
82338W        W54598  13.959  15.230   2.760
82339W        W54599  40.428  28.272   4.307
82340W        W54600  29.682  39.273  13.290
82341W        W54601   5.959  35.814   4.819
82342W        W54602  28.579  32.588  14.504
82343W        W54603  25.143  30.109   1.672
82344W        W54604  33.103   7.185  12.648
82345W        W54605  12.830  16.217   4.304
82346W        W54606   3.995  38.664   0.976
82347W        W54607  32.908  33.652  10.522
82348W        W54608  19.304   0.447  14.358
82349W        W54609  11.568  25.445  14.859
82350W        W54610  36.962   1.790  14.318
82351W        W54611  12.820   7.303  13.408
82352W        W54612  44.537  20.847  14.294
82353W        W54613  29.681  30.565  13.973
82354W        W54614   3.778  37.956  12.959
82355W        W54615  20.745  17.321  13.975
82356W        W54616  42.082  27.644  12.872
82357W        W54617  17.209  32.922  12.635
82358W        W54618  20.375  31.408   2.887
82359W        W54619  43.507   3.918   4.632
82360W        W54620  18.063  43.947  10.741
82361W        W54621   0.025  41.390   4.366
82362W        W54622  33.861  15.763  14.041
82363W        W54623   4.391  31.641  12.558
82364W        W54624  26.985  24.017   2.283
82365W        W54625   1.156   3.281  11.141
82366W        W54626   7.879   4.199  14.046
82367W        W54627  27.490  11.781   4.561
82368W        W54628  22.650  17.659  10.535
82369W        W54629   9.607   2.430  10.669
82370W        W54630   4.262  16.298   2.878
82371W        W54631  44.011  13.296  12.450
82372W        W54632  35.140   3.940   2.824
82373W        W54633   7.868   5.253   1.464
82374W        W54634  30.073  14.129   4.225
82375W        W54635   9.814  44.755   3.358
82376W        W54636  42.816   8.080  12.590
82377W        W54637  30.028   9.184  11.659
82378W        W54638  34.820  17.147   1.873
82379W        W54639  42.394  42.340   1.258
82380W        W54640  12.019  19.209  12.525
82381W        W54641  40.591  12.778  11.473
82382W        W54642  44.230  14.104  13.020
82383W        W54643  43.227  29.729   4.814
82384W        W54644  38.471  10.286   9.798
82385W        W54645  27.438  34.628   0.859
82386W        W54646   2.394   6.895  10.559
82387W        W54647   0.557  43.877  11.191
82388W        W54648  36.841  30.445   4.683
82389W        W54649  28.381  10.226   3.980
82390W        W54650   5.476  25.240  10.131
82391W        W54651  22.178  12.407   4.587
82392W        W54652   3.928  35.662   1.224
82393W        W54653   4.359   5.221   3.593
82394W        W54654  16.110  10.776   0.492
82395W        W54655  32.608  14.448   3.987
82396W        W54656   9.277  26.345   2.196
82397W        W54657   9.400   9.769   4.625
82398W        W54658  38.444  29.072   4.261
82399W        W54659  15.890  13.332   4.846
82400W        W54660  10.643  11.382  11.617
82401W        W54661  11.640  24.909  14.952
82402W        W54662  35.521  12.384   3.177
82403W        W54663  23.254  18.280   0.876
82404W        W54664   8.694  22.633   2.808
82405W        W54665  33.962  19.091   4.615
82406W        W54666   1.730  15.197  14.992
82407W        W54667  42.678  27.779  13.894
82408W        W54668  10.063   1.601  10.144
82409W        W54669   6.481   5.510  10.629
82410W        W54670  11.831  24.965  11.788
82411W        W54671  41.347  27.896   3.379
82412W        W54672  23.530  38.106  11.673
82413W        W54673  40.540  34.753  11.465
82414W        W54674  41.101  38.069   1.291
82415W        W54675  19.589  43.114   0.567
82416W        W54676  19.091  29.096  13.122
82417W        W54677   9.212  17.170   2.326
82418W        W54678  41.330   7.319   0.382
82419W        W54679  37.319   8.793   3.358
82420W        W54680  43.896  17.819   0.500
82421W        W54681  39.975   6.820  14.954
82422W        W54682  30.389  43.030   2.235
82423W        W54683  31.928   1.465   2.822
82424W        W54684  41.931   6.607   1.458
82425W        W54685  41.473  43.244  14.247
82426W        W54686  23.050   0.931   2.766
82427W        W54687  43.109   8.423  14.974
82428W        W54688  43.528  20.132   3.832
82429W        W54689   1.944  41.935   1.259
82430W        W54690  26.199  25.088  11.697
82431W        W54691  16.098  26.562   3.925
82432W        W54692  44.243  13.262  12.001
82433W        W54693  14.331  15.737  14.240
82434W        W54694  30.234  40.407  10.770
82435W        W54695  14.161  22.677   1.740
82436W        W54696   0.415  14.765   0.988
82437W        W54697  33.523  23.514   0.542
82438W        W54698  22.089  12.850  11.435
82439W        W54699  15.740  34.234  12.889
82440W        W54700  23.025   1.174   2.263
82441W        W54701  31.866  38.559  13.513
82442W        W54702  34.322  33.510  11.074
82443W        W54703   6.640   8.850   0.806
82444W        W54704  28.816  33.963  14.195
82445W        W54705  35.491  21.430  10.640
82446W        W54706  31.471  16.801   1.753
82447W        W54707  13.211  25.024   2.438
82448W        W54708  29.443  20.215  12.413
82449W        W54709  40.477  29.092  11.741
82450W        W54710  24.248  15.540   4.934
82451W        W54711  21.057  35.494  14.986
82452W        W54712  43.417   0.987  10.059
82453W        W54713  18.985  11.285  14.223
82454W        W54714  29.476  12.559   2.723
82455W        W54715  17.725  39.271   1.678
82456W        W54716   5.881   9.273  14.420
82457W        W54717   5.998  30.360   2.372
82458W        W54718   4.316  23.130  11.635
82459W        W54719  37.533  16.874  10.796
82460W        W54720  11.736  40.641   3.683
82461W        W54721  35.847  12.427   3.592
82462W        W54722   1.560   6.670   3.611
82463W        W54723  11.143  22.997  11.127
82464W        W54724  37.840  33.451   2.677
82465W        W54725   1.907  34.784  11.117
82466W        W54726  15.164  28.269   1.954
82467W        W54727  43.540  43.179  11.270
82468W        W54728  34.291   7.415  13.197
82469W        W54729   9.249  13.365   0.070
82470W        W54730  19.493   3.282  14.877
82471W        W54731  24.126  14.039  12.551
82472W        W54732  32.625  36.867   0.331
82473W        W54733  42.334  41.894   1.750
82474W        W54734  28.591  35.047  10.159
82475W        W54735   4.349  34.820  11.571
82476W        W54736  17.568  37.384   3.088
82477W        W54737  25.142  42.234   4.711
82478W        W54738  24.793  23.462   2.726
82479W        W54739  36.541  28.613   0.394
82480W        W54740  13.794  12.368  13.485
82481W        W54741  12.849  22.117  13.784
82482W        W54742  36.255  17.034  14.828
82483W        W54743  27.123  41.610   2.358
82484W        W54744  36.817  44.238   1.913
82485W        W54745  13.707  10.760   2.949
82486W        W54746  40.100  38.515  12.470
82487W        W54747  43.380  17.048  12.458
82488W        W54748  35.920  19.736   3.216
82489W        W54749   8.073  19.335   0.501
82490W        W54750  37.442  33.263   3.611
82491W        W54751  36.418  18.802   4.220
82492W        W54752  33.427  13.590   1.725
82493W        W54753  39.955   9.147   1.274
82494W        W54754   1.948  29.139  10.718
82495W        W54755  17.286  16.333  12.574
82496W        W54756  22.644   8.228   4.206
82497W        W54757  24.628  13.733  11.650
82498W        W54758  43.927   4.787   9.829
82499W        W54759  42.868  42.296  12.562
82500W        W54760  14.810  33.946  12.050
82501W        W54761  37.602  37.884  14.929
82502W        W54762  34.938  42.517   2.385
82503W        W54763  31.363   0.712   4.684
82504W        W54764  44.376  16.782   1.437
82505W        W54765  13.873   0.172  11.034
82506W        W54766  21.802  15.286   1.931
82507W        W54767  41.812   0.091   4.171
82508W        W54768  38.231  18.230   1.054
82509W        W54769   2.586  16.389  13.294
82510W        W54770  31.202  12.707  11.049
82511W        W54771  39.377  15.554   2.797
82512W        W54772  36.447  34.213  10.489
82513W        W54773   4.121  30.086  13.322
82514W        W54774  15.707  28.860  13.554
82515W        W54775  38.549   5.742   2.711
82516W        W54776  44.392  22.557  13.339
82517W        W54777  30.003  44.930  11.042
82518W        W54778  15.850  15.840  11.612
82519W        W54779  13.609  26.199  14.811
82520W        W54780  12.855  37.012  10.584
82521W        W54781  17.734  12.426   0.207
82522W        W54782  31.207  34.566   2.359
82523W        W54783  21.946  40.030   1.325
82524W        W54784  23.944  32.391   2.746
82525W        W54785  33.339   5.926   2.333
82526W        W54786  12.387  26.515   2.869
82527W        W54787  18.659   8.640  12.191
82528W        W54788  26.497  38.805  12.837
82529W        W54789  28.572   0.932   3.649
82530W        W54790  34.390  36.480  10.767
82531W        W54791   1.727  36.671   2.782
82532W        W54792   7.981  16.869  14.881
82533W        W54793  22.396  41.791   1.296
82534W        W54794  36.478   1.862  14.466
82535W        W54795  11.406  31.457   3.392
82536W        W54796  20.264  21.751   2.165
82537W        W54797   3.820  19.222   3.232
82538W        W54798  39.456  17.134  14.863
82539W        W54799  36.126  41.757  10.546
82540W        W54800  33.826   9.307  12.442
82541W        W54801  44.802   1.821  14.190
82542W        W54802   8.574   4.321  12.978
82543W        W54803  41.882  21.256  10.972
82544W        W54804  17.328   2.578  11.110
82545W        W54805  13.511  23.086  11.116
82546W        W54806  34.944  20.440  12.487
82547W        W54807   1.626   7.639  14.125
82548W        W54808  16.399  36.037   1.484
82549W        W54809  28.518   7.863   3.739
82550W        W54810   9.917  41.574   2.176
82551W        W54811  22.477  32.413  13.076
82552W        W54812  11.462  30.104   9.760
82553W        W54813  26.184  44.023   1.963
82554W        W54814  13.785  31.278   4.461
82555W        W54815  13.770  29.953   2.885
82556W        W54816  43.408   1.199   0.949
82557W        W54817   4.720   1.068  14.427
82558W        W54818  15.498  17.065   3.145
82559W        W54819   0.544  21.741  12.092
82560W        W54820  23.244  21.484   2.296
82561W        W54821  29.129  16.572   2.025
82562W        W54822  11.634  43.405  10.664
82563W        W54823  21.537  21.579  12.059
82564W        W54824   7.650  43.857   1.709
82565W        W54825   3.234  32.038  12.422
82566W        W54826  24.444  36.520   1.650
82567W        W54827  41.027  42.962  14.985
82568W        W54828  16.608  43.522   1.989
82569W        W54829  11.196  29.402   4.064
82570W        W54830  32.614  16.277   2.352
82571W        W54831   5.154  44.435   4.178
82572W        W54832  28.356  12.187   0.808
82573W        W54833  34.467   0.610   4.529
82574W        W54834  42.865  26.472  14.367
82575W        W54835  32.913  22.209  12.132
82576W        W54836  30.203  24.660   2.346
82577W        W54837  36.953  12.147   1.840
82578W        W54838  20.821  23.040  11.174
82579W        W54839  14.215  39.380  12.518
82580W        W54840   4.688  33.610   4.250
82581W        W54841   3.758  25.026   3.167
82582W        W54842   8.750  25.858   2.785
82583W        W54843  19.572  38.766   0.312
82584W        W54844  14.028   4.902   5.251
82585W        W54845  21.066  37.772   2.666
82586W        W54846   9.681  41.811  13.785
82587W        W54847  11.127  20.738  10.453
82588W        W54848  16.632   1.823   2.259
82589W        W54849  38.447  10.005  13.952
82590W        W54850  36.481  43.977  12.429
82591W        W54851  39.974  23.174   1.056
82592W        W54852  22.956  24.040   0.379
82593W        W54853  14.422   0.241   3.876
82594W        W54854  24.406  15.741  12.484
82595W        W54855  15.058  19.237   1.468
82596W        W54856  28.144  16.204   1.797
82597W        W54857  10.110  40.502  12.494
82598W        W54858  22.543  34.169   3.180
82599W        W54859  10.596  25.707   4.088
82600W        W54860  41.548  23.241  11.265
82601W        W54861  23.983  44.441  14.191
82602W        W54862  13.088  28.674  11.990
82603W        W54863  28.284  15.844   4.621
82604W        W54864  25.119  20.911   3.179
82605W        W54865  34.953  23.377  12.416
82606W        W54866  39.229  34.559  11.532
82607W        W54867  32.403   4.358   2.284
82608W        W54868  19.926   3.760  10.405
82609W        W54869  12.858  22.606   1.297
82610W        W54870  24.070  11.928   2.688
82611W        W54871   2.449  39.319  13.569
82612W        W54872  31.755  30.892  13.384
82613W        W54873   7.954  39.055   0.909
82614W        W54874  12.378  13.074  13.923
82615W        W54875  33.125  27.119   1.230
82616W        W54876  21.741   3.108   4.977
82617W        W54877  32.639  41.137  13.760
82618W        W54878  39.488  15.348   1.782
82619W        W54879  33.015  44.659   0.817
82620W        W54880  25.447  41.615  10.658
82621W        W54881   5.505   4.407   3.305
82622W        W54882  33.037  16.845   4.567
82623W        W54883   8.301  40.427  13.059
82624W        W54884   8.426  16.186  12.900
82625W        W54885  16.336   5.434   2.687
82626W        W54886  17.907  36.619  14.746
82627W        W54887  24.373   7.229  11.530
82628W        W54888  29.603  38.701  12.038
82629W        W54889  35.082  24.509   2.645
82630W        W54890  18.759  37.307   2.747
82631W        W54891  23.953  11.312  10.734
82632W        W54892  11.506   2.774  13.048
82633W        W54893   7.247  44.815  10.433
82634W        W54894  19.586  38.519  13.068
82635W        W54895  10.979  15.168  14.622
82636W        W54896  13.799  19.253  14.071
82637W        W54897  24.212   8.775   4.840
82638W        W54898  39.602   3.408   3.234
82639W        W54899  38.137  31.763   4.138
82640W        W54900  34.933   3.741   4.307
82641W        W54901  15.616  29.568   4.701
82642W        W54902  37.858  22.657   4.302
82643W        W54903  28.671  42.016   2.892
82644W        W54904  39.803  23.251   3.713
82645W        W54905  38.269  26.994  13.510
82646W        W54906  13.476   2.879  13.033
82647W        W54907  42.394  43.106   4.140
82648W        W54908  11.870  33.108   2.644
82649W        W54909   1.994   5.800   1.253
82650W        W54910   3.760   2.269  12.025
82651W        W54911  32.699  36.534  13.375
82652W        W54912   6.410   6.939  14.488
82653W        W54913  38.201  35.124   2.392
82654W        W54914   5.260   4.797   3.612
82655W        W54915  41.224  18.371  13.361
82656W        W54916   7.162  27.670  11.927
82657W        W54917  40.516   7.431  11.326
82658W        W54918   8.637  15.197   3.649
82659W        W54919   4.313  11.188  13.858
82660W        W54920  20.218   9.937   3.246
82661W        W54921  34.784  25.473   3.566
82662W        W54922   8.118  28.160   1.025
82663W        W54923  14.265  16.382  14.769
82664W        W54924  34.133  30.500  11.998
82665W        W54925  23.548  10.468  11.467
82666W        W54926  16.771   5.033   3.236
82667W        W54927  34.883  25.103  14.518
82668W        W54928  27.389   5.370   3.721
82669W        W54929  28.047  22.184  14.768
82670W        W54930  38.589  20.669  13.438
82671W        W54931  33.729  40.515  11.120
82672W        W54932  25.168  14.689   0.023
82673W        W54933  32.497  41.348  13.308
82674W        W54934  32.598  17.496  14.924
82675W        W54935  28.087  15.703  10.950
82676W        W54936   0.033   2.707  12.475
82677W        W54937  24.435  10.521  11.959
82678W        W54938  30.518  37.328  11.936
82679W        W54939  11.108  21.008  14.206
82680W        W54940  16.319   4.429  12.506
82681W        W54941   7.747  11.409   0.749
82682W        W54942  42.559  14.545  12.487
82683W        W54943   7.955  33.207  12.432
82684W        W54944   3.264  34.360  14.327
82685W        W54945  23.672   1.757   4.420
82686W        W54946   6.200  42.704   0.764
82687W        W54947   4.316   1.757  10.950
82688W        W54948  25.069  37.893   4.062
82689W        W54949  30.846   5.007  13.864
82690W        W54950  18.547   0.746  10.821
82691W        W54951  39.970   9.675   1.587
82692W        W54952  40.640  30.031   3.514
82693W        W54953  40.354  43.007   3.230
82694W        W54954   9.909  17.744   1.859
82695W        W54955  23.122  18.347   4.434
82696W        W54956  41.485  27.355  11.084
82697W        W54957  23.981   7.419   2.394
82698W        W54958  32.894  11.593   2.674
82699W        W54959  42.424   0.699  13.186
82700W        W54960  17.208   9.123   0.660
82701W        W54961   9.185  44.964   3.773
82702W        W54962   5.914  19.611  14.937
82703W        W54963  38.733  38.771   3.418
82704W        W54964  18.640  38.359  10.581
82705W        W54965  11.178  40.490  14.296
82706W        W54966  33.378  26.613   3.643
82707W        W54967  35.074  37.578   1.418
82708W        W54968  11.911  26.571   0.288
82709W        W54969  41.363  13.188   1.001
82710W        W54970   6.622  16.808  14.424
82711W        W54971  44.033  12.437  13.388
82712W        W54972  21.127  13.398  13.302
82713W        W54973  26.557  19.232  11.403
82714W        W54974  39.412  29.489   0.238
82715W        W54975  13.841  13.215   1.713
82716W        W54976  38.591  38.042   0.828
82717W        W54977  26.579  11.586  12.036
82718W        W54978  32.102  36.370   1.894
82719W        W54979  20.100   6.874   1.332
82720W        W54980  38.889  26.005  12.368
82721W        W54981   7.616  17.802   2.540
82722W        W54982  39.629  37.500  14.399
82723W        W54983  36.209  40.564   0.199
82724W        W54984  22.140   6.701   1.318
82725W        W54985  34.047  20.715   0.349
82726W        W54986  37.478  20.115   4.838
82727W        W54987  26.007  25.757   2.804
82728W        W54988  20.131   8.623  11.964
82729W        W54989  29.638  12.674  14.501
82730W        W54990  19.133  38.054   1.961
82731W        W54991  18.042   0.485   1.739
82732W        W54992  34.158   8.301   0.515
82733W        W54993  16.753  31.971   0.771
82734W        W54994  29.415   6.734  10.757
82735W        W54995  38.118  24.991   2.780
82736W        W54996  41.900  31.770   4.236
82737W        W54997   2.787  35.559   4.619
82738W        W54998  11.855  33.135   1.826
82739W        W54999   4.740  24.698   3.216
82740W        W55000  29.097   9.141   3.351
82741W        W55001   2.943  29.985  12.560
82742W        W55002  44.971   0.786  11.447
82743W        W55003  20.099  40.261   1.752
82744W        W55004   7.548   1.734   4.097
82745W        W55005   2.965  25.949  11.983
82746W        W55006  20.129  20.268   0.862
82747W        W55007  40.860   6.904   1.991
82748W        W55008  17.155   8.900  11.476
82749W        W55009  38.925  30.990  12.126
82750W        W55010  27.986  10.354  13.931
82751W        W55011  18.954  32.359   4.112
82752W        W55012  44.559  30.520   9.880
82753W        W55013   6.487   0.958   1.383
82754W        W55014  37.940  43.960  14.519
82755W        W55015  37.014   4.198   2.928
82756W        W55016  23.670  14.500   2.742
82757W        W55017  37.620  36.986  14.851
82758W        W55018  28.859  17.569  14.867
82759W        W55019  32.638  28.540  10.552
82760W        W55020  31.392  20.482  12.441
82761W        W55021  24.705   7.122   0.329
82762W        W55022  41.018  34.986  12.961
82763W        W55023  38.220  20.883  10.546
82764W        W55024  16.650  14.864   1.190
82765W        W55025  37.864  17.280  12.179
82766W        W55026  17.139  26.727   0.008
82767W        W55027  33.892  23.339   3.265
82768W        W55028  25.231  16.212  14.348
82769W        W55029   8.604   3.781  13.412
82770W        W55030  10.707  15.080  14.141
82771W        W55031  38.420   0.006   3.933
82772W        W55032  44.358  33.603  10.690
82773W        W55033  43.589  15.123  11.150
82774W        W55034  26.928  12.949  13.682
82775W        W55035   9.788  43.131   2.909
82776W        W55036   9.749  18.052  12.107
82777W        W55037  24.781  27.524  13.496
82778W        W55038  10.919  30.061  14.182
82779W        W55039  16.919  23.114  14.418
82780W        W55040  30.931  22.083  11.266
82781W        W55041  26.925  36.512  12.967
82782W        W55042  13.777  13.653   3.903
82783W        W55043  20.555   4.168   3.187
82784W        W55044  34.849  24.584   3.843
82785W        W55045  23.073  27.655   4.904
82786W        W55046  44.966   2.145   0.713
82787W        W55047  15.292   9.796   1.769
82788W        W55048  11.155  34.866  13.466
82789W        W55049  29.907   9.902  14.908
82790W        W55050  18.107  22.667  14.996
82791W        W55051  17.162  33.659   3.236
82792W        W55052   2.513  44.935   0.917
82793W        W55053   6.982  17.136  13.046
82794W        W55054  16.735   6.041  12.443
82795W        W55055  31.394  18.223  14.925
82796W        W55056  23.687  34.116  14.727
82797W        W55057  41.924   0.491   1.721
82798W        W55058  23.156  17.224   4.890
82799W        W55059  31.573  32.144   2.449
82800W        W55060  38.734   0.169   2.023
82801W        W55061   0.476  17.737  13.347
82802W        W55062  39.802  17.749  11.159
82803W        W55063  29.076  36.129   4.047
82804W        W55064  40.489  16.958   2.894
82805W        W55065   9.156  14.177   4.066
82806W        W55066  38.384  26.161   4.272
82807W        W55067  22.051  11.066   4.074
82808W        W55068   0.458   8.618   3.357
82809W        W55069  25.160  24.934   3.706
82810W        W55070   6.642   3.263  12.326
82811W        W55071  32.821  41.335  12.202
82812W        W55072   4.627   7.910  13.039
82813W        W55073  40.592  18.740   4.178
82814W        W55074  22.270  41.464  11.078
82815W        W55075  41.347  35.938   0.723
82816W        W55076  42.764   6.687  14.280
82817W        W55077  42.087   2.306   2.224
82818W        W55078  12.582  35.376   0.439
82819W        W55079  43.984  15.382  10.855
82820W        W55080   7.617  26.558   9.796
82821W        W55081  20.107  38.252   1.770
82822W        W55082  32.505  10.613   2.375
82823W        W55083  28.461  23.751  12.417
82824W        W55084  34.049   7.416   0.008
82825W        W55085   4.667  38.310  12.871
82826W        W55086  34.401  29.418  11.197
82827W        W55087  15.796  24.064   0.185
82828W        W55088  43.873  20.353   4.147
82829W        W55089   5.314  28.659   0.343
82830W        W55090  40.688  20.109  11.675
82831W        W55091  32.633  11.404  12.070
82832W        W55092  41.522  23.068   0.897
82833W        W55093  18.254  40.056   4.565
82834W        W55094  10.847   1.748  14.775
82835W        W55095  23.596  28.583  11.487
82836W        W55096   1.516  26.031  11.488
82837W        W55097  11.073  29.319   0.885
82838W        W55098  15.719   8.871   4.017
82839W        W55099  40.796   9.817   0.297
82840W        W55100  17.336  11.599  13.260
82841W        W55101   5.705   0.724   0.307
82842W        W55102  28.141  23.056   3.942
82843W        W55103  17.178  40.350  14.728
82844W        W55104  41.914  26.078   2.273
82845W        W55105   0.342  38.531   4.541
82846W        W55106  37.795  44.325   0.927
82847W        W55107  14.134  42.279  11.389
82848W        W55108   8.845  17.780   3.767
82849W        W55109  15.978  21.890   2.667
82850W        W55110   0.826  13.736   4.827
82851W        W55111  44.732   3.660   1.842
82852W        W55112  41.063  23.623   0.447
82853W        W55113  31.048  19.560   4.264
82854W        W55114   5.811  35.135   2.282
82855W        W55115  29.267  28.143  13.297
82856W        W55116   4.664   2.814  11.658
82857W        W55117  28.511  44.020  14.863
82858W        W55118  36.601  15.148   3.674
82859W        W55119   6.366  21.205  13.972
82860W        W55120  40.882  18.241   0.369
82861W        W55121  40.841  19.188   4.121
82862W        W55122  20.559  26.561  13.597
82863W        W55123  13.684  33.469  14.294
82864W        W55124  22.643  20.608   4.552
82865W        W55125  28.408  10.589   2.755
82866W        W55126  41.869  17.311   4.937
82867W        W55127  34.582  42.057  12.469
82868W        W55128   1.012  16.291  12.022
82869W        W55129  22.384  20.000   4.847
82870W        W55130  38.586  40.057   0.850
82871W        W55131  35.387  18.160   2.722
82872W        W55132  14.625   6.600  14.004
82873W        W55133  36.856  43.948  12.067
82874W        W55134  26.118  42.494   0.476
82875W        W55135  29.826   5.705   1.811
82876W        W55136   4.668  43.952  14.513
82877W        W55137  38.876   1.629  14.862
82878W        W55138  27.808  18.141  11.613
82879W        W55139  12.192  15.111   0.081
82880W        W55140   5.481  22.294  13.701
82881W        W55141  30.560  15.304  13.796
82882W        W55142  10.157  18.240  13.008
82883W        W55143   5.180  31.619  13.039
82884W        W55144  30.595  40.601   1.720
82885W        W55145  34.654   5.891  14.795
82886W        W55146  12.687   4.583   1.694
82887W        W55147   8.838   9.968  10.355
82888W        W55148   1.178  17.851  11.588
82889W        W55149   8.837  14.028  11.571
82890W        W55150  41.559  36.996   4.429
82891W        W55151  19.786  13.220   1.799
82892W        W55152  28.744  14.193  14.558
82893W        W55153  21.957  41.803  10.776
82894W        W55154  32.588  23.026  13.546
82895W        W55155  29.559  23.762   2.307
82896W        W55156  18.620  15.953  12.535
82897W        W55157  44.472   7.582   3.219
82898W        W55158  28.616  36.841   1.407
82899W        W55159  11.107  28.517  11.984
82900W        W55160  27.954  35.288  11.451
82901W        W55161   1.320  18.528   1.661
82902W        W55162  43.279   9.070   4.560
82903W        W55163   6.424   8.853  12.960
82904W        W55164  11.341  42.487  12.020
82905W        W55165  13.683  18.225  11.490
82906W        W55166  40.078   5.649  13.502
82907W        W55167  24.229  24.599  11.139
82908W        W55168  35.038  38.522   4.164
82909W        W55169  20.254   6.692  11.166
82910W        W55170   4.874  17.330  14.522
82911W        W55171   1.176  33.825  12.638
82912W        W55172  11.174  22.533   2.784
82913W        W55173  23.493   3.534   0.725
82914W        W55174   5.655  25.549   3.625
82915W        W55175  10.789   4.931   3.774
82916W        W55176  23.989  13.100  11.117
82917W        W55177  44.106  35.732   3.304
82918W        W55178  42.267  41.569  13.530
82919W        W55179  15.380  23.642  13.892
82920W        W55180  19.982  12.655  11.937
82921W        W55181  26.039  42.628  14.971
82922W        W55182   8.923   4.179   1.181
82923W        W55183   3.122  12.672  10.764
82924W        W55184   4.026  26.153   1.522
82925W        W55185  21.868  12.403   4.085
82926W        W55186  39.870  10.328   2.809
82927W        W55187  42.890   1.864   3.902
82928W        W55188  30.019  37.597   3.610
82929W        W55189  10.982  21.767  12.109
82930W        W55190  20.363  31.659  11.717
82931W        W55191   4.974   2.811  14.433
82932W        W55192   5.698  19.029  12.867
82933W        W55193  37.408  44.887   4.889
82934W        W55194  17.179   2.006  10.662
82935W        W55195  39.091   6.576   4.698
82936W        W55196  26.735   1.530   3.674
82937W        W55197  14.225  20.154  12.348
82938W        W55198  40.833  38.553  11.987
82939W        W55199  34.017  41.868  14.029
82940W        W55200  28.772  27.644   1.636
82941W        W55201   7.712  11.255   1.639
82942W        W55202  16.066   1.024   1.890
82943W        W55203  28.399  44.932   0.849
82944W        W55204   1.171  27.409  12.466
82945W        W55205  22.666   4.333   2.411
82946W        W55206  36.956  36.588  13.648
82947W        W55207  30.097   7.177  11.105
82948W        W55208  11.379  16.690   0.399
82949W        W55209  44.020   3.746   3.827
82950W        W55210  13.915  41.538  11.913
82951W        W55211  27.860  39.977   2.950
82952W        W55212  42.863   4.300   0.143
82953W        W55213  44.723   1.205   4.632
82954W        W55214  22.664  17.818   1.249
82955W        W55215   3.767   1.441  14.079
82956W        W55216  12.899  38.290  11.084
82957W        W55217  14.214  44.003  11.504
82958W        W55218  33.848  17.785   1.169
82959W        W55219  43.453  38.398   3.798
82960W        W55220  25.637  21.858  12.610
82961W        W55221  23.741  16.136   2.631
82962W        W55222   9.753  33.895  12.750
82963W        W55223   0.745  36.925   4.213
82964W        W55224  22.828  12.164  13.958
82965W        W55225   2.791  27.180  13.919
82966W        W55226  24.408  16.271   1.665
82967W        W55227  24.970  19.796  14.455
82968W        W55228  20.613   1.973  14.553
82969W        W55229  23.296   9.477  10.643
82970W        W55230  10.474  29.900  12.931
82971W        W55231  23.122  10.221  14.984
82972W        W55232   0.405  11.321   4.354
82973W        W55233  41.720  17.810   5.031
82974W        W55234  22.233   7.190  12.501
82975W        W55235   4.797   5.926  13.938
82976W        W55236  15.347  17.834   0.799
82977W        W55237  18.856  27.057   1.168
82978W        W55238  17.064   9.177  13.008
82979W        W55239   1.500   9.706   1.424
82980W        W55240   6.160  20.295  10.629
82981W        W55241  33.649  35.863   3.212
82982W        W55242  11.873  34.008   0.785
82983W        W55243  31.383  36.922  12.551
82984W        W55244   2.035  23.964   3.315
82985W        W55245  26.597   5.203   0.031
82986W        W55246  39.489   2.814  14.774
82987W        W55247  18.597  19.104  11.098
82988W        W55248  39.615  42.906  14.926
82989W        W55249   7.159  23.028  12.496
82990W        W55250  35.950  15.307  11.608
82991W        W55251  18.756   0.901   0.453
82992W        W55252  15.842  26.064   0.806
82993W        W55253   0.323  43.509  12.843
82994W        W55254  27.166   2.743  13.098
82995W        W55255   7.151  29.101   3.899
82996W        W55256  34.638   3.654  14.314
82997W        W55257   8.222  32.198   4.643
82998W        W55258  42.789  24.541   2.953
82999W        W55259  43.744  40.251   4.593
83000W        W55260  13.531   2.469  14.435
83001W        W55261  33.594  18.764  11.046
83002W        W55262  39.488  34.631   1.095
83003W        W55263  20.814  41.460  10.702
83004W        W55264  26.148   1.074   1.747
83005W        W55265  32.396  25.525   0.853
83006W        W55266   7.703  24.962  10.050
83007W        W55267   9.167   7.308   1.219
83008W        W55268  30.608   1.127  10.649
83009W        W55269  24.221   5.599   0.715
83010W        W55270  37.582   3.742   4.815
83011W        W55271   9.317   1.676  11.162
83012W        W55272  30.425  33.155   4.574
83013W        W55273  40.854  23.267  10.732
83014W        W55274  28.322  30.963  10.809
83015W        W55275  33.840  28.982  13.906
83016W        W55276  38.342  25.592   4.730
83017W        W55277   2.172  34.967   2.827
83018W        W55278   3.352   7.187   1.046
83019W        W55279   2.521  11.932   1.881
83020W        W55280   2.401  38.357  12.443
83021W        W55281   2.858  21.357  14.737
83022W        W55282  29.117  38.913  11.959
83023W        W55283  44.789  34.950  13.023
83024W        W55284  40.758  17.653   1.692
83025W        W55285  33.920  20.576   0.912
83026W        W55286  34.042  14.541  12.640
83027W        W55287  14.606   1.350  11.602
83028W        W55288   6.694   7.499   4.093
83029W        W55289  30.040  15.695  12.260
83030W        W55290  33.395  28.077   4.620
83031W        W55291  44.936   1.864   3.556
83032W        W55292  38.151  20.731   0.872
83033W        W55293   6.656  22.958  11.335
83034W        W55294   5.100  19.920   4.907
83035W        W55295  26.203  38.898  11.395
83036W        W55296  14.450  28.462  10.615
83037W        W55297  24.110  21.106   0.696
83038W        W55298  36.742   8.272  11.113
83039W        W55299  17.541  25.189   0.884
83040W        W55300  27.160  17.898   4.218
83041W        W55301  22.770  37.107   0.489
83042W        W55302  43.458  33.200  14.866
83043W        W55303  34.041   3.154   2.246
83044W        W55304  41.963   7.763  11.599
83045W        W55305  30.594  22.668   0.240
83046W        W55306  15.163  37.056  11.925
83047W        W55307   4.394  17.858  14.909
83048W        W55308  24.623   3.860   0.079
83049W        W55309  41.036  34.964   0.756
83050W        W55310  43.257  13.660  13.748
83051W        W55311  22.462   3.047   0.003
83052W        W55312  29.083   8.613   0.399
83053W        W55313   3.345  39.260  12.003
83054W        W55314  21.428  27.969  13.254
83055W        W55315  18.986  39.296  12.463
83056W        W55316   0.274  23.671  10.948
83057W        W55317  34.587   0.491  14.884
83058W        W55318   2.220  17.659   1.323
83059W        W55319   7.368   2.328   4.872
83060W        W55320  26.705  14.674  13.644
83061W        W55321  14.646  24.086   4.381
83062W        W55322  28.537  35.490  14.838
83063W        W55323  33.678   1.641  12.894
83064W        W55324  42.260   9.930  10.317
83065W        W55325  32.802  22.544   2.858
83066W        W55326  23.156  25.240  11.664
83067W        W55327  26.409  43.495   4.119
83068W        W55328  43.746   7.346   1.893
83069W        W55329   9.122  12.274  12.908
83070W        W55330  39.557   5.738   4.583
83071W        W55331  40.960  27.675   0.383
83072W        W55332  41.480  44.449  10.642
83073W        W55333  32.263  41.494  13.775
83074W        W55334   1.758   5.828   3.102
83075W        W55335  33.808   7.469  14.560
83076W        W55336   4.885  41.075   1.653
83077W        W55337  39.142  15.141  12.942
83078W        W55338  37.951   0.682   3.849
83079W        W55339  15.501  17.540  12.851
83080W        W55340  24.106  44.871   0.983
83081W        W55341  38.817  34.324  14.937
83082W        W55342  12.765  42.872   4.698
83083W        W55343  44.263  30.426  10.887
83084W        W55344  28.134  22.480   3.438
83085W        W55345  20.533   7.349  12.076
83086W        W55346  33.518  34.882  10.744
83087W        W55347  15.193  39.367   0.104
83088W        W55348   2.987  31.373  13.567
83089W        W55349   3.217  18.997  10.617
83090W        W55350   8.228  40.141   3.672
83091W        W55351   3.184   9.865   1.957
83092W        W55352  31.181   6.851  14.363
83093W        W55353  35.881  16.778   0.542
83094W        W55354  17.854   7.519  10.179
83095W        W55355  19.077  37.517  11.244
83096W        W55356  30.366  42.614  13.822
83097W        W55357  30.592  33.956  10.807
83098W        W55358  41.088  16.597  14.409
83099W        W55359  30.654  28.603  12.623
83100W        W55360  29.497   0.499   3.664
83101W        W55361  11.740  20.778   2.425
83102W        W55362  14.087   1.846  11.948
83103W        W55363   7.073  38.123   3.538
83104W        W55364  23.396  18.921   4.677
83105W        W55365  39.275  40.362   2.616
83106W        W55366  44.615   8.703   1.475
83107W        W55367  43.907  34.181   2.197
83108W        W55368   2.054  33.050   2.188
83109W        W55369  26.232  29.074  11.566
83110W        W55370  32.572  28.773   4.153
83111W        W55371   0.312   4.113   5.035
83112W        W55372   8.867  43.321   4.594
83113W        W55373  14.863  39.024   1.515
83114W        W55374   9.469  16.304  12.740
83115W        W55375   1.328  28.275   3.750
83116W        W55376  36.974   5.747  13.984
83117W        W55377  14.199  30.319  10.752
83118W        W55378  16.341  27.588  13.928
83119W        W55379  13.519  20.940   2.499
83120W        W55380   5.147  38.406   0.687
83121W        W55381  30.393  12.333   4.169
83122W        W55382  43.676  41.999  12.865
83123W        W55383  24.727   1.834  13.395
83124W        W55384  43.980  33.153   0.409
83125W        W55385  10.734  23.657  14.345
83126W        W55386  42.283  22.329  13.945
83127W        W55387  17.484  21.568   0.372
83128W        W55388  42.922  32.115   5.179
83129W        W55389  36.886  25.488   1.732
83130W        W55390  17.759  40.757  13.938
83131W        W55391  16.632  43.170   4.162
83132W        W55392   1.918  26.247   0.521
83133W        W55393   7.317  21.474  14.841
83134W        W55394  31.478  24.302   4.029
83135W        W55395  26.144   5.286   3.236
83136W        W55396  22.459   1.170   2.236
83137W        W55397   9.263  26.040  12.092
83138W        W55398  16.758  33.137  12.468
83139W        W55399  43.768  30.422  11.111
83140W        W55400  25.780  15.726  10.765
83141W        W55401  23.633  29.623   1.026
83142W        W55402   4.360   2.836   1.938
83143W        W55403  11.487  12.801   4.709
83144W        W55404  24.766  42.821  12.829
83145W        W55405   2.223  21.527  14.756
83146W        W55406  22.155  31.503  11.137
83147W        W55407  20.547  20.498   3.768
83148W        W55408  28.711  10.426  14.394
83149W        W55409  26.163  29.458  12.095
83150W        W55410  18.941   8.321  12.479
83151W        W55411  23.652  30.437  14.611
83152W        W55412  22.431   7.562   0.643
83153W        W55413  34.571  26.775   1.843
83154W        W55414   1.571  42.252  13.836
83155W        W55415  15.702  42.068   0.790
83156W        W55416  15.008   3.278  12.495
83157W        W55417  26.389  38.943  10.549
83158W        W55418  33.098   0.876   4.092
83159W        W55419  16.149  13.588  12.458
83160W        W55420  17.576   8.378  14.033
83161W        W55421  26.604  13.547   0.079
83162W        W55422  29.123  36.145   2.216
83163W        W55423  15.413  19.662  10.840
83164W        W55424  29.842   1.101   4.987
83165W        W55425  19.055   8.534   5.100
83166W        W55426  33.480  12.641  13.564
83167W        W55427  40.276   5.418  13.084
83168W        W55428  38.337  40.397  11.985
83169W        W55429   9.850  42.291  11.125
83170W        W55430  30.194  17.193   4.562
83171W        W55431  37.595  18.609  11.607
83172W        W55432  44.816  14.376  14.308
83173W        W55433  29.704   3.188   0.869
83174W        W55434  10.763  42.718  13.151
83175W        W55435  23.297  16.720   4.195
83176W        W55436  37.080  32.009   1.238
83177W        W55437   9.651   0.211  12.856
83178W        W55438   9.496  39.856   1.766
83179W        W55439  16.690  22.831  13.356
83180W        W55440  23.283  22.241   2.703
83181W        W55441  14.370  40.876  11.183
83182W        W55442   7.182  34.151  14.057
83183W        W55443   1.050  26.159   1.710
83184W        W55444  44.464  40.091   5.060
83185W        W55445  34.550   9.886   1.592
83186W        W55446  43.327  11.615   2.871
83187W        W55447  20.818   7.458   4.633
83188W        W55448  12.210  18.956   2.408
83189W        W55449   8.772  10.269  11.226
83190W        W55450  37.121  41.973   5.119
83191W        W55451  12.758  22.156  10.968
83192W        W55452   9.905   9.193   0.709
83193W        W55453  44.742  29.713   0.711
83194W        W55454   1.363  30.542   0.783
83195W        W55455   9.472  30.459   2.444
83196W        W55456  29.969  21.739  13.427
83197W        W55457  36.243  24.002  13.335
83198W        W55458  35.855  29.924  11.889
83199W        W55459  31.338   6.522  11.593
83200W        W55460   0.443  29.399   0.920
83201W        W55461  14.122  10.265   1.672
83202W        W55462  17.744  12.588  13.412
83203W        W55463  37.486  20.223   4.325
83204W        W55464   0.195  22.038  12.307
83205W        W55465  15.193  34.826   2.623
83206W        W55466  11.671  14.306  12.119
83207W        W55467  23.350  32.338   4.129
83208W        W55468  43.742  43.407  11.695
83209W        W55469  39.476   2.666   0.683
83210W        W55470  10.382  41.045   2.729
83211W        W55471  43.986  21.607   3.700
83212W        W55472  31.213  35.491  14.476
83213W        W55473  20.513   9.764  13.864
83214W        W55474  37.755  28.972   2.080
83215W        W55475  32.640  39.973  14.478
83216W        W55476   5.502  21.994  14.990
83217W        W55477  36.097   0.063   4.108
83218W        W55478  11.614  26.439  13.845
83219W        W55479  21.020  44.048   4.600
83220W        W55480   3.473  14.018   4.718
83221W        W55481  12.065  38.165  13.990
83222W        W55482  22.222  16.046   0.887
83223W        W55483  23.099  22.338  14.936
83224W        W55484   6.901  10.255  14.417
83225W        W55485  24.809   4.855  12.583
83226W        W55486  12.351  25.019   4.514
83227W        W55487  26.230  20.278  11.145
83228W        W55488  43.914   1.625   4.504
83229W        W55489   0.204  25.978  12.002
83230W        W55490  20.143  15.038  14.741
83231W        W55491   1.756  12.103  11.894
83232W        W55492  18.126  14.148   1.868
83233W        W55493  12.859  25.927   3.117
83234W        W55494  18.134  11.124   0.290
83235W        W55495  10.774  42.459  12.688
83236W        W55496  43.981   6.610  12.998
83237W        W55497  13.828  31.129   0.506
83238W        W55498  26.263  19.437  12.358
83239W        W55499   0.799   2.386   3.283
83240W        W55500  32.000   7.510   2.833
83241W        W55501  36.977  37.429  14.508
83242W        W55502  14.220  36.285   4.362
83243W        W55503  13.591   9.261   1.904
83244W        W55504   1.516  11.762   2.535
83245W        W55505  36.570  13.132  14.012
83246W        W55506  26.408   5.430  11.025
83247W        W55507  23.777  38.811   3.268
83248W        W55508  40.944  34.934   3.334
83249W        W55509  25.799  23.723   3.538
83250W        W55510  20.040  29.230   4.856
83251W        W55511  11.313  14.458  12.483
83252W        W55512  15.705   0.167  10.244
83253W        W55513  29.800  43.312   1.632
83254W        W55514  11.236  27.371   0.975
83255W        W55515  36.448  23.165  14.649
83256W        W55516  14.285   7.404   2.268
83257W        W55517  35.850   3.725   1.263
83258W        W55518  26.222  25.237  10.437
83259W        W55519  28.765  29.443  13.314
83260W        W55520   5.635  11.243   0.292
83261W        W55521  20.480  14.615   0.733
83262W        W55522  24.964  28.515   3.442
83263W        W55523  14.599  32.612  10.597
83264W        W55524  22.340  38.450   0.411
83265W        W55525  44.464  18.109  11.103
83266W        W55526   4.392  14.974  11.016
83267W        W55527   0.777   2.410  13.513
83268W        W55528  22.567  15.405   3.649
83269W        W55529  38.375  42.437  10.631
83270W        W55530  22.700  16.265  11.312
83271W        W55531  13.663  36.046  14.063
83272W        W55532  39.281   3.425   0.308
83273W        W55533  20.491  38.109  11.083
83274W        W55534  12.999  37.355   2.400
83275W        W55535  31.072   1.863   2.437
83276W        W55536  23.068  38.134  10.812
83277W        W55537  10.774   1.780   4.154
83278W        W55538  34.000  18.863   1.253
83279W        W55539  31.729  22.966   2.010
83280W        W55540  22.933  17.092  14.445
83281W        W55541  21.739  11.870  14.269
83282W        W55542  34.403   6.316   4.525
83283W        W55543  35.848  12.816   1.435
83284W        W55544   4.851  37.112   3.393
83285W        W55545  41.720   6.694  14.413
83286W        W55546  27.358  18.680  14.391
83287W        W55547   1.877   6.241  13.718
83288W        W55548  27.514  18.063  13.277
83289W        W55549  20.838   8.959   1.496
83290W        W55550  23.278   3.578  11.093
83291W        W55551   3.451  31.601  12.191
83292W        W55552  27.065  37.999  14.878
83293W        W55553  13.136  26.907   2.313
83294W        W55554  16.058  29.131  11.632
83295W        W55555   3.058  10.541  11.326
83296W        W55556  16.221  41.528  12.421
83297W        W55557  35.602   8.413   4.800
83298W        W55558  28.978   0.811  10.497
83299W        W55559  32.860   1.523   3.604
83300W        W55560  35.725  39.301  12.025
83301W        W55561  23.712  30.828   2.280
83302W        W55562  11.418  26.448  13.131
83303W        W55563  32.524   4.432   0.367
83304W        W55564  24.037   7.319  11.898
83305W        W55565  25.415  30.551   2.177
83306W        W55566  13.785  17.659   1.153
83307W        W55567   2.267  21.789   4.605
83308W        W55568  15.695  19.528  11.949
83309W        W55569   2.504  36.461  14.655
83310W        W55570   1.854  35.466  11.552
83311W        W55571  15.766  19.322  10.605
83312W        W55572   1.511  40.880   2.077
83313W        W55573   6.355  11.708  14.969
83314W        W55574  40.613   1.055   5.150
83315W        W55575  36.860  24.098  11.982
83316W        W55576  27.661  11.389   1.066
83317W        W55577  10.437  38.525   4.483
83318W        W55578   5.082   0.896   2.767
83319W        W55579  12.212  10.638   1.701
83320W        W55580  40.963  21.894   4.275
83321W        W55581  39.371   2.331  14.717
83322W        W55582  20.122  43.533   4.713
83323W        W55583   8.010  23.094  10.975
83324W        W55584  35.098  40.536  13.432
83325W        W55585  38.579  27.025   3.186
83326W        W55586   6.457  11.245   0.695
83327W        W55587  29.408   3.956   0.412
83328W        W55588  16.822   0.329  11.118
83329W        W55589   7.950  42.520   0.221
83330W        W55590  37.339  29.490  11.191
83331W        W55591  33.332  33.609  13.933
83332W        W55592  11.280  33.062   4.290
83333W        W55593   3.368  20.008   3.188
83334W        W55594  16.851  12.038  14.945
83335W        W55595  44.083  29.826   1.692
83336W        W55596  19.161  39.876  14.443
83337W        W55597  15.262   7.854  13.077
83338W        W55598   7.348   4.215   3.102
83339W        W55599  18.510  37.953   2.106
83340W        W55600  17.582  36.113   4.118
83341W        W55601  12.252  20.321   1.818
83342W        W55602  11.788  15.418  11.145
83343W        W55603  44.220  38.726   0.937
83344W        W55604  30.591  13.570  14.982
83345W        W55605  43.940  26.606  12.011
83346W        W55606  30.638  38.083  13.853
83347W        W55607   5.885  38.657  14.823
83348W        W55608  21.582  38.571   2.705
83349W        W55609   3.008  26.643  13.498
83350W        W55610   2.313  14.647   3.155
83351W        W55611  20.979  30.453  10.359
83352W        W55612   4.172  13.599   0.363
83353W        W55613  16.385  15.653  10.774
83354W        W55614   0.651  32.957  12.442
83355W        W55615   7.687  40.394  10.237
83356W        W55616  31.956   0.883  11.363
83357W        W55617  20.716  35.556  13.012
83358W        W55618  21.693  27.647   4.837
83359W        W55619   4.401  36.408  11.562
83360W        W55620   7.635  38.647   3.970
83361W        W55621  34.547   6.785  11.889
83362W        W55622  38.104  30.931  14.619
83363W        W55623  35.370   3.014   3.671
83364W        W55624  17.024  22.454   1.610
83365W        W55625  23.073  21.023   4.877
83366W        W55626  24.105   3.276  11.300
83367W        W55627  27.493  33.810   2.168
83368W        W55628  42.461  36.386   4.509
83369W        W55629  41.028  18.322  12.892
83370W        W55630  42.256  42.402  14.918
83371W        W55631  18.168  31.992   1.062
83372W        W55632  33.660  36.376  12.091
83373W        W55633  29.476  22.806  14.015
83374W        W55634  35.444  19.716  12.081
83375W        W55635  28.308   1.560  13.236
83376W        W55636  30.932  15.901  12.881
83377W        W55637  32.903  13.231  13.232
83378W        W55638   3.815  17.803   2.148
83379W        W55639  26.406  14.088  12.047
83380W        W55640  44.303  44.681  14.644
83381W        W55641  29.476  12.155   2.328
83382W        W55642  39.161  19.069  13.532
83383W        W55643  25.029  23.789   1.444
83384W        W55644  28.612   1.869   4.101
83385W        W55645  19.371   0.314  11.143
83386W        W55646  17.187   5.620  13.675
83387W        W55647  25.695   4.613   1.686
83388W        W55648   4.898  25.438  12.901
83389W        W55649  38.851   0.866  11.219
83390W        W55650  11.662   8.199  11.290
83391W        W55651  30.193  34.907   0.693
83392W        W55652  33.398  19.624   0.768
83393W        W55653   3.880  41.307   1.449
83394W        W55654  33.408   5.782   1.780
83395W        W55655  37.968   4.268   0.970
83396W        W55656  44.898  10.315  10.180
83397W        W55657  13.120  40.505   4.614
83398W        W55658  43.287  14.065   1.498
83399W        W55659   6.324   3.453   2.851
83400W        W55660  33.582   0.804  12.123
83401W        W55661   0.270  21.185   4.109
83402W        W55662   3.904  40.057   3.236
83403W        W55663  12.084  39.533   3.176
83404W        W55664  16.075  12.545  10.443
83405W        W55665  40.404  15.547  11.650
83406W        W55666  23.730  15.759   2.992
83407W        W55667  30.525  35.027   4.856
83408W        W55668   4.906   3.651  12.182
83409W        W55669  22.032  10.411  12.458
83410W        W55670  43.556  10.169  10.701
83411W        W55671   2.168  37.332   4.071
83412W        W55672  31.838   7.449   4.845
83413W        W55673  29.930  11.311  10.739
83414W        W55674  35.599   7.434   0.870
83415W        W55675   7.791   6.872   3.239
83416W        W55676  12.121  39.608  11.146
83417W        W55677  31.870  31.179   1.471
83418W        W55678  36.629  24.614  12.007
83419W        W55679  18.828  44.254  10.594
83420W        W55680  22.255  35.153  13.570
83421W        W55681  28.376  23.961  12.942
83422W        W55682   7.719  26.477   2.756
83423W        W55683   8.926  41.282   3.656
83424W        W55684  33.048   2.627  13.332
83425W        W55685  32.327   4.263  12.492
83426W        W55686  42.336  20.688  14.715
83427W        W55687  41.080  13.828   2.355
83428W        W55688  13.420  35.414  14.765
83429W        W55689  31.961  14.828  14.015
83430W        W55690  43.128   0.152   4.980
83431W        W55691  34.011  21.323   4.436
83432W        W55692   1.859  14.115  12.488
83433W        W55693  42.540  33.143   2.287
83434W        W55694  40.970  26.621  10.566
83435W        W55695  35.294  24.517   0.079
83436W        W55696  21.849  42.264  12.630
83437W        W55697   1.075  43.016  12.373
83438W        W55698  34.879  15.659  13.927
83439W        W55699  17.028  37.157   0.411
83440W        W55700  18.792  40.389   4.080
83441W        W55701   8.044  34.075   1.475
83442W        W55702  19.067  41.843   0.292
83443W        W55703  15.727  35.468  11.920
83444W        W55704  16.403  41.354   1.439
83445W        W55705  21.849  27.481  10.999
83446W        W55706   2.299   0.305   1.405
83447W        W55707  38.084  39.059   1.753
83448W        W55708  17.040  33.956   2.206
83449W        W55709  31.131   8.887   3.785
83450W        W55710   2.680  20.178  12.001
83451W        W55711  27.290   5.369   4.630
83452W        W55712  43.906  34.056   3.691
83453W        W55713  27.801  12.091   3.602
83454W        W55714  14.503  40.516  14.020
83455W        W55715  21.182  21.741  11.209
83456W        W55716  40.266  27.169  10.698
83457W        W55717  35.629  13.480  12.366
83458W        W55718  21.724  37.011  10.876
83459W        W55719   9.010  16.214   3.843
83460W        W55720  43.887  29.584  14.718
83461W        W55721   3.253   5.258  14.386
83462W        W55722   7.772  43.223  10.463
83463W        W55723  38.398  41.837  14.145
83464W        W55724   0.340  34.730  11.988
83465W        W55725   6.713   9.312   4.621
83466W        W55726  44.333  22.568   3.592
83467W        W55727  43.912  10.318   1.243
83468W        W55728  12.945  18.073  13.817
83469W        W55729  33.717  18.639   5.096
83470W        W55730  12.833  21.021  14.287
83471W        W55731  22.207  17.807  12.639
83472W        W55732  13.801  20.291   3.569
83473W        W55733  16.128  33.032  13.839
83474W        W55734  30.825  32.798  10.902
83475W        W55735  21.644  22.080  11.943
83476W        W55736   5.702  10.344  12.412
83477W        W55737  21.106  12.630   4.138
83478W        W55738  30.401   9.115  14.015
83479W        W55739   7.174  42.911   2.353
83480W        W55740  21.892  22.685   2.269
83481W        W55741  37.951  14.535  14.113
83482W        W55742  30.149   0.826  12.694
83483W        W55743   3.372  36.658  13.684
83484W        W55744  34.482   2.440  12.804
83485W        W55745  22.045   5.923  12.904
83486W        W55746   3.243  19.780   3.701
83487W        W55747  22.794  29.380   3.218
83488W        W55748  19.121   8.842   2.667
83489W        W55749  34.551  10.862  13.824
83490W        W55750   8.511  23.367   1.732
83491W        W55751   5.986   0.410   1.678
83492W        W55752  25.196   3.952  13.077
83493W        W55753  14.621  40.318   4.573
83494W        W55754  44.810  24.760   1.850
83495W        W55755  19.198  34.418  12.078
83496W        W55756  34.799  20.261  10.210
83497W        W55757   2.293  14.512  14.074
83498W        W55758   4.298   4.178   2.742
83499W        W55759  21.922  37.542   1.306
83500W        W55760  29.499  10.454  11.590
83501W        W55761  24.339  25.419   2.702
83502W        W55762   4.412  13.654  13.530
83503W        W55763  33.692  25.285   4.107
83504W        W55764  25.854   4.268  11.116
83505W        W55765   3.795  23.532   1.266
83506W        W55766  11.732  43.946  12.791
83507W        W55767  20.512  18.155  14.567
83508W        W55768   9.215  22.053   2.307
83509W        W55769  36.720  29.549   4.935
83510W        W55770  44.717  33.493  14.513
83511W        W55771   3.180  25.233   1.496
83512W        W55772  27.961  15.714   0.971
83513W        W55773   1.907  28.997  13.888
83514W        W55774   6.342  35.047   3.852
83515W        W55775  22.785  43.751  12.406
83516W        W55776  28.196   8.451  10.606
83517W        W55777  24.767  32.460   4.656
83518W        W55778  25.702  25.263   1.738
83519W        W55779  37.864   0.218   0.053
83520W        W55780  20.229  15.847  13.543
83521W        W55781  12.120  27.184   3.366
83522W        W55782  39.498  11.368  11.557
83523W        W55783   6.802  42.505  12.656
83524W        W55784  26.659  29.218   0.500
83525W        W55785  25.548  30.742  13.461
83526W        W55786  32.924  11.889   2.218
83527W        W55787  41.247   0.407  14.974
83528W        W55788  42.814   3.395   3.103
83529W        W55789   2.013  30.448  11.739
83530W        W55790   4.661   5.826   1.369
83531W        W55791  28.519  23.736  11.520
83532W        W55792   2.570  43.119  13.609
83533W        W55793  20.998  42.813  10.673
83534W        W55794   7.381  16.834   3.154
83535W        W55795  13.540  28.208   3.215
83536W        W55796  30.504  15.187   4.453
83537W        W55797   3.631  38.377  11.970
83538W        W55798  27.273   1.853  12.912
83539W        W55799  28.154  22.693  14.543
83540W        W55800  26.366  29.246   2.385
83541W        W55801  15.246  15.711  14.339
83542W        W55802   4.547  40.931  12.534
83543W        W55803  30.444  27.494   1.152
83544W        W55804  14.176  18.769  14.844
83545W        W55805   0.944   4.319   1.397
83546W        W55806   4.713   0.918  10.208
83547W        W55807  22.795  19.635   4.993
83548W        W55808  19.218   5.804   4.154
83549W        W55809  20.768  37.032   3.750
83550W        W55810   1.415  11.864   2.028
83551W        W55811  16.674   2.952   4.764
83552W        W55812   0.195  19.727   3.182
83553W        W55813   4.230   6.416  12.717
83554W        W55814   7.471  16.026  12.931
83555W        W55815   3.211  24.898  12.420
83556W        W55816   1.807  13.042   3.099
83557W        W55817  22.783  27.957  10.301
83558W        W55818  28.230  15.559  13.873
83559W        W55819  40.322  28.212  10.692
83560W        W55820  31.655  44.399   0.730
83561W        W55821  25.028  17.118  13.889
83562W        W55822  33.325  29.858  13.871
83563W        W55823  18.499   4.815   0.969
83564W        W55824  40.057   6.546   0.892
83565W        W55825  37.360  20.937  12.514
83566W        W55826  15.323   3.459  12.100
83567W        W55827  26.663  14.551  11.126
83568W        W55828  29.360  10.666  14.537
83569W        W55829  17.167  42.072   4.407
83570W        W55830   4.789  29.706  11.545
83571W        W55831  22.295  40.728  11.837
83572W        W55832  12.952  23.524  10.787
83573W        W55833  29.594  24.662   4.751
83574W        W55834  31.043  22.085  14.372
83575W        W55835  28.204  16.066   4.147
83576W        W55836  31.799  38.127   5.065
83577W        W55837  33.453  15.808   0.936
83578W        W55838  30.499   2.195  10.997
83579W        W55839   4.292  20.944   1.718
83580W        W55840  39.090  38.290   1.295
83581W        W55841  18.477  23.588   1.942
83582W        W55842  15.746   7.841   1.295
83583W        W55843  24.785   0.241  14.466
83584W        W55844  20.581  21.328  10.562
83585W        W55845  41.449  11.189  13.062
83586W        W55846  27.486  15.562  14.798
83587W        W55847   7.339  41.380   3.071
83588W        W55848  40.901  30.462   2.240
83589W        W55849  39.986  42.287  14.022
83590W        W55850  44.371  32.390   1.799
83591W        W55851  39.071  42.214   2.762
83592W        W55852  20.560  40.952   4.661
83593W        W55853  27.210   2.709   3.304
83594W        W55854  42.905   4.111  11.110
83595W        W55855  19.796  23.213  14.781
83596W        W55856   7.453  28.990  12.111
83597W        W55857   9.397  28.255   2.889
83598W        W55858  33.541   0.979  13.492
83599W        W55859  22.815  43.241  10.693
83600W        W55860   5.491  42.040   2.637
83601W        W55861  42.116  20.785   4.577
83602W        W55862  12.135   0.227  13.103
83603W        W55863  42.265  19.571   3.816
83604W        W55864  29.886   3.763  13.056
83605W        W55865  10.274  25.299  11.160
83606W        W55866  40.848  36.588   4.038
83607W        W55867  14.816  34.369   2.210
83608W        W55868  21.845  16.780  13.627
83609W        W55869  26.110  36.459  11.432
83610W        W55870   3.338  42.425  14.128
83611W        W55871  38.046  30.027  13.544
83612W        W55872   3.332   5.878   4.362
83613W        W55873  42.349  27.176  14.515
83614W        W55874  30.498  15.068   3.953
83615W        W55875  17.744  19.534   1.625
83616W        W55876  34.497   8.381  10.369
83617W        W55877   0.893  10.831  10.763
83618W        W55878  36.319  41.628  14.479
83619W        W55879  29.083  20.663  14.774
83620W        W55880   2.304   6.367  10.609
83621W        W55881  15.679  29.737   3.725
83622W        W55882  44.461   4.275  13.365
83623W        W55883   0.774   5.331   0.752
83624W        W55884   7.772  22.524   5.181
83625W        W55885  24.509  27.542  14.863
83626W        W55886  14.776  36.210  14.824
83627W        W55887   7.153   2.669   3.604
83628W        W55888  41.092  44.205  14.440
83629W        W55889  30.962  31.012  14.770
83630W        W55890  23.263  11.217   4.734
83631W        W55891  17.637  42.746  13.941
83632W        W55892   4.032   7.117  11.695
83633W        W55893  16.317  44.021   4.114
83634W        W55894  40.296  10.662  11.175
83635W        W55895   7.702  26.195  10.170
83636W        W55896  44.414  11.218  11.671
83637W        W55897  44.364  23.208  14.438
83638W        W55898  28.950  36.368   1.779
83639W        W55899  24.731  34.673  11.643
83640W        W55900   7.674  17.718   3.051
83641W        W55901  40.877  18.308   4.898
83642W        W55902  22.397  37.272  12.904
83643W        W55903  16.182  34.312   2.396
83644W        W55904   6.817  20.248   2.257
83645W        W55905  19.988  36.065   0.437
83646W        W55906  25.948   6.707  10.970
83647W        W55907  21.992  32.937  12.437
83648W        W55908  13.723  35.551  12.859
83649W        W55909  21.319  19.299   4.077
83650W        W55910  24.632   2.577   0.904
83651W        W55911  17.152  27.092  12.984
83652W        W55912  13.152  28.363  12.389
83653W        W55913  16.170  20.079  14.351
83654W        W55914  11.087  43.233  12.498
83655W        W55915  44.258  30.798  13.609
83656W        W55916  44.032  16.839  11.630
83657W        W55917  36.539  27.158   0.243
83658W        W55918   8.702   0.466   3.370
83659W        W55919  43.805  35.199   0.479
83660W        W55920  41.939   2.729   2.854
83661W        W55921  10.261  10.526   4.003
83662W        W55922  26.104  12.292  10.455
83663W        W55923  32.566  44.454  13.801
83664W        W55924  22.008  23.133   4.487
83665W        W55925  41.268  23.098  11.667
83666W        W55926   8.058  28.460  12.425
83667W        W55927  10.773  44.924  14.760
83668W        W55928   7.912  16.653   0.740
83669W        W55929  41.482  34.884  11.625
83670W        W55930  38.082  19.183   2.514
83671W        W55931  37.803   8.311   2.865
83672W        W55932  27.532  31.937   1.912
83673W        W55933   2.456   4.342   1.261
83674W        W55934   8.908  30.153   0.922
83675W        W55935  14.363  10.951   2.372
83676W        W55936  11.628  37.005  11.005
83677W        W55937  24.283  19.230   0.817
83678W        W55938   4.304  20.013   3.212
83679W        W55939  11.861  44.508  14.324
83680W        W55940  20.173  14.146   3.516
83681W        W55941  20.641  41.030   3.897
83682W        W55942  18.978  32.628   1.256
83683W        W55943  30.941  10.876  11.523
83684W        W55944  34.587  18.024  11.419
83685W        W55945  44.358  33.960  14.083
83686W        W55946  37.139  16.097  11.256
83687W        W55947  38.074   4.845  12.572
83688W        W55948  43.070  40.773  10.664
83689W        W55949  14.109  19.965  11.365
83690W        W55950  34.516  15.684  11.424
83691W        W55951   0.300  16.474   2.050
83692W        W55952  15.626  16.833  13.999
83693W        W55953  36.951  21.042   3.242
83694W        W55954  31.972  12.786  10.659
83695W        W55955  35.726  16.375   0.249
83696W        W55956  23.075   2.481  13.807
83697W        W55957  38.910  10.754   2.301
83698W        W55958  33.208  44.420  13.011
83699W        W55959  32.084   1.299  14.671
83700W        W55960   4.470  23.810   2.664
83701W        W55961   5.845  40.864   4.515
83702W        W55962  24.122  16.782   4.584
83703W        W55963   1.054  19.586  13.934
83704W        W55964  41.473  29.813  12.106
83705W        W55965  25.439  30.568  12.456
83706W        W55966  24.169  44.751   4.301
83707W        W55967  16.511   8.269   1.352
83708W        W55968  25.693  31.007  10.825
83709W        W55969  21.711  10.507   2.428
83710W        W55970  40.808  17.203   1.422
83711W        W55971  25.619  38.552   3.755
83712W        W55972   0.084   7.837  11.451
83713W        W55973  32.663  18.533   1.809
83714W        W55974  12.901  21.066   1.811
83715W        W55975  26.447  39.067   1.195
83716W        W55976  32.463  35.395   1.325
83717W        W55977  16.522  17.488  14.358
83718W        W55978  26.893  36.397   1.189
83719W        W55979  39.316  23.983  12.999
83720W        W55980  12.070  27.856   2.790
83721W        W55981   3.451  26.187  12.087
83722W        W55982  22.010  33.500   2.833
83723W        W55983  10.639  32.936  13.622
83724W        W55984  16.856  25.455   0.396
83725W        W55985  42.594  29.355  14.222
83726W        W55986   0.062  30.084   4.669
83727W        W55987  34.713  24.165   0.361
83728W        W55988  14.123  26.968  10.352
83729W        W55989  36.456  38.474   1.451
83730W        W55990   0.395   8.248  14.304
83731W        W55991   4.581  19.581  14.137
83732W        W55992  43.026   7.261   4.167
83733W        W55993   1.943  40.025   4.591
83734W        W55994  36.057  31.967   1.331
83735W        W55995  16.772  22.713   0.200
83736W        W55996   8.761  12.102   1.212
83737W        W55997  36.422  29.127  14.954
83738W        W55998  26.509  33.037  12.037
83739W        W55999  22.746  14.784  12.342
83740W        W56000  37.480  22.978  11.539
83741W        W56001  28.636  41.029   0.967
83742W        W56002  27.461  11.152  10.607
83743W        W56003  25.453  15.266   2.831
83744W        W56004   8.680  22.850   4.200
83745W        W56005  17.683   5.461   5.422
83746W        W56006  25.968  22.186  11.481
83747W        W56007   4.743  15.550   0.905
83748W        W56008   2.244  27.698  13.471
83749W        W56009   0.093  27.912   3.540
83750W        W56010  23.737   1.390   0.816
83751W        W56011  28.537  42.273  11.522
83752W        W56012   9.941  37.086  13.857
83753W        W56013   3.038  24.010  12.067
83754W        W56014   1.270  25.668  13.891
83755W        W56015  18.967  16.451  14.905
83756W        W56016  19.720  31.132  14.354
83757W        W56017  19.340   1.203   2.286
83758W        W56018  34.568  24.117   3.625
83759W        W56019  38.999  12.548  14.000
83760W        W56020  38.398   6.775  12.137
83761W        W56021  39.882  22.980  11.608
83762W        W56022  24.196  12.129   1.715
83763W        W56023  37.978  29.608  10.347
83764W        W56024  18.094  13.606   4.611
83765W        W56025  35.111  29.840   3.608
83766W        W56026  14.379  39.498   1.834
83767W        W56027  43.230   6.420   5.073
83768W        W56028  30.003  44.448   4.621
83769W        W56029  21.999  28.810  13.383
83770W        W56030  17.872  22.931  11.399
83771W        W56031  18.169   9.822  13.359
83772W        W56032   0.939  20.162  13.431
83773W        W56033  44.900  44.440  14.298
83774W        W56034  16.637   6.024   0.896
83775W        W56035  22.619  29.837  11.425
83776W        W56036  11.689  40.961   2.235
83777W        W56037  38.393   7.260  10.230
83778W        W56038  33.820  33.484  11.973
83779W        W56039  18.045  38.914   2.401
83780W        W56040  21.657  23.521  12.567
83781W        W56041  38.873  32.419   4.391
83782W        W56042  16.964   8.229   4.065
83783W        W56043  36.445  11.374   4.196
83784W        W56044   6.292  21.521   0.602
83785W        W56045  20.210  15.779  14.509
83786W        W56046  43.669  23.770  11.432
83787W        W56047   8.897  32.861  11.240
83788W        W56048  31.282  24.246   0.869
83789W        W56049  42.377  42.347  13.957
83790W        W56050  20.934  36.817   0.802
83791W        W56051  22.653   2.367  11.428
83792W        W56052  28.949  30.443   4.831
83793W        W56053  30.656   0.747  12.903
83794W        W56054  17.373  27.693  14.168
83795W        W56055   3.669  40.986  13.952
83796W        W56056  39.073   1.530  13.719
83797W        W56057   9.302  21.863   4.938
83798W        W56058  36.745  41.468   3.225
83799W        W56059  38.341  26.562  14.439
83800W        W56060  15.813  19.498  11.083
83801W        W56061  15.243  20.999  14.844
83802W        W56062  11.378  28.796  12.947
83803W        W56063  11.777   0.996   2.262
83804W        W56064  11.591  23.610  14.028
83805W        W56065  33.681  42.282   2.260
83806W        W56066  19.249  27.243  12.663
83807W        W56067  40.092  16.717  12.149
83808W        W56068   6.705  14.760  13.024
83809W        W56069  18.336   1.709  13.436
83810W        W56070  42.102  31.497  11.091
83811W        W56071  11.810  41.655   3.474
83812W        W56072  12.249  25.978  12.911
83813W        W56073  10.695  37.404   1.887
83814W        W56074  11.758   5.010  13.531
83815W        W56075  16.379   8.502  11.217
83816W        W56076  33.563   1.026   5.027
83817W        W56077  12.264  31.312  10.641
83818W        W56078  22.225  39.437  14.764
83819W        W56079   1.921  38.815   4.113
83820W        W56080  38.825  23.545   2.662
83821W        W56081  23.378   7.442  14.775
83822W        W56082  26.932  41.297   1.424
83823W        W56083  14.604  30.007   2.806
83824W        W56084  43.518  12.215   0.744
83825W        W56085  35.290  12.700   2.362
83826W        W56086   1.226  27.078   4.211
83827W        W56087  10.315  43.824   2.909
83828W        W56088  35.013  21.301  10.993
83829W        W56089  28.368  10.840  14.411
83830W        W56090   3.446  25.915  11.666
83831W        W56091  12.690  41.799   4.480
83832W        W56092  30.675  29.822   5.100
83833W        W56093  42.353  15.084   4.609
83834W        W56094  16.629  27.490   0.510
83835W        W56095  21.023   7.244  11.174
83836W        W56096   3.209   0.322  14.699
83837W        W56097  39.215  30.241   3.625
83838W        W56098  11.841   4.254  13.079
83839W        W56099  30.576  30.507   3.385
83840W        W56100  12.729  12.188  13.442
83841W        W56101   1.218   0.062   2.182
83842W        W56102   9.199  24.600   3.737
83843W        W56103  34.544  44.886  12.810
83844W        W56104  19.598  34.558   1.210
83845W        W56105  16.957  14.630  12.718
83846W        W56106  16.697  10.675  10.716
83847W        W56107  35.981  17.155   0.881
83848W        W56108   3.035  33.182   2.792
83849W        W56109  22.039  13.831   2.851
83850W        W56110   6.393  11.675  14.454
83851W        W56111  41.862  41.392   4.025
83852W        W56112   7.820  41.736  11.956
83853W        W56113  35.714   6.822  12.453
83854W        W56114   1.287  31.426  13.053
83855W        W56115  32.026   0.093   2.326
83856W        W56116  12.398  44.876   2.180
83857W        W56117  31.641  38.021   1.149
83858W        W56118  18.097  38.777  13.275
83859W        W56119  21.912   6.983   0.954
83860W        W56120  14.944  14.094   5.616
83861W        W56121   3.836  42.771  12.510
83862W        W56122  29.466   1.722  11.034
83863W        W56123  42.131  36.617  12.057
83864W        W56124  25.773   7.499   4.481
83865W        W56125   4.926   0.418   4.424
83866W        W56126   8.771   2.999  12.854
83867W        W56127  10.103  42.525  13.949
83868W        W56128  12.050  22.608  12.994
83869W        W56129  11.841  39.545  11.599
83870W        W56130   3.294  32.153   4.120
83871W        W56131  26.359   1.213  11.927
83872W        W56132  34.795  23.455   1.799
83873W        W56133  12.808  18.231   1.376
83874W        W56134  14.894   3.789  12.385
83875W        W56135  41.281  43.733  12.498
83876W        W56136  38.078  40.958   2.688
83877W        W56137   6.149   2.661   0.378
83878W        W56138  31.551  11.395   3.236
83879W        W56139  16.855  18.919  14.895
83880W        W56140   5.234  19.229   1.927
83881W        W56141  39.994  25.496   4.683
83882W        W56142  12.569  25.157  12.360
83883W        W56143  44.399  20.572  10.725
83884W        W56144  21.968  36.208   3.737
83885W        W56145  12.069  34.507   1.787
83886W        W56146  20.049  31.194  11.043
83887W        W56147  10.555  17.028   1.357
83888W        W56148  34.921  21.157   1.788
83889W        W56149   6.163  15.661  10.226
83890W        W56150   6.973  32.933  13.427
83891W        W56151  11.680  17.673   2.655
83892W        W56152  24.525  38.090  10.428
83893W        W56153  30.432  16.165   2.719
83894W        W56154   3.558  41.470  11.477
83895W        W56155   1.727  28.882   3.166
83896W        W56156  29.487   6.381   2.287
83897W        W56157  37.342  14.405  12.683
83898W        W56158  37.562   1.756   2.917
83899W        W56159   0.982  23.131   3.231
83900W        W56160  40.874  16.676  13.921
83901W        W56161   6.469  28.589  12.929
83902W        W56162  40.782  41.468  11.677
83903W        W56163  15.342  35.441  14.206
83904W        W56164  36.013  17.000  10.752
83905W        W56165  32.937  25.491   0.206
83906W        W56166  17.317  19.324   5.032
83907W        W56167  36.320  23.189   1.180
83908W        W56168  14.354   2.868  10.470
83909W        W56169  14.387  21.578   3.668
83910W        W56170  30.895   5.135   0.107
83911W        W56171  44.536   1.031  11.229
83912W        W56172  24.532  10.147   3.252
83913W        W56173   7.868   4.295   3.579
83914W        W56174  43.041  11.527   4.484
83915W        W56175   1.736  33.105   4.192
83916W        W56176  24.646  44.011  10.387
83917W        W56177  24.199  31.361   4.103
83918W        W56178  41.808  15.298  11.629
83919W        W56179   1.239  30.553   1.732
83920W        W56180  44.738  34.486  14.799
83921W        W56181  35.951   5.152  11.075
83922W        W56182  20.375  12.849   0.393
83923W        W56183  12.288  23.530  12.979
83924W        W56184   4.733  43.444  11.496
83925W        W56185   1.498  42.344   0.752
83926W        W56186   7.969  10.569   2.362
83927W        W56187   2.535  13.912   2.637
83928W        W56188  42.556   0.378   4.065
83929W        W56189  21.002  43.021  13.305
83930W        W56190  42.782   1.520   1.762
83931W        W56191  10.244  18.685   3.392
83932W        W56192   3.502  40.929   1.621
83933W        W56193   9.965  44.597  14.360
83934W        W56194  37.337  29.624   0.773
83935W        W56195   8.020  25.086  13.892
83936W        W56196  27.020   4.966  14.779
83937W        W56197   9.202  26.723  11.331
83938W        W56198  44.567   0.401   2.722
83939W        W56199  29.460  18.345  11.032
83940W        W56200  37.353  25.132  13.886
83941W        W56201  27.878  34.885   1.278
83942W        W56202  33.910  21.142  11.137
83943W        W56203  40.432  40.694  14.495
83944W        W56204  20.713  44.973  12.342
83945W        W56205  19.857  35.535   1.842
83946W        W56206   5.673   3.750  12.908
83947W        W56207   2.401   9.469   4.436
83948W        W56208  22.155  32.030   2.867
83949W        W56209   7.349  41.053   2.203
83950W        W56210  33.586  44.487  11.133
83951W        W56211  29.156  41.840   2.981
83952W        W56212  20.219   3.000   4.253
83953W        W56213  27.914   2.210  13.904
83954W        W56214  42.946  28.196   0.527
83955W        W56215  12.872  43.085   3.705
83956W        W56216  38.477   1.974  14.887
83957W        W56217  39.310  20.003  11.026
83958W        W56218   6.123  12.582   0.385
83959W        W56219   0.265  28.992   4.143
83960W        W56220  19.146  17.029  12.477
83961W        W56221   8.215  39.298   0.230
83962W        W56222  30.568  23.020  10.630
83963W        W56223  35.627  33.012   2.255
83964W        W56224  16.575  22.719  11.593
83965W        W56225  27.981  36.794   3.233
83966W        W56226  14.642  36.511   2.130
83967W        W56227   7.265  42.045  10.652
83968W        W56228  23.545  24.406  12.603
83969W        W56229  13.460  26.557  13.587
83970W        W56230   8.844  43.561   3.619
83971W        W56231  40.129  11.649  12.371
83972W        W56232  35.499   0.536   4.164
83973W        W56233   0.004  27.565  12.901
83974W        W56234  28.069   7.213   4.623
83975W        W56235   7.908  38.856  13.582
83976W        W56236  28.935  24.662   0.887
83977W        W56237  25.262   2.424  11.048
83978W        W56238  24.176  33.466   2.646
83979W        W56239  33.032   3.763   1.324
83980W        W56240  13.928  26.745  13.467
83981W        W56241  37.373   9.696   3.417
83982W        W56242  28.833  11.913   4.751
83983W        W56243  10.643  15.195  10.751
83984W        W56244  27.675   4.942  13.158
83985W        W56245   6.467   1.249  14.942
83986W        W56246  25.949  36.332  13.760
83987W        W56247  20.471  12.731  14.798
83988W        W56248  11.915  13.906   2.264
83989W        W56249  29.485   4.659  12.647
83990W        W56250  26.495  27.415   4.998
83991W        W56251   6.193  35.813  13.041
83992W        W56252  17.274  38.814  13.059
83993W        W56253  15.190  42.944  12.108
83994W        W56254   5.271   1.065  11.725
83995W        W56255  28.015  43.280  10.752
83996W        W56256   0.321  17.570  11.041
83997W        W56257  32.543  23.992   1.897
83998W        W56258  20.736   1.629   4.151
83999W        W56259  39.089  15.223   1.426
84000W        W56260  43.438  29.641  14.982
84001W        W56261   9.890  21.187  10.723
84002W        W56262  30.544  19.122  14.124
84003W        W56263  32.430   0.059   0.912
84004W        W56264  13.257  31.437   1.340
84005W        W56265  24.721   9.687  11.659
84006W        W56266  33.683  44.907   4.139
84007W        W56267  33.629  44.682  12.919
84008W        W56268  28.561  13.112  13.849
84009W        W56269  36.874  20.680  12.589
84010W        W56270  28.933   4.683  10.594
84011W        W56271  23.754  11.749  13.417
84012W        W56272   5.169  19.141   4.649
84013W        W56273  25.577  25.726  11.577
84014W        W56274   2.098  30.505   0.466
84015W        W56275  30.441  12.129  14.471
84016W        W56276   1.001  36.064   3.124
84017W        W56277  42.724  24.920  13.505
84018W        W56278  34.432  10.054  13.397
84019W        W56279  30.966  32.448  14.792
84020W        W56280  22.034   6.429  12.984
84021W        W56281   7.400  41.533   4.777
84022W        W56282  38.430  13.607   2.832
84023W        W56283  11.688  43.971  13.298
84024W        W56284  12.143  44.756   0.935
84025W        W56285  24.308   9.862   4.241
84026W        W56286  15.024  39.318  10.603
84027W        W56287   6.240   4.655  14.799
84028W        W56288  14.843  37.441  13.942
84029W        W56289   8.244  27.491  13.927
84030W        W56290  31.099  44.865  14.286
84031W        W56291  18.181   8.167   4.142
84032W        W56292  26.513   4.498   1.398
84033W        W56293  37.364  26.571  12.130
84034W        W56294  41.005  18.589   2.643
84035W        W56295  19.203  21.004   2.802
84036W        W56296  15.437  19.985  12.974
84037W        W56297  10.673   2.326   1.637
84038W        W56298  37.337   3.979   0.196
84039W        W56299  20.167  23.490  11.033
84040W        W56300   8.758  22.686  14.052
84041W        W56301   7.897  42.427  11.096
84042W        W56302   8.304   6.539  14.843
84043W        W56303  24.555  16.915  13.945
84044W        W56304  35.401  42.497   3.729
84045W        W56305  44.759  41.395  12.428
84046W        W56306  29.623   7.151   0.942
84047W        W56307   9.711  14.579   1.797
84048W        W56308  19.461   6.823   4.902
84049W        W56309  33.052  29.368   2.780
84050W        W56310  23.194  25.191   3.578
84051W        W56311  12.113  18.132  11.687
84052W        W56312  22.028  41.286  10.649
84053W        W56313   6.567  41.232   3.312
84054W        W56314   5.633  25.065  13.357
84055W        W56315  24.628  32.937  14.224
84056W        W56316  17.440  41.753   1.723
84057W        W56317  34.963   4.272   1.269
84058W        W56318  17.137  30.475   0.535
84059W        W56319   5.733  31.482  11.889
84060W        W56320  35.352  41.295  10.733
84061W        W56321  44.530  29.170  13.054
84062W        W56322   1.985  17.773  14.505
84063W        W56323  43.361  37.710   1.580
84064W        W56324  14.649  18.272   0.225
84065W        W56325  11.119  14.751  14.286
84066W        W56326  14.582   9.190   1.534
84067W        W56327  24.100  40.791   0.393
84068W        W56328  44.864   8.102  14.102
84069W        W56329  20.058   1.691   3.292
84070W        W56330  42.504  21.552  11.884
84071W        W56331  19.686   7.124   0.346
84072W        W56332  42.594  39.367  12.958
84073W        W56333   6.428  25.179  12.066
84074W        W56334  13.808  40.676   4.751
84075W        W56335  20.559  29.485   2.822
84076W        W56336  40.286  16.106  12.930
84077W        W56337  28.944   8.597  13.549
84078W        W56338  33.475  20.532  10.463
84079W        W56339   4.698  19.729  12.433
84080W        W56340   4.368  43.840  13.737
84081W        W56341   8.784   5.242   2.377
84082W        W56342  33.411  44.919   4.968
84083W        W56343  30.374  10.378  11.527
84084W        W56344   2.477  10.313  12.961
84085W        W56345  33.071  38.115  12.921
84086W        W56346  23.963   3.708   2.368
84087W        W56347  11.167   1.328   0.885
84088W        W56348  28.249  43.788  12.496
84089W        W56349   0.009   3.505  13.906
84090W        W56350  37.956  15.929   0.387
84091W        W56351  16.981  26.680   4.551
84092W        W56352  17.466  38.853   4.133
84093W        W56353  27.406  21.584  14.060
84094W        W56354  21.282  38.118  12.027
84095W        W56355   2.665  40.371  12.368
84096W        W56356  13.636  34.643   0.925
84097W        W56357  38.247  22.160  11.183
84098W        W56358  19.662  31.709  11.140
84099W        W56359  24.953  44.487   4.697
84100W        W56360   0.671  33.847  12.498
84101W        W56361  18.693  32.135   0.300
84102W        W56362   1.323  21.241   1.721
84103W        W56363  13.121   1.735   0.980
84104W        W56364  32.853  29.870   2.784
84105W        W56365  25.846   4.191  14.490
84106W        W56366  15.187  14.918   9.811
84107W        W56367  30.139  11.724   0.812
84108W        W56368  17.278  37.841   1.404
84109W        W56369  43.494  16.658  14.922
84110W        W56370  18.739  35.564   0.314
84111W        W56371   0.437  18.974  12.490
84112W        W56372  14.881  12.049   0.813
84113W        W56373  32.139  40.144  14.399
84114W        W56374   3.462   4.329   3.210
84115W        W56375  37.573  17.243   0.361
84116W        W56376   5.477  41.787  12.234
84117W        W56377  21.257  13.162  13.752
84118W        W56378  20.776  15.608  10.900
84119W        W56379  30.937  15.378  12.900
84120W        W56380   0.275   8.918  13.578
84121W        W56381  12.807   5.109   1.759
84122W        W56382  32.393  35.057   1.742
84123W        W56383  40.767   6.003   3.263
84124W        W56384  25.581   1.327  13.045
84125W        W56385  14.571  11.247  11.623
84126W        W56386  19.547  30.706   2.829
84127W        W56387   8.562  42.495  13.653
84128W        W56388  34.817  30.660  13.636
84129W        W56389   5.995  20.731   4.898
84130W        W56390  28.169  44.190   1.816
84131W        W56391   0.157  29.528  12.859
84132W        W56392  27.713  35.855   3.585
84133W        W56393   0.875  16.849  11.341
84134W        W56394   6.110  23.316  11.187
84135W        W56395  39.462  37.952  11.182
84136W        W56396  42.337  35.293   1.340
84137W        W56397   9.305  35.666  12.391
84138W        W56398   4.813  30.446   3.867
84139W        W56399  36.341  15.077   0.926
84140W        W56400   6.411  11.756   1.441
84141W        W56401   2.935  23.239  11.643
84142W        W56402  35.504  16.566   4.861
84143W        W56403  42.042  28.010  14.762
84144W        W56404  11.648  32.647   2.743
84145W        W56405  12.241   9.316  12.485
84146W        W56406  40.113   3.429   3.311
84147W        W56407  13.032  20.198  11.368
84148W        W56408  43.011   0.549  11.618
84149W        W56409  13.366  44.524  12.099
84150W        W56410  19.667  28.593   3.755
84151W        W56411  43.286   9.446   2.376
84152W        W56412  18.435   0.844   2.326
84153W        W56413  36.851  34.886   1.364
84154W        W56414  22.678  25.964  11.127
84155W        W56415  10.854  24.617  10.770
84156W        W56416  20.109   5.601   5.532
84157W        W56417  27.505   4.380  11.558
84158W        W56418  10.066   4.697  12.931
84159W        W56419  30.115   2.476  13.763
84160W        W56420  28.984  37.585  13.754
84161W        W56421  28.580   2.292   2.000
84162W        W56422  34.880  14.691  11.760
84163W        W56423   0.841  10.362  12.915
84164W        W56424  26.139  25.223   1.011
84165W        W56425  29.614  35.539  13.682
84166W        W56426  31.529  44.861   4.197
84167W        W56427   4.040  32.462  10.675
84168W        W56428  42.872  18.076  11.670
84169W        W56429  40.932   7.233   4.749
84170W        W56430   1.516  17.361  13.796
84171W        W56431  15.826  24.075  10.796
84172W        W56432  28.183   9.739  10.538
84173W        W56433   9.333  27.214   0.901
84174W        W56434  34.684  28.158   1.851
84175W        W56435   0.399  20.643   0.785
84176W        W56436  31.999   3.967   1.116
84177W        W56437  28.453   6.022   4.116
84178W        W56438  11.481  31.968  14.754
84179W        W56439  21.208  38.623  11.130
84180W        W56440  33.391   1.379  14.536
84181W        W56441   2.549  17.736   2.724
84182W        W56442  37.623  32.993   1.371
84183W        W56443   1.250   5.445   2.112
84184W        W56444  12.997  44.500   3.784
84185W        W56445  40.210  43.880  13.451
84186W        W56446  32.908  30.156   2.280
84187W        W56447   8.177  31.570   0.394
84188W        W56448  31.601   5.373  10.940
84189W        W56449  38.025  30.431   1.797
84190W        W56450  33.533  43.777  10.674
84191W        W56451  11.708   9.841   1.181
84192W        W56452  27.017  23.829   0.820
84193W        W56453  12.345  20.141   4.819
84194W        W56454  34.151  15.118   0.795
84195W        W56455   5.487  29.068  10.062
84196W        W56456   7.232  14.488  10.749
84197W        W56457  24.765  29.054  13.984
84198W        W56458  26.473   9.591   0.712
84199W        W56459  40.505  17.799  14.695
84200W        W56460  29.928  37.385   1.404
84201W        W56461  12.154  30.005  14.404
84202W        W56462  31.504  27.900  12.157
84203W        W56463  44.029   6.734   3.603
84204W        W56464  24.161  18.055  12.043
84205W        W56465  33.250  36.386  13.578
84206W        W56466  31.346  20.669  13.555
84207W        W56467  10.774  21.237   2.336
84208W        W56468  43.545  39.077   3.168
84209W        W56469  28.617  10.678   1.698
84210W        W56470  38.542  36.000   4.158
84211W        W56471  22.735   3.887  14.925
84212W        W56472  14.382  19.234  14.738
84213W        W56473  37.911  27.605   1.671
84214W        W56474  16.132  16.687  10.332
84215W        W56475  19.549  10.659   0.902
84216W        W56476  39.307  11.666  11.134
84217W        W56477   9.149  12.645   4.618
84218W        W56478  10.906   6.820   0.361
84219W        W56479  40.973  11.812   1.590
84220W        W56480  15.074  11.580  14.954
84221W        W56481  36.321   1.311   3.054
84222W        W56482  31.388  35.500   3.431
84223W        W56483   0.848  29.662  11.734
84224W        W56484  29.500   1.969   4.637
84225W        W56485   4.765  22.949  13.938
84226W        W56486  11.382  34.127  14.356
84227W        W56487  21.456  16.226   3.122
84228W        W56488  22.640  26.670   4.640
84229W        W56489  24.413  24.242  13.917
84230W        W56490  11.910   6.029  14.307
84231W        W56491   4.333  17.831   1.997
84232W        W56492  39.451  16.857  13.368
84233W        W56493   5.332  27.923   0.043
84234W        W56494  33.072  14.099   0.403
84235W        W56495  24.233   4.726  11.521
84236W        W56496  41.993  38.141  11.419
84237W        W56497  29.408  18.774   3.528
84238W        W56498  26.548  38.471   2.925
84239W        W56499  37.819  37.902  11.826
84240W        W56500  25.725  26.207  11.337
84241W        W56501  19.818  25.488   3.188
84242W        W56502  18.637  27.712  14.400
84243W        W56503  11.113  35.328  14.683
84244W        W56504  44.129  18.386  13.603
84245W        W56505   8.309  14.117   3.910
84246W        W56506   0.925   7.934  11.286
84247W        W56507  16.556  37.273   1.499
84248W        W56508  18.766  43.246  12.763
84249W        W56509  26.604  16.966  12.036
84250W        W56510   9.708   8.363   2.441
84251W        W56511   4.324  10.799  12.162
84252W        W56512  14.103  15.336   3.233
84253W        W56513  28.620  30.108  14.459
84254W        W56514  24.602  21.663   3.914
84255W        W56515  30.112  28.147   0.362
84256W        W56516  38.797   5.733  14.853
84257W        W56517  12.785  30.032   1.678
84258W        W56518  28.684   0.518   4.035
84259W        W56519  31.394  28.689  13.468
84260W        W56520  32.116   3.296   2.633
84261W        W56521  35.910  22.532   1.843
84262W        W56522  31.611  13.600  14.229
84263W        W56523  36.557  23.164   4.148
84264W        W56524  44.826  22.957  11.159
84265W        W56525  21.596  25.688  11.062
84266W        W56526  24.576   4.280  14.700
84267W        W56527  21.505  14.213  11.453
84268W        W56528  29.981   3.458   0.358
84269W        W56529  41.382  40.151   1.869
84270W        W56530  31.999  44.964  11.326
84271W        W56531  16.978  26.489  11.508
84272W        W56532  14.808  15.801  13.066
84273W        W56533  10.293   4.965  13.299
84274W        W56534  12.395   5.817  13.401
84275W        W56535  35.744   9.050   3.615
84276W        W56536  32.217  15.595   4.557
84277W        W56537  33.374  27.072   2.383
84278W        W56538  15.100   6.193   2.896
84279W        W56539  25.154  35.697   3.780
84280W        W56540  32.627  17.419   4.905
84281W        W56541  12.298   9.810  11.516
84282W        W56542  31.476  40.553  12.477
84283W        W56543  10.724  18.662  12.708
84284W        W56544  32.345  10.850   3.414
84285W        W56545  10.285   3.614  14.953
84286W        W56546   2.231  32.502  11.196
84287W        W56547  37.049  27.260   4.591
84288W        W56548  39.936  34.398   0.310
84289W        W56549   6.889   9.155   0.469
84290W        W56550  13.034  41.461  12.000
84291W        W56551  40.405   2.385  13.135
84292W        W56552  12.110  35.453  14.498
84293W        W56553  10.331  40.129   4.145
84294W        W56554  17.535   8.165   2.230
84295W        W56555  30.858  38.995   3.368
84296W        W56556  40.777  23.524   2.167
84297W        W56557  19.623  23.924   3.748
84298W        W56558  20.758   4.804  11.230
84299W        W56559  27.242  36.637   0.236
84300W        W56560  19.690  38.298   0.536
84301W        W56561  44.983   0.046  12.038
84302W        W56562  30.120  22.834  12.569
84303W        W56563   6.359  19.655   3.603
84304W        W56564   3.673  30.530   3.685
84305W        W56565  26.518  27.072   1.277
84306W        W56566   4.745   9.724  11.085
84307W        W56567  31.967  35.377  14.873
84308W        W56568   5.080  23.543  14.798
84309W        W56569  27.255  35.068   3.886
84310W        W56570  35.892   0.779   4.646
84311W        W56571  19.373   9.732   4.561
84312W        W56572  15.764   9.241  11.756
84313W        W56573  13.581  30.710   2.306
84314W        W56574  37.078   8.257   5.228
84315W        W56575  23.960   2.481  13.903
84316W        W56576  11.008  18.059   0.361
84317W        W56577   6.313  36.057   3.829
84318W        W56578  35.284   1.436   1.259
84319W        W56579   4.458  12.394  12.894
84320W        W56580   0.321  41.557  11.741
84321W        W56581   0.498  32.434  11.581
84322W        W56582  39.844  41.292  11.206
84323W        W56583   2.555  20.296   4.616
84324W        W56584  38.643  27.598  10.198
84325W        W56585  41.756  20.986   9.957
84326W        W56586  29.359  40.509   0.467
84327W        W56587  30.487   3.333   0.299
84328W        W56588  21.907  28.698   9.699
84329W        W56589   0.065  11.875  13.079
84330W        W56590   1.157  25.133   1.853
84331W        W56591  32.647  15.786  10.889
84332W        W56592  35.944  29.765   1.912
84333W        W56593  24.233  34.871  11.081
84334W        W56594  35.599  28.820  14.290
84335W        W56595  27.612  14.431  10.843
84336W        W56596   4.196  33.796  11.607
84337W        W56597  33.066  27.990  11.017
84338W        W56598  16.554  24.294  13.559
84339W        W56599  11.414  30.544  11.174
84340W        W56600   6.454  37.431  12.672
84341W        W56601   3.623  24.892   4.097
84342W        W56602   1.296  15.396   1.155
84343W        W56603  26.670  41.414  11.591
84344W        W56604  44.337   5.515   5.089
84345W        W56605  32.856  11.250  10.645
84346W        W56606  37.277  38.854   0.482
84347W        W56607  31.753   6.772  12.556
84348W        W56608   3.714  11.755  14.390
84349W        W56609  21.726  25.748  14.438
84350W        W56610  40.876  40.811   3.770
84351W        W56611  16.391  14.601   5.403
84352W        W56612  37.113  44.403   0.323
84353W        W56613  20.035   3.567   4.320
84354W        W56614  33.979  10.882  11.094
84355W        W56615  41.034  35.045   0.230
84356W        W56616  43.424  16.181   4.412
84357W        W56617  12.857  11.269   4.687
84358W        W56618  18.713   1.723  11.704
84359W        W56619  21.782  17.189  13.933
84360W        W56620   3.876  35.008   3.182
84361W        W56621  36.425  41.354  10.718
84362W        W56622  24.346   3.429   1.006
84363W        W56623   6.493  15.835  11.129
84364W        W56624  39.806  43.778  10.728
84365W        W56625   7.416  16.517   3.558
84366W        W56626  31.845   6.875  11.240
84367W        W56627   1.317  16.789  11.579
84368W        W56628  36.616  11.173  10.663
84369W        W56629  32.150   9.151   3.250
84370W        W56630  21.772  16.508   2.820
84371W        W56631  43.175  11.371  12.529
84372W        W56632  34.748   5.675  13.497
84373W        W56633  14.060  39.853   4.304
84374W        W56634   4.095  43.734   0.903
84375W        W56635  11.210   8.887   3.697
84376W        W56636   5.843  39.532  14.747
84377W        W56637  37.949  21.268  14.986
84378W        W56638   1.664  29.188  13.454
84379W        W56639  22.612   4.143   1.379
84380W        W56640  44.295  10.173   2.748
84381W        W56641   7.743  13.416   1.830
84382W        W56642  31.069  12.873  13.183
84383W        W56643  40.309  38.938   4.174
84384W        W56644   3.828  34.617  10.833
84385W        W56645  31.835   6.839   2.577
84386W        W56646   2.237  26.122   2.810
84387W        W56647  26.261   2.388  13.331
84388W        W56648  19.158   8.515  12.040
84389W        W56649  41.302  29.982  14.586
84390W        W56650  13.660  13.409   0.681
84391W        W56651  23.082  10.381  11.688
84392W        W56652   9.056   6.870  12.831
84393W        W56653  30.218  30.451  11.137
84394W        W56654  17.661  15.671  11.666
84395W        W56655  33.513  41.034  13.930
84396W        W56656  13.110  10.774   0.456
84397W        W56657  17.314  27.919   4.950
84398W        W56658  35.408  31.446  14.211
84399W        W56659   8.692  23.743   0.525
84400W        W56660  27.959  42.773   0.752
84401W        W56661   8.692  20.664  10.956
84402W        W56662  14.205  43.299  14.948
84403W        W56663  27.738  42.384   3.601
84404W        W56664  29.449   1.331   1.022
84405W        W56665  32.672  11.683   4.271
84406W        W56666   2.345  11.199  14.193
84407W        W56667  19.345  26.236   4.676
84408W        W56668  43.958  22.660  10.745
84409W        W56669  14.231   8.238   0.851
84410W        W56670  34.987  14.132   1.280
84411W        W56671  31.077  30.318   2.289
84412W        W56672  30.969   9.876   2.406
84413W        W56673   1.018  38.472  13.983
84414W        W56674   1.176  39.104   2.768
84415W        W56675  28.890  25.083  10.463
84416W        W56676  17.342  28.684   0.929
84417W        W56677   3.680  23.179  12.966
84418W        W56678  19.847  19.607   5.060
84419W        W56679  43.734   7.660   3.786
84420W        W56680  31.587   3.306   0.996
84421W        W56681  19.136   8.470  14.327
84422W        W56682  16.127  15.178   4.021
84423W        W56683   1.738  36.989  11.454
84424W        W56684  20.609  40.844   2.395
84425W        W56685  26.970  28.902   2.750
84426W        W56686  41.964  11.299   2.831
84427W        W56687  19.491   0.487  13.052
84428W        W56688  33.031  36.783  11.442
84429W        W56689   4.305   2.454  11.541
84430W        W56690  25.947  19.529   2.477
84431W        W56691  24.266  31.884   3.247
84432W        W56692  31.931  16.790   2.936
84433W        W56693  37.059  27.523   3.266
84434W        W56694  29.217   5.758   3.835
84435W        W56695  23.171  35.339  12.462
84436W        W56696   2.730  36.326   2.820
84437W        W56697  43.014   7.383   9.806
84438W        W56698   0.993  35.912  12.044
84439W        W56699   7.841  12.877   4.594
84440W        W56700  17.546  25.093  10.779
84441W        W56701  16.666  44.860  12.488
84442W        W56702  25.035   8.346  13.984
84443W        W56703  23.182   6.742   4.593
84444W        W56704  19.544  14.684   0.351
84445W        W56705  16.164   2.989  10.632
84446W        W56706  29.732   2.470   4.567
84447W        W56707  32.366  37.123   3.760
84448W        W56708   7.450  28.481  11.336
84449W        W56709   3.521   8.727  12.385
84450W        W56710   1.849  36.156  11.148
84451W        W56711  16.191  19.151  11.678
84452W        W56712  15.435  31.631   3.130
84453W        W56713  34.505  37.504   0.290
84454W        W56714  36.793  21.778  14.687
84455W        W56715   1.083  11.768  11.217
84456W        W56716  37.674   2.506  12.036
84457W        W56717  24.443  33.441   4.297
84458W        W56718  13.353  42.695   3.334
84459W        W56719  44.464  37.913   2.311
84460W        W56720  31.519  24.210   4.527
84461W        W56721  27.238  37.396  11.869
84462W        W56722  10.244   3.375   2.823
84463W        W56723  19.505  18.565   4.120
84464W        W56724  17.662   8.414   9.759
84465W        W56725  28.083  10.998  10.219
84466W        W56726  38.012   9.669   5.493
84467W        W56727  43.298  14.795  14.166
84468W        W56728  37.797  37.471  11.538
84469W        W56729   8.121   1.340   1.828
84470W        W56730   7.314  17.592  14.450
84471W        W56731  13.008   3.978  12.201
84472W        W56732  26.038  36.401  14.772
84473W        W56733   1.186  17.613  11.118
84474W        W56734  13.961   5.477  14.684
84475W        W56735   4.801  42.909   1.156
84476W        W56736  26.069  35.420  13.028
84477W        W56737  41.953  41.789   0.981
84478W        W56738  19.834  16.333  14.891
84479W        W56739  30.637   3.342  11.956
84480W        W56740   3.316  36.510   3.651
84481W        W56741  16.975  32.989  11.374
84482W        W56742   3.334  27.901  10.460
84483W        W56743  10.185  39.627  14.402
84484W        W56744  18.239  34.324  11.202
84485W        W56745  19.769  28.650  12.105
84486W        W56746  13.697  10.559  12.356
84487W        W56747  20.088  33.973  14.357
84488W        W56748  30.869  43.077  14.925
84489W        W56749  32.231  41.963  12.543
84490W        W56750  14.277  10.154   0.644
84491W        W56751   6.302  44.103   1.501
84492W        W56752   1.539  35.764  11.180
84493W        W56753  25.688  26.133   1.979
84494W        W56754  41.783  40.852  12.802
84495W        W56755  30.388  21.463   2.310
84496W        W56756  15.190  14.579  12.347
84497W        W56757  36.268  22.626  11.987
84498W        W56758   9.915   2.622   0.823
84499W        W56759   4.211  41.231  12.237
84500W        W56760  39.062  39.336   0.816
84501W        W56761  35.560  36.946  13.423
84502W        W56762  11.176  36.806   1.784
84503W        W56763  30.420  32.149   1.781
84504W        W56764   6.729  35.862  10.920
84505W        W56765  34.937  16.904   4.046
84506W        W56766  34.290  12.651  14.570
84507W        W56767  20.845  30.096  12.093
84508W        W56768  17.455   5.007   2.239
84509W        W56769   3.498  17.774  13.076
84510W        W56770   3.267  13.123   4.624
84511W        W56771  11.621   3.507  13.389
84512W        W56772   1.664  24.993  13.920
84513W        W56773  44.788  34.877  14.065
84514W        W56774   1.766  28.087   3.495
84515W        W56775  40.406  15.133  13.891
84516W        W56776  28.109   2.085  11.185
84517W        W56777  13.276  22.287  14.046
84518W        W56778  34.583   7.131   2.428
84519W        W56779  36.653   8.855  13.583
84520W        W56780  38.727  18.168  13.533
84521W        W56781  41.602   9.199   1.484
84522W        W56782   2.658  26.405   2.727
84523W        W56783  14.883  18.344   4.143
84524W        W56784   1.704  41.908   3.679
84525W        W56785  35.859  18.365   1.808
84526W        W56786  26.136  35.131  11.388
84527W        W56787   2.781  25.754   3.679
84528W        W56788  32.153  28.152   1.322
84529W        W56789  40.326   7.371  12.586
84530W        W56790   8.457  39.900   4.084
84531W        W56791  23.067  13.843  12.036
84532W        W56792  23.160   6.250  13.856
84533W        W56793   7.683  44.365  14.522
84534W        W56794  19.653  36.863   3.186
84535W        W56795  15.026  35.292  13.234
84536W        W56796  41.533  25.934   0.921
84537W        W56797  32.154  37.375  12.594
84538W        W56798  24.582  29.553   4.097
84539W        W56799  26.561  23.312  12.647
84540W        W56800  17.757   9.271   1.461
84541W        W56801   3.962  43.343  14.389
84542W        W56802  22.644  23.018  10.582
84543W        W56803   0.025  16.549  11.741
84544W        W56804  25.174  24.375  13.160
84545W        W56805  34.059  28.129  14.250
84546W        W56806  22.461  33.515  11.938
84547W        W56807  18.690  41.315  12.634
84548W        W56808  35.019  40.849   0.948
84549W        W56809  11.295  10.237   4.619
84550W        W56810  17.028   4.636   4.126
84551W        W56811  25.947  20.597  12.110
84552W        W56812  38.790   3.782  13.957
84553W        W56813  28.702  24.655   2.571
84554W        W56814  32.294  37.106   2.250
84555W        W56815  23.950   3.243   1.413
84556W        W56816  41.276   8.214   2.899
84557W        W56817  22.066  32.736   1.289
84558W        W56818  29.889  43.897  11.170
84559W        W56819  22.722   7.315   4.189
84560W        W56820  34.005  14.486   4.732
84561W        W56821  20.104  12.609   2.721
84562W        W56822  27.599  30.593   4.188
84563W        W56823  18.572  29.040  10.592
84564W        W56824  14.270   0.623   0.295
84565W        W56825  37.489  35.542   2.113
84566W        W56826  13.035  44.846   2.801
84567W        W56827  25.981  43.717  13.522
84568W        W56828   9.258  19.005  12.857
84569W        W56829  26.062  36.451  14.252
84570W        W56830  44.621   4.783   4.424
84571W        W56831   8.442  29.771   1.825
84572W        W56832  22.523  14.388   3.618
84573W        W56833  39.395  21.497  12.039
84574W        W56834  23.544  18.506   4.990
84575W        W56835  44.262   1.931  10.106
84576W        W56836  15.842  32.077   2.566
84577W        W56837  37.374  18.597   1.964
84578W        W56838  22.703  35.514   0.652
84579W        W56839  34.861  26.390   0.269
84580W        W56840   0.369  13.954  11.605
84581W        W56841   2.180   9.642   3.182
84582W        W56842   8.445  29.450   4.610
84583W        W56843  18.623  33.638   1.179
84584W        W56844  38.881  20.342  11.082
84585W        W56845  42.240  43.922   0.879
84586W        W56846  39.570  25.717  11.580
84587W        W56847  24.741  38.591   4.508
84588W        W56848  18.514  16.651   2.879
84589W        W56849  20.201  39.248  13.088
84590W        W56850  37.404  31.835   3.800
84591W        W56851  14.009  14.561  10.237
84592W        W56852  16.816  22.002   1.724
84593W        W56853  14.163   8.487   1.330
84594W        W56854  13.490   4.302  14.800
84595W        W56855  10.044  42.832  14.357
84596W        W56856  43.546  25.799  10.447
84597W        W56857  19.300  41.687   3.310
84598W        W56858  41.659  21.485  13.332
84599W        W56859  27.435   0.465  12.585
84600W        W56860  22.681  39.822   0.419
84601W        W56861  14.571  32.866   2.063
84602W        W56862  25.119   0.546   3.564
84603W        W56863  23.620  22.287  10.667
84604W        W56864  31.911  19.622   4.998
84605W        W56865  39.289  13.323   5.348
84606W        W56866  15.181  22.799   1.912
84607W        W56867   2.833  39.435   0.450
84608W        W56868   0.039  44.505   2.917
84609W        W56869   0.759  20.824   2.305
84610W        W56870  28.667   5.765  11.703
84611W        W56871   9.923  11.222   4.467
84612W        W56872  36.552  11.443  11.107
84613W        W56873  40.866  36.483  11.379
84614W        W56874  19.747   5.881  12.773
84615W        W56875  18.010   6.317  11.229
84616W        W56876  42.478  18.098   0.056
84617W        W56877  40.751  44.029   3.522
84618W        W56878  21.438  22.139   0.936
84619W        W56879  39.092  43.891  11.102
84620W        W56880  12.151  26.668   0.850
84621W        W56881  31.481   6.325   0.466
84622W        W56882  29.064  12.819  11.880
84623W        W56883  12.609   7.441   0.017
84624W        W56884  16.084   8.167  12.013
84625W        W56885  23.872   5.363  13.437
84626W        W56886  36.420   1.922  14.963
84627W        W56887  20.027  22.403  13.060
84628W        W56888   7.611   2.192   2.820
84629W        W56889  33.026   2.278   1.410
84630W        W56890  25.209   2.705   4.301
84631W        W56891  35.822  43.867  14.072
84632W        W56892  12.566  23.541  12.546
84633W        W56893   6.235  29.486   1.211
84634W        W56894  30.355  43.310   1.718
84635W        W56895   8.031  27.646  11.521
84636W        W56896   5.787  28.045  12.933
84637W        W56897  24.429  27.418  10.645
84638W        W56898  10.296  11.046   4.083
84639W        W56899  13.608  36.495   1.224
84640W        W56900  14.535  32.939   3.570
84641W        W56901  43.499  28.043   1.277
84642W        W56902  31.902  21.763   2.459
84643W        W56903  23.621  10.680   4.657
84644W        W56904   3.741   9.598  11.246
84645W        W56905  35.550  34.534  14.028
84646W        W56906   0.688   8.223  12.481
84647W        W56907  23.652  12.186  11.769
84648W        W56908  39.344  20.293   4.573
84649W        W56909   0.377   1.779  12.405
84650W        W56910  11.369  11.240   4.861
84651W        W56911   1.101  44.952   0.555
84652W        W56912  38.063  39.066  12.394
84653W        W56913   5.396  31.668   4.362
84654W        W56914  10.126  12.086  11.208
84655W        W56915  33.997  26.992  13.352
84656W        W56916  43.353  35.608   2.952
84657W        W56917   6.696  24.415  11.534
84658W        W56918  18.840  36.371  14.916
84659W        W56919  29.264  43.984   4.737
84660W        W56920  44.753  34.294   2.713
84661W        W56921   5.750   8.829  14.730
84662W        W56922  17.646   5.641   1.667
84663W        W56923  18.351  28.222   3.281
84664W        W56924  29.663  29.647  10.044
84665W        W56925   2.749  20.567  11.237
84666W        W56926  40.420  11.707  13.016
84667W        W56927  31.166   8.274  11.325
84668W        W56928  29.702   6.197  11.960
84669W        W56929   6.246   2.803  13.049
84670W        W56930  23.436  36.356   4.641
84671W        W56931  32.004  26.239  14.840
84672W        W56932  37.115  20.375   1.691
84673W        W56933   4.480  42.188  12.387
84674W        W56934  28.653  12.559   0.193
84675W        W56935  43.465  17.573   0.312
84676W        W56936  23.892  14.158   4.985
84677W        W56937  11.742  11.388   1.694
84678W        W56938   3.026  20.003   2.333
84679W        W56939   4.247  41.983   2.940
84680W        W56940   9.412  40.628  13.829
84681W        W56941   9.666   4.011  14.495
84682W        W56942   5.498  27.718  11.144
84683W        W56943  38.517  36.847  14.660
84684W        W56944   5.694  21.297   3.690
84685W        W56945  14.821  12.531  12.190
84686W        W56946  17.239  13.278  12.406
84687W        W56947  43.055   7.437   2.697
84688W        W56948  33.796  18.662   1.703
84689W        W56949  15.132  24.954  12.028
84690W        W56950   2.522   6.597   4.004
84691W        W56951   6.237  31.444  12.961
84692W        W56952   1.580  38.982   4.525
84693W        W56953   9.939   0.447   2.849
84694W        W56954  26.252  17.661   0.441
84695W        W56955  35.558  40.752   3.651
84696W        W56956  23.480  42.633   3.218
84697W        W56957  37.300  10.583   4.278
84698W        W56958  23.495   0.876   4.833
84699W        W56959  10.272  32.250   3.156
84700W        W56960  29.202   3.715   3.782
84701W        W56961  41.818  38.038  14.366
84702W        W56962  25.195  32.519   0.456
84703W        W56963  12.595   1.777  10.667
84704W        W56964  32.399  35.370   4.134
84705W        W56965   7.915  34.671   3.704
84706W        W56966  37.952  28.603   2.418
84707W        W56967  14.294   2.425   0.775
84708W        W56968  24.484  42.262  12.287
84709W        W56969   1.294   7.225   0.534
84710W        W56970   7.068  22.044  13.031
84711W        W56971  27.907  22.243   2.241
84712W        W56972  23.533  20.167  14.312
84713W        W56973  12.705  17.544   1.755
84714W        W56974   9.592  31.004   0.857
84715W        W56975  16.185   3.769  14.216
84716W        W56976  41.530  31.762   5.064
84717W        W56977  18.540  41.763   2.829
84718W        W56978  14.249   3.841  11.412
84719W        W56979  34.431  24.101   2.306
84720W        W56980  11.593  12.347   0.576
84721W        W56981  26.930  40.653   0.830
84722W        W56982  12.860   3.512  12.374
84723W        W56983  41.880  19.673   0.885
84724W        W56984  19.804  42.899  14.612
84725W        W56985  34.612  43.874  10.657
84726W        W56986  10.872   3.363   3.521
84727W        W56987  34.799  14.103   3.899
84728W        W56988  10.799  32.082  12.077
84729W        W56989  16.078  27.889  11.099
84730W        W56990  31.471   1.296  12.488
84731W        W56991  39.734   6.766  12.028
84732W        W56992  24.957  33.465   4.399
84733W        W56993   4.424  11.748  14.044
84734W        W56994  29.913  13.533   3.235
84735W        W56995  25.236  37.969   2.589
84736W        W56996   9.619  35.754  11.601
84737W        W56997  11.277   1.457   4.512
84738W        W56998  21.246  40.215  14.334
84739W        W56999  29.482  39.634  11.908
84740W        W57000  22.574  43.557   1.792
84741W        W57001  21.693  38.008  13.315
84742W        W57002  23.863  24.520  13.509
84743W        W57003  23.140  25.551  10.695
84744W        W57004  31.811   4.479  13.071
84745W        W57005  33.222  40.349  10.970
84746W        W57006   4.691  18.280  14.848
84747W        W57007  28.403  16.123   1.338
84748W        W57008   2.091   3.258   2.241
84749W        W57009   7.186  39.952   2.766
84750W        W57010  31.424  26.422  11.436
84751W        W57011  23.435   0.858  13.141
84752W        W57012  24.287  32.945   2.781
84753W        W57013  42.905  12.563  11.944
84754W        W57014  26.583  41.004  13.832
84755W        W57015  27.727   7.540   4.858
84756W        W57016  44.821  28.065  12.964
84757W        W57017  30.023  28.111  13.783
84758W        W57018   2.831  17.635  11.518
84759W        W57019  15.312  36.532  12.168
84760W        W57020  11.049  14.308   1.937
84761W        W57021  28.337  32.684   5.016
84762W        W57022   8.173  12.940  12.997
84763W        W57023  13.710  37.883   2.903
84764W        W57024   8.326  19.787   0.573
84765W        W57025  23.189  29.874  14.262
84766W        W57026  30.894  28.278   1.909
84767W        W57027  12.393  22.498  11.120
84768W        W57028  16.297  40.458   0.269
84769W        W57029  30.475  41.205   3.806
84770W        W57030  33.272  39.758   1.314
84771W        W57031  18.872  25.101   4.088
84772W        W57032  22.839  34.997   1.417
84773W        W57033  18.629  41.318  11.602
84774W        W57034  37.890  28.609   3.745
84775W        W57035  34.825  21.258   3.309
84776W        W57036  13.730   8.339  11.755
84777W        W57037  37.579  36.907   1.822
84778W        W57038   7.969   3.112   2.440
84779W        W57039  36.007  26.679   2.917
84780W        W57040   2.341  43.372  13.998
84781W        W57041   7.652  12.204  12.047
84782W        W57042  17.713   2.773  11.429
84783W        W57043  40.923   9.642   2.142
84784W        W57044  24.686  18.455   0.283
84785W        W57045   8.643  16.561  11.110
84786W        W57046  34.864  21.045  13.482
84787W        W57047  36.492  35.122   4.044
84788W        W57048  44.518  37.904   1.417
84789W        W57049  18.873  16.767  12.024
84790W        W57050  32.352  38.907  12.167
84791W        W57051  11.961  38.449   3.792
84792W        W57052  18.461  42.401  12.240
84793W        W57053  28.021  36.605   2.737
84794W        W57054  11.004  17.430   4.177
84795W        W57055  25.668  34.378  12.422
84796W        W57056  11.411  21.088  10.688
84797W        W57057  42.348  25.828  13.181
84798W        W57058  41.011  18.100  11.328
84799W        W57059   0.193   9.679  14.036
84800W        W57060  32.936  29.566  14.056
84801W        W57061  20.168   8.204   0.791
84802W        W57062  36.547   0.945  14.733
84803W        W57063  35.287  31.354  12.882
84804W        W57064   1.704  33.470  11.230
84805W        W57065  19.058  12.134  12.931
84806W        W57066  16.507  12.140   2.763
84807W        W57067  17.581  20.491  12.052
84808W        W57068  29.846   1.254   2.221
84809W        W57069  31.739  42.981  13.393
84810W        W57070  30.893  13.230   4.261
84811W        W57071  28.870  19.078  10.670
84812W        W57072   2.702  15.284   3.859
84813W        W57073  32.023  42.282   0.380
84814W        W57074  15.476  34.825   5.257
84815W        W57075   3.019  19.679  12.961
84816W        W57076  27.339  36.274   1.431
84817W        W57077  18.259  26.130   0.749
84818W        W57078  17.610  36.281  11.567
84819W        W57079  20.541  13.698   2.814
84820W        W57080  21.956  25.755  11.457
84821W        W57081  30.414  15.833   0.898
84822W        W57082  32.082  25.737  14.775
84823W        W57083  15.814   8.827   0.339
84824W        W57084  28.277  35.401  11.072
84825W        W57085  22.711  17.376   5.139
84826W        W57086  28.205   7.697   4.720
84827W        W57087  20.929  35.344   5.030
84828W        W57088   0.679  18.275   4.144
84829W        W57089  12.797  13.066   1.755
84830W        W57090  24.683  42.486  11.420
84831W        W57091  43.951  10.628   3.538
84832W        W57092  40.946  42.591  10.535
84833W        W57093  25.625   9.971   1.360
84834W        W57094  18.595  38.159   4.242
84835W        W57095  19.482  15.284  14.723
84836W        W57096  34.577   0.319   1.286
84837W        W57097  40.503   4.750   0.678
84838W        W57098  41.071  21.496  14.837
84839W        W57099  40.761  35.047  11.111
84840W        W57100  38.898  36.361   4.689
84841W        W57101  23.002  21.568  13.016
84842W        W57102  25.215  21.943  10.858
84843W        W57103  29.598  43.861  13.704
84844W        W57104  32.110  19.057  10.651
84845W        W57105  11.251  35.470   4.746
84846W        W57106  37.423  33.611  12.416
84847W        W57107   0.316   6.386  11.659
84848W        W57108  41.861  12.407   0.389
84849W        W57109  22.600   4.935  11.258
84850W        W57110   0.912  27.020  14.280
84851W        W57111  23.745  11.242  14.995
84852W        W57112  11.242  28.582   2.234
84853W        W57113  21.687  22.067  12.492
84854W        W57114  35.797  16.618   1.038
84855W        W57115  14.128  18.692   1.256
84856W        W57116  36.017  36.461   0.785
84857W        W57117  41.544   4.468  14.754
84858W        W57118  19.187  13.296  13.418
84859W        W57119  32.702  33.618   2.148
84860W        W57120  27.562  23.534   3.348
84861W        W57121  32.608  13.155  13.632
84862W        W57122   0.695  27.078   0.076
84863W        W57123  21.236  30.452  12.085
84864W        W57124  26.728  29.116   3.409
84865W        W57125  33.055   3.848  11.567
84866W        W57126  20.626  38.075   1.789
84867W        W57127   5.120  28.089   5.582
84868W        W57128  33.965  30.151   4.070
84869W        W57129  23.831  24.344   2.822
84870W        W57130  15.478  11.310   4.794
84871W        W57131  18.219   2.642   0.770
84872W        W57132  10.209  24.957  14.892
84873W        W57133  35.847  42.754  11.975
84874W        W57134  24.272  42.734  13.540
84875W        W57135  20.692  40.882  12.376
84876W        W57136  37.514   5.304   4.447
84877W        W57137   2.250  42.842   4.605
84878W        W57138  19.005  31.435  11.131
84879W        W57139  25.690  38.884  11.500
84880W        W57140  42.951  40.004   1.672
84881W        W57141  21.640  36.358   3.061
84882W        W57142  35.294  44.938  13.526
84883W        W57143  42.262   2.208  12.304
84884W        W57144  26.219   3.518  11.974
84885W        W57145  12.070  37.618   2.186
84886W        W57146   4.464  13.675   4.620
84887W        W57147   6.715  16.739   1.728
84888W        W57148  31.393  39.730   3.997
84889W        W57149   1.509   7.401  14.560
84890W        W57150  28.260  22.507  11.988
84891W        W57151  25.223   0.498  11.565
84892W        W57152  43.943   2.993   1.860
84893W        W57153  30.539   7.882  10.937
84894W        W57154  35.255  42.685  13.987
84895W        W57155  17.273  39.483   1.420
84896W        W57156  42.501  35.360  14.298
84897W        W57157  33.897  14.204  11.543
84898W        W57158  30.992  32.109   0.390
84899W        W57159  12.403  37.551  11.915
84900W        W57160   7.182  29.870   2.436
84901W        W57161  42.939  19.933  14.958
84902W        W57162  10.762  39.821   4.127
84903W        W57163  25.192  32.007   0.893
84904W        W57164  26.606  20.110  13.439
84905W        W57165  33.397  31.477  13.015
84906W        W57166  39.468   8.457   5.022
84907W        W57167  30.386  32.960   5.104
84908W        W57168  12.685  37.291   3.219
84909W        W57169   1.986   9.904  11.619
84910W        W57170  15.817  34.915   1.334
84911W        W57171  40.807  42.873  11.141
84912W        W57172  37.103  24.702   0.154
84913W        W57173  35.596  16.109  11.029
84914W        W57174  36.504  27.628   1.240
84915W        W57175  37.140  12.311   3.306
84916W        W57176  10.172  17.592   4.206
84917W        W57177  23.765   8.955   2.614
84918W        W57178  37.467  18.259   3.038
84919W        W57179   8.870  31.091   3.238
84920W        W57180  11.793  12.971  14.878
84921W        W57181  13.627  36.933   3.495
84922W        W57182  11.103  14.219  12.990
84923W        W57183  38.438   3.929  11.894
84924W        W57184  37.372  11.383   1.421
84925W        W57185  41.936  34.566  10.646
84926W        W57186   3.203  43.507   0.814
84927W        W57187  17.139  40.050  13.761
84928W        W57188   7.902  44.184   4.079
84929W        W57189   6.241  23.740  13.025
84930W        W57190  15.836   7.595   3.283
84931W        W57191  13.759  25.255  14.425
84932W        W57192   4.253   0.840  11.115
84933W        W57193  13.123  19.725  14.530
84934W        W57194   0.019  35.592   1.378
84935W        W57195   1.270  42.609  10.341
84936W        W57196  25.992  31.330   4.137
84937W        W57197  30.247  43.815   3.510
84938W        W57198   8.863  16.300  11.979
84939W        W57199  35.141  29.686  14.287
84940W        W57200  31.083  28.003   0.046
84941W        W57201  32.962  29.272  10.712
84942W        W57202  44.997  28.869   2.663
84943W        W57203  34.057  13.641   1.358
84944W        W57204  25.777  12.181   0.011
84945W        W57205  10.399   9.551  13.635
84946W        W57206  30.351   9.159  10.830
84947W        W57207  13.469  32.068   3.073
84948W        W57208  15.598   7.729  14.914
84949W        W57209   9.871   5.640  12.507
84950W        W57210  37.994  16.084  11.918
84951W        W57211  43.184  22.989  11.585
84952W        W57212  37.995   7.865   2.685
84953W        W57213  39.462   6.183  13.832
84954W        W57214  25.183  40.039   0.908
84955W        W57215   7.450  38.882   4.519
84956W        W57216  26.889  17.584   1.278
84957W        W57217  35.942  30.348   4.356
84958W        W57218  15.446  18.161   0.092
84959W        W57219  20.162  13.564   2.448
84960W        W57220   4.898   4.419   2.175
84961W        W57221  13.717   2.187   3.726
84962W        W57222  43.294  11.229  14.744
84963W        W57223  42.776  25.142  11.628
84964W        W57224  26.192  31.575   0.234
84965W        W57225  42.080  31.928   3.398
84966W        W57226  24.238   7.370  10.185
84967W        W57227   3.274  27.659   2.708
84968W        W57228  22.070  12.241  10.439
84969W        W57229  40.959  28.281  11.239
84970W        W57230  32.896  28.966  10.283
84971W        W57231   7.390   3.486  14.645
84972W        W57232  13.583  26.194   1.882
84973W        W57233  34.606   6.471  14.077
84974W        W57234   0.786  40.984   1.679
84975W        W57235  29.209  20.794  11.123
84976W        W57236  16.503   7.681   5.670
84977W        W57237  38.906   1.817   4.680
84978W        W57238  12.167  18.342   4.593
84979W        W57239  33.289  25.484   3.805
84980W        W57240  34.509  39.162   3.709
84981W        W57241  16.266  19.633   4.549
84982W        W57242  15.422  18.111   3.342
84983W        W57243  42.098  25.910   4.043
84984W        W57244  19.217   7.334   0.453
84985W        W57245  27.178  27.517   2.593
84986W        W57246  44.984   4.315   4.190
84987W        W57247  15.539  29.486  14.065
84988W        W57248  34.366  16.193  10.692
84989W        W57249  30.523  43.518   2.174
84990W        W57250   2.300   3.668   1.856
84991W        W57251  26.662   6.819  11.538
84992W        W57252  18.599  11.834   2.096
84993W        W57253  20.747   6.663  11.337
84994W        W57254  26.560   7.517   4.114
84995W        W57255   9.127  35.293   3.170
84996W        W57256   0.900  18.358   4.970
84997W        W57257   1.388  10.808  10.927
84998W        W57258  12.597  18.561   1.721
84999W        W57259   9.337  21.695  12.657
85000W        W57260   9.189  15.727  11.934
85001W        W57261  37.629   6.276  11.562
85002W        W57262   4.832  12.727   0.209
85003W        W57263   9.206   2.453   3.210
85004W        W57264  10.255   6.716  10.959
85005W        W57265  21.240   6.566   3.114
85006W        W57266  38.641   6.598   1.327
85007W        W57267  23.992   5.565   3.536
85008W        W57268  35.586  43.874  10.943
85009W        W57269  13.857  15.495  14.339
85010W        W57270  40.937  12.403   2.278
85011W        W57271  10.266  28.441   1.409
85012W        W57272  20.989  36.892  12.524
85013W        W57273  28.140  38.309  13.513
85014W        W57274  42.414  35.310   4.760
85015W        W57275  31.541  43.566   4.160
85016W        W57276  34.344  34.425  12.067
85017W        W57277  28.111  26.278   9.707
85018W        W57278   9.842   4.212  14.065
85019W        W57279  10.219   0.659   3.907
85020W        W57280   4.644  16.054   4.980
85021W        W57281  11.526  44.567  13.890
85022W        W57282  20.704  11.246  14.069
85023W        W57283   0.378  38.304   3.654
85024W        W57284  21.669  24.919  12.930
85025W        W57285  38.233  12.180  10.703
85026W        W57286  42.902   7.366  11.873
85027W        W57287  32.322  28.004   1.799
85028W        W57288  41.894   3.943  12.424
85029W        W57289  33.474   7.062  10.842
85030W        W57290  29.154  38.530  13.740
85031W        W57291  21.125   1.552   4.497
85032W        W57292  40.006   0.163   2.695
85033W        W57293   3.213   3.201  14.474
85034W        W57294  30.452  36.404   4.638
85035W        W57295  31.974  42.277   4.380
85036W        W57296  11.386  38.075   4.271
85037W        W57297  18.211  21.124   1.173
85038W        W57298   7.971  37.988  11.501
85039W        W57299   8.365  28.436  14.378
85040W        W57300  21.796  38.346  14.019
85041W        W57301  42.236  26.123  13.944
85042W        W57302   6.972  39.499   1.502
85043W        W57303  29.182  39.824   0.176
85044W        W57304  13.988   2.068  12.635
85045W        W57305  43.894  13.911  10.646
85046W        W57306  35.573  19.406  11.055
85047W        W57307  42.894  38.914  12.916
85048W        W57308  44.278  22.573   0.494
85049W        W57309  38.770   3.336   0.430
85050W        W57310  27.504  32.633   1.252
85051W        W57311  37.921  36.260  13.989
85052W        W57312  24.148  20.852  12.998
85053W        W57313  27.500   9.656  14.339
85054W        W57314   8.935  21.340   1.590
85055W        W57315  19.994  17.247  12.198
85056W        W57316  24.760  12.290  13.669
85057W        W57317  29.014   4.102   2.099
85058W        W57318  27.842  26.282   2.874
85059W        W57319   0.516  37.131  12.067
85060W        W57320  29.254  11.351   0.791
85061W        W57321   6.527  25.262  10.315
85062W        W57322   3.385  44.572   3.334
85063W        W57323  44.057  44.249  14.502
85064W        W57324  21.061  40.531  13.978
85065W        W57325   9.830  28.630   0.480
85066W        W57326  33.940  31.909   2.802
85067W        W57327  12.684  16.023   2.670
85068W        W57328  12.183  21.207   0.437
85069W        W57329  25.965  22.045   1.178
85070W        W57330  44.175  17.982  13.280
85071W        W57331  30.169   0.702   1.428
85072W        W57332  35.883  33.009   2.741
85073W        W57333   3.469  16.080   1.910
85074W        W57334  38.272   0.300  13.431
85075W        W57335  36.352  35.179  11.570
85076W        W57336  26.537  30.087  14.286
85077W        W57337  24.570  31.195  13.557
85078W        W57338  25.908  43.373  12.570
85079W        W57339  41.352  32.569   4.253
85080W        W57340  35.649  26.671  11.609
85081W        W57341  18.782  35.387  13.964
85082W        W57342   1.971  26.125  13.616
85083W        W57343  34.541  30.227  14.805
85084W        W57344  16.773   3.266   0.595
85085W        W57345  43.391  44.523  12.961
85086W        W57346  43.723  12.705   2.263
85087W        W57347   1.262  43.537   2.334
85088W        W57348  11.605   0.823  14.347
85089W        W57349  20.157  15.300  10.643
85090W        W57350  28.531  32.560   3.641
85091W        W57351  23.391  21.143   0.283
85092W        W57352  37.542   5.088  13.797
85093W        W57353  17.031  44.606   0.429
85094W        W57354  16.781  11.512   4.029
85095W        W57355  30.111  10.630   0.773
85096W        W57356  11.028  40.850   2.691
85097W        W57357  15.365  14.270  13.379
85098W        W57358  29.735  43.396  14.533
85099W        W57359  33.687  39.540  12.017
85100W        W57360  20.731   4.733   4.738
85101W        W57361  37.979  43.037   4.787
85102W        W57362  31.009  15.874   0.225
85103W        W57363  40.210  13.953   4.196
85104W        W57364  16.013  31.915   1.786
85105W        W57365   4.333  40.251  12.939
85106W        W57366  19.182   4.798   1.651
85107W        W57367  38.626  35.989  14.909
85108W        W57368   6.078   3.610   4.064
85109W        W57369  14.637  40.017   3.353
85110W        W57370  42.115  25.425  13.629
85111W        W57371  27.064   7.364   2.960
85112W        W57372  17.378   7.263  10.367
85113W        W57373  10.376  33.693   3.686
85114W        W57374  18.186  30.441   2.269
85115W        W57375  32.961  32.799   0.921
85116W        W57376  42.180  37.638  14.309
85117W        W57377  14.834  35.448  11.966
85118W        W57378  23.327  12.145  14.055
85119W        W57379  13.679  18.521  12.283
85120W        W57380  33.341   7.191   4.570
85121W        W57381  42.600   2.846   1.278
85122W        W57382   7.430  27.925  14.926
85123W        W57383   2.514   7.655   3.320
85124W        W57384  35.477  16.380   0.704
85125W        W57385  32.523   7.052   5.308
85126W        W57386  37.110   4.154  11.988
85127W        W57387  16.021  41.797  12.844
85128W        W57388  27.373  11.087   1.960
85129W        W57389  26.722  21.132   5.191
85130W        W57390   8.273  16.943  11.146
85131W        W57391   3.871  35.403  10.174
85132W        W57392  12.000  41.440   4.911
85133W        W57393  28.025  17.778   1.883
85134W        W57394  20.396  33.427  12.606
85135W        W57395  34.650  20.073   3.581
85136W        W57396  23.056  31.684  13.258
85137W        W57397  42.317   5.569   3.247
85138W        W57398  14.112   5.723   2.319
85139W        W57399  23.281  22.990   4.279
85140W        W57400  42.408  41.822   1.229
85141W        W57401  34.315  40.012   4.630
85142W        W57402  24.795  17.660   0.284
85143W        W57403  28.574  40.974  13.270
85144W        W57404  38.499  37.176  13.302
85145W        W57405  30.712  22.361   1.683
85146W        W57406   3.779   7.286   3.128
85147W        W57407  17.904   1.813  13.156
85148W        W57408  34.872  37.414  13.826
85149W        W57409  26.596  25.067  10.759
85150W        W57410  14.094  25.039  12.000
85151W        W57411  14.616  17.201   5.063
85152W        W57412  13.206   2.652  13.440
85153W        W57413  13.957   7.775   0.053
85154W        W57414  25.677  39.952  12.054
85155W        W57415  10.743  41.488  12.362
85156W        W57416   0.238  32.123  14.504
85157W        W57417  22.975  27.109  13.802
85158W        W57418  20.151   0.225   2.131
85159W        W57419  33.345  35.612  13.091
85160W        W57420  44.762  10.258  11.588
85161W        W57421  43.478   9.830   0.313
85162W        W57422   1.323  41.951   0.448
85163W        W57423  17.523  22.778   3.732
85164W        W57424  42.839  30.626  10.728
85165W        W57425  29.441  43.358  14.954
85166W        W57426  38.842  11.563  12.780
85167W        W57427  40.388  27.772  11.565
85168W        W57428  17.408  36.104  12.044
85169W        W57429   6.952  24.224   2.147
85170W        W57430  32.934   4.084   0.322
85171W        W57431  14.645   5.445   3.524
85172W        W57432  14.163  42.577  13.772
85173W        W57433  42.802  37.565   0.876
85174W        W57434  39.456   1.712   4.192
85175W        W57435   9.418  27.880  11.583
85176W        W57436   8.753  17.045  11.033
85177W        W57437  44.546  16.539  10.771
85178W        W57438   5.355  39.370  14.452
85179W        W57439  27.955  23.011  10.684
85180W        W57440  40.327  35.457  13.576
85181W        W57441  11.751  41.905  13.424
85182W        W57442   9.300  18.329   2.356
85183W        W57443  28.098  31.217  13.426
85184W        W57444  29.209  21.138   1.023
85185W        W57445  13.820   5.043  14.434
85186W        W57446  31.191   6.831   0.319
85187W        W57447  33.647  37.783  13.585
85188W        W57448  19.112  36.378   2.808
85189W        W57449  26.216  38.161  12.499
85190W        W57450  28.746   5.493  12.164
85191W        W57451   5.331  39.744  12.678
85192W        W57452  19.520  40.190   4.944
85193W        W57453  35.535  16.491   3.313
85194W        W57454  34.856  15.488  10.685
85195W        W57455   3.672   3.883  13.987
85196W        W57456  37.549  35.594  13.757
85197W        W57457  20.176  23.524  13.929
85198W        W57458   9.328  25.414  13.898
85199W        W57459  40.972  16.700  10.788
85200W        W57460  41.440   6.577   1.273
85201W        W57461  41.829   1.248  12.116
85202W        W57462   1.320  22.774   0.448
85203W        W57463  29.069  11.784  10.642
85204W        W57464  20.129  14.480  11.933
85205W        W57465  27.905  33.920  13.839
85206W        W57466   1.659  42.825   2.724
85207W        W57467  38.022  12.141   4.579
85208W        W57468  13.686  10.706   3.445
85209W        W57469  34.149  27.018   3.109
85210W        W57470  11.155  13.798   1.945
85211W        W57471  44.118  25.236  12.313
85212W        W57472   3.828  43.089  13.908
85213W        W57473  43.798  30.179   1.359
85214W        W57474  21.862  44.708  11.621
85215W        W57475   6.639  38.736   1.906
85216W        W57476  30.521  35.748  11.211
85217W        W57477  32.747  14.846   2.189
85218W        W57478  27.031   0.223  14.197
85219W        W57479  18.153  34.459  11.692
85220W        W57480  16.469  35.814   4.935
85221W        W57481  16.511  15.798  12.238
85222W        W57482  11.892  14.187   4.037
85223W        W57483  14.480   9.748   4.173
85224W        W57484  25.322   7.699  12.384
85225W        W57485  15.359  13.542  12.535
85226W        W57486  14.062   9.423  11.226
85227W        W57487  12.259  39.921  13.789
85228W        W57488  29.928  42.970   2.472
85229W        W57489   3.689  15.272  14.564
85230W        W57490  28.073   2.236  12.412
85231W        W57491  31.978  12.572   0.389
85232W        W57492   5.242  37.929   3.343
85233W        W57493   4.042  32.602   3.678
85234W        W57494  36.054  22.512  10.625
85235W        W57495  30.717   1.700  11.380
85236W        W57496  21.738   9.229   1.678
85237W        W57497  33.414  21.707  13.513
85238W        W57498  24.610   4.925   3.354
85239W        W57499  24.711   4.192   2.793
85240W        W57500  41.048   3.707  12.892
85241W        W57501  32.335  35.616   2.201
85242W        W57502  15.586   3.900   4.672
85243W        W57503  25.513  35.431  14.784
85244W        W57504   8.703  30.212   3.264
85245W        W57505  27.401  34.840  12.593
85246W        W57506  34.982   4.246  14.706
85247W        W57507  11.785   9.228  11.161
85248W        W57508  32.461  17.772  11.014
85249W        W57509  13.395  24.281   2.671
85250W        W57510  30.385  38.414  12.541
85251W        W57511  24.192  29.115  11.946
85252W        W57512   3.244  19.882  13.568
85253W        W57513  37.168  31.571   3.199
85254W        W57514  16.696  28.426   0.339
85255W        W57515  13.140  37.373  10.805
85256W        W57516  38.469  38.118   3.640
85257W        W57517  38.392   7.499   5.386
85258W        W57518  42.053  32.974   4.554
85259W        W57519  37.951  39.187  13.910
85260W        W57520   0.434  34.969   2.291
85261W        W57521  26.587  31.876  14.208
85262W        W57522  28.625  39.191  10.289
85263W        W57523  19.998  43.357  13.769
85264W        W57524   3.846  25.347   1.706
85265W        W57525  25.201  31.892   2.225
85266W        W57526  26.378  24.976   3.694
85267W        W57527   7.697  27.180  13.601
85268W        W57528   3.564  15.553  13.930
85269W        W57529  11.836  28.141   4.019
85270W        W57530  32.178  36.137   3.231
85271W        W57531  23.393  28.707   3.234
85272W        W57532  23.753  36.904  14.436
85273W        W57533  13.072  43.393   2.794
85274W        W57534   7.814  15.793  12.409
85275W        W57535  32.041   4.276  13.578
85276W        W57536   6.011  43.507   4.532
85277W        W57537  41.218  37.582   3.165
85278W        W57538  12.290  39.006   2.288
85279W        W57539   9.541  33.300   2.790
85280W        W57540   9.065  42.842  10.223
85281W        W57541  20.262   7.359  12.956
85282W        W57542   7.752  14.183  14.371
85283W        W57543   8.196   6.045  14.911
85284W        W57544  30.370  43.023  14.134
85285W        W57545  42.927  10.250   0.830
85286W        W57546  20.290  32.597   0.990
85287W        W57547  19.181  41.319   2.299
85288W        W57548  37.068  40.625   3.700
85289W        W57549  26.658   6.755  14.027
85290W        W57550  23.952  33.774  13.035
85291W        W57551  27.030  16.268   3.113
85292W        W57552  11.645  39.085  12.521
85293W        W57553  34.906  24.146   4.994
85294W        W57554  32.058  22.121   1.797
85295W        W57555  36.481   5.680  12.585
85296W        W57556   0.912   1.172  11.037
85297W        W57557   6.303  14.175   2.673
85298W        W57558  10.467  13.870   3.261
85299W        W57559  41.490  30.006   0.057
85300W        W57560  29.485  35.549  14.971
85301W        W57561  24.192  19.599  14.017
85302W        W57562  21.709  19.011   2.617
85303W        W57563   4.405   0.519  11.924
85304W        W57564  43.819  21.246  10.688
85305W        W57565  10.439   5.114  10.048
85306W        W57566   0.096  15.259   3.827
85307W        W57567  18.590  28.064   2.396
85308W        W57568  43.317  10.652  10.948
85309W        W57569   1.737  16.195   2.873
85310W        W57570   5.269  42.738   1.831
85311W        W57571  20.729  13.826  11.557
85312W        W57572   5.881  31.112  13.167
85313W        W57573   8.238  28.961   4.639
85314W        W57574  42.531  25.278  11.050
85315W        W57575  16.833  44.405   3.703
85316W        W57576  39.959  15.131  12.661
85317W        W57577  44.385  10.027   0.833
85318W        W57578  13.409  29.001   3.732
85319W        W57579   0.434  40.132   1.707
85320W        W57580   7.190  34.768  13.410
85321W        W57581   4.741   1.823   2.656
85322W        W57582  31.618  19.746  13.479
85323W        W57583  13.989  44.394   1.724
85324W        W57584  37.826  39.037   4.115
85325W        W57585  28.936  31.491  13.741
85326W        W57586   6.934   3.844   1.412
85327W        W57587  44.161  11.480  14.797
85328W        W57588  25.445  14.264  13.895
85329W        W57589  35.008   0.279   1.646
85330W        W57590  30.462  30.428   0.888
85331W        W57591  34.969  33.665  14.676
85332W        W57592  14.809  14.078  12.949
85333W        W57593  42.770  24.661   3.457
85334W        W57594   5.902  40.574   2.799
85335W        W57595  12.929  37.782  11.059
85336W        W57596  30.731  41.004  11.659
85337W        W57597   1.020  44.984  11.296
85338W        W57598  22.663  18.574   2.795
85339W        W57599  37.946  37.827  14.492
85340W        W57600  36.058  39.885  12.388
85341W        W57601  36.419   7.918  14.217
85342W        W57602  23.968  23.440   1.498
85343W        W57603  28.148  42.201  14.803
85344W        W57604  11.657  17.312  11.875
85345W        W57605  28.312  12.663   2.069
85346W        W57606   8.350  14.714   1.416
85347W        W57607   1.404   3.202   1.764
85348W        W57608  15.661   9.265   1.172
85349W        W57609  16.524   2.000  13.381
85350W        W57610   8.826  31.022  14.974
85351W        W57611  23.108  13.156   1.761
85352W        W57612   4.603  28.419   2.369
85353W        W57613  14.278  19.186  14.230
85354W        W57614  40.029  27.601   3.522
85355W        W57615  19.851  32.130   2.863
85356W        W57616  31.189  37.630   0.383
85357W        W57617  34.981  43.885   1.964
85358W        W57618   2.850  34.169  14.625
85359W        W57619  42.766   0.803  14.975
85360W        W57620   0.036  21.611  12.066
85361W        W57621  33.401  18.990  11.489
85362W        W57622  40.569  28.923  14.954
85363W        W57623  25.153  21.286  12.173
85364W        W57624  27.214  29.371   3.317
85365W        W57625  18.566   7.630  14.418
85366W        W57626  12.197  37.173  13.845
85367W        W57627  16.492  41.353   4.276
85368W        W57628  18.684  18.115   0.744
85369W        W57629  42.493  10.686   2.332
85370W        W57630  42.990   7.239   3.263
85371W        W57631  25.644   3.730  12.920
85372W        W57632  44.316  10.035   1.369
85373W        W57633  32.133  39.338   2.153
85374W        W57634  14.673  27.979  14.828
85375W        W57635  34.004  20.059   0.934
85376W        W57636   0.923  11.576   0.300
85377W        W57637  34.110   3.878   1.519
85378W        W57638  30.795  39.468  14.780
85379W        W57639  14.667  22.730  14.007
85380W        W57640  39.538  13.952   1.714
85381W        W57641  22.380  39.953   3.861
85382W        W57642  39.326  17.049  11.560
85383W        W57643  20.669  21.159  12.797
85384W        W57644  37.971  11.942  13.812
85385W        W57645  30.936  10.682  14.770
85386W        W57646  37.792  35.057  10.533
85387W        W57647  17.427   4.029   3.511
85388W        W57648  42.531   7.988  12.023
85389W        W57649  29.130   0.863  12.952
85390W        W57650   3.047  20.533  14.483
85391W        W57651  35.364  44.855   2.470
85392W        W57652  21.189   4.510   4.567
85393W        W57653  42.880   9.467  12.074
85394W        W57654  22.692  27.474  14.956
85395W        W57655  29.125  12.648   0.381
85396W        W57656  26.201  36.658   3.251
85397W        W57657   1.209  32.407   3.886
85398W        W57658  37.486  12.472  10.364
85399W        W57659  20.652  38.493  12.528
85400W        W57660  20.545  11.665  11.841
85401W        W57661  23.154   5.572   0.377
85402W        W57662  39.184  43.358   4.228
85403W        W57663  33.614  17.216  12.039
85404W        W57664   8.148  34.515  12.540
85405W        W57665  37.661  21.113   2.732
85406W        W57666  20.027  37.587   2.336
85407W        W57667  14.623  27.924   3.131
85408W        W57668  31.390  36.852  14.427
85409W        W57669  35.190  20.645  13.501
85410W        W57670  18.214  10.883   1.361
85411W        W57671  19.215  28.887   1.289
85412W        W57672  42.527  19.037   3.141
85413W        W57673  24.702   2.833   1.707
85414W        W57674   7.308   2.415   2.462
85415W        W57675   7.450  37.226  11.958
85416W        W57676   7.245  42.291   1.376
85417W        W57677  36.946   6.751  11.949
85418W        W57678  27.166   2.919   0.823
85419W        W57679   8.631  39.534   0.034
85420W        W57680  11.360  28.642  13.855
85421W        W57681  24.615  38.596  13.783
85422W        W57682  19.983  26.435  11.174
85423W        W57683  31.917   2.296  11.319
85424W        W57684  36.977  11.639  14.874
85425W        W57685  22.548  35.876   1.336
85426W        W57686  16.797  23.221   3.739
85427W        W57687  24.857  41.384   2.329
85428W        W57688  39.871  24.523  14.894
85429W        W57689  24.778  12.352   3.299
85430W        W57690  32.517  39.572   4.846
85431W        W57691   7.427  18.050   1.715
85432W        W57692   2.431  30.512  13.341
85433W        W57693  38.495  14.316  11.505
85434W        W57694  12.690   4.834   3.219
85435W        W57695   3.407  35.394   1.866
85436W        W57696  13.243  36.605   3.431
85437W        W57697  18.596   6.928   3.938
85438W        W57698  25.032  14.732  12.913
85439W        W57699  19.707  10.301   3.653
85440W        W57700  20.675   9.428  10.864
85441W        W57701  36.396  32.546   4.209
85442W        W57702  20.757  16.144   1.915
85443W        W57703  32.545  35.317  12.038
85444W        W57704  43.931  10.921   3.121
85445W        W57705  14.683  38.020   3.759
85446W        W57706  13.495  27.032   1.957
85447W        W57707  24.185   0.545  13.558
85448W        W57708  38.687  13.738  13.557
85449W        W57709  37.166  18.167   2.152
85450W        W57710  39.038  41.344   4.073
85451W        W57711  13.908  15.134  13.526
85452W        W57712  22.213   2.411  11.660
85453W        W57713  25.028  20.489  14.966
85454W        W57714  29.634   0.386  10.559
85455W        W57715  18.474   7.844   4.972
85456W        W57716  31.697  36.736   4.095
85457W        W57717  14.961  16.076  12.484
85458W        W57718  30.282  19.678   2.327
85459W        W57719  10.428  27.207   3.771
85460W        W57720   5.396   0.725  13.149
85461W        W57721  38.256  44.355   4.613
85462W        W57722   9.972   4.914   2.725
85463W        W57723  16.515  16.292   0.337
85464W        W57724  43.135  16.213   1.429
85465W        W57725  31.166  19.118  13.795
85466W        W57726  17.612  25.774  12.827
85467W        W57727  25.997  32.029   1.784
85468W        W57728  30.094  30.201   2.427
85469W        W57729   1.685  40.926  14.910
85470W        W57730  18.548   2.883   1.762
85471W        W57731  40.966  17.104  14.449
85472W        W57732  24.594  27.559   9.628
85473W        W57733  23.988  27.597   4.787
85474W        W57734   2.827  30.367   2.648
85475W        W57735  43.440   3.013  11.618
85476W        W57736  25.006  27.607  14.802
85477W        W57737  28.017  43.590  11.165
85478W        W57738  15.063   1.855   1.699
85479W        W57739  27.019  30.276   3.268
85480W        W57740  43.436  15.117   4.870
85481W        W57741  27.557  22.557  12.459
85482W        W57742  42.047  35.086  10.715
85483W        W57743  16.067   6.788   0.764
85484W        W57744  33.006   7.209  11.687
85485W        W57745  24.771  22.568   2.760
85486W        W57746  40.110  42.951   0.039
85487W        W57747   0.261  17.611  14.318
85488W        W57748  39.350  19.748  13.745
85489W        W57749  40.824  39.501   2.520
85490W        W57750  12.762  23.197   3.371
85491W        W57751  43.860  40.647   3.586
85492W        W57752  10.484  38.081  13.551
85493W        W57753  22.344  35.895  13.383
85494W        W57754   8.248  14.054  12.642
85495W        W57755  10.384  33.935  14.392
85496W        W57756  22.522  38.865   2.806
85497W        W57757  34.917  43.762   0.029
85498W        W57758   0.440  42.869   3.238
85499W        W57759  15.275  44.499  13.367
85500W        W57760  11.718  24.394   0.000
85501W        W57761   2.432  30.503   5.211
85502W        W57762  18.679  22.277   2.802
85503W        W57763   5.361  29.109  11.432
85504W        W57764  23.208  26.608  12.158
85505W        W57765  34.502   3.668   3.551
85506W        W57766  43.552  25.943   4.246
85507W        W57767  35.881  30.076  10.912
85508W        W57768  31.875  20.771   4.154
85509W        W57769  35.016   4.726   0.010
85510W        W57770  18.759  28.399   0.714
85511W        W57771   8.185  41.005  10.622
85512W        W57772  21.289  24.524  10.943
85513W        W57773   0.870  35.602   4.931
85514W        W57774  40.744  15.753  14.402
85515W        W57775  21.555  32.867   3.410
85516W        W57776  19.234  31.502   4.379
85517W        W57777   0.010  33.384  14.093
85518W        W57778  24.973  11.123   2.678
85519W        W57779  21.577  32.693  11.919
85520W        W57780  18.705   0.516  13.357
85521W        W57781  40.633  19.315  14.076
85522W        W57782  44.998   8.779  11.421
85523W        W57783  35.379  26.197   0.924
85524W        W57784  11.124  16.494  13.571
85525W        W57785   9.159  24.120   4.196
85526W        W57786   9.817  18.603  12.887
85527W        W57787  34.550  24.187  13.592
85528W        W57788  16.012  11.207  12.551
85529W        W57789   6.377  35.530  10.771
85530W        W57790  40.062   5.410   1.790
85531W        W57791  32.929  35.616  10.584
85532W        W57792  37.898  44.293  12.628
85533W        W57793   2.383   5.635   4.081
85534W        W57794  31.588  26.554  12.806
85535W        W57795   7.587  12.748   2.747
85536W        W57796  38.305  13.578  11.426
85537W        W57797  44.733  31.508  14.717
85538W        W57798  13.273  27.029  12.965
85539W        W57799  37.382   3.887  10.995
85540W        W57800  10.295  28.621  11.868
85541W        W57801  40.147  43.537   1.490
85542W        W57802  19.556  26.932  14.278
85543W        W57803  29.018  23.764   1.287
85544W        W57804  19.492  39.931   2.231
85545W        W57805  10.437  15.118  14.824
85546W        W57806  17.619  12.880  13.021
85547W        W57807  31.138  26.843  11.606
85548W        W57808  20.772   1.985  11.569
85549W        W57809   2.958  21.466  13.087
85550W        W57810  40.076  21.476  11.188
85551W        W57811  24.156   2.773   0.753
85552W        W57812  37.722  14.530  13.624
85553W        W57813   7.255  28.418  13.995
85554W        W57814  28.023  40.782   1.755
85555W        W57815  38.087  28.705  10.711
85556W        W57816  37.223   1.399  14.534
85557W        W57817   0.295  43.174  10.632
85558W        W57818  24.620  16.788   4.783
85559W        W57819  35.417  31.021   4.631
85560W        W57820  40.532  23.203   4.098
85561W        W57821   2.053  25.961  11.714
85562W        W57822  15.201  13.625   2.915
85563W        W57823  28.884   0.408   2.798
85564W        W57824  17.284   0.205  13.405
85565W        W57825  43.219  28.224   4.725
85566W        W57826  11.960  41.988   1.937
85567W        W57827  25.193  43.433  12.974
85568W        W57828   2.192  23.709  11.136
85569W        W57829   3.933   6.916  13.809
85570W        W57830  38.974   2.230  13.047
85571W        W57831   1.871  40.524  12.953
85572W        W57832  25.161  21.582   1.352
85573W        W57833  31.884   8.876   1.721
85574W        W57834   8.881  35.103  12.882
85575W        W57835  17.509  10.800   2.963
85576W        W57836  25.885  29.578   0.344
85577W        W57837  36.956  25.632  10.838
85578W        W57838   5.646  16.991  14.284
85579W        W57839  35.035  28.513   0.236
85580W        W57840  14.782  28.879  12.058
85581W        W57841  26.642  12.079  11.929
85582W        W57842  19.978  14.271  10.674
85583W        W57843   6.438  42.418   3.722
85584W        W57844  11.140  40.027  11.187
85585W        W57845  34.177   6.229  13.913
85586W        W57846  21.907  31.602  14.037
85587W        W57847  39.871  27.158  14.441
85588W        W57848  37.559   0.684   3.255
85589W        W57849  27.138  15.840   0.062
85590W        W57850  18.158  26.357   1.766
85591W        W57851  35.547  34.541   4.081
85592W        W57852   4.740  36.010  12.641
85593W        W57853  28.324  40.819  12.842
85594W        W57854  25.591  30.056   1.399
85595W        W57855  39.232   7.766  14.331
85596W        W57856  33.055  12.310   0.824
85597W        W57857  43.475  38.076  12.934
85598W        W57858   0.036  20.602   3.617
85599W        W57859  10.234  30.002  14.870
85600W        W57860  17.247  15.079  10.498
85601W        W57861   4.187  24.219   2.794
85602W        W57862  24.627   3.910   3.239
85603W        W57863   3.378  37.339  10.675
85604W        W57864  10.274  39.864   2.682
85605W        W57865   3.205   6.139   0.758
85606W        W57866   2.635   7.898  14.001
85607W        W57867  22.097  41.828  14.269
85608W        W57868  15.717   8.410   0.644
85609W        W57869  11.368  11.953   0.860
85610W        W57870   4.187  10.199   4.744
85611W        W57871  20.909  26.956   0.501
85612W        W57872  13.876  32.120  14.315
85613W        W57873  22.876   7.328   1.149
85614W        W57874  42.150  25.001  10.865
85615W        W57875  26.522  42.954  10.475
85616W        W57876  29.592   3.352  13.020
85617W        W57877   6.206  14.485   2.242
85618W        W57878  27.967   9.708  14.708
85619W        W57879  40.529   7.361   1.544
85620W        W57880  15.377   9.594  14.936
85621W        W57881  31.766  17.729   2.186
85622W        W57882  21.033  16.021  13.330
85623W        W57883   1.404  27.586  14.795
85624W        W57884  23.697  15.381   3.356
85625W        W57885   2.907  23.482   3.861
85626W        W57886  33.213  24.769  13.872
85627W        W57887  20.230  16.120   1.911
85628W        W57888  38.804  22.762  13.893
85629W        W57889   4.838  29.809   1.260
85630W        W57890  38.411  43.046   0.304
85631W        W57891   6.918  38.895   4.503
85632W        W57892  11.601  10.821   2.560
85633W        W57893  32.561  15.396  11.210
85634W        W57894  37.059  42.285   3.472
85635W        W57895   7.401  19.574  12.062
85636W        W57896  23.979  20.454   3.366
85637W        W57897  20.578  29.624   3.798
85638W        W57898  42.014  27.362  13.305
85639W        W57899  19.193  42.687   3.167
85640W        W57900  31.434   3.693  13.929
85641W        W57901  44.216  43.857   0.739
85642W        W57902  26.809  44.335  13.614
85643W        W57903  26.448  14.665  13.032
85644W        W57904  13.835  26.430   0.302
85645W        W57905   7.208  41.446  11.489
85646W        W57906  14.601  14.794   2.091
85647W        W57907  35.001  39.934  12.648
85648W        W57908  21.665  18.821  11.639
85649W        W57909   3.784  26.847  12.457
85650W        W57910  43.823  16.141  14.535
85651W        W57911  38.670   7.311   4.989
85652W        W57912  13.560  22.443   0.896
85653W        W57913  39.433  36.403  13.078
85654W        W57914   1.536  39.024  14.595
85655W        W57915   4.907  39.458  12.006
85656W        W57916  39.362  21.865  13.820
85657W        W57917   4.731  30.361  11.005
85658W        W57918  33.590  32.478  11.957
85659W        W57919  23.704  38.764  11.054
85660W        W57920  29.699   9.832  13.623
85661W        W57921  43.802   7.052  14.049
85662W        W57922  33.701   6.084   0.845
85663W        W57923  12.376   9.899  12.411
85664W        W57924   7.220  41.839   4.410
85665W        W57925  12.392  29.386   2.657
85666W        W57926  16.121   3.379  10.266
85667W        W57927  20.810  41.285   4.351
85668W        W57928  39.792  30.112   4.075
85669W        W57929  42.931   5.598  11.290
85670W        W57930   2.400  40.886  14.400
85671W        W57931  12.523   1.886   4.480
85672W        W57932  31.592   4.125   4.209
85673W        W57933  31.671  41.789   3.275
85674W        W57934  11.090  34.317  14.842
85675W        W57935   6.655   6.856  13.087
85676W        W57936  26.946  44.339  11.577
85677W        W57937  25.144  17.396  13.467
85678W        W57938  29.405  36.386  13.297
85679W        W57939  13.103  23.507  11.670
85680W        W57940  17.112   9.351   0.202
85681W        W57941   5.704  39.141   0.554
85682W        W57942  25.320   4.016  12.582
85683W        W57943  25.007  40.753  11.529
85684W        W57944  32.426  22.033  11.361
85685W        W57945  16.342  38.267   2.317
85686W        W57946   2.183  19.763  13.936
85687W        W57947   3.378  32.681   4.170
85688W        W57948  24.085  38.966   5.051
85689W        W57949   3.423  19.721   0.900
85690W        W57950   4.235  14.570  10.205
85691W        W57951  35.451   9.235  13.043
85692W        W57952  40.538  20.268   2.727
85693W        W57953  16.914  10.582   4.457
85694W        W57954  39.997  28.469  12.857
85695W        W57955  43.460  12.369  14.397
85696W        W57956  42.764  11.319   0.685
85697W        W57957  21.290  14.165  12.418
85698W        W57958   2.786  35.321   2.836
85699W        W57959  36.840   2.393   2.175
85700W        W57960  25.086  11.860  11.158
85701W        W57961  28.998  42.486  11.422
85702W        W57962  11.859  31.182  12.567
85703W        W57963  19.548  38.395  13.557
85704W        W57964  15.108  14.583  14.760
85705W        W57965  40.120  20.518   2.511
85706W        W57966   4.730  18.545  11.293
85707W        W57967   1.580  26.950  13.621
85708W        W57968  21.590   4.340   3.464
85709W        W57969  12.580  38.353   0.473
85710W        W57970  21.823  37.092  13.056
85711W        W57971   5.356  37.456   0.281
85712W        W57972  12.736  35.881  12.071
85713W        W57973   1.478  14.309   4.596
85714W        W57974  21.271   1.517  11.468
85715W        W57975  32.181  29.041   0.518
85716W        W57976  18.453  11.362   3.369
85717W        W57977  14.843  26.184  14.316
85718W        W57978  23.005  29.554   3.673
85719W        W57979   9.815  41.240  14.993
85720W        W57980  26.826   6.988   3.260
85721W        W57981   6.908   0.817  10.852
85722W        W57982  34.031  20.204   5.046
85723W        W57983   8.148  22.632  11.162
85724W        W57984  39.558  16.653  10.571
85725W        W57985  10.954  17.614  14.426
85726W        W57986  34.893  11.405  14.321
85727W        W57987   4.688  33.526   1.825
85728W        W57988   6.500  43.524   4.194
85729W        W57989   6.977   1.780  10.804
85730W        W57990  42.546  33.619  14.844
85731W        W57991  11.380  26.039   2.111
85732W        W57992   8.221  25.278  11.903
85733W        W57993  33.843  18.788   4.201
85734W        W57994  18.381  16.001  13.007
85735W        W57995  18.978  11.973   2.399
85736W        W57996  11.390  12.967  11.612
85737W        W57997  30.674   1.505   0.235
85738W        W57998  35.612   0.816   3.294
85739W        W57999  36.645  22.233  12.842
85740W        W58000   2.164  24.474  13.303
85741W        W58001  25.664  41.033   2.018
85742W        W58002  40.057  35.054  14.782
85743W        W58003  31.726  30.592  14.920
85744W        W58004  11.237  38.229   0.310
85745W        W58005  44.540  28.111  10.947
85746W        W58006   3.012  18.500  13.542
85747W        W58007   5.248  44.577  10.226
85748W        W58008  13.516   1.418  10.742
85749W        W58009  23.038   9.320  14.147
85750W        W58010  35.859  39.806  13.295
85751W        W58011  30.336   3.115  11.565
85752W        W58012  23.176  34.117  14.465
85753W        W58013  18.949  17.801   1.869
85754W        W58014  37.871  20.884   0.420
85755W        W58015  39.621  17.760  14.501
85756W        W58016  39.450   4.345  10.554
85757W        W58017   6.718  13.161   1.233
85758W        W58018  31.808  26.933  12.050
85759W        W58019  36.398  43.390   3.379
85760W        W58020  21.287   9.248  14.668
85761W        W58021   1.261  34.113   1.196
85762W        W58022  40.390  10.916  14.391
85763W        W58023  18.091  12.617  12.619
85764W        W58024  40.503  39.141   4.670
85765W        W58025  26.687  14.240  11.628
85766W        W58026  25.962   6.823   2.003
85767W        W58027  20.184   1.795  13.633
85768W        W58028  25.491  24.047   1.449
85769W        W58029  12.715  14.134   4.853
85770W        W58030  16.085  23.501   0.879
85771W        W58031  27.180  11.360   2.346
85772W        W58032   3.253  32.523   3.304
85773W        W58033  17.128  36.951   3.690
85774W        W58034  41.754   0.211  12.164
85775W        W58035  29.636  17.997   4.221
85776W        W58036   5.248  43.416  13.971
85777W        W58037  17.286   6.431   4.858
85778W        W58038  35.275  42.022   4.995
85779W        W58039  24.988  25.441  12.659
85780W        W58040  23.678   8.872  13.925
85781W        W58041  17.647  40.520  10.818
85782W        W58042   9.194  41.010   4.017
85783W        W58043   5.800  20.543   1.779
85784W        W58044   4.155  43.858  10.499
85785W        W58045  30.468  39.334  11.216
85786W        W58046  15.741  38.070  14.995
85787W        W58047  34.955   4.798  13.073
85788W        W58048  21.568  23.896   3.253
85789W        W58049   7.219   4.188  12.021
85790W        W58050  29.463  10.793  14.019
85791W        W58051   5.932  13.869  10.699
85792W        W58052  43.934  28.436  14.829
85793W        W58053  20.303  25.541   0.993
85794W        W58054  18.318  41.005   0.780
85795W        W58055  30.059  30.170   1.900
85796W        W58056  30.540  23.617   2.235
85797W        W58057  16.444  33.573  10.289
85798W        W58058  25.454  20.559   3.689
85799W        W58059  20.598  41.711   0.878
85800W        W58060  11.327  44.280  13.496
85801W        W58061  25.589  12.262   4.426
85802W        W58062  27.544  31.943  10.109
85803W        W58063  44.517   1.938   2.006
85804W        W58064   8.914  21.499   4.997
85805W        W58065   5.789   1.193   2.301
85806W        W58066  12.756  40.257  10.689
85807W        W58067   1.789  42.096   1.720
85808W        W58068   9.145   3.435  10.688
85809W        W58069  11.571  27.675   2.588
85810W        W58070  35.447  30.917   1.723
85811W        W58071  10.798  23.291  11.906
85812W        W58072  20.550  33.732   4.294
85813W        W58073  44.186   9.474   0.775
85814W        W58074  13.042  35.572  13.615
85815W        W58075   7.936  26.254  14.368
85816W        W58076  29.042  44.491   4.119
85817W        W58077  14.624  41.007  10.748
85818W        W58078   6.201  23.063  12.575
85819W        W58079  30.245  26.815   3.952
85820W        W58080  35.402  24.547  11.145
85821W        W58081  38.108  27.827  11.276
85822W        W58082  24.226   0.760   2.032
85823W        W58083  30.025   4.604  14.320
85824W        W58084  33.543  43.057   1.961
85825W        W58085  25.459   9.765  13.351
85826W        W58086  41.252  17.715   0.049
85827W        W58087  40.213  14.354  11.269
85828W        W58088   9.696  23.944   2.383
85829W        W58089  44.831  27.888  12.003
85830W        W58090   5.202  27.075   4.113
85831W        W58091  18.679  26.592   2.291
85832W        W58092  24.228  39.006  11.121
85833W        W58093  30.943  27.833   0.728
85834W        W58094  25.124  25.605  13.625
85835W        W58095  42.765  29.941   1.030
85836W        W58096  29.903  44.402  11.024
85837W        W58097   5.872  31.156   4.193
85838W        W58098  29.955  14.833  14.496
85839W        W58099  25.928  39.519   4.932
85840W        W58100  16.517   6.844  10.166
85841W        W58101  40.597   4.873  12.793
85842W        W58102  37.006  11.237  11.017
85843W        W58103  41.092  29.610  11.447
85844W        W58104  27.902  43.940  14.331
85845W        W58105  40.907  11.161  11.640
85846W        W58106  35.836  17.620   1.204
85847W        W58107   7.205  20.768  11.301
85848W        W58108   9.751  33.396  11.963
85849W        W58109  28.825   4.469  11.429
85850W        W58110  28.308  21.986  11.993
85851W        W58111  41.224  44.516  12.085
85852W        W58112   9.666  14.493   0.737
85853W        W58113   7.165  10.373   4.118
85854W        W58114  27.861  30.559   2.873
85855W        W58115  29.017  41.652  13.508
85856W        W58116   8.242   0.431   1.422
85857W        W58117   0.382  37.315  11.052
85858W        W58118  16.202  35.232  13.520
85859W        W58119  32.564  22.179  14.099
85860W        W58120  17.106   9.760  14.401
85861W        W58121  25.078  14.586  12.421
85862W        W58122  44.002  26.657  10.055
85863W        W58123  11.716   9.620   0.214
85864W        W58124  40.222   3.896   0.702
85865W        W58125  29.106  27.327  12.929
85866W        W58126  24.424  34.610   4.041
85867W        W58127   3.218  41.091   0.817
85868W        W58128  17.906  44.943   4.591
85869W        W58129  26.479  33.189   4.790
85870W        W58130  18.212   5.648   2.240
85871W        W58131  14.216  37.315   0.274
85872W        W58132  18.677  35.943  13.977
85873W        W58133  21.052  25.174  11.643
85874W        W58134  44.432  43.904   3.996
85875W        W58135   8.540  44.579  13.041
85876W        W58136  37.844  13.143   2.419
85877W        W58137  43.206  21.594   2.321
85878W        W58138  21.689  43.428  14.429
85879W        W58139   4.255   3.396   3.239
85880W        W58140  15.772  17.503   3.234
85881W        W58141   8.696   5.022  11.264
85882W        W58142  20.191  42.550  13.029
85883W        W58143  13.818  31.247  11.426
85884W        W58144  33.449  21.948   1.844
85885W        W58145  26.342  30.536  13.745
85886W        W58146  40.182  40.124   3.770
85887W        W58147  32.246  28.062  13.875
85888W        W58148  25.136   2.270   4.945
85889W        W58149  16.564  23.960   1.874
85890W        W58150  16.244   9.602   0.558
85891W        W58151   2.516  19.688  11.981
85892W        W58152  35.635  33.033  11.159
85893W        W58153  10.372   2.092   2.985
85894W        W58154  26.596  43.764   1.784
85895W        W58155  36.285   7.351  11.841
85896W        W58156  12.385   6.705  11.196
85897W        W58157  21.812  18.402   4.029
85898W        W58158  31.920  44.810   2.779
85899W        W58159  26.439  42.956  14.397
85900W        W58160  36.203  28.138  11.698
85901W        W58161  41.064  11.211  13.420
85902W        W58162  17.278  23.210   2.948
85903W        W58163   7.371  18.633  11.298
85904W        W58164  29.936  41.489  12.420
85905W        W58165  10.743  41.754   3.822
85906W        W58166  33.530  15.744   0.412
85907W        W58167  30.963  21.981   0.670
85908W        W58168  41.291  13.137   3.257
85909W        W58169  19.123  12.703   2.744
85910W        W58170  35.022  13.916   1.768
85911W        W58171  11.584  23.470   4.149
85912W        W58172   7.723  11.736   5.025
85913W        W58173  10.694  11.412   0.428
85914W        W58174  37.865   9.608   1.342
85915W        W58175   4.797  25.590  11.350
85916W        W58176   2.576  17.331  12.800
85917W        W58177  40.365   8.755   0.013
85918W        W58178   4.068  33.927  14.051
85919W        W58179   7.505  13.672  13.445
85920W        W58180  44.480  26.728   1.027
85921W        W58181   9.227  38.981   4.615
85922W        W58182  23.291  33.997  11.979
85923W        W58183   8.725   9.260  12.761
85924W        W58184   3.511  21.180   4.308
85925W        W58185  14.576  41.951   3.225
85926W        W58186  40.904   9.243  11.009
85927W        W58187  20.176  18.876  14.764
85928W        W58188  10.426  29.714  10.773
85929W        W58189   3.269  35.342   4.658
85930W        W58190   8.865  14.829   1.271
85931W        W58191  40.519  29.681   2.805
85932W        W58192  42.059  16.761   1.820
85933W        W58193  16.475   8.795  14.283
85934W        W58194   3.653  35.959  14.963
85935W        W58195  31.146  23.986   2.217
85936W        W58196  18.423   2.142   1.496
85937W        W58197  14.805   5.143  11.295
85938W        W58198  43.249  44.986   4.510
85939W        W58199  10.713  21.917   4.139
85940W        W58200  20.063  21.090   0.451
85941W        W58201  32.126   4.605   1.917
85942W        W58202  29.519  28.681  13.929
85943W        W58203  30.239  31.477   0.775
85944W        W58204  25.620  43.445   2.409
85945W        W58205  33.478   8.253  10.544
85946W        W58206   6.779   6.739  11.541
85947W        W58207   9.081   5.899  14.565
85948W        W58208  40.938  16.750  12.557
85949W        W58209  14.108  40.454   3.365
85950W        W58210  10.638   8.931   1.364
85951W        W58211  29.075  28.911  11.891
85952W        W58212  18.123  27.523   0.336
85953W        W58213  14.320  28.901  13.456
85954W        W58214   8.255  20.513  11.749
85955W        W58215  34.251   8.416   3.714
85956W        W58216   5.407  36.065   0.262
85957W        W58217  43.858  29.647  14.212
85958W        W58218  44.792  44.234   2.287
85959W        W58219  36.848  29.609  13.016
85960W        W58220  39.474  28.347   3.981
85961W        W58221  18.359  19.017  10.637
85962W        W58222  40.608  15.512   4.106
85963W        W58223   4.350  28.495   4.514
85964W        W58224   6.193  30.199   0.205
85965W        W58225  37.103  35.594  14.076
85966W        W58226  34.964   7.124  12.018
85967W        W58227  32.524   8.167   4.601
85968W        W58228  12.326  33.156   3.574
85969W        W58229   5.134   2.167  12.753
85970W        W58230   3.258  26.579   1.228
85971W        W58231  17.255   7.355   3.185
85972W        W58232   4.740   3.341  14.332
85973W        W58233  36.825  27.440  13.592
85974W        W58234  23.466  24.025   0.380
85975W        W58235  23.549  12.387  12.272
85976W        W58236  34.084  10.113  13.846
85977W        W58237  30.232  25.525   2.731
85978W        W58238  43.913   1.978   2.709
85979W        W58239  18.481  25.528  12.242
85980W        W58240  19.349  36.853   2.131
85981W        W58241  40.278  13.273   1.301
85982W        W58242  14.927  20.979  10.636
85983W        W58243  12.864  10.041  12.403
85984W        W58244   6.056  28.406   0.835
85985W        W58245  44.421  23.040  14.928
85986W        W58246  17.995  36.270  14.325
85987W        W58247  19.245  40.947   4.070
85988W        W58248   3.911  23.694   0.755
85989W        W58249  14.571  23.556   0.463
85990W        W58250  27.620   3.459   1.303
85991W        W58251  33.531  40.964   4.320
85992W        W58252   0.143  21.704  14.815
85993W        W58253   1.837   0.527  11.694
85994W        W58254   7.160  15.887  10.289
85995W        W58255  27.385  31.198   1.963
85996W        W58256  42.831  31.083  10.460
85997W        W58257  25.912   3.614   0.364
85998W        W58258  22.151  16.567  14.615
85999W        W58259  43.380  13.705   3.081
86000W        W58260   0.473  20.297  12.442
86001W        W58261  26.564  16.389   2.806
86002W        W58262   2.057  11.435   0.548
86003W        W58263   0.098  11.603  11.606
86004W        W58264   1.012   9.448  12.817
86005W        W58265   7.283  10.291   1.428
86006W        W58266  15.702  30.069   4.562
86007W        W58267  10.120   6.130   4.986
86008W        W58268  14.344  10.667  10.566
86009W        W58269  42.128   6.892  11.712
86010W        W58270  41.304  33.874   0.343
86011W        W58271   4.919  23.357   1.966
86012W        W58272  17.659  36.451  12.416
86013W        W58273  43.284  39.834   5.091
86014W        W58274  30.109   0.215   0.473
86015W        W58275  11.696  42.564   1.328
86016W        W58276  20.269  12.215   0.928
86017W        W58277  38.891  44.874  13.927
86018W        W58278  41.303  40.383   2.727
86019W        W58279  25.729   1.262   4.644
86020W        W58280  28.478  33.381  10.154
86021W        W58281   7.373   7.708   3.176
86022W        W58282  36.904  19.921   5.457
86023W        W58283  41.204  27.459   3.629
86024W        W58284   5.919  13.346  10.704
86025W        W58285   7.408  30.072  11.877
86026W        W58286   0.845  38.643   2.689
86027W        W58287   6.906   4.861  11.314
86028W        W58288  28.915  25.963   0.399
86029W        W58289  35.478   8.802   1.652
86030W        W58290  10.250  27.187   2.852
86031W        W58291  27.347  39.455  12.515
86032W        W58292  31.813   2.783  14.016
86033W        W58293  34.893  18.353   2.801
86034W        W58294   3.825  32.178   0.691
86035W        W58295  13.524  26.452   1.211
86036W        W58296  24.140  26.425   2.625
86037W        W58297   2.864  16.284  12.407
86038W        W58298  38.283   3.638  13.939
86039W        W58299  13.753   0.708   3.817
86040W        W58300   7.756  42.372  11.638
86041W        W58301  21.349  22.234   3.645
86042W        W58302  25.910  13.240  11.404
86043W        W58303  13.037  41.578  12.827
86044W        W58304   0.911  13.139  11.868
86045W        W58305   1.356  15.300   0.658
86046W        W58306  33.854  32.154  12.377
86047W        W58307   1.327  27.424   3.297
86048W        W58308  16.186  17.616  14.722
86049W        W58309  16.809  26.022  13.854
86050W        W58310  35.898  14.922   0.745
86051W        W58311  28.917  37.072   4.110
86052W        W58312  33.122  36.801  13.161
86053W        W58313  25.139  30.607   2.726
86054W        W58314  13.826   4.126  11.381
86055W        W58315  29.564   6.257  14.987
86056W        W58316  32.973  24.165  10.705
86057W        W58317  33.272  35.945   2.266
86058W        W58318  36.576   6.191  12.512
86059W        W58319  16.041  32.201   5.127
86060W        W58320   7.609  32.796  13.977
86061W        W58321  36.947  37.453   3.712
86062W        W58322  42.319  18.825  14.279
86063W        W58323  25.138  11.874  12.001
86064W        W58324  13.217  12.768   0.339
86065W        W58325  27.274  36.057   2.114
86066W        W58326  26.698  19.504  12.609
86067W        W58327  23.681  29.067  12.478
86068W        W58328  15.346   7.239   3.362
86069W        W58329  11.162  10.634   0.836
86070W        W58330   5.227  40.842   2.253
86071W        W58331  30.133  36.295  13.029
86072W        W58332  17.796  26.122   3.796
86073W        W58333  19.863  30.118  13.915
86074W        W58334  35.354  18.343  11.960
86075W        W58335   7.881  15.847   1.840
86076W        W58336  11.534  23.616   2.235
86077W        W58337  41.894  12.278  11.534
86078W        W58338  41.949  29.194  11.304
86079W        W58339  38.648  34.062  13.940
86080W        W58340  29.650  14.666  11.281
86081W        W58341  15.877   7.272  12.367
86082W        W58342  26.722  12.082  13.920
86083W        W58343  34.192  27.582   0.600
86084W        W58344  44.904  39.108  11.144
86085W        W58345  21.478  19.855  11.652
86086W        W58346  14.886  11.815   4.232
86087W        W58347  43.677  28.659  11.049
86088W        W58348  15.973  11.329   4.644
86089W        W58349  31.777  19.596  14.781
86090W        W58350   2.724  30.876   0.365
86091W        W58351  35.101  23.030   0.379
86092W        W58352   5.432  30.384   0.856
86093W        W58353  18.965   9.557   1.964
86094W        W58354  39.315  10.728  12.365
86095W        W58355  34.836  29.901   3.167
86096W        W58356  11.764  17.671   0.684
86097W        W58357  21.409   8.753   1.245
86098W        W58358  12.191  40.021   0.978
86099W        W58359  18.521  25.267  14.353
86100W        W58360  33.563  37.281   1.330
86101W        W58361  22.568  21.607   2.574
86102W        W58362  12.693  33.227  13.053
86103W        W58363  27.512  34.370  14.158
86104W        W58364  21.130  25.007  13.625
86105W        W58365  42.430   5.816  13.485
86106W        W58366  29.358  37.436  14.074
86107W        W58367  22.287  30.097   3.774
86108W        W58368  33.939  42.055   0.512
86109W        W58369  15.135  38.794   0.797
86110W        W58370   9.815  35.556  14.072
86111W        W58371  19.753  39.052  10.987
86112W        W58372  39.046   0.021   4.153
86113W        W58373  38.107  39.346   3.386
86114W        W58374  31.868  11.798   4.704
86115W        W58375  26.058  11.391  10.908
86116W        W58376  34.913   0.941   2.782
86117W        W58377  15.461  30.446   3.602
86118W        W58378  37.532  17.367   3.414
86119W        W58379  11.367  25.404  13.639
86120W        W58380  20.533  23.486   1.447
86121W        W58381  28.542  42.496  11.065
86122W        W58382   6.134  13.159  13.215
86123W        W58383  12.845  19.819   1.306
86124W        W58384   1.975  25.141  13.540
86125W        W58385  16.728   3.460  10.949
86126W        W58386   2.984  21.650  12.084
86127W        W58387   0.065  33.492  14.886
86128W        W58388  38.385  32.507  14.862
86129W        W58389   8.663   3.438   0.816
86130W        W58390   1.793  41.520   2.559
86131W        W58391   5.189   9.247  11.314
86132W        W58392  29.691  17.980  11.747
86133W        W58393   3.592  13.335   3.746
86134W        W58394  10.127   9.919   3.212
86135W        W58395  33.990  18.498  13.591
86136W        W58396   0.953  11.366  11.950
86137W        W58397   0.003   4.772  13.144
86138W        W58398  11.744   3.684   4.558
86139W        W58399   6.761  28.144   1.869
86140W        W58400  22.996  44.808  13.382
86141W        W58401   1.439  33.396  12.556
86142W        W58402  42.990   9.069  12.412
86143W        W58403  33.435  24.434  13.511
86144W        W58404  25.046  32.596   2.427
86145W        W58405  11.748  28.462   2.293
86146W        W58406   2.305  36.003   2.728
86147W        W58407   0.708  21.758   2.040
86148W        W58408  10.116  22.030  14.877
86149W        W58409  25.962  35.975   1.937
86150W        W58410  44.866   7.609  11.865
86151W        W58411  24.232  36.419  10.666
86152W        W58412  37.973   7.341  14.267
86153W        W58413  12.644  10.365   3.349
86154W        W58414  24.021  38.758   3.738
86155W        W58415  14.495   1.261   0.971
86156W        W58416  13.148   5.652   0.734
86157W        W58417  35.837  36.503   2.638
86158W        W58418  20.190  39.029  13.574
86159W        W58419   8.253  16.242   0.700
86160W        W58420  29.949  11.993   0.409
86161W        W58421  14.708   7.099   2.182
86162W        W58422  28.208   7.708   1.534
86163W        W58423  20.651   5.312   2.410
86164W        W58424  37.049  19.856   0.929
86165W        W58425  10.301  31.205   3.167
86166W        W58426  33.382   3.222   3.928
86167W        W58427  17.035  38.957  14.327
86168W        W58428  24.374  13.043  14.799
86169W        W58429  18.123  27.719   4.541
86170W        W58430  24.990  39.013   5.093
86171W        W58431  19.954  34.971  11.067
86172W        W58432  32.379  44.253   2.234
86173W        W58433  29.429  32.834  11.054
86174W        W58434  43.963  43.993   1.412
86175W        W58435  42.038  14.199  13.882
86176W        W58436  10.360  25.221  13.346
86177W        W58437   8.154  35.913   0.732
86178W        W58438  26.909  16.606   0.428
86179W        W58439   9.624  12.147   2.148
86180W        W58440  38.967  11.985  12.497
86181W        W58441  17.545  14.131   1.002
86182W        W58442  22.928   1.724  11.994
86183W        W58443   6.341  21.980  13.423
86184W        W58444  29.464  23.309  14.006
86185W        W58445  25.025   5.035   3.654
86186W        W58446  30.551  44.048  12.094
86187W        W58447   8.358  23.396   0.736
86188W        W58448  34.999   0.350  11.534
86189W        W58449   0.576   9.233  14.514
86190W        W58450  15.421  37.624   1.900
86191W        W58451  12.804   4.741  10.671
86192W        W58452  19.459  34.036  11.309
86193W        W58453  33.510  22.773  10.013
86194W        W58454  19.679  24.525   3.431
86195W        W58455  13.106  27.869   4.040
86196W        W58456  23.654  29.595   0.023
86197W        W58457   5.953  29.059   2.361
86198W        W58458   7.822   5.085   3.335
86199W        W58459  20.453  27.402   0.657
86200W        W58460  29.371  20.704   0.267
86201W        W58461  40.177   2.148   5.151
86202W        W58462   9.526  42.703  14.381
86203W        W58463  31.345  29.357   3.195
86204W        W58464  26.198  34.448   1.828
86205W        W58465  10.501  25.756  11.126
86206W        W58466  18.189   7.840  13.300
86207W        W58467  41.713   8.787  11.124
86208W        W58468  43.395  18.436  14.285
86209W        W58469   0.030   4.801  14.518
86210W        W58470   4.882  10.505   0.889
86211W        W58471  37.043  20.817  14.955
86212W        W58472  39.351   1.519   2.826
86213W        W58473  12.315  18.521  12.965
86214W        W58474   0.445  37.305  11.566
86215W        W58475  18.725  27.134  11.977
86216W        W58476  36.803  37.355   1.910
86217W        W58477  42.836  19.082   4.779
86218W        W58478  32.911  21.750  11.689
86219W        W58479  21.125  40.550  12.432
86220W        W58480   2.500   7.170   1.253
86221W        W58481  20.785   8.396   3.294
86222W        W58482   3.176  15.254  14.439
86223W        W58483  21.972  36.777   3.237
86224W        W58484  44.948   0.042   0.886
86225W        W58485   8.386  36.652   3.317
86226W        W58486  37.133  38.896  11.949
86227W        W58487  44.118  39.897  13.551
86228W        W58488  26.074  43.998  11.914
86229W        W58489  44.438  29.506  11.146
86230W        W58490   3.280   2.830   1.991
86231W        W58491  39.627  34.992   1.878
86232W        W58492  28.093   6.899  11.179
86233W        W58493  29.762  32.106  10.210
86234W        W58494  35.924  27.208  11.551
86235W        W58495   1.767  33.068   1.755
86236W        W58496  13.469  34.340   1.402
86237W        W58497  39.505  33.894   3.287
86238W        W58498  21.091  37.402  14.332
86239W        W58499  13.003   4.890   3.658
86240W        W58500  39.436   2.724   4.640
86241W        W58501  19.971   5.198  12.534
86242W        W58502  41.236   9.717   2.811
86243W        W58503  16.229  14.133   2.834
86244W        W58504  17.007  11.167  11.622
86245W        W58505   6.901   9.682   0.473
86246W        W58506   7.035   2.748   2.189
86247W        W58507  16.635  41.877  11.052
86248W        W58508   2.855  11.759  14.875
86249W        W58509  11.622  18.246  11.714
86250W        W58510  16.695   7.329  10.286
86251W        W58511  43.727  37.989   4.147
86252W        W58512  18.579   5.622  14.678
86253W        W58513  19.221  40.527   4.380
86254W        W58514  36.635  33.359  11.021
86255W        W58515  36.137  14.327   1.846
86256W        W58516  42.699  27.432   2.348
86257W        W58517  28.993  12.360   2.817
86258W        W58518  22.945  11.400  14.461
86259W        W58519  37.376  34.607   0.570
86260W        W58520  14.717  21.134  13.063
86261W        W58521   0.947   9.684  13.526
86262W        W58522  37.872  44.926  14.272
86263W        W58523  17.819  30.937   4.901
86264W        W58524   6.795  28.134  13.987
86265W        W58525  17.178  41.317  13.261
86266W        W58526  31.996  40.804   1.478
86267W        W58527  14.603  42.609   3.707
86268W        W58528  27.451  41.958   3.258
86269W        W58529  10.904  22.086   3.680
86270W        W58530  35.810  16.838   0.041
86271W        W58531  10.751   4.794   3.274
86272W        W58532   2.827  44.515   0.857
86273W        W58533   7.299   5.294  11.454
86274W        W58534  15.448  10.567   0.798
86275W        W58535  28.668   9.735  12.917
86276W        W58536  13.044   1.844   4.559
86277W        W58537   3.125  39.403  12.459
86278W        W58538   5.807  42.351   0.784
86279W        W58539  44.431  30.858  13.140
86280W        W58540   6.183  20.863  11.732
86281W        W58541  13.224   5.715  11.475
86282W        W58542  37.416  27.021   2.757
86283W        W58543  11.121  27.719   2.820
86284W        W58544   8.793  19.474  14.871
86285W        W58545  22.113  26.526  13.332
86286W        W58546  10.416  28.236   2.959
86287W        W58547  13.861  34.341   1.807
86288W        W58548   6.724  38.051  11.057
86289W        W58549  40.391  44.854  12.500
86290W        W58550  11.383  22.666   2.310
86291W        W58551  10.842  26.559   3.620
86292W        W58552   6.214  44.339  12.807
86293W        W58553  36.518  35.449  11.989
86294W        W58554  29.950  12.058  14.354
86295W        W58555  16.084  37.396  11.148
86296W        W58556  43.050  18.779   2.745
86297W        W58557  34.803  20.020   4.595
86298W        W58558  29.261  18.004   1.821
86299W        W58559  40.850  19.429   3.673
86300W        W58560  40.736  34.347   1.654
86301W        W58561  21.019  31.046   2.664
86302W        W58562  40.096   6.919  12.849
86303W        W58563  24.502  42.034  14.052
86304W        W58564   0.577  12.996   3.131
86305W        W58565   7.346  35.994  12.447
86306W        W58566  44.780  39.009  14.833
86307W        W58567   0.017  43.911   1.390
86308W        W58568  14.235   9.027   4.563
86309W        W58569  15.635  40.138   9.952
86310W        W58570   9.864  26.702  13.067
86311W        W58571  33.193   0.006   3.222
86312W        W58572  39.465   6.751   1.394
86313W        W58573  36.805   6.397   4.780
86314W        W58574  38.918  34.067   0.444
86315W        W58575  35.965  22.545   2.957
86316W        W58576  32.610  14.119   2.148
86317W        W58577   0.669  37.368   5.063
86318W        W58578  41.621  37.816   3.916
86319W        W58579  18.150  35.995  13.882
86320W        W58580  19.581  17.532  13.353
86321W        W58581  13.792  25.911   3.253
86322W        W58582  22.938  17.401  14.860
86323W        W58583  44.089  20.630   3.754
86324W        W58584   9.089   5.497  12.832
86325W        W58585  40.798  13.434   3.842
86326W        W58586  36.281  32.133   4.555
86327W        W58587  18.613  21.565   0.811
86328W        W58588  31.576  13.116  14.408
86329W        W58589   9.719  10.176  14.266
86330W        W58590  36.481  39.829   4.468
86331W        W58591  28.790   1.776   2.843
86332W        W58592   3.296  25.192   3.250
86333W        W58593   0.597  19.632  14.868
86334W        W58594   2.822  35.946  11.438
86335W        W58595  34.142  28.409   2.779
86336W        W58596  21.505   0.064  11.653
86337W        W58597   5.162  42.665  14.335
86338W        W58598  42.315  24.446  12.062
86339W        W58599  21.057   7.948  13.009
86340W        W58600  33.604   7.695   0.989
86341W        W58601  29.088  14.282   0.197
86342W        W58602  28.643  13.810  12.481
86343W        W58603   7.858  31.027  11.159
86344W        W58604  32.302  24.830   3.952
86345W        W58605  27.508  31.704   4.960
86346W        W58606  17.141  18.548   0.091
86347W        W58607  22.510  24.770  13.572
86348W        W58608   2.938   9.954  14.287
86349W        W58609   5.287  44.095   0.493
86350W        W58610  23.045  26.190  13.465
86351W        W58611   0.974  22.020   0.116
86352W        W58612  41.171  37.479  13.430
86353W        W58613   4.013  35.362   3.573
86354W        W58614   5.354  26.770  14.471
86355W        W58615  36.472  34.114  11.654
86356W        W58616  43.522  33.368  11.047
86357W        W58617  41.069   1.173   1.713
86358W        W58618  16.689  31.199   4.182
86359W        W58619   7.938  24.564  12.372
86360W        W58620  13.437  34.127  11.021
86361W        W58621  22.510  21.808  11.103
86362W        W58622  23.989   8.245  10.647
86363W        W58623  24.640  41.862  13.582
86364W        W58624  34.340   1.993  11.658
86365W        W58625  12.779  17.606  13.610
86366W        W58626   2.199  21.070   2.166
86367W        W58627  39.306  25.147  13.774
86368W        W58628  24.584  35.000   0.400
86369W        W58629  41.157   2.077   4.108
86370W        W58630  22.166  41.808   4.506
86371W        W58631   9.627  44.393  12.482
86372W        W58632  35.612  33.986   4.140
86373W        W58633  37.567  37.305   3.192
86374W        W58634   8.742   6.768  10.822
86375W        W58635  26.061  17.777  12.136
86376W        W58636  12.334  12.932   1.981
86377W        W58637  16.305   2.073   4.157
86378W        W58638   9.895  40.795  13.831
86379W        W58639  44.513  36.581  14.066
86380W        W58640  41.496  38.040  11.383
86381W        W58641  26.068  11.405  11.956
86382W        W58642  38.320   1.842  13.448
86383W        W58643  15.347  43.234   4.422
86384W        W58644  44.235  37.208  14.687
86385W        W58645   1.805  16.217  13.957
86386W        W58646  35.122  33.062  12.965
86387W        W58647  19.089  15.187  13.488
86388W        W58648  38.873  41.904  14.389
86389W        W58649   1.397  37.323   1.800
86390W        W58650  41.262  28.538  12.415
86391W        W58651  32.495   9.689   2.886
86392W        W58652   5.265  31.340   2.983
86393W        W58653  42.529  39.107  14.521
86394W        W58654  31.513  31.145  12.356
86395W        W58655  41.495   1.805   2.277
86396W        W58656   2.717  32.555   3.294
86397W        W58657  23.144  29.813   3.248
86398W        W58658  22.232  11.288  13.968
86399W        W58659  27.807  15.575   3.302
86400W        W58660  16.223  25.176  11.192
86401W        W58661   9.161  44.872  13.979
86402W        W58662  11.125  24.324   0.634
86403W        W58663   7.157   7.752   1.856
86404W        W58664  33.218  19.597  10.107
86405W        W58665   7.515  21.057   0.331
86406W        W58666  34.875  25.362   1.229
86407W        W58667   0.435  36.519   4.195
86408W        W58668   4.936  27.470   3.773
86409W        W58669  41.371  43.347  13.753
86410W        W58670   1.363  15.999  13.820
86411W        W58671  26.674  42.512  14.626
86412W        W58672  12.378   7.422   2.354
86413W        W58673   5.883  28.051   2.363
86414W        W58674  36.955  11.103  14.897
86415W        W58675  15.266   1.167   1.135
86416W        W58676  13.061  31.403   0.184
86417W        W58677  16.575  18.042   4.073
86418W        W58678  13.668   6.896   3.380
86419W        W58679  32.227   4.169  13.077
86420W        W58680  22.941  34.392  11.104
86421W        W58681  10.920  35.014   3.114
86422W        W58682  19.010  27.989   2.085
86423W        W58683  27.468  23.461  12.072
86424W        W58684  29.982  22.752   0.913
86425W        W58685  31.407  14.249   4.888
86426W        W58686   0.757  13.778   3.377
86427W        W58687  17.121  11.610   4.969
86428W        W58688  22.581  24.563  12.589
86429W        W58689  30.769  44.232   4.136
86430W        W58690  27.924  13.991  10.991
86431W        W58691  43.067  13.720  11.040
86432W        W58692   5.420   9.641   1.488
86433W        W58693   0.159  14.530   3.329
86434W        W58694  24.231  20.441  12.020
86435W        W58695  25.011  39.304   0.302
86436W        W58696   0.356  16.596  11.033
86437W        W58697   0.535  21.751   2.581
86438W        W58698   9.130   3.402  12.137
86439W        W58699  12.107  31.461  12.949
86440W        W58700  21.410  36.862  12.832
86441W        W58701  41.424  30.993  11.657
86442W        W58702  15.707  12.306   2.201
86443W        W58703  18.273  30.862  13.426
86444W        W58704  18.673  26.435  14.749
86445W        W58705  28.228  16.674   2.642
86446W        W58706  41.313  10.389   0.805
86447W        W58707  13.095  39.278  14.023
86448W        W58708  19.698  37.412  13.351
86449W        W58709  41.814   6.417  11.944
86450W        W58710  28.115   0.185  11.592
86451W        W58711   9.286  22.639  13.731
86452W        W58712  18.197  37.956  12.926
86453W        W58713  10.415  30.062   4.227
86454W        W58714  16.559   1.785  12.412
86455W        W58715  14.153   7.793  13.852
86456W        W58716  13.876  25.055   1.731
86457W        W58717  12.382  29.893   2.779
86458W        W58718  41.635  26.036   1.811
86459W        W58719   0.721   4.151  11.638
86460W        W58720  19.026  27.740  11.499
86461W        W58721  10.282  33.256  13.826
86462W        W58722  44.592  39.859  11.641
86463W        W58723  33.886  32.944   1.271
86464W        W58724  44.846  32.861  11.974
86465W        W58725   9.841  22.549  11.252
86466W        W58726  10.051  18.131  11.685
86467W        W58727  42.230  20.013   2.257
86468W        W58728  44.042  15.525   4.154
86469W        W58729  32.939  20.629   1.876
86470W        W58730   7.781  35.785  11.084
86471W        W58731  37.004  23.627  12.164
86472W        W58732  34.385  26.749  11.099
86473W        W58733   9.693  11.660   2.313
86474W        W58734   1.988   0.844   1.799
86475W        W58735  12.887  22.754  12.019
86476W        W58736  17.785  32.618  14.367
86477W        W58737   9.812  31.486   0.971
86478W        W58738  35.767   1.427  11.721
86479W        W58739  40.983   3.653   3.084
86480W        W58740  16.604  13.242  14.153
86481W        W58741  29.602  43.489  11.384
86482W        W58742  12.059  38.738  12.451
86483W        W58743  20.782  25.588   4.509
86484W        W58744  18.699  26.719  14.327
86485W        W58745  32.113   3.369  14.772
86486W        W58746  19.162  20.532  10.718
86487W        W58747  39.774  34.741  14.480
86488W        W58748  37.165  32.869  14.427
86489W        W58749   0.455  37.969   4.704
86490W        W58750  43.943  34.582   1.297
86491W        W58751  24.923   5.894  12.936
86492W        W58752   8.303  26.629  11.927
86493W        W58753  40.810  32.424  12.107
86494W        W58754  25.216  29.083  11.623
86495W        W58755   5.217   1.152  11.184
86496W        W58756   4.026  37.382  12.907
86497W        W58757  27.587  16.249  11.914
86498W        W58758  42.573  31.168   0.958
86499W        W58759  20.243  28.515   3.165
86500W        W58760  44.751   2.061   2.563
86501W        W58761  28.203  20.183   1.732
86502W        W58762  37.321  33.487   2.622
86503W        W58763  41.466  31.344  13.473
86504W        W58764  41.717  39.117   1.057
86505W        W58765  32.447   5.167   3.131
86506W        W58766  37.582   9.688  11.407
86507W        W58767  34.004  29.065   3.301
86508W        W58768  29.731  35.044   2.829
86509W        W58769   3.839   0.678  14.274
86510W        W58770  29.403  14.891   1.903
86511W        W58771  23.637  41.367   3.710
86512W        W58772  31.504  44.575  13.371
86513W        W58773   5.201  22.007  14.031
86514W        W58774  44.413  27.162  14.273
86515W        W58775  41.151  25.559  14.790
86516W        W58776  13.861  34.791   2.339
86517W        W58777  35.908  39.576   4.567
86518W        W58778  15.524   6.081  11.955
86519W        W58779  12.089  17.472  14.796
86520W        W58780  30.772  18.724   3.322
86521W        W58781  22.126  41.825  14.780
86522W        W58782  33.398   3.015  13.314
86523W        W58783  19.383  35.954   1.258
86524W        W58784  32.551  24.191   3.415
86525W        W58785   8.761  40.338  13.457
86526W        W58786  14.091  30.351  14.875
86527W        W58787   0.475  29.197   1.638
86528W        W58788  44.439  41.544   0.527
86529W        W58789  43.545   9.161  14.966
86530W        W58790  30.578  11.090   3.580
86531W        W58791   1.382   5.913  10.783
86532W        W58792   9.331  33.908  11.590
86533W        W58793  11.894  25.877  14.726
86534W        W58794  30.212  32.877   1.470
86535W        W58795  38.595  39.378   0.569
86536W        W58796  42.354  21.510  10.985
86537W        W58797  12.759  20.829  14.807
86538W        W58798  38.864  32.653   1.541
86539W        W58799  29.130  33.153  14.917
86540W        W58800   9.236  10.316   3.233
86541W        W58801  29.013  22.520  12.501
86542W        W58802   8.403  11.634   3.621
86543W        W58803  33.560  38.827  13.548
86544W        W58804  29.657  23.095   5.219
86545W        W58805  12.818  28.010   9.775
86546W        W58806   9.640  20.746  10.882
86547W        W58807  34.933  23.306   3.347
86548W        W58808   6.287  13.706  11.448
86549W        W58809   7.713  27.632   9.723
86550W        W58810   5.175  27.524   1.928
86551W        W58811  10.911  13.736  12.097
86552W        W58812   9.172  22.656   4.132
86553W        W58813   1.717  24.650   3.195
86554W        W58814  40.867  30.453   0.389
86555W        W58815  38.926  24.524   0.507
86556W        W58816   6.144  11.019  11.070
86557W        W58817  21.839   3.695   0.266
86558W        W58818   7.641  23.121  14.550
86559W        W58819  32.253  38.472   2.661
86560W        W58820   6.640  23.031  10.839
86561W        W58821  12.270  14.235   2.080
86562W        W58822  43.283  44.398  12.044
86563W        W58823   6.968  31.145  12.026
86564W        W58824  44.870  33.534  10.769
86565W        W58825  19.491  12.693   0.039
86566W        W58826  14.369  24.977  12.450
86567W        W58827  11.843  22.800  14.411
86568W        W58828   6.741   4.633  14.716
86569W        W58829   0.477  37.927   1.141
86570W        W58830  33.527  34.933   2.306
86571W        W58831  30.058   0.170  12.559
86572W        W58832  36.856  37.941  11.989
86573W        W58833  40.532  26.930  11.074
86574W        W58834  17.522   3.652  14.346
86575W        W58835  32.075  31.966  10.658
86576W        W58836   6.192  32.042  14.984
86577W        W58837  15.132  14.826   2.190
86578W        W58838  32.852  12.320   4.143
86579W        W58839  19.910  33.957  13.447
86580W        W58840  29.065   4.184   2.613
86581W        W58841  40.526  37.044   1.936
86582W        W58842  18.529   6.167  11.123
86583W        W58843  38.733  30.545  12.925
86584W        W58844  13.652  28.491   4.265
86585W        W58845  43.343  22.802  12.994
86586W        W58846  19.831  36.833   2.344
86587W        W58847  16.999  15.200   9.764
86588W        W58848  11.327  20.646  13.877
86589W        W58849  19.576   5.920  10.685
86590W        W58850   3.883  12.384   0.172
86591W        W58851  27.873   4.293  11.153
86592W        W58852  44.822  34.129  11.396
86593W        W58853  29.155  25.248   1.425
86594W        W58854  17.106  18.261   5.057
86595W        W58855  16.102  14.382  13.993
86596W        W58856   5.493   7.335  14.751
86597W        W58857  35.514  33.739  13.394
86598W        W58858   9.109  17.571  14.617
86599W        W58859  20.037  21.628  14.636
86600W        W58860   2.649  37.643  11.064
86601W        W58861  26.493  43.841   3.725
86602W        W58862   2.457   0.322  12.454
86603W        W58863  33.029   5.908   4.595
86604W        W58864  31.226  31.229   5.048
86605W        W58865  24.713  31.378   4.786
86606W        W58866   0.569   1.868  11.916
86607W        W58867  19.177  35.741   4.456
86608W        W58868  25.667  23.203   4.476
86609W        W58869  25.751  28.187  11.635
86610W        W58870  25.108  12.383  12.955
86611W        W58871  30.653  37.374   0.905
86612W        W58872  40.825  11.290  14.357
86613W        W58873  15.858  20.968   1.814
86614W        W58874  31.283  11.123   1.205
86615W        W58875  41.361  12.447  14.363
86616W        W58876  13.240  38.567  14.855
86617W        W58877   2.294  16.513   3.652
86618W        W58878   7.703  36.855  11.719
86619W        W58879   8.640  20.302  13.844
86620W        W58880  39.499  29.424   1.236
86621W        W58881  39.664  26.540  10.958
86622W        W58882  29.641  27.404   3.654
86623W        W58883  15.693  10.162  11.056
86624W        W58884  13.391   0.231  13.504
86625W        W58885  24.101   3.414   4.582
86626W        W58886  33.864  13.282  11.994
86627W        W58887  44.419   6.678  13.517
86628W        W58888  17.878  43.169   3.321
86629W        W58889  20.602  31.880  11.085
86630W        W58890  21.757  41.360  12.351
86631W        W58891  40.448  29.714  14.364
86632W        W58892  11.341  16.036  13.419
86633W        W58893   2.945   0.637  11.947
86634W        W58894  39.234  38.283   0.314
86635W        W58895  17.521  39.082   1.206
86636W        W58896  16.495  42.683   4.182
86637W        W58897  18.798   3.704  12.496
86638W        W58898  25.788  14.870  11.087
86639W        W58899  18.050   6.953   3.522
86640W        W58900  11.893  16.538  11.777
86641W        W58901  32.527  27.950  13.072
86642W        W58902  30.121  27.962  14.850
86643W        W58903   0.229  43.357   3.260
86644W        W58904  32.940  37.622   4.177
86645W        W58905  25.539   1.444  14.515
86646W        W58906  22.174  17.747  10.772
86647W        W58907  18.701  12.804   4.483
86648W        W58908  40.075  20.105  10.638
86649W        W58909   0.488   4.080  11.193
86650W        W58910  30.658  42.458   3.768
86651W        W58911  26.642  38.453  14.132
86652W        W58912   6.926  32.691  12.036
86653W        W58913   0.038  31.425   1.666
86654W        W58914  44.864   0.859  12.346
86655W        W58915  36.903  25.035   2.112
86656W        W58916  10.357  27.930   1.388
86657W        W58917  30.593   0.920   2.588
86658W        W58918   0.297  30.561  10.683
86659W        W58919  31.074  20.866   4.796
86660W        W58920   1.181  24.114   0.921
86661W        W58921  24.477   7.003  10.613
86662W        W58922  44.826  39.466   3.180
86663W        W58923  27.112  28.411   1.951
86664W        W58924   0.256  17.553  13.784
86665W        W58925  23.475  30.887   1.410
86666W        W58926  13.578  13.114  11.032
86667W        W58927  42.918   2.684   3.271
86668W        W58928  26.412  24.973  13.821
86669W        W58929  42.754  36.873  13.003
86670W        W58930  38.980  20.890  10.178
86671W        W58931  21.065  39.735   4.309
86672W        W58932  20.421  32.938  14.358
86673W        W58933  23.207   9.437  12.865
86674W        W58934  42.685   3.889   1.795
86675W        W58935  25.003  43.150   3.165
86676W        W58936  35.203  44.497  13.268
86677W        W58937   6.530  13.194  12.004
86678W        W58938  12.169  20.825   0.822
86679W        W58939   7.441  24.177  11.998
86680W        W58940  25.624  29.674  13.988
86681W        W58941   8.744  37.949   1.413
86682W        W58942  25.669  14.690   0.026
86683W        W58943  32.486  25.245   3.658
86684W        W58944  42.754   3.435  13.403
86685W        W58945  21.283  11.095   2.757
86686W        W58946   4.932  32.075   3.726
86687W        W58947  26.004  40.392  13.650
86688W        W58948  39.834  17.192  11.591
86689W        W58949   3.997  31.212   2.733
86690W        W58950  15.259  40.500  14.450
86691W        W58951  17.473  37.366   0.682
86692W        W58952  17.256  10.907   3.391
86693W        W58953  10.771  41.945   0.988
86694W        W58954  27.910  38.151   2.951
86695W        W58955  31.946  43.853  11.200
86696W        W58956  40.861  43.799   0.367
86697W        W58957  38.841  33.398   2.757
86698W        W58958  13.882  31.421  13.187
86699W        W58959  36.456  25.726   1.895
86700W        W58960  21.129  16.579  13.789
86701W        W58961   5.921  19.986  13.669
86702W        W58962  28.912  10.901  14.525
86703W        W58963  16.835  17.627  11.137
86704W        W58964   2.518  21.717   1.015
86705W        W58965  30.938  15.308   4.128
86706W        W58966  27.958  16.768  12.513
86707W        W58967   3.963  11.153  12.973
86708W        W58968  11.380   0.895  10.881
86709W        W58969  15.068  44.015  13.394
86710W        W58970  30.042   1.918  12.538
86711W        W58971  11.847  41.806  14.975
86712W        W58972  13.686  31.945   2.634
86713W        W58973  37.831  31.486  11.470
86714W        W58974  38.764  20.756   4.371
86715W        W58975  31.364  44.179   0.354
86716W        W58976  14.773  32.030   0.287
86717W        W58977  39.851  15.643  14.348
86718W        W58978  13.257   1.330  12.646
86719W        W58979  23.084   8.524   2.970
86720W        W58980  22.654  44.365   1.332
86721W        W58981  41.579   3.642  14.078
86722W        W58982  25.933  14.090  11.153
86723W        W58983  24.072  12.750   3.167
86724W        W58984  41.295  39.079  12.922
86725W        W58985  32.033   0.703   3.121
86726W        W58986  28.679   1.263  10.379
86727W        W58987  27.107  20.234   2.267
86728W        W58988  18.143   4.947   1.354
86729W        W58989  35.314  15.882   0.763
86730W        W58990  34.869  18.608   4.637
86731W        W58991  22.456  13.226   2.300
86732W        W58992   0.020  16.264   2.932
86733W        W58993  44.409   1.137   1.524
86734W        W58994  10.177  17.848   3.336
86735W        W58995  37.062  17.629  13.481
86736W        W58996  21.847  20.810   5.063
86737W        W58997  40.526  40.095   4.953
86738W        W58998  37.023  42.559   4.165
86739W        W58999  29.627  21.211   0.295
86740W        W59000   6.672  42.918   0.860
86741W        W59001  20.119  21.281  11.103
86742W        W59002   2.124  20.027  12.879
86743W        W59003   8.182  27.644   0.368
86744W        W59004   8.154  43.389  12.252
86745W        W59005  25.132  12.123  10.718
86746W        W59006  37.530   3.231  13.050
86747W        W59007  41.539  40.971   4.511
86748W        W59008  15.069  14.207   2.376
86749W        W59009  27.205  40.350  13.451
86750W        W59010  40.991  43.715   1.370
86751W        W59011  27.112  15.844  13.105
86752W        W59012  13.204  29.395  10.741
86753W        W59013  26.101   1.326   1.306
86754W        W59014   6.784  40.155   3.727
86755W        W59015  29.406  25.462  11.992
86756W        W59016  14.831  37.381  12.413
86757W        W59017   0.432  21.795   0.319
86758W        W59018  44.879  27.737  10.738
86759W        W59019  28.720  37.310   3.658
86760W        W59020  20.106   4.100  13.469
86761W        W59021  29.146  40.961  12.462
86762W        W59022  29.149  24.544   4.472
86763W        W59023   2.181  24.996  12.610
86764W        W59024   4.788  33.505   2.323
86765W        W59025  21.258  12.047   2.835
86766W        W59026  32.479  33.601  13.913
86767W        W59027  10.607  34.856   1.324
86768W        W59028  13.775  24.607  12.011
86769W        W59029   7.011  27.458   0.641
86770W        W59030  18.881  33.520  13.627
86771W        W59031  39.112  15.697   1.675
86772W        W59032   8.220  35.877   0.189
86773W        W59033  33.511  43.784   0.745
86774W        W59034  16.966  12.923  11.215
86775W        W59035  24.524  25.043   4.107
86776W        W59036  34.192  39.168   4.136
86777W        W59037   8.404   4.278   3.535
86778W        W59038  39.928  42.763   3.366
86779W        W59039  15.635  31.699  10.671
86780W        W59040  14.609   0.409  12.079
86781W        W59041  44.682  34.647   1.804
86782W        W59042  25.750   5.806  10.702
86783W        W59043  15.824  36.489   4.483
86784W        W59044   8.578  26.974   0.278
86785W        W59045  20.157  42.480   0.484
86786W        W59046  20.675  11.889   0.937
86787W        W59047   1.989  11.585  10.886
86788W        W59048  17.564  23.047  14.099
86789W        W59049  21.675  27.305   4.280
86790W        W59050  21.129  44.919  13.322
86791W        W59051  27.962   7.140   0.481
86792W        W59052  34.030  40.684   1.382
86793W        W59053  43.657  17.874   1.851
86794W        W59054  22.158  32.019  14.268
86795W        W59055  39.467  16.089   0.285
86796W        W59056  29.370  33.048   3.834
86797W        W59057  40.300  42.558  11.126
86798W        W59058   5.321  39.978   1.884
86799W        W59059   7.325  19.331   3.619
86800W        W59060   7.005   6.502  11.931
86801W        W59061   8.492  27.442  13.479
86802W        W59062  36.055   8.778   2.944
86803W        W59063  43.839  22.635  13.077
86804W        W59064  44.929  38.492  11.555
86805W        W59065  33.879  13.635  14.795
86806W        W59066  44.878  18.719  13.861
86807W        W59067  33.105  23.051  13.555
86808W        W59068  33.937   5.049   0.801
86809W        W59069  33.938  10.887  14.850
86810W        W59070  15.315  12.064   4.074
86811W        W59071  17.884   4.375  13.802
86812W        W59072  19.582  37.290   2.266
86813W        W59073  19.060  26.933   0.320
86814W        W59074   8.872  17.026   1.728
86815W        W59075  36.459   0.389   5.113
86816W        W59076  43.054  32.498  11.719
86817W        W59077  40.923   3.699   2.594
86818W        W59078  21.798  14.691   1.208
86819W        W59079  27.222  27.040  11.790
86820W        W59080  36.433   6.154   5.074
86821W        W59081  25.685  33.947   3.698
86822W        W59082  13.896   4.452  10.981
86823W        W59083  26.466  11.052   1.414
86824W        W59084  40.657  37.487  14.334
86825W        W59085  43.071  26.022  10.579
86826W        W59086  37.141   6.336  11.408
86827W        W59087  30.405  42.781   1.714
86828W        W59088  33.578   4.221  11.399
86829W        W59089  19.183  10.749  14.906
86830W        W59090  10.785   9.856   2.260
86831W        W59091  24.073  24.433   3.314
86832W        W59092  32.532  15.028   3.120
86833W        W59093  21.242  24.286  13.862
86834W        W59094  43.221  20.605  13.801
86835W        W59095   7.168  10.342   3.257
86836W        W59096  42.958  36.215  13.402
86837W        W59097  29.651  39.444   3.872
86838W        W59098   4.325   9.920  13.301
86839W        W59099   1.766  11.140  10.692
86840W        W59100  21.984   8.907   0.367
86841W        W59101  15.067  30.979   4.878
86842W        W59102  11.822  16.720  10.477
86843W        W59103  16.493  38.807  11.076
86844W        W59104  29.345  15.885   4.772
86845W        W59105  33.491  18.808  12.031
86846W        W59106  13.121  26.108  14.993
86847W        W59107  44.914  39.518  11.433
86848W        W59108  28.519   2.383  12.591
86849W        W59109  38.951  13.280   0.794
86850W        W59110   4.831  28.518  10.983
86851W        W59111  18.771  27.744   3.847
86852W        W59112  35.023   6.261   1.798
86853W        W59113  13.646  29.455   1.940
86854W        W59114  27.708  31.668   9.698
86855W        W59115   0.670  24.815  13.299
86856W        W59116  38.428   0.900  10.894
86857W        W59117  12.565  33.937  13.966
86858W        W59118  10.778   6.961  14.873
86859W        W59119  13.316  30.259  12.951
86860W        W59120   7.730  33.556   1.026
86861W        W59121   2.885  20.945   1.283
86862W        W59122  12.101  39.513   0.493
86863W        W59123   4.512  26.951   4.600
86864W        W59124  30.992  16.525   0.775
86865W        W59125   4.787  31.472  10.657
86866W        W59126  22.112  20.845   3.745
86867W        W59127  33.425  40.036   4.722
86868W        W59128  19.139  29.630   4.077
86869W        W59129  29.622  34.574   4.173
86870W        W59130  42.517  23.439   0.859
86871W        W59131  22.455  43.257   3.745
86872W        W59132  18.386   6.278   3.079
86873W        W59133  17.213  39.540  13.770
86874W        W59134  11.555   6.034  11.951
86875W        W59135  32.119  30.673  12.132
86876W        W59136  25.081  19.762   3.716
86877W        W59137  22.918   1.178   3.657
86878W        W59138   0.199  18.729   0.185
86879W        W59139  28.013   4.888  12.352
86880W        W59140   8.925  20.467   1.428
86881W        W59141   8.332  42.528   0.964
86882W        W59142   7.964   7.375  12.105
86883W        W59143   3.569  36.118   4.840
86884W        W59144  28.740   7.469  11.053
86885W        W59145  41.502   8.295   3.358
86886W        W59146  38.331   3.221   3.562
86887W        W59147   6.790   1.400  14.220
86888W        W59148   2.460   3.144   0.949
86889W        W59149  44.159   5.333   1.952
86890W        W59150  12.053  25.231  14.954
86891W        W59151  37.986  43.429   2.589
86892W        W59152   9.161  24.768   1.238
86893W        W59153  11.393  41.261   1.805
86894W        W59154  18.778  16.247   3.083
86895W        W59155  43.345  42.512  13.912
86896W        W59156  34.720  40.005   2.775
86897W        W59157  10.907  25.976  14.415
86898W        W59158  40.639  12.637  10.603
86899W        W59159  37.400  35.387  12.432
86900W        W59160   9.938  42.388  12.615
86901W        W59161  38.455   0.408  10.704
86902W        W59162  17.026   7.404   1.842
86903W        W59163  13.200  15.107  11.630
86904W        W59164  24.194  40.009   5.394
86905W        W59165   8.132  32.730   1.207
86906W        W59166  32.880  43.204   2.714
86907W        W59167  39.055  18.819   5.151
86908W        W59168  32.177  15.480   2.717
86909W        W59169   6.108  35.960   0.738
86910W        W59170  20.798  21.466  11.008
86911W        W59171  10.237   4.451  13.403
86912W        W59172   5.772  43.111  13.157
86913W        W59173  34.955   9.861  11.216
86914W        W59174  34.909  24.015  13.969
86915W        W59175  20.090  25.557  12.845
86916W        W59176   5.088  18.658   0.872
86917W        W59177  17.334  28.888   4.571
86918W        W59178  22.958  15.768   3.735
86919W        W59179  33.245   3.300   5.280
86920W        W59180  44.797  44.303  13.076
86921W        W59181  34.102   6.152  12.397
86922W        W59182  43.584   5.729  14.876
86923W        W59183  18.228  28.660  10.652
86924W        W59184   7.909  43.796   0.808
86925W        W59185  12.374  34.410   1.348
86926W        W59186  40.575  17.138   3.380
86927W        W59187   3.849   2.862   4.599
86928W        W59188  33.900  39.781   2.337
86929W        W59189  25.442   5.090  11.104
86930W        W59190   5.887  19.593   3.130
86931W        W59191  26.002  15.247   2.877
86932W        W59192   7.598   1.916  13.265
86933W        W59193  41.369  32.916   3.779
86934W        W59194  20.066  44.189  10.442
86935W        W59195  40.265   9.773  12.300
86936W        W59196   0.856  40.570   2.602
86937W        W59197  21.361   0.042   3.643
86938W        W59198  40.805  10.561   0.937
86939W        W59199  12.322  13.778   1.878
86940W        W59200  43.892  31.725  11.503
86941W        W59201  19.812  24.096   0.465
86942W        W59202  40.890  10.807  14.522
86943W        W59203  35.039  28.674  13.538
86944W        W59204  16.370  20.357  12.456
86945W        W59205  23.969  25.098  11.940
86946W        W59206   4.689   1.873   3.516
86947W        W59207  30.371   4.217  14.244
86948W        W59208   6.119  12.880  11.984
86949W        W59209   1.973  38.327  12.760
86950W        W59210   8.888  10.717   2.129
86951W        W59211  43.302   6.004   0.268
86952W        W59212  39.646  38.064  12.675
86953W        W59213  39.495   3.461  11.242
86954W        W59214  22.422  14.580  11.432
86955W        W59215  41.277  33.522  13.321
86956W        W59216  14.108   6.074   3.624
86957W        W59217  22.543  40.354   1.246
86958W        W59218  27.941  17.832   2.773
86959W        W59219   6.518   0.567   2.573
86960W        W59220  18.492  28.625   2.805
86961W        W59221  29.436  38.373   0.941
86962W        W59222  18.600  44.242  14.271
86963W        W59223  11.933  40.978  12.469
86964W        W59224  26.491  21.345  12.463
86965W        W59225  23.660  14.232  14.425
86966W        W59226  42.796   3.439   0.357
86967W        W59227  40.764  26.533  13.941
86968W        W59228  17.801  21.250   3.734
86969W        W59229  28.021  39.114   5.286
86970W        W59230   0.844  32.586  14.988
86971W        W59231   2.200  33.796  11.614
86972W        W59232  22.068   2.484   2.768
86973W        W59233  29.564   4.107   3.872
86974W        W59234   6.735  11.857  12.842
86975W        W59235   0.911  41.840  13.534
86976W        W59236  23.011  24.907  13.358
86977W        W59237  30.802  42.783   2.045
86978W        W59238   1.392  42.424  11.600
86979W        W59239  35.651  22.167  14.657
86980W        W59240  40.138  43.455   2.953
86981W        W59241  28.378  12.781   3.915
86982W        W59242   5.145  11.092  10.807
86983W        W59243   6.113  32.920  13.145
86984W        W59244   8.613  19.533   2.235
86985W        W59245  35.152   0.645  14.267
86986W        W59246  40.489  19.793  12.962
86987W        W59247  33.737  44.033   1.144
86988W        W59248   3.501  10.075  11.127
86989W        W59249  37.957  15.314  13.437
86990W        W59250  25.003   8.748  13.485
86991W        W59251  40.090  14.686  12.887
86992W        W59252   7.657   9.691   0.081
86993W        W59253  31.980  22.625  12.959
86994W        W59254  41.798  41.335  14.558
86995W        W59255  27.208  22.542  12.018
86996W        W59256  32.634  19.167  10.750
86997W        W59257  32.067  27.978   4.109
86998W        W59258   5.357  29.459  14.842
86999W        W59259  40.883  22.581  12.430
87000W        W59260  38.366  12.898   1.804
87001W        W59261  16.061  16.598   2.339
87002W        W59262  15.625  10.290  10.558
87003W        W59263  30.704  38.457  11.263
87004W        W59264  11.054  43.037  14.352
87005W        W59265  21.251  31.217  10.815
87006W        W59266   2.292  11.176  10.910
87007W        W59267  21.141  42.488  11.578
87008W        W59268  23.623  34.597   3.231
87009W        W59269  25.520  18.858   1.800
87010W        W59270  31.805  35.138   3.777
87011W        W59271  39.543   6.734   3.562
87012W        W59272  12.432  33.530   1.578
87013W        W59273   2.374  36.932   1.764
87014W        W59274  32.473   3.076   3.155
87015W        W59275   8.288  30.924   0.891
87016W        W59276  21.304  16.358   4.221
87017W        W59277  17.495  36.068  14.454
87018W        W59278   6.719   5.116  13.063
87019W        W59279  10.838  26.477  10.601
87020W        W59280   0.551   1.922  11.355
87021W        W59281  33.709  42.923  11.167
87022W        W59282   3.305   1.836   0.369
87023W        W59283  16.287   0.056   0.954
87024W        W59284   8.954  15.516   0.756
87025W        W59285  19.792  42.539  10.712
87026W        W59286   9.182  41.641  12.487
87027W        W59287  14.717  38.982  13.124
87028W        W59288  21.595   9.297   3.730
87029W        W59289  20.913  16.693  14.782
87030W        W59290  17.382  22.630  13.850
87031W        W59291  19.665   2.419  14.030
87032W        W59292  11.560  23.737  12.540
87033W        W59293  17.012  26.907   9.902
87034W        W59294   2.352  38.038   2.343
87035W        W59295   7.178  41.931   3.899
87036W        W59296  29.708  40.854  10.785
87037W        W59297  19.065  29.566  12.912
87038W        W59298  30.412  22.013   2.321
87039W        W59299  31.198  44.382  14.467
87040W        W59300  36.960  13.520   0.367
87041W        W59301  14.615  21.064   4.551
87042W        W59302  21.442  21.061   2.264
87043W        W59303  40.117  15.156   2.978
87044W        W59304   6.765  40.435  13.761
87045W        W59305   1.069   0.850   2.267
87046W        W59306  14.798  30.502   4.190
87047W        W59307   4.900  26.696  13.392
87048W        W59308  33.076   3.638   3.777
87049W        W59309  17.361  31.540   3.429
87050W        W59310  20.339   1.712   0.336
87051W        W59311  34.338   9.337  12.389
87052W        W59312   4.354   5.821   2.773
87053W        W59313   3.220  13.144   1.542
87054W        W59314  26.909  20.098   2.730
87055W        W59315  36.482  39.540   4.018
87056W        W59316  21.113   3.885  12.739
87057W        W59317  19.810  27.996  10.539
87058W        W59318  11.257  23.576   4.552
87059W        W59319  42.792  43.667  10.763
87060W        W59320  19.321  37.292   1.773
87061W        W59321  16.826   5.696  11.065
87062W        W59322  42.363  24.339  10.888
87063W        W59323  33.157  33.996   0.267
87064W        W59324  11.826  23.716   2.667
87065W        W59325  43.385   1.843  14.794
87066W        W59326   0.221  12.142  11.966
87067W        W59327  14.220   3.388   4.385
87068W        W59328  11.104  13.284  13.452
87069W        W59329   6.705  17.736   3.778
87070W        W59330  42.400  15.723   2.867
87071W        W59331  34.153  35.920   2.656
87072W        W59332   3.844  41.642  13.344
87073W        W59333  15.252  44.833   1.849
87074W        W59334  29.596  31.445  11.355
87075W        W59335  33.505  31.047  12.318
87076W        W59336   1.749  37.951  11.309
87077W        W59337  12.631  29.557   0.698
87078W        W59338   6.382   6.853  12.544
87079W        W59339  10.670  29.062   0.675
87080W        W59340  24.082   4.405  14.797
87081W        W59341  38.147  26.087  11.769
87082W        W59342   1.399  13.122   4.863
87083W        W59343  17.629  32.133   1.869
87084W        W59344  18.114  30.504  10.750
87085W        W59345  26.457   6.422  12.532
87086W        W59346   0.769  41.267   2.312
87087W        W59347  40.994  39.095  14.335
87088W        W59348  32.967  37.315  14.015
87089W        W59349  19.659  23.549   4.345
87090W        W59350  25.509   9.656   4.537
87091W        W59351  15.837   4.740  11.629
87092W        W59352  21.809  42.228  14.011
87093W        W59353  17.700  36.952   0.938
87094W        W59354  44.866  29.838   1.893
87095W        W59355   4.607  21.116   3.633
87096W        W59356  18.299  35.036   1.226
87097W        W59357   8.307  31.312  10.662
87098W        W59358  31.486   7.925  10.428
87099W        W59359  29.036   2.688   2.262
87100W        W59360   8.128  43.324  10.827
87101W        W59361  42.361  18.464  11.112
87102W        W59362   7.427  28.576   5.133
87103W        W59363   4.892   4.160  14.403
87104W        W59364  17.950  43.082   0.279
87105W        W59365  27.031   9.450  13.617
87106W        W59366  19.244  42.982   0.955
87107W        W59367   4.587  29.943   3.879
87108W        W59368  26.164  42.265  10.925
87109W        W59369   3.320  21.130  11.667
87110W        W59370  33.452  35.777  10.597
87111W        W59371  31.860   9.825  14.262
87112W        W59372  21.640  36.533   0.163
87113W        W59373   2.741  35.372  13.535
87114W        W59374  23.239  33.577   3.145
87115W        W59375  20.704  43.915  10.782
87116W        W59376  18.313   3.119  14.520
87117W        W59377  26.966   0.546   3.534
87118W        W59378  12.593  34.680  12.420
87119W        W59379   2.964   5.307   2.918
87120W        W59380  33.403  14.340  10.043
87121W        W59381  29.991  22.692  13.417
87122W        W59382  40.021   8.629   3.225
87123W        W59383  17.472  30.504   1.532
87124W        W59384  35.052   4.419   3.668
87125W        W59385  10.397  34.401  10.565
87126W        W59386   6.880  16.003  13.789
87127W        W59387  24.093  21.282   5.025
87128W        W59388  10.850  12.193   4.810
87129W        W59389   5.413  22.976   3.075
87130W        W59390   4.017   9.847   0.540
87131W        W59391  39.904  25.599   0.490
87132W        W59392   6.116  33.541  14.779
87133W        W59393  13.624  44.051  12.151
87134W        W59394  37.688  42.316  11.209
87135W        W59395   2.468   2.666  12.377
87136W        W59396  20.451  29.176   4.535
87137W        W59397   4.638  41.491   0.903
87138W        W59398  25.420  16.141   3.716
87139W        W59399   4.006  35.887  13.822
87140W        W59400  38.323  27.095  14.384
87141W        W59401   3.815  29.521  10.662
87142W        W59402  42.822  26.375  10.271
87143W        W59403  30.468   4.402  11.078
87144W        W59404   7.259  41.755   1.478
87145W        W59405  17.978  44.908   0.898
87146W        W59406  38.456  31.108  11.372
87147W        W59407   3.743  16.567   2.609
87148W        W59408  36.451  19.147   0.547
87149W        W59409  33.591   6.281   4.150
87150W        W59410  38.061  17.062  11.168
87151W        W59411  21.058  44.556   4.524
87152W        W59412  37.161  19.247   2.722
87153W        W59413   8.750  26.980  11.969
87154W        W59414  32.566  31.410   3.300
87155W        W59415   4.590   8.080  10.080
87156W        W59416  18.205  22.495  14.477
87157W        W59417  38.826   1.873  14.045
87158W        W59418  30.541  42.009   2.081
87159W        W59419   1.714   9.812  12.872
87160W        W59420  32.264  25.240  11.249
87161W        W59421  27.496  34.641   2.630
87162W        W59422   0.343  16.235  13.324
87163W        W59423  33.016  22.094   2.130
87164W        W59424   1.034  19.005  11.169
87165W        W59425   3.520  42.923   4.187
87166W        W59426  18.006  44.840  14.515
87167W        W59427  16.695  37.727   4.572
87168W        W59428  34.617  35.198   3.486
87169W        W59429   0.488   1.048   3.310
87170W        W59430  39.781  42.855   4.982
87171W        W59431  23.528  12.092   3.920
87172W        W59432  33.768  20.756   5.584
87173W        W59433   0.860   1.620  13.247
87174W        W59434   9.671   0.197  11.055
87175W        W59435   8.748  42.864   0.968
87176W        W59436   8.731  44.297  11.118
87177W        W59437  16.533  14.538   1.722
87178W        W59438  20.080  44.687  10.654
87179W        W59439   7.218  26.015   1.780
87180W        W59440  42.938  29.688   0.190
87181W        W59441  35.420   0.441   3.639
87182W        W59442  14.377  18.663   0.417
87183W        W59443   2.365  13.117  11.271
87184W        W59444  20.157  36.974   4.641
87185W        W59445   3.900  18.204  13.262
87186W        W59446  27.383  19.267   4.156
87187W        W59447   6.640   4.376   4.181
87188W        W59448  14.251  23.296  11.672
87189W        W59449  11.567  43.873   2.249
87190W        W59450   6.134  22.281   2.153
87191W        W59451  44.345   9.251   0.331
87192W        W59452   5.167  44.315   2.252
87193W        W59453   3.928  40.024  10.825
87194W        W59454   4.279  13.689   4.131
87195W        W59455  32.325  19.452   3.173
87196W        W59456  31.952  18.573   2.658
87197W        W59457   5.633  32.945  13.986
87198W        W59458  15.611  12.742   4.724
87199W        W59459  34.020  16.893  11.863
87200W        W59460  22.076   1.962  11.393
87201W        W59461  27.699  41.761   0.303
87202W        W59462  31.001  17.502   4.320
87203W        W59463  19.830  19.336  11.647
87204W        W59464   2.868  22.058   3.402
87205W        W59465  14.610   2.584  11.551
87206W        W59466  17.268  28.517  12.010
87207W        W59467  15.708  36.044   0.747
87208W        W59468  23.388  23.075  12.002
87209W        W59469  25.815  29.836  14.869
87210W        W59470  26.124  11.568   0.736
87211W        W59471   8.422  35.397  11.582
87212W        W59472  31.993  11.083  13.107
87213W        W59473  42.347  33.562  10.282
87214W        W59474  18.133  18.258   2.480
87215W        W59475  20.026   1.612   4.683
87216W        W59476   6.922  35.534   3.685
87217W        W59477  44.852   1.647   2.227
87218W        W59478  11.825  26.483  12.467
87219W        W59479  30.394  43.795  11.149
87220W        W59480  33.087  29.280  11.390
87221W        W59481  34.315  32.225   2.708
87222W        W59482  35.264  16.103   0.285
87223W        W59483  17.337  14.168   0.481
87224W        W59484  25.300  12.363   3.398
87225W        W59485  17.821  40.042  12.674
87226W        W59486  35.020   5.192   4.516
87227W        W59487  26.172  13.661  12.187
87228W        W59488  11.609  30.135   3.220
87229W        W59489  17.745  22.014   1.271
87230W        W59490  40.488  38.895  11.772
87231W        W59491  39.478   9.591  10.997
87232W        W59492  40.110  31.097   3.647
87233W        W59493  34.805  31.131  14.288
87234W        W59494   4.979  32.657   4.093
87235W        W59495  25.616  11.509  11.151
87236W        W59496   2.934  12.461   3.573
87237W        W59497  34.585  23.547   0.826
87238W        W59498  44.901  43.833  14.478
87239W        W59499   5.975  18.062   1.778
87240W        W59500  25.308  22.213   3.770
87241W        W59501  30.064   0.437   0.988
87242W        W59502  11.109  32.854   2.218
87243W        W59503  41.384   7.993   0.709
87244W        W59504  41.407  16.093   0.711
87245W        W59505  24.049  20.954   2.433
87246W        W59506   4.189   4.096  13.268
87247W        W59507  14.408   7.175  10.872
87248W        W59508  13.238   4.277  12.540
87249W        W59509  26.566  30.673   0.389
87250W        W59510   3.338  12.745  10.271
87251W        W59511  22.139  38.967   0.341
87252W        W59512   8.072  14.659  11.608
87253W        W59513  25.429  28.591   3.237
87254W        W59514   8.173  17.882  10.982
87255W        W59515  24.140  43.983   0.503
87256W        W59516  35.943  33.555  10.671
87257W        W59517  25.981   6.404   4.836
87258W        W59518   3.305  29.648   3.313
87259W        W59519  38.541  32.379   2.706
87260W        W59520   7.911  37.001   1.903
87261W        W59521  39.871  42.484  14.486
87262W        W59522   9.774  29.515  13.594
87263W        W59523  25.032  42.493   3.203
87264W        W59524  38.855  14.736   1.900
87265W        W59525  12.594  41.711   0.457
87266W        W59526   7.054  19.547  11.145
87267W        W59527   2.268   4.713   4.435
87268W        W59528  38.114  18.863   0.427
87269W        W59529  11.904  15.771  13.856
87270W        W59530  22.173  39.832  11.948
87271W        W59531  40.991  27.169   0.463
87272W        W59532  24.702  42.744  14.740
87273W        W59533  25.606  44.031   3.684
87274W        W59534  43.925  23.512  11.073
87275W        W59535   2.411  11.635   0.139
87276W        W59536  10.608  36.998  13.029
87277W        W59537  41.498  31.984  12.807
87278W        W59538  43.850  32.617  13.614
87279W        W59539  39.362  24.508   1.323
87280W        W59540   7.918  17.227  13.061
87281W        W59541   5.389   8.005  14.277
87282W        W59542  44.889  39.836   4.194
87283W        W59543  12.139   1.995  10.765
87284W        W59544  18.065  37.516  11.560
87285W        W59545  38.816  19.996  13.370
87286W        W59546  17.572  17.769   2.147
87287W        W59547  14.547  28.713  14.838
87288W        W59548  40.477  33.551   0.978
87289W        W59549  37.899  36.269   0.331
87290W        W59550  10.922  20.650   2.078
87291W        W59551  25.119   3.517   3.890
87292W        W59552  32.110   2.366   1.218
87293W        W59553   4.674  20.017  11.966
87294W        W59554  18.214   3.892  14.878
87295W        W59555  19.779  27.735  13.958
87296W        W59556  22.018  24.677   3.893
87297W        W59557  29.749  13.971   2.302
87298W        W59558  21.120  34.593   4.336
87299W        W59559  27.215  43.501   3.759
87300W        W59560   4.667   7.722  10.747
87301W        W59561   6.057   1.559  14.937
87302W        W59562  29.967  43.495  13.699
87303W        W59563  25.209  41.292  10.280
87304W        W59564  35.006  44.013  13.449
87305W        W59565  43.582   9.588   0.752
87306W        W59566  14.516  16.795  10.020
87307W        W59567  12.621   4.479   0.770
87308W        W59568   3.695  21.097   3.629
87309W        W59569  27.985  36.279   3.225
87310W        W59570   5.739  12.538  12.016
87311W        W59571   5.233  10.259  13.212
87312W        W59572  10.791  34.768   4.590
87313W        W59573  17.191   1.517  10.797
87314W        W59574  14.687  17.851   4.219
87315W        W59575   3.345  29.647  12.545
87316W        W59576   1.846  37.015  13.374
87317W        W59577  28.686   8.011  14.936
87318W        W59578  14.640  41.260  14.975
87319W        W59579  31.648   1.123  14.918
87320W        W59580  27.435  28.973  11.094
87321W        W59581  14.202  19.295   2.329
87322W        W59582  10.871  17.863  13.381
87323W        W59583  13.314  23.027  11.599
87324W        W59584   9.444  11.684   1.854
87325W        W59585  28.026  29.654  12.861
87326W        W59586  43.469  26.732   2.885
87327W        W59587  24.719  37.784  12.504
87328W        W59588  38.964  35.839   4.635
87329W        W59589  36.172  19.556   0.367
87330W        W59590  24.745  34.957   3.861
87331W        W59591  17.308  35.502  12.342
87332W        W59592   5.655   0.398  12.191
87333W        W59593  13.274  19.371   2.243
87334W        W59594   1.845  20.305   0.409
87335W        W59595  16.012  10.772   4.064
87336W        W59596   0.258  34.415   0.843
87337W        W59597  20.427   5.575  12.473
87338W        W59598  41.972  29.695   1.526
87339W        W59599  32.067  24.145   0.223
87340W        W59600  20.395   3.374  13.100
87341W        W59601  20.370  19.758   5.027
87342W        W59602  23.699  16.709  12.907
87343W        W59603  43.349  26.990  11.760
87344W        W59604   9.159  12.341  12.054
87345W        W59605  25.708  34.007   1.411
87346W        W59606   6.823  35.488   3.165
87347W        W59607  41.686  38.967   0.567
87348W        W59608  40.073  12.793   1.429
87349W        W59609  17.240  14.021  11.960
87350W        W59610  35.875  39.483   2.394
87351W        W59611  41.549  39.473  13.126
87352W        W59612  21.831  20.362  10.451
87353W        W59613  20.001  29.366  11.514
87354W        W59614  25.897   3.987   3.741
87355W        W59615  22.301  20.466   0.414
87356W        W59616  41.381  10.728  12.820
87357W        W59617  24.562   6.751  11.408
87358W        W59618  26.518  43.846  13.096
87359W        W59619  39.110  29.051  13.702
87360W        W59620  27.367   1.821   0.403
87361W        W59621  36.993  22.341  13.848
87362W        W59622   4.190  22.573   0.137
87363W        W59623  35.912   1.946  13.369
87364W        W59624  40.128  39.594  13.388
87365W        W59625  14.873   6.784   4.210
87366W        W59626  16.627   7.752  14.965
87367W        W59627  24.205  42.996  13.989
87368W        W59628  12.856  32.756  12.170
87369W        W59629  38.180  39.541   1.923
87370W        W59630  20.521  40.397  11.647
87371W        W59631   7.596  10.626   0.937
87372W        W59632  18.518  20.755   0.352
87373W        W59633   8.221  44.221   0.819
87374W        W59634  11.374  25.696   2.912
87375W        W59635  29.935  38.887  13.044
87376W        W59636   4.426  35.572  13.936
87377W        W59637   6.339   5.218  11.988
87378W        W59638  33.793  44.493  10.218
87379W        W59639  36.023   6.772   0.351
87380W        W59640  29.424  27.570  13.704
87381W        W59641  15.273  31.605   3.627
87382W        W59642  20.300  38.637   4.203
87383W        W59643  10.824   9.706   0.332
87384W        W59644  38.259  33.585  13.981
87385W        W59645  14.100   5.383  13.316
87386W        W59646  13.887   6.432   2.377
87387W        W59647  28.618  26.816  11.060
87388W        W59648  15.794  40.665   4.092
87389W        W59649  12.315  37.308  11.489
87390W        W59650  30.993  24.377  13.079
87391W        W59651  22.509  31.467   0.864
87392W        W59652   3.404  39.007  14.504
87393W        W59653  42.083  12.771  11.515
87394W        W59654  11.403  11.775   1.807
87395W        W59655  11.356   5.448  14.510
87396W        W59656  43.807  24.117  13.546
87397W        W59657  28.866  34.914  11.593
87398W        W59658   1.293  39.136  11.931
87399W        W59659  12.351  15.597  10.542
87400W        W59660   8.901  16.530  13.552
87401W        W59661  22.321  41.928   0.714
87402W        W59662  15.176  26.104  12.059
87403W        W59663  19.639  18.110   4.676
87404W        W59664  16.410  18.003   0.002
87405W        W59665  16.982  17.727  10.532
87406W        W59666   3.260  18.247   1.827
87407W        W59667   1.392  32.127  13.370
87408W        W59668  24.767  27.241   1.801
87409W        W59669  22.736  29.071  13.996
87410W        W59670  37.063  37.924  14.340
87411W        W59671  16.849  40.821  11.880
87412W        W59672  21.763  44.316   0.798
87413W        W59673   5.386  26.273  14.341
87414W        W59674   6.906  12.887  14.996
87415W        W59675  26.993  12.479   0.412
87416W        W59676  36.713  30.884   3.499
87417W        W59677   1.115  28.511   4.215
87418W        W59678  31.644   7.284  12.604
87419W        W59679  25.871  34.717   1.465
87420W        W59680  22.818  11.343   3.800
87421W        W59681  38.356  13.888   0.506
87422W        W59682  28.439  19.712   1.718
87423W        W59683  34.581   3.382   0.418
87424W        W59684  33.923  37.780   2.879
87425W        W59685  15.779  40.723   3.255
87426W        W59686  33.854  16.082   0.743
87427W        W59687  34.110  37.315   4.200
87428W        W59688  23.427  39.880  14.917
87429W        W59689  41.439  25.580   5.023
87430W        W59690   0.402  12.472   3.781
87431W        W59691  21.938  37.442   0.358
87432W        W59692  36.781   7.293   0.459
87433W        W59693  28.081  22.772   4.380
87434W        W59694   4.836   8.673   5.005
87435W        W59695   6.092  40.857  11.155
87436W        W59696  35.753  36.391   3.676
87437W        W59697  34.083   1.866  14.944
87438W        W59698  18.951  23.965   0.839
87439W        W59699   7.742   0.738  12.019
87440W        W59700   0.379  11.568  14.532
87441W        W59701  32.567  21.651   1.388
87442W        W59702  37.288  41.012  11.672
87443W        W59703  14.085  34.725  14.097
87444W        W59704  29.345  31.039   1.434
87445W        W59705   6.714  44.468   3.429
87446W        W59706  10.716  37.895  12.687
87447W        W59707  38.891   0.446  10.391
87448W        W59708  23.799  18.978  13.059
87449W        W59709  18.684  37.508   9.525
87450W        W59710  43.832  10.798   4.007
87451W        W59711  12.383   8.650   0.789
87452W        W59712   3.353   4.190  14.413
87453W        W59713  13.855  29.132  10.265
87454W        W59714  23.250  40.996  12.376
87455W        W59715  40.797  16.749   0.381
87456W        W59716   3.974  41.220  11.445
87457W        W59717  18.564  40.633  13.347
87458W        W59718  11.388  21.594   4.582
87459W        W59719   7.921   1.561   1.392
87460W        W59720  32.096   6.393  12.510
87461W        W59721  41.412   7.871   5.453
87462W        W59722   7.788  37.162  10.353
87463W        W59723  33.214  31.904  11.511
87464W        W59724  43.521  40.397  10.947
87465W        W59725  33.680  16.268  13.929
87466W        W59726  14.625  35.419  10.589
87467W        W59727  14.540  35.944  10.746
87468W        W59728  28.187  36.596  14.391
87469W        W59729   5.769  42.600  13.122
87470W        W59730  40.785   2.735   1.884
87471W        W59731  12.743  13.636   4.166
87472W        W59732   1.589  28.002   0.549
87473W        W59733  23.491  13.880   3.396
87474W        W59734  32.003   5.894  12.541
87475W        W59735  40.638  44.433  14.571
87476W        W59736   5.204   4.967   1.310
87477W        W59737  39.577   6.317  11.837
87478W        W59738   2.697  27.660   0.329
87479W        W59739   5.998  25.283  11.052
87480W        W59740  28.063  44.708  13.319
87481W        W59741  30.359  25.750  12.059
87482W        W59742  12.816  33.773   0.828
87483W        W59743  38.370   6.692   0.507
87484W        W59744  10.600  44.437  11.529
87485W        W59745  11.387  31.500   1.371
87486W        W59746   5.571   7.479   0.242
87487W        W59747  19.367  32.292   2.759
87488W        W59748   8.409  31.159  12.953
87489W        W59749   5.657  22.233  12.383
87490W        W59750  32.570   5.161  14.456
87491W        W59751  30.344  12.942   1.443
87492W        W59752  34.565  21.223   5.566
87493W        W59753  10.358  28.656   3.295
87494W        W59754  20.737   4.297   2.287
87495W        W59755   9.268  18.774   3.662
87496W        W59756  16.186   7.267  10.273
87497W        W59757   8.917   7.734   1.353
87498W        W59758   2.279  30.513  14.393
87499W        W59759  26.392  38.066  11.054
87500W        W59760  14.745  12.794  10.221
87501W        W59761  35.444  29.911   1.958
87502W        W59762  14.802   0.487   3.591
87503W        W59763   1.210  21.729   4.736
87504W        W59764   1.822  22.468  13.610
87505W        W59765  35.029  19.981  11.552
87506W        W59766  43.762  33.052   1.720
87507W        W59767  20.760   6.582   4.980
87508W        W59768   3.230  31.015  13.858
87509W        W59769   7.227  32.447  13.391
87510W        W59770   6.917  39.133  11.370
87511W        W59771  44.309  16.170   0.262
87512W        W59772   4.322  31.645  10.535
87513W        W59773  13.737   6.904  11.331
87514W        W59774  30.066  26.165  13.865
87515W        W59775  31.834  41.742  13.899
87516W        W59776  33.985  20.482   3.310
87517W        W59777  40.361  15.464  13.461
87518W        W59778  13.261   8.398  13.029
87519W        W59779  13.150  37.108   4.445
87520W        W59780   7.512   9.693   2.339
87521W        W59781  42.806   0.281  14.486
87522W        W59782  38.520  33.725   1.519
87523W        W59783   3.287  13.007   0.206
87524W        W59784   5.533  14.656  13.410
87525W        W59785   2.360   1.777  12.347
87526W        W59786   1.852  26.589   3.854
87527W        W59787  28.566   1.615  11.936
87528W        W59788  40.998   0.425   4.131
87529W        W59789  29.031  28.223   2.461
87530W        W59790  18.684  28.894  12.512
87531W        W59791  21.219  38.878   1.730
87532W        W59792  44.766  12.314   2.603
87533W        W59793  14.677  41.993  13.425
87534W        W59794  19.069  20.661  14.442
87535W        W59795  15.312  42.487  11.898
87536W        W59796  30.459  16.087   4.812
87537W        W59797  10.189  21.107  11.967
87538W        W59798   1.972  11.215  14.556
87539W        W59799  13.983  16.322  14.343
87540W        W59800  35.503  10.796   3.116
87541W        W59801  13.200  10.970   3.923
87542W        W59802  22.129   5.811  12.399
87543W        W59803  20.759  37.867  14.203
87544W        W59804  31.139  13.888   0.481
87545W        W59805  25.462  23.764   0.234
87546W        W59806   9.358  20.163   3.789
87547W        W59807  35.284  20.193  10.063
87548W        W59808   4.170   3.243  13.479
87549W        W59809   6.077  28.411  11.133
87550W        W59810  44.811  31.995  10.604
87551W        W59811  37.081  19.208   4.532
87552W        W59812  27.535  26.362   3.281
87553W        W59813  25.069   3.236  14.969
87554W        W59814  30.971  10.879   2.174
87555W        W59815  34.695  16.079   0.275
87556W        W59816  20.034  43.012  10.676
87557W        W59817  35.369   3.429  12.850
87558W        W59818  44.008   3.170  14.863
87559W        W59819  44.290  15.708   3.750
87560W        W59820  27.544  23.891  13.514
87561W        W59821  15.734  20.781  13.944
87562W        W59822  40.978  40.138  13.800
87563W        W59823  36.409  21.247  12.485
87564W        W59824  13.580   4.761   2.719
87565W        W59825  28.428   5.439  14.917
87566W        W59826   7.268  13.640   1.747
87567W        W59827   4.247  26.395   4.509
87568W        W59828   6.914  21.183   2.089
87569W        W59829  44.168  29.496   3.662
87570W        W59830  31.020  32.939  12.483
87571W        W59831  17.344   3.809  13.001
87572W        W59832  12.813   6.639   1.283
87573W        W59833   8.799  20.801  13.864
87574W        W59834  13.145  27.073   0.979
87575W        W59835  40.545  18.249  11.163
87576W        W59836  44.574  44.978   3.259
87577W        W59837  33.005   5.960  10.379
87578W        W59838  37.976   3.297  10.368
87579W        W59839   8.216  18.609   4.085
87580W        W59840  10.179  24.666   2.099
87581W        W59841  31.397  41.755   4.979
87582W        W59842   7.948   3.454   4.190
87583W        W59843  29.698  28.962   4.547
87584W        W59844  36.433  31.549   1.383
87585W        W59845  31.154   0.872  11.330
87586W        W59846   7.403   7.557  11.518
87587W        W59847  13.299   6.293   4.610
87588W        W59848   6.705  29.934  10.598
87589W        W59849  13.300  20.507   3.826
87590W        W59850  44.562  23.024  10.720
87591W        W59851   8.842  41.906   3.102
87592W        W59852  39.295  21.568   4.625
87593W        W59853  31.309  42.864   1.798
87594W        W59854  33.595   6.945  12.845
87595W        W59855  18.614  31.183  13.165
87596W        W59856  31.558  32.582   2.726
87597W        W59857  38.315   6.832   3.724
87598W        W59858   1.458  21.165   3.089
87599W        W59859  25.672  30.136   2.420
87600W        W59860  30.927  43.685  11.978
87601W        W59861  11.396  11.647   3.120
87602W        W59862  39.266  14.982   3.688
87603W        W59863  44.443   9.635  12.156
87604W        W59864  21.573  23.656  11.087
87605W        W59865  42.443  21.911   0.918
87606W        W59866   9.692   8.214   1.412
87607W        W59867  41.370  42.397  11.234
87608W        W59868   0.548  41.866  11.243
87609W        W59869  42.842  10.543   4.645
87610W        W59870  15.263  37.291  14.934
87611W        W59871   5.571   1.634   4.416
87612W        W59872   1.363  27.096  12.071
87613W        W59873  15.517   1.267  13.422
87614W        W59874  31.456  42.614  11.322
87615W        W59875  30.199   3.698  14.402
87616W        W59876   9.258  42.925   5.100
87617W        W59877   1.826   1.037  11.206
87618W        W59878  27.365  27.471  13.803
87619W        W59879  37.807  21.736  14.791
87620W        W59880  22.210  31.310   3.331
87621W        W59881  24.128  28.322   2.727
87622W        W59882   9.103   4.795  10.613
87623W        W59883   9.124  28.405  13.974
87624W        W59884  16.642  39.538  11.561
87625W        W59885  44.656  14.048  11.915
87626W        W59886  37.409   4.821   4.654
87627W        W59887  40.004  13.129  12.513
87628W        W59888  37.917  12.782   0.053
87629W        W59889  31.003  25.619   4.434
87630W        W59890  31.599  36.586   2.704
87631W        W59891  10.912  41.629  11.456
87632W        W59892  35.584  38.042   0.451
87633W        W59893  33.586  40.536   1.109
87634W        W59894  38.569   1.480   2.249
87635W        W59895  36.976  42.438  12.952
87636W        W59896  34.751   5.239   3.197
87637W        W59897  27.884  44.963   4.095
87638W        W59898  31.442   6.935  12.965
87639W        W59899  36.053  44.862   4.617
87640W        W59900  11.666  37.943   0.250
87641W        W59901  23.537  21.646   0.995
87642W        W59902   2.437  16.276  10.986
87643W        W59903   1.516  16.800  14.537
87644W        W59904  24.761  27.000   2.257
87645W        W59905  41.199  15.675  14.987
87646W        W59906  23.046   9.170   0.981
87647W        W59907  32.538  44.534   0.973
87648W        W59908  21.019   5.203  13.839
87649W        W59909  24.022  12.695   0.877
87650W        W59910  42.005  30.422   3.556
87651W        W59911  14.299  22.721  14.858
87652W        W59912  18.730   3.300  12.829
87653W        W59913   5.644   4.976  11.407
87654W        W59914  28.139  22.754  13.610
87655W        W59915   6.319  10.880   3.166
87656W        W59916  16.142   5.755  13.958
87657W        W59917  21.622  31.397  12.503
87658W        W59918   0.970  42.458   3.678
87659W        W59919  43.368  21.473  12.482
87660W        W59920   6.666  15.923   4.285
87661W        W59921   6.461  41.869  13.514
87662W        W59922  17.033  42.708   2.681
87663W        W59923  11.123  17.095  10.564
87664W        W59924   5.435  33.368   0.780
87665W        W59925  43.258  12.151   4.334
87666W        W59926  14.522  41.137   2.197
87667W        W59927  41.750   4.185  12.863
87668W        W59928   7.451   3.151  11.817
87669W        W59929  35.947  38.570   1.348
87670W        W59930  20.459  36.553   0.740
87671W        W59931  37.540  31.136   1.765
87672W        W59932  35.656   5.030   2.844
87673W        W59933  13.347   4.907   0.261
87674W        W59934  26.946   2.202   4.578
87675W        W59935  15.865  22.176   2.239
87676W        W59936  35.412  30.030  14.754
87677W        W59937  28.007   2.222  10.445
87678W        W59938  32.155  32.067   1.158
87679W        W59939  26.898  43.666   0.168
87680W        W59940  28.441  32.474  11.185
87681W        W59941  38.598  28.182   3.139
87682W        W59942  19.720  14.307   3.701
87683W        W59943  21.112  38.241  12.562
87684W        W59944   9.520  23.248   2.028
87685W        W59945  31.004  44.415  13.983
87686W        W59946  38.660  27.924   0.919
87687W        W59947   2.767  41.972   3.178
87688W        W59948  24.077  38.388   2.171
87689W        W59949  16.699   5.871  14.018
87690W        W59950   3.962  25.404  11.891
87691W        W59951  41.072  11.224  13.920
87692W        W59952  38.032  17.143  14.859
87693W        W59953  22.593  17.005  10.257
87694W        W59954  32.914  32.416  12.864
87695W        W59955  32.028  18.166   1.851
87696W        W59956  40.342   4.688  14.791
87697W        W59957  21.504   9.249  12.981
87698W        W59958  28.280   0.906   4.087
87699W        W59959  20.628  22.942   4.580
87700W        W59960  34.383  22.052   0.808
87701W        W59961  30.402  37.806  12.014
87702W        W59962  23.128  11.949   0.349
87703W        W59963   4.919  42.879  12.149
87704W        W59964  12.933  33.544   1.419
87705W        W59965   6.223  17.836   3.606
87706W        W59966  44.971   6.905   0.279
87707W        W59967  14.183  27.427  13.775
87708W        W59968   1.924  26.632  12.851
87709W        W59969  30.254  17.149  10.769
87710W        W59970   7.655  30.011   1.291
87711W        W59971  25.072   1.220  10.743
87712W        W59972  29.331  19.241   3.319
87713W        W59973  23.287  29.005  11.554
87714W        W59974  26.923  44.340   0.380
87715W        W59975  24.462   1.344   3.723
87716W        W59976  41.794  37.299   4.793
87717W        W59977   0.461  27.526  10.894
87718W        W59978  36.277   2.975  12.922
87719W        W59979   4.716   2.469   0.324
87720W        W59980  30.774  20.813  12.874
87721W        W59981  18.933  14.670  12.380
87722W        W59982  35.517  26.476   4.767
87723W        W59983  19.603  41.750   1.457
87724W        W59984  11.688  28.093   3.538
87725W        W59985  35.503  33.848   2.766
87726W        W59986   7.140   5.998   4.117
87727W        W59987   0.321  22.601   1.625
87728W        W59988   0.566  29.388   4.276
87729W        W59989  14.129  16.578  12.171
87730W        W59990  14.845  25.705  11.991
87731W        W59991  41.881  22.758  13.524
87732W        W59992  27.227  10.282  12.580
87733W        W59993  40.959  24.753   2.149
87734W        W59994  18.505  32.685  14.134
87735W        W59995  41.716   7.895  11.164
87736W        W59996  20.031  11.266   2.356
87737W        W59997  19.794  35.840  10.091
87738W        W59998  44.551  24.633  12.411
87739W        W59999   9.233   3.997   2.393
87740W        W60000   5.969   7.963  13.803
87741W        W60001  32.108   0.819   2.623
87742W        W60002  22.649  27.768   0.388
87743W        W60003   2.714  32.705   4.707
87744W        W60004  24.981  11.323   3.160
87745W        W60005  23.601   6.315   1.561
87746W        W60006  20.027  40.153   4.865
87747W        W60007  10.180  16.320  14.621
87748W        W60008  28.234  33.389  12.432
87749W        W60009   6.581  16.936   4.158
87750W        W60010   7.351   4.293  14.189
87751W        W60011  36.538   9.150  10.713
87752W        W60012  24.504  19.985   0.592
87753W        W60013  16.146   2.996   0.551
87754W        W60014  32.326   9.273   4.201
87755W        W60015  41.893  22.499  12.815
87756W        W60016  44.976  30.869   1.450
87757W        W60017   7.408   1.484  12.978
87758W        W60018  11.131  13.986  12.503
87759W        W60019  14.864   1.332  13.881
87760W        W60020  15.537  26.476   4.586
87761W        W60021  10.495  11.256   1.931
87762W        W60022  23.989  20.005  12.103
87763W        W60023  18.259  39.961   3.468
87764W        W60024  13.778  14.029   1.660
87765W        W60025   0.799  42.407   1.807
87766W        W60026  22.251  18.560   0.441
87767W        W60027   7.762  22.078  13.309
87768W        W60028  25.239  42.272   2.306
87769W        W60029  28.951  17.233   4.865
87770W        W60030  29.578   5.658   3.455
87771W        W60031  10.751   8.022  11.560
87772W        W60032  20.267  28.468   2.636
87773W        W60033   1.834  15.383  12.892
87774W        W60034  37.366  40.459  13.869
87775W        W60035  20.517  36.083   0.459
87776W        W60036  13.183   3.439   0.063
87777W        W60037  38.827   1.921   1.289
87778W        W60038  33.907   9.267  13.538
87779W        W60039  16.057  22.701  10.658
87780W        W60040  41.829  11.588  12.401
87781W        W60041  15.874  33.356   1.414
87782W        W60042   1.040  23.434   2.803
87783W        W60043  36.505  42.234   3.377
87784W        W60044  31.170  11.477  10.210
87785W        W60045  14.153  12.092   4.555
87786W        W60046  30.843  25.553  12.057
87787W        W60047  14.228  33.959   1.810
87788W        W60048  28.161  20.016  12.992
87789W        W60049   4.728  34.597   0.397
87790W        W60050  30.397  44.305  11.244
87791W        W60051  40.090  37.542   0.336
87792W        W60052  32.677  37.817  11.226
87793W        W60053  37.859   9.880   0.850
87794W        W60054  33.416  15.397  13.483
87795W        W60055   9.956  33.390   3.723
87796W        W60056  37.232   1.377   3.575
87797W        W60057  33.930  23.440  14.404
87798W        W60058  31.981  21.067  14.625
87799W        W60059  31.638  11.586  10.431
87800W        W60060  19.531  34.517   0.377
87801W        W60061   7.409   7.231   3.385
87802W        W60062  25.623  27.887  11.238
87803W        W60063  30.923  36.517   3.726
87804W        W60064   3.699  42.122  13.333
87805W        W60065   2.974  25.199   4.785
87806W        W60066  12.660  12.271   4.309
87807W        W60067  31.368  31.511  14.917
87808W        W60068  27.169  18.580   3.174
87809W        W60069  27.758  34.573   1.786
87810W        W60070   7.189  21.067   4.886
87811W        W60071  28.157  24.449   1.919
87812W        W60072  41.595   9.790  11.984
87813W        W60073  36.930  11.296   4.384
87814W        W60074  22.027  29.560  12.530
87815W        W60075   8.259  15.577  11.610
87816W        W60076  31.609  34.575   3.212
87817W        W60077  21.791  36.285  11.594
87818W        W60078  16.155  23.040   4.535
87819W        W60079  35.601  37.102  11.620
87820W        W60080  12.721   2.958   0.888
87821W        W60081  17.427  24.969  11.642
87822W        W60082  27.249   2.881  13.583
87823W        W60083   4.914  30.539   0.232
87824W        W60084  32.338   0.008  10.504
87825W        W60085   3.449   4.695   2.838
87826W        W60086  16.650  17.697   0.374
87827W        W60087  32.540  27.643  14.038
87828W        W60088  12.394  26.883   4.328
87829W        W60089  25.240  35.092   3.221
87830W        W60090   1.355  10.937   0.789
87831W        W60091   0.896  30.325   0.796
87832W        W60092  18.419  19.775   0.501
87833W        W60093  31.642   3.071  11.422
87834W        W60094  29.415  18.255  13.359
87835W        W60095  13.318  21.697   2.867
87836W        W60096  29.774  41.985  10.910
87837W        W60097  19.100  38.220  13.382
87838W        W60098  34.084  33.139   1.764
87839W        W60099   1.811   9.278   3.301
87840W        W60100  25.516  15.252  13.844
87841W        W60101  28.159   8.430  11.582
87842W        W60102  35.626  22.909   3.160
87843W        W60103  33.878  37.400  13.984
87844W        W60104  13.323  24.786   0.684
87845W        W60105  39.556  33.332   2.787
87846W        W60106  15.738   8.248  12.760
87847W        W60107  34.734  19.910  11.142
87848W        W60108  34.087  12.597   4.281
87849W        W60109  31.988  20.258  12.025
87850W        W60110   8.234   4.692   0.806
87851W        W60111  27.928  23.135  14.933
87852W        W60112  36.623   5.309  10.881
87853W        W60113  41.230  42.415  13.083
87854W        W60114   3.025  43.033  14.943
87855W        W60115  12.836  13.578   1.777
87856W        W60116  31.611  30.552   0.446
87857W        W60117  26.740  12.835  11.508
87858W        W60118  12.785  33.210   1.810
87859W        W60119  34.866  20.040  12.860
87860W        W60120  38.347   8.818  14.844
87861W        W60121  17.755  33.142   1.611
87862W        W60122  19.198  38.084   2.493
87863W        W60123  15.760  22.968   0.761
87864W        W60124  27.123  11.685   0.766
87865W        W60125  28.162  24.403  12.775
87866W        W60126  15.989  22.030  13.735
87867W        W60127  37.567  17.149   4.892
87868W        W60128  10.787  34.992  14.995
87869W        W60129   3.595  11.703   4.639
87870W        W60130   6.707   3.777   2.632
87871W        W60131  21.672  18.486   2.642
87872W        W60132   0.334  14.659  14.419
87873W        W60133   0.028  14.058   3.151
87874W        W60134  37.953  40.771  11.177
87875W        W60135  30.060  35.909   1.200
87876W        W60136  14.661  18.693  11.133
87877W        W60137  35.990  13.871   2.601
87878W        W60138  21.758  27.069  11.332
87879W        W60139   6.519   6.435  12.793
87880W        W60140  21.168  11.194   0.268
87881W        W60141   7.807  34.397   4.164
87882W        W60142   7.273   8.387  12.961
87883W        W60143  39.918  19.820   1.813
87884W        W60144  17.192  17.689  13.808
87885W        W60145  42.454  44.897  10.740
87886W        W60146  40.342  34.073   3.589
87887W        W60147   8.445  30.067   2.809
87888W        W60148  33.903  16.261   2.712
87889W        W60149  19.126   3.910  13.368
87890W        W60150   4.378  13.197   4.223
87891W        W60151  44.338   6.490   1.682
87892W        W60152  26.119  21.383  11.173
87893W        W60153  32.045  34.492   4.371
87894W        W60154   0.057  30.588   4.515
87895W        W60155  39.755  10.817  13.580
87896W        W60156  10.289   7.302  14.914
87897W        W60157  23.668  43.768   3.746
87898W        W60158   2.287  37.498  14.529
87899W        W60159  18.016  21.522  14.339
87900W        W60160  24.790  18.368  14.778
87901W        W60161  40.918   9.377  12.993
87902W        W60162  27.166  11.442   1.306
87903W        W60163  23.121  25.687  14.000
87904W        W60164  37.538  18.180  10.778
87905W        W60165  32.403   7.690  11.403
87906W        W60166  44.297  42.294   1.504
87907W        W60167  19.629  38.419  14.046
87908W        W60168   0.475  34.054   4.450
87909W        W60169  37.532  10.438   2.453
87910W        W60170   0.227   9.649  11.131
87911W        W60171  22.749  16.856  12.528
87912W        W60172  15.988  17.668   0.207
87913W        W60173  23.245  12.184  14.889
87914W        W60174  20.091   8.898   5.113
87915W        W60175   2.047   3.663   2.648
87916W        W60176   0.602  14.811  12.523
87917W        W60177   5.966  18.403  10.663
87918W        W60178  35.573  20.137  10.871
87919W        W60179  15.151  10.079   0.812
87920W        W60180  23.960   0.365   1.732
87921W        W60181  42.011  30.331   4.509
87922W        W60182  44.792  16.655   3.743
87923W        W60183  14.845  23.734  11.139
87924W        W60184  30.692  32.114   3.115
87925W        W60185  20.502  20.004  10.224
87926W        W60186   6.232   8.400  13.995
87927W        W60187  41.562   3.224  14.941
87928W        W60188  19.468  12.689  14.030
87929W        W60189   7.355  11.249  10.515
87930W        W60190  42.309  26.490  10.332
87931W        W60191  41.641  23.703  13.887
87932W        W60192  27.665  32.858   0.295
87933W        W60193  43.669   2.234  14.979
87934W        W60194  36.056  13.218   3.261
87935W        W60195  38.835  31.670  13.536
87936W        W60196  18.000  11.333  11.602
87937W        W60197  23.979  27.620   5.296
87938W        W60198  27.132   0.137  13.507
87939W        W60199  17.801  30.556  14.367
87940W        W60200  37.321  12.123   3.766
87941W        W60201  21.361  26.934  13.055
87942W        W60202  30.823  12.854   1.263
87943W        W60203  13.319  25.340  13.557
87944W        W60204  41.906  24.243   3.654
87945W        W60205  13.699   8.471   2.770
87946W        W60206  16.400  41.120   2.706
87947W        W60207  18.565   6.244   3.877
87948W        W60208  18.225  44.983   0.417
87949W        W60209  24.289  44.365  10.176
87950W        W60210   5.530  32.913   2.802
87951W        W60211  28.303   2.245   4.253
87952W        W60212  35.475   6.380  13.401
87953W        W60213  11.084   1.819  13.418
87954W        W60214  44.561   9.455   4.099
87955W        W60215  36.774  32.597  10.352
87956W        W60216  29.191  29.707  14.399
87957W        W60217  33.783  25.730  11.042
87958W        W60218  40.989  33.578   4.083
87959W        W60219  34.959  19.646  11.955
87960W        W60220  35.312  15.616  14.891
87961W        W60221  28.379  32.903  12.906
87962W        W60222   7.782  27.175  11.697
87963W        W60223   7.904  34.378  12.978
87964W        W60224  40.575   6.809  13.043
87965W        W60225  19.062   5.207  12.885
87966W        W60226   0.642   2.320   4.198
87967W        W60227   4.343  28.206   2.785
87968W        W60228  23.664  14.174   0.341
87969W        W60229   8.296  42.364   3.594
87970W        W60230   8.375  28.978  14.401
87971W        W60231  19.561  25.653  14.107
87972W        W60232   5.329  19.507   0.378
87973W        W60233  11.933  16.540  14.355
87974W        W60234  18.665  36.067  10.471
87975W        W60235  31.977  40.817   2.967
87976W        W60236  36.334   6.834   4.186
87977W        W60237  11.227  12.820   3.503
87978W        W60238   1.961  32.518  12.575
87979W        W60239  19.579  19.348  14.409
87980W        W60240  20.715  30.469  13.850
87981W        W60241  30.728  41.838  10.728
87982W        W60242  27.761  14.298  13.532
87983W        W60243   0.296  44.887  12.436
87984W        W60244  39.316   4.368  11.134
87985W        W60245  14.849  38.989   4.599
87986W        W60246   9.537   1.263  13.932
87987W        W60247  19.245  21.715   1.929
87988W        W60248  35.809  14.242   4.194
87989W        W60249  19.557  31.176   1.448
87990W        W60250  17.967  14.613  12.029
87991W        W60251  21.247  16.428   0.085
87992W        W60252   8.628  23.880   3.877
87993W        W60253  37.532  28.359  12.236
87994W        W60254  15.279   8.334   3.217
87995W        W60255  23.081   0.811   0.349
87996W        W60256  32.966  10.628   4.698
87997W        W60257  33.112   2.750  11.600
87998W        W60258  25.537  21.528  11.004
87999W        W60259  36.995  43.408   4.646
88000W        W60260   2.019  44.046  14.693
88001W        W60261  29.683  34.136   4.744
88002W        W60262  20.797  12.293   1.810
88003W        W60263  32.166  10.279   2.986
88004W        W60264   1.075  11.604  12.425
88005W        W60265  21.034   2.459  12.544
88006W        W60266  28.596  28.612  13.776
88007W        W60267  36.108  34.021  12.056
88008W        W60268  31.542  29.543   0.844
88009W        W60269  15.062  32.119  14.821
88010W        W60270  29.159   6.303   3.897
88011W        W60271  11.323  10.776   1.703
88012W        W60272  17.852  12.643   2.780
88013W        W60273  35.927  29.068   0.078
88014W        W60274  32.984   7.746  13.017
88015W        W60275  43.401  23.084   1.770
88016W        W60276  24.101  43.911   2.819
88017W        W60277  25.760  20.905   2.706
88018W        W60278  38.887  12.633  11.213
88019W        W60279  39.088   8.927  14.304
88020W        W60280  44.150  25.975   3.763
88021W        W60281   9.810   7.988  10.847
88022W        W60282   7.403  21.732  14.366
88023W        W60283  37.876   6.102  12.925
88024W        W60284  26.704   7.902   4.531
88025W        W60285   2.719  12.757  12.610
88026W        W60286   5.321  10.866   0.003
88027W        W60287  17.288  30.882   4.861
88028W        W60288  39.324  38.923   2.784
88029W        W60289  43.428  41.626  13.733
88030W        W60290  17.154   8.600  13.833
88031W        W60291  14.232  11.881   3.182
88032W        W60292  35.559  39.304  14.591
88033W        W60293  35.285  16.916   3.164
88034W        W60294   4.308  44.013   2.450
88035W        W60295   4.782  18.722   4.185
88036W        W60296   8.701  10.201   3.280
88037W        W60297  44.021  16.268  10.939
88038W        W60298  16.899  43.780   1.644
88039W        W60299  24.712  10.917   1.698
88040W        W60300  43.824  42.474   4.483
88041W        W60301  34.380  14.714  10.382
88042W        W60302   6.886  10.590  11.314
88043W        W60303  42.564  19.037   0.757
88044W        W60304  28.913   8.666   1.279
88045W        W60305  13.674  18.313   1.914
88046W        W60306  42.497  13.100  11.495
88047W        W60307  37.522  19.766  14.201
88048W        W60308  12.904  39.890   1.121
88049W        W60309  15.239  14.387  12.865
88050W        W60310  29.864   3.160  10.198
88051W        W60311  30.877  21.828  10.452
88052W        W60312  43.968  40.615  14.855
88053W        W60313  37.832  26.955   4.196
88054W        W60314   4.578  17.312  12.365
88055W        W60315  25.495  29.926   4.025
88056W        W60316  30.728  40.558  10.667
88057W        W60317  20.797   7.912   2.652
88058W        W60318  41.532   0.977   3.195
88059W        W60319  44.310  19.555   1.012
88060W        W60320  22.561  15.415  12.221
88061W        W60321  27.038  23.506   3.425
88062W        W60322  27.437  43.534   0.700
88063W        W60323   8.205  15.246   3.392
88064W        W60324  40.182  19.410  14.303
88065W        W60325  33.692  30.452  11.265
88066W        W60326  15.826  11.822  11.555
88067W        W60327  35.666   2.985  12.570
88068W        W60328  23.812  27.910  11.682
88069W        W60329  23.369  23.141   1.268
88070W        W60330   1.489  28.425   3.220
88071W        W60331  13.660  41.760   0.721
88072W        W60332  34.663  31.993  10.651
88073W        W60333  20.195  31.820   4.064
88074W        W60334  39.067   4.237   2.909
88075W        W60335  43.284  20.478  13.270
88076W        W60336   0.026  28.069   0.165
88077W        W60337  29.248  24.701   2.695
88078W        W60338   0.238   7.819   2.384
88079W        W60339  11.754  13.391   0.217
88080W        W60340   7.309  13.176   2.685
88081W        W60341  12.838   7.961   1.711
88082W        W60342  10.347  27.707   3.704
88083W        W60343  35.544  12.859   4.817
88084W        W60344  18.326  38.389   0.772
88085W        W60345   7.951  27.479   4.552
88086W        W60346   9.825   7.622  11.207
88087W        W60347  13.192  12.911  14.414
88088W        W60348  32.491   8.779  14.760
88089W        W60349  17.623  29.756  12.967
88090W        W60350  13.339  36.304  11.514
88091W        W60351  35.093  12.862   0.036
88092W        W60352  23.456  10.202   4.545
88093W        W60353   8.898   1.201  11.748
88094W        W60354   0.193  15.230  13.921
88095W        W60355  43.859  28.243  13.641
88096W        W60356   9.239  10.350   0.481
88097W        W60357   6.910  14.653  11.109
88098W        W60358  29.092  12.761   2.453
88099W        W60359   0.878  27.723   4.885
88100W        W60360  35.422  19.546   3.133
88101W        W60361  27.462  36.407  14.833
88102W        W60362  41.281  26.102   3.810
88103W        W60363   1.547  13.768   1.451
88104W        W60364  22.564  41.073  13.376
88105W        W60365  27.632   4.413  14.091
88106W        W60366   6.455  38.447   2.795
88107W        W60367  26.632   0.466  14.487
88108W        W60368  31.581   6.436  11.150
88109W        W60369   6.875  20.683  10.565
88110W        W60370  44.027  35.789  11.352
88111W        W60371  21.533  39.292   1.795
88112W        W60372  27.528   8.889   0.967
88113W        W60373  23.564  30.894   3.659
88114W        W60374  28.182  32.668  13.537
88115W        W60375  22.041   5.663  13.337
88116W        W60376  20.937  34.103  14.132
88117W        W60377  16.505  35.057  14.423
88118W        W60378  18.699  25.555  10.419
88119W        W60379   5.403  24.649  14.590
88120W        W60380  30.674  24.270  11.151
88121W        W60381  32.880   9.158  10.729
88122W        W60382  31.132  37.632  10.106
88123W        W60383  13.124  26.933  13.477
88124W        W60384  16.000   0.216   2.896
88125W        W60385  24.512   6.407   3.725
88126W        W60386   8.230   9.496   3.815
88127W        W60387  13.596  20.210   0.838
88128W        W60388  19.595  19.455  14.953
88129W        W60389  26.086  37.687  12.345
88130W        W60390  38.239  38.688   1.392
88131W        W60391  41.747   6.265   4.039
88132W        W60392   1.986   1.984   1.421
88133W        W60393  22.989  16.339  13.355
88134W        W60394  28.477  42.342  10.565
88135W        W60395  14.719   6.612  14.849
88136W        W60396   0.324  24.115   4.149
88137W        W60397   0.979   8.635   3.375
88138W        W60398  42.478  34.329   1.434
88139W        W60399  37.945  34.810  12.274
88140W        W60400  27.122   0.500   0.776
88141W        W60401  22.117  32.451   4.642
88142W        W60402  32.831   5.823   2.394
88143W        W60403  10.346   4.682   3.604
88144W        W60404   3.428  36.915   0.843
88145W        W60405   8.442  17.341   2.859
88146W        W60406   3.464  31.625   1.252
88147W        W60407  17.220   5.531  14.638
88148W        W60408   8.280  44.044  11.897
88149W        W60409  24.519  24.760  10.742
88150W        W60410  37.038  37.012  14.848
88151W        W60411   4.464  13.306   1.445
88152W        W60412  18.758  28.938   0.788
88153W        W60413  17.312  12.172   2.340
88154W        W60414  10.326  37.372   3.767
88155W        W60415  15.553  30.968   4.145
88156W        W60416  20.046  39.926  11.057
88157W        W60417  29.499  11.360  13.932
88158W        W60418  22.139  19.320   2.781
88159W        W60419   7.205  20.120   3.204
88160W        W60420  32.302   8.733   3.015
88161W        W60421  34.857   2.758   0.827
88162W        W60422  36.403  44.908   1.487
88163W        W60423  16.867  26.002   0.857
88164W        W60424  14.696  39.420  12.240
88165W        W60425  20.553  11.324   3.243
88166W        W60426  15.818  15.716   1.727
88167W        W60427  43.333   1.656   4.113
88168W        W60428  14.235   2.294  14.457
88169W        W60429  16.639  11.368   2.221
88170W        W60430  18.914  29.537  12.055
88171W        W60431  33.496  12.631   2.840
88172W        W60432  13.367  15.754   4.336
88173W        W60433   7.720  27.196   1.444
88174W        W60434  15.598  36.399   1.357
88175W        W60435   1.840   3.483   1.702
88176W        W60436  24.134  28.142  10.424
88177W        W60437  39.419  43.454  12.398
88178W        W60438  25.177  31.591   0.274
88179W        W60439   0.874  40.304  10.543
88180W        W60440  16.726   2.999   1.241
88181W        W60441  36.574  25.629  14.449
88182W        W60442  19.332   6.724  11.968
88183W        W60443  11.338  35.013  12.892
88184W        W60444  26.033  43.834   3.964
88185W        W60445  33.314  44.415   1.319
88186W        W60446  10.360  26.031  14.428
88187W        W60447   8.632  36.612  14.858
88188W        W60448   1.662  37.435  11.142
88189W        W60449   1.667  24.101   1.072
88190W        W60450  36.608  44.874  11.007
88191W        W60451  31.093  36.917  10.722
88192W        W60452  16.765  33.914  10.484
88193W        W60453   1.286  20.802   4.327
88194W        W60454  14.793  32.532   1.219
88195W        W60455  43.799  32.309  14.505
88196W        W60456   2.281  19.195   1.854
88197W        W60457  12.329  12.241  13.916
88198W        W60458  18.655  32.301  13.784
88199W        W60459  18.174  36.545  12.463
88200W        W60460  11.077  39.330  13.061
88201W        W60461  40.684  21.547  12.476
88202W        W60462   7.308  31.139  14.051
88203W        W60463  44.304   5.306   4.600
88204W        W60464  28.992  40.924   3.261
88205W        W60465  24.260  23.462  10.414
88206W        W60466  37.245  15.573  10.226
88207W        W60467  33.390   0.088   0.310
88208W        W60468  26.083   5.321  14.345
88209W        W60469   1.306  15.885   2.781
88210W        W60470  39.583   7.174   1.936
88211W        W60471  15.787   0.395  13.513
88212W        W60472  37.092  10.866  11.703
88213W        W60473  11.545  29.192  10.780
88214W        W60474  42.554   4.934   1.150
88215W        W60475  13.701  21.053   0.255
88216W        W60476   9.185  14.671  13.759
88217W        W60477  33.246  32.810   4.002
88218W        W60478  12.608  26.069   3.864
88219W        W60479  10.902   1.159  12.120
88220W        W60480   4.731  37.477   3.757
88221W        W60481  18.794  21.968  14.395
88222W        W60482  30.720   9.544  14.052
88223W        W60483  20.035  37.830  11.019
88224W        W60484  40.786   1.248   2.648
88225W        W60485   4.269   0.782   2.322
88226W        W60486  12.879  42.728  12.146
88227W        W60487  29.179  28.786   4.094
88228W        W60488   0.811  36.924  11.176
88229W        W60489  40.330  11.445  14.360
88230W        W60490   5.234  28.408   3.822
88231W        W60491  40.224   3.173  10.752
88232W        W60492  13.976  41.424   4.149
88233W        W60493  33.160  42.477  14.902
88234W        W60494  11.621  42.505  12.618
88235W        W60495  19.064  30.466   4.520
88236W        W60496  37.913  23.309   2.442
88237W        W60497  35.154   5.866  13.868
88238W        W60498  40.007   8.040   2.335
88239W        W60499  16.174  21.068  14.521
88240W        W60500  41.039  10.769  11.965
88241W        W60501   3.239   4.327  12.851
88242W        W60502  18.527  17.952  11.625
88243W        W60503  44.964  35.161   3.199
88244W        W60504   9.821  25.163  13.107
88245W        W60505  23.915  25.135   1.855
88246W        W60506   0.961  44.783  14.082
88247W        W60507  25.114   2.955   3.800
88248W        W60508  20.716  33.365  13.039
88249W        W60509  23.962  41.960   1.991
88250W        W60510  32.388  10.123  11.754
88251W        W60511  14.750  14.808  10.681
88252W        W60512  25.259   6.887  12.034
88253W        W60513   0.449  24.067   1.765
88254W        W60514  30.590  19.792   4.136
88255W        W60515   7.679  40.431   3.240
88256W        W60516  35.471  27.247   2.444
88257W        W60517   3.755  36.368   0.256
88258W        W60518  20.799  13.012   2.694
88259W        W60519   0.791  41.474  12.439
88260W        W60520   0.519  41.682   4.037
88261W        W60521  10.854  21.287   3.257
88262W        W60522  35.111  32.691  14.395
88263W        W60523  16.833  30.102  12.505
88264W        W60524  12.094  34.114   2.166
88265W        W60525  11.247  27.685  13.965
88266W        W60526  42.000  26.659  10.727
88267W        W60527  43.322   8.009   3.810
88268W        W60528  21.504   8.649  11.621
88269W        W60529  25.100   8.774   4.513
88270W        W60530  19.228   8.445   1.185
88271W        W60531  22.111   5.115   4.074
88272W        W60532  34.612  22.341   4.649
88273W        W60533  26.364   9.379  12.804
88274W        W60534  35.069   0.552   0.302
88275W        W60535   1.493  16.360  10.680
88276W        W60536  11.195  33.489   1.480
88277W        W60537  42.937  32.454  13.513
88278W        W60538  35.966  39.039  14.341
88279W        W60539  26.225  36.488   4.777
88280W        W60540   3.370  15.839  13.502
88281W        W60541  36.464  44.799  13.015
88282W        W60542  17.733  33.419  13.101
88283W        W60543  20.768  15.374   4.302
88284W        W60544   1.767   4.994  11.540
88285W        W60545  17.558   1.431   2.729
88286W        W60546  28.122  33.770  11.205
88287W        W60547   9.639  44.045  12.083
88288W        W60548  29.088   6.771  13.257
88289W        W60549   1.017   2.696  13.977
88290W        W60550  40.369  23.149  11.710
88291W        W60551  27.137  26.475   0.803
88292W        W60552  31.179  24.171  11.983
88293W        W60553   0.362  33.415   0.860
88294W        W60554   0.888   8.166   0.962
88295W        W60555  24.306  22.769   1.528
88296W        W60556   0.345  18.136  12.348
88297W        W60557  18.769  21.790   4.663
88298W        W60558   7.813   5.645   4.596
88299W        W60559  44.343  25.148   2.599
88300W        W60560  24.695  21.604  10.566
88301W        W60561  44.707  17.911   0.437
88302W        W60562  31.045  44.779  13.250
88303W        W60563   5.693   9.567  12.898
88304W        W60564  35.125  39.984  10.603
88305W        W60565   1.229   6.131  14.346
88306W        W60566  36.615  44.976  12.542
88307W        W60567  44.463   5.699  12.501
88308W        W60568   1.895   7.161  14.860
88309W        W60569   7.266  40.488   0.468
88310W        W60570  18.294   3.199  11.062
88311W        W60571  41.662  35.827   2.188
88312W        W60572  39.635  17.039   2.962
88313W        W60573  23.682  38.569   0.001
88314W        W60574  38.782  28.072  12.878
88315W        W60575  13.208  34.005  14.768
88316W        W60576   9.404  35.132   0.928
88317W        W60577   2.740  18.016   0.450
88318W        W60578  25.579  34.455  14.740
88319W        W60579   0.168  22.640   4.191
88320W        W60580  15.425   3.980  12.187
88321W        W60581  21.786  33.346   2.365
88322W        W60582   5.695  36.297  13.062
88323W        W60583   7.966  14.166   2.137
88324W        W60584   3.496   0.285   4.205
88325W        W60585  13.733  25.316   0.854
88326W        W60586  24.117  29.162   2.492
88327W        W60587  40.858  10.380  13.010
88328W        W60588  12.343  31.507   0.935
88329W        W60589  42.499  44.856  13.098
88330W        W60590   5.675  39.628   1.804
88331W        W60591  35.612   0.618  14.533
88332W        W60592  15.390  40.357   0.292
88333W        W60593  31.432  35.259   4.419
88334W        W60594  17.081  19.271  12.478
88335W        W60595  26.649  30.846  12.516
88336W        W60596  30.195  33.835   0.927
88337W        W60597   8.177   1.396  10.801
88338W        W60598  19.319  28.424  12.106
88339W        W60599  43.535  32.724  11.650
88340W        W60600  26.226  22.547   3.343
88341W        W60601  44.421  22.967   1.757
88342W        W60602  16.087   9.809   1.847
88343W        W60603  41.957  29.049  10.810
88344W        W60604   1.747  26.710  11.957
88345W        W60605   7.254  39.815   1.203
88346W        W60606  11.193  29.158  11.539
88347W        W60607  13.889  30.042   5.409
88348W        W60608  12.426  37.865   0.627
88349W        W60609  14.266  14.660   0.437
88350W        W60610  35.418   0.874  13.898
88351W        W60611  35.585  34.854   0.787
88352W        W60612  39.445  32.117  10.432
88353W        W60613  36.288  26.708   2.175
88354W        W60614   2.310  13.455  10.556
88355W        W60615  29.550  26.098   1.181
88356W        W60616  10.650  41.888  10.964
88357W        W60617   9.401  17.226  13.649
88358W        W60618  16.639  32.816  13.840
88359W        W60619  22.283  33.311  11.472
88360W        W60620  44.339  43.242   3.152
88361W        W60621  29.472  43.327  11.844
88362W        W60622  24.695  33.544   2.698
88363W        W60623  26.700  13.216  13.036
88364W        W60624  15.119  14.719   5.184
88365W        W60625  27.780  22.587   5.115
88366W        W60626  35.929  41.954   3.309
88367W        W60627  21.199  36.410  10.507
88368W        W60628  17.157  14.163  12.838
88369W        W60629  36.006  11.808   1.104
88370W        W60630  39.145  40.394  14.441
88371W        W60631  18.734  43.691  13.012
88372W        W60632  21.248  17.106   1.737
88373W        W60633  22.289   7.862   1.620
88374W        W60634  36.910  21.105  14.525
88375W        W60635  10.723  21.902   1.488
88376W        W60636  20.193  38.135   4.155
88377W        W60637  21.068  24.922   3.241
88378W        W60638  43.382   1.524  14.389
88379W        W60639  25.555  38.576  14.938
88380W        W60640  14.289  18.150   4.353
88381W        W60641  11.324  14.863   1.352
88382W        W60642  30.461  23.566   3.829
88383W        W60643  10.304  26.656   2.666
88384W        W60644   7.234  28.427   2.652
88385W        W60645  23.490   0.971   2.416
88386W        W60646   4.867  25.144  14.307
88387W        W60647   6.210  43.066  14.456
88388W        W60648   4.967   8.677  13.587
88389W        W60649  19.555  39.281   0.431
88390W        W60650   6.734   4.636   2.634
88391W        W60651   2.796   3.490   1.762
88392W        W60652  20.269  16.071  14.946
88393W        W60653  42.730  40.019   3.707
88394W        W60654  43.428   0.525   3.857
88395W        W60655   6.635  10.259   4.722
88396W        W60656  42.942   5.182  10.882
88397W        W60657  25.974   7.064   0.595
88398W        W60658   1.790  31.129  13.893
88399W        W60659  34.872  19.690  14.480
88400W        W60660  25.135   2.990   1.934
88401W        W60661  33.823  32.045  13.558
88402W        W60662  15.533  23.676   2.141
88403W        W60663  26.678   8.502   3.914
88404W        W60664  11.913   3.389  10.404
88405W        W60665  27.491  20.237  10.766
88406W        W60666  27.703  30.988   3.246
88407W        W60667  43.986  22.983   2.335
88408W        W60668  11.819   2.464   3.291
88409W        W60669   5.220   3.565   0.808
88410W        W60670  12.154  21.247   4.246
88411W        W60671   3.834  40.496  13.342
88412W        W60672  15.271  29.124  11.344
88413W        W60673  12.805  31.407   2.532
88414W        W60674  16.210   2.860  13.410
88415W        W60675  16.543  30.595  12.426
88416W        W60676  37.845  25.292   1.041
88417W        W60677  13.130  29.003  11.603
88418W        W60678  30.381  40.095  13.056
88419W        W60679  29.991  29.483   2.913
88420W        W60680   5.438  29.988  12.098
88421W        W60681  34.579   4.450   0.971
88422W        W60682  10.152   6.659  10.387
88423W        W60683  38.144  32.888   1.468
88424W        W60684  26.483  18.199   3.868
88425W        W60685  40.284   7.344   5.231
88426W        W60686  24.297  32.453   0.811
88427W        W60687  20.307  17.714   2.117
88428W        W60688  36.441  43.899   3.148
88429W        W60689  36.985  23.135  11.504
88430W        W60690   9.792  31.066   3.655
88431W        W60691  30.056  18.223   3.566
88432W        W60692  42.527   7.200  14.390
88433W        W60693   3.158  27.593   3.620
88434W        W60694  26.422   0.912   1.337
88435W        W60695  32.399  42.979   2.572
88436W        W60696  33.909  19.675   2.282
88437W        W60697   5.213  18.212  14.831
88438W        W60698  12.852  39.875   3.105
88439W        W60699  41.929   9.640   4.089
88440W        W60700  20.697  30.962   0.894
88441W        W60701   2.274  16.093  14.135
88442W        W60702   3.482  17.833  14.755
88443W        W60703  35.445  13.806  12.778
88444W        W60704  32.949  10.683   0.671
88445W        W60705  32.088  29.259  11.131
88446W        W60706  20.729  24.102  13.885
88447W        W60707   5.032  12.140  11.472
88448W        W60708  15.212  34.418   2.945
88449W        W60709  37.320   9.278   0.523
88450W        W60710  36.664  18.544  13.860
88451W        W60711  25.545  32.293  14.511
88452W        W60712  11.847  35.413   2.220
88453W        W60713  33.231  28.309  14.000
88454W        W60714  19.649  31.930   2.394
88455W        W60715  27.217   3.300  10.394
88456W        W60716  28.012  27.162   1.404
88457W        W60717  15.737  32.636  13.868
88458W        W60718  40.813  21.237   1.162
88459W        W60719  10.119  42.429   4.615
88460W        W60720  43.712  43.030   4.591
88461W        W60721  18.615   2.328  11.941
88462W        W60722  26.595  40.986  13.312
88463W        W60723  27.784  23.278   1.259
88464W        W60724   4.583  19.953   3.754
88465W        W60725  11.750  22.903  10.529
88466W        W60726  39.368  14.008  10.791
88467W        W60727   2.802  20.750   4.453
88468W        W60728  11.065   3.402   1.929
88469W        W60729  17.044   6.598  11.367
88470W        W60730   1.549   7.945  13.030
88471W        W60731  31.447  39.311  12.976
88472W        W60732  41.471  17.920  11.739
88473W        W60733  16.080  43.285   0.055
88474W        W60734  18.983  13.721   2.775
88475W        W60735  16.268   8.413   3.215
88476W        W60736  25.582  44.004  13.358
88477W        W60737  28.733   0.076   3.237
88478W        W60738  29.189  11.645  12.378
88479W        W60739  22.290  33.969   0.218
88480W        W60740  13.710  36.832  11.114
88481W        W60741  28.109  22.714  11.082
88482W        W60742  34.454  34.069  11.001
88483W        W60743  27.640  35.973  13.956
88484W        W60744  29.885  11.136  11.696
88485W        W60745  31.480  24.850   4.024
88486W        W60746  33.864  21.016  14.509
88487W        W60747  30.705   8.365  11.550
88488W        W60748  40.337  41.690  14.448
88489W        W60749  16.784  42.031   3.288
88490W        W60750  39.409  16.102  14.777
88491W        W60751  27.619  10.441  12.959
88492W        W60752  25.080  40.534   0.902
88493W        W60753   5.185  25.712   1.959
88494W        W60754  40.919  31.069  10.700
88495W        W60755   1.167  28.915  11.199
88496W        W60756  40.263  37.970   4.168
88497W        W60757  29.085  26.080   0.912
88498W        W60758  17.134  22.700   4.472
88499W        W60759  37.882   7.285  13.272
88500W        W60760   8.100  23.053  11.497
88501W        W60761  10.413  20.204   3.757
88502W        W60762   7.382  27.149  12.579
88503W        W60763  39.428   6.282   4.957
88504W        W60764  40.350  31.951   2.802
88505W        W60765   9.313   8.557   9.793
88506W        W60766  18.554   0.386   1.230
88507W        W60767  34.569   6.808   0.421
88508W        W60768   9.628  18.161  11.190
88509W        W60769  28.602   9.043  13.499
88510W        W60770  25.725  39.328  10.165
88511W        W60771  15.299   3.478   3.663
88512W        W60772  20.435  14.263  11.533
88513W        W60773   9.619  22.246   0.329
88514W        W60774   0.637  17.232   1.870
88515W        W60775  16.160   3.695   3.106
88516W        W60776  31.522  43.084  14.324
88517W        W60777  11.316   7.673  10.746
88518W        W60778  15.085  29.753   2.896
88519W        W60779  29.414   5.173   2.846
88520W        W60780  30.398  34.368   3.673
88521W        W60781  25.953  39.244   0.371
88522W        W60782  18.845  15.626  13.389
88523W        W60783  21.393  33.097  11.649
88524W        W60784  26.748  18.785   0.250
88525W        W60785  29.641  43.285   0.400
88526W        W60786   2.551  35.962   3.249
88527W        W60787   3.493  25.477  13.066
88528W        W60788  17.630  10.338   0.363
88529W        W60789  20.614  38.811   1.279
88530W        W60790  22.382  25.406   0.263
88531W        W60791  39.259  41.543  13.543
88532W        W60792   1.973  27.147   0.491
88533W        W60793  27.683   1.971  14.574
88534W        W60794  25.201   9.189   3.295
88535W        W60795  15.070   7.449  12.764
88536W        W60796  13.218   2.402  11.592
88537W        W60797  17.158  41.616   4.653
88538W        W60798  43.095  25.329   0.926
88539W        W60799  43.364  35.514  14.275
88540W        W60800  20.260  16.531  13.935
88541W        W60801  19.285  35.649  11.477
88542W        W60802  19.209  11.867  11.530
88543W        W60803  18.916  19.974   0.447
88544W        W60804  33.195  40.004  14.508
88545W        W60805   0.538  30.099  12.922
88546W        W60806   7.178   1.453  12.522
88547W        W60807   3.438   6.217   1.556
88548W        W60808  38.310  12.610   2.788
88549W        W60809  23.528   7.559   3.127
88550W        W60810   0.425   0.409  14.344
88551W        W60811  38.875  31.635  11.562
88552W        W60812  13.073   3.279  10.663
88553W        W60813  40.875  35.578  11.490
88554W        W60814  19.533   9.895  14.268
88555W        W60815  14.732  21.658  14.786
88556W        W60816  26.246  32.652   1.182
88557W        W60817  16.811  18.067   2.767
88558W        W60818  34.114   6.650  13.544
88559W        W60819  30.184  32.371  13.463
88560W        W60820   8.362  34.015  13.504
88561W        W60821  20.303  11.723   2.330
88562W        W60822  15.683   6.835  13.002
88563W        W60823  33.460  20.041  10.251
88564W        W60824  37.679   6.194   4.263
88565W        W60825  41.429  17.018   0.702
88566W        W60826  22.200  31.741   0.542
88567W        W60827  31.828  41.119   0.008
88568W        W60828  18.463  24.042   1.706
88569W        W60829  26.226  40.379  12.395
88570W        W60830  18.094  31.215  11.435
88571W        W60831   8.306  13.619  12.932
88572W        W60832  41.086  16.550  12.087
88573W        W60833  21.664  44.843  12.107
88574W        W60834  10.915   1.750  14.265
88575W        W60835   9.765  28.075  14.257
88576W        W60836  36.304  42.169  13.137
88577W        W60837  16.434  14.181   3.761
88578W        W60838   2.851  11.076   4.055
88579W        W60839   5.690   4.075  12.015
88580W        W60840  39.944  29.528   3.683
88581W        W60841  13.577  41.657  12.879
88582W        W60842  31.526  26.982  10.659
88583W        W60843  37.717  11.300  10.601
88584W        W60844   1.337  29.639  14.417
88585W        W60845  12.375  23.183   0.180
88586W        W60846  37.676   1.304  11.813
88587W        W60847  36.683  36.298  10.092
88588W        W60848  23.743  44.869  13.998
88589W        W60849  15.012  20.532   4.054
88590W        W60850  34.102  10.098   0.555
88591W        W60851  43.946  12.823   2.739
88592W        W60852  40.400  16.482  13.897
88593W        W60853  40.807  43.229   3.451
88594W        W60854  27.755  27.111  10.542
88595W        W60855  41.678   1.945   3.889
88596W        W60856  44.333  44.185   1.784
88597W        W60857  13.132   9.753  10.720
88598W        W60858  12.229  32.744   2.561
88599W        W60859  28.071  28.567   0.713
88600W        W60860  36.385  29.964  13.894
88601W        W60861   9.212   5.028  12.649
88602W        W60862  13.217   9.758   3.796
88603W        W60863   2.957  19.018  11.103
88604W        W60864  27.568  16.318   3.089
88605W        W60865   2.941   5.215  10.796
88606W        W60866   5.988   0.880  14.019
88607W        W60867   4.594   9.166   0.732
88608W        W60868  14.384  24.897   2.870
88609W        W60869  33.411  33.183  14.215
88610W        W60870   1.832  13.858   2.304
88611W        W60871  31.944   6.836  13.064
88612W        W60872  21.308  15.172   0.352
88613W        W60873   4.413  29.972  14.759
88614W        W60874  33.411  11.669   0.037
88615W        W60875  20.641   3.889   4.810
88616W        W60876  30.366  21.144   3.752
88617W        W60877  38.785   5.351   3.631
88618W        W60878  30.258  44.281   0.260
88619W        W60879  15.452  40.584   0.879
88620W        W60880  15.792  16.588   4.214
88621W        W60881   4.156  29.181   0.868
88622W        W60882  43.454  41.728  12.479
88623W        W60883  43.372  42.240  12.471
88624W        W60884  11.841  34.538   3.652
88625W        W60885   3.748   5.310  14.973
88626W        W60886  36.878  26.228  11.300
88627W        W60887  27.449  26.669  10.628
88628W        W60888  19.240  17.025   0.407
88629W        W60889  27.736  32.178   3.806
88630W        W60890  44.338   2.876   5.014
88631W        W60891  40.942   8.626  11.608
88632W        W60892  22.777  38.725  14.007
88633W        W60893  31.676  29.495   1.817
88634W        W60894  27.492  41.236  12.550
88635W        W60895  27.445  42.012   2.282
88636W        W60896  23.630  11.365   1.480
88637W        W60897  40.950  32.897   1.518
88638W        W60898  23.648  29.363   2.682
88639W        W60899  17.122  40.386   2.829
88640W        W60900  36.114  19.688   2.329
88641W        W60901  41.003  30.000   4.425
88642W        W60902  43.880   8.931   2.835
88643W        W60903   6.685  30.257   3.201
88644W        W60904  35.939  34.286  11.667
88645W        W60905  25.912  41.291   2.785
88646W        W60906   3.906  32.617  14.413
88647W        W60907  13.243  14.298  12.056
88648W        W60908  44.531  15.857  13.348
88649W        W60909  42.489  37.366  10.950
88650W        W60910   5.364  36.163  12.066
88651W        W60911  10.033  28.087  11.064
88652W        W60912   3.260  31.584   2.249
88653W        W60913  32.652  25.006   0.867
88654W        W60914  22.785  11.349  12.182
88655W        W60915  37.426  37.106   0.334
88656W        W60916  15.325  43.424  11.979
88657W        W60917  30.896  10.047  14.157
88658W        W60918   6.982  12.407  11.694
88659W        W60919  31.826  23.639   2.615
88660W        W60920   3.020   7.831  12.099
88661W        W60921  22.424  42.842   2.134
88662W        W60922  18.719   8.116   3.382
88663W        W60923  22.158  43.462   0.484
88664W        W60924  29.830   5.519   4.490
88665W        W60925  36.046  24.822   4.439
88666W        W60926   8.361  12.395   2.252
88667W        W60927  30.925  20.716   3.358
88668W        W60928  41.873  23.322  14.866
88669W        W60929  27.200   6.639   3.213
88670W        W60930  22.099   0.711  13.073
88671W        W60931   5.661  31.061  10.676
88672W        W60932  18.639  22.090   0.968
88673W        W60933   5.033  11.396  14.488
88674W        W60934  12.188  32.478  12.944
88675W        W60935   4.483  19.981   0.266
88676W        W60936   7.940   2.441   3.560
88677W        W60937  15.601  43.262  14.855
88678W        W60938  44.053  18.851  11.112
88679W        W60939  40.036  42.994  13.323
88680W        W60940  37.165  22.979   3.317
88681W        W60941  34.210  44.395  13.593
88682W        W60942  37.740   7.123  11.898
88683W        W60943   9.175  23.486  14.244
88684W        W60944  29.665  32.386  11.886
88685W        W60945  33.323  26.577   2.209
88686W        W60946  37.511  21.245  12.143
88687W        W60947  20.294   0.006   3.894
88688W        W60948  21.181  27.662   2.217
88689W        W60949  28.129  42.443   2.625
88690W        W60950  22.823  35.971  14.380
88691W        W60951  13.323  35.232  14.275
88692W        W60952  26.453  16.574  10.999
88693W        W60953  35.932  44.294   3.660
88694W        W60954  32.026  11.805  11.028
88695W        W60955  38.568  26.644   1.403
88696W        W60956   1.616  36.621  12.746
88697W        W60957  25.149  44.028   5.097
88698W        W60958  14.874  18.931  12.080
88699W        W60959  33.177  29.099   0.380
88700W        W60960  21.894  10.145   1.669
88701W        W60961  43.593  41.055   4.886
88702W        W60962  32.049  42.053  11.670
88703W        W60963  20.005  22.125   3.153
88704W        W60964  13.242  43.001   4.876
88705W        W60965  42.098  24.663   0.410
88706W        W60966   8.434  15.688  13.994
88707W        W60967  38.992  35.962  12.497
88708W        W60968  28.415  15.832   0.751
88709W        W60969  26.015   5.291  11.968
88710W        W60970   0.099  40.815  14.072
88711W        W60971   3.668   7.038  14.258
88712W        W60972  40.366   8.899   2.400
88713W        W60973   4.135  33.412   1.150
88714W        W60974  20.590  24.796  12.844
88715W        W60975  35.964  18.020   4.025
88716W        W60976  35.794  21.690   3.530
88717W        W60977  38.534  36.419   1.433
88718W        W60978  33.884  13.752   2.609
88719W        W60979   4.021  40.574   0.405
88720W        W60980  36.905  33.148  13.043
88721W        W60981   9.198  30.653   0.967
88722W        W60982  23.610   8.344   0.854
88723W        W60983  35.025  24.997  12.505
88724W        W60984  11.661   8.217  12.661
88725W        W60985   0.819  20.827   4.548
88726W        W60986  32.359  38.542   3.839
88727W        W60987  14.149  15.535  11.982
88728W        W60988  41.038   1.910   4.579
88729W        W60989  40.517  34.540  13.894
88730W        W60990  24.252  21.354   1.130
88731W        W60991  29.394   8.861   2.372
88732W        W60992  20.639   0.049   2.820
88733W        W60993   8.313   9.321   3.339
88734W        W60994  30.885  36.085  14.674
88735W        W60995  25.213  25.107   1.911
88736W        W60996  30.178  42.929  12.013
88737W        W60997  22.001  44.996  13.796
88738W        W60998  29.599  28.158  12.879
88739W        W60999  44.475  38.799  11.912
88740W        W61000  21.749  33.060  10.581
88741W        W61001  32.202  15.578   3.678
88742W        W61002   9.576  38.130   3.154
88743W        W61003  26.652  24.887   4.120
88744W        W61004  18.668   8.703  12.716
88745W        W61005  28.417  27.704  11.901
88746W        W61006  18.324  43.301  11.938
88747W        W61007  22.227  18.506   1.363
88748W        W61008  32.162  18.902   0.934
88749W        W61009  34.864   8.174   4.209
88750W        W61010  19.308  42.816  14.502
88751W        W61011  19.681  27.165  12.389
88752W        W61012  22.079  14.300  13.696
88753W        W61013  13.279   8.073  10.820
88754W        W61014   3.983  14.819  14.462
88755W        W61015  42.364  43.561   1.236
88756W        W61016  21.100  37.779   4.138
88757W        W61017  19.982  20.820   3.191
88758W        W61018  42.699  31.319   2.308
88759W        W61019  29.082  38.920  10.218
88760W        W61020   7.112   4.165   1.825
88761W        W61021  28.178  12.236   4.998
88762W        W61022  42.614  20.824   2.769
88763W        W61023  33.007  27.964  12.313
88764W        W61024  21.096   5.690   3.145
88765W        W61025  35.159  35.574   4.079
88766W        W61026  21.889  10.634  12.901
88767W        W61027  39.526  20.104  14.986
88768W        W61028   4.889  42.793  11.146
88769W        W61029  15.251   3.952   0.921
88770W        W61030  22.174  31.060  12.925
88771W        W61031  10.483  27.205  11.871
88772W        W61032   0.508  23.429   2.802
88773W        W61033  15.960  10.593   3.579
88774W        W61034  38.320  33.795  10.524
88775W        W61035  36.081  16.734  11.639
88776W        W61036   6.787  39.623   3.720
88777W        W61037  27.421   2.142  12.051
88778W        W61038  23.474  15.651  14.896
88779W        W61039  18.683   1.333  12.080
88780W        W61040  33.535   3.697   1.112
88781W        W61041   2.771  41.074   3.191
88782W        W61042  17.487  23.079  13.048
88783W        W61043  27.159  12.973   4.429
88784W        W61044  25.540  13.131   0.315
88785W        W61045  41.380  12.220  11.502
88786W        W61046  36.962  38.331   1.364
88787W        W61047  33.515  14.094   3.557
88788W        W61048  11.144  42.347  14.834
88789W        W61049   3.382  44.315  11.608
88790W        W61050  34.589   5.275   3.699
88791W        W61051  31.474   3.445   1.864
88792W        W61052  16.310   1.180  13.995
88793W        W61053  13.794  10.903  11.213
88794W        W61054   7.939  12.256  14.276
88795W        W61055  34.732  10.316   1.827
88796W        W61056  21.344  25.200   1.709
88797W        W61057   5.856   7.571   4.044
88798W        W61058  24.895  27.423  10.411
88799W        W61059  35.929  38.430  12.030
88800W        W61060   4.235  32.086   3.291
88801W        W61061  12.764  14.648  11.008
88802W        W61062  22.137  37.076   1.146
88803W        W61063  13.278  41.536  10.793
88804W        W61064  42.721  17.508   1.050
88805W        W61065  38.472  20.632  12.936
88806W        W61066  12.173  34.056   4.751
88807W        W61067   4.667  18.630  14.302
88808W        W61068  11.123  14.934  12.556
88809W        W61069  36.285  22.698  14.924
88810W        W61070  32.909   1.628  13.337
88811W        W61071  21.720  29.225   1.870
88812W        W61072  24.962  33.667  14.000
88813W        W61073   0.625  19.651   1.165
88814W        W61074   9.362   5.656  14.935
88815W        W61075  10.118  33.427   5.167
88816W        W61076  14.646  28.630   2.364
88817W        W61077  37.800  13.559  11.416
88818W        W61078  42.748   6.170  12.517
88819W        W61079  17.060  13.686  13.023
88820W        W61080   6.353  16.717  14.912
88821W        W61081   2.453  15.910  11.867
88822W        W61082  41.274   9.663  14.743
88823W        W61083  14.681   8.103   2.201
88824W        W61084  16.333  37.445  14.056
88825W        W61085  44.018  31.007   1.497
88826W        W61086  18.703  43.006   1.187
88827W        W61087  14.175  18.673   4.420
88828W        W61088   2.785  30.642  12.961
88829W        W61089   8.233  10.287  12.580
88830W        W61090  20.395   6.481  10.543
88831W        W61091  20.705   4.399   1.365
88832W        W61092   2.185  40.668   4.143
88833W        W61093   2.953  26.168   2.381
88834W        W61094  13.848  14.305  13.824
88835W        W61095   5.749  23.380  12.171
88836W        W61096  21.174   7.678   2.380
88837W        W61097  27.408  30.924  11.182
88838W        W61098   5.907   2.723  11.106
88839W        W61099  43.873  14.238  14.591
88840W        W61100   5.876  29.260   9.773
88841W        W61101  32.097   1.757  13.945
88842W        W61102  37.956  34.670   2.246
88843W        W61103   9.312   4.477   2.576
88844W        W61104  20.030  35.968  12.340
88845W        W61105  26.133  24.569   3.505
88846W        W61106  37.305  19.532  10.598
88847W        W61107  32.246  38.431  12.018
88848W        W61108  33.555  26.201  14.256
88849W        W61109  11.188  13.717   3.868
88850W        W61110  36.779   7.797  10.943
88851W        W61111   2.820  11.855   0.387
88852W        W61112  21.207  30.144  10.730
88853W        W61113  25.547  43.463   2.943
88854W        W61114  32.902  22.880   0.753
88855W        W61115  36.543   8.295  13.836
88856W        W61116  15.626  44.321   2.440
88857W        W61117  18.410  42.888  14.263
88858W        W61118  21.283  37.288  10.884
88859W        W61119  37.095  37.901  14.862
88860W        W61120  12.300  11.145  14.128
88861W        W61121   4.717  11.888   3.705
88862W        W61122  39.877   9.845   3.077
88863W        W61123  19.153   4.381   3.230
88864W        W61124  41.461  43.974   2.165
88865W        W61125   2.643  40.005  11.224
88866W        W61126  37.926  30.651  13.075
88867W        W61127  16.133  12.333  13.863
88868W        W61128   5.232  37.033   2.051
88869W        W61129   7.094   4.125   4.121
88870W        W61130   1.200  32.639  14.287
88871W        W61131  32.879  25.113  13.122
88872W        W61132  10.806  32.046   4.377
88873W        W61133  21.511  39.560  12.956
88874W        W61134  30.138   1.694   4.841
88875W        W61135  19.574  34.458   2.133
88876W        W61136  16.853  23.489   2.158
88877W        W61137  33.624  32.151   0.618
88878W        W61138  38.018  26.962   0.285
88879W        W61139  43.446  34.985  10.114
88880W        W61140  34.416   3.083   4.075
88881W        W61141  42.560  24.228  12.732
88882W        W61142  26.801  40.439   4.205
88883W        W61143   0.650  36.991   2.230
88884W        W61144   2.705  11.498  14.446
88885W        W61145  34.617  25.681   0.925
88886W        W61146  10.048  16.311  11.381
88887W        W61147  27.213  38.568  12.433
88888W        W61148  42.279  34.634  13.433
88889W        W61149   1.257  40.425   2.164
88890W        W61150  12.451  19.577  13.270
88891W        W61151   6.421  39.680  13.454
88892W        W61152  31.073  42.498   0.747
88893W        W61153  44.050  18.549   3.651
88894W        W61154  19.072  29.202  11.695
88895W        W61155  39.561  11.187   4.157
88896W        W61156  27.663  17.625   0.825
88897W        W61157  17.141  16.547   1.845
88898W        W61158  30.539  25.023  14.007
88899W        W61159  27.450  31.159   3.696
88900W        W61160  16.792  33.472  12.917
88901W        W61161  39.982  40.961  14.518
88902W        W61162  26.168   5.448   1.441
88903W        W61163  12.158  19.570  12.087
88904W        W61164  29.666   8.129   3.197
88905W        W61165  40.908  15.161  10.688
88906W        W61166  21.279  11.902  14.498
88907W        W61167  10.745  44.986  13.268
88908W        W61168  37.870  14.255   3.311
88909W        W61169   0.386   7.672   0.485
88910W        W61170  39.478  38.960  13.126
88911W        W61171  44.749   5.892  13.891
88912W        W61172  16.192  34.486   0.499
88913W        W61173  37.318  15.684  10.973
88914W        W61174  21.409  39.841  10.667
88915W        W61175   4.218  11.269  10.883
88916W        W61176  13.073   0.258   2.490
88917W        W61177  31.860  14.017  12.688
88918W        W61178   5.442  16.618  13.458
88919W        W61179  20.099  34.627   2.116
88920W        W61180   1.729  14.664  11.622
88921W        W61181  32.414  27.482   1.917
88922W        W61182  34.162  40.760   2.342
88923W        W61183  14.114   5.440   0.366
88924W        W61184  26.613  41.832   4.268
88925W        W61185   6.827  36.022   3.115
88926W        W61186   0.506  43.277  14.037
88927W        W61187  34.042   2.313  13.414
88928W        W61188  36.452  43.856   3.669
88929W        W61189  27.100  11.883   3.261
88930W        W61190  34.844   4.098   2.393
88931W        W61191  37.442   1.548  14.997
88932W        W61192  20.595  39.960  14.947
88933W        W61193  35.551  40.777   0.800
88934W        W61194  23.860  22.960   1.327
88935W        W61195  35.956  43.537   3.207
88936W        W61196  33.020  39.907   4.436
88937W        W61197  22.946  44.429   4.632
88938W        W61198   9.444  21.761   3.119
88939W        W61199  20.055  42.442  14.538
88940W        W61200  31.266  18.739   1.877
88941W        W61201  40.642  21.764   2.935
88942W        W61202  15.844  32.396   4.676
88943W        W61203  40.790  14.125   3.076
88944W        W61204  39.863  10.369  11.120
88945W        W61205   8.238  36.225  12.034
88946W        W61206   8.768  36.110   0.883
88947W        W61207  31.665   1.014   2.877
88948W        W61208  39.344  26.739   0.769
88949W        W61209   7.472  31.325  14.862
88950W        W61210  10.443  21.169   5.140
88951W        W61211  27.715   6.021   3.769
88952W        W61212  44.407  33.397   2.304
88953W        W61213  37.630   0.422  11.585
88954W        W61214  35.367   3.922  12.980
88955W        W61215  39.229  32.215   9.932
88956W        W61216  26.693  27.633   0.451
88957W        W61217  23.250  19.032   2.214
88958W        W61218  18.903   7.220   3.607
88959W        W61219  20.595  33.005  12.374
88960W        W61220  20.013   2.241   2.428
88961W        W61221  43.813   8.499  10.687
88962W        W61222  31.516  37.785  10.681
88963W        W61223  22.314  29.162   9.624
88964W        W61224  41.949  25.780   3.511
88965W        W61225   3.174  43.845  10.689
88966W        W61226   0.264   5.785  13.750
88967W        W61227  11.741  18.181   0.836
88968W        W61228  28.634  41.986   4.251
88969W        W61229  26.587  22.782   1.287
88970W        W61230  27.523  17.865   2.101
88971W        W61231  10.915  12.868   0.678
88972W        W61232   0.181   1.294  12.521
88973W        W61233  10.150  32.834   1.464
88974W        W61234  32.986  38.404  14.909
88975W        W61235   7.219  25.548  14.947
88976W        W61236  19.124  25.991  10.796
88977W        W61237  16.150  42.241   4.279
88978W        W61238  20.373  42.707  12.522
88979W        W61239  23.201  23.949   0.874
88980W        W61240   8.272  31.656   3.676
88981W        W61241  34.532  43.078  12.533
88982W        W61242  34.726  26.174   3.395
88983W        W61243  27.560  23.105  12.464
88984W        W61244  32.685  38.826  13.436
88985W        W61245  39.855  37.882   3.280
88986W        W61246  24.422  21.678  12.822
88987W        W61247  41.858  24.180   4.565
88988W        W61248  17.819  11.959   1.769
88989W        W61249  25.060  23.654   3.146
88990W        W61250  28.769  25.523  11.160
88991W        W61251  19.931   7.824  14.809
88992W        W61252  16.694   9.045  11.801
88993W        W61253  44.805  11.379   1.739
88994W        W61254  12.105   7.166  12.341
88995W        W61255  34.141  19.790  12.291
88996W        W61256  12.903   7.326   2.962
88997W        W61257   4.004  39.345   3.620
88998W        W61258  18.115  15.050   1.443
88999W        W61259  11.997  32.089  14.685
89000W        W61260  17.126  23.432  11.016
89001W        W61261  29.254  11.418  11.196
89002W        W61262  29.735  32.941   1.340
89003W        W61263   7.159  26.514   0.308
89004W        W61264  37.515  42.829  11.173
89005W        W61265   0.922  20.182  14.369
89006W        W61266  37.998   6.598   4.194
89007W        W61267   9.393  31.490  11.610
89008W        W61268  36.964  25.021  12.034
89009W        W61269  34.190  43.008  13.380
89010W        W61270  21.751  26.085   4.587
89011W        W61271  17.093  29.493  12.024
89012W        W61272   9.942  18.067   4.172
89013W        W61273  33.680  12.675   0.028
89014W        W61274  21.014  13.650   4.106
89015W        W61275  22.172  25.092   2.335
89016W        W61276   9.462  17.616   2.449
89017W        W61277  20.300  17.665  12.096
89018W        W61278  20.135  40.943  14.828
89019W        W61279   2.015  14.071   1.740
89020W        W61280  27.719  22.740   1.311
89021W        W61281  44.360  42.280  12.314
89022W        W61282  38.166  25.131  11.700
89023W        W61283  40.899  31.600  10.491
89024W        W61284  17.969  27.882   3.154
89025W        W61285   1.434  41.782  10.998
89026W        W61286  38.173   1.381   3.146
89027W        W61287  16.584  19.837   2.456
89028W        W61288  10.825  41.913  11.887
89029W        W61289  10.720  31.015   4.496
89030W        W61290  28.559  19.174  12.201
89031W        W61291   1.497   6.375  11.187
89032W        W61292  25.379  35.415   0.642
89033W        W61293   4.478  35.101  11.972
89034W        W61294   3.465   4.002   4.131
89035W        W61295  31.350  41.870   1.351
89036W        W61296  18.391  24.101   0.726
89037W        W61297  33.984  13.287   0.949
89038W        W61298  10.568  25.756  14.009
89039W        W61299  38.629   1.354  10.689
89040W        W61300  23.379  36.113  10.660
89041W        W61301  44.881  38.476   3.515
89042W        W61302  44.515  22.531  14.939
89043W        W61303  27.808  37.066  12.953
89044W        W61304  24.770   5.734  13.414
89045W        W61305  32.981   6.352  13.363
89046W        W61306   2.405  39.989   1.370
89047W        W61307  11.246   7.770   3.826
89048W        W61308  13.266   1.542   2.401
89049W        W61309  40.251  20.059   4.188
89050W        W61310  18.659  41.114  11.099
89051W        W61311  22.347  15.560   3.180
89052W        W61312   0.087  12.823  13.437
89053W        W61313  38.302  31.571   4.638
89054W        W61314  16.719  23.788  13.128
89055W        W61315  31.621  43.243  13.839
89056W        W61316  17.705  36.392  10.773
89057W        W61317  34.105  13.018   1.928
89058W        W61318  23.931  14.928  11.648
89059W        W61319   2.333  38.829  13.385
89060W        W61320  28.147   1.027  14.091
89061W        W61321  10.948  29.532  12.148
89062W        W61322   4.474   6.864  13.873
89063W        W61323  40.011  11.228  13.386
89064W        W61324  37.807   9.704   3.127
89065W        W61325  38.456  39.542   1.035
89066W        W61326  37.152  24.527  11.985
89067W        W61327  25.540  34.892   4.483
89068W        W61328  32.682  20.297   1.305
89069W        W61329   3.979  18.116   4.005
89070W        W61330   5.394   6.275  12.821
89071W        W61331  30.586  26.920  11.500
89072W        W61332  22.229  30.109   4.688
89073W        W61333  12.770   5.685   4.395
89074W        W61334  28.683  16.634  10.687
89075W        W61335  33.344   5.253  13.361
89076W        W61336  22.518  29.720   3.512
89077W        W61337   3.330  15.590  13.015
89078W        W61338  38.077   2.056   4.172
89079W        W61339  29.964  39.913   2.275
89080W        W61340  15.585  27.967  13.655
89081W        W61341  22.889  12.823   3.236
89082W        W61342  18.772   5.541   5.092
89083W        W61343  25.484  24.517   0.938
89084W        W61344  42.710  37.054  14.778
89085W        W61345  25.683   8.051   2.919
89086W        W61346  42.339  29.648   1.105
89087W        W61347  17.865  19.274  11.514
89088W        W61348   8.459  23.004   0.380
89089W        W61349  21.497  13.476   2.398
89090W        W61350  41.946   5.226   1.583
89091W        W61351  36.499   2.652   2.813
89092W        W61352  27.139  26.093   1.166
89093W        W61353   1.449  23.117   0.842
89094W        W61354  35.546   3.310   4.573
89095W        W61355   0.959  30.451   4.748
89096W        W61356  21.542   2.407   4.056
89097W        W61357  39.824  40.463   4.797
89098W        W61358  30.366  32.852  13.163
89099W        W61359  28.990  42.360  10.909
89100W        W61360  37.751   3.467   2.780
89101W        W61361  43.963   3.950   2.866
89102W        W61362  30.578   3.712  12.356
89103W        W61363  15.273  40.788   3.220
89104W        W61364   2.741  37.126  13.435
89105W        W61365  19.722  15.146   0.676
89106W        W61366  38.906  33.831   4.658
89107W        W61367  32.607  37.942   2.696
89108W        W61368   7.637   8.363   2.379
89109W        W61369  17.250   2.375   0.799
89110W        W61370  30.998   0.870  11.858
89111W        W61371   5.520  36.380   3.664
89112W        W61372  21.287  33.106  14.033
89113W        W61373   5.329  27.367  10.630
89114W        W61374   3.995  11.172  14.731
89115W        W61375   6.931  13.394   0.217
89116W        W61376   1.245  10.683  14.209
89117W        W61377  10.645   2.074  12.057
89118W        W61378  29.267   0.046   0.499
89119W        W61379  42.373  25.490   4.588
89120W        W61380  19.257  21.507   0.051
89121W        W61381  33.921  33.190  14.288
89122W        W61382  44.455  41.988   0.826
89123W        W61383   0.062  12.115   4.599
89124W        W61384  31.182  38.608   0.509
89125W        W61385  36.885  17.919  10.492
89126W        W61386  22.277  22.787   4.196
89127W        W61387  44.821   1.880  11.539
89128W        W61388  18.537  31.089  14.428
89129W        W61389  12.728  15.769   2.157
89130W        W61390  38.325  10.800  13.549
89131W        W61391   7.911   8.870   1.312
89132W        W61392   3.076   2.221   4.158
89133W        W61393  20.621   9.890   1.380
89134W        W61394   1.655  18.572  11.150
89135W        W61395  32.565   8.664   4.811
89136W        W61396  29.380  35.443  11.881
89137W        W61397  19.328  42.214   4.205
89138W        W61398  22.549  41.994  14.522
89139W        W61399  30.407  36.829  13.490
89140W        W61400  40.868  37.849   2.703
89141W        W61401   3.795  26.009   3.381
89142W        W61402  11.923  25.569   2.877
89143W        W61403   7.809  43.056  12.481
89144W        W61404   0.328  24.498  13.074
89145W        W61405  27.921   0.825  13.390
89146W        W61406  33.433  39.970  12.157
89147W        W61407  10.965  29.988   0.842
89148W        W61408  36.525   3.874   2.279
89149W        W61409  41.831  17.483   4.149
89150W        W61410  17.482  29.165  12.051
89151W        W61411  39.021  41.061  13.798
89152W        W61412  41.350  24.479   2.725
89153W        W61413  25.548  33.424   3.711
89154W        W61414  14.820  17.430   5.493
89155W        W61415  31.014  42.482   4.349
89156W        W61416  23.062  20.194   1.770
89157W        W61417  17.117   2.504  10.652
89158W        W61418   6.254  37.621  10.598
89159W        W61419   2.668  44.339   3.694
89160W        W61420  10.305  10.333  12.022
89161W        W61421  22.376  30.201  11.131
89162W        W61422  16.062  35.979  11.720
89163W        W61423  22.248  42.534  13.911
89164W        W61424  29.416  26.574   1.413
89165W        W61425  11.769   4.550  11.707
89166W        W61426  34.501   4.460   0.461
89167W        W61427   3.755   7.244  12.956
89168W        W61428  32.422  32.133   0.736
89169W        W61429  26.019  12.558  14.513
89170W        W61430   9.375  37.146  10.626
89171W        W61431  10.093  23.454  14.891
89172W        W61432  19.609  13.787  13.996
89173W        W61433  37.693  19.569  12.395
89174W        W61434  38.023   0.305   1.295
89175W        W61435  34.450  23.530  11.192
89176W        W61436  44.188  27.681   2.180
89177W        W61437  34.770   1.866  10.957
89178W        W61438  42.772   2.726  14.345
89179W        W61439   6.941  14.537  13.416
89180W        W61440   4.910  43.905   1.272
89181W        W61441  37.632   1.189   2.252
89182W        W61442  10.317  38.354  10.438
89183W        W61443  41.418  26.455  13.199
89184W        W61444   7.819  16.595  12.142
89185W        W61445  22.639  36.908  14.573
89186W        W61446  11.788   3.375   0.820
89187W        W61447   9.851  33.991   4.108
89188W        W61448  20.065  20.225   3.153
89189W        W61449  17.624  14.073  12.614
89190W        W61450  13.079  42.164   1.184
89191W        W61451   1.553  41.061  12.018
89192W        W61452   8.384   4.278   0.457
89193W        W61453  17.138  18.976  13.312
89194W        W61454  32.467  41.266  12.564
89195W        W61455  24.670  29.875   0.275
89196W        W61456   0.232  43.855   1.877
89197W        W61457   6.846  44.884   3.122
89198W        W61458  38.420  15.709  10.702
89199W        W61459  36.098  36.470   1.303
89200W        W61460  31.943  42.824   4.661
89201W        W61461  10.695  29.011   3.852
89202W        W61462  42.524  40.307   2.348
89203W        W61463  14.832  44.194  12.039
89204W        W61464  38.881   1.401   4.385
89205W        W61465  17.337  13.685   0.874
89206W        W61466   7.360  28.058  10.654
89207W        W61467  41.982  30.468   0.785
89208W        W61468  31.538  27.276   2.243
89209W        W61469   4.415  25.862   1.295
89210W        W61470  44.255   9.705  10.942
89211W        W61471  39.114  28.690   0.864
89212W        W61472   0.979  23.432  14.917
89213W        W61473   8.732   8.617  13.545
89214W        W61474  27.252   7.306  10.856
89215W        W61475   0.410  40.489   4.172
89216W        W61476   4.903  14.147  11.370
89217W        W61477  30.208  31.939  13.869
89218W        W61478  13.312  42.154   0.728
89219W        W61479  14.739  40.052  14.059
89220W        W61480   7.641   2.869   3.364
89221W        W61481   5.752   6.214  14.021
89222W        W61482  25.959  33.340  14.969
89223W        W61483  30.231  29.981  10.634
89224W        W61484  15.819  38.284   2.367
89225W        W61485  40.959  42.259   3.102
89226W        W61486  27.948  35.770  11.125
89227W        W61487  39.282  21.469  10.713
89228W        W61488  29.570  37.786  12.408
89229W        W61489  33.163  25.163   0.929
89230W        W61490   5.044   1.267  14.806
89231W        W61491   9.073  22.248  12.925
89232W        W61492  24.502  32.411  10.611
89233W        W61493  42.705  28.137   4.050
89234W        W61494  13.405   2.796  14.857
89235W        W61495   3.460   4.208   2.703
89236W        W61496  38.819  21.542  13.351
89237W        W61497  13.474  42.448   1.969
89238W        W61498   5.242  19.234  13.827
89239W        W61499  16.765  24.754  12.726
89240W        W61500  37.820   6.770   3.742
89241W        W61501  30.065  35.009   4.587
89242W        W61502   3.906   9.338  10.808
89243W        W61503  13.342   6.598  11.493
89244W        W61504  39.255  20.473  14.738
89245W        W61505  13.805  10.398  14.061
89246W        W61506  43.377   3.172  13.002
89247W        W61507   7.164  38.545   2.245
89248W        W61508  43.326  21.077   2.342
89249W        W61509  26.796  28.639  14.731
89250W        W61510   4.926  15.522   1.800
89251W        W61511  32.075  12.422   2.311
89252W        W61512   4.380  38.438   3.166
89253W        W61513  22.555  20.424  12.466
89254W        W61514  34.640  39.581   1.777
89255W        W61515  20.539  17.129  13.516
89256W        W61516   7.754  25.971   0.987
89257W        W61517  12.666  18.654   3.602
89258W        W61518  27.778  10.169  13.464
89259W        W61519   6.699  13.690   1.043
89260W        W61520  44.444  23.977  10.492
89261W        W61521  10.846  37.710  14.424
89262W        W61522  37.643  39.447   3.037
89263W        W61523  30.822  32.060  10.231
89264W        W61524  32.477  30.563   4.915
89265W        W61525  16.815  17.735   3.181
89266W        W61526  26.634  19.244   0.059
89267W        W61527  11.199  31.194   4.717
89268W        W61528  37.044  10.372   2.299
89269W        W61529  13.092   5.843   3.285
89270W        W61530  31.546  38.258   3.250
89271W        W61531  36.860  20.707   3.793
89272W        W61532   7.112  16.170   4.262
89273W        W61533  34.130  18.278  14.437
89274W        W61534  28.462  42.986   4.354
89275W        W61535  17.291  14.377  12.356
89276W        W61536  38.790   7.382   1.940
89277W        W61537  30.547  11.136   1.547
89278W        W61538   1.722  24.191   2.928
89279W        W61539  21.552   6.743   2.635
89280W        W61540  44.428  39.170  13.593
89281W        W61541  24.084  22.987  12.414
89282W        W61542   9.500   7.617  12.491
89283W        W61543  10.441  38.877   0.422
89284W        W61544   4.649   2.831   3.357
89285W        W61545  28.123  34.989  11.833
89286W        W61546   2.374   5.748  10.602
89287W        W61547  36.422   1.301  11.116
89288W        W61548  35.851  16.019  10.596
89289W        W61549  35.665   4.801   0.665
89290W        W61550  44.963  26.362   2.406
89291W        W61551  10.643   7.245   0.296
89292W        W61552  35.298  37.849  11.961
89293W        W61553  16.459   6.613   1.850
89294W        W61554  36.586  19.767   4.189
89295W        W61555  34.615   3.515   5.212
89296W        W61556  24.573   4.366  11.627
89297W        W61557  33.562  37.254   3.242
89298W        W61558  36.117  17.577   2.610
89299W        W61559   9.269  26.773  14.901
89300W        W61560   8.479  44.951   1.739
89301W        W61561   7.684  21.194   3.602
89302W        W61562  24.980  13.826  13.012
89303W        W61563  44.946  26.101  10.655
89304W        W61564   6.617  32.834  13.074
89305W        W61565  39.245   7.307  13.138
89306W        W61566  34.522  44.022  11.507
89307W        W61567   6.041  30.845   1.955
89308W        W61568   2.300   5.892   1.686
89309W        W61569   9.422   7.782   4.561
89310W        W61570  26.566   7.698  11.247
89311W        W61571   9.522  10.523   4.578
89312W        W61572  16.835  36.867   3.270
89313W        W61573  44.883  23.068   4.148
89314W        W61574  19.540  12.158  13.443
89315W        W61575   8.856  33.550   3.702
89316W        W61576   4.542  22.791  14.410
89317W        W61577  40.308  25.452   3.071
89318W        W61578  17.598   3.190   3.860
89319W        W61579  10.829   5.912   2.687
89320W        W61580  20.632  17.763   1.170
89321W        W61581   7.779  27.410   3.638
89322W        W61582   5.746  18.097  13.969
89323W        W61583  25.977  43.206  13.465
89324W        W61584   3.443   3.858   0.414
89325W        W61585   4.476  26.880  12.460
89326W        W61586  40.915  27.664   3.199
89327W        W61587  34.027  21.197   4.917
89328W        W61588  23.864   7.615   0.991
89329W        W61589  42.966   1.254   4.210
89330W        W61590   0.347  23.487  14.440
89331W        W61591   8.753  32.157   0.418
89332W        W61592  37.020  36.315   0.309
89333W        W61593  11.715  41.881  11.989
89334W        W61594  10.635  42.437   1.924
89335W        W61595  33.873  42.037  13.021
89336W        W61596  14.338  32.486   1.498
89337W        W61597  27.569  29.237  11.540
89338W        W61598  12.168  16.529   0.065
89339W        W61599   6.020  34.627  14.161
89340W        W61600   0.805   5.205  11.447
89341W        W61601   0.905  29.211   2.274
89342W        W61602  39.909  24.173  14.375
89343W        W61603  33.482  20.500   9.952
89344W        W61604  27.719  15.443  12.969
89345W        W61605  41.551  42.849   3.681
89346W        W61606  24.246  39.378   2.869
89347W        W61607  29.789  32.905   0.512
89348W        W61608  10.918  36.486   0.405
89349W        W61609  25.726  37.973  13.518
89350W        W61610  33.954   9.136   0.897
89351W        W61611  12.024  21.182  14.546
89352W        W61612  30.534  13.745  13.373
89353W        W61613  22.429  11.309  10.767
89354W        W61614  38.721  37.572  10.292
89355W        W61615  11.182  25.491  11.931
89356W        W61616  42.024   9.202  12.612
89357W        W61617  28.268   1.000   5.323
89358W        W61618  24.304  27.125   3.512
89359W        W61619   0.022  23.494   1.181
89360W        W61620  31.227  14.089   0.979
89361W        W61621  13.049  24.933   9.981
89362W        W61622  11.310   5.618   1.908
89363W        W61623  44.028  35.815  13.601
89364W        W61624  36.536  19.121  10.803
89365W        W61625  42.125  12.855   2.368
89366W        W61626  24.643  21.576   4.957
89367W        W61627  39.203  21.034   0.248
89368W        W61628  34.155  23.091   2.773
89369W        W61629  40.950  39.288  13.433
89370W        W61630  41.957  22.050  11.494
89371W        W61631   3.966   1.758   2.289
89372W        W61632  11.835  32.660  14.521
89373W        W61633  26.094  40.972   4.049
89374W        W61634   8.219  33.372  12.025
89375W        W61635  37.964  39.500   3.937
89376W        W61636  15.798  12.795  12.622
89377W        W61637  36.687  31.505   0.954
89378W        W61638  40.543  35.587   2.866
89379W        W61639  30.715  25.540   1.252
89380W        W61640  42.867  37.032   1.763
89381W        W61641   2.008   9.384  12.903
89382W        W61642  14.193  30.039  12.465
89383W        W61643  30.409  29.386   0.079
89384W        W61644  36.573  37.322  10.997
89385W        W61645  28.500   1.449  14.850
89386W        W61646   9.841  26.011  14.128
89387W        W61647   9.441  13.870  13.900
89388W        W61648   3.976  43.809  14.663
89389W        W61649   3.310  27.163  11.166
89390W        W61650  21.446  22.542  13.315
89391W        W61651  11.586   8.178   3.820
89392W        W61652  44.740  36.195  10.780
89393W        W61653  38.365  17.587  10.665
89394W        W61654  27.010  19.552   3.403
89395W        W61655   7.990  19.629  10.633
89396W        W61656  24.234  15.049   4.783
89397W        W61657  43.911  38.024   3.199
89398W        W61658  40.925  42.291  11.991
89399W        W61659  24.088  41.969  12.410
89400W        W61660   4.388  23.643  12.725
89401W        W61661   1.201  29.605  10.761
89402W        W61662  25.385   3.259   1.145
89403W        W61663  41.651  44.771   3.363
89404W        W61664   3.038  11.791  13.637
89405W        W61665  21.218  13.923   3.241
89406W        W61666   6.824  23.570   0.957
89407W        W61667   7.708  43.586   1.267
89408W        W61668   9.370  19.922   1.285
89409W        W61669  15.085  12.850   1.143
89410W        W61670  28.531  37.291   1.664
89411W        W61671  29.184  12.330  11.622
89412W        W61672   6.402  23.963   3.168
89413W        W61673  10.716  16.061  14.436
89414W        W61674  24.065  31.622   0.786
89415W        W61675  36.073  36.908  13.470
89416W        W61676  11.303  31.618  13.268
89417W        W61677  42.812  24.495  12.174
89418W        W61678  10.232  27.064   1.984
89419W        W61679   6.900  10.411  10.636
89420W        W61680   3.226   7.083   1.839
89421W        W61681  39.716  38.437   0.496
89422W        W61682   2.063  42.256   0.868
89423W        W61683  30.383   2.160  12.000
89424W        W61684  12.152  41.341  13.037
89425W        W61685  28.098   2.890  13.169
89426W        W61686  18.111  42.887   5.132
89427W        W61687  34.711  39.763  14.566
89428W        W61688  36.266  27.153  12.449
89429W        W61689  25.596   7.192   0.264
89430W        W61690  32.650  14.138   2.655
89431W        W61691  15.282  17.312   0.916
89432W        W61692   5.283  14.196  12.627
89433W        W61693  13.233  25.130  11.720
89434W        W61694  10.962  34.062  12.009
89435W        W61695  30.627  40.383  13.483
89436W        W61696  18.549  16.121   4.058
89437W        W61697  25.237  13.585   1.762
89438W        W61698   3.313  28.159  12.377
89439W        W61699  38.804  11.085  14.361
89440W        W61700  10.718   8.358   2.324
89441W        W61701   1.191  44.069  14.190
89442W        W61702  24.637  15.106   3.156
89443W        W61703  39.860  32.881   2.863
89444W        W61704  35.051  14.647   1.165
89445W        W61705  10.785  33.893   0.854
89446W        W61706   1.143  38.290   0.806
89447W        W61707  29.540  26.163  13.723
89448W        W61708  18.834  43.072   3.948
89449W        W61709  27.393  17.709  11.622
89450W        W61710   1.943   2.050   2.365
89451W        W61711   5.294  16.882   0.991
89452W        W61712  14.267  26.142   3.367
89453W        W61713  32.541  29.449   1.397
89454W        W61714  35.115  22.487  12.361
89455W        W61715  31.349  13.090   4.465
89456W        W61716  31.566  23.412   4.592
89457W        W61717  22.192  18.236  14.999
89458W        W61718  10.147  43.794   3.922
89459W        W61719   4.719  21.454  11.599
89460W        W61720  34.060   6.620  12.705
89461W        W61721  43.894  20.738  10.732
89462W        W61722  37.126  40.088  11.547
89463W        W61723  22.312  25.523   0.769
89464W        W61724   8.158   1.265  13.432
89465W        W61725  23.155   1.647  13.426
89466W        W61726  10.316  19.146  14.484
89467W        W61727  17.949  41.019  13.513
89468W        W61728  37.328  13.068   5.058
89469W        W61729  10.333  13.143  14.530
89470W        W61730  39.066  15.113   0.495
89471W        W61731  28.620   3.892  11.050
89472W        W61732  36.017  44.393  11.450
89473W        W61733  34.389  31.419   2.292
89474W        W61734  27.764  28.355  14.762
89475W        W61735  16.535  21.815  11.630
89476W        W61736  15.684  13.743   3.173
89477W        W61737  24.951  19.666  12.852
89478W        W61738  18.739  38.869  10.749
89479W        W61739  18.073  21.268  10.325
89480W        W61740   6.177  19.250  13.875
89481W        W61741  15.576  27.242  10.583
89482W        W61742  20.763   9.394   1.259
89483W        W61743  22.943  42.084  10.904
89484W        W61744  39.467  24.973   1.106
89485W        W61745  22.264   1.433   1.816
89486W        W61746  31.739  13.945   3.429
89487W        W61747  25.522   1.955   1.750
89488W        W61748   6.774  21.226   3.088
89489W        W61749  39.071  35.587  12.856
89490W        W61750  33.948  14.981   4.504
89491W        W61751   2.030   0.942   2.309
89492W        W61752  19.782   1.985   4.969
89493W        W61753  17.082  34.397   1.937
89494W        W61754  29.952  20.798   3.748
89495W        W61755  16.607   3.517  13.479
89496W        W61756  43.628   2.566   2.191
89497W        W61757  44.278  34.885  12.913
89498W        W61758  37.407  31.232   2.261
89499W        W61759  24.621  37.258  12.530
89500W        W61760   0.226  15.777  10.481
89501W        W61761  24.462  31.926   1.886
89502W        W61762   1.939  42.002  13.578
89503W        W61763  21.298  32.672   0.767
89504W        W61764   7.758  27.124   9.931
89505W        W61765  10.450  39.513   1.873
89506W        W61766  30.454  38.815   3.619
89507W        W61767   8.282  18.089   3.831
89508W        W61768  23.545  24.744   2.630
89509W        W61769   7.435  42.721   4.913
89510W        W61770  21.005  31.633  12.863
89511W        W61771  11.836  28.093  14.234
89512W        W61772  10.927  31.877  10.762
89513W        W61773  38.015   3.760  13.488
89514W        W61774   0.593  11.528   2.773
89515W        W61775  40.481  40.368   4.109
89516W        W61776  18.205  10.995   3.123
89517W        W61777   4.019  37.389  13.823
89518W        W61778   9.857  29.679  10.664
89519W        W61779  42.326  22.886  10.681
89520W        W61780  42.208   7.426   2.970
89521W        W61781  23.501  26.920  11.520
89522W        W61782  27.482   5.774   1.385
89523W        W61783   4.233   5.803   1.652
89524W        W61784  28.617  35.947   0.508
89525W        W61785  35.440   7.316   2.434
89526W        W61786  37.271  13.687  12.491
89527W        W61787  39.436  31.277  12.325
89528W        W61788  39.627  14.796   0.909
89529W        W61789   7.324  12.613  12.897
89530W        W61790  24.032  11.161   2.242
89531W        W61791  27.533   0.812   0.804
89532W        W61792  37.623  42.830   4.130
89533W        W61793  18.773  14.268  13.081
89534W        W61794  20.581  29.631   4.318
89535W        W61795  34.808  42.984   2.525
89536W        W61796  11.121   7.791   2.232
89537W        W61797  12.049   8.430   3.696
89538W        W61798   9.338   3.949   1.394
89539W        W61799  42.733  10.331  11.681
89540W        W61800  34.023   0.882   2.204
89541W        W61801  27.750  24.364  13.477
89542W        W61802  13.914   2.362   1.931
89543W        W61803  21.454  17.721   3.180
89544W        W61804  40.443   4.740   5.144
89545W        W61805  39.822  10.695  12.470
89546W        W61806  22.690  12.316  12.095
89547W        W61807  22.802  16.675   1.420
89548W        W61808  43.722  29.306   1.588
89549W        W61809  32.351  30.679  12.585
89550W        W61810  34.996  31.407   0.561
89551W        W61811  23.766  21.731  11.502
89552W        W61812  11.756  38.748  11.160
89553W        W61813  12.876  39.778   0.106
89554W        W61814   6.115  21.535  11.565
89555W        W61815  19.561  11.634   4.537
89556W        W61816  11.115  20.648  12.936
89557W        W61817   1.451  27.048   2.279
89558W        W61818  20.575  37.772   4.166
89559W        W61819  31.983  32.592  11.337
89560W        W61820   9.824   4.751  13.418
89561W        W61821  27.152   4.172  14.086
89562W        W61822   9.774  40.439   4.578
89563W        W61823   7.172  20.305   1.848
89564W        W61824  11.269   3.649   1.342
89565W        W61825  14.354  17.736   0.930
89566W        W61826   9.903   9.331   4.108
89567W        W61827  12.079  27.901  10.655
89568W        W61828  20.770  36.464   0.241
89569W        W61829  12.619  29.907  10.145
89570W        W61830   8.367  14.399   2.348
89571W        W61831  14.194  30.563   3.580
89572W        W61832  36.889   6.864   1.322
89573W        W61833  40.542  39.880   1.168
89574W        W61834   1.069  15.840  12.696
89575W        W61835  18.382  36.922  12.731
89576W        W61836  34.117   0.779   0.441
89577W        W61837  28.719  38.521   0.415
89578W        W61838  29.823  14.819  11.775
89579W        W61839  22.102  34.839   2.283
89580W        W61840  31.591  17.323  11.262
89581W        W61841  22.319  39.368  14.255
89582W        W61842  10.996  11.575   2.785
89583W        W61843   6.533  21.728   1.516
89584W        W61844  29.524  11.818   0.948
89585W        W61845  20.194  10.498  12.278
89586W        W61846  43.308  24.351  13.910
89587W        W61847  14.982  38.507   0.321
89588W        W61848  16.242  44.450   4.419
89589W        W61849  27.971  32.983  14.897
89590W        W61850  36.803   7.208  11.721
89591W        W61851  26.090  22.881  13.405
89592W        W61852  17.181  26.176   4.495
89593W        W61853   6.473  26.069  14.216
89594W        W61854  43.574  16.678   4.577
89595W        W61855  14.121   0.791  13.824
89596W        W61856  30.648  33.637  14.504
89597W        W61857  15.095  33.271  13.543
89598W        W61858   4.789   9.660   4.377
89599W        W61859  39.768  38.854   1.285
89600W        W61860  15.250   8.346  12.555
89601W        W61861   9.595  32.002  14.513
89602W        W61862  40.591   4.365   2.403
89603W        W61863  31.911  37.556   2.623
89604W        W61864   0.226  39.272   0.925
89605W        W61865  33.617  41.009   1.309
89606W        W61866  22.180  18.995   3.728
89607W        W61867   9.375   0.683   1.773
89608W        W61868  38.240   7.857  13.837
89609W        W61869   0.834  43.912  14.556
89610W        W61870  14.777  21.798   4.055
89611W        W61871  16.153  29.487   3.685
89612W        W61872  19.523   1.135   0.870
89613W        W61873  14.752  25.252   3.777
89614W        W61874  28.247   8.173   1.752
89615W        W61875  33.840  29.564   4.593
89616W        W61876  18.678  12.310   0.650
89617W        W61877  10.589  10.622  10.778
89618W        W61878  22.675   7.231   2.076
89619W        W61879   8.179   4.706  10.661
89620W        W61880  15.733  35.004   2.212
89621W        W61881  17.393  37.127   4.098
89622W        W61882  36.699  39.329  12.507
89623W        W61883   3.724  21.667   2.866
89624W        W61884  27.539  40.366   2.786
89625W        W61885  20.112   5.494  14.863
89626W        W61886  18.462  41.128  13.510
89627W        W61887   0.735  29.630  13.951
89628W        W61888  39.086  41.593   2.259
89629W        W61889  17.243  28.987  11.115
89630W        W61890  26.170  22.320   3.807
89631W        W61891   0.806  42.396  14.219
89632W        W61892  32.468  20.076  11.512
89633W        W61893   6.721   9.000  12.527
89634W        W61894  17.597   3.665   1.099
89635W        W61895  25.726  43.906   2.177
89636W        W61896  35.578   7.501   4.158
89637W        W61897   0.846  25.900  10.682
89638W        W61898  41.982  15.292   1.031
89639W        W61899  19.213   9.554  12.886
89640W        W61900   7.221  12.656  14.317
89641W        W61901  18.595  42.055   0.275
89642W        W61902  28.208  39.141  11.597
89643W        W61903   6.373   1.845  14.125
89644W        W61904  19.096  15.522  13.913
89645W        W61905   5.664  34.869   1.508
89646W        W61906  41.112  11.773  11.438
89647W        W61907  37.854  21.243   4.546
89648W        W61908  41.828   6.824   4.071
89649W        W61909  18.071   3.651   0.876
89650W        W61910  14.154  31.328  14.653
89651W        W61911  21.985  42.917  13.417
89652W        W61912  19.210  18.765  11.286
89653W        W61913   9.359  33.971   4.386
89654W        W61914   9.866   7.473   0.745
89655W        W61915  11.895   7.841  11.583
89656W        W61916  10.942  26.266  14.860
89657W        W61917  24.940   4.997  11.107
89658W        W61918  28.352  27.287   3.685
89659W        W61919  24.445  41.333  12.006
89660W        W61920  15.356  13.629  11.568
89661W        W61921  32.946  13.769  10.626
89662W        W61922  35.523  44.007   2.882
89663W        W61923   3.487  41.000  11.178
89664W        W61924   6.202  12.566  12.522
89665W        W61925  17.271  23.308   1.903
89666W        W61926  26.724  33.583  12.886
89667W        W61927  26.039  42.672   3.368
89668W        W61928  30.989   2.039  11.136
89669W        W61929  40.726  22.738   0.478
89670W        W61930   7.628  15.254   4.067
89671W        W61931   9.340   8.603  11.543
89672W        W61932  24.050   7.420  14.105
89673W        W61933   2.665  11.638   4.222
89674W        W61934   3.456  41.429   1.784
89675W        W61935  17.894   7.137   4.816
89676W        W61936   0.027  27.946   4.060
89677W        W61937  33.082  37.515   3.379
89678W        W61938   0.500  24.144   2.282
89679W        W61939  24.428  26.144   0.222
89680W        W61940  25.094  27.694   4.129
89681W        W61941  35.477  27.699   4.071
89682W        W61942  28.529  12.317   4.613
89683W        W61943  22.492  20.026  12.812
89684W        W61944  21.530   8.388   3.664
89685W        W61945  13.416   3.771  14.729
89686W        W61946  25.501  28.160  12.487
89687W        W61947  19.734  34.166   2.786
89688W        W61948  23.840   4.856   3.768
89689W        W61949  13.867  32.543   1.291
89690W        W61950   3.924   4.424   0.101
89691W        W61951   2.695  26.405  14.476
89692W        W61952  16.784  33.070   1.766
89693W        W61953  27.667   1.903   0.827
89694W        W61954  43.979   2.946   0.785
89695W        W61955  32.335   3.155  12.086
89696W        W61956   7.718   5.332   0.973
89697W        W61957  42.402  33.184   0.927
89698W        W61958  39.743  21.194   4.894
89699W        W61959  13.584  11.561   2.271
89700W        W61960  42.379  12.612  14.413
89701W        W61961  17.821   0.323  14.474
89702W        W61962   8.706  10.799   2.604
89703W        W61963   1.953  34.111   3.228
89704W        W61964   9.856  22.751   2.794
89705W        W61965  41.795  15.572   2.349
89706W        W61966  28.130  43.291   3.261
89707W        W61967  10.109  37.163   2.280
89708W        W61968   0.803  12.800   3.558
89709W        W61969   4.024  20.555  11.146
89710W        W61970  44.538  17.244   3.732
89711W        W61971   2.438  21.641  11.949
89712W        W61972   5.910  31.093  12.667
89713W        W61973  40.717  21.222   3.598
89714W        W61974  30.488   7.435  13.465
89715W        W61975  15.602  12.116   2.670
89716W        W61976  20.958  10.738   0.116
89717W        W61977  21.815  18.650  13.811
89718W        W61978  38.863  30.478   3.291
89719W        W61979  42.853  15.771   4.689
89720W        W61980   1.748  19.177   1.205
89721W        W61981  30.742  30.137  11.957
89722W        W61982   0.765   7.396   3.663
89723W        W61983  18.456  44.563   0.639
89724W        W61984   8.247  15.762   2.718
89725W        W61985  38.528   2.479   3.114
89726W        W61986  14.315  34.619   4.526
89727W        W61987  41.945   7.766   3.917
89728W        W61988  23.713  21.027  11.060
89729W        W61989   4.191  39.051  11.625
89730W        W61990  38.308  35.154  10.549
89731W        W61991  19.016   5.657  12.630
89732W        W61992  35.758  27.454  12.016
89733W        W61993   7.691  40.344   1.340
89734W        W61994  10.814  16.848  13.370
89735W        W61995   5.459  37.973  12.104
89736W        W61996  35.394  24.956   4.771
89737W        W61997  29.254  22.250   1.870
89738W        W61998  41.180  36.184  12.120
89739W        W61999  11.603  39.727  13.332
89740W        W62000  29.917   9.911   3.403
89741W        W62001  33.613   1.852   5.096
89742W        W62002  34.535  40.028   4.171
89743W        W62003  22.010  40.491   4.413
89744W        W62004  29.391  40.966  11.170
89745W        W62005  12.391  25.529   4.709
89746W        W62006  14.626   1.382  14.346
89747W        W62007  29.102  13.172   0.589
89748W        W62008  41.383  19.698   0.749
89749W        W62009  43.747  15.879   2.925
89750W        W62010   1.968   5.364   3.305
89751W        W62011  39.685   1.412   2.069
89752W        W62012  10.396  37.716   2.884
89753W        W62013   8.448   9.925   2.210
89754W        W62014  18.324   5.162   2.314
89755W        W62015  42.926  35.309   4.626
89756W        W62016  42.454  37.059  12.626
89757W        W62017   6.845  18.144  12.401
89758W        W62018  36.380  29.411  11.151
89759W        W62019   2.993  10.883  13.474
89760W        W62020  23.036  21.598  10.172
89761W        W62021  13.514  28.038   0.859
89762W        W62022  23.583  21.698   1.495
89763W        W62023   3.460   8.969   0.213
89764W        W62024  43.438   5.939   1.200
89765W        W62025  31.071   1.676  14.850
89766W        W62026  28.099  12.258   3.186
89767W        W62027  33.858   8.298  12.993
89768W        W62028   8.443  40.317  13.868
89769W        W62029  31.616   1.998   0.125
89770W        W62030  39.734  21.143  11.860
89771W        W62031  43.428   3.468   2.327
89772W        W62032  36.465  17.025   3.866
89773W        W62033  40.043  38.334   4.651
89774W        W62034   2.255  29.956  14.046
89775W        W62035  37.545  32.041  11.500
89776W        W62036  23.013  36.096   2.426
89777W        W62037  41.819   8.796  12.037
89778W        W62038  43.606  13.202   0.190
89779W        W62039  44.377  26.619   2.655
89780W        W62040  43.146   1.521   2.427
89781W        W62041  39.527   4.406   2.131
89782W        W62042  16.068  35.188  14.149
89783W        W62043   0.821  10.813   4.918
89784W        W62044  33.262  37.474   4.576
89785W        W62045   0.293  35.867  12.906
89786W        W62046   8.162  27.341   1.226
89787W        W62047  16.850   2.888   3.879
89788W        W62048  22.807  29.026   9.742
89789W        W62049  25.943  34.401   2.312
89790W        W62050  17.288  19.275   3.730
89791W        W62051  36.352  39.060   0.810
89792W        W62052  41.213  44.218   3.745
89793W        W62053  24.041  21.202  10.161
89794W        W62054  11.749  31.138  10.644
89795W        W62055  43.438  34.211   0.024
89796W        W62056  38.646  22.786  11.962
89797W        W62057  34.082  26.759   1.298
89798W        W62058  24.118  24.530   5.059
89799W        W62059  10.840  36.033   1.126
89800W        W62060  20.212  23.979   1.844
89801W        W62061  43.036  29.325  14.819
89802W        W62062  40.548  40.532   3.204
89803W        W62063   5.742  11.724   2.024
89804W        W62064  19.639   7.114  11.858
89805W        W62065  41.101  17.565  10.722
89806W        W62066  37.019  20.609   9.832
89807W        W62067   2.000  18.603   2.852
89808W        W62068  41.563  44.650   4.989
89809W        W62069  12.589  37.762  11.460
89810W        W62070  34.055  33.561   0.441
89811W        W62071   7.494  33.994   4.487
89812W        W62072  43.339  20.984   4.871
89813W        W62073  15.089  19.232   3.316
89814W        W62074  29.936  21.062  13.001
89815W        W62075  16.104   7.191  14.014
89816W        W62076   8.073  31.057   0.439
89817W        W62077   7.505  44.849  12.842
89818W        W62078  44.366  33.069   2.711
89819W        W62079  41.623  12.348  10.697
89820W        W62080  22.819  42.559   4.399
89821W        W62081  30.786  26.505   2.040
89822W        W62082  10.357  14.536  14.015
89823W        W62083  33.751  31.140   4.770
89824W        W62084  28.050  39.245  10.980
89825W        W62085  23.105  20.150   1.257
89826W        W62086   5.681  38.771  12.586
89827W        W62087  14.773   7.117  10.523
89828W        W62088   4.408  21.959  10.721
89829W        W62089  11.183  29.052  14.808
89830W        W62090  25.994  11.589  13.335
89831W        W62091  17.792  28.714   4.351
89832W        W62092  30.443  44.862   3.660
89833W        W62093  35.302  34.431  13.002
89834W        W62094  12.914   3.523  11.079
89835W        W62095  14.355  30.451  14.417
89836W        W62096  31.635  14.975  11.468
89837W        W62097  17.698  42.560   0.293
89838W        W62098  44.587   4.243   0.220
89839W        W62099  26.110  21.190   1.045
89840W        W62100  35.137   8.196   1.771
89841W        W62101  42.819  41.582   9.854
89842W        W62102  14.077  33.929   0.795
89843W        W62103  13.480  35.060  11.852
89844W        W62104  12.980   9.802  13.254
89845W        W62105  29.738  26.144  14.265
89846W        W62106   6.697  33.047   2.255
89847W        W62107  35.981  10.630   3.069
89848W        W62108  24.585  32.851  13.720
89849W        W62109  34.737   6.297  11.615
89850W        W62110  23.059   3.977  12.959
89851W        W62111   2.219  10.721  12.057
89852W        W62112   8.000  11.925  11.148
89853W        W62113  32.340   4.290  10.985
89854W        W62114   7.814  17.501  13.507
89855W        W62115   0.319  29.882  13.774
89856W        W62116  11.041  33.310   2.946
89857W        W62117  25.713   2.036   2.647
89858W        W62118   6.160  20.542  12.556
89859W        W62119  36.818  30.013   2.267
89860W        W62120  12.798  44.279   2.089
89861W        W62121  20.811  11.592  13.258
89862W        W62122  23.745  35.060   0.019
89863W        W62123  32.277  12.612  11.050
89864W        W62124  15.641  43.263   3.998
89865W        W62125  16.787  44.075  14.922
89866W        W62126   4.718   0.462   0.263
89867W        W62127  36.576  12.780  13.023
89868W        W62128  11.208  30.456  12.490
89869W        W62129   0.287   0.940   1.060
89870W        W62130  42.487  13.473  11.851
89871W        W62131  11.361  26.705   3.781
89872W        W62132   0.688  23.216  11.599
89873W        W62133  14.378  15.335  13.402
89874W        W62134  22.692  25.236   1.440
89875W        W62135  36.543   4.948  10.516
89876W        W62136  27.154  41.564   3.775
89877W        W62137  36.722  38.818   1.172
89878W        W62138  34.873  28.471   3.376
89879W        W62139  22.493  41.546  12.129
89880W        W62140  32.188  26.956  12.468
89881W        W62141  15.250  25.238  12.455
89882W        W62142  30.230  20.183  13.046
89883W        W62143  36.036  18.895   5.051
89884W        W62144   8.244   5.137   3.031
89885W        W62145   1.321  21.669   3.174
89886W        W62146  26.633  42.187  10.008
89887W        W62147   5.320   5.565   2.655
89888W        W62148  42.481  44.471  14.454
89889W        W62149  14.067  39.868  13.304
89890W        W62150  20.278  24.997  13.987
89891W        W62151  44.372  17.163  12.290
89892W        W62152  14.748  41.504   0.407
89893W        W62153   9.564  15.245   0.041
89894W        W62154   5.892  20.114  11.431
89895W        W62155  13.438  25.506   4.784
89896W        W62156  44.508  15.004   2.461
89897W        W62157  42.888  12.306   2.403
89898W        W62158   5.904  36.805   4.557
89899W        W62159  24.649  40.487  13.361
89900W        W62160  43.255  10.361  12.208
89901W        W62161   9.788  12.182   2.644
89902W        W62162  34.047   7.722   4.110
89903W        W62163  25.575  28.649  10.788
89904W        W62164  31.866  17.787  14.345
89905W        W62165  29.113   9.150  11.252
89906W        W62166  26.180   0.843  12.540
89907W        W62167   1.506   6.125  11.625
89908W        W62168  25.979  37.616   3.203
89909W        W62169  36.419  13.840   4.922
89910W        W62170   7.437   4.399  13.364
89911W        W62171   5.131   4.025   3.132
89912W        W62172  21.813   7.145   4.653
89913W        W62173  40.955  20.308  12.593
89914W        W62174   8.378  25.770   4.320
89915W        W62175   9.936  43.348  14.963
89916W        W62176   9.836  44.892  14.757
89917W        W62177  36.881  40.579   3.217
89918W        W62178  26.562   2.029   1.673
89919W        W62179  29.496  22.216  11.588
89920W        W62180  13.394  24.305   3.928
89921W        W62181  20.575  21.114   0.475
89922W        W62182  39.290  32.449   1.762
89923W        W62183  37.628  35.292  12.909
89924W        W62184  24.166  14.447   2.598
89925W        W62185  40.969  42.089   2.545
89926W        W62186   7.450   1.285   4.878
89927W        W62187  41.063  18.758  11.527
89928W        W62188   4.940  18.380  10.826
89929W        W62189  23.541  20.109  12.329
89930W        W62190  25.087   4.422  11.516
89931W        W62191  34.376  34.459   4.047
89932W        W62192   8.837  25.875  13.448
89933W        W62193  29.577  41.905   2.392
89934W        W62194  37.021  32.523  12.033
89935W        W62195  16.079  14.146   2.295
89936W        W62196   9.441   9.099   1.470
89937W        W62197  30.108  22.546   0.438
89938W        W62198  31.266  29.600  10.988
89939W        W62199  26.535  33.611  13.796
89940W        W62200  14.154  11.290   0.978
89941W        W62201  19.413   9.513  11.196
89942W        W62202  26.002  44.737   4.250
89943W        W62203  39.992  22.653   2.171
89944W        W62204  10.659  41.008   1.898
89945W        W62205  10.838  43.273   3.623
89946W        W62206  17.224  37.694  13.911
89947W        W62207   8.411  20.664   1.484
89948W        W62208  41.772  20.558   0.723
89949W        W62209   9.905   4.258   1.195
89950W        W62210  31.119  15.427   3.613
89951W        W62211  19.552   3.823  11.732
89952W        W62212  26.654  20.944  11.529
89953W        W62213  21.243  38.707  12.736
89954W        W62214  38.487  17.098  14.583
89955W        W62215  12.631  20.835   1.069
89956W        W62216   0.402  34.956   4.429
89957W        W62217   6.712  35.900  11.422
89958W        W62218  13.107  33.654   2.338
89959W        W62219   5.548  24.102   3.170
89960W        W62220  13.145  26.082   0.988
89961W        W62221   5.279   5.768  12.940
89962W        W62222  29.045   7.390  14.014
89963W        W62223   0.218  25.455   2.233
89964W        W62224   8.717  32.503   5.164
89965W        W62225  38.758  27.588  13.031
89966W        W62226  21.313   4.762   4.097
89967W        W62227  17.318  33.251  11.675
89968W        W62228  43.911  12.763  12.999
89969W        W62229  39.793  28.490   1.621
89970W        W62230  38.553   5.244  10.693
89971W        W62231  41.767  13.560  14.836
89972W        W62232  10.705  23.697  10.679
89973W        W62233  44.005  32.973   4.826
89974W        W62234  17.117   9.355  11.695
89975W        W62235  14.148  26.593   3.573
89976W        W62236   4.310  13.111  11.560
89977W        W62237  40.243   2.944  14.713
89978W        W62238  18.530  21.522  13.007
89979W        W62239  21.212  29.704  12.128
89980W        W62240  11.684   9.026  10.696
89981W        W62241  17.243  21.602  14.903
89982W        W62242  21.469  13.518  11.925
89983W        W62243  34.932   5.569  12.070
89984W        W62244  33.460  34.637  12.861
89985W        W62245  14.929  28.901  14.031
89986W        W62246   2.880  28.332  11.597
89987W        W62247  27.248  20.121   4.041
89988W        W62248  26.373  41.331  12.943
89989W        W62249  19.617  42.266   1.413
89990W        W62250   0.157   1.375   3.098
89991W        W62251   0.838  35.177   3.130
89992W        W62252  24.177  36.061  14.217
89993W        W62253  21.239  18.580   2.302
89994W        W62254  26.945  27.491  14.959
89995W        W62255  32.260  29.772  11.159
89996W        W62256   6.478  43.866  11.571
89997W        W62257   2.073   7.269  11.289
89998W        W62258   2.300  23.466   0.430
89999W        W62259  28.909  34.090   2.910
90000W        W62260  43.320   4.944  13.570
90001W        W62261  39.205   1.701  12.986
90002W        W62262   8.779  25.985  12.476
90003W        W62263  27.501   8.527  12.476
90004W        W62264  35.520  38.792  11.025
90005W        W62265  22.218  20.125  10.681
90006W        W62266  36.521  32.320   3.758
90007W        W62267  16.752   3.189   2.409
90008W        W62268  27.052   0.964  13.099
90009W        W62269  34.725  44.973  12.313
90010W        W62270   1.423  11.461   1.676
90011W        W62271  29.842  15.522   3.213
90012W        W62272  35.304  36.585   3.542
90013W        W62273  36.987  26.955  14.451
90014W        W62274  14.374   7.649  11.064
90015W        W62275  30.164  33.997  11.215
90016W        W62276   7.814  35.479  13.528
90017W        W62277  11.577  21.981  11.553
90018W        W62278  20.307  30.778   1.194
90019W        W62279  20.740   3.123   1.648
90020W        W62280   1.308   6.185   4.761
90021W        W62281  30.175  26.691  14.073
90022W        W62282   9.735  32.829   2.681
90023W        W62283  36.484  23.119  12.172
90024W        W62284  43.044   7.124  12.869
90025W        W62285   1.859  22.320   4.667
90026W        W62286  13.653  15.302   1.226
90027W        W62287  27.574  15.911  11.011
90028W        W62288   0.937  13.258  12.353
90029W        W62289  27.638  38.298   1.792
90030W        W62290   2.252  16.367   0.949
90031W        W62291  16.007  13.776   0.392
90032W        W62292  23.116   1.223  11.857
90033W        W62293  27.878  19.569   0.414
90034W        W62294  13.751   3.887  14.109
90035W        W62295   6.186  44.723   0.052
90036W        W62296  22.917  10.759  12.620
90037W        W62297  33.717   7.673  14.096
90038W        W62298  38.671  36.028   1.993
90039W        W62299  34.589  25.930   3.818
90040W        W62300  29.674  39.634  12.414
90041W        W62301  41.420   1.235  13.444
90042W        W62302   5.721  18.376   3.661
90043W        W62303   5.107  11.090   2.659
90044W        W62304  21.785  20.124  14.676
90045W        W62305  23.215  28.244   1.895
90046W        W62306  39.778  11.614  14.717
90047W        W62307  41.049  28.536  14.697
90048W        W62308   7.779  10.541  12.818
90049W        W62309   4.443  43.054  11.936
90050W        W62310   1.390  14.611  11.218
90051W        W62311  42.494  27.640  12.547
90052W        W62312  27.983  26.844  12.234
90053W        W62313  42.904   3.594   3.571
90054W        W62314  42.205  28.081   3.874
90055W        W62315  20.791  32.019   2.650
90056W        W62316  22.001  40.517   3.890
90057W        W62317  24.247  39.828  13.104
90058W        W62318  35.802  19.799  12.714
90059W        W62319  12.266  42.389   4.535
90060W        W62320   4.241   0.355  10.937
90061W        W62321  31.735  39.087  13.657
90062W        W62322  24.232   1.776  13.173
90063W        W62323  30.056  16.836  13.342
90064W        W62324  28.469  22.084  14.447
90065W        W62325  14.190  32.852   2.844
90066W        W62326  43.229   4.110   4.141
90067W        W62327  38.981  33.257  10.443
90068W        W62328  31.623  22.028  13.695
90069W        W62329   5.684  18.950   4.526
90070W        W62330  12.721  42.827  13.074
90071W        W62331   9.708  14.712   2.296
90072W        W62332   5.156  16.811   4.057
90073W        W62333   5.691  13.700  12.085
90074W        W62334  10.272   1.026   2.472
90075W        W62335  15.336  28.037  10.679
90076W        W62336  39.973  23.730   4.637
90077W        W62337  41.323   3.334   0.402
90078W        W62338   1.619   7.933   3.593
90079W        W62339   2.824   2.656  13.381
90080W        W62340  31.082  39.256  11.517
90081W        W62341  19.996  19.363   9.989
90082W        W62342  35.267   7.394  14.419
90083W        W62343  10.862  13.984   4.170
90084W        W62344   9.587  42.370   2.782
90085W        W62345  36.316   7.344   4.819
90086W        W62346  21.509  43.286   3.607
90087W        W62347  37.454  41.504  10.964
90088W        W62348   4.668  39.999  11.176
90089W        W62349  38.450  24.810  13.771
90090W        W62350  29.567   8.277  11.582
90091W        W62351   8.093  25.777  14.475
90092W        W62352   8.178  18.497   2.233
90093W        W62353  12.565  43.513   2.735
90094W        W62354   4.992  31.871  13.508
90095W        W62355  42.384  38.533   2.958
90096W        W62356  14.872  39.568  14.310
90097W        W62357   5.984  16.180   1.373
90098W        W62358  37.344  13.261  13.430
90099W        W62359  13.092  39.994  14.702
90100W        W62360  22.245  31.061  11.438
90101W        W62361   6.677  37.503   4.846
90102W        W62362  34.362  17.176   2.788
90103W        W62363  27.456  24.731  11.953
90104W        W62364   4.265  19.335  11.545
90105W        W62365  28.015  13.045  11.510
90106W        W62366   3.246   7.256   2.742
90107W        W62367  44.758  20.828  12.014
90108W        W62368  33.809  12.068   0.186
90109W        W62369   8.110  41.759   1.159
90110W        W62370  41.966  26.217  11.436
90111W        W62371  37.379  32.991  11.574
90112W        W62372  31.378  19.616   4.693
90113W        W62373  30.108  21.128   0.544
90114W        W62374  38.089   4.391   1.468
90115W        W62375  14.871  13.298  13.916
90116W        W62376  34.871  26.658  11.959
90117W        W62377  43.787  40.430  12.456
90118W        W62378  12.690  21.255   1.369
90119W        W62379  27.650  22.495  11.048
90120W        W62380   8.385  15.703   4.586
90121W        W62381   3.579  12.165  11.973
90122W        W62382  32.995  22.379   3.778
90123W        W62383  40.570   5.720   4.560
90124W        W62384  29.499  34.634  13.557
90125W        W62385   2.216  24.774  14.863
90126W        W62386  31.159  34.080   1.805
90127W        W62387  33.638  22.490   0.415
90128W        W62388  26.926  16.765  12.782
90129W        W62389  28.157  20.466   1.202
90130W        W62390  42.858  22.954  12.901
90131W        W62391  29.920  30.642   1.696
90132W        W62392  13.733  17.727  14.732
90133W        W62393  14.653  26.657  14.876
90134W        W62394  19.623  34.489   3.226
90135W        W62395  28.816  15.822   4.744
90136W        W62396  33.826   3.090  10.213
90137W        W62397   4.257   3.665  14.862
90138W        W62398   9.538  33.911   1.352
90139W        W62399  39.924  32.707  14.608
90140W        W62400  25.990  15.871   2.221
90141W        W62401  13.330  35.781  11.464
90142W        W62402  24.266  31.872   4.117
90143W        W62403  18.639  32.643   0.415
90144W        W62404  38.928  33.476  14.663
90145W        W62405  25.937  31.708  13.055
90146W        W62406  41.667  41.948  13.431
90147W        W62407  29.061  32.429  13.330
90148W        W62408   5.424  40.008   3.239
90149W        W62409  37.616  15.428  10.582
90150W        W62410  43.051  38.424   4.546
90151W        W62411  41.449  41.874  12.944
90152W        W62412  15.063  12.083   3.327
90153W        W62413  15.648  36.035   0.228
90154W        W62414  39.078  36.455  14.440
90155W        W62415  34.331  17.093  12.744
90156W        W62416  24.092  39.826   4.668
90157W        W62417  43.759  36.119  10.424
90158W        W62418  28.592  32.498   4.613
90159W        W62419   0.248   3.850  11.646
90160W        W62420  10.253   6.286  12.870
90161W        W62421   9.714   6.419  11.640
90162W        W62422  33.405  12.377   0.393
90163W        W62423  27.851  27.893  10.773
90164W        W62424  25.540  43.489  13.375
90165W        W62425  28.561  38.488   1.870
90166W        W62426  44.282  25.658  10.718
90167W        W62427   7.344  39.586  13.393
90168W        W62428  11.677  19.555   2.790
90169W        W62429  44.651  24.175   0.714
90170W        W62430   4.820  37.644   3.283
90171W        W62431  26.208   7.795   4.415
90172W        W62432  24.456  32.445  11.964
90173W        W62433  32.956  37.816  13.849
90174W        W62434  33.696  21.099  10.551
90175W        W62435  38.383  39.093  10.367
90176W        W62436  43.036   5.935  10.350
90177W        W62437  12.097  35.951   2.120
90178W        W62438  27.373   4.624  13.402
90179W        W62439  35.538  22.297  12.956
90180W        W62440   7.454  37.687  13.258
90181W        W62441  29.017  18.655   2.710
90182W        W62442   3.913  29.896  13.760
90183W        W62443  22.928   6.394  11.129
90184W        W62444  25.503   8.203  11.594
90185W        W62445   6.796  21.610  13.191
90186W        W62446  35.027  40.956   1.841
90187W        W62447  11.707   3.721   0.033
90188W        W62448   4.087  28.172  13.539
90189W        W62449  14.383  20.938  13.426
90190W        W62450  42.701  33.438   3.614
90191W        W62451  36.512  39.019   2.337
90192W        W62452  32.284  39.494  12.955
90193W        W62453  12.644  37.077  13.433
90194W        W62454   4.021  17.823  11.565
90195W        W62455   9.841  10.075  11.987
90196W        W62456  42.955  24.181   3.293
90197W        W62457  41.279  31.624   0.765
90198W        W62458  10.159  30.186   0.350
90199W        W62459   9.486  26.548  11.733
90200W        W62460   4.964   1.312   4.650
90201W        W62461   4.264  19.671   4.555
90202W        W62462  36.598  35.123   0.060
90203W        W62463  11.852  43.532  12.483
90204W        W62464  13.360  23.129  14.791
90205W        W62465  31.906  29.485   0.193
90206W        W62466  11.277  39.096   0.600
90207W        W62467  25.161  14.335   2.198
90208W        W62468   6.985   4.948   2.284
90209W        W62469  16.753  41.088  13.063
90210W        W62470  15.879   0.209  12.255
90211W        W62471  29.930  24.418  11.637
90212W        W62472  40.517  37.290   1.484
90213W        W62473   4.407  18.746  12.543
90214W        W62474   8.208  40.535   3.324
90215W        W62475  38.942  35.712  10.287
90216W        W62476  38.355  17.882  13.781
90217W        W62477  36.663   9.522   3.572
90218W        W62478  11.425  38.467  13.955
90219W        W62479  30.222  12.377  13.017
90220W        W62480  41.897  42.618   1.294
90221W        W62481   7.915  13.181  10.686
90222W        W62482  17.066  22.627  14.261
90223W        W62483  20.061  29.966   3.850
90224W        W62484  17.357  41.459   0.236
90225W        W62485  37.046   5.111  10.672
90226W        W62486  25.128  25.099  13.519
90227W        W62487  36.376  33.313   0.665
90228W        W62488  21.504  43.409  12.634
90229W        W62489   5.380  12.921   1.910
90230W        W62490  28.250  10.702  10.617
90231W        W62491  43.310   2.181   4.011
90232W        W62492   8.046  44.634   1.747
90233W        W62493  28.607  15.145  14.371
90234W        W62494   2.558   6.838  11.453
90235W        W62495  24.965  29.127  13.457
90236W        W62496  23.659  41.363   4.917
90237W        W62497   4.144  26.598   1.773
90238W        W62498  30.148  37.034   2.788
90239W        W62499  35.802  28.194   4.172
90240W        W62500  22.132  11.070   3.133
90241W        W62501  30.003  42.826  10.306
90242W        W62502  33.113  31.382   0.758
90243W        W62503  17.766   6.868  14.908
90244W        W62504  20.450  29.767   0.454
90245W        W62505  22.538  18.323   2.156
90246W        W62506  33.571  17.102  14.977
90247W        W62507  42.388  21.129  10.645
90248W        W62508  17.205  35.293   4.338
90249W        W62509   7.829  40.927   4.481
90250W        W62510   8.395   3.420  14.418
90251W        W62511  30.673  41.623   2.420
90252W        W62512  35.890  21.464   4.009
90253W        W62513   1.730  43.003   0.370
90254W        W62514  40.575  30.538   0.836
90255W        W62515  34.490   7.247  11.210
90256W        W62516  27.094   8.962  10.907
90257W        W62517  33.903  30.889  11.059
90258W        W62518  12.827  43.295   5.022
90259W        W62519  21.230   6.390  10.286
90260W        W62520  43.962   6.715   0.809
90261W        W62521  40.170  18.048  13.635
90262W        W62522   2.846   4.415  13.200
90263W        W62523  12.111  11.268   0.503
90264W        W62524  32.956  34.102  11.268
90265W        W62525  24.148   9.393  14.566
90266W        W62526  44.424  43.997  12.901
90267W        W62527   5.820  40.742  12.153
90268W        W62528  22.619  17.395  13.643
90269W        W62529  44.570  44.070  10.073
90270W        W62530  42.377  44.847  11.241
90271W        W62531  19.986   3.582  10.918
90272W        W62532  10.908  16.681   0.190
90273W        W62533  43.719  31.500  11.973
90274W        W62534  21.008  35.151  14.608
90275W        W62535   0.945  36.534   3.374
90276W        W62536  30.347  34.586  14.047
90277W        W62537  38.969  27.752  11.542
90278W        W62538  35.562  25.034   0.035
90279W        W62539  17.815  19.651  14.877
90280W        W62540  26.107  32.474   3.243
90281W        W62541  16.756   6.924  11.104
90282W        W62542  19.595  44.653  11.831
90283W        W62543  29.467   6.104   1.843
90284W        W62544  26.535  35.937   1.279
90285W        W62545  20.392  35.269   3.833
90286W        W62546  13.306  39.008  10.702
90287W        W62547   6.491   9.850  13.931
90288W        W62548  10.715  42.215   2.390
90289W        W62549  44.950  39.009  11.642
90290W        W62550   8.879  41.408   4.266
90291W        W62551  14.756  13.575   2.160
90292W        W62552  27.006   6.159  10.444
90293W        W62553  33.882  30.287   4.574
90294W        W62554  43.959   9.412   2.968
90295W        W62555  26.128   6.342   1.414
90296W        W62556  37.501  29.369   2.809
90297W        W62557  39.894  36.950   3.053
90298W        W62558  19.130  43.260  13.437
90299W        W62559   3.660   1.256   1.169
90300W        W62560  19.009  13.592   3.707
90301W        W62561   1.383  19.442   3.694
90302W        W62562  32.440  23.629  10.190
90303W        W62563  28.554  30.397  11.519
90304W        W62564   9.128   0.937   4.119
90305W        W62565   7.219  39.674   4.846
90306W        W62566  20.123  36.967   0.562
90307W        W62567  10.881  27.219  12.212
90308W        W62568  14.080   7.361   0.332
90309W        W62569  42.544  15.688   4.275
90310W        W62570  43.300  36.063   2.703
90311W        W62571  30.124  24.273  13.565
90312W        W62572  22.874  43.114  11.583
90313W        W62573  27.631   1.453  14.464
90314W        W62574  15.024  17.086  14.542
90315W        W62575   4.605  22.427  14.834
90316W        W62576  34.583  11.891   3.379
90317W        W62577  34.535  41.357   0.426
90318W        W62578   8.326  12.771  12.018
90319W        W62579  40.891  15.125   4.321
90320W        W62580  10.354  41.192   1.183
90321W        W62581  18.673  33.046   1.365
90322W        W62582  31.407   2.102  14.654
90323W        W62583  26.027  25.509   4.808
90324W        W62584  30.556  27.059   4.291
90325W        W62585   6.743  35.868   2.192
90326W        W62586  26.108  26.776   1.257
90327W        W62587  40.736  37.946   1.675
90328W        W62588   8.620  41.860   4.168
90329W        W62589  22.326  25.270   1.861
90330W        W62590   2.830   6.355  12.152
90331W        W62591  20.714  25.290   3.216
90332W        W62592  40.567  17.816  13.377
90333W        W62593   8.300  41.716  11.733
90334W        W62594  44.434  30.147   1.896
90335W        W62595  31.672  25.763   2.617
90336W        W62596  16.782  30.114   2.262
90337W        W62597  44.464  42.246   3.420
90338W        W62598  41.592  10.696  11.336
90339W        W62599  20.821  17.635  12.072
90340W        W62600  39.403  25.998   3.666
90341W        W62601   4.176   7.576   4.810
90342W        W62602  17.226   6.753  14.288
90343W        W62603  37.977   6.033   4.709
90344W        W62604  28.053  29.592   4.611
90345W        W62605   0.349  23.043   1.891
90346W        W62606   5.585  43.725   0.306
90347W        W62607  26.228  40.622  13.243
90348W        W62608  41.287  11.650  13.283
90349W        W62609  39.519  10.357  11.491
90350W        W62610  36.799  34.363   3.656
90351W        W62611  20.144  18.079   2.910
90352W        W62612  23.984  42.467   1.805
90353W        W62613  12.372   7.857  13.803
90354W        W62614  25.509  14.111  10.074
90355W        W62615  23.925  40.475   5.323
90356W        W62616   5.430  35.182   0.662
90357W        W62617  27.687   0.536  10.525
90358W        W62618  20.561  19.924  13.978
90359W        W62619  27.008  17.926  11.084
90360W        W62620   0.842  26.393   1.295
90361W        W62621  15.258   0.457  14.733
90362W        W62622  29.006  34.057  11.888
90363W        W62623  44.469  15.278   4.631
90364W        W62624   6.127  29.922  10.320
90365W        W62625  16.360  35.560  13.935
90366W        W62626  14.141  38.388  12.624
90367W        W62627  44.824  10.029  13.872
90368W        W62628  17.204  31.250   3.841
90369W        W62629  30.296  34.051   1.970
90370W        W62630  31.930  36.123   0.432
90371W        W62631  43.542  28.821  11.515
90372W        W62632  23.529  41.842  13.077
90373W        W62633  30.682  43.695   2.784
90374W        W62634   9.250   5.453   2.249
90375W        W62635  42.767  28.376   4.512
90376W        W62636  22.251   1.841   0.421
90377W        W62637  44.974  10.134  13.391
90378W        W62638  44.377  23.659   0.505
90379W        W62639  42.120  22.775  11.154
90380W        W62640  20.799  32.110   1.236
90381W        W62641   8.319  12.587  14.883
90382W        W62642  38.292  25.353  10.804
90383W        W62643  34.214  29.579   2.078
90384W        W62644  36.417  14.554  14.093
90385W        W62645  17.723  33.639  13.543
90386W        W62646  15.152  25.028  14.443
90387W        W62647  17.632   7.091  14.456
90388W        W62648   2.478  33.758  13.422
90389W        W62649  37.978  35.553  10.588
90390W        W62650  15.820  28.516   3.062
90391W        W62651  20.964   3.814   0.926
90392W        W62652  41.311  42.937   1.648
90393W        W62653   9.203  34.581   2.037
90394W        W62654  38.791  20.192   0.714
90395W        W62655  29.704  10.288  14.343
90396W        W62656  30.535   5.677  10.708
90397W        W62657  38.237  11.958  12.004
90398W        W62658   5.528  33.004  11.884
90399W        W62659  14.535   1.709  13.962
90400W        W62660  37.237  41.322   3.074
90401W        W62661   2.386  30.857   1.853
90402W        W62662   2.232   1.173   1.470
90403W        W62663  36.828  38.355   2.780
90404W        W62664  16.023  38.315  12.455
90405W        W62665   0.729  32.048  12.687
90406W        W62666  13.285   5.740   2.792
90407W        W62667  20.052  19.501   2.175
90408W        W62668  36.189  38.560   0.881
90409W        W62669  27.140  10.109  14.452
90410W        W62670   6.191  36.787  13.866
90411W        W62671  42.954  27.905   2.015
90412W        W62672  39.542  10.912   4.627
90413W        W62673   8.728  36.418  12.075
90414W        W62674   8.441   7.885   4.496
90415W        W62675  11.297  38.768  10.871
90416W        W62676  22.442  20.252   2.605
90417W        W62677  41.425  16.673   4.928
90418W        W62678   1.316  23.891   1.441
90419W        W62679  23.690  30.328   2.181
90420W        W62680  27.047  28.026   3.781
90421W        W62681  29.966  18.220  14.539
90422W        W62682  41.451   3.946  11.660
90423W        W62683  30.101  31.985   4.221
90424W        W62684  34.433  27.620   1.292
90425W        W62685   8.867  23.444   4.674
90426W        W62686  12.827  26.118  11.570
90427W        W62687  35.537  12.883  14.729
90428W        W62688  35.151  29.104  14.434
90429W        W62689  23.954  22.215  12.028
90430W        W62690  20.224  22.696   3.598
90431W        W62691   9.701  15.894  12.580
90432W        W62692  26.958  16.552  10.942
90433W        W62693  30.012  32.887   4.775
90434W        W62694   7.770  14.183  10.699
90435W        W62695  24.687  15.234   2.325
90436W        W62696  25.688  39.084   3.771
90437W        W62697   2.522  25.675   0.280
90438W        W62698  31.351  12.838   3.085
90439W        W62699   8.870  20.669   4.371
90440W        W62700  24.648  14.921   4.461
90441W        W62701  12.571  27.521   4.433
90442W        W62702  24.122  35.985   1.481
90443W        W62703  35.685  16.011   3.212
90444W        W62704  32.533  33.589   2.681
90445W        W62705  16.738   4.490   4.541
90446W        W62706  14.042  16.376  11.688
90447W        W62707   9.417  17.218  12.632
90448W        W62708  26.460  15.496   3.099
90449W        W62709  34.601  18.066  14.332
90450W        W62710   9.371  36.396  12.914
90451W        W62711  38.424  20.000   4.480
90452W        W62712  27.634  20.253   4.375
90453W        W62713  38.330  38.923   0.494
90454W        W62714   2.280  17.921  10.191
90455W        W62715  44.945  44.395   0.173
90456W        W62716   4.987   6.725  14.401
90457W        W62717  10.664  29.620   2.654
90458W        W62718  44.255  38.630   1.735
90459W        W62719  16.523  12.655  14.022
90460W        W62720   4.915  26.009   4.742
90461W        W62721  30.984  10.384   1.698
90462W        W62722  33.036   3.438   1.945
90463W        W62723  42.004  13.279  13.020
90464W        W62724   0.263  38.096   4.192
90465W        W62725  15.589  37.350   1.024
90466W        W62726  28.931  20.854   2.163
90467W        W62727   9.270  10.729  10.586
90468W        W62728  27.021  36.357   2.692
90469W        W62729  44.521  16.623  11.649
90470W        W62730   4.459   5.735   3.669
90471W        W62731  21.474  29.451   0.386
90472W        W62732  19.271  35.979   2.467
90473W        W62733   4.215   5.234  14.730
90474W        W62734  43.690  42.965   3.700
90475W        W62735  26.632  26.898   4.136
90476W        W62736  43.449  40.610  14.683
90477W        W62737   6.688  29.809   5.037
90478W        W62738  24.607  22.757   3.241
90479W        W62739  31.689   9.414  13.415
90480W        W62740  21.460  12.611  12.205
90481W        W62741  42.262   2.760   3.743
90482W        W62742  20.424   7.025  13.403
90483W        W62743  18.807  36.950  13.634
90484W        W62744  17.731  22.977  11.969
90485W        W62745  13.703  25.409   3.888
90486W        W62746  10.572  31.489   3.557
90487W        W62747  31.884   5.753   4.940
90488W        W62748  27.179  13.291  13.342
90489W        W62749   1.531   2.870   4.239
90490W        W62750  27.794  10.195   1.188
90491W        W62751  39.998  36.782   4.530
90492W        W62752  30.416  18.538  11.496
90493W        W62753  14.316   3.843  12.359
90494W        W62754  27.102  40.851  13.434
90495W        W62755  37.627   7.343   0.890
90496W        W62756  17.507  17.226  11.953
90497W        W62757  39.655  17.873  13.588
90498W        W62758  42.003   4.448  12.372
90499W        W62759   3.269   4.341   1.856
90500W        W62760   4.982  16.161   1.428
90501W        W62761  26.749   5.850  14.407
90502W        W62762  34.015  12.945   4.847
90503W        W62763  37.461  20.631   2.007
90504W        W62764  37.303   0.892   4.510
90505W        W62765  29.018  30.637   3.792
90506W        W62766  42.708   9.228   2.276
90507W        W62767  42.376   0.513  14.730
90508W        W62768   5.359  40.946   0.403
90509W        W62769  33.139  40.457  14.265
90510W        W62770  37.395  22.249  10.179
90511W        W62771   9.808  42.832  12.827
90512W        W62772  41.828   3.274   0.404
90513W        W62773  10.270   5.363   2.789
90514W        W62774  23.725  44.759   1.335
90515W        W62775   7.727   4.804   9.918
90516W        W62776  18.378   8.882   2.213
90517W        W62777  13.788   6.125  12.012
90518W        W62778  37.388  36.700  12.499
90519W        W62779   4.396   7.908  14.437
90520W        W62780   9.801  22.418  12.625
90521W        W62781   0.397  27.203   0.486
90522W        W62782  23.291  22.462   4.416
90523W        W62783  31.093  14.650   1.324
90524W        W62784  12.097  21.090  11.452
90525W        W62785   4.796  38.579   4.036
90526W        W62786  22.476   7.663   1.147
90527W        W62787  19.005  43.764  11.018
90528W        W62788  36.391  16.682   0.710
90529W        W62789  42.613  20.543   4.532
90530W        W62790   6.158  23.293   1.658
90531W        W62791  30.915  34.422  13.387
90532W        W62792  10.376  24.468   0.774
90533W        W62793  39.390  10.976   2.243
90534W        W62794   4.751  11.383   1.344
90535W        W62795  15.170  29.157  12.368
90536W        W62796  16.918  31.372  10.531
90537W        W62797  13.740  12.508  12.941
90538W        W62798  12.614  17.789   4.186
90539W        W62799  38.555   4.348  14.279
90540W        W62800  34.928   4.783   0.809
90541W        W62801  18.106  19.371  12.605
90542W        W62802  12.582  39.457   0.981
90543W        W62803   8.855  29.897   3.650
90544W        W62804   2.475  39.485  14.458
90545W        W62805  42.603  27.793   0.772
90546W        W62806  18.623  44.489   4.983
90547W        W62807  31.468   6.682   4.791
90548W        W62808  16.791   6.426  14.276
90549W        W62809  32.293   6.402   0.763
90550W        W62810  38.883  34.985   1.370
90551W        W62811  40.723  29.631  11.873
90552W        W62812  28.502  22.634  13.015
90553W        W62813   3.721  40.910   4.855
90554W        W62814   7.598  43.311  10.956
90555W        W62815  14.377  44.382  11.843
90556W        W62816   9.956   6.718   1.297
90557W        W62817  23.432  43.029  14.318
90558W        W62818  18.950  35.847   1.553
90559W        W62819  37.773  38.295  13.834
90560W        W62820  41.355  44.254  11.656
90561W        W62821  38.492   7.754  10.053
90562W        W62822   7.652  44.638  14.075
90563W        W62823   6.480  33.299  13.933
90564W        W62824  10.639  44.477  12.407
90565W        W62825  34.519  39.717  12.498
90566W        W62826  28.886  37.110  13.999
90567W        W62827  24.125  37.425  11.554
90568W        W62828  36.853  25.322  13.901
90569W        W62829  40.279  13.719   1.920
90570W        W62830  20.610   5.789   3.327
90571W        W62831  10.193   6.495  11.488
90572W        W62832  37.253   6.789   2.820
90573W        W62833  44.916  35.086   2.394
90574W        W62834   2.251  17.023   3.629
90575W        W62835  16.566  30.822  11.942
90576W        W62836  29.361  26.067   3.686
90577W        W62837  21.702   9.224   4.224
90578W        W62838  10.126  38.587  11.396
90579W        W62839  43.417  40.919   0.561
90580W        W62840  22.568  32.629   1.413
90581W        W62841  35.900  23.022   2.188
90582W        W62842   2.868   9.787   3.275
90583W        W62843  10.746  15.911   4.597
90584W        W62844  39.091  18.084  10.663
90585W        W62845  35.342  24.259   4.078
90586W        W62846  44.279   2.502  11.942
90587W        W62847  30.986  10.169  14.860
90588W        W62848  33.705  30.578   2.516
90589W        W62849   8.491  32.341  14.961
90590W        W62850  18.974  20.949  11.197
90591W        W62851   0.458  30.889  14.069
90592W        W62852   4.237  21.194  10.004
90593W        W62853  14.095  39.352   4.817
90594W        W62854  43.180  28.968  11.862
90595W        W62855   2.358   9.123   4.006
90596W        W62856   3.421   2.743  12.811
90597W        W62857   9.362  26.494  13.091
90598W        W62858  23.731   1.285   1.747
90599W        W62859  13.819   2.834  13.939
90600W        W62860   1.433  39.803  12.493
90601W        W62861  42.510  20.256  14.953
90602W        W62862   0.971  19.234   2.191
90603W        W62863  34.226   8.755  10.595
90604W        W62864  37.183  14.379   2.824
90605W        W62865   8.654  39.626  13.071
90606W        W62866  32.632  29.580  14.896
90607W        W62867  37.604   6.295   0.548
90608W        W62868  17.182  19.788  12.432
90609W        W62869  28.528   6.683  12.002
90610W        W62870  35.903  21.474  12.499
90611W        W62871   3.749  13.271   1.640
90612W        W62872   8.737   5.250   1.876
90613W        W62873  11.861   7.859   0.597
90614W        W62874  26.660   7.893  14.450
90615W        W62875   3.766   6.489   2.756
90616W        W62876  37.838  25.541   2.954
90617W        W62877  39.118   9.361   3.097
90618W        W62878  40.931  23.116   2.842
90619W        W62879   7.761   4.378   1.299
90620W        W62880   1.812  32.615   1.513
90621W        W62881  28.646   6.224   4.578
90622W        W62882  29.036  36.629  13.754
90623W        W62883  30.511  11.647  11.405
90624W        W62884  28.388  27.245  12.120
90625W        W62885  25.172  34.502  11.468
90626W        W62886  43.947  41.781  11.600
90627W        W62887  28.742   5.931  14.242
90628W        W62888  35.390  26.755  13.541
90629W        W62889  18.235   1.560  11.914
90630W        W62890  33.360  13.233  13.470
90631W        W62891  42.052   7.740  13.024
90632W        W62892  19.208   5.810   5.015
90633W        W62893   4.919  43.247  14.975
90634W        W62894  36.892   2.868  13.486
90635W        W62895  26.121  16.908  12.358
90636W        W62896  34.189  22.622  13.051
90637W        W62897  20.678   5.691  13.073
90638W        W62898  19.040  41.396  11.256
90639W        W62899  33.966  29.438  14.100
90640W        W62900   0.344  21.756  13.537
90641W        W62901  18.816  16.257  12.143
90642W        W62902  15.329   5.360  14.955
90643W        W62903  35.747  32.129   4.612
90644W        W62904  25.506  17.634  14.716
90645W        W62905   7.536  21.934  12.865
90646W        W62906   8.932  38.049   2.798
90647W        W62907  30.679   9.374   2.906
90648W        W62908  41.517   4.872  14.122
90649W        W62909  34.900  27.948  10.806
90650W        W62910  34.230  44.350   0.571
90651W        W62911   6.392  10.423  11.558
90652W        W62912   4.813  21.721   3.198
90653W        W62913  22.916  19.077  11.063
90654W        W62914  35.610   4.478   3.594
90655W        W62915   3.347  25.470  10.763
90656W        W62916  18.675  11.251   2.859
90657W        W62917  43.259  34.818   1.436
90658W        W62918  44.261  33.049  12.676
90659W        W62919  16.474   8.627   2.737
90660W        W62920  32.017  24.466   2.232
90661W        W62921  43.478  30.585   1.736
90662W        W62922  27.065   4.279  10.635
90663W        W62923  14.180  15.649   0.350
90664W        W62924  17.009  11.739   3.604
90665W        W62925  19.575  33.127   1.888
90666W        W62926  28.495  25.232   4.345
90667W        W62927  41.211  21.394  11.665
90668W        W62928  15.583  10.099   0.546
90669W        W62929   1.825   1.017  13.028
90670W        W62930  40.287  22.196  12.810
90671W        W62931  21.228  30.835   4.038
90672W        W62932   6.634  28.961   3.731
90673W        W62933  24.133   1.562  14.862
90674W        W62934  22.579  28.465  11.381
90675W        W62935  42.049  36.453  13.822
90676W        W62936  23.942  13.761  14.408
90677W        W62937  14.850  29.436   5.027
90678W        W62938  10.264  13.806  11.760
90679W        W62939  26.447  31.132   2.729
90680W        W62940  13.691  40.335   0.820
90681W        W62941  37.869  13.279  13.352
90682W        W62942  33.381   0.002  13.828
90683W        W62943  27.994  30.387   3.335
90684W        W62944  23.164  33.437  13.977
90685W        W62945  37.618  30.604  14.106
90686W        W62946  31.848   5.131   2.580
90687W        W62947  33.708  44.054   5.075
90688W        W62948   6.144  27.909  12.405
90689W        W62949  40.633   7.929   0.548
90690W        W62950   3.729  23.169   4.532
90691W        W62951  14.134  34.386  13.330
90692W        W62952  44.278  15.768   2.270
90693W        W62953  42.800  26.993  14.346
90694W        W62954  44.015  42.385  13.239
90695W        W62955  13.676  24.957  12.938
90696W        W62956  36.001  23.817  12.091
90697W        W62957   2.442  40.174  13.943
90698W        W62958  10.206   0.668   0.232
90699W        W62959  42.026  27.195  10.956
90700W        W62960  34.464  11.507   3.040
90701W        W62961  24.285  33.564   2.132
90702W        W62962   1.055  25.751  11.122
90703W        W62963  24.711  34.739  12.545
90704W        W62964  18.558  35.287  13.084
90705W        W62965  44.741   3.354  10.458
90706W        W62966  27.940  36.290   3.759
90707W        W62967  44.933  33.455  13.582
90708W        W62968  37.067  25.234   2.571
90709W        W62969  29.653  42.061   0.882
90710W        W62970  42.959  21.116  14.576
90711W        W62971  14.079  18.181   3.148
90712W        W62972   4.262  36.817   2.340
90713W        W62973  41.970   7.155   2.561
90714W        W62974  20.792  33.987  11.556
90715W        W62975  43.348  44.091  14.861
90716W        W62976  14.294   2.906   2.816
90717W        W62977   5.129   2.769   0.180
90718W        W62978  12.306  35.588   2.410
90719W        W62979  22.088  19.611  10.728
90720W        W62980   1.424  23.630   0.989
90721W        W62981   2.497   0.819   1.135
90722W        W62982  20.928  17.530   3.319
90723W        W62983   9.149  16.523  12.418
90724W        W62984  29.911  27.090   1.178
90725W        W62985  36.903  19.333   4.988
90726W        W62986  37.442  20.017  11.524
90727W        W62987  24.701  39.234  13.504
90728W        W62988  32.659  34.876   4.021
90729W        W62989   8.054  26.029   1.890
90730W        W62990  10.654  17.278   3.418
90731W        W62991   8.952  42.430  13.325
90732W        W62992  43.356   4.395   3.467
90733W        W62993  17.180  32.174  13.043
90734W        W62994  17.369  42.877  14.447
90735W        W62995   0.231  25.109   2.640
90736W        W62996  27.917  28.461   4.745
90737W        W62997  22.572   1.881  11.259
90738W        W62998  10.798  24.709  14.114
90739W        W62999   4.996  28.086  13.299
90740W        W63000   1.360   1.450  10.957
90741W        W63001  16.226  14.259  13.068
90742W        W63002   6.590   3.789  14.474
90743W        W63003  34.015  21.327   2.162
90744W        W63004   2.663  29.575  14.819
90745W        W63005   4.450  33.715   3.326
90746W        W63006  25.441   8.870  10.931
90747W        W63007  17.203  39.310  11.240
90748W        W63008  25.144  43.842   0.414
90749W        W63009  31.135  10.390  12.014
90750W        W63010  18.801  33.022  13.357
90751W        W63011   3.387  17.384  14.047
90752W        W63012  18.808  41.799  11.579
90753W        W63013  38.656  15.867  13.843
90754W        W63014  24.039  18.672  10.767
90755W        W63015  18.172  21.319   4.091
90756W        W63016   7.216   6.512   4.968
90757W        W63017  22.010  42.415   4.617
90758W        W63018  10.072  23.475   0.767
90759W        W63019  42.553  33.621   2.747
90760W        W63020   8.685  32.734   0.800
90761W        W63021  15.467   7.315   2.857
90762W        W63022   9.720  14.108   0.380
90763W        W63023  32.877  21.716  13.445
90764W        W63024  41.068  38.413   4.084
90765W        W63025   8.625  42.952   4.301
90766W        W63026  26.605  18.289  11.105
90767W        W63027  27.019  18.953   2.837
90768W        W63028  22.047   4.452   2.761
90769W        W63029  26.823  26.684   4.573
90770W        W63030  10.836   5.400  10.916
90771W        W63031  22.104   3.977   1.868
90772W        W63032   7.636  15.341  10.786
90773W        W63033  43.286  26.123  12.933
90774W        W63034   7.255  35.266   3.370
90775W        W63035  22.913  29.810   2.338
90776W        W63036   7.563   0.230  10.801
90777W        W63037   9.802  26.567   2.643
90778W        W63038  41.931  12.757  13.028
90779W        W63039  20.108  17.608   1.238
90780W        W63040  18.741   8.739  13.254
90781W        W63041  18.963  13.771  12.443
90782W        W63042  11.054  28.250  13.984
90783W        W63043  20.030   1.018   0.919
90784W        W63044  34.885  26.732   3.069
90785W        W63045  13.576   6.785   3.876
90786W        W63046   5.276  27.680  14.165
90787W        W63047  31.631   5.545  12.440
90788W        W63048  36.991  42.325   4.628
90789W        W63049  38.900  40.800   2.776
90790W        W63050  11.379   9.525  11.221
90791W        W63051  24.144  22.183  11.547
90792W        W63052   7.647  34.339   0.276
90793W        W63053  40.283  21.200  13.120
90794W        W63054  34.913  32.136  12.468
90795W        W63055   4.027   0.380  13.412
90796W        W63056  27.654  44.416  13.305
90797W        W63057   9.504  40.477   0.419
90798W        W63058  22.244   8.291   4.940
90799W        W63059  41.896   5.256   3.642
90800W        W63060  40.819  41.534  14.289
90801W        W63061  31.477  39.520  13.498
90802W        W63062   2.801   6.618  10.714
90803W        W63063  41.528  41.920  11.159
90804W        W63064  23.660  33.586  14.746
90805W        W63065  44.251   2.418   9.891
90806W        W63066  13.800  13.856   4.894
90807W        W63067  30.863  31.582   4.853
90808W        W63068  43.834  20.917   2.356
90809W        W63069  26.124  37.069   1.291
90810W        W63070  19.744  15.205   3.160
90811W        W63071  23.198  42.683   4.086
90812W        W63072  32.856  19.352   3.201
90813W        W63073   9.104  17.969   3.344
90814W        W63074   5.900   6.122  11.978
90815W        W63075  18.025  38.935  11.089
90816W        W63076  10.410  34.948   3.119
90817W        W63077  32.100  14.734   5.177
90818W        W63078  44.892  12.554  13.853
90819W        W63079  14.755  10.942  13.891
90820W        W63080  11.819   0.902  12.600
90821W        W63081  30.783   2.159   3.658
90822W        W63082  40.268  20.252   1.790
90823W        W63083  26.783  24.386  11.167
90824W        W63084  43.785  43.381   2.451
90825W        W63085  24.527  14.277  12.334
90826W        W63086  26.735  32.023  14.698
90827W        W63087  16.057  36.826   0.254
90828W        W63088  14.387  22.076  10.113
90829W        W63089  32.413  29.195   0.949
90830W        W63090  20.306  13.669   3.347
90831W        W63091  10.894  20.532  12.127
90832W        W63092  18.041   1.264  11.540
90833W        W63093  38.545   2.658   1.743
90834W        W63094  40.551  42.386   4.047
90835W        W63095  17.734  11.125   0.881
90836W        W63096  35.385  43.861   0.259
90837W        W63097  41.545  17.383   3.704
90838W        W63098  43.082   8.837   1.238
90839W        W63099  31.088  28.682   3.771
90840W        W63100   5.316  14.856   0.288
90841W        W63101  42.856  32.454   0.370
90842W        W63102  42.986   3.254  11.593
90843W        W63103  40.019   3.787  13.013
90844W        W63104   8.865  34.534  10.652
90845W        W63105  40.791  30.598  13.517
90846W        W63106  39.834  31.675   0.735
90847W        W63107  14.585  31.840   4.526
90848W        W63108   6.473  14.056   2.210
90849W        W63109  21.527   3.997  11.978
90850W        W63110  38.027  16.328  13.383
90851W        W63111  13.133   4.652   0.903
90852W        W63112  42.200   9.183   0.293
90853W        W63113   5.734  17.442   4.819
90854W        W63114  31.475  11.065  12.997
90855W        W63115  17.080   1.709  14.974
90856W        W63116  30.973  26.053  12.128
90857W        W63117   4.411   3.784   1.452
90858W        W63118  40.989  36.387   2.742
90859W        W63119  32.440  32.359  11.374
90860W        W63120  34.936  40.469  10.665
90861W        W63121  12.014  29.393   5.391
90862W        W63122  28.495  14.182   4.366
90863W        W63123  36.604   8.924   4.713
90864W        W63124  38.180  21.251   3.698
90865W        W63125  39.239  30.615  13.052
90866W        W63126  29.202   2.708   0.920
90867W        W63127  37.536   9.909   5.490
90868W        W63128   0.866  14.122   0.880
90869W        W63129  18.922  42.266  13.105
90870W        W63130  38.386  22.466   1.214
90871W        W63131   3.908  17.215  11.963
90872W        W63132  28.422  11.606   0.060
90873W        W63133  37.812  32.133   3.680
90874W        W63134   3.854   2.364   4.499
90875W        W63135   9.788  20.311   4.769
90876W        W63136  11.085  24.218   2.255
90877W        W63137  16.840  29.385   1.685
90878W        W63138  36.122  28.445  13.449
90879W        W63139  19.138  17.142  14.435
90880W        W63140   8.242  16.546  10.784
90881W        W63141   2.770   7.354   0.378
90882W        W63142  23.742  22.617   4.590
90883W        W63143  27.152  14.783  14.989
90884W        W63144  36.144   9.114   4.554
90885W        W63145  17.686  24.237  11.167
90886W        W63146  43.066  24.412  14.364
90887W        W63147  25.726  10.724   0.741
90888W        W63148  32.598  14.118   3.164
90889W        W63149  15.297   3.883  14.841
90890W        W63150  38.022  24.655  11.882
90891W        W63151  24.521  14.048   4.157
90892W        W63152  15.248  36.108   1.614
90893W        W63153   9.801  13.600   3.625
90894W        W63154  17.866   7.371  14.843
90895W        W63155   2.208  32.969  12.453
90896W        W63156  35.197  19.673   2.430
90897W        W63157  43.906  33.738  12.318
90898W        W63158  22.152  29.147   3.927
90899W        W63159  21.805  17.181   1.855
90900W        W63160  10.679  17.121   1.885
90901W        W63161  35.517  13.207   1.655
90902W        W63162   0.264   4.412  13.796
90903W        W63163   2.689  16.621   2.451
90904W        W63164  31.559  24.069   2.526
90905W        W63165  11.476  32.622  11.488
90906W        W63166  11.048   3.418   0.383
90907W        W63167   4.378  39.676   0.323
90908W        W63168   1.849  24.254   1.520
90909W        W63169  43.270  28.502   1.355
90910W        W63170   2.366  18.710  11.541
90911W        W63171   9.901  11.668   0.928
90912W        W63172  31.679  24.180   0.547
90913W        W63173  42.360  29.954  13.032
90914W        W63174  30.443   4.662  10.647
90915W        W63175  39.537  18.104  14.892
90916W        W63176  18.743  44.970   0.443
90917W        W63177  39.248   0.054  13.105
90918W        W63178  37.301  23.649   3.660
90919W        W63179  39.923  17.670  12.606
90920W        W63180  43.188  33.712  11.346
90921W        W63181  44.089  11.528  12.962
90922W        W63182  32.003  13.188  14.729
90923W        W63183   8.524  20.034  13.400
90924W        W63184  36.575   6.154  11.187
90925W        W63185  21.102  12.297  10.650
90926W        W63186  11.860  37.161  12.424
90927W        W63187  32.009  23.770   0.560
90928W        W63188  32.725  16.905  11.619
90929W        W63189   9.473  42.733   4.178
90930W        W63190   9.700   4.704   2.307
90931W        W63191  15.107  32.007  12.296
90932W        W63192  13.120  43.716   3.196
90933W        W63193  40.960  22.911   4.101
90934W        W63194  28.389  26.000   0.275
90935W        W63195   8.537  40.284  12.533
90936W        W63196  26.188  18.613   3.723
90937W        W63197  39.563  12.660   0.966
90938W        W63198  39.977  27.601   4.072
90939W        W63199  27.605  41.180  10.134
90940W        W63200   8.903  21.272  12.685
90941W        W63201  19.860  27.035   4.544
90942W        W63202   4.167  20.816   3.655
90943W        W63203  31.277  31.750   5.118
90944W        W63204  35.597   5.384  12.071
90945W        W63205  14.260   0.116  14.365
90946W        W63206  39.091  44.501   4.194
90947W        W63207  36.902  10.576   0.406
90948W        W63208  36.157  34.894  12.898
90949W        W63209  39.321  37.413  13.339
90950W        W63210  27.048  27.652   1.238
90951W        W63211  39.031  33.524  13.263
90952W        W63212   9.032  11.284   4.655
90953W        W63213   3.634  30.569  12.336
90954W        W63214   6.420  21.265  12.869
90955W        W63215  42.440  34.848   4.519
90956W        W63216  23.822  32.354   4.494
90957W        W63217  17.263  33.415   2.807
90958W        W63218  14.597  30.997   4.188
90959W        W63219  25.677  19.084  13.385
90960W        W63220  18.562  19.195   3.875
90961W        W63221  43.270  40.313   1.928
90962W        W63222  43.798  36.168   2.533
90963W        W63223  23.236  22.601  12.854
90964W        W63224   4.313  10.775   3.693
90965W        W63225  11.897  14.696   3.820
90966W        W63226   2.221  15.178  14.782
90967W        W63227  10.167  30.411   1.105
90968W        W63228  41.070  26.598   1.649
90969W        W63229  24.105  23.885   1.712
90970W        W63230  39.380  21.075   3.563
90971W        W63231  38.866  26.506   0.101
90972W        W63232  40.129   0.624  11.397
90973W        W63233  30.027  15.588  11.478
90974W        W63234  27.986   5.172  10.572
90975W        W63235   6.782  43.654  11.147
90976W        W63236  25.421  26.826  14.370
90977W        W63237  23.109  28.156  14.941
90978W        W63238   4.222  24.611  12.465
90979W        W63239  32.253  37.130  13.027
90980W        W63240  20.363   1.365   0.710
90981W        W63241   2.876  12.124  13.274
90982W        W63242   9.512  26.879  12.193
90983W        W63243  35.573  11.374  13.885
90984W        W63244  32.467  39.945  11.133
90985W        W63245  32.039  17.524   3.809
90986W        W63246   8.762  18.557  12.558
90987W        W63247  34.318  33.832   1.002
90988W        W63248   0.971  18.786   1.936
90989W        W63249   0.395  20.125  14.361
90990W        W63250   2.287  20.223   1.638
90991W        W63251  30.194  10.453  14.241
90992W        W63252  14.343  39.426   4.370
90993W        W63253  18.761  20.615   1.712
90994W        W63254  11.047  36.661   3.645
90995W        W63255  43.787  13.279  12.899
90996W        W63256  38.048  27.055  12.197
90997W        W63257  19.143   4.306  12.858
90998W        W63258  33.668  44.159  12.906
90999W        W63259   5.400   7.807   1.562
91000W        W63260  38.870  24.295   1.529
91001W        W63261  14.385   5.199  14.542
91002W        W63262  35.983  34.510   0.042
91003W        W63263   3.442  30.821   0.877
91004W        W63264  30.095   3.805  12.571
91005W        W63265  16.825   6.040   3.150
91006W        W63266  25.280   8.291   0.489
91007W        W63267  31.708   4.328  14.776
91008W        W63268  23.155  34.182  14.988
91009W        W63269  19.690  44.133  11.674
91010W        W63270  32.120   8.933   4.537
91011W        W63271  14.849   2.950   3.769
91012W        W63272  25.506  37.303   3.271
91013W        W63273  25.996   9.418   0.507
91014W        W63274  10.604  31.306  11.163
91015W        W63275  26.051   1.881   3.201
91016W        W63276  40.218  29.130   1.113
91017W        W63277  16.383  43.980   1.782
91018W        W63278  23.489  42.941   1.555
91019W        W63279  33.543  35.511  12.124
91020W        W63280  14.789  12.594  13.022
91021W        W63281  11.255  34.518   0.386
91022W        W63282  15.300  43.013  11.149
91023W        W63283  13.467  16.889  10.404
91024W        W63284  44.914  39.899  13.795
91025W        W63285  11.869  18.137   3.247
91026W        W63286  40.289  12.290  12.860
91027W        W63287   3.955  18.994   4.243
91028W        W63288  36.509  44.550  14.479
91029W        W63289   5.408  11.664  12.002
91030W        W63290  24.176   0.986   4.765
91031W        W63291   5.177   0.245  13.073
91032W        W63292  31.908   8.295   1.874
91033W        W63293  13.702  26.652   1.684
91034W        W63294  34.956  16.505   0.121
91035W        W63295  37.559   5.346  14.235
91036W        W63296  25.042  20.781  12.120
91037W        W63297  31.640  12.730  11.991
91038W        W63298  30.934   5.748  12.965
91039W        W63299  37.105  26.558  12.572
91040W        W63300  36.298  22.865   1.906
91041W        W63301  14.494   5.890   3.297
91042W        W63302   5.710  41.088   1.699
91043W        W63303  37.305  11.591   3.614
91044W        W63304  28.503  44.951  13.320
91045W        W63305  16.211  11.227  14.765
91046W        W63306  31.487  13.299  14.879
91047W        W63307  30.520   9.624   2.317
91048W        W63308  43.023  22.958  11.081
91049W        W63309  19.855   0.554  11.050
91050W        W63310  16.666  12.876  12.031
91051W        W63311  35.748  31.129  11.990
91052W        W63312  37.066  36.725   2.632
91053W        W63313  42.301  17.238  10.724
91054W        W63314  24.831   3.968  12.421
91055W        W63315  16.178  41.815  14.341
91056W        W63316  33.570   8.666   2.655
91057W        W63317  16.263  35.481  12.643
91058W        W63318  21.941  36.924  12.575
91059W        W63319  18.261  27.585  13.206
91060W        W63320  42.304  22.326  10.656
91061W        W63321  33.061  24.600   4.260
91062W        W63322  22.287  21.070   0.995
91063W        W63323  14.413   3.010   0.088
91064W        W63324   0.837   5.737  12.118
91065W        W63325  40.438  22.798   3.630
91066W        W63326  36.450   3.395   3.110
91067W        W63327   6.538  44.572  13.767
91068W        W63328  42.419  29.195   0.433
91069W        W63329  28.064  30.444   9.798
91070W        W63330   3.820  30.730  14.896
91071W        W63331   5.889   6.758   1.707
91072W        W63332  35.835   2.717  12.975
91073W        W63333   0.508  19.444   2.242
91074W        W63334  42.334   4.769  13.535
91075W        W63335  29.928  34.067  12.712
91076W        W63336  40.881  15.304  11.714
91077W        W63337   8.362  39.041   3.251
91078W        W63338  28.446  43.925  11.233
91079W        W63339  41.973  16.156  13.491
91080W        W63340   5.879   5.463   2.026
91081W        W63341  34.584  22.645  10.658
91082W        W63342  31.150  18.275  12.791
91083W        W63343  44.323  44.547  14.150
91084W        W63344   7.583   3.239  11.344
91085W        W63345  36.641  18.019  12.890
91086W        W63346  44.680   2.480   4.257
91087W        W63347   3.701  43.755   3.165
91088W        W63348  36.813  18.850  14.839
91089W        W63349  41.019   5.708  14.588
91090W        W63350  31.537  26.114   4.897
91091W        W63351  32.620  27.421   0.972
91092W        W63352  39.847   3.674  13.507
91093W        W63353  12.754   3.057  12.579
91094W        W63354  19.140  37.060   0.404
91095W        W63355  16.209   4.367  10.612
91096W        W63356  31.998  22.135  13.094
91097W        W63357  16.705  18.555   2.638
91098W        W63358  11.784  32.306   1.482
91099W        W63359   6.294  41.933  12.161
91100W        W63360  18.169  23.804  14.398
91101W        W63361  32.896  41.260   1.739
91102W        W63362  19.634  15.656   1.361
91103W        W63363  19.761   3.343  13.568
91104W        W63364  36.515  25.386   3.207
91105W        W63365  14.762  19.537   2.184
91106W        W63366  29.261  11.019  13.585
91107W        W63367  43.586  20.509   0.419
91108W        W63368  32.840  18.136  14.855
91109W        W63369  10.798  13.186  12.702
91110W        W63370  19.731  44.857   4.729
91111W        W63371  23.319   3.749   2.940
91112W        W63372  34.449   5.354   2.366
91113W        W63373  24.923  13.413  14.018
91114W        W63374   2.285  36.884  10.760
91115W        W63375  32.654  31.324   0.386
91116W        W63376   0.143  44.187  11.416
91117W        W63377  17.364   8.892   0.216
91118W        W63378  37.494  22.163  13.931
91119W        W63379  18.425  13.425   2.396
91120W        W63380  23.603  39.940  10.312
91121W        W63381  34.082  21.057   2.576
91122W        W63382  17.829  42.825   0.714
91123W        W63383  38.961  12.082  13.524
91124W        W63384  21.229  35.507   4.080
91125W        W63385   9.461  34.995   4.511
91126W        W63386  15.552  27.662   1.368
91127W        W63387  32.348   1.323  12.525
91128W        W63388  41.253  19.729   5.234
91129W        W63389  12.291  16.147  11.058
91130W        W63390  24.895  18.685  11.206
91131W        W63391  16.315  41.595   2.869
91132W        W63392  27.906  13.638  14.329
91133W        W63393  34.979   6.080  12.022
91134W        W63394  41.865  23.116  10.885
91135W        W63395  25.612   5.773   0.956
91136W        W63396  36.503  21.220  11.920
91137W        W63397  44.508  41.371  11.064
91138W        W63398  13.177  12.669   1.709
91139W        W63399   1.836  22.780  11.161
91140W        W63400  29.913  17.309   0.278
91141W        W63401  21.473  14.035  11.949
91142W        W63402  20.574   1.267  14.713
91143W        W63403  14.726  35.988  10.261
91144W        W63404  44.723  29.491   0.248
91145W        W63405  37.873  24.540   2.706
91146W        W63406   6.176  39.504   1.839
91147W        W63407  33.619  13.702  13.020
91148W        W63408  19.711  44.844   3.140
91149W        W63409  12.199   6.957   3.652
91150W        W63410  39.850  14.218  10.753
91151W        W63411  29.551  16.397  10.795
91152W        W63412  36.594  30.366   5.143
91153W        W63413  10.331   1.410  10.905
91154W        W63414   0.841   1.834   4.018
91155W        W63415  22.827  16.510   4.228
91156W        W63416  41.838  40.103  12.168
91157W        W63417  10.253   6.749   0.691
91158W        W63418  29.623  43.412   2.426
91159W        W63419  28.254  33.189   0.320
91160W        W63420  14.329  23.186   3.241
91161W        W63421  14.849  41.857  11.978
91162W        W63422   5.791  18.383  11.830
91163W        W63423  22.387  22.847   2.301
91164W        W63424  30.766  42.539   1.223
91165W        W63425   5.693  25.208   3.224
91166W        W63426  10.898  10.940  11.635
91167W        W63427  10.866  15.219  12.196
91168W        W63428   5.471  24.984   3.649
91169W        W63429  28.857   4.963  12.083
91170W        W63430  20.233  23.503  14.787
91171W        W63431  11.867  17.191   2.801
91172W        W63432  37.633  19.014   2.803
91173W        W63433   3.146  37.068  11.525
91174W        W63434   3.136  42.754  14.484
91175W        W63435  36.954  42.052  13.352
91176W        W63436   4.675   3.988  14.963
91177W        W63437  29.739  22.209   0.161
91178W        W63438  17.368  26.116   0.872
91179W        W63439  42.121  21.232  12.498
91180W        W63440   5.222  11.980  12.370
91181W        W63441  15.610  29.176  10.354
91182W        W63442  16.784  18.101  13.091
91183W        W63443   6.802   8.350   3.493
91184W        W63444   2.815  21.667   0.444
91185W        W63445  37.081  37.538   2.303
91186W        W63446  37.767  10.416  10.529
91187W        W63447  15.687  17.850   1.195
91188W        W63448  37.335   4.395   3.572
91189W        W63449  10.713   4.813  11.217
91190W        W63450  33.610  43.863  13.406
91191W        W63451  34.591  11.363  13.898
91192W        W63452  37.285   6.342   4.587
91193W        W63453  35.331  23.852  13.606
91194W        W63454   5.436  44.008  13.374
91195W        W63455   4.488  15.347   0.437
91196W        W63456  23.453  43.444   1.752
91197W        W63457  31.852  16.791  12.023
91198W        W63458  40.298  36.065   4.554
91199W        W63459   3.931  25.476  12.390
91200W        W63460  34.746  32.545   2.195
91201W        W63461  40.062  29.815  11.203
91202W        W63462  17.386  44.871   4.764
91203W        W63463  10.615  38.937   3.670
91204W        W63464  18.176  15.565  11.001
91205W        W63465  14.508   9.796   0.921
91206W        W63466   7.207   7.186   1.796
91207W        W63467   5.855  37.311   1.265
91208W        W63468  31.081  35.977   0.317
91209W        W63469  23.941  23.974   1.230
91210W        W63470   2.864   9.703  14.753
91211W        W63471  12.666   8.898  14.508
91212W        W63472  38.244  11.348   4.301
91213W        W63473  29.731  22.933  13.007
91214W        W63474  11.219  24.188   1.736
91215W        W63475  33.059   6.512   1.505
91216W        W63476  28.361  32.646  10.008
91217W        W63477  11.389   7.802   0.369
91218W        W63478  37.294  39.495  12.817
91219W        W63479  22.701  38.892   3.678
91220W        W63480   1.978  28.591  12.030
91221W        W63481   8.177  22.687   4.890
91222W        W63482   5.372  43.894   1.962
91223W        W63483  27.156  38.983   1.404
91224W        W63484  42.588  17.669  10.864
91225W        W63485  23.757  21.112   3.155
91226W        W63486  16.562  16.720  14.995
91227W        W63487   8.752  29.684  12.578
91228W        W63488   7.877  16.815  11.670
91229W        W63489  24.226  38.919  10.608
91230W        W63490  24.020  13.584  12.350
91231W        W63491  11.149  34.425   1.960
91232W        W63492  44.216  11.838   3.258
91233W        W63493   9.144   8.386  13.768
91234W        W63494  19.764   6.287  14.960
91235W        W63495  11.397   9.443   3.049
91236W        W63496   2.940   1.065   2.404
91237W        W63497  35.473  44.011   4.751
91238W        W63498  27.720  30.202  10.712
91239W        W63499  28.469   3.829  13.743
91240W        W63500  12.819   6.789  13.369
91241W        W63501  23.696  34.634  10.781
91242W        W63502   6.867  41.614   3.141
91243W        W63503  21.961  35.895  10.687
91244W        W63504  42.256   0.485   1.330
91245W        W63505  34.514  23.418  14.961
91246W        W63506  24.090   0.296  10.717
91247W        W63507  41.018  13.226   1.863
91248W        W63508  30.921   0.430   0.769
91249W        W63509  35.052  35.374   0.516
91250W        W63510  27.745   3.040   2.684
91251W        W63511  43.209  40.210  13.215
91252W        W63512   2.305  43.946  12.433
91253W        W63513  31.003  39.482  12.777
91254W        W63514  24.486  43.851  11.403
91255W        W63515  19.320  21.116  14.367
91256W        W63516   0.399   9.748  12.221
91257W        W63517  12.185  38.659   1.226
91258W        W63518  38.929  37.988   3.043
91259W        W63519  13.295  20.003   3.989
91260W        W63520  31.750  29.368  12.746
91261W        W63521  26.277  26.474  11.157
91262W        W63522   3.499  29.163  12.373
91263W        W63523   5.438   1.381   0.793
91264W        W63524  22.149  26.234  11.493
91265W        W63525   1.256  42.871   3.677
91266W        W63526  14.180  27.426  14.814
91267W        W63527  27.741  13.209  12.848
91268W        W63528  23.624  39.080   3.725
91269W        W63529  44.544  11.899   4.172
91270W        W63530   1.935   5.986  10.733
91271W        W63531  21.256   3.531  10.841
91272W        W63532  21.936   8.416  13.976
91273W        W63533   0.477  20.553  10.717
91274W        W63534  43.003  15.173  14.433
91275W        W63535   4.295   0.010   4.839
91276W        W63536  32.914  24.701  11.958
91277W        W63537  41.954  40.002  10.733
91278W        W63538  34.878   2.665   2.727
91279W        W63539  18.782  43.436   0.841
91280W        W63540  33.092  27.573   2.599
91281W        W63541  43.992  38.977   1.411
91282W        W63542  36.532   2.838   3.306
91283W        W63543  41.925   4.657  12.864
91284W        W63544  31.931  32.841  10.105
91285W        W63545  26.641  34.581   2.724
91286W        W63546  31.328  16.997  14.336
91287W        W63547  23.798   4.195   2.250
91288W        W63548  16.053  21.779   4.147
91289W        W63549   3.274  34.600  10.741
91290W        W63550  28.670  19.506   0.008
91291W        W63551  13.675   4.583  10.144
91292W        W63552   1.164  19.828   1.048
91293W        W63553   6.210   8.408   0.384
91294W        W63554  19.443  32.557  11.765
91295W        W63555  30.515   9.643  12.697
91296W        W63556  24.504  27.037  11.534
91297W        W63557  32.331  18.241  11.150
91298W        W63558  19.457  33.035  11.471
91299W        W63559  25.990   0.930  14.921
91300W        W63560  21.204  25.985  13.246
91301W        W63561  20.768  29.235  12.622
91302W        W63562   8.745  19.075  12.521
91303W        W63563  12.299   1.358   1.742
91304W        W63564   2.737  22.754   0.082
91305W        W63565  36.496   9.292  13.857
91306W        W63566   3.035  30.928  11.050
91307W        W63567  13.538  13.728   2.922
91308W        W63568  33.951  11.235  11.491
91309W        W63569  27.668  23.105   2.192
91310W        W63570  36.475  11.119  12.292
91311W        W63571   0.500  19.938   0.280
91312W        W63572  42.970  37.908   4.613
91313W        W63573  16.546  33.806  14.699
91314W        W63574  37.603  24.692  10.744
91315W        W63575  31.441   9.055   4.242
91316W        W63576  35.550  32.447   0.489
91317W        W63577  14.200  42.752   0.018
91318W        W63578  43.575  18.147  10.788
91319W        W63579  17.057  16.720   2.339
91320W        W63580  42.429   0.712  13.707
91321W        W63581   7.924  11.757   4.527
91322W        W63582  17.795  40.026  10.673
91323W        W63583  33.459  38.017   1.751
91324W        W63584  16.339  36.396   4.538
91325W        W63585  27.084  19.953  10.624
91326W        W63586  41.376  17.524  13.253
91327W        W63587   7.686  11.033   4.197
91328W        W63588  43.007   5.818   2.242
91329W        W63589  21.134  41.493   2.266
91330W        W63590  30.143   2.245   3.532
91331W        W63591  31.605  10.130   3.616
91332W        W63592  15.289  22.297   3.575
91333W        W63593  40.311   1.494   2.621
91334W        W63594  11.549  44.840   4.474
91335W        W63595  21.055  19.553  11.756
91336W        W63596  14.156  40.450   2.811
91337W        W63597  34.877  38.813   4.594
91338W        W63598  28.924  11.921  11.991
91339W        W63599   2.438  28.116   0.277
91340W        W63600  42.337   5.650   0.051
91341W        W63601  27.678  23.062   3.104
91342W        W63602  41.094  30.521  10.691
91343W        W63603  14.885   9.096   3.296
91344W        W63604  32.841  10.371  12.461
91345W        W63605  33.906   8.251   2.800
91346W        W63606  23.725  42.774  11.087
91347W        W63607   9.813  30.550   0.190
91348W        W63608  33.087   0.984  13.259
91349W        W63609  31.117  20.285  14.128
91350W        W63610  19.022  16.619  13.501
91351W        W63611  22.535  12.788  14.835
91352W        W63612  38.109   9.288   4.510
91353W        W63613  39.408  29.347  14.202
91354W        W63614  38.302  44.105   1.874
91355W        W63615  28.405  32.960   2.249
91356W        W63616  17.379  19.492  12.027
91357W        W63617  11.828  43.176  14.746
91358W        W63618   9.130  35.763  11.518
91359W        W63619   8.203  19.316  14.997
91360W        W63620   1.203  18.299  13.529
91361W        W63621  37.982  18.224  10.376
91362W        W63622  18.193  44.898   2.471
91363W        W63623  10.846  13.127   3.683
91364W        W63624  30.539   0.293   4.692
91365W        W63625   1.615  18.082   3.673
91366W        W63626  37.479  39.646  14.474
91367W        W63627  23.932  10.354  11.982
91368W        W63628  16.259  38.447  11.977
91369W        W63629  20.393  24.349   1.168
91370W        W63630  28.605  37.546   3.209
91371W        W63631  36.767  14.177   3.656
91372W        W63632   6.160  37.376  10.145
91373W        W63633  22.765   7.730   0.278
91374W        W63634  31.763   5.340  14.888
91375W        W63635  31.414  20.668  11.539
91376W        W63636  37.831  28.422   1.407
91377W        W63637   6.811   7.943   0.857
91378W        W63638  23.570  31.514  12.820
91379W        W63639  11.704  12.734   3.703
91380W        W63640  36.545  24.890   3.293
91381W        W63641   3.340  11.345   1.650
91382W        W63642   4.727  22.883   1.879
91383W        W63643  20.255  11.150   2.830
91384W        W63644  30.209  34.345   1.313
91385W        W63645   8.150  44.375  14.774
91386W        W63646  26.527  21.949   3.922
91387W        W63647  41.487  38.720   1.667
91388W        W63648  13.488  37.003  13.629
91389W        W63649  12.229  15.651  11.034
91390W        W63650  42.678  21.545   4.645
91391W        W63651  28.478  44.783  11.667
91392W        W63652  33.068  37.468  11.143
91393W        W63653   9.726   4.735  11.160
91394W        W63654  10.750  15.889   2.685
91395W        W63655  37.064  17.144   0.380
91396W        W63656  30.476  42.911  14.626
91397W        W63657  21.275   2.829  13.823
91398W        W63658  12.297  11.142   4.408
91399W        W63659  32.019   1.777  11.953
91400W        W63660   3.296  44.901   0.029
91401W        W63661   5.995  17.179   2.325
91402W        W63662  16.202  32.197   3.354
91403W        W63663  42.533  44.737  12.114
91404W        W63664  36.448  43.182  13.020
91405W        W63665  13.222   0.725  13.489
91406W        W63666  34.664  33.815  14.266
91407W        W63667   2.395   5.241  10.827
91408W        W63668  25.589  31.510   2.107
91409W        W63669  43.323  36.039  12.070
91410W        W63670  43.362  13.622  13.258
91411W        W63671  41.246  32.490  14.388
91412W        W63672  39.909  15.148  13.663
91413W        W63673  37.825  10.269   0.457
91414W        W63674  13.753  30.744  11.492
91415W        W63675  41.529  13.866   1.508
91416W        W63676  18.573   4.674   1.457
91417W        W63677  29.126  23.338  12.645
91418W        W63678   3.193  20.323  11.081
91419W        W63679  17.670  16.304   4.498
91420W        W63680   0.269   4.776   0.423
91421W        W63681  27.206   9.295   0.912
91422W        W63682   3.902   6.663  11.445
91423W        W63683  35.443   6.816  11.456
91424W        W63684   0.261  10.359  13.764
91425W        W63685  17.520   1.822   1.807
91426W        W63686  20.232  31.867   4.592
91427W        W63687  29.141  37.024   2.615
91428W        W63688  12.441   0.770   2.815
91429W        W63689  28.524  20.672  12.413
91430W        W63690  28.927  33.538   5.284
91431W        W63691  17.284  44.370  11.996
91432W        W63692  34.349  33.829   3.745
91433W        W63693   2.730   5.390  13.064
91434W        W63694  40.277   5.246  11.104
91435W        W63695  14.670  40.970  13.810
91436W        W63696  20.828  20.844  13.155
91437W        W63697  20.753  27.606  14.800
91438W        W63698   3.985   8.996   4.101
91439W        W63699  25.922   3.394  12.390
91440W        W63700  28.239  29.052   3.753
91441W        W63701  30.970  29.633   1.259
91442W        W63702   8.648  28.243  13.751
91443W        W63703  25.823  26.491  10.159
91444W        W63704  37.498  44.410  10.622
91445W        W63705   8.413  13.874   0.297
91446W        W63706  27.275  15.237  13.800
91447W        W63707  31.415   4.609   1.445
91448W        W63708  16.737  40.900  13.966
91449W        W63709  26.661   3.770   2.648
91450W        W63710  37.905  10.697   9.342
91451W        W63711   7.703   2.828  14.813
91452W        W63712   9.344  44.471   4.701
91453W        W63713  43.883  14.047   0.899
91454W        W63714  38.836  32.945   4.749
91455W        W63715  39.748   9.245   1.762
91456W        W63716  16.162  21.605  13.999
91457W        W63717   4.818  24.239   4.151
91458W        W63718   7.490  29.079   3.217
91459W        W63719  42.772  44.316  11.951
91460W        W63720  13.090  19.793  11.076
91461W        W63721  24.018  38.227   1.000
91462W        W63722   8.832  20.194  10.748
91463W        W63723  14.678   3.757  14.321
91464W        W63724  23.956  33.617  12.534
91465W        W63725  21.155  44.941   3.176
91466W        W63726  17.612  21.036   2.492
91467W        W63727   0.676   6.790   1.424
91468W        W63728  31.964  11.807   1.763
91469W        W63729  11.688   9.849   0.661
91470W        W63730  27.686   0.985  11.693
91471W        W63731  18.728   9.491  12.746
91472W        W63732  21.842  44.915  10.712
91473W        W63733  42.022  11.622  10.411
91474W        W63734  11.467  24.605   1.931
91475W        W63735   6.484   7.274   3.673
91476W        W63736  33.423   3.008   1.702
91477W        W63737  34.877  42.741  14.408
91478W        W63738   2.320  21.625   3.433
91479W        W63739  15.273  25.136   4.461
91480W        W63740  43.661   0.001   3.614
91481W        W63741  43.040   2.399   1.770
91482W        W63742  12.738   8.283   0.746
91483W        W63743  29.037   0.675  14.925
91484W        W63744  27.075   3.880  12.173
91485W        W63745  37.447  13.336   1.113
91486W        W63746  19.995   6.426  14.503
91487W        W63747   6.538   9.411   0.199
91488W        W63748  16.825  44.270  14.252
91489W        W63749   4.853  27.687   1.017
91490W        W63750  12.712  36.874   1.209
91491W        W63751  17.113  24.054  10.223
91492W        W63752  33.568  28.574   2.136
91493W        W63753  21.665  22.987  11.670
91494W        W63754  27.012  13.577   2.653
91495W        W63755  16.928  40.409   1.267
91496W        W63756   4.764  40.449  11.442
91497W        W63757  29.192   0.479  12.595
91498W        W63758  35.978  36.769  12.245
91499W        W63759  32.044  19.232  12.938
91500W        W63760  32.442  19.997  10.359
91501W        W63761  34.470  41.286  13.492
91502W        W63762  31.107  17.201   3.878
91503W        W63763  27.505   2.022   4.652
91504W        W63764  31.090   7.524  14.928
91505W        W63765  21.985   1.716  12.878
91506W        W63766  11.251   9.339   4.671
91507W        W63767  22.221   5.541  11.935
91508W        W63768  41.535  18.649   4.369
91509W        W63769   1.452  40.489  10.801
91510W        W63770  31.610  34.596   4.656
91511W        W63771  41.204   8.839  11.182
91512W        W63772  18.663   2.957   3.912
91513W        W63773   3.529  34.311  14.777
91514W        W63774  25.616  26.391   1.352
91515W        W63775  16.209  14.123  12.452
91516W        W63776  38.051  41.572   2.214
91517W        W63777  18.585  14.114  10.681
91518W        W63778  20.079  20.633  14.272
91519W        W63779  33.571  24.425  14.026
91520W        W63780  11.760  16.955  13.176
91521W        W63781   6.123   2.175  11.930
91522W        W63782  33.311  33.453  11.907
91523W        W63783  10.089  22.207  13.048
91524W        W63784  18.874  14.259   3.481
91525W        W63785  36.329  28.181  10.703
91526W        W63786  25.379   9.641   1.047
91527W        W63787  35.272  14.203   4.184
91528W        W63788  31.883  10.578   3.368
91529W        W63789  38.722   9.029  12.208
91530W        W63790  32.411  25.831   4.482
91531W        W63791   4.710   8.710   3.115
91532W        W63792   8.485  10.415   2.327
91533W        W63793  44.446  36.666  11.535
91534W        W63794  34.075  40.851  10.545
91535W        W63795   8.153  43.371  11.336
91536W        W63796  42.553   8.429  11.089
91537W        W63797   9.747  37.127   3.193
91538W        W63798  10.046  19.588   2.028
91539W        W63799  31.793  33.251  13.452
91540W        W63800   2.222   8.767   0.645
91541W        W63801  18.309  41.959  11.571
91542W        W63802  23.583   8.521   2.846
91543W        W63803  20.290   8.054   5.488
91544W        W63804  16.063  41.410   5.167
91545W        W63805  29.966  42.227   3.167
91546W        W63806   8.178  16.894   2.746
91547W        W63807   7.330  16.244  14.339
91548W        W63808  28.215   1.335  10.621
91549W        W63809   6.308  39.754  11.455
91550W        W63810  22.228  25.734  14.342
91551W        W63811   6.141  34.541  13.586
91552W        W63812  42.428   7.791   4.837
91553W        W63813   7.907  27.968   5.507
91554W        W63814   5.675  44.940  11.485
91555W        W63815  35.950  14.393  12.442
91556W        W63816  27.005  19.400  14.742
91557W        W63817  10.666   1.217   1.847
91558W        W63818  17.391  40.832  11.772
91559W        W63819  42.323   7.294   0.336
91560W        W63820  40.852  11.454   2.304
91561W        W63821  32.179   1.816   2.453
91562W        W63822  11.368  31.655  14.365
91563W        W63823  31.423   5.721   4.654
91564W        W63824  13.055  43.621  13.850
91565W        W63825   9.134  38.389  13.398
91566W        W63826  43.417  17.598   0.859
91567W        W63827  43.535  18.111   0.947
91568W        W63828  30.678   5.928   4.278
91569W        W63829  39.028  34.547  12.014
91570W        W63830  14.197  18.756   2.392
91571W        W63831  44.746  37.522  10.547
91572W        W63832  43.232  22.287  13.065
91573W        W63833  22.574  11.187  12.647
91574W        W63834  37.303  21.968  11.102
91575W        W63835  31.859  34.378  11.112
91576W        W63836  28.157  13.824  12.119
91577W        W63837  44.863   0.764   2.403
91578W        W63838  33.356  21.430   1.747
91579W        W63839  31.634  13.815  14.801
91580W        W63840  37.023   2.258   4.282
91581W        W63841  21.586  40.044   0.522
91582W        W63842   3.028  26.959   3.295
91583W        W63843  31.371  36.052  14.886
91584W        W63844  10.245  35.698  10.622
91585W        W63845  22.571  39.299  10.836
91586W        W63846  44.043   9.899   2.368
91587W        W63847   7.389  10.293  12.037
91588W        W63848  33.454  23.122  13.193
91589W        W63849   0.431  22.627  12.952
91590W        W63850  43.748  27.609  12.943
91591W        W63851  36.426  34.924   1.994
91592W        W63852  33.155  39.368  11.178
91593W        W63853  26.475   0.531   3.359
91594W        W63854  34.329  11.676  12.066
91595W        W63855  17.580  13.913   3.113
91596W        W63856  41.527   1.396  10.379
91597W        W63857   0.995  23.119  11.157
91598W        W63858  36.063   3.484  13.398
91599W        W63859  35.993  41.419  13.093
91600W        W63860  38.424  27.436  10.667
91601W        W63861   9.014   3.846   4.723
91602W        W63862  18.646  36.281   2.580
91603W        W63863  14.594   5.335   0.797
91604W        W63864  36.799   1.339   3.286
91605W        W63865  10.127  13.820  10.888
91606W        W63866  13.074   3.793  14.357
91607W        W63867  32.084  14.233   2.174
91608W        W63868  41.657  42.981  13.522
91609W        W63869  25.764   4.450  13.959
91610W        W63870  13.895  20.597   2.376
91611W        W63871   5.060  13.759   1.825
91612W        W63872   0.723   7.180   1.751
91613W        W63873  17.111   0.423  14.950
91614W        W63874  33.482  28.946  11.497
91615W        W63875   1.017  35.101  10.606
91616W        W63876  12.061  44.953   2.576
91617W        W63877   4.219  35.900  11.534
91618W        W63878  11.302  18.789   3.166
91619W        W63879  43.873  18.424   4.634
91620W        W63880  38.794  39.356  12.027
91621W        W63881  30.055   0.114  14.795
91622W        W63882  22.416   4.204  11.934
91623W        W63883  18.894  40.905  14.349
91624W        W63884   7.429  16.091   3.839
91625W        W63885  43.739  26.184  13.881
91626W        W63886  20.911  39.242   4.321
91627W        W63887  19.673  44.902  10.951
91628W        W63888  38.025  14.524  11.584
91629W        W63889   8.799  25.417   3.683
91630W        W63890  16.287  29.893   4.474
91631W        W63891  27.031  12.474   4.311
91632W        W63892  10.278  14.177  10.105
91633W        W63893  24.173  23.993   4.180
91634W        W63894  25.983  29.696  12.989
91635W        W63895   4.153   3.983  11.904
91636W        W63896  43.772  19.755   1.353
91637W        W63897  12.163  12.366   4.143
91638W        W63898   2.956  43.879   1.388
91639W        W63899  22.472   3.571  10.776
91640W        W63900  17.094  27.508  11.193
91641W        W63901  13.121   6.868  14.336
91642W        W63902  20.578   2.708  13.407
91643W        W63903  35.136   4.576  12.155
91644W        W63904  30.443  44.969  10.705
91645W        W63905  41.310  18.147  14.166
91646W        W63906  24.648  25.657  13.858
91647W        W63907  34.497  26.620  13.283
91648W        W63908  36.213  32.117   0.045
91649W        W63909  32.074  36.870   2.744
91650W        W63910  13.749  29.020   4.168
91651W        W63911  19.043  34.549   3.520
91652W        W63912  24.482   8.590   1.428
91653W        W63913   3.163   8.901   3.621
91654W        W63914  14.585  18.258   0.752
91655W        W63915   3.403  14.252  13.080
91656W        W63916  13.675  14.436  11.491
91657W        W63917   3.708  26.218   3.843
91658W        W63918  33.968  10.633  10.648
91659W        W63919   3.598   8.258  14.161
91660W        W63920   5.257  41.471   0.195
91661W        W63921   0.952   3.403  14.322
91662W        W63922   3.862  29.397   0.269
91663W        W63923  20.194   4.267  12.923
91664W        W63924  44.986   4.234   1.018
91665W        W63925  25.621   1.075  13.918
91666W        W63926  44.284  24.227   4.105
91667W        W63927   8.703   9.405  10.662
91668W        W63928   5.418  17.859  11.050
91669W        W63929  26.763  25.443  11.135
91670W        W63930  36.870   1.521  11.839
91671W        W63931  25.729  13.653  10.450
91672W        W63932  33.450  43.238  12.869
91673W        W63933  42.594  29.652   0.619
91674W        W63934  11.701  42.883  12.053
91675W        W63935  22.779  11.685   0.726
91676W        W63936  32.666  38.097   4.134
91677W        W63937   8.340  32.133   2.839
91678W        W63938  18.700  12.717  11.551
91679W        W63939   4.989   8.617  10.017
91680W        W63940   0.482  33.922   0.799
91681W        W63941  23.630  39.811   0.816
91682W        W63942  31.139  36.399  10.644
91683W        W63943  39.766   2.528  11.169
91684W        W63944   2.041   7.400   4.082
91685W        W63945  28.054  12.175   4.492
91686W        W63946  33.906  37.924  12.445
91687W        W63947  30.754  30.086   5.537
91688W        W63948   4.730  42.904   0.295
91689W        W63949  39.944   3.082  11.213
91690W        W63950  40.384  33.893   4.723
91691W        W63951  43.182  35.901   2.227
91692W        W63952   8.463  25.732   2.099
91693W        W63953  24.148  35.380   0.691
91694W        W63954  23.425  12.675   3.264
91695W        W63955  42.046  14.321   2.674
91696W        W63956  26.692   8.943  13.523
91697W        W63957  34.461   6.894  13.826
91698W        W63958   0.780  34.445   0.863
91699W        W63959  28.685  12.910  12.299
91700W        W63960  20.050   7.092   1.973
91701W        W63961  23.614   8.091   2.272
91702W        W63962  22.208  15.133   3.908
91703W        W63963   5.484  31.816  14.555
91704W        W63964  31.316   6.911   2.594
91705W        W63965  14.694  39.279   2.165
91706W        W63966  30.922   4.248  11.206
91707W        W63967  32.389  36.613   2.352
91708W        W63968  15.575  43.287  14.337
91709W        W63969  41.381  23.758   1.425
91710W        W63970  38.083  12.424  13.771
91711W        W63971  15.212  32.471  12.494
91712W        W63972   7.424  28.131   5.449
91713W        W63973  35.265  29.317   1.360
91714W        W63974  19.584  34.704  14.478
91715W        W63975  15.865  23.671  14.030
91716W        W63976   2.325  20.269  14.249
91717W        W63977   5.189  24.013   1.370
91718W        W63978  36.028   6.026   1.468
91719W        W63979  37.759   2.735  13.330
91720W        W63980   4.293  31.042   3.334
91721W        W63981   5.799  34.860   4.693
91722W        W63982  11.172  41.935   3.633
91723W        W63983   6.646  33.903   1.725
91724W        W63984  15.707  29.523   0.576
91725W        W63985  12.164   7.463  11.024
91726W        W63986  10.720  33.245  12.535
91727W        W63987  44.935  25.492  14.999
91728W        W63988  11.214  29.937   3.930
91729W        W63989  42.236   5.052   3.322
91730W        W63990   5.177  14.740   2.163
91731W        W63991   8.951  29.729   2.810
91732W        W63992  34.538  31.138   1.339
91733W        W63993  42.152  32.142   4.509
91734W        W63994  30.059  34.162  13.228
91735W        W63995  19.718  18.358  10.724
91736W        W63996  11.775  24.664   2.828
91737W        W63997   0.019  24.085   2.099
91738W        W63998   5.882  11.629   1.448
91739W        W63999  21.226  30.130   1.745
91740W        W64000   3.788  40.927  13.034
91741W        W64001  35.157  23.216  12.875
91742W        W64002  25.895  31.158  13.029
91743W        W64003  13.813  30.667   1.336
91744W        W64004   2.979  40.416  10.547
91745W        W64005  39.136   9.388  14.498
91746W        W64006  26.435  30.491   2.251
91747W        W64007   4.158   4.488  12.894
91748W        W64008  29.618   4.307   4.899
91749W        W64009  36.772  25.133  10.753
91750W        W64010   9.432  37.725   1.220
91751W        W64011  16.091  38.678  14.953
91752W        W64012  19.741   4.919   3.914
91753W        W64013  42.022   3.788   2.909
91754W        W64014  28.033  18.537   1.356
91755W        W64015  14.137  13.713  13.400
91756W        W64016  33.923   8.700  13.363
91757W        W64017  22.553  28.731   0.438
91758W        W64018   2.075  29.511  13.870
91759W        W64019  37.502   4.536  13.329
91760W        W64020   0.166  43.064   2.811
91761W        W64021  36.359   2.180   0.742
91762W        W64022  26.811  44.681  14.481
91763W        W64023  15.869  26.960  13.385
91764W        W64024   0.914  16.463   4.792
91765W        W64025  38.111   1.929  14.296
91766W        W64026  28.943  42.892   5.055
91767W        W64027   1.095  30.130   2.019
91768W        W64028  19.818  15.619   3.501
91769W        W64029  21.211  13.231   0.798
91770W        W64030  29.501  42.984   5.120
91771W        W64031   4.846  42.586   2.450
91772W        W64032  38.807  19.041   1.182
91773W        W64033   6.162   8.681  10.969
91774W        W64034   4.376  20.480   0.269
91775W        W64035  32.364  39.089  11.702
91776W        W64036  14.521   8.758  11.455
91777W        W64037  34.201  39.516  11.929
91778W        W64038  31.385  14.664  12.121
91779W        W64039  42.946  17.295   4.070
91780W        W64040   9.793  43.722  13.863
91781W        W64041  39.344  20.152   4.054
91782W        W64042   3.194  41.126   2.131
91783W        W64043  10.274  20.803  12.612
91784W        W64044  39.217  25.987  11.190
91785W        W64045  37.618  33.036  10.229
91786W        W64046  10.842  36.834   2.799
91787W        W64047  23.328   5.525  12.210
91788W        W64048   1.211  13.162  13.043
91789W        W64049  13.172   0.853  12.081
91790W        W64050  36.304   4.160  14.877
91791W        W64051  33.798  24.550  11.248
91792W        W64052  26.583  21.300  10.562
91793W        W64053  17.370   8.139   2.733
91794W        W64054  17.004  26.765  13.878
91795W        W64055  40.569  24.947  14.568
91796W        W64056  14.194   0.859   0.792
91797W        W64057  18.600   7.940  11.580
91798W        W64058  13.432  12.531  11.274
91799W        W64059  36.533  37.815   1.900
91800W        W64060   4.291  23.169  14.658
91801W        W64061   6.973  16.679  10.752
91802W        W64062   4.614  27.359  12.515
91803W        W64063  14.765  16.842   1.810
91804W        W64064  11.743   8.087  13.508
91805W        W64065  28.595  38.681   4.626
91806W        W64066  21.035   0.630   5.078
91807W        W64067  30.402  41.028  12.921
91808W        W64068  44.467  26.924  13.786
91809W        W64069  14.503  40.491   0.461
91810W        W64070  38.037  35.428  13.466
91811W        W64071  25.212  19.595  12.394
91812W        W64072  28.018   1.341   3.251
91813W        W64073  20.230  36.014   1.690
91814W        W64074   3.708  34.300  13.988
91815W        W64075   9.646   4.350   1.674
91816W        W64076  24.590  11.639   0.063
91817W        W64077   0.726   7.189  11.433
91818W        W64078  36.430  11.148  14.782
91819W        W64079  23.251  18.260  11.963
91820W        W64080  22.550   2.647   2.732
91821W        W64081   6.267   7.571   5.087
91822W        W64082  33.642  32.505   1.409
91823W        W64083  19.046  30.514  14.957
91824W        W64084   2.807  44.996  14.640
91825W        W64085  21.013   1.235  13.974
91826W        W64086   4.294   9.113   2.429
91827W        W64087  32.993  38.932  14.758
91828W        W64088   7.448  35.394  12.941
91829W        W64089   8.721  36.912   1.255
91830W        W64090  10.446  21.673   4.574
91831W        W64091  25.778  35.344   4.878
91832W        W64092  31.536  29.632  12.357
91833W        W64093  33.921   2.566   3.310
91834W        W64094  32.978  11.178  11.495
91835W        W64095  23.370  14.269   4.927
91836W        W64096  31.335  26.198   0.345
91837W        W64097   2.139  24.195   0.873
91838W        W64098  37.851   1.257  14.910
91839W        W64099   5.900  38.593  13.933
91840W        W64100  34.795   0.757  12.494
91841W        W64101  40.549  43.786  13.039
91842W        W64102  10.084  14.801   0.757
91843W        W64103   7.598   4.249  14.986
91844W        W64104  25.887  30.883   0.814
91845W        W64105  26.997  21.098  13.323
91846W        W64106  39.931  34.362   1.284
91847W        W64107  14.681  12.879   2.943
91848W        W64108  31.092   2.732   2.835
91849W        W64109  42.789  25.588  10.731
91850W        W64110   4.510  33.880  12.015
91851W        W64111   7.896   6.367   3.432
91852W        W64112  31.338  36.982   4.892
91853W        W64113   5.606  33.009  13.106
91854W        W64114  11.232  11.301   3.784
91855W        W64115  39.905   2.093   3.273
91856W        W64116  22.643  26.958  10.558
91857W        W64117   3.747  32.619   0.934
91858W        W64118  41.334  14.250  10.916
91859W        W64119  20.589   3.799   2.237
91860W        W64120  21.758  20.962   2.656
91861W        W64121  19.564  18.119  10.292
91862W        W64122  28.941  13.893  12.927
91863W        W64123  17.516  39.815   3.319
91864W        W64124  16.161  42.709   1.404
91865W        W64125  19.261  38.484  11.697
91866W        W64126  20.147   7.360   1.548
91867W        W64127   9.334  19.493  14.905
91868W        W64128  40.134  41.539   1.713
91869W        W64129  40.912  25.985  14.575
91870W        W64130  11.354  10.895  12.453
91871W        W64131   2.267  38.065   0.428
91872W        W64132  28.734   7.667   0.366
91873W        W64133  13.302  23.936  13.502
91874W        W64134  17.104   8.647  12.942
91875W        W64135  36.847  35.121  11.678
91876W        W64136  31.914  32.185   0.699
91877W        W64137   3.928  29.883   3.256
91878W        W64138  32.622  31.295  14.214
91879W        W64139   9.684   3.458   0.886
91880W        W64140  14.703  19.162  13.881
91881W        W64141  18.044  10.761   1.822
91882W        W64142  24.388  41.942   0.630
91883W        W64143  30.867  39.326  14.271
91884W        W64144  28.540  24.475  11.965
91885W        W64145   9.875   0.787  11.552
91886W        W64146  43.080  42.486   2.024
91887W        W64147  34.905  36.900  11.204
91888W        W64148  29.558   7.009  12.632
91889W        W64149  43.991  13.154   4.442
91890W        W64150  25.057   4.425  12.400
91891W        W64151  16.653  38.962   1.360
91892W        W64152  25.673  19.291  11.523
91893W        W64153   9.386  30.893   4.207
91894W        W64154  39.913  11.870   0.667
91895W        W64155   8.954  23.462  11.077
91896W        W64156  35.881  30.874  13.550
91897W        W64157  41.889  27.636  11.196
91898W        W64158  43.487   2.457  12.506
91899W        W64159  37.975   6.998  10.066
91900W        W64160  42.593  24.560   1.374
91901W        W64161  41.762  28.571  13.576
91902W        W64162  22.436  11.238  14.441
91903W        W64163   2.253   4.087  10.569
91904W        W64164  13.736  23.673   1.652
91905W        W64165  43.464  21.773   2.733
91906W        W64166   0.882  12.040   4.079
91907W        W64167   8.277  12.858   3.374
91908W        W64168   8.625  21.840  11.453
91909W        W64169  25.176   6.079  13.373
91910W        W64170  25.012   7.855  14.221
91911W        W64171   0.148  34.509  11.299
91912W        W64172  31.268  18.313  11.174
91913W        W64173  31.910  38.389   3.651
91914W        W64174  37.292  38.141   0.338
91915W        W64175  12.997   6.221  11.658
91916W        W64176  42.147  11.292   9.976
91917W        W64177   3.951  37.961  12.041
91918W        W64178  22.694  42.789  13.822
91919W        W64179  14.645   8.830   0.723
91920W        W64180   9.282  23.674   2.202
91921W        W64181  40.614   0.337  11.484
91922W        W64182   5.688  39.285  14.074
91923W        W64183  24.469   1.407   1.374
91924W        W64184  16.365  24.867   4.125
91925W        W64185  19.570  28.472  14.462
91926W        W64186  44.934  24.435   2.852
91927W        W64187   8.602  40.021  10.813
91928W        W64188  33.417  42.912   1.475
91929W        W64189  30.930   4.837   4.469
91930W        W64190  15.234  33.444   4.668
91931W        W64191  27.100   5.595   3.111
91932W        W64192   7.777  41.283  13.079
91933W        W64193  13.206  22.946  10.737
91934W        W64194  22.054   3.702   2.367
91935W        W64195   2.175  11.417   3.711
91936W        W64196  38.584   2.385   1.296
91937W        W64197  27.103  12.813  12.207
91938W        W64198  10.314  32.547   0.287
91939W        W64199  10.789  18.976  11.075
91940W        W64200  14.735  39.086  14.122
91941W        W64201  17.578  13.493  11.173
91942W        W64202   8.891   2.686  14.284
91943W        W64203  29.725  11.881   4.228
91944W        W64204  23.332   5.764  13.949
91945W        W64205  25.318  13.302   4.940
91946W        W64206   1.183  41.967   3.743
91947W        W64207  25.645  33.939   0.574
91948W        W64208  41.416  22.691  12.521
91949W        W64209  22.280  33.765   4.127
91950W        W64210  41.040  29.463   4.907
91951W        W64211   1.246  31.903  10.638
91952W        W64212  20.097  33.497   0.715
91953W        W64213  42.990  38.503   4.041
91954W        W64214  44.509   6.701  11.570
91955W        W64215  10.662   4.930  10.702
91956W        W64216  44.790  10.175   1.225
91957W        W64217  34.680   2.986  14.952
91958W        W64218   3.796  42.838   3.792
91959W        W64219  22.690  10.284   4.055
91960W        W64220  27.946  31.620   2.716
91961W        W64221  20.638   5.866   3.833
91962W        W64222   6.607  44.787  14.302
91963W        W64223  17.754   2.405   2.821
91964W        W64224  16.941  23.288   0.911
91965W        W64225   4.192  13.258  14.939
91966W        W64226  12.112  24.677   4.145
91967W        W64227  32.207  17.796  11.986
91968W        W64228   8.995  22.814   1.246
91969W        W64229  18.197  26.018   0.245
91970W        W64230  24.706  38.320   3.197
91971W        W64231  35.609  24.128  11.399
91972W        W64232   0.540  28.426  13.344
91973W        W64233   5.890  29.777  11.137
91974W        W64234  34.486  42.891  10.305
91975W        W64235  16.227   1.966  10.765
91976W        W64236   7.740   8.111  13.715
91977W        W64237  19.565  36.610   2.708
91978W        W64238  12.179  40.909  13.318
91979W        W64239  21.307  30.886   2.203
91980W        W64240  10.719  20.783  10.815
91981W        W64241  44.285  10.521   0.921
91982W        W64242  12.607   9.748   4.579
91983W        W64243  13.831  24.089  13.956
91984W        W64244  25.527  38.841  10.225
91985W        W64245  23.545   6.588   2.939
91986W        W64246  25.011  16.431  12.361
91987W        W64247  41.120   2.554  11.627
91988W        W64248  31.177  39.683  14.484
91989W        W64249  37.787   6.726  14.857
91990W        W64250  18.318   9.685   3.428
91991W        W64251  14.236   2.402  11.220
91992W        W64252   0.200  27.683   0.457
91993W        W64253  37.808  13.615  10.589
91994W        W64254  36.668  27.277   2.427
91995W        W64255  24.126  18.579  12.169
91996W        W64256  28.136  23.793   2.788
91997W        W64257  11.397   1.286   1.353
91998W        W64258  12.003  40.494   4.667
91999W        W64259  37.255   9.937  14.081
92000W        W64260  10.071  29.418  11.042
92001W        W64261  18.059  36.052  11.076
92002W        W64262  12.669   9.382  13.261
92003W        W64263  23.693  19.779  11.502
92004W        W64264  18.062  11.478  11.118
92005W        W64265   0.692  12.035   2.742
92006W        W64266  42.458  21.095  11.628
92007W        W64267  27.231  38.267  13.416
92008W        W64268  12.149   4.661   0.854
92009W        W64269   0.436  15.158  12.169
92010W        W64270  39.749  40.103  14.378
92011W        W64271  34.327  10.492  11.194
92012W        W64272  10.679  32.427  12.975
92013W        W64273  28.990  43.226   3.180
92014W        W64274   3.825   5.352   0.957
92015W        W64275   8.635  12.987   0.047
92016W        W64276  25.600  22.702   1.134
92017W        W64277  18.186  15.873   1.264
92018W        W64278  14.401  22.235  11.971
92019W        W64279  39.861   3.000   2.945
92020W        W64280   8.891  17.086  12.858
92021W        W64281  12.597  30.405   4.579
92022W        W64282   2.419  21.047  14.782
92023W        W64283  20.704  14.045   0.100
92024W        W64284  26.351   4.179  11.079
92025W        W64285  16.522  27.113  12.280
92026W        W64286  35.566  11.066  12.369
92027W        W64287  27.581  33.624   3.826
92028W        W64288   6.975  18.591  12.608
92029W        W64289  39.325  26.182  14.896
92030W        W64290   5.217  32.155  14.844
92031W        W64291  18.856  25.406  11.916
92032W        W64292  24.292  21.958  11.107
92033W        W64293   8.760  17.811  12.087
92034W        W64294  15.228  42.723   3.497
92035W        W64295  30.544  12.873   2.695
92036W        W64296  30.117  36.821  13.049
92037W        W64297   6.402  16.783   0.795
92038W        W64298  35.750  42.626   1.928
92039W        W64299  25.467   1.240  11.078
92040W        W64300  42.451   0.593  14.224
92041W        W64301  38.479  30.089  14.953
92042W        W64302  32.419  25.616  12.080
92043W        W64303  13.185   6.895  12.964
92044W        W64304  20.815  23.173  13.552
92045W        W64305  15.100   4.767  11.004
92046W        W64306  16.341  29.009   1.465
92047W        W64307  16.150  14.228  11.503
92048W        W64308  35.117  18.111  14.976
92049W        W64309  13.783  19.690   1.340
92050W        W64310   5.618  40.645  11.168
92051W        W64311   3.465  18.420   4.638
92052W        W64312  27.558  32.294  11.065
92053W        W64313  41.486  28.700   4.469
92054W        W64314  28.080   6.837  12.614
92055W        W64315  32.439  20.950  14.884
92056W        W64316  13.426  40.307  10.806
92057W        W64317  31.475   2.059  11.264
92058W        W64318  22.288   1.358  10.761
92059W        W64319  40.375  18.481   3.318
92060W        W64320   5.010  40.397  10.489
92061W        W64321  28.953  29.557   4.599
92062W        W64322  39.936  20.797  13.126
92063W        W64323  22.129  24.657  10.345
92064W        W64324  35.649  40.865   1.300
92065W        W64325  38.058   7.166  12.803
92066W        W64326  37.055   8.245  13.906
92067W        W64327  43.660  36.541   0.326
92068W        W64328   0.786   6.670  14.110
92069W        W64329  12.563  12.191   0.292
92070W        W64330  42.843  23.671  11.857
92071W        W64331  28.089  41.396  13.832
92072W        W64332  30.492  21.746  11.209
92073W        W64333  33.914  35.351   3.951
92074W        W64334   6.389  28.514   3.858
92075W        W64335  23.390  32.619  13.295
92076W        W64336  20.739  42.774  12.904
92077W        W64337   9.706   6.795   0.430
92078W        W64338  41.609   5.129   0.273
92079W        W64339  38.539  41.064   1.428
92080W        W64340  27.572   4.836   3.172
92081W        W64341  42.863   3.157  12.942
92082W        W64342  28.150  34.318   3.175
92083W        W64343  15.855  36.528  10.947
92084W        W64344  19.047  34.100  14.419
92085W        W64345   9.606  32.063  12.693
92086W        W64346  44.200   6.703  10.729
92087W        W64347  32.887  39.565  11.632
92088W        W64348   2.040   6.336  14.208
92089W        W64349   3.330  15.474  14.873
92090W        W64350  44.889  23.243  12.317
92091W        W64351  28.994   2.163   2.324
92092W        W64352   5.903  28.106   1.264
92093W        W64353  29.913  31.139   1.963
92094W        W64354  25.948  18.728  11.968
92095W        W64355  36.617  22.964   3.306
92096W        W64356  32.280  17.758   2.112
92097W        W64357  23.759  17.648  13.066
92098W        W64358  30.939  14.510   0.842
92099W        W64359   9.109  44.364  13.869
92100W        W64360  27.677  32.084   4.606
92101W        W64361   4.172  30.855   4.833
92102W        W64362  43.564  33.308   4.140
92103W        W64363   3.037  15.382  11.056
92104W        W64364  27.869   4.407  14.559
92105W        W64365  44.832  44.095   3.273
92106W        W64366  26.652  40.003  14.213
92107W        W64367  16.078  32.017   3.823
92108W        W64368  22.131  43.081  11.133
92109W        W64369  12.953   2.152   1.840
92110W        W64370  27.170  34.819  13.556
92111W        W64371  42.302  27.002  10.512
92112W        W64372  43.198  17.270   1.217
92113W        W64373  12.885  18.206   4.300
92114W        W64374  20.256  36.390   1.326
92115W        W64375  36.831  37.463  14.997
92116W        W64376  26.199  41.861   5.450
92117W        W64377   8.957  41.566   2.713
92118W        W64378  15.701  17.101   1.702
92119W        W64379  25.685  42.828   1.972
92120W        W64380  42.388   1.347  11.059
92121W        W64381  42.434  17.832   3.651
92122W        W64382   7.419  28.285   9.834
92123W        W64383  25.696  33.576  10.262
92124W        W64384  19.746  32.659   2.833
92125W        W64385  25.345  29.584  11.606
92126W        W64386   3.340  15.074   2.074
92127W        W64387  26.676   3.670   4.485
92128W        W64388  12.477  25.605   2.900
92129W        W64389  17.846   5.171   9.889
92130W        W64390   1.762  41.964  12.181
92131W        W64391  31.341  38.925  11.147
92132W        W64392  10.792   5.728   2.187
92133W        W64393  13.562   5.424   0.965
92134W        W64394  28.978   0.886   4.578
92135W        W64395   1.741  30.509   4.010
92136W        W64396  23.798   6.462  12.543
92137W        W64397   6.850  12.102  11.307
92138W        W64398  16.769  38.819  13.248
92139W        W64399  14.049  24.582  12.479
92140W        W64400  37.503  34.552   1.858
92141W        W64401   8.800  38.205  13.951
92142W        W64402  12.424  42.053   2.747
92143W        W64403   1.302  10.028   4.884
92144W        W64404  17.529   4.957  12.177
92145W        W64405   1.382  41.834  11.504
92146W        W64406  16.602  11.149  14.437
92147W        W64407  22.720  31.391  13.549
92148W        W64408  15.138   6.744   3.291
92149W        W64409  38.780  12.422  12.750
92150W        W64410  35.769  32.525   2.110
92151W        W64411  28.537  26.140   2.431
92152W        W64412   5.201  40.260   1.487
92153W        W64413   7.597  10.620  10.754
92154W        W64414   8.418  33.016  11.127
92155W        W64415  10.724  41.519  10.600
92156W        W64416   2.126  39.401  12.564
92157W        W64417   6.812   9.314   3.669
92158W        W64418  18.604  41.964  12.016
92159W        W64419  29.410   6.742   2.656
92160W        W64420  39.049  35.133  13.131
92161W        W64421  18.636  27.674   1.965
92162W        W64422  21.985  18.596   3.203
92163W        W64423   7.717  36.048   3.084
92164W        W64424   6.371  38.115  10.672
92165W        W64425  41.410   2.495   1.045
92166W        W64426  35.111  35.489   0.014
92167W        W64427   3.301  23.319   3.525
92168W        W64428  22.441  18.138  10.564
92169W        W64429  13.380  35.412  11.066
92170W        W64430  29.207  14.395   1.138
92171W        W64431   2.293  33.760   0.921
92172W        W64432  17.889  18.734   3.354
92173W        W64433  15.879  40.991   4.473
92174W        W64434  34.162  28.196   3.260
92175W        W64435   6.154  21.939   2.535
92176W        W64436  43.393  33.865  13.579
92177W        W64437  39.090  37.901   2.565
92178W        W64438  13.302   1.738  14.448
92179W        W64439  11.623  30.745  11.595
92180W        W64440   0.058  39.587   1.320
92181W        W64441  15.024   1.938  13.885
92182W        W64442   7.910  19.512  13.795
92183W        W64443  25.688  42.176  12.942
92184W        W64444  39.472  11.429   4.630
92185W        W64445  25.870  21.151   0.013
92186W        W64446  27.859  19.727   3.667
92187W        W64447   9.677  18.947   1.277
92188W        W64448  10.147  40.612   2.532
92189W        W64449  23.956  10.255   0.342
92190W        W64450  30.101  40.160  11.240
92191W        W64451  35.402  33.447   0.303
92192W        W64452   3.403   2.574   3.751
92193W        W64453  41.849   6.419  10.824
92194W        W64454  19.125  19.690  12.220
92195W        W64455   9.596  12.136  14.890
92196W        W64456  12.281  13.417   4.156
92197W        W64457  26.008  21.885  11.057
92198W        W64458  30.506  36.271  14.342
92199W        W64459  12.187  14.049   1.071
92200W        W64460  10.164   3.798  14.465
92201W        W64461   8.599  39.803  11.993
92202W        W64462  29.048  35.336   1.323
92203W        W64463  17.050  33.631  14.790
92204W        W64464  16.614   5.402  11.827
92205W        W64465   4.029  21.731  14.591
92206W        W64466  24.606  19.564   4.552
92207W        W64467  28.986  21.247  13.001
92208W        W64468   7.898  44.056   1.283
92209W        W64469  42.326  29.542  13.789
92210W        W64470  27.599  10.331   3.091
92211W        W64471  41.948  12.588  13.530
92212W        W64472  40.492   8.324  14.291
92213W        W64473  22.075   4.399  12.732
92214W        W64474   9.158  37.845  13.777
92215W        W64475  37.957  13.920  12.309
92216W        W64476  17.322  26.013   3.504
92217W        W64477  33.480  30.092  12.125
92218W        W64478  13.566  35.304  12.358
92219W        W64479  25.064  40.189  13.470
92220W        W64480  12.379  35.110   2.174
92221W        W64481  27.547   9.178  14.047
92222W        W64482  18.019  15.320   3.736
92223W        W64483  32.357  32.940  13.043
92224W        W64484  38.272  31.193   4.189
92225W        W64485  26.951  16.783   3.279
92226W        W64486  23.104  25.650   3.307
92227W        W64487  29.504  21.968   4.593
92228W        W64488  32.131  34.279  10.686
92229W        W64489  30.495  24.235   4.872
92230W        W64490  15.383   5.801   3.091
92231W        W64491  13.182  38.455   3.173
92232W        W64492  18.660  26.457   0.966
92233W        W64493  17.783  14.870   2.185
92234W        W64494  23.097  23.417   2.463
92235W        W64495  29.010  33.206   2.799
92236W        W64496  12.395   1.288   2.782
92237W        W64497  15.033  10.893  14.369
92238W        W64498  21.939  21.208  10.555
92239W        W64499  29.199  11.905  14.281
92240W        W64500  29.916  25.227  13.516
92241W        W64501  15.113  21.985  13.910
92242W        W64502  38.310  13.381   0.481
92243W        W64503  28.429  37.433  10.914
92244W        W64504  38.196  11.208   0.999
92245W        W64505  19.586  31.941  13.814
92246W        W64506  29.608  32.651   9.713
92247W        W64507  44.211  21.789   3.288
92248W        W64508  31.147  22.584   1.973
92249W        W64509  35.354  19.048   3.249
92250W        W64510  13.549  21.537   0.432
92251W        W64511  12.092  17.290  11.585
92252W        W64512  30.145  19.165  13.446
92253W        W64513  30.691   3.525   3.718
92254W        W64514  22.503  28.648  12.371
92255W        W64515   7.192  15.203   3.223
92256W        W64516  43.289  29.678  12.911
92257W        W64517  44.746   3.383   3.080
92258W        W64518   0.170  37.422  14.762
92259W        W64519   4.954  19.244   4.188
92260W        W64520  32.819  19.603   4.577
92261W        W64521  35.778  41.996   4.758
92262W        W64522  15.272  21.319  12.431
92263W        W64523  34.674  22.064  11.256
92264W        W64524  16.364  16.342  13.967
92265W        W64525  37.961  28.435  14.371
92266W        W64526   0.309  39.506   0.437
92267W        W64527  13.319   6.790   4.383
92268W        W64528  18.748   8.137   4.621
92269W        W64529   0.393  13.648  12.941
92270W        W64530  34.449  39.340  13.759
92271W        W64531  39.611   2.235   0.943
92272W        W64532  33.151   9.714   0.782
92273W        W64533  20.778  29.652  11.812
92274W        W64534  14.893  14.124  10.205
92275W        W64535  44.409  23.766  10.982
92276W        W64536  20.074  15.841   4.352
92277W        W64537  27.029  32.287  12.031
92278W        W64538  22.282  26.811  11.996
92279W        W64539  36.462  31.395   0.261
92280W        W64540  20.179  33.332  11.589
92281W        W64541  26.988  38.831  11.984
92282W        W64542  17.841  22.060  11.580
92283W        W64543  43.471   8.169  10.901
92284W        W64544   8.197   9.256  10.462
92285W        W64545   0.975  15.402  14.462
92286W        W64546  32.905  17.404  11.529
92287W        W64547   8.146  37.957   0.085
92288W        W64548  40.237  16.091  11.072
92289W        W64549  39.042  44.721  11.499
92290W        W64550  17.164   4.368   1.220
92291W        W64551  42.682  21.537  11.391
92292W        W64552  43.318  27.377   4.515
92293W        W64553   7.718   7.858  14.641
92294W        W64554  21.241  35.667  12.078
92295W        W64555  18.771  37.767   1.193
92296W        W64556  15.212   1.362   3.017
92297W        W64557   6.691  27.479  11.820
92298W        W64558   5.313  40.262   4.518
92299W        W64559   4.804  34.063   2.192
92300W        W64560  18.191  23.115  11.744
92301W        W64561   1.322  18.101  14.387
92302W        W64562  17.672  16.037  14.860
92303W        W64563  10.837  39.518   4.546
92304W        W64564  39.273  12.609   1.901
92305W        W64565  13.217  33.688  14.320
92306W        W64566  24.998  10.119  11.574
92307W        W64567  21.173  40.857   0.929
92308W        W64568   3.463   3.079   2.413
92309W        W64569  15.555  28.506  10.664
92310W        W64570  34.277  18.162   9.776
92311W        W64571   9.216  22.498   0.859
92312W        W64572  23.473  13.359   2.128
92313W        W64573  17.857  37.667   0.820
92314W        W64574  16.778  19.513  11.215
92315W        W64575  42.609   2.198   0.879
92316W        W64576  18.051   3.499  13.810
92317W        W64577  36.595  42.786  11.269
92318W        W64578   5.156  15.251   4.336
92319W        W64579  35.968  38.679   1.862
92320W        W64580  26.472   2.917   3.986
92321W        W64581  42.413  24.498  13.554
92322W        W64582  21.415  30.624  14.376
92323W        W64583   2.751  38.549  14.514
92324W        W64584  27.276   6.204   1.188
92325W        W64585  22.698   7.240  13.706
92326W        W64586  28.960   1.686  12.456
92327W        W64587  30.956  36.653   2.375
92328W        W64588  42.539  26.559  13.862
92329W        W64589  38.157  31.043  13.408
92330W        W64590  34.845  21.738  14.761
92331W        W64591  28.028  20.293  14.839
92332W        W64592  20.922  16.710   1.035
92333W        W64593  37.720  41.170   3.008
92334W        W64594  36.968  24.272   1.014
92335W        W64595  41.036  12.000  12.447
92336W        W64596   4.171  27.699   2.741
92337W        W64597  43.562  10.950   1.774
92338W        W64598  40.559   6.152   0.024
92339W        W64599  38.815  20.192  14.641
92340W        W64600  37.667  34.414  12.466
92341W        W64601  31.057  40.327  12.249
92342W        W64602  38.508  10.192  11.589
92343W        W64603  41.957  29.427   4.483
92344W        W64604  22.504  37.759  12.779
92345W        W64605  17.804  32.493  12.579
92346W        W64606   7.393  29.794  14.293
92347W        W64607  39.600  38.345   1.373
92348W        W64608  25.021   6.681  11.604
92349W        W64609  23.013  43.049   1.363
92350W        W64610  19.227   7.518   5.022
92351W        W64611  12.794  39.706  14.375
92352W        W64612  39.783   1.322  14.407
92353W        W64613  12.159  31.390  12.111
92354W        W64614  24.622  21.420   2.383
92355W        W64615   5.208  34.982  10.675
92356W        W64616   2.313  30.595   1.410
92357W        W64617  14.390  44.764   0.353
92358W        W64618  44.483  21.231  11.445
92359W        W64619  34.057  30.995   3.806
92360W        W64620  43.783  40.924  14.430
92361W        W64621  43.533  17.324  12.890
92362W        W64622  11.863   6.179   4.582
92363W        W64623  22.599  11.120   3.375
92364W        W64624  41.854  43.486   0.352
92365W        W64625   7.177  17.582   1.834
92366W        W64626  37.957  27.714   3.709
92367W        W64627  34.614  14.584   4.080
92368W        W64628  32.171  25.294   3.237
92369W        W64629  21.078  18.098   4.718
92370W        W64630  42.266   7.179  14.827
92371W        W64631  12.067  28.981   3.630
92372W        W64632  41.461  19.007   1.240
92373W        W64633  39.542  39.084   0.820
92374W        W64634  13.678   1.690  11.591
92375W        W64635  19.853  42.389  12.004
92376W        W64636  29.116  21.708  12.155
92377W        W64637   9.721  23.725   1.892
92378W        W64638  18.009  17.656  13.006
92379W        W64639   9.783   7.732  13.297
92380W        W64640  42.972   1.917  13.990
92381W        W64641   7.867  22.154  11.916
92382W        W64642  10.678  43.218  14.021
92383W        W64643  20.064  38.928   4.637
92384W        W64644  39.850   6.350   0.222
92385W        W64645  10.824  10.229   2.711
92386W        W64646  37.063   7.494   2.192
92387W        W64647  34.325   5.389   2.860
92388W        W64648   1.744  35.267  11.094
92389W        W64649  28.004  15.979  14.049
92390W        W64650  10.738  13.659  11.579
92391W        W64651  34.375   7.706  11.481
92392W        W64652  23.487  42.290  14.770
92393W        W64653  28.346  19.606   2.200
92394W        W64654  11.634  14.274  13.023
92395W        W64655   2.725  19.680  12.517
92396W        W64656   5.622  40.518   4.178
92397W        W64657  41.732   9.892   2.772
92398W        W64658  20.269  28.005  11.771
92399W        W64659  15.479  14.700   3.082
92400W        W64660  17.555  24.933   1.740
92401W        W64661   4.990  16.336  12.073
92402W        W64662  14.074  12.221   0.446
92403W        W64663  16.324  37.666  14.878
92404W        W64664  28.152  44.184   5.144
92405W        W64665  18.032   4.821   0.777
92406W        W64666  25.089  27.878  13.801
92407W        W64667  18.229  20.737   0.811
92408W        W64668  29.021  11.238   3.827
92409W        W64669  34.168  19.587   1.826
92410W        W64670  21.092  17.987   0.200
92411W        W64671  40.469   1.007  12.129
92412W        W64672  35.204   9.844  11.672
92413W        W64673  20.222  35.274  13.914
92414W        W64674  30.584  20.997  14.782
92415W        W64675  22.775   1.333  12.571
92416W        W64676  13.692  26.847  10.025
92417W        W64677  22.675  34.128   4.554
92418W        W64678  12.105  19.335   1.636
92419W        W64679  39.439  19.689   0.328
92420W        W64680  17.843  34.489  13.977
92421W        W64681  30.980  23.342  11.102
92422W        W64682  16.662   2.914  13.793
92423W        W64683  18.733  44.665  11.491
92424W        W64684  11.318  40.799  11.613
92425W        W64685  11.170  11.603   2.275
92426W        W64686  44.980  37.981  14.327
92427W        W64687  36.136  10.724  11.480
92428W        W64688  43.842  40.500   1.171
92429W        W64689  41.866  13.319   2.225
92430W        W64690  17.684  21.560  12.322
92431W        W64691  18.028   3.251  12.781
92432W        W64692  43.510  39.987  12.352
92433W        W64693  22.953   8.795  11.125
92434W        W64694  25.452  36.463  12.425
92435W        W64695  20.038   4.300   1.886
92436W        W64696  18.040  21.594   1.307
92437W        W64697  24.556  11.390   0.514
92438W        W64698  23.943   3.712  10.671
92439W        W64699  31.112  12.798  12.678
92440W        W64700  19.233  17.562   4.206
92441W        W64701  20.254  37.408  10.718
92442W        W64702  16.832  35.536  10.957
92443W        W64703  40.436  29.327   4.240
92444W        W64704  21.527  20.344   3.946
92445W        W64705  35.083  43.443  11.206
92446W        W64706   9.764  40.149   0.853
92447W        W64707  18.646  17.258   4.530
92448W        W64708  42.258  17.678  12.462
92449W        W64709  25.495   0.465   5.079
92450W        W64710  18.539  16.178  14.368
92451W        W64711  15.321  15.613  13.284
92452W        W64712  12.879  25.619  14.890
92453W        W64713   1.787  22.325  10.967
92454W        W64714   4.373  43.396  10.567
92455W        W64715  14.145  33.233  14.291
92456W        W64716  24.649  42.893   4.052
92457W        W64717   4.722   7.179  10.763
92458W        W64718   5.368  39.119   0.949
92459W        W64719   6.598  31.976  14.034
92460W        W64720  23.958  27.608  13.129
92461W        W64721   1.646  21.549  14.597
92462W        W64722  15.058  20.943   3.207
92463W        W64723  35.526  42.965  14.906
92464W        W64724  17.374  37.055  12.212
92465W        W64725  27.458  29.226   1.697
92466W        W64726  29.955   1.324   0.792
92467W        W64727  26.999  23.627  11.945
92468W        W64728  35.321  36.535   2.633
92469W        W64729   5.375  18.234   2.736
92470W        W64730   0.875  31.868   2.956
92471W        W64731   5.902  25.669  10.258
92472W        W64732  12.566  20.580   0.219
92473W        W64733  40.803  11.704   4.022
92474W        W64734  26.531  39.446  11.333
92475W        W64735  17.587   7.661   3.650
92476W        W64736  35.615  15.387  14.079
92477W        W64737  38.631  23.572   0.331
92478W        W64738   2.918   2.391   2.699
92479W        W64739  44.422  24.399  14.094
92480W        W64740  38.478  22.699  12.858
92481W        W64741  11.629   9.735  12.016
92482W        W64742  24.542  26.806   2.662
92483W        W64743  32.635  17.202   2.112
92484W        W64744  16.645  13.806  10.383
92485W        W64745  42.866  27.918  13.429
92486W        W64746  29.610  36.012  12.979
92487W        W64747  43.346  15.261  13.886
92488W        W64748  27.928  33.124   4.804
92489W        W64749  23.042   0.662   3.633
92490W        W64750  44.227   3.875  12.578
92491W        W64751  12.594  18.103   0.101
92492W        W64752  22.970  29.976   1.523
92493W        W64753   9.613  39.954  11.175
92494W        W64754  43.588  39.355  10.770
92495W        W64755  39.545   4.138  12.072
92496W        W64756  38.746   4.948   2.477
92497W        W64757  41.728   9.748  12.985
92498W        W64758  29.169  27.741   3.395
92499W        W64759   2.182  37.093   1.305
92500W        W64760   7.031  21.624  12.197
92501W        W64761  43.235  21.596   0.979
92502W        W64762  23.777   1.431  11.379
92503W        W64763  21.470  18.072   1.371
92504W        W64764  22.131  39.371  10.607
92505W        W64765  16.337  17.268  13.850
92506W        W64766   5.592  21.602   1.800
92507W        W64767  44.327   2.013  11.585
92508W        W64768  28.923  32.382   1.797
92509W        W64769  39.349  24.532   0.804
92510W        W64770   2.207   4.645   4.948
92511W        W64771  17.574   5.132  12.655
92512W        W64772  43.741   5.888   4.088
92513W        W64773  43.157  42.959   2.818
92514W        W64774  31.281  31.028  11.139
92515W        W64775  31.615  33.876   0.945
92516W        W64776  21.848  38.922   3.400
92517W        W64777   3.509  22.261  13.349
92518W        W64778  22.255  36.848  13.797
92519W        W64779  11.199   9.264  10.686
92520W        W64780  12.374   3.902   3.136
92521W        W64781   6.185   5.719  12.923
92522W        W64782  13.373  29.806  12.720
92523W        W64783  42.256  12.332  11.176
92524W        W64784  39.358  37.532   2.842
92525W        W64785   9.983  25.584  13.359
92526W        W64786   9.703  14.132   3.563
92527W        W64787   9.631   7.332  12.066
92528W        W64788  26.266  24.153  12.405
92529W        W64789  16.909  36.041   1.530
92530W        W64790  17.129  23.690  13.423
92531W        W64791  38.640  41.838  11.690
92532W        W64792  25.078  16.883   0.634
92533W        W64793  15.328  21.520   0.000
92534W        W64794  24.720  43.434   1.333
92535W        W64795   7.736  32.880   0.442
92536W        W64796  15.045  33.054   0.227
92537W        W64797  17.404  11.966   0.894
92538W        W64798  14.735  25.746   2.415
92539W        W64799  36.892   7.358  14.509
92540W        W64800  44.236   5.449  13.259
92541W        W64801   7.744  38.461   4.491
92542W        W64802   3.607   4.466  10.883
92543W        W64803  28.377  39.160   4.634
92544W        W64804  20.739  38.252   0.436
92545W        W64805  30.618  22.029  13.395
92546W        W64806  21.911   9.719  12.038
92547W        W64807   3.298  35.681  11.516
92548W        W64808  42.082  10.894  11.241
92549W        W64809  23.253   3.295  13.540
92550W        W64810  31.996   9.466   5.185
92551W        W64811  17.257  17.247   1.379
92552W        W64812  17.562  35.193   1.683
92553W        W64813  11.755  16.204   3.613
92554W        W64814   9.718  23.620   1.372
92555W        W64815  17.080  29.084   0.739
92556W        W64816  16.603  32.875  14.874
92557W        W64817  38.722  32.216   3.685
92558W        W64818  12.255  31.491   4.390
92559W        W64819  42.149   7.381  11.861
92560W        W64820  33.401   1.696  10.295
92561W        W64821  33.857   4.870  13.039
92562W        W64822   1.465  16.208   3.729
92563W        W64823  36.456   4.852   0.423
92564W        W64824   3.452  16.496  13.898
92565W        W64825  37.084  33.893   1.262
92566W        W64826   7.683   4.168  11.128
92567W        W64827  40.921  16.051  12.059
92568W        W64828  29.637  32.293   5.424
92569W        W64829  25.680  18.289  11.628
92570W        W64830  29.972  30.089  10.200
92571W        W64831  23.282  33.888  11.451
92572W        W64832  14.776  41.567   2.225
92573W        W64833  33.452  19.836  14.346
92574W        W64834  22.246  25.631  11.884
92575W        W64835   7.149  37.584   1.725
92576W        W64836  21.587  26.061   0.975
92577W        W64837  25.195  14.195   4.541
92578W        W64838  25.708  33.664  14.141
92579W        W64839  18.656  44.120  13.287
92580W        W64840  40.124  43.794   4.788
92581W        W64841   4.674  43.397   1.409
92582W        W64842  20.903  15.011   1.344
92583W        W64843  15.662  21.561   3.913
92584W        W64844  30.937  28.782  13.803
92585W        W64845  24.715   7.288   1.319
92586W        W64846  24.613  38.993  10.259
92587W        W64847  42.053  23.466   3.216
92588W        W64848  24.228  32.179   1.486
92589W        W64849  37.563  15.633  14.712
92590W        W64850  33.864  17.177  10.897
92591W        W64851   7.254   3.674   1.780
92592W        W64852  27.673   5.732   0.745
92593W        W64853  31.715   8.655   4.454
92594W        W64854  20.568  40.326   1.299
92595W        W64855   2.002   0.781  10.769
92596W        W64856   8.021  43.305   0.673
92597W        W64857   2.453  28.317  12.066
92598W        W64858  37.463  15.452   4.719
92599W        W64859   1.432  44.713  14.961
92600W        W64860  29.927   8.403   3.591
92601W        W64861  22.049   6.371   3.703
92602W        W64862  22.225  22.410  14.457
92603W        W64863   3.771   7.609   3.695
92604W        W64864  37.074  24.126   3.603
92605W        W64865  27.236  13.389  11.970
92606W        W64866   6.684  42.410  14.425
92607W        W64867  30.006  27.529  10.975
92608W        W64868   2.787   2.289   4.604
92609W        W64869  27.063  35.106  10.377
92610W        W64870   1.720  31.782  11.644
92611W        W64871  15.055  31.535  12.500
92612W        W64872  21.002  28.201  13.097
92613W        W64873  28.377   6.814   2.402
92614W        W64874   2.183  11.597   4.536
92615W        W64875   3.750  10.857   0.257
92616W        W64876   0.969  28.086   4.524
92617W        W64877  39.042  44.076   2.400
92618W        W64878   9.256   7.138  10.637
92619W        W64879  44.874  21.824  13.001
92620W        W64880  41.461  11.623   1.410
92621W        W64881  14.566  43.979  13.390
92622W        W64882  16.042  10.193   0.279
92623W        W64883  31.958  33.718   4.969
92624W        W64884  21.123  31.341   4.097
92625W        W64885  20.306   4.565  13.345
92626W        W64886   7.246  20.594   1.407
92627W        W64887  30.605   3.246   4.146
92628W        W64888  20.043  34.576   2.641
92629W        W64889  41.323  14.276   1.282
92630W        W64890  24.063  28.432  11.697
92631W        W64891  15.856  28.750  13.076
92632W        W64892  20.190  33.368   2.232
92633W        W64893  24.313  42.875   1.887
92634W        W64894   4.970  21.580  14.225
92635W        W64895  32.103  27.349  12.787
92636W        W64896  37.570  17.124   4.376
92637W        W64897  10.756  40.431   0.822
92638W        W64898  13.875  36.083   3.978
92639W        W64899  24.584   5.092  13.009
92640W        W64900  18.233  13.999   5.107
92641W        W64901  39.508  32.720  12.117
92642W        W64902   3.963  40.814   1.219
92643W        W64903   1.072   9.464  14.390
92644W        W64904  39.326  11.574  14.967
92645W        W64905   6.152  15.227   4.359
92646W        W64906  40.356  12.099  10.821
92647W        W64907  41.430   8.274   0.271
92648W        W64908  25.035  13.697  13.575
92649W        W64909  44.860  16.222   1.943
92650W        W64910  29.468  33.614   4.055
92651W        W64911  19.329  23.510  11.676
92652W        W64912  26.463  37.324  13.842
92653W        W64913  36.438  12.129   3.609
92654W        W64914  22.876   0.310   3.265
92655W        W64915   4.831  42.611   2.959
92656W        W64916  35.691  13.524   2.363
92657W        W64917  28.447   1.845   4.571
92658W        W64918  34.532   9.233  12.858
92659W        W64919  27.178  24.680  12.842
92660W        W64920  29.031  42.759   2.453
92661W        W64921  22.639  21.227  13.942
92662W        W64922  18.016  15.575   4.194
92663W        W64923  37.063  14.610   1.117
92664W        W64924  16.427  24.033  11.611
92665W        W64925  17.121   8.225   0.027
92666W        W64926  20.069  30.374  13.155
92667W        W64927  12.122  37.386   2.660
92668W        W64928  23.806  35.841   3.740
92669W        W64929   2.336  41.547   3.890
92670W        W64930  12.328  44.410  11.406
92671W        W64931  26.204  17.282  12.033
92672W        W64932  25.252  37.804  14.264
92673W        W64933   2.284  41.542  10.724
92674W        W64934  34.484  12.630  13.565
92675W        W64935  23.992   7.339   3.287
92676W        W64936  27.733  31.965  14.957
92677W        W64937  28.191   0.202  12.439
92678W        W64938  33.313  36.319   3.073
92679W        W64939  36.976  16.254   2.443
92680W        W64940   2.242   9.427  11.002
92681W        W64941  14.666  39.334   3.103
92682W        W64942  40.745  42.305   0.558
92683W        W64943  37.029  31.651   2.288
92684W        W64944  20.653  32.331   3.382
92685W        W64945   2.453  44.273   5.013
92686W        W64946  10.812  25.058   1.379
92687W        W64947  25.593  38.556   9.803
92688W        W64948  25.933  21.564  14.042
92689W        W64949   3.258  19.411  10.918
92690W        W64950  11.698  21.567   1.940
92691W        W64951  11.485  25.215   4.479
92692W        W64952  30.464  29.769   3.791
92693W        W64953  15.234  29.126   3.563
92694W        W64954  25.032   5.231  11.865
92695W        W64955   0.864  22.146   4.699
92696W        W64956  24.775  11.464   2.359
92697W        W64957  35.376  10.571  13.469
92698W        W64958  29.391  36.454   0.210
92699W        W64959  19.381   4.132   4.109
92700W        W64960  42.004  10.620   0.760
92701W        W64961  32.550  10.168   2.643
92702W        W64962   1.401  25.724   3.715
92703W        W64963  14.828  12.728  13.825
92704W        W64964  35.079  20.661   1.851
92705W        W64965  18.508   9.773  12.384
92706W        W64966   2.700   0.254  13.795
92707W        W64967  31.500  37.377  11.585
92708W        W64968  44.941  36.547   3.602
92709W        W64969  21.597   0.964  12.817
92710W        W64970  34.441   8.404   1.407
92711W        W64971   4.679   0.963  13.620
92712W        W64972  17.308  14.444  14.459
92713W        W64973  26.145  19.532  11.549
92714W        W64974  29.832   4.263  13.366
92715W        W64975   0.961  13.321   3.234
92716W        W64976  34.257  41.322  12.147
92717W        W64977   5.309  23.346  14.293
92718W        W64978  37.983   1.167  10.913
92719W        W64979   9.702  43.670  11.092
92720W        W64980   5.713   2.811   4.046
92721W        W64981  32.202  43.493  13.015
92722W        W64982  42.456  27.029   4.675
92723W        W64983  34.463  21.628   0.497
92724W        W64984  33.674  34.156  13.492
92725W        W64985  28.994  40.000  10.573
92726W        W64986  19.510  30.487   4.231
92727W        W64987   8.366  20.815   1.979
92728W        W64988  12.960  25.193  14.611
92729W        W64989  25.830   2.355   1.897
92730W        W64990  26.904  39.305   0.467
92731W        W64991  40.972  34.880  13.813
92732W        W64992  29.094  10.602  12.097
92733W        W64993   0.905  27.412  10.659
92734W        W64994  14.329  33.933  13.499
92735W        W64995  34.927  23.304  11.178
92736W        W64996  41.970   5.696   1.321
92737W        W64997  13.535  12.023  14.412
92738W        W64998   4.285  34.398  10.674
92739W        W64999   8.830   6.118   1.288
92740W        W65000  11.091   3.418  11.174
92741W        W65001  26.043   5.191   0.207
92742W        W65002  44.240   9.671   4.577
92743W        W65003  34.483  20.723  12.413
92744W        W65004  33.389  26.533   3.124
92745W        W65005  39.822  14.692  13.922
92746W        W65006  11.392  35.311  13.297
92747W        W65007  27.391  43.603   0.016
92748W        W65008   4.365  44.258  10.136
92749W        W65009  43.400  15.739  10.741
92750W        W65010  31.785   8.844   4.949
92751W        W65011   0.549  20.625   2.819
92752W        W65012   8.939  20.330  11.236
92753W        W65013  25.448  15.106   0.241
92754W        W65014   5.715  18.149   0.772
92755W        W65015  37.411  20.224   3.222
92756W        W65016  30.675  39.907  14.512
92757W        W65017  40.380  41.206  14.262
92758W        W65018  43.264   9.745  14.351
92759W        W65019  24.657  38.849   3.221
92760W        W65020  15.364  44.451   4.199
92761W        W65021   5.988  26.241  14.993
92762W        W65022   8.163  13.214   4.077
92763W        W65023  24.186  11.527   3.703
92764W        W65024  27.792  39.267   3.442
92765W        W65025  17.678  34.450  12.991
92766W        W65026  18.668  27.993  14.823
92767W        W65027  39.669  30.692   0.937
92768W        W65028  43.504  24.489   0.724
92769W        W65029  39.900  33.660   4.927
92770W        W65030  39.773  44.028  14.386
92771W        W65031   2.689  42.404   2.100
92772W        W65032  39.334  42.362  14.993
92773W        W65033   3.478  42.067   2.461
92774W        W65034  41.466  17.961  13.553
92775W        W65035  24.864  25.717   3.337
92776W        W65036  15.281   7.560   1.306
92777W        W65037  39.988  23.725  13.258
92778W        W65038  42.022  26.964   1.884
92779W        W65039  17.262  20.998  14.412
92780W        W65040  20.806  31.066   3.782
92781W        W65041  11.229   1.786   3.555
92782W        W65042  33.394  31.008  11.039
92783W        W65043  18.853  35.534  13.450
92784W        W65044  14.581  36.477   2.655
92785W        W65045  38.720  19.636   4.986
92786W        W65046  22.729  43.974   4.146
92787W        W65047   9.186  40.940  14.714
92788W        W65048  33.029  35.413   2.199
92789W        W65049  17.040   9.595   0.816
92790W        W65050  43.973  32.510  10.768
92791W        W65051   0.838   5.922   4.557
92792W        W65052  36.565  19.716   5.122
92793W        W65053  21.483  32.859  12.417
92794W        W65054   7.251  11.296   1.409
92795W        W65055   4.457  11.348   0.914
92796W        W65056  44.633  28.251  13.578
92797W        W65057  24.644  30.548   2.922
92798W        W65058  34.151   2.311   3.759
92799W        W65059   4.237  15.295  14.418
92800W        W65060  28.940  17.623  10.731
92801W        W65061  22.638   1.409  10.362
92802W        W65062  10.250  30.510   4.413
92803W        W65063  20.825  21.374  14.403
92804W        W65064  17.537  16.835  10.709
92805W        W65065  30.927   8.287   1.425
92806W        W65066  11.569   5.318   1.446
92807W        W65067  36.782  30.169   1.322
92808W        W65068  13.141  39.033   3.745
92809W        W65069  41.704  24.692   4.570
92810W        W65070  43.343  30.860   2.161
92811W        W65071  11.241  41.777   4.599
92812W        W65072  21.266  30.691  10.719
92813W        W65073  15.954  21.772   1.255
92814W        W65074  40.463  21.605   1.150
92815W        W65075  31.925   6.835   0.740
92816W        W65076  10.338  28.062  11.725
92817W        W65077  13.949  36.961   1.706
92818W        W65078  36.902  31.048  12.981
92819W        W65079   8.652  42.905   1.984
92820W        W65080  16.275  21.850  11.179
92821W        W65081   4.426  20.262  14.802
92822W        W65082  42.933   1.524   4.655
92823W        W65083  39.115  24.723  11.021
92824W        W65084   5.174  14.578  10.493
92825W        W65085   2.758  19.502  11.037
92826W        W65086  37.639  12.127   3.307
92827W        W65087  22.892  37.637   2.274
92828W        W65088  36.934  44.781  11.615
92829W        W65089   4.784  19.187  10.467
92830W        W65090  29.408  26.211   2.774
92831W        W65091   1.422  33.905  12.087
92832W        W65092  11.762  26.101   0.177
92833W        W65093   0.444   1.941  14.952
92834W        W65094  24.470  17.803   1.388
92835W        W65095  25.699  25.259  11.769
92836W        W65096  31.193  30.821  10.225
92837W        W65097  12.890  28.559  11.518
92838W        W65098  30.744  23.479  12.654
92839W        W65099  33.688  19.038   2.537
92840W        W65100  23.988  28.821   2.851
92841W        W65101   9.415   4.461  14.348
92842W        W65102  43.055  15.312   2.440
92843W        W65103  44.876  14.502   0.174
92844W        W65104  22.583  21.513   1.173
92845W        W65105  37.654  35.712  14.734
92846W        W65106  38.507  30.951   3.640
92847W        W65107  40.847  11.221   4.155
92848W        W65108   0.428  29.962  14.820
92849W        W65109   9.596  37.447  14.026
92850W        W65110  43.949   1.851  14.792
92851W        W65111  24.314  18.243  14.626
92852W        W65112   8.725  20.562  14.303
92853W        W65113  31.720  17.213  14.065
92854W        W65114   7.671   9.337  12.648
92855W        W65115  26.871  40.147  11.627
92856W        W65116  37.844   3.404   4.444
92857W        W65117  44.913   3.147   1.640
92858W        W65118  43.225  33.889   1.439
92859W        W65119  14.164  16.378   4.044
92860W        W65120  25.538  41.990  10.318
92861W        W65121  28.406  35.044   2.128
92862W        W65122  44.530   8.797   0.967
92863W        W65123  30.540  27.147   2.972
92864W        W65124  40.401  21.514   0.198
92865W        W65125  14.488  17.357   4.169
92866W        W65126  10.838  37.540  13.912
92867W        W65127  20.578  14.644  11.216
92868W        W65128  15.262  18.554   3.140
92869W        W65129  21.958  10.864  13.849
92870W        W65130  25.314   1.258   2.617
92871W        W65131   0.857  29.559   4.682
92872W        W65132  34.961  25.979  12.513
92873W        W65133  44.073  32.511  10.224
92874W        W65134  13.056  44.191  13.798
92875W        W65135  31.257  30.937  13.450
92876W        W65136  18.655  24.786   3.714
92877W        W65137   9.750  14.646  13.160
92878W        W65138  12.944  20.321  14.967
92879W        W65139  21.663  17.737  13.869
92880W        W65140  17.349  42.666   3.640
92881W        W65141  10.343   6.258   0.816
92882W        W65142  27.982  40.548  13.823
92883W        W65143  27.065   0.520  12.162
92884W        W65144  11.508   9.421  12.473
92885W        W65145  43.015  15.750   5.262
92886W        W65146  38.174  38.526   0.188
92887W        W65147  23.811   0.387   3.570
92888W        W65148  41.910  14.856  13.387
92889W        W65149  21.705  13.364   4.248
92890W        W65150   1.655   6.278  14.569
92891W        W65151  29.961  26.888   0.212
92892W        W65152  24.353  32.597  13.322
92893W        W65153  20.818   3.813  10.924
92894W        W65154   5.909  30.649  12.925
92895W        W65155  43.924  27.401  14.956
92896W        W65156  32.611  37.248  11.129
92897W        W65157  25.751   9.814  13.802
92898W        W65158  26.599  23.524   0.763
92899W        W65159  33.897   0.804  11.443
92900W        W65160  43.322  32.544   4.541
92901W        W65161  25.417  28.392  13.781
92902W        W65162  15.010  40.328  14.907
92903W        W65163   5.666  32.508   1.564
92904W        W65164  15.499   8.500  10.080
92905W        W65165  22.077   3.330  11.561
92906W        W65166  37.033  32.849  13.466
92907W        W65167  14.879  10.759  11.967
92908W        W65168   5.552   4.403   0.866
92909W        W65169  11.449  44.218  14.262
92910W        W65170  31.732  40.019   3.757
92911W        W65171  37.273  26.755   3.426
92912W        W65172  23.328  11.702  12.690
92913W        W65173  21.961   6.962   4.172
92914W        W65174  42.856  29.580   4.083
92915W        W65175  44.885   5.778  10.725
92916W        W65176   3.915  21.722   0.674
92917W        W65177   8.358   4.325  14.330
92918W        W65178  36.809  34.201  14.029
92919W        W65179  20.976   2.037   4.660
92920W        W65180   9.296  25.489   1.853
92921W        W65181  13.553  28.427   1.801
92922W        W65182  36.626   6.729  12.560
92923W        W65183  36.479  26.572   2.661
92924W        W65184  32.047   0.797  14.942
92925W        W65185   9.646  30.905   1.705
92926W        W65186  32.155  31.704   0.766
92927W        W65187   5.655  27.828   5.022
92928W        W65188   9.632  37.444  12.616
92929W        W65189  16.451   5.752  14.855
92930W        W65190  18.566  15.236  11.150
92931W        W65191  42.022  17.711   4.575
92932W        W65192  16.261  21.322  11.845
92933W        W65193  19.238  22.823  12.950
92934W        W65194  14.854  35.528   4.624
92935W        W65195   9.392  22.638  11.479
92936W        W65196  35.396  35.434  14.339
92937W        W65197  31.986  29.874   4.668
92938W        W65198  30.141  31.703  11.681
92939W        W65199  28.131  43.927  12.009
92940W        W65200  21.769  31.528   4.817
92941W        W65201  22.972  20.775  13.323
92942W        W65202   7.306   1.888   3.673
92943W        W65203  31.181  24.493   2.277
92944W        W65204  36.607  40.867  13.489
92945W        W65205   8.073  34.259  10.953
92946W        W65206  13.706   3.863  10.908
92947W        W65207   9.703  17.353  14.258
92948W        W65208  13.656   0.215   0.922
92949W        W65209  36.106  36.402  14.027
92950W        W65210  13.283  42.919   1.905
92951W        W65211  18.244  32.400  14.474
92952W        W65212  28.070   0.056  11.109
92953W        W65213  23.020  25.217  14.199
92954W        W65214  30.831   2.220   2.135
92955W        W65215  14.104  36.505   2.270
92956W        W65216  43.430  22.686   2.696
92957W        W65217  15.561  31.673  14.143
92958W        W65218  18.452  12.813   0.886
92959W        W65219  11.374  27.329  14.845
92960W        W65220  36.674  28.053   3.893
92961W        W65221   6.995   2.185   3.392
92962W        W65222  36.894  19.513   3.249
92963W        W65223  21.399  20.275   4.986
92964W        W65224  11.075  37.417  12.697
92965W        W65225  42.407  31.998  12.302
92966W        W65226  21.686   2.672   1.824
92967W        W65227  44.309   6.770   4.520
92968W        W65228  29.138  10.238   1.392
92969W        W65229  28.534  41.455  11.957
92970W        W65230  13.685   4.671   1.835
92971W        W65231  19.162  13.691  14.360
92972W        W65232   3.672   7.299   4.870
92973W        W65233   2.444  31.480  14.285
92974W        W65234  18.200   5.806   3.183
92975W        W65235  23.268  43.422   3.663
92976W        W65236  37.517  41.316  12.884
92977W        W65237   1.808   9.848  14.816
92978W        W65238  22.134  36.025   2.775
92979W        W65239  25.906  22.087   2.229
92980W        W65240  36.630   1.898   0.422
92981W        W65241  30.622  24.452   1.817
92982W        W65242  33.365  20.375  13.833
92983W        W65243  15.814  15.583  13.453
92984W        W65244  35.426  29.242   0.201
92985W        W65245  17.313  25.455   2.251
92986W        W65246  42.888  16.314   4.548
92987W        W65247  34.984  15.026   2.710
92988W        W65248   7.135  38.857   1.792
92989W        W65249  26.053  28.513  10.622
92990W        W65250   3.410  25.362   4.115
92991W        W65251  26.066  35.944   0.426
92992W        W65252   2.957   0.792   1.437
92993W        W65253  43.411  37.539  12.326
92994W        W65254  13.150  26.505  13.188
92995W        W65255   5.301  15.818   0.341
92996W        W65256  36.035  25.548   3.772
92997W        W65257   0.746  14.438  13.329
92998W        W65258  21.678  21.622   3.934
92999W        W65259  39.646  11.141  14.895
93000W        W65260  35.746  22.463   4.120
93001W        W65261  37.291   5.607  14.914
93002W        W65262  41.554  34.330   0.414
93003W        W65263   6.658   0.271  11.945
93004W        W65264   7.167  12.121  12.984
93005W        W65265   7.583  16.714   1.699
93006W        W65266  23.556  23.590  13.484
93007W        W65267   2.027  39.319   2.931
93008W        W65268  20.724  16.219   4.890
93009W        W65269  14.348  21.038   3.702
93010W        W65270  11.984  43.903  11.932
93011W        W65271  30.084  31.540   4.814
93012W        W65272  28.668  36.811   3.711
93013W        W65273  16.166  35.553   1.703
93014W        W65274  29.066   9.424   2.925
93015W        W65275  28.172  17.502   4.927
93016W        W65276   5.409   4.482   2.275
93017W        W65277  32.329  41.371  14.952
93018W        W65278  19.063  14.509  13.938
93019W        W65279  32.573  14.274  12.509
93020W        W65280  41.093   2.914  13.539
93021W        W65281  33.065   7.199   2.076
93022W        W65282  11.972  27.791   5.464
93023W        W65283  31.336  24.643   1.246
93024W        W65284  19.329   9.295   2.261
93025W        W65285  23.822   8.864   1.931
93026W        W65286  15.298   1.919   0.256
93027W        W65287   6.330  22.597   2.594
93028W        W65288  23.176   8.920  13.746
93029W        W65289   2.807  41.184  14.885
93030W        W65290  31.629  18.297  12.980
93031W        W65291  40.261   7.862   3.874
93032W        W65292  33.494   2.947   3.052
93033W        W65293  13.380  32.478   4.592
93034W        W65294  23.262  43.280  12.149
93035W        W65295  38.775  43.282  14.808
93036W        W65296  13.085  36.234  14.779
93037W        W65297  18.080  21.219  10.844
93038W        W65298  13.778  39.830  11.456
93039W        W65299  41.225  14.286   4.136
93040W        W65300  18.381  35.578   4.165
93041W        W65301  16.611   4.352  12.944
93042W        W65302   1.254  25.340   4.916
93043W        W65303  38.889   4.319  12.590
93044W        W65304  40.505  39.754  12.374
93045W        W65305   1.336   6.495  12.524
93046W        W65306   4.145   9.043  13.571
93047W        W65307   0.813  44.758  12.283
93048W        W65308   1.586  44.058  13.764
93049W        W65309  20.730  11.653   1.415
93050W        W65310  44.287  17.028   4.123
93051W        W65311   5.938  35.923   0.255
93052W        W65312  28.072  17.668   4.070
93053W        W65313   3.310  32.890   0.994
93054W        W65314  12.800   7.878  14.256
93055W        W65315   8.683  40.792  11.308
93056W        W65316  35.408  28.542   3.745
93057W        W65317   1.316  28.085   1.350
93058W        W65318  15.708   5.813   4.601
93059W        W65319  28.049  19.071   0.493
93060W        W65320  11.419   1.381  11.638
93061W        W65321  19.204  15.647  14.952
93062W        W65322  34.158   6.876   4.500
93063W        W65323  19.219  11.294   1.643
93064W        W65324  38.873  42.903  11.334
93065W        W65325  33.662  39.805  13.143
93066W        W65326  27.973  16.631   1.310
93067W        W65327  27.656  35.525   4.893
93068W        W65328  29.908  32.417   1.120
93069W        W65329  12.647  16.539   2.586
93070W        W65330  27.760  43.883   0.413
93071W        W65331  36.410  10.403   4.571
93072W        W65332  42.695   9.810  13.012
93073W        W65333  32.257  26.679  14.885
93074W        W65334  42.371   2.311   1.339
93075W        W65335   1.243  31.433  12.164
93076W        W65336  11.893  33.290   5.032
93077W        W65337  17.649  27.701  12.961
93078W        W65338  42.984  15.289  12.931
93079W        W65339  21.948  22.106   3.883
93080W        W65340  24.941   8.922  11.024
93081W        W65341  10.078  17.554  14.948
93082W        W65342  40.463   2.126   0.983
93083W        W65343  34.028  25.346   2.865
93084W        W65344  31.130  20.051  12.636
93085W        W65345  16.649   0.118   3.435
93086W        W65346  20.595   4.568  12.488
93087W        W65347  11.277  13.669   0.725
93088W        W65348  10.448  21.442   4.122
93089W        W65349   3.860  13.774  13.608
93090W        W65350  29.180  19.836   4.133
93091W        W65351  38.966  13.729   4.782
93092W        W65352  13.322  30.148   2.661
93093W        W65353  30.507  11.035  13.047
93094W        W65354  39.587  29.871  12.049
93095W        W65355  27.124  18.676  13.035
93096W        W65356  44.858  21.286   0.976
93097W        W65357  41.619  44.841  11.837
93098W        W65358   3.187  34.516   4.074
93099W        W65359  30.461   7.659  14.431
93100W        W65360  31.050  22.956   2.333
93101W        W65361   3.457  43.093  11.262
93102W        W65362  23.616  36.536   1.969
93103W        W65363   8.723  17.448  12.513
93104W        W65364  34.346  36.355  11.485
93105W        W65365  24.411   2.177   0.565
93106W        W65366  21.700  43.864  13.882
93107W        W65367   8.352  35.006   0.267
93108W        W65368  40.433   9.308  11.229
93109W        W65369  37.369   4.845  14.246
93110W        W65370   3.259  17.393  14.543
93111W        W65371   9.663  18.839   4.631
93112W        W65372  25.634  38.347   3.271
93113W        W65373  31.444   5.080  12.625
93114W        W65374  24.602  42.548  14.247
93115W        W65375  41.047  32.922   0.393
93116W        W65376   8.367  31.429  13.400
93117W        W65377  27.434  23.690   2.385
93118W        W65378   6.139  15.274  11.004
93119W        W65379  25.186  16.819  13.450
93120W        W65380   3.997  35.450   0.198
93121W        W65381  37.963  35.373   0.050
93122W        W65382  20.443  18.178   0.929
93123W        W65383  44.723   2.244  14.485
93124W        W65384  40.976  43.293   0.436
93125W        W65385  18.875  20.687  13.383
93126W        W65386  38.152  43.434  13.719
93127W        W65387  24.429  34.348   1.313
93128W        W65388   6.860  12.669   4.337
93129W        W65389  19.767  30.856  13.941
93130W        W65390  30.351  33.280   3.643
93131W        W65391   0.333  29.741  11.626
93132W        W65392  43.129   2.340   0.826
93133W        W65393  25.293  20.692  11.106
93134W        W65394   6.214  13.142   4.525
93135W        W65395   0.001  38.392   2.705
93136W        W65396  26.088  19.859   2.851
93137W        W65397  27.140  24.495  11.539
93138W        W65398  44.972  29.203  10.490
93139W        W65399   1.923  13.884  11.179
93140W        W65400  24.085  12.972   2.667
93141W        W65401  39.383  44.265  13.520
93142W        W65402   2.319   0.796   5.050
93143W        W65403  13.355  31.475   2.708
93144W        W65404  11.955  42.445  14.285
93145W        W65405  23.848  12.718  12.944
93146W        W65406  19.587   4.362  10.708
93147W        W65407  28.855  14.719  13.021
93148W        W65408  16.528   6.315  12.025
93149W        W65409  34.058  41.745  11.462
93150W        W65410   7.162  35.505  12.514
93151W        W65411  29.329  18.638   4.805
93152W        W65412  21.161  38.805   4.560
93153W        W65413  37.070  15.346   3.741
93154W        W65414  30.102  21.661   0.827
93155W        W65415  30.591  14.121  12.447
93156W        W65416  21.179   4.209  10.797
93157W        W65417  41.845  36.728   2.234
93158W        W65418  11.602   9.111  11.619
93159W        W65419   4.868  14.095   5.122
93160W        W65420  40.975  12.409  13.063
93161W        W65421  30.337  34.969  13.715
93162W        W65422  40.155   9.408   0.412
93163W        W65423  44.235  12.093  13.039
93164W        W65424  14.438  21.348  11.829
93165W        W65425   1.312  32.276  14.619
93166W        W65426  20.068   2.744   1.709
93167W        W65427   3.958  44.702   0.978
93168W        W65428  28.610  20.572  13.383
93169W        W65429   5.911   9.275   3.040
93170W        W65430  20.040  39.015  14.096
93171W        W65431  16.350  25.965   0.795
93172W        W65432  14.584   6.171   2.859
93173W        W65433   3.784  31.269  14.921
93174W        W65434  18.136  25.112  11.234
93175W        W65435  33.458  29.636  13.415
93176W        W65436  35.026  36.335  12.986
93177W        W65437  30.985   0.581  14.853
93178W        W65438  16.822  38.432   2.550
93179W        W65439  23.046  22.659   2.468
93180W        W65440  31.953  26.800  10.413
93181W        W65441  11.150  41.232  12.879
93182W        W65442   5.405   1.034   3.941
93183W        W65443  40.799   3.138  12.643
93184W        W65444  37.448  36.405  13.833
93185W        W65445  29.834  12.205  10.831
93186W        W65446  40.528  40.152  14.485
93187W        W65447  23.074  19.796  10.697
93188W        W65448  11.348  38.369   3.490
93189W        W65449  37.346  44.778  12.831
93190W        W65450   2.207  36.454   0.668
93191W        W65451  44.981  23.914   4.482
93192W        W65452   8.995  44.773  11.762
93193W        W65453   0.935   4.642  11.566
93194W        W65454   8.613  34.989  11.923
93195W        W65455  13.075  35.371  10.665
93196W        W65456   7.751  41.543   2.716
93197W        W65457  21.726  28.972   4.158
93198W        W65458  22.915  36.531  14.292
93199W        W65459  18.245   8.370  14.355
93200W        W65460  21.262  12.254   5.062
93201W        W65461  15.252  36.386  14.766
93202W        W65462  13.836  11.437  11.277
93203W        W65463  13.814   8.715   0.411
93204W        W65464  28.066   4.331   1.408
93205W        W65465  15.674  18.080   1.837
93206W        W65466  24.671  27.079   4.359
93207W        W65467  29.766   7.769  12.414
93208W        W65468   2.219   8.659   2.130
93209W        W65469  43.466  33.985   4.598
93210W        W65470  11.696  32.114  11.925
93211W        W65471   6.870   9.169   1.822
93212W        W65472   1.510  12.406   0.445
93213W        W65473  43.727  28.829   3.053
93214W        W65474   1.768  32.982   2.595
93215W        W65475  12.717   2.298   3.599
93216W        W65476  22.843  17.327   0.746
93217W        W65477  14.258  41.376  11.160
93218W        W65478   9.102   3.842  12.398
93219W        W65479  38.971  39.021  12.383
93220W        W65480  20.948  14.782   0.895
93221W        W65481  17.229  18.372   2.792
93222W        W65482  37.037  37.267  12.568
93223W        W65483  27.469  38.742   4.495
93224W        W65484   3.282  28.410  11.909
93225W        W65485  13.872  26.225  12.646
93226W        W65486  43.525   2.331   3.536
93227W        W65487  24.102  27.561   3.226
93228W        W65488  20.006  30.790   3.178
93229W        W65489  21.513   7.332  14.167
93230W        W65490  42.922  31.507  13.462
93231W        W65491  25.492  38.754  10.723
93232W        W65492  21.330  29.298   4.093
93233W        W65493  44.715  25.674   0.922
93234W        W65494  36.097  28.981  11.289
93235W        W65495  24.033   8.439   1.628
93236W        W65496   7.689  22.723  12.037
93237W        W65497  32.178  18.739  11.123
93238W        W65498  30.205  34.393  11.559
93239W        W65499   6.511  24.535   1.930
93240W        W65500  39.647  21.632   1.887
93241W        W65501  26.056  43.953   3.461
93242W        W65502  44.630   9.273   3.620
93243W        W65503  41.290  11.561  12.362
93244W        W65504   5.761   4.195  14.265
93245W        W65505  28.439  16.198  13.044
93246W        W65506   9.661  14.564  12.405
93247W        W65507   6.889  22.798   3.293
93248W        W65508   3.894  29.202   4.881
93249W        W65509  20.139  40.120   0.413
93250W        W65510  41.225  43.200  12.469
93251W        W65511   2.212  26.673   1.275
93252W        W65512  31.114   9.460   1.619
93253W        W65513   2.103   5.462  12.121
93254W        W65514  42.400  11.269  10.549
93255W        W65515  42.703  28.602  10.463
93256W        W65516  18.621  27.423  11.551
93257W        W65517  43.807  19.574   0.834
93258W        W65518  31.547  14.401  12.538
93259W        W65519   1.003  29.144  11.729
93260W        W65520  43.640  26.970   0.023
93261W        W65521  32.060  36.300  10.208
93262W        W65522  32.623  23.766   2.358
93263W        W65523  23.591  12.403   4.351
93264W        W65524  28.425  42.307   3.266
93265W        W65525  22.614  27.481   3.225
93266W        W65526   8.362  15.759  12.581
93267W        W65527  23.035  27.722   2.391
93268W        W65528  42.021  19.286  11.102
93269W        W65529  27.070  28.160   1.249
93270W        W65530   6.328  41.993   4.806
93271W        W65531  38.917   6.652  11.467
93272W        W65532   6.861  18.272   1.400
93273W        W65533  32.181  21.625  12.307
93274W        W65534  27.967  29.870   3.242
93275W        W65535   3.918   4.414  11.723
93276W        W65536  39.978  40.351   4.270
93277W        W65537   0.754  13.447   2.283
93278W        W65538  44.409  37.079   4.653
93279W        W65539  37.529  17.200   2.942
93280W        W65540  35.823  16.792  14.538
93281W        W65541   0.221   7.945  12.014
93282W        W65542  43.345  16.364  12.122
93283W        W65543  23.426  21.040  11.531
93284W        W65544  32.104  26.116   2.655
93285W        W65545  36.014  39.074   4.122
93286W        W65546  25.040  10.624   2.512
93287W        W65547   6.904  33.915   3.763
93288W        W65548  42.092   4.585  11.136
93289W        W65549  26.448  13.157  13.881
93290W        W65550  33.094  31.662  11.935
93291W        W65551  19.832  14.746  14.307
93292W        W65552  44.503  24.117   4.573
93293W        W65553   1.895   4.377  13.073
93294W        W65554  17.145  37.331  14.772
93295W        W65555  44.121  40.077  11.707
93296W        W65556  13.865  29.413  12.008
93297W        W65557  32.153  19.194  13.992
93298W        W65558  25.416  39.286  12.510
93299W        W65559   5.285   1.016   2.300
93300W        W65560  31.056  40.586   4.293
93301W        W65561  23.751  43.254  13.987
93302W        W65562  37.065  15.251  11.080
93303W        W65563  28.208  10.760   3.213
93304W        W65564  21.040  36.520   4.618
93305W        W65565   9.026  22.810   4.608
93306W        W65566  29.963  30.475  13.541
93307W        W65567   7.748  37.853  13.679
93308W        W65568   9.252  18.812   2.122
93309W        W65569  29.234   9.599  12.014
93310W        W65570   0.230  28.863  14.034
93311W        W65571   2.842  34.891   0.194
93312W        W65572  22.067  27.542   4.001
93313W        W65573  40.004  33.450  13.381
93314W        W65574  15.594  13.795   3.690
93315W        W65575  37.419  32.076  10.403
93316W        W65576  35.874  21.271  13.538
93317W        W65577  19.671  17.065  14.412
93318W        W65578  12.272  40.866  13.852
93319W        W65579   2.345  35.282  11.567
93320W        W65580  20.257   4.420  11.208
93321W        W65581  10.386   4.006   3.031
93322W        W65582  34.533  43.297   2.251
93323W        W65583  44.954   8.355  14.520
93324W        W65584  18.587  18.263  13.171
93325W        W65585  33.517  17.524   4.188
93326W        W65586  44.324  13.524   1.660
93327W        W65587  20.108  20.193  13.992
93328W        W65588  38.417  26.908  11.482
93329W        W65589  34.948  17.778  14.615
93330W        W65590  22.664   6.873   0.498
93331W        W65591   6.947  29.676  14.056
93332W        W65592  34.428  12.610  11.210
93333W        W65593  13.456  42.498   1.082
93334W        W65594  16.641  32.626  13.348
93335W        W65595   9.364  30.840  13.002
93336W        W65596  31.406   3.031  14.213
93337W        W65597  38.992   2.891   3.814
93338W        W65598  25.066  39.082   2.152
93339W        W65599  26.485   8.390   4.397
93340W        W65600  35.887  10.101  12.850
93341W        W65601  32.731   0.254   3.247
93342W        W65602  40.941  36.467  13.590
93343W        W65603  38.870  16.834  11.453
93344W        W65604  34.375  18.971  11.116
93345W        W65605  29.600  20.455   0.713
93346W        W65606  21.793   2.160   1.623
93347W        W65607  36.437  41.482  10.214
93348W        W65608  16.378  22.576  10.004
93349W        W65609   8.753   6.276  11.553
93350W        W65610  29.421  25.104   0.317
93351W        W65611  17.158  33.964  13.475
93352W        W65612  26.470  36.823  12.610
93353W        W65613  30.933  31.596  13.443
93354W        W65614  32.140  13.271   2.300
93355W        W65615  24.212  11.834  12.088
93356W        W65616  31.910  24.831  11.158
93357W        W65617   3.381  16.422  11.846
93358W        W65618  20.816  30.541   4.651
93359W        W65619  34.396   9.256  10.623
93360W        W65620  20.622  22.634  11.819
93361W        W65621  41.245   9.353   2.433
93362W        W65622  20.032   8.911   3.103
93363W        W65623   5.866  37.558   4.221
93364W        W65624  23.290  10.028  13.014
93365W        W65625  24.768  31.618   1.489
93366W        W65626  43.459  19.777   2.775
93367W        W65627  39.437  44.379  11.421
93368W        W65628   6.928  38.855   0.815
93369W        W65629  15.159   5.677  11.421
93370W        W65630  27.872  35.388   3.718
93371W        W65631  41.603  39.982   1.372
93372W        W65632  37.210  42.428  12.476
93373W        W65633  18.989  40.836  13.516
93374W        W65634  10.064  24.509   1.611
93375W        W65635  11.896  37.809  13.557
93376W        W65636  16.257   0.424   3.308
93377W        W65637  43.396  28.048   2.248
93378W        W65638  12.409  34.070   0.864
93379W        W65639  36.907   9.781   3.195
93380W        W65640   4.377  23.963   1.790
93381W        W65641  28.833  28.133   1.506
93382W        W65642  24.277  28.492  14.852
93383W        W65643  42.875  35.909   1.808
93384W        W65644  19.728  39.434   2.386
93385W        W65645  22.593  23.921  14.347
93386W        W65646  16.575  23.536   4.088
93387W        W65647  31.762  20.197  11.135
93388W        W65648  36.438  29.619   1.650
93389W        W65649  24.482  25.785   5.262
93390W        W65650   0.647   3.874  14.361
93391W        W65651  13.649   5.649   0.489
93392W        W65652  22.801  43.481  11.967
93393W        W65653  10.779   3.343  14.934
93394W        W65654  18.656   2.892   0.896
93395W        W65655  29.434  13.161   0.991
93396W        W65656   5.697  37.642   0.844
93397W        W65657   8.588  28.501  14.956
93398W        W65658   5.415  31.525   1.459
93399W        W65659  32.409  22.154   1.409
93400W        W65660  36.066   7.883  12.645
93401W        W65661  43.998  23.201   4.582
93402W        W65662  33.136  18.726   3.625
93403W        W65663   5.253  16.646   4.541
93404W        W65664  36.544  17.466   1.740
93405W        W65665  38.997  23.222   0.459
93406W        W65666  44.378  14.014   2.232
93407W        W65667  37.136  33.625   1.807
93408W        W65668  38.168  13.092  11.452
93409W        W65669   7.771   8.434  12.754
93410W        W65670  37.824  26.635   1.871
93411W        W65671  44.940  24.328   4.806
93412W        W65672  27.085  28.356   3.118
93413W        W65673  14.749  10.092   1.257
93414W        W65674  38.423  35.575   4.429
93415W        W65675  29.684  35.094  13.434
93416W        W65676   7.721  22.553   0.913
93417W        W65677   9.751  14.501  11.497
93418W        W65678   1.729  39.870   2.664
93419W        W65679  43.473  25.269   0.278
93420W        W65680  32.941  17.352  12.303
93421W        W65681  40.503  34.111  12.654
93422W        W65682  36.052  33.165  12.925
93423W        W65683  22.281  20.976  14.247
93424W        W65684   4.162  39.703   0.940
93425W        W65685  30.381  40.120   1.822
93426W        W65686  33.682  32.172  14.922
93427W        W65687  35.616  14.211   1.870
93428W        W65688  27.178  30.571   4.512
93429W        W65689  32.301   5.773   2.305
93430W        W65690  42.060  20.778   2.795
93431W        W65691  32.893  36.611   3.179
93432W        W65692  11.203  42.994  12.041
93433W        W65693  23.235  19.980   2.241
93434W        W65694  13.884  29.541   1.015
93435W        W65695  10.703  22.738  11.166
93436W        W65696   2.746  33.146   3.772
93437W        W65697  35.408  27.734  12.312
93438W        W65698   1.299  15.143  12.085
93439W        W65699  26.128  31.528   1.935
93440W        W65700  41.801   5.459  12.470
93441W        W65701  22.506   6.301  11.416
93442W        W65702  11.560  10.441  14.046
93443W        W65703  28.753  24.532  14.407
93444W        W65704   6.518   5.716  11.703
93445W        W65705  22.227   8.781   4.641
93446W        W65706  14.655  11.931   4.687
93447W        W65707  43.526  38.461  11.825
93448W        W65708  30.430  28.004  12.446
93449W        W65709  44.311  33.662  12.003
93450W        W65710  32.639  24.220  11.102
93451W        W65711   1.266   9.228  10.625
93452W        W65712  44.875  38.450  12.074
93453W        W65713  25.092  27.722   1.224
93454W        W65714  20.614  23.211   1.018
93455W        W65715  41.826  38.834   4.850
93456W        W65716  30.132  37.454  12.251
93457W        W65717  43.465   6.461   1.217
93458W        W65718  35.073   0.348  12.979
93459W        W65719   7.422  22.575  12.494
93460W        W65720  35.500  20.793   0.290
93461W        W65721  36.545   6.325   2.823
93462W        W65722  25.420   9.696  12.840
93463W        W65723  32.146  20.704   2.297
93464W        W65724   2.992  28.595  13.863
93465W        W65725  23.384  14.806   2.351
93466W        W65726  30.015  38.143  13.518
93467W        W65727  10.704   2.450   4.036
93468W        W65728   9.260   1.952   2.162
93469W        W65729  38.963   5.426  14.262
93470W        W65730   1.778  19.638  14.241
93471W        W65731  20.751   2.411   2.900
93472W        W65732   1.353   7.105   3.016
93473W        W65733  42.995   1.872  11.915
93474W        W65734   1.889  10.202  13.755
93475W        W65735   3.700  30.171   2.810
93476W        W65736  13.773  41.504  13.391
93477W        W65737  11.677  30.644  14.524
93478W        W65738  42.084  32.938  11.977
93479W        W65739  25.569   0.198  13.802
93480W        W65740  26.159  15.959  10.463
93481W        W65741   7.374  44.959   1.907
93482W        W65742   2.165  18.547  11.098
93483W        W65743  37.596  29.081   0.723
93484W        W65744  41.876   4.248   1.633
93485W        W65745  27.208  44.343  14.392
93486W        W65746  36.577   2.230   1.737
93487W        W65747  16.981   9.526  12.653
93488W        W65748   6.753   7.855   3.687
93489W        W65749   8.375  34.494   1.502
93490W        W65750  38.511   0.384   3.040
93491W        W65751  16.490   1.754   1.717
93492W        W65752   4.038  10.587  14.919
93493W        W65753  43.170  32.097   1.823
93494W        W65754  23.151  31.672   0.177
93495W        W65755   2.925   7.929   1.685
93496W        W65756  27.176  22.997   3.243
93497W        W65757  41.849  18.029  14.297
93498W        W65758  35.060   3.212  10.725
93499W        W65759  19.550  13.816  11.255
93500W        W65760  43.391  20.980  10.680
93501W        W65761   3.609  37.359  10.196
93502W        W65762   4.840  26.673  14.383
93503W        W65763  32.307  33.700   3.303
93504W        W65764  10.710  14.772   2.245
93505W        W65765   8.219  43.419   0.210
93506W        W65766  13.051  10.118  13.931
93507W        W65767   8.814  36.626  14.338
93508W        W65768  24.145   3.407  14.007
93509W        W65769  37.094   3.360   1.424
93510W        W65770   4.877  24.282   3.594
93511W        W65771  30.679  34.489  12.552
93512W        W65772  20.218  36.461   2.490
93513W        W65773  35.674  20.964  10.398
93514W        W65774  42.991  26.371  10.955
93515W        W65775   7.800  41.802  10.442
93516W        W65776  36.319  31.910   1.762
93517W        W65777  40.021   1.187  12.626
93518W        W65778  10.174  31.076   1.744
93519W        W65779  38.910  15.869  12.460
93520W        W65780   7.918  25.106   0.824
93521W        W65781  30.684  14.374   2.321
93522W        W65782  42.065  42.243  13.550
93523W        W65783  12.782   2.486   4.081
93524W        W65784  31.648   6.711   1.243
93525W        W65785  38.521   5.904   0.750
93526W        W65786  25.833   7.881  12.481
93527W        W65787  34.364   8.130   4.122
93528W        W65788  29.103  37.545  11.612
93529W        W65789   6.989  40.939   4.841
93530W        W65790  13.451  23.714  13.953
93531W        W65791  29.451   8.522  12.455
93532W        W65792   0.373  41.068  14.429
93533W        W65793  27.182   2.582  12.092
93534W        W65794   1.758  36.600   3.802
93535W        W65795  24.256   9.182  12.172
93536W        W65796  11.741   6.776   3.750
93537W        W65797   2.563  21.080  12.846
93538W        W65798  12.156  24.584   1.344
93539W        W65799   0.532   0.415   1.872
93540W        W65800   4.812  20.983   0.448
93541W        W65801  42.007  27.590  14.442
93542W        W65802  31.456  40.541  13.572
93543W        W65803  15.561  27.141  13.740
93544W        W65804  15.949  10.768   2.725
93545W        W65805  38.697   0.966   4.166
93546W        W65806  43.282   6.049  14.325
93547W        W65807  27.133  44.788  11.688
93548W        W65808  36.565  38.473   2.345
93549W        W65809  25.102   7.901   4.965
93550W        W65810   5.237  19.672  14.891
93551W        W65811  29.880  10.191  12.523
93552W        W65812  10.851  38.463   3.447
93553W        W65813   4.020  32.307   0.245
93554W        W65814  30.436  27.410  14.799
93555W        W65815  11.961  20.021   3.496
93556W        W65816   4.210  21.796  13.959
93557W        W65817  24.080  39.778   0.509
93558W        W65818   8.721  40.563   1.445
93559W        W65819  42.420   7.842   2.791
93560W        W65820   0.424  28.139   2.670
93561W        W65821  42.373  39.015  11.203
93562W        W65822   1.681   5.875  11.181
93563W        W65823  20.601   5.605   4.271
93564W        W65824  11.044  25.029   0.911
93565W        W65825   8.397  26.229   3.665
93566W        W65826   1.703  33.065  13.418
93567W        W65827  27.370  39.486   3.286
93568W        W65828  40.026   3.328   4.655
93569W        W65829  40.522  28.543  12.903
93570W        W65830  21.782  37.937  14.490
93571W        W65831  41.787   3.749   1.881
93572W        W65832  12.099  41.779   0.529
93573W        W65833  32.452  10.409  14.267
93574W        W65834  11.326  41.798   1.806
93575W        W65835  25.859  35.615   0.757
93576W        W65836  34.650  32.000  13.875
93577W        W65837  24.427  19.788  12.876
93578W        W65838   4.781   7.782   2.179
93579W        W65839  36.380   3.438  12.137
93580W        W65840  15.747  39.528   1.513
93581W        W65841  38.856  38.212  14.542
93582W        W65842  27.999   4.110  11.646
93583W        W65843   6.437  22.565  12.506
93584W        W65844  20.110  34.439  13.361
93585W        W65845  40.805  31.199   1.411
93586W        W65846  32.747  19.070  13.586
93587W        W65847  32.947  11.686  11.476
93588W        W65848  25.647  14.490   4.473
93589W        W65849  13.356   4.386   0.283
93590W        W65850  43.755   5.708  13.160
93591W        W65851  42.510   2.214   3.726
93592W        W65852  37.945  19.683   2.413
93593W        W65853   0.556   2.430   1.324
93594W        W65854  12.078   4.192   3.487
93595W        W65855   5.289  33.121   4.082
93596W        W65856  26.044  26.474  11.651
93597W        W65857   5.674  35.554  13.480
93598W        W65858  16.813  20.797   4.709
93599W        W65859  24.641  27.824   3.808
93600W        W65860  11.243  16.335   2.713
93601W        W65861  35.409  22.524  13.431
93602W        W65862  39.524  26.757   4.317
93603W        W65863  20.570  25.586   3.616
93604W        W65864  41.212  31.763   2.407
93605W        W65865  20.735   0.232  14.743
93606W        W65866  40.133  38.127   0.445
93607W        W65867  21.196  14.217  14.401
93608W        W65868  42.834  18.228   0.481
93609W        W65869  32.521  27.071  10.948
93610W        W65870  20.697  16.819  13.925
93611W        W65871   2.260  42.030   3.104
93612W        W65872  38.087  18.621  11.557
93613W        W65873  30.683  39.257  12.452
93614W        W65874  13.825  38.747  12.991
93615W        W65875   2.342   5.924  14.741
93616W        W65876   3.950  33.181   4.561
93617W        W65877  22.087   4.225   1.394
93618W        W65878   3.247  27.446   2.215
93619W        W65879   0.292  28.163   1.192
93620W        W65880  20.166  39.746  12.901
93621W        W65881  33.986  34.993   0.576
93622W        W65882  13.169  38.992   1.183
93623W        W65883  29.015  31.913   9.765
93624W        W65884   3.260   1.355   1.686
93625W        W65885  32.555  31.885   3.120
93626W        W65886  25.932  30.842  14.527
93627W        W65887  13.053  38.999  12.153
93628W        W65888  14.481   5.777  10.677
93629W        W65889  22.799  37.575   4.192
93630W        W65890   0.224  43.404   1.340
93631W        W65891  16.827  26.514   0.400
93632W        W65892  28.866   0.450  11.236
93633W        W65893  22.780  43.858   2.262
93634W        W65894  37.775  14.266   3.826
93635W        W65895  11.909  17.225  10.692
93636W        W65896  15.187  33.980  11.227
93637W        W65897   7.290   5.637  11.910
93638W        W65898  28.876  10.285  13.866
93639W        W65899  41.438  21.398   4.922
93640W        W65900  18.686  21.062   1.976
93641W        W65901  37.529  36.883  10.687
93642W        W65902  13.036  27.492   3.672
93643W        W65903  34.087   6.395   1.870
93644W        W65904   2.864  10.428  12.236
93645W        W65905  15.713  12.971   0.446
93646W        W65906  27.573  13.978  10.605
93647W        W65907  35.858  44.779   1.565
93648W        W65908  35.298  43.904   2.397
93649W        W65909   3.124   4.376  11.034
93650W        W65910   9.308  21.154  12.982
93651W        W65911   6.126  42.463   4.694
93652W        W65912   8.264  16.710   4.651
93653W        W65913   1.229  24.478  10.846
93654W        W65914   8.909  26.139  13.956
93655W        W65915  24.309  30.495   4.995
93656W        W65916  36.083  42.257  13.587
93657W        W65917  42.799  42.193  10.527
93658W        W65918  12.720  43.827  12.584
93659W        W65919  13.189  36.598   4.363
93660W        W65920  27.880  24.599   1.080
93661W        W65921  28.640  43.897  12.170
93662W        W65922  25.058  32.876   3.180
93663W        W65923  13.685  40.765  10.748
93664W        W65924   0.777  30.604  12.990
93665W        W65925  10.195  39.423  14.938
93666W        W65926   0.225  35.774   1.865
93667W        W65927  42.360  35.486  10.924
93668W        W65928   2.656  44.025  14.410
93669W        W65929  18.717  40.828  11.558
93670W        W65930  43.371  44.081  13.909
93671W        W65931  24.189  10.216  11.134
93672W        W65932  30.482  13.823   1.162
93673W        W65933  17.858  38.173   0.860
93674W        W65934  41.499   6.455  14.851
93675W        W65935   5.151  44.808  11.574
93676W        W65936   1.430  21.679  12.534
93677W        W65937  14.587  44.431   1.476
93678W        W65938  16.320  24.598  14.925
93679W        W65939   5.342  10.574   2.670
93680W        W65940  36.083  17.211   0.287
93681W        W65941  16.290  16.794   2.880
93682W        W65942   0.464  24.980   4.522
93683W        W65943   0.348  32.410  14.918
93684W        W65944  36.982   4.186   4.426
93685W        W65945  21.587   7.368   3.320
93686W        W65946  33.014  11.350  14.856
93687W        W65947  44.983   9.709   1.399
93688W        W65948  22.109  30.834  14.317
93689W        W65949  44.947  23.029  14.881
93690W        W65950  15.578  38.024   3.788
93691W        W65951  42.851   5.309   2.078
93692W        W65952  28.464  38.985   1.775
93693W        W65953  35.381  16.827  12.117
93694W        W65954   7.892  18.379   3.696
93695W        W65955  31.438  33.881   4.373
93696W        W65956   7.914  10.647   1.406
93697W        W65957  39.840  43.375   2.427
93698W        W65958   1.490  30.891   2.145
93699W        W65959  11.312  37.057  12.414
93700W        W65960   2.882  32.964   0.320
93701W        W65961  43.432  19.648  11.938
93702W        W65962  37.669   0.470   0.468
93703W        W65963  17.552  39.436   3.684
93704W        W65964  18.278   7.650  14.864
93705W        W65965  28.092  22.488  12.671
93706W        W65966   5.671  18.646  13.500
93707W        W65967  28.475   3.997   1.308
93708W        W65968  34.957  39.670   3.131
93709W        W65969  11.822  19.354  11.202
93710W        W65970  14.915  38.522   3.959
93711W        W65971  42.730  16.711  12.884
93712W        W65972  43.543  20.556  12.505
93713W        W65973  33.883  14.291   3.882
93714W        W65974  20.681   7.399   1.353
93715W        W65975  36.329  40.570  13.831
93716W        W65976  42.187  32.750  12.849
93717W        W65977  11.879   2.253   9.864
93718W        W65978  13.764  26.658   2.214
93719W        W65979  21.768  41.809  11.406
93720W        W65980  11.660  20.967   0.555
93721W        W65981  15.261  17.657   5.659
93722W        W65982  20.896  15.500   0.490
93723W        W65983  28.607  26.362   1.953
93724W        W65984  13.821   7.370  13.272
93725W        W65985  26.110  12.864   3.366
93726W        W65986   3.254   6.142  12.401
93727W        W65987  18.052  25.758  11.534
93728W        W65988  19.532  31.978  13.305
93729W        W65989  35.040  22.736   2.480
93730W        W65990  38.468   6.400  13.915
93731W        W65991   5.230  12.622  11.486
93732W        W65992  20.816  31.046  12.448
93733W        W65993  39.232   2.688  12.919
93734W        W65994  18.363  23.068  14.815
93735W        W65995  33.211  15.075  14.293
93736W        W65996  31.406  35.506  12.085
93737W        W65997   3.504  23.515  14.422
93738W        W65998  41.380  19.480  12.564
93739W        W65999  15.515   7.662  12.445
93740W        W66000  31.361  34.330  14.368
93741W        W66001   5.381  29.199   3.286
93742W        W66002  20.156   7.919   0.324
93743W        W66003  33.911  44.881   3.676
93744W        W66004  18.503  31.079   2.262
93745W        W66005  22.337  28.063  11.570
93746W        W66006   2.475  34.894  14.804
93747W        W66007   1.306  31.915  11.156
93748W        W66008  44.106  17.504  14.689
93749W        W66009  15.046  26.610  12.111
93750W        W66010  31.388  43.891  12.911
93751W        W66011  21.080  19.207  11.380
93752W        W66012  41.832   4.799  10.716
93753W        W66013  19.033  29.633   0.714
93754W        W66014   0.262  10.824   0.830
93755W        W66015   7.510   6.756   1.691
93756W        W66016  22.194  15.439  10.620
93757W        W66017  36.052  37.841   0.682
93758W        W66018   6.350  21.002  12.412
93759W        W66019  35.584  40.947   4.128
93760W        W66020   1.404   1.498   1.244
93761W        W66021  15.325  16.682  14.390
93762W        W66022  35.968  30.565   1.283
93763W        W66023  20.026   8.645  14.200
93764W        W66024  18.535  13.377   3.654
93765W        W66025  36.475  33.398   4.924
93766W        W66026  44.867  42.772  12.027
93767W        W66027   3.537  15.581   3.698
93768W        W66028  31.404  42.823   1.045
93769W        W66029  22.836  32.513   3.257
93770W        W66030  20.460  17.728   1.638
93771W        W66031  19.767  17.591  14.399
93772W        W66032  23.387  25.160  13.054
93773W        W66033   1.248  36.897   2.577
93774W        W66034  10.993  33.273   0.717
93775W        W66035  40.788  43.308   3.966
93776W        W66036  30.148  19.476   4.104
93777W        W66037  43.948   8.919   0.239
93778W        W66038  17.070  41.868   0.415
93779W        W66039  25.030  43.250   0.770
93780W        W66040  16.754   4.181   4.130
93781W        W66041  15.523  12.390  12.503
93782W        W66042   3.882  37.979  14.482
93783W        W66043  27.735  23.036   3.615
93784W        W66044  17.620   5.935  12.426
93785W        W66045  29.333  14.259  11.801
93786W        W66046  31.200   7.935  13.228
93787W        W66047  15.204  28.251   3.736
93788W        W66048  33.041  18.644  14.233
93789W        W66049   9.684  39.214   4.664
93790W        W66050  37.588   0.570   4.195
93791W        W66051   4.761  40.009  12.002
93792W        W66052  28.121  40.939   0.907
93793W        W66053  12.229  40.382  10.703
93794W        W66054  31.363  28.503  11.037
93795W        W66055  19.606   5.555   5.738
93796W        W66056  21.556  40.579  11.983
93797W        W66057  36.372  44.375   2.914
93798W        W66058   2.384  19.107  13.224
93799W        W66059  21.397  40.000   2.296
93800W        W66060  10.190  18.374   2.837
93801W        W66061  23.217   8.696  12.415
93802W        W66062  23.446   5.153  14.741
93803W        W66063  40.420   6.656  10.597
93804W        W66064  26.513  35.689  12.060
93805W        W66065  37.314  41.511  12.428
93806W        W66066  16.516  28.341  14.865
93807W        W66067  13.082  37.122   0.865
93808W        W66068  11.930  25.506   3.871
93809W        W66069  31.087  24.212   2.718
93810W        W66070   5.537   3.630   0.392
93811W        W66071  16.737  21.603  11.153
93812W        W66072  40.744  19.171   0.315
93813W        W66073  43.908   2.268   4.531
93814W        W66074  13.768  17.582   2.701
93815W        W66075  24.690  17.905  12.890
93816W        W66076  18.579  29.623   0.438
93817W        W66077  29.578  29.068   0.259
93818W        W66078  33.057   1.331   1.265
93819W        W66079  19.409  20.032   0.109
93820W        W66080   9.279  17.652   0.622
93821W        W66081   9.459  14.763  11.925
93822W        W66082   8.664  44.249   2.280
93823W        W66083  20.114  23.192  10.619
93824W        W66084  37.008  22.211  11.912
93825W        W66085  34.901  18.803   3.207
93826W        W66086  15.745  32.665   0.201
93827W        W66087  30.141  37.336  13.118
93828W        W66088  28.216  41.751   0.085
93829W        W66089  13.378  17.525   0.800
93830W        W66090   5.658  15.923   2.709
93831W        W66091  35.963  10.206   0.548
93832W        W66092  11.671  39.352   4.221
93833W        W66093  39.935  12.170   4.399
93834W        W66094  40.869   3.441  11.206
93835W        W66095   5.050  35.233   4.140
93836W        W66096  30.648  30.043   3.159
93837W        W66097  14.195  23.141   0.447
93838W        W66098   8.548  42.008   1.018
93839W        W66099  34.076  43.744   0.851
93840W        W66100   7.490  42.073  13.368
93841W        W66101  11.041  17.126   3.764
93842W        W66102  15.366  42.357   1.400
93843W        W66103  29.513  14.732  13.127
93844W        W66104  20.707  32.293  12.906
93845W        W66105  18.324  16.244  13.896
93846W        W66106  36.376   1.452   2.071
93847W        W66107  10.746   8.392   4.229
93848W        W66108  34.403  35.455   2.782
93849W        W66109  39.792   4.366  10.914
93850W        W66110  33.947  34.055   3.365
93851W        W66111  39.854   4.545  14.578
93852W        W66112  23.710  30.462   2.682
93853W        W66113  43.030   7.176   2.238
93854W        W66114  37.339   1.691  11.955
93855W        W66115  22.050   1.552   2.261
93856W        W66116   3.239   7.608   3.708
93857W        W66117   2.657  31.093  10.719
93858W        W66118   3.381  24.620   3.130
93859W        W66119  25.177  28.047  11.007
93860W        W66120   7.697  13.864  13.920
93861W        W66121  18.773  27.034  12.517
93862W        W66122  36.973  44.359  14.267
93863W        W66123  26.399   1.040   3.212
93864W        W66124  10.301  40.444  13.972
93865W        W66125   7.795  17.088  11.240
93866W        W66126   9.626  42.726   1.219
93867W        W66127  11.886  11.303  14.469
93868W        W66128  19.186   8.043   3.676
93869W        W66129  17.738  37.240  11.849
93870W        W66130  19.054  36.145  12.317
93871W        W66131  10.465  13.648   1.320
93872W        W66132   1.297  32.870   4.100
93873W        W66133  12.198  31.033   3.156
93874W        W66134  19.027  34.012  14.950
93875W        W66135  12.071   6.997   2.392
93876W        W66136   1.604  16.656   2.324
93877W        W66137  18.058   1.498  13.823
93878W        W66138   6.711  39.936   4.669
93879W        W66139  37.978  15.790  10.427
93880W        W66140  29.061  42.752  12.418
93881W        W66141   3.083  25.679  12.836
93882W        W66142   6.514  23.535  14.993
93883W        W66143  27.417  39.448   0.383
93884W        W66144  30.401  15.564   4.112
93885W        W66145  35.186  28.119  12.017
93886W        W66146  16.191   6.855  14.830
93887W        W66147  42.301  23.637   4.145
93888W        W66148  40.397  28.334   2.860
93889W        W66149  18.310  23.088  13.020
93890W        W66150   6.677  26.722   1.608
93891W        W66151   8.939   8.769  12.563
93892W        W66152  18.307  21.840   4.084
93893W        W66153   3.906  26.415   3.062
93894W        W66154  42.117  44.900   3.202
93895W        W66155   0.212   4.189  10.770
93896W        W66156  33.669  39.557  11.120
93897W        W66157  14.106  43.466  11.516
93898W        W66158  14.275  21.617  11.409
93899W        W66159  26.655  18.791  14.743
93900W        W66160  21.113  44.675  12.502
93901W        W66161  13.902  18.566   0.224
93902W        W66162  35.393  12.113  13.475
93903W        W66163   0.524   1.948   3.373
93904W        W66164  44.652  44.942  14.315
93905W        W66165  40.790  35.962  11.142
93906W        W66166  26.136  31.521  10.737
93907W        W66167  15.400  34.887  10.381
93908W        W66168  11.654  16.242   0.410
93909W        W66169  34.515  43.847   3.705
93910W        W66170  28.438  10.011  10.163
93911W        W66171  29.753  31.961   3.853
93912W        W66172  25.911  30.196  12.893
93913W        W66173  29.484  11.129  13.112
93914W        W66174  22.011   8.665  10.840
93915W        W66175  21.793   8.810  14.383
93916W        W66176  35.355  31.036   0.658
93917W        W66177  14.733   8.547  10.583
93918W        W66178  36.561  38.965  13.080
93919W        W66179   4.623  34.418  10.263
93920W        W66180  43.704  29.190  11.167
93921W        W66181  24.099  32.570   2.266
93922W        W66182  20.052  13.502  14.069
93923W        W66183  25.228  36.511  13.335
93924W        W66184  41.007  33.300  10.640
93925W        W66185  16.468  10.403   0.524
93926W        W66186  11.726  44.739  10.292
93927W        W66187  29.224  21.036   1.560
93928W        W66188   7.927   0.668  10.689
93929W        W66189  44.766  11.701   4.830
93930W        W66190  31.012   6.004  14.028
93931W        W66191  27.305  35.783   1.647
93932W        W66192   3.783   3.489   1.709
93933W        W66193  12.402  40.581  12.003
93934W        W66194  28.237  22.169   1.767
93935W        W66195  14.525  19.747  11.106
93936W        W66196  31.192  26.568  13.498
93937W        W66197  36.654  42.325   1.050
93938W        W66198  34.339   0.724  11.170
93939W        W66199  40.962  33.535  12.895
93940W        W66200  40.511  25.241   1.743
93941W        W66201  21.282  33.653   0.932
93942W        W66202  40.279   3.973  13.407
93943W        W66203  35.532  12.083  14.979
93944W        W66204  30.159   6.277   2.932
93945W        W66205  44.934  37.800  13.854
93946W        W66206  24.344  16.757   1.437
93947W        W66207  24.234  44.103   1.896
93948W        W66208  17.517  30.892   2.079
93949W        W66209  18.055  41.791   4.111
93950W        W66210  32.105  10.400  13.467
93951W        W66211  14.259  27.511  10.156
93952W        W66212  34.662  28.976  14.330
93953W        W66213   5.817  21.998  11.021
93954W        W66214  33.538  23.969   3.687
93955W        W66215  32.486  19.932  14.813
93956W        W66216  22.208  21.265   4.528
93957W        W66217  36.511  40.307   1.501
93958W        W66218  18.973  35.188   1.758
93959W        W66219   0.396  34.032  12.095
93960W        W66220   1.440  22.108  11.698
93961W        W66221  22.179  17.770   2.921
93962W        W66222  10.143  33.938  12.143
93963W        W66223   3.452  37.468   2.318
93964W        W66224  42.914   3.717  14.527
93965W        W66225  24.303  33.978   1.814
93966W        W66226  37.529  41.306  13.846
93967W        W66227  23.430  33.871   2.661
93968W        W66228  37.415  36.560  11.117
93969W        W66229  36.567  30.168   0.845
93970W        W66230   2.942  37.424   0.294
93971W        W66231  33.001  20.624   3.245
93972W        W66232  22.096  37.465  11.974
93973W        W66233  24.054  30.976   3.155
93974W        W66234  44.526  22.238   3.200
93975W        W66235   8.521  35.664   1.815
93976W        W66236  41.287   1.980  12.474
93977W        W66237  34.172  26.498   4.551
93978W        W66238  18.741   4.418   0.290
93979W        W66239  37.328  24.051   4.061
93980W        W66240   5.280  17.311   4.061
93981W        W66241   6.454  31.161   4.145
93982W        W66242  43.825  15.682  12.216
93983W        W66243  19.637  32.299   0.468
93984W        W66244  27.725   7.841  14.500
93985W        W66245   1.257  12.590   3.654
93986W        W66246   5.639   3.229   2.761
93987W        W66247  37.594   3.637  14.276
93988W        W66248  44.969  23.380   2.667
93989W        W66249  38.781  44.159   3.978
93990W        W66250  12.437  23.366  14.030
93991W        W66251  14.547  30.525   2.755
93992W        W66252   9.169   7.319  11.864
93993W        W66253  11.450   4.127  11.628
93994W        W66254   3.899  16.849  10.010
93995W        W66255   6.944  32.394  11.607
93996W        W66256   5.891  29.493   3.590
93997W        W66257   8.611  31.503   2.714
93998W        W66258  15.005  30.023   2.467
93999W        W66259  22.482  21.711  13.051
94000W        W66260  37.874   3.077   4.038
94001W        W66261   6.534   3.003   0.515
94002W        W66262  33.646   2.958  11.528
94003W        W66263  25.450  35.676   5.105
94004W        W66264  39.564  44.781  14.890
94005W        W66265  38.951  27.353  12.605
94006W        W66266   9.180  32.079  12.411
94007W        W66267   5.687  34.916  13.901
94008W        W66268  38.430  42.828   4.585
94009W        W66269  18.777  40.881  10.650
94010W        W66270  35.197   3.887   2.020
94011W        W66271  22.639  12.485  13.588
94012W        W66272  22.702  18.035  11.015
94013W        W66273  19.079  34.988  13.741
94014W        W66274  34.533  25.093   0.783
94015W        W66275   0.755  30.478  14.343
94016W        W66276  19.484  12.458  13.034
94017W        W66277   1.455   0.187  10.939
94018W        W66278  19.120  24.374  11.282
94019W        W66279  38.038  17.055   4.671
94020W        W66280  16.760  41.714   0.016
94021W        W66281  39.588   9.422   4.612
94022W        W66282  13.542   0.426  12.091
94023W        W66283  40.600  21.615  14.205
94024W        W66284  24.161  14.278  14.305
94025W        W66285  17.550   0.459  11.577
94026W        W66286   5.931  13.278  13.982
94027W        W66287  12.118   5.617  12.512
94028W        W66288  14.545   7.199   4.207
94029W        W66289  37.427  27.044   1.845
94030W        W66290  30.541  32.274  11.960
94031W        W66291  20.525  21.271  11.406
94032W        W66292  26.579  35.056  10.579
94033W        W66293  27.395  36.106   0.930
94034W        W66294  16.483  25.091   0.205
94035W        W66295  15.778  30.335  11.976
94036W        W66296   4.312   3.106  12.807
94037W        W66297   3.872  34.261  13.104
94038W        W66298   2.322   2.802  13.318
94039W        W66299  21.233  19.633  14.475
94040W        W66300  14.663   4.436   2.398
94041W        W66301  29.885  29.444   0.010
94042W        W66302  20.231   4.165   1.412
94043W        W66303  41.481  38.863  14.271
94044W        W66304  36.513  12.870  11.164
94045W        W66305  33.903  15.656  11.985
94046W        W66306   3.691  33.379   3.332
94047W        W66307   0.572  11.775  11.111
94048W        W66308  13.841  17.687  13.533
94049W        W66309   4.699  12.270   0.431
94050W        W66310   3.801   0.397   1.163
94051W        W66311  35.002  19.755   2.893
94052W        W66312  11.787  11.377   4.198
94053W        W66313  29.063  24.796  14.081
94054W        W66314   7.652  10.601   3.420
94055W        W66315   9.838  22.629  11.776
94056W        W66316  31.496  22.749   1.610
94057W        W66317  18.346  22.836  14.063
94058W        W66318  10.490  11.687   2.755
94059W        W66319  43.639  32.193  13.852
94060W        W66320  36.009   3.694  10.966
94061W        W66321  17.310  37.537  11.997
94062W        W66322  37.819  31.344  14.760
94063W        W66323   2.703  29.865   0.326
94064W        W66324   2.420  42.514   0.567
94065W        W66325   2.551  10.832   4.413
94066W        W66326  17.234  24.231   2.587
94067W        W66327   4.365  23.136   0.706
94068W        W66328  42.813  30.381   1.413
94069W        W66329   8.133  20.691   2.769
94070W        W66330  39.761  18.184   0.714
94071W        W66331   0.371  41.267  10.697
94072W        W66332  43.860   2.023   3.238
94073W        W66333  29.678  31.166   0.037
94074W        W66334  26.771   1.145   0.114
94075W        W66335  38.240   8.775   2.200
94076W        W66336   9.458  37.477  13.521
94077W        W66337  22.806  40.829  12.134
94078W        W66338  32.680  28.975   3.673
94079W        W66339  18.043  17.196  11.922
94080W        W66340  42.484  18.108  12.548
94081W        W66341  32.192   6.749  11.621
94082W        W66342  31.560  17.753  14.789
94083W        W66343  27.895  14.945   0.357
94084W        W66344   6.519  43.773   3.230
94085W        W66345  40.060  38.560  11.474
94086W        W66346  33.379  29.437   2.325
94087W        W66347  23.066  43.403   0.969
94088W        W66348  23.577   6.947  12.474
94089W        W66349  10.234  44.968  14.052
94090W        W66350   6.917  31.181   3.510
94091W        W66351  14.079  11.143  11.609
94092W        W66352  21.096  44.039   2.260
94093W        W66353  28.957  35.899  10.758
94094W        W66354  34.046  42.276   0.973
94095W        W66355  33.326  15.321  11.883
94096W        W66356  18.080  20.406  12.878
94097W        W66357   7.429  33.121   4.153
94098W        W66358   4.418  26.657  11.151
94099W        W66359   0.504   9.300  11.973
94100W        W66360  30.999  41.211  11.257
94101W        W66361  39.487  40.629   0.712
94102W        W66362  36.787   0.925   4.384
94103W        W66363  28.602  20.424  14.864
94104W        W66364  37.116   4.935  11.615
94105W        W66365   4.819  28.885   1.669
94106W        W66366  26.226  17.760   3.882
94107W        W66367   2.256  32.514   4.868
94108W        W66368  15.290  24.700   1.401
94109W        W66369  15.844  42.820   0.016
94110W        W66370  13.105  11.487   3.782
94111W        W66371   8.357  26.712   1.091
94112W        W66372  17.230   7.278   1.023
94113W        W66373  42.751  18.088  11.170
94114W        W66374  17.559  19.039  10.469
94115W        W66375  40.777   7.129  11.639
94116W        W66376  13.309  10.112  11.644
94117W        W66377  41.984  12.045   0.765
94118W        W66378  10.186  43.059  10.758
94119W        W66379  17.612  21.957   2.095
94120W        W66380  34.175  25.277   4.283
94121W        W66381  26.718   6.969  13.462
94122W        W66382  32.385  14.004   4.170
94123W        W66383  20.401  36.035  11.935
94124W        W66384   4.619  43.809  10.223
94125W        W66385   4.266  20.980   0.319
94126W        W66386  37.859  37.653  12.461
94127W        W66387  24.545  30.883   1.992
94128W        W66388  33.463  29.115  13.529
94129W        W66389  27.174  26.115  14.535
94130W        W66390  16.830  37.550   2.722
94131W        W66391  29.433   1.235   1.899
94132W        W66392  29.178  30.609  10.306
94133W        W66393  30.642   4.633  12.549
94134W        W66394  19.269  28.157   0.787
94135W        W66395  10.053  34.675  10.182
94136W        W66396  15.224  35.538  11.639
94137W        W66397  23.017   2.355   4.566
94138W        W66398  30.346  30.591  14.480
94139W        W66399   6.846  40.813  12.511
94140W        W66400  38.562   3.889  13.340
94141W        W66401  31.015  21.305   5.071
94142W        W66402  29.405  16.212   1.339
94143W        W66403   7.666  13.245  12.345
94144W        W66404  21.015  30.996   0.466
94145W        W66405  31.588   4.073  10.727
94146W        W66406   2.695  34.584   1.029
94147W        W66407  27.115  41.572  14.427
94148W        W66408  43.005  44.692   2.319
94149W        W66409  33.071   7.910   1.234
94150W        W66410   0.276  19.341   4.026
94151W        W66411  36.054  30.317   4.878
94152W        W66412  43.743  33.017   2.884
94153W        W66413  27.449  18.319   3.587
94154W        W66414  27.522  12.504  12.232
94155W        W66415  16.663  19.143  14.466
94156W        W66416  10.454  20.200   2.814
94157W        W66417  29.831   7.366  12.915
94158W        W66418   8.619  33.381  14.287
94159W        W66419  26.947  20.136   1.775
94160W        W66420  15.570  19.525   4.160
94161W        W66421  31.812  28.396  10.803
94162W        W66422  32.397  44.528   1.785
94163W        W66423  15.652  35.131   0.900
94164W        W66424  43.966  32.597   3.586
94165W        W66425  26.256  28.764   2.173
94166W        W66426  26.545  12.492  12.440
94167W        W66427  28.145   2.725   0.034
94168W        W66428  43.466   4.785  13.084
94169W        W66429  38.613   9.323   3.328
94170W        W66430   3.182  19.270   0.916
94171W        W66431  20.637  35.778   2.425
94172W        W66432  18.131   4.214   3.473
94173W        W66433  39.836  40.430   1.302
94174W        W66434  44.224   5.006   4.177
94175W        W66435   2.446   5.152  14.038
94176W        W66436  19.144  42.796  11.118
94177W        W66437  40.396   0.114  13.008
94178W        W66438  38.053   5.807  10.979
94179W        W66439  39.449  37.615   4.215
94180W        W66440  31.807  37.282   2.198
94181W        W66441  36.455   3.441  10.912
94182W        W66442  27.942  41.271   2.725
94183W        W66443  19.864  24.014  12.961
94184W        W66444  17.107  34.118   1.184
94185W        W66445  19.620  31.484   3.266
94186W        W66446  24.776  36.469  11.910
94187W        W66447  29.439  15.761   1.647
94188W        W66448   2.893  30.921   1.712
94189W        W66449  39.405  26.207  11.633
94190W        W66450  17.718  23.526   2.108
94191W        W66451  11.493  18.679   1.366
94192W        W66452  38.628  29.049  12.798
94193W        W66453  29.099  34.146   1.781
94194W        W66454   1.717  20.292  14.910
94195W        W66455  18.638  24.283   3.696
94196W        W66456  41.779  19.741   3.725
94197W        W66457   4.307  28.767   1.767
94198W        W66458  34.370  22.348  11.617
94199W        W66459  28.109  37.787   3.427
94200W        W66460  39.471   3.451  12.489
94201W        W66461  38.018  42.475  14.231
94202W        W66462  13.770   8.192   2.326
94203W        W66463  32.873  36.363  11.160
94204W        W66464  39.157  32.947  13.444
94205W        W66465  11.770  31.877   4.573
94206W        W66466  19.613  24.026   1.335
94207W        W66467  33.375  42.446  11.266
94208W        W66468  11.118  19.733  12.548
94209W        W66469  22.806   0.455   0.713
94210W        W66470   8.109  19.821  11.084
94211W        W66471   9.125  30.075   2.338
94212W        W66472  35.697  21.177   3.615
94213W        W66473  10.594  38.376  11.579
94214W        W66474  16.557  26.498  13.976
94215W        W66475  20.007  33.018   0.900
94216W        W66476  36.848   3.828   1.358
94217W        W66477  17.019  25.598  10.035
94218W        W66478  13.694  20.979   4.783
94219W        W66479  43.049  16.701  10.683
94220W        W66480  27.040  11.162  14.688
94221W        W66481  28.020  23.963  12.557
94222W        W66482  23.750   7.618  14.483
94223W        W66483  10.211  30.623   4.923
94224W        W66484  34.132  29.468   3.614
94225W        W66485   5.338  43.285  10.641
94226W        W66486  33.639  15.744  12.603
94227W        W66487   7.236  28.931   4.377
94228W        W66488  24.781  25.373   1.779
94229W        W66489  29.741  16.969  13.870
94230W        W66490  25.174  35.983   3.358
94231W        W66491  36.802  24.072  13.256
94232W        W66492  31.068  20.837   3.837
94233W        W66493  33.540  36.805  14.961
94234W        W66494  12.029  22.055  14.175
94235W        W66495   7.047  22.141  10.639
94236W        W66496  37.075  16.217   3.956
94237W        W66497  26.281  14.061  10.322
94238W        W66498  31.919  13.777   2.023
94239W        W66499   7.793  19.391  14.638
94240W        W66500   8.261  22.052   2.598
94241W        W66501  37.282  41.793  11.974
94242W        W66502  43.334  38.272  13.422
94243W        W66503  26.416  13.277   3.214
94244W        W66504  11.833  21.324  10.050
94245W        W66505   0.215  34.538   2.719
94246W        W66506  19.667   2.666   2.420
94247W        W66507  40.071  28.956  12.087
94248W        W66508  24.154  11.059  11.167
94249W        W66509  20.162  30.257  12.508
94250W        W66510  42.011  19.089   2.468
94251W        W66511  24.942  15.727   4.836
94252W        W66512  10.173  37.087  14.330
94253W        W66513   3.778   2.734   2.171
94254W        W66514   6.342  15.706  12.767
94255W        W66515  17.878   7.290   5.319
94256W        W66516  30.406  21.725  12.041
94257W        W66517  42.865   7.124  12.369
94258W        W66518  19.735   7.746  10.192
94259W        W66519  40.816  41.551  13.370
94260W        W66520  27.281  43.327  14.432
94261W        W66521   1.831  29.487   1.956
94262W        W66522  29.255   5.147  12.567
94263W        W66523  43.727  15.065  11.643
94264W        W66524  18.361   3.993  12.518
94265W        W66525  11.234  20.272   4.135
94266W        W66526   4.613  26.840   2.735
94267W        W66527  35.630  39.400  14.105
94268W        W66528   9.878  23.186   4.592
94269W        W66529  36.941  18.582   4.153
94270W        W66530   1.941  22.449  12.226
94271W        W66531  22.701  19.946  12.351
94272W        W66532   2.163  27.050  12.527
94273W        W66533  42.938  13.481  12.999
94274W        W66534  19.286  42.596  10.655
94275W        W66535  42.732  41.026   3.632
94276W        W66536  25.305  32.485  13.192
94277W        W66537  43.929   0.434   3.630
94278W        W66538  11.389   3.826   1.820
94279W        W66539  26.700  20.614   2.329
94280W        W66540   5.136  21.776  11.632
94281W        W66541  22.543   7.821  11.148
94282W        W66542  11.416  14.545   3.729
94283W        W66543  18.245   6.915   0.503
94284W        W66544   5.211  26.975  10.955
94285W        W66545  11.592   8.807  12.964
94286W        W66546  15.576   7.722  10.697
94287W        W66547  29.708   7.173   2.665
94288W        W66548  37.830  34.326  12.948
94289W        W66549   0.277  39.970   3.196
94290W        W66550  23.339  23.010   2.742
94291W        W66551   8.832  34.639   3.747
94292W        W66552  18.593   1.825   4.536
94293W        W66553  38.485  11.852  14.289
94294W        W66554  20.231  26.277   4.636
94295W        W66555  43.389  10.406  12.695
94296W        W66556  24.987  12.651  11.609
94297W        W66557   9.427   6.147   0.864
94298W        W66558  39.197  29.204   3.616
94299W        W66559  32.148   2.808  14.424
94300W        W66560  13.701  24.282  12.686
94301W        W66561  10.618  25.526  14.458
94302W        W66562   3.876  18.730  13.379
94303W        W66563   7.750  42.853   4.525
94304W        W66564  13.611  30.877   0.907
94305W        W66565  40.656  39.213  13.975
94306W        W66566  31.910  28.624   1.341
94307W        W66567  16.419  29.516   2.655
94308W        W66568  19.059  17.807   3.806
94309W        W66569  34.806  40.938   2.710
94310W        W66570  12.630  11.139  13.247
94311W        W66571  17.799   9.044  12.322
94312W        W66572  42.978   1.254  14.679
94313W        W66573  20.564  29.125   1.681
94314W        W66574   0.895   1.437  12.058
94315W        W66575  20.533  38.607  13.431
94316W        W66576   1.559  24.500  13.910
94317W        W66577  38.347  33.140  12.467
94318W        W66578  15.992   3.652   2.609
94319W        W66579  32.528  14.778   4.900
94320W        W66580  14.164  11.388  12.569
94321W        W66581  12.819  37.780   3.390
94322W        W66582  17.588   2.232  10.419
94323W        W66583   4.400  27.555   3.188
94324W        W66584  21.307  20.797   5.084
94325W        W66585  22.789  42.827  10.126
94326W        W66586  26.711  37.301   3.896
94327W        W66587  11.043  22.729   4.402
94328W        W66588  33.335   7.822   3.671
94329W        W66589  18.203  10.082  12.061
94330W        W66590  28.487   2.672   2.326
94331W        W66591  41.859  12.239  13.101
94332W        W66592  37.515  14.879  12.632
94333W        W66593   1.812  13.607  11.609
94334W        W66594  11.256  25.633  13.179
94335W        W66595  20.692  28.492   4.681
94336W        W66596  43.256  15.772  13.018
94337W        W66597   8.240  41.042   2.109
94338W        W66598   1.465  19.911   2.620
94339W        W66599   7.737  25.936  10.982
94340W        W66600  30.778  13.094  13.553
94341W        W66601  34.542  26.491  14.815
94342W        W66602  29.429  33.841   2.333
94343W        W66603  17.129  33.699  13.937
94344W        W66604  31.071  36.940  14.844
94345W        W66605  23.978  15.553  11.066
94346W        W66606  42.414   1.625   4.597
94347W        W66607  11.221  28.211   3.745
94348W        W66608  18.656  28.844   4.198
94349W        W66609  29.585   6.145   4.196
94350W        W66610  33.854  12.844   0.510
94351W        W66611  24.646  21.122   3.287
94352W        W66612  44.694  16.652   2.823
94353W        W66613  35.667   5.236  12.552
94354W        W66614  14.833  26.702  14.384
94355W        W66615  28.826  32.996  12.665
94356W        W66616  41.946  19.405   3.355
94357W        W66617   0.194   8.766  13.090
94358W        W66618  36.038  12.099  11.474
94359W        W66619  41.328  32.432  12.060
94360W        W66620  23.062  34.578  13.413
94361W        W66621  33.894   1.749  13.965
94362W        W66622   4.338  29.029   4.658
94363W        W66623  44.975  22.500   0.141
94364W        W66624  25.135  11.337  11.999
94365W        W66625  36.016  33.215   5.070
94366W        W66626  41.830  23.647   2.782
94367W        W66627   5.410  12.324  14.892
94368W        W66628  26.053   1.962   1.692
94369W        W66629  32.819  33.558  11.930
94370W        W66630   5.223  15.048   4.843
94371W        W66631  20.026  42.747   5.078
94372W        W66632  38.271  29.848   4.513
94373W        W66633  41.068  28.471   1.180
94374W        W66634  37.509  12.020  13.075
94375W        W66635  37.900  21.176  12.471
94376W        W66636  22.166  17.549   1.989
94377W        W66637  16.617  19.087  11.407
94378W        W66638  29.409  23.554  12.277
94379W        W66639  24.842  38.453  14.482
94380W        W66640  42.061  23.923  10.714
94381W        W66641   3.943  39.527  10.415
94382W        W66642  13.704  16.594   5.121
94383W        W66643  11.895  37.497  11.938
94384W        W66644  25.893  23.907  12.936
94385W        W66645  44.930   0.924   1.487
94386W        W66646  40.288  21.772   4.483
94387W        W66647   4.281  19.017  10.524
94388W        W66648  31.082  30.655   0.387
94389W        W66649  16.659  32.284  14.016
94390W        W66650   0.583  41.538   1.915
94391W        W66651  41.548  32.441   3.679
94392W        W66652  15.884  21.564  13.520
94393W        W66653  22.573  31.848  13.370
94394W        W66654  26.652   3.040  11.552
94395W        W66655  40.046  38.491   4.160
94396W        W66656  34.261   1.643   4.183
94397W        W66657  11.014  19.398   0.918
94398W        W66658  24.622  22.556  11.652
94399W        W66659  13.873  37.080  11.557
94400W        W66660   7.817  28.758  13.041
94401W        W66661  32.457  38.079   4.602
94402W        W66662   7.622   8.788  11.017
94403W        W66663  14.177  26.507   2.529
94404W        W66664   3.929  26.687   0.863
94405W        W66665  43.532   0.222  10.826
94406W        W66666  21.544   6.376   3.684
94407W        W66667  30.678   0.820   3.962
94408W        W66668  32.116  34.030   3.668
94409W        W66669   6.812  36.928  12.542
94410W        W66670  38.065  15.158   1.967
94411W        W66671   3.272  36.538   0.441
94412W        W66672  14.144  38.119   1.695
94413W        W66673  15.692  30.868  11.091
94414W        W66674  19.508  23.519   1.935
94415W        W66675  44.433  35.144   2.711
94416W        W66676   5.625  15.711  12.742
94417W        W66677   2.805   3.893   4.561
94418W        W66678  24.591   0.630  11.158
94419W        W66679  19.051  29.505   1.230
94420W        W66680  36.001  23.238  13.917
94421W        W66681  37.997  21.495   2.682
94422W        W66682  12.823  16.190   1.263
94423W        W66683  43.176  26.254   3.588
94424W        W66684  39.366  18.917  12.074
94425W        W66685  35.606   2.718   4.605
94426W        W66686   4.253  39.639   2.253
94427W        W66687  10.666   8.582   1.800
94428W        W66688  33.550   2.732  10.491
94429W        W66689  44.743  13.651   0.491
94430W        W66690  20.520  42.233   3.108
94431W        W66691  13.295  25.480  14.318
94432W        W66692  40.438   6.923   3.283
94433W        W66693  32.589  29.712  10.777
94434W        W66694  22.158  29.471   1.292
94435W        W66695   3.710  35.772  13.392
94436W        W66696  24.052  34.260  12.984
94437W        W66697   5.345  26.308   3.096
94438W        W66698  44.772  17.085   2.566
94439W        W66699   6.306  21.477  13.314
94440W        W66700  10.570  15.537  13.507
94441W        W66701  20.785  43.764   3.756
94442W        W66702   0.482  19.128  14.916
94443W        W66703  26.505   0.570  13.339
94444W        W66704  18.356   1.214   3.149
94445W        W66705  12.265  42.427   0.683
94446W        W66706  31.612  33.526   2.229
94447W        W66707  34.705  18.050   0.788
94448W        W66708  31.417  31.576   4.175
94449W        W66709  21.313  16.707   2.963
94450W        W66710   2.976   7.647  14.464
94451W        W66711  21.542  29.431   4.917
94452W        W66712  35.418  24.097  10.910
94453W        W66713  29.146   8.583   3.354
94454W        W66714  28.679   2.347   1.482
94455W        W66715  27.131  25.315   2.774
94456W        W66716  35.993  44.309  12.762
94457W        W66717  34.910   0.440   3.548
94458W        W66718  32.823  34.454   2.651
94459W        W66719   4.227  14.381  14.344
94460W        W66720  31.033  10.986   0.220
94461W        W66721   7.814   7.405   3.117
94462W        W66722  16.317  18.497   0.447
94463W        W66723  33.299   4.175   1.127
94464W        W66724  25.947  14.596  13.145
94465W        W66725  15.141  31.030   2.428
94466W        W66726  26.597  20.581   1.000
94467W        W66727  26.019   5.835  11.153
94468W        W66728  30.885  19.302   3.588
94469W        W66729  13.086   5.812   1.292
94470W        W66730  21.230  26.177  11.940
94471W        W66731  34.580  42.561  12.545
94472W        W66732  26.312  40.801  11.939
94473W        W66733  23.686   2.322   0.902
94474W        W66734  36.723   9.901   2.246
94475W        W66735  41.338  35.619   2.541
94476W        W66736  23.740  42.389   2.266
94477W        W66737   6.023  23.749  14.851
94478W        W66738  13.771  25.412   4.387
94479W        W66739   4.449  43.834   2.914
94480W        W66740   1.392  15.371   4.674
94481W        W66741  23.521  43.728  14.892
94482W        W66742  41.725  10.783  14.532
94483W        W66743  31.195  20.672  11.998
94484W        W66744  31.527  13.155   3.493
94485W        W66745  18.278  10.134   3.696
94486W        W66746  28.099   8.417  14.008
94487W        W66747  12.275   7.934   2.841
94488W        W66748  33.959   5.782   0.325
94489W        W66749  25.151   0.219  10.721
94490W        W66750  24.183  12.081  11.145
94491W        W66751  27.539  38.984  12.478
94492W        W66752  28.074   4.010  14.073
94493W        W66753   1.469  37.468   0.229
94494W        W66754   6.525   0.891  11.668
94495W        W66755  29.108   7.074   0.927
94496W        W66756  21.673  38.022   1.358
94497W        W66757  41.549  13.580  13.146
94498W        W66758  21.238  43.752   1.430
94499W        W66759  23.727  11.630   3.933
94500W        W66760  39.071  24.897   2.871
94501W        W66761   0.458  44.649   4.215
94502W        W66762  14.644   4.650   1.917
94503W        W66763  27.861  27.494   3.714
94504W        W66764  14.336  26.350  12.484
94505W        W66765  40.030  34.910   4.818
94506W        W66766  32.727  30.686  13.392
94507W        W66767  39.978   2.231  13.443
94508W        W66768  43.624  13.053  14.053
94509W        W66769  27.648  41.162  11.098
94510W        W66770  26.575  29.399   1.184
94511W        W66771  22.190  39.344   2.899
94512W        W66772  30.475  37.433   2.701
94513W        W66773  30.034   6.275   2.417
94514W        W66774  25.178  35.479  10.670
94515W        W66775  26.268  35.022   3.292
94516W        W66776  15.343  38.459   3.655
94517W        W66777  44.034  27.937  14.042
94518W        W66778  44.877   0.011  11.088
94519W        W66779   6.863  32.073   4.572
94520W        W66780  44.738  13.013   1.052
94521W        W66781  10.771  40.871   1.264
94522W        W66782  20.564  11.650   3.629
94523W        W66783  25.541   4.450   0.934
94524W        W66784  15.510  38.444  12.636
94525W        W66785   6.775   8.542  13.975
94526W        W66786  38.708  23.682   2.171
94527W        W66787  21.504  41.781   2.788
94528W        W66788  34.679  30.734  14.949
94529W        W66789   3.731  18.731   1.427
94530W        W66790  43.413   3.286   2.845
94531W        W66791  44.186  40.498   2.278
94532W        W66792  24.507  34.632  13.023
94533W        W66793  40.461   2.900   0.735
94534W        W66794  41.776  34.612   0.799
94535W        W66795  26.763   5.384  13.492
94536W        W66796  22.882  23.049  14.454
94537W        W66797  39.964  11.836  12.836
94538W        W66798  26.567  35.840   0.354
94539W        W66799  13.154  10.507   4.218
94540W        W66800  40.900  21.253   2.054
94541W        W66801  43.707  36.020   1.527
94542W        W66802  32.908  25.463   3.422
94543W        W66803   7.200  24.202   0.905
94544W        W66804  25.551  14.409   3.563
94545W        W66805  22.736  12.875  12.776
94546W        W66806  17.593  37.447  10.660
94547W        W66807  19.276  20.272   0.737
94548W        W66808  38.344   5.173   2.914
94549W        W66809   9.324  36.167  12.432
94550W        W66810  37.073  17.124   1.262
94551W        W66811  31.936  41.593  10.700
94552W        W66812  33.646  24.761   4.085
94553W        W66813  13.388  22.023  10.471
94554W        W66814   7.407  15.151  11.198
94555W        W66815  40.543   7.869   3.343
94556W        W66816  15.414  22.450   2.275
94557W        W66817  31.508  29.760   2.239
94558W        W66818  27.414  20.712   1.190
94559W        W66819  19.031  18.962  12.512
94560W        W66820   4.184  19.200   2.866
94561W        W66821  39.949  10.588   4.626
94562W        W66822   7.715  10.271   4.777
94563W        W66823  26.343  42.151  12.492
94564W        W66824  18.264   0.932  12.898
94565W        W66825   7.382  42.755  12.032
94566W        W66826   0.145  19.783  12.145
94567W        W66827  31.555  38.858  13.219
94568W        W66828  26.269  10.376  12.658
94569W        W66829  41.028  32.192  11.684
94570W        W66830  16.833  22.507   4.883
94571W        W66831  37.106  35.035   4.632
94572W        W66832   0.400   4.348   4.544
94573W        W66833   0.543   7.766   0.973
94574W        W66834  31.620   8.312   0.256
94575W        W66835  31.615  18.067  11.580
94576W        W66836  40.302  32.824   2.618
94577W        W66837  44.443  11.343   3.345
94578W        W66838  37.376  37.996  12.135
94579W        W66839  42.281   1.876  12.701
94580W        W66840  26.559  41.866   2.668
94581W        W66841  41.052  25.875  12.629
94582W        W66842   7.792  16.311  14.038
94583W        W66843  40.924   2.443   4.735
94584W        W66844  42.718   1.430   0.467
94585W        W66845  37.944  14.078  13.786
94586W        W66846  31.929  35.395   3.346
94587W        W66847  40.305   3.075   5.035
94588W        W66848  42.473  12.288   1.651
94589W        W66849   4.434  27.159  10.241
94590W        W66850  27.210   4.215  12.573
94591W        W66851  26.638  36.258  10.844
94592W        W66852  11.350   0.909  13.873
94593W        W66853  13.033  28.344  10.610
94594W        W66854  22.486  22.582   1.181
94595W        W66855  37.116   5.156   1.868
94596W        W66856  37.427   0.955  14.774
94597W        W66857  41.741  36.879  13.854
94598W        W66858  11.186  13.840  10.591
94599W        W66859  12.559  22.914  13.452
94600W        W66860  35.855  21.683  10.877
94601W        W66861   7.305  39.375   4.387
94602W        W66862   0.156  44.267  11.942
94603W        W66863  32.655  11.286  11.117
94604W        W66864  14.573  29.161  13.035
94605W        W66865  35.322  23.638  10.708
94606W        W66866   3.927  23.097  12.049
94607W        W66867   4.221   2.475  14.240
94608W        W66868  37.401  33.029  13.031
94609W        W66869  43.782  41.398  13.365
94610W        W66870  10.703  18.321   0.073
94611W        W66871  18.121   8.162   9.767
94612W        W66872  10.321  34.607   0.963
94613W        W66873   4.778   9.182   3.641
94614W        W66874  29.895   9.030   2.455
94615W        W66875   4.584   8.793   1.661
94616W        W66876  42.802  11.369  14.865
94617W        W66877  30.953  36.569  14.507
94618W        W66878  11.816  35.955  14.364
94619W        W66879  28.203  12.187  14.431
94620W        W66880  24.190   3.375  13.500
94621W        W66881  28.138  24.951   4.083
94622W        W66882   3.933  28.011  14.030
94623W        W66883  26.907  42.268   4.260
94624W        W66884  28.344  17.707   2.353
94625W        W66885  27.631   3.952  13.830
94626W        W66886  16.299  32.057   2.349
94627W        W66887   3.376  19.497   3.181
94628W        W66888  20.605  33.469   0.779
94629W        W66889  18.660  11.159   4.862
94630W        W66890  41.885   1.688  14.427
94631W        W66891  40.562  38.798  14.313
94632W        W66892   4.184  41.550   4.612
94633W        W66893   2.729  37.958   0.194
94634W        W66894  27.250   8.406  13.810
94635W        W66895   4.298  27.944  11.457
94636W        W66896  21.591  42.157   4.472
94637W        W66897  13.367  27.057   3.740
94638W        W66898  23.523  25.568   3.710
94639W        W66899  12.122  23.599   0.380
94640W        W66900   4.603  43.848   0.843
94641W        W66901  42.793  22.935  14.360
94642W        W66902  32.952   5.926  12.356
94643W        W66903  30.717  24.144   3.430
94644W        W66904  12.637  41.340   0.027
94645W        W66905  18.244  20.691  11.603
94646W        W66906  44.578  17.032  11.311
94647W        W66907  42.052  36.462  10.710
94648W        W66908   2.180  32.333   1.801
94649W        W66909   9.557  13.315   3.256
94650W        W66910  18.169  38.779   0.496
94651W        W66911  40.028   9.360  12.588
94652W        W66912  22.567  13.782   4.378
94653W        W66913  31.725  31.883   5.357
94654W        W66914  39.078  35.802   0.823
94655W        W66915  31.518  13.682   1.695
94656W        W66916  44.318   3.416  12.417
94657W        W66917  28.918  11.683  12.819
94658W        W66918  26.408   3.776   0.267
94659W        W66919   7.895  43.398   3.797
94660W        W66920  29.411  19.176   2.421
94661W        W66921  32.991  16.827  14.453
94662W        W66922  31.915  39.742   2.389
94663W        W66923  19.593  42.984  10.928
94664W        W66924  42.092  44.818   2.319
94665W        W66925  15.515  40.860   0.407
94666W        W66926  11.333   4.102  12.989
94667W        W66927  36.899  12.770   3.341
94668W        W66928  23.595  36.004  12.031
94669W        W66929  35.207  18.281  12.956
94670W        W66930  16.257  43.314   3.382
94671W        W66931  27.760  27.057  11.843
94672W        W66932  37.299  40.081   1.234
94673W        W66933   2.648  36.831   2.887
94674W        W66934  20.980  29.169  11.612
94675W        W66935  22.274  27.236   3.617
94676W        W66936  39.836  42.055   3.715
94677W        W66937  41.440  32.021   4.218
94678W        W66938  16.185  31.996  13.999
94679W        W66939  27.557   2.006   3.825
94680W        W66940  44.910  12.873   1.803
94681W        W66941  27.900  33.908   3.459
94682W        W66942   2.725  42.828  11.062
94683W        W66943  44.814  13.756   2.318
94684W        W66944   2.296   3.175  12.419
94685W        W66945  29.910  21.671   4.327
94686W        W66946  20.503   4.056   0.979
94687W        W66947   3.148  17.037  13.722
94688W        W66948  32.889   9.961  11.052
94689W        W66949  34.679  12.582   0.945
94690W        W66950  24.184   5.300   0.298
94691W        W66951  28.300  38.160  11.524
94692W        W66952  43.793   7.664  12.498
94693W        W66953  24.268  14.364  12.911
94694W        W66954  23.388  29.088  12.907
94695W        W66955  10.151  40.913   3.719
94696W        W66956  29.082  10.788   0.010
94697W        W66957  10.599   3.298  12.390
94698W        W66958  35.523  36.329  14.722
94699W        W66959   6.350  12.588   3.625
94700W        W66960  28.445  28.999   2.884
94701W        W66961  21.957  38.607   2.272
94702W        W66962  37.195  14.320  14.453
94703W        W66963  18.358  26.993  14.845
94704W        W66964  11.259  18.168   4.433
94705W        W66965  43.055  30.282  12.793
94706W        W66966  29.402  24.437   4.021
94707W        W66967   6.649  10.268   3.264
94708W        W66968  23.661   5.750  10.802
94709W        W66969  26.722  16.666   1.254
94710W        W66970  30.377  28.315   3.645
94711W        W66971  24.048  16.346   1.301
94712W        W66972  16.059  15.086  10.203
94713W        W66973  10.182  11.559   4.126
94714W        W66974  36.833   9.228   5.092
94715W        W66975  19.453  10.819   0.390
94716W        W66976  42.961  14.504  13.891
94717W        W66977  13.876  21.742   2.837
94718W        W66978  33.925  39.718   1.293
94719W        W66979   5.165  30.476   1.348
94720W        W66980  30.520   0.220   1.772
94721W        W66981   0.290  26.640   1.496
94722W        W66982   4.270  26.495   0.248
94723W        W66983  26.256  17.826   4.394
94724W        W66984   6.892  26.786   2.603
94725W        W66985  21.669  36.467  12.543
94726W        W66986  37.637  15.373  12.552
94727W        W66987  16.929  15.109  11.485
94728W        W66988   7.813  44.493  13.581
94729W        W66989  20.963  15.105   2.257
94730W        W66990  29.138  31.567   2.230
94731W        W66991   5.681  25.095  14.786
94732W        W66992   7.839  18.230   5.086
94733W        W66993   5.904   6.075   3.582
94734W        W66994  41.788  32.902   1.860
94735W        W66995  21.151  11.123  14.765
94736W        W66996  35.846  17.675  14.449
94737W        W66997  32.190  27.150   2.808
94738W        W66998   6.327  36.090   1.429
94739W        W66999  18.463  22.769   2.804
94740W        W67000  44.832  28.491   0.490
94741W        W67001   5.620  24.083  10.714
94742W        W67002  36.205  18.268  12.787
94743W        W67003  21.737  31.744   0.287
94744W        W67004  44.234  19.796  13.473
94745W        W67005  26.032   3.955  10.705
94746W        W67006  41.551  14.627   0.538
94747W        W67007  44.485  36.298  12.681
94748W        W67008  14.210  39.951   2.047
94749W        W67009  37.159  26.302   3.686
94750W        W67010  26.919  41.362   0.442
94751W        W67011  33.833  41.190  14.576
94752W        W67012  19.250  36.160   4.821
94753W        W67013   5.736  31.580  12.942
94754W        W67014  39.306  17.158  12.940
94755W        W67015  22.606  12.586   0.673
94756W        W67016   0.574  16.545  12.957
94757W        W67017  29.961  18.643  13.195
94758W        W67018  32.924  37.967   0.698
94759W        W67019  15.312  20.527   0.685
94760W        W67020   4.358  40.320  12.051
94761W        W67021   8.176  34.498  14.380
94762W        W67022  17.254   0.947  11.584
94763W        W67023  22.532  21.746  10.220
94764W        W67024   5.104  10.280  12.210
94765W        W67025  35.842   3.435   3.092
94766W        W67026   2.777   3.496  13.751
94767W        W67027   3.164  26.042   0.900
94768W        W67028   2.381  26.040   4.843
94769W        W67029  11.096  40.911   2.161
94770W        W67030  13.155  17.039  11.105
94771W        W67031   8.963  43.705  13.743
94772W        W67032  14.729   9.327   2.865
94773W        W67033  29.361  27.402   2.407
94774W        W67034  23.601  31.916   0.249
94775W        W67035   1.352   1.541  12.324
94776W        W67036  27.957  26.484  11.708
94777W        W67037   2.289   3.970   2.294
94778W        W67038  37.416  36.529  12.007
94779W        W67039  25.974  30.324  14.770
94780W        W67040  28.208   3.799  12.011
94781W        W67041  16.646  16.344  11.501
94782W        W67042  40.370   0.358  10.207
94783W        W67043  29.007  20.186  14.527
94784W        W67044   4.951  18.750  12.588
94785W        W67045   0.650   3.275  13.386
94786W        W67046  25.802  23.304  12.694
94787W        W67047  11.395  24.038   2.651
94788W        W67048  37.544  32.630  12.093
94789W        W67049  14.275  11.860  11.113
94790W        W67050  27.050   6.329   0.268
94791W        W67051  12.675  31.721   0.097
94792W        W67052   7.174   0.880   3.683
94793W        W67053  15.557   2.537   3.901
94794W        W67054  42.921  38.056  10.501
94795W        W67055   9.951  41.535   3.733
94796W        W67056  36.031   3.970   2.389
94797W        W67057   4.806  15.093  12.639
94798W        W67058  13.812  11.731  10.850
94799W        W67059  30.679  21.880   1.883
94800W        W67060  32.109  27.264  11.798
94801W        W67061   2.235  27.642   2.236
94802W        W67062   7.851  29.040   1.246
94803W        W67063  20.538  42.619   1.305
94804W        W67064  13.418  18.615   4.980
94805W        W67065  38.596   8.793   0.301
94806W        W67066   6.519  25.725  13.797
94807W        W67067   8.311  30.757  14.046
94808W        W67068  32.787  20.082   3.807
94809W        W67069  15.058  15.382  12.905
94810W        W67070  41.082   4.963  12.942
94811W        W67071   6.628  15.791   4.894
94812W        W67072  14.769  32.358   2.228
94813W        W67073   8.703  16.245  11.486
94814W        W67074  22.781   1.016  11.508
94815W        W67075   9.741  20.628  14.122
94816W        W67076  12.654   7.986  12.408
94817W        W67077  38.037  17.265  12.674
94818W        W67078  30.567  20.774   1.745
94819W        W67079  17.766  20.726   3.668
94820W        W67080  36.321   3.660  14.827
94821W        W67081   2.975   9.606  12.478
94822W        W67082  31.879  14.609  13.364
94823W        W67083  17.424  29.249   3.769
94824W        W67084   4.102  19.482   4.090
94825W        W67085  31.133  10.933   0.730
94826W        W67086  33.571  28.875   3.527
94827W        W67087  18.352  24.782  11.641
94828W        W67088  19.481  18.825   1.670
94829W        W67089   2.910  15.463  12.711
94830W        W67090  29.465  14.656   4.612
94831W        W67091  18.846   8.453   2.953
94832W        W67092   4.000  42.952  14.719
94833W        W67093  19.745   4.911  11.945
94834W        W67094  39.877  22.612  14.789
94835W        W67095  22.450  30.294  14.457
94836W        W67096   8.001  13.928  11.512
94837W        W67097  43.166  29.354   3.744
94838W        W67098  44.854   4.662  12.203
94839W        W67099  33.458  12.933  12.589
94840W        W67100  31.009  24.557   4.110
94841W        W67101   8.628  16.184  12.415
94842W        W67102  13.605  20.585   0.481
94843W        W67103  27.230  20.112   3.129
94844W        W67104  39.271  18.015  12.391
94845W        W67105  15.220  39.328  14.027
94846W        W67106  40.007   1.132   2.885
94847W        W67107  27.476   2.961   3.692
94848W        W67108  33.089  24.100  14.699
94849W        W67109   1.996  11.283  12.701
94850W        W67110  41.602  40.872   1.223
94851W        W67111  25.227   7.239   2.030
94852W        W67112  28.961   8.119   0.398
94853W        W67113  34.338  37.562  11.651
94854W        W67114  29.077  20.500   3.841
94855W        W67115  37.478   0.545  13.299
94856W        W67116  20.709   3.392  12.092
94857W        W67117  35.457  16.192   1.234
94858W        W67118  24.698   8.882   2.280
94859W        W67119  20.743  26.235   2.351
94860W        W67120  24.729  10.101   4.103
94861W        W67121  20.709  29.157   3.628
94862W        W67122  40.426   4.264  11.523
94863W        W67123  36.390  18.619  12.412
94864W        W67124   6.877  10.094  13.551
94865W        W67125  21.003  11.794  14.064
94866W        W67126  23.511  33.881   3.572
94867W        W67127  18.042  16.774   3.834
94868W        W67128  31.395  11.606   4.609
94869W        W67129  34.428  22.626  12.555
94870W        W67130  41.675  29.083   4.196
94871W        W67131  44.911  24.247  12.893
94872W        W67132  28.118  23.534  12.843
94873W        W67133  40.360   7.909  12.570
94874W        W67134  16.766  15.826   0.303
94875W        W67135  33.371   8.865  11.598
94876W        W67136   1.477  29.411  13.016
94877W        W67137  40.791  36.292   3.637
94878W        W67138   1.249   9.531   0.609
94879W        W67139  19.837   1.438   2.278
94880W        W67140  11.682  19.843  12.092
94881W        W67141  30.243  17.130   0.716
94882W        W67142  34.394  25.396  13.901
94883W        W67143  37.906  18.078  14.885
94884W        W67144  14.143  17.116   9.794
94885W        W67145  12.950  22.718   2.345
94886W        W67146  19.028  19.216   4.096
94887W        W67147   6.470  13.327   3.181
94888W        W67148  19.564  26.720  12.156
94889W        W67149  19.808   6.335   5.114
94890W        W67150  13.394  43.290  12.618
94891W        W67151  39.780  41.482  13.442
94892W        W67152  12.913  43.361  12.418
94893W        W67153  12.422  21.106   3.802
94894W        W67154  33.042  20.304   4.232
94895W        W67155  15.451  43.708  14.621
94896W        W67156  37.299  25.956   5.010
94897W        W67157  13.750  11.695  11.729
94898W        W67158   0.482   6.161   0.389
94899W        W67159   7.531  25.127   2.846
94900W        W67160   0.801  25.966  14.012
94901W        W67161  42.113  44.269  10.271
94902W        W67162  13.175   5.171  12.913
94903W        W67163  44.232  13.596  12.823
94904W        W67164  28.133   3.820  11.224
94905W        W67165  39.317  25.186  10.941
94906W        W67166  14.308  19.889  13.421
94907W        W67167  30.571  13.889   2.873
94908W        W67168  17.178  15.245  11.942
94909W        W67169  25.498  41.436  14.973
94910W        W67170   6.162  31.656   3.243
94911W        W67171   6.182  31.537  12.112
94912W        W67172  44.352  34.306  11.215
94913W        W67173  39.429   1.282  11.335
94914W        W67174  15.147  43.066  13.516
94915W        W67175  25.483  27.568   0.869
94916W        W67176  37.522  35.535   1.586
94917W        W67177  36.011  37.099   1.399
94918W        W67178  42.508  33.941   2.251
94919W        W67179  13.312  13.833   1.891
94920W        W67180   6.786  16.708   4.578
94921W        W67181   2.300  32.904   2.622
94922W        W67182  36.143  34.962   3.678
94923W        W67183  33.183  38.838   3.723
94924W        W67184   7.982  23.898   1.319
94925W        W67185  20.371  34.746   3.925
94926W        W67186  32.994  28.900   4.442
94927W        W67187  21.473   4.070   0.262
94928W        W67188   4.267   4.225  13.797
94929W        W67189  28.052  39.466   1.227
94930W        W67190  32.864  32.139   3.432
94931W        W67191   5.226   4.216   1.819
94932W        W67192  39.413  18.017   3.548
94933W        W67193  40.522  30.128  11.852
94934W        W67194   5.854  25.006  12.893
94935W        W67195  22.117  31.475  12.616
94936W        W67196   9.597  25.591   1.457
94937W        W67197  24.675  36.450   0.305
94938W        W67198  14.052  22.680   3.326
94939W        W67199  34.799  41.315  10.636
94940W        W67200  32.340  39.291  12.493
94941W        W67201  44.358   9.155   4.457
94942W        W67202  39.558  43.023   4.133
94943W        W67203  27.561  21.205  11.754
94944W        W67204  18.148  38.689   3.208
94945W        W67205   6.375   3.878   3.750
94946W        W67206  15.628  15.658   4.549
94947W        W67207  28.073  26.478  14.797
94948W        W67208   9.754  24.471   2.340
94949W        W67209  13.406  33.425   1.202
94950W        W67210  29.932  16.621  11.578
94951W        W67211  32.464  25.001  10.742
94952W        W67212  37.388  31.042   4.139
94953W        W67213  16.674  24.950  12.163
94954W        W67214  34.089   4.471   3.729
94955W        W67215  44.308  38.857   2.739
94956W        W67216  13.180  29.670  10.250
94957W        W67217  18.865   5.289  11.058
94958W        W67218  21.615  29.717  12.861
94959W        W67219   9.299  37.563   3.681
94960W        W67220  36.597  36.647  13.116
94961W        W67221  44.869  36.688  10.865
94962W        W67222  39.316  26.447  14.219
94963W        W67223  40.483   9.122   4.945
94964W        W67224   7.640  35.072  11.615
94965W        W67225  10.678   5.394  10.414
94966W        W67226   6.848  43.363   0.253
94967W        W67227   4.232  27.489  13.320
94968W        W67228  19.842  23.603  12.566
94969W        W67229  22.175  27.768   0.174
94970W        W67230   0.507  42.930  12.487
94971W        W67231  14.650  11.594  12.564
94972W        W67232  16.094  15.360  13.049
94973W        W67233  15.568  16.084  11.957
94974W        W67234  35.766  23.607  14.818
94975W        W67235  12.671   2.391  14.389
94976W        W67236  33.315  14.178  12.981
94977W        W67237  33.806  42.033   1.381
94978W        W67238  28.849  30.336   1.743
94979W        W67239  42.823   8.626   3.579
94980W        W67240  16.826   4.031  11.944
94981W        W67241  13.837  36.010   3.452
94982W        W67242   5.757  16.189   0.433
94983W        W67243  43.515   8.934  11.590
94984W        W67244   6.429   2.697   0.921
94985W        W67245  25.691  25.207  10.555
94986W        W67246  11.667  33.371   2.252
94987W        W67247   6.930  44.039   4.769
94988W        W67248   4.472  41.256   4.300
94989W        W67249  25.277   4.438   0.453
94990W        W67250   9.750  24.539   3.245
94991W        W67251  14.722  29.734   3.272
94992W        W67252  19.125  19.969  12.660
94993W        W67253  16.642  18.848  13.659
94994W        W67254  15.750  22.023   3.699
94995W        W67255  40.695  12.168  12.087
94996W        W67256   3.218  32.010   2.600
94997W        W67257  41.516  10.849   0.832
94998W        W67258  42.449  29.150   1.325
94999W        W67259  32.031   0.450  12.462
95000W        W67260  38.457  23.525  13.329
95001W        W67261  39.613  37.467   2.305
95002W        W67262  34.068  30.015   1.812
95003W        W67263  22.125  15.481  13.071
95004W        W67264   7.866   1.612  10.331
95005W        W67265  20.943   7.942   4.032
95006W        W67266  43.483   7.763   4.681
95007W        W67267  35.158  29.452  12.030
95008W        W67268  18.111  29.530  13.036
95009W        W67269  42.028  33.617  10.703
95010W        W67270  40.723   7.298  12.899
95011W        W67271  43.219  25.603   2.342
95012W        W67272  40.536   4.742  13.789
95013W        W67273  33.295  20.292  11.215
95014W        W67274   8.371  38.387   1.400
95015W        W67275   2.840  24.152   4.500
95016W        W67276  34.969  26.875  11.412
95017W        W67277   1.930  34.726   4.051
95018W        W67278  16.913  10.085  13.854
95019W        W67279  30.700  11.573  14.354
95020W        W67280  43.443  24.754   0.284
95021W        W67281  32.931  38.413   4.488
95022W        W67282  23.475  13.878   0.803
95023W        W67283  27.068   6.256  14.305
95024W        W67284  17.214   9.776  14.929
95025W        W67285  31.682   1.917   4.197
95026W        W67286  30.775  42.977  13.833
95027W        W67287  11.092  24.604   1.455
95028W        W67288  18.205  11.607  12.960
95029W        W67289  21.524  23.011   3.687
95030W        W67290  41.909  37.275   1.325
95031W        W67291  40.753  35.805   3.771
95032W        W67292   7.750  39.819   1.358
95033W        W67293  16.855   4.730   5.302
95034W        W67294  23.086   7.358   2.406
95035W        W67295  42.937  10.418  11.214
95036W        W67296   2.477  25.022   3.300
95037W        W67297   7.732   9.574  13.533
95038W        W67298  23.101  15.899   1.335
95039W        W67299  25.934  23.640  14.901
95040W        W67300  12.596  22.543  10.650
95041W        W67301  12.206   7.921   4.605
95042W        W67302   7.886  16.092  14.475
95043W        W67303   7.514   7.640  10.552
95044W        W67304  25.292   9.699  11.530
95045W        W67305   4.740  25.209   3.900
95046W        W67306  43.445  29.030   0.267
95047W        W67307  22.531  35.149   1.791
95048W        W67308  15.696   0.870   1.333
95049W        W67309  12.269  27.912  14.037
95050W        W67310  22.710  17.161   2.155
95051W        W67311  43.910  22.480  11.218
95052W        W67312  30.188  32.568   2.030
95053W        W67313  16.576  13.675   3.723
95054W        W67314  25.499  34.617  11.973
95055W        W67315  40.894  34.575   4.778
95056W        W67316   6.995  37.408   2.884
95057W        W67317   2.911  38.339   0.506
95058W        W67318  15.183   2.243   3.690
95059W        W67319  26.540   4.054  10.602
95060W        W67320  42.852  20.658  14.786
95061W        W67321  16.477  19.721   0.235
95062W        W67322  30.638  26.765   0.661
95063W        W67323  38.460  44.317  13.952
95064W        W67324  32.852   2.027  12.005
95065W        W67325   7.653  10.176   4.262
95066W        W67326   0.014  29.155  14.399
95067W        W67327  25.421  21.633   4.498
95068W        W67328  44.893  36.544  11.785
95069W        W67329  16.087  36.721  11.777
95070W        W67330  42.824  42.409  14.855
95071W        W67331   2.882  15.715  13.601
95072W        W67332  40.258  39.127   0.520
95073W        W67333  36.707  33.573   4.008
95074W        W67334  36.563  33.577  11.469
95075W        W67335  32.759  21.479   3.741
95076W        W67336   8.705   7.625  14.498
95077W        W67337  19.712  34.909   0.797
95078W        W67338  18.099  27.741   1.347
95079W        W67339  31.503  42.511  13.415
95080W        W67340  12.718  29.168  10.696
95081W        W67341  43.820  37.831  12.522
95082W        W67342  27.596  11.793  11.014
95083W        W67343   8.197  41.548  13.123
95084W        W67344   0.507  19.159  13.399
95085W        W67345  12.775  11.762   0.034
95086W        W67346   2.644   5.503   0.840
95087W        W67347  20.950  11.051  10.655
95088W        W67348  40.847  15.667  10.727
95089W        W67349  28.191  18.560  12.778
95090W        W67350  28.163  10.863  11.087
95091W        W67351  13.841  22.038   0.750
95092W        W67352   7.480  28.102  12.095
95093W        W67353  18.267   3.987  13.907
95094W        W67354   1.314  41.473   3.851
95095W        W67355  19.302  13.077  12.977
95096W        W67356  10.725  16.189   1.435
95097W        W67357  25.541  25.476   4.570
95098W        W67358  23.796   9.925   4.140
95099W        W67359  32.698  29.590   1.877
95100W        W67360   7.389  16.718   4.599
95101W        W67361  14.637   9.387   4.582
95102W        W67362  22.689  27.763   1.332
95103W        W67363   4.805  21.605  10.610
95104W        W67364  30.097  33.395   4.235
95105W        W67365  30.054  38.008   4.445
95106W        W67366  34.622   9.605  10.923
95107W        W67367  44.328  11.665  13.395
95108W        W67368  16.411  42.319   3.815
95109W        W67369  11.339  26.353  14.500
95110W        W67370  11.594  12.877   3.133
95111W        W67371  44.854  16.163  14.488
95112W        W67372  36.230  28.419   3.272
95113W        W67373   7.758   8.777   3.602
95114W        W67374  15.063  21.292   0.958
95115W        W67375   5.459  19.370   4.280
95116W        W67376  29.158  15.916  12.482
95117W        W67377   5.722   5.132   3.855
95118W        W67378  37.963  32.039   3.203
95119W        W67379  35.822  39.561   0.202
95120W        W67380  25.691  41.600  14.499
95121W        W67381  32.515  10.977  12.312
95122W        W67382  18.099  38.233  10.587
95123W        W67383  30.489  38.475   0.797
95124W        W67384  10.706  19.593   0.117
95125W        W67385  41.630  15.848  13.285
95126W        W67386  44.073  29.930   3.131
95127W        W67387   8.152  17.604   3.205
95128W        W67388   3.512   7.705   0.356
95129W        W67389  16.605   6.371  11.152
95130W        W67390  42.265   1.566  13.163
95131W        W67391  42.679   6.354  11.932
95132W        W67392   8.985  28.820   3.259
95133W        W67393  21.723   2.278  11.543
95134W        W67394  14.363  20.967  14.388
95135W        W67395  16.899  41.008  10.972
95136W        W67396  39.396  21.024  10.992
95137W        W67397  21.334  27.154   3.793
95138W        W67398  12.760  44.013   3.929
95139W        W67399  28.136   4.520  14.140
95140W        W67400   5.779   7.590  12.131
95141W        W67401  17.200  11.990  10.245
95142W        W67402   4.789  37.106  10.226
95143W        W67403   6.414  36.936   1.842
95144W        W67404  14.352   4.461  10.697
95145W        W67405  26.065  11.222   3.704
95146W        W67406  35.796  23.428  10.743
95147W        W67407  42.304  32.353  13.162
95148W        W67408  12.739  32.886   0.243
95149W        W67409  43.733   9.665  12.915
95150W        W67410  25.110  30.717  14.876
95151W        W67411  26.072  41.907   4.395
95152W        W67412   5.057  31.649  14.856
95153W        W67413   1.477  18.585   2.703
95154W        W67414  15.374   0.007  11.176
95155W        W67415  22.251  31.406   4.180
95156W        W67416  37.348  21.116  14.247
95157W        W67417  35.735  35.227  11.607
95158W        W67418  44.987  12.765   2.775
95159W        W67419  22.771   4.304  10.553
95160W        W67420  32.651  25.704  12.553
95161W        W67421   5.713  37.641   1.690
95162W        W67422  19.478  21.509   3.390
95163W        W67423   6.998  30.055  14.540
95164W        W67424  26.298  34.783  14.237
95165W        W67425  13.582  18.630  11.811
95166W        W67426  16.036  26.040   3.781
95167W        W67427   3.636  36.418   2.723
95168W        W67428   7.372  20.735   4.097
95169W        W67429  26.426  29.641   0.315
95170W        W67430   3.759  38.023   3.276
95171W        W67431  37.129   4.367   1.005
95172W        W67432  38.041   2.236  14.983
95173W        W67433  12.662  14.882  12.511
95174W        W67434  39.508  35.406  13.048
95175W        W67435   3.490  36.487  11.264
95176W        W67436  26.849  36.261   0.250
95177W        W67437  35.953  34.657  13.587
95178W        W67438  14.809   0.168  10.859
95179W        W67439  29.663  35.583  11.437
95180W        W67440   5.295   5.011  12.019
95181W        W67441   6.119  14.808  11.624
95182W        W67442  11.804  21.513  11.538
95183W        W67443  13.185  24.694  13.911
95184W        W67444  36.509  17.039  11.612
95185W        W67445  11.079  42.003   4.148
95186W        W67446  36.292  15.607  11.269
95187W        W67447  42.690   5.645  13.061
95188W        W67448   7.085  31.128  14.547
95189W        W67449  32.792  40.146   3.225
95190W        W67450  39.961  40.001   2.261
95191W        W67451  31.039  12.880   0.395
95192W        W67452  30.677  42.735  13.377
95193W        W67453  33.398  17.262   3.754
95194W        W67454  15.586  22.650  14.300
95195W        W67455   3.689  15.574   1.904
95196W        W67456  41.831   7.063   4.536
95197W        W67457  14.257  18.862  12.431
95198W        W67458  42.419  32.689   2.041
95199W        W67459  11.617  19.797  13.869
95200W        W67460  25.589   1.776   4.610
95201W        W67461  19.115  27.934   2.581
95202W        W67462  21.938  26.613   4.066
95203W        W67463  28.350   9.932   4.745
95204W        W67464   5.458  27.094   1.731
95205W        W67465  44.269  28.886  14.798
95206W        W67466   2.051  38.035   2.804
95207W        W67467  20.138   1.542  14.838
95208W        W67468  40.350   1.617   3.842
95209W        W67469   1.236  26.664   2.560
95210W        W67470  22.726   8.156  10.189
95211W        W67471   2.831   6.501   0.828
95212W        W67472   5.285  42.980   1.357
95213W        W67473   3.730  16.041  13.952
95214W        W67474  13.758  28.188  14.436
95215W        W67475   5.892  35.425   0.839
95216W        W67476   6.194   7.950   1.978
95217W        W67477  34.778   5.286   0.627
95218W        W67478  14.045  42.429  11.870
95219W        W67479   9.836  19.228  10.684
95220W        W67480  33.883  20.863  10.107
95221W        W67481  38.019   5.398  12.535
95222W        W67482  20.658  20.015  11.097
95223W        W67483  41.372  11.272  10.697
95224W        W67484  32.388  25.071   2.765
95225W        W67485  16.060  27.592   4.921
95226W        W67486   5.620   5.853  13.594
95227W        W67487  24.775  17.090   2.346
95228W        W67488  29.952   4.142  14.535
95229W        W67489  23.465  37.348   1.233
95230W        W67490  32.755  28.719   2.221
95231W        W67491  39.007  26.195   3.371
95232W        W67492  34.185  12.700  12.045
95233W        W67493  15.341   4.756  11.466
95234W        W67494   0.636   2.858   2.094
95235W        W67495  26.743  21.137  14.838
95236W        W67496   6.911  42.852   1.916
95237W        W67497   6.413   9.150   2.830
95238W        W67498  37.398  15.593   0.949
95239W        W67499  44.895   3.510   0.441
95240W        W67500  15.704  41.571  13.445
95241W        W67501  31.142  27.920  14.549
95242W        W67502  38.476  33.864  14.403
95243W        W67503  36.855  30.359  12.359
95244W        W67504  13.133  16.854  12.509
95245W        W67505  42.619   0.170  11.648
95246W        W67506  12.645  24.193   2.293
95247W        W67507  25.587  43.811  13.835
95248W        W67508  12.237  43.739   4.127
95249W        W67509   9.501  16.804   1.382
95250W        W67510   2.813  29.574   3.589
95251W        W67511  38.940  32.862  10.789
95252W        W67512   9.786   5.664  14.008
95253W        W67513   5.690  43.611  13.182
95254W        W67514  13.720  30.222   2.340
95255W        W67515  40.019   8.200  14.527
95256W        W67516  36.644  17.259   2.444
95257W        W67517  14.361   1.291   3.767
95258W        W67518  22.013  17.678   4.675
95259W        W67519  10.043  23.604  11.674
95260W        W67520  30.294  41.514   4.194
95261W        W67521  43.459   1.726   2.761
95262W        W67522  12.993  12.693   4.614
95263W        W67523  41.649  11.767  11.551
95264W        W67524  15.340  22.766  12.018
95265W        W67525  15.342  42.213   4.638
95266W        W67526  25.109  25.228   4.197
95267W        W67527  26.262  38.886  13.572
95268W        W67528  26.826   6.280  13.302
95269W        W67529  40.812  28.206   3.743
95270W        W67530  33.008  17.110   1.417
95271W        W67531  32.563   5.021  13.877
95272W        W67532  18.219  36.968   0.983
95273W        W67533  20.696  23.705   0.868
95274W        W67534  41.227  44.585   1.340
95275W        W67535  39.393   9.134  13.078
95276W        W67536  43.941  34.961  10.351
95277W        W67537  43.839  38.572   0.037
95278W        W67538  23.462  14.196   3.782
95279W        W67539  43.250  42.305  12.976
95280W        W67540  23.539   5.793   0.677
95281W        W67541  44.340   3.726   2.590
95282W        W67542   9.351  21.527   2.217
95283W        W67543  26.196  38.257  14.363
95284W        W67544  16.417   2.224  13.885
95285W        W67545  23.824  31.386   1.437
95286W        W67546   1.576  41.409  12.847
95287W        W67547  40.550  10.737  12.156
95288W        W67548  27.364  17.182   4.934
95289W        W67549  32.866  16.885  12.921
95290W        W67550  38.896  29.497   9.881
95291W        W67551  19.234   7.979  10.236
95292W        W67552  19.729  39.461  12.991
95293W        W67553  39.444  35.922  12.918
95294W        W67554   7.754  24.535   4.620
95295W        W67555  14.093  13.399   2.431
95296W        W67556   0.669  33.489   3.987
95297W        W67557   7.832   0.327  14.360
95298W        W67558  44.848  17.783  13.042
95299W        W67559  13.646  37.838   4.871
95300W        W67560  39.204  38.029  11.656
95301W        W67561  35.398  25.926  14.671
95302W        W67562   1.739  43.714   2.301
95303W        W67563  10.612   5.793  13.601
95304W        W67564  42.227   5.913  12.975
95305W        W67565  32.479  43.733   1.372
95306W        W67566  36.435  35.359  14.187
95307W        W67567  12.977   5.079   5.110
95308W        W67568   9.745  32.556   3.641
95309W        W67569  16.847   5.964  14.527
95310W        W67570  10.790   0.363   0.521
95311W        W67571  10.413   3.691   1.778
95312W        W67572  29.193  21.627   0.803
95313W        W67573   0.995  16.264  12.948
95314W        W67574  38.905  41.437   0.061
95315W        W67575  43.442  41.243  14.658
95316W        W67576  23.069  12.261  10.714
95317W        W67577  37.286  32.953   4.569
95318W        W67578  22.388   9.698  14.861
95319W        W67579  28.564  27.730  12.386
95320W        W67580  10.242  42.461   2.247
95321W        W67581  24.102  15.859  13.995
95322W        W67582  24.445  44.599   3.217
95323W        W67583  33.573  11.912  14.312
95324W        W67584  28.085  12.916  13.995
95325W        W67585  20.688  28.546  12.913
95326W        W67586  20.281  25.740  11.939
95327W        W67587   9.462   3.885  11.449
95328W        W67588  38.495  39.829   0.373
95329W        W67589  35.373  29.220  10.700
95330W        W67590  17.234   6.878  14.791
95331W        W67591  18.059   5.754  14.776
95332W        W67592   7.574  27.146   0.477
95333W        W67593  44.261  20.032   1.636
95334W        W67594  39.863  37.443   2.784
95335W        W67595  42.876  12.756   4.148
95336W        W67596  25.457   0.016  11.553
95337W        W67597  25.940  40.996   4.613
95338W        W67598  16.785  38.990  10.674
95339W        W67599  20.625  25.797   4.962
95340W        W67600   0.829  21.050   4.073
95341W        W67601  11.230  26.737  10.843
95342W        W67602  15.329  15.924   1.234
95343W        W67603   4.215  19.205   1.954
95344W        W67604  38.529  36.090   3.652
95345W        W67605  18.345   3.459  12.422
95346W        W67606  12.580  13.666  14.890
95347W        W67607  37.461  10.158   3.216
95348W        W67608  25.066  17.889  14.833
95349W        W67609   8.280   0.851   2.687
95350W        W67610  19.046  10.816   0.780
95351W        W67611  43.224   5.763   4.091
95352W        W67612  37.464   5.607  13.784
95353W        W67613   8.920  22.786   0.529
95354W        W67614  37.237  26.100  14.074
95355W        W67615   9.699  41.189   1.894
95356W        W67616  17.217  19.933  10.798
95357W        W67617   1.930  40.123   1.183
95358W        W67618   2.186  40.614  14.006
95359W        W67619  35.284  28.211   4.122
95360W        W67620  14.222  31.373  11.870
95361W        W67621  39.896  29.040   2.850
95362W        W67622  20.948  27.987   5.363
95363W        W67623  26.354   4.925   4.422
95364W        W67624  17.974  20.690   1.313
95365W        W67625  27.893  31.582  13.800
95366W        W67626   0.393  11.536  10.694
95367W        W67627  23.156  33.021  11.096
95368W        W67628   8.271  24.678   1.343
95369W        W67629  32.799  16.457  14.716
95370W        W67630  37.381  28.068  13.968
95371W        W67631   1.387  16.979  13.418
95372W        W67632  41.102  14.352  11.385
95373W        W67633  14.805  27.877   1.120
95374W        W67634  27.599  12.459   1.327
95375W        W67635  28.310  13.988   3.415
95376W        W67636   4.904   6.261   1.183
95377W        W67637  31.011   4.704  12.887
95378W        W67638   4.222  23.518   3.201
95379W        W67639  14.951  42.266  14.814
95380W        W67640   1.772   6.642   0.688
95381W        W67641  13.184  33.142  11.064
95382W        W67642  17.633  36.055  13.937
95383W        W67643  25.158  31.725  13.914
95384W        W67644   6.479  14.789   3.658
95385W        W67645  29.446   6.399  13.443
95386W        W67646  19.667   6.721  13.933
95387W        W67647  37.816  39.241   2.168
95388W        W67648  35.651  27.615   2.761
95389W        W67649  35.054  41.503   1.648
95390W        W67650  42.514   0.875   4.177
95391W        W67651   2.501  35.334  12.486
95392W        W67652   6.490  16.270   2.527
95393W        W67653  44.064  14.857   1.222
95394W        W67654  32.329  15.297   0.169
95395W        W67655   5.930  23.740  12.474
95396W        W67656  17.344   4.218   1.727
95397W        W67657  17.169  23.589   4.163
95398W        W67658  26.143  37.576   4.723
95399W        W67659  21.979  33.089   3.619
95400W        W67660  24.052  36.609   2.332
95401W        W67661  36.505  30.419   3.857
95402W        W67662  27.955  37.323   3.279
95403W        W67663   6.879  32.035  13.274
95404W        W67664  37.815  39.864   1.200
95405W        W67665  25.528  28.628  14.243
95406W        W67666  14.837  34.380   1.294
95407W        W67667  25.252  32.468   2.904
95408W        W67668   0.004  18.772   4.779
95409W        W67669  32.555  14.587   3.461
95410W        W67670  29.160   4.332  12.931
95411W        W67671  37.373  25.727   1.730
95412W        W67672  41.531  36.562  14.209
95413W        W67673  39.616  17.192  12.503
95414W        W67674   8.900  42.965  12.419
95415W        W67675  33.935  39.169   0.005
95416W        W67676  14.853  43.888   1.717
95417W        W67677  28.821  33.386   1.826
95418W        W67678  22.451   4.695   4.053
95419W        W67679  32.915   9.315  14.970
95420W        W67680  44.331  21.971   1.795
95421W        W67681  24.833   4.697   1.372
95422W        W67682  35.522  14.163   0.323
95423W        W67683  14.310  23.889   2.737
95424W        W67684  43.236  32.115   0.937
95425W        W67685  10.835  14.683   1.300
95426W        W67686  40.140   8.000   0.369
95427W        W67687  41.341   5.700   0.832
95428W        W67688  33.117   8.913  12.023
95429W        W67689   7.187  33.340  11.584
95430W        W67690  13.332  16.258   2.089
95431W        W67691  35.552  43.815  12.836
95432W        W67692   0.813   1.657   0.753
95433W        W67693  44.962  43.279  14.042
95434W        W67694  43.434  22.773  10.751
95435W        W67695  20.045   1.026   1.812
95436W        W67696   5.414   2.771   2.705
95437W        W67697  26.403   7.789  14.901
95438W        W67698  25.923  24.162  14.726
95439W        W67699  18.147  42.991  13.847
95440W        W67700  33.045   8.079   2.232
95441W        W67701   8.704   9.733   3.889
95442W        W67702   1.374  32.503   1.225
95443W        W67703  36.902  12.702   0.268
95444W        W67704  18.221  19.761   0.974
95445W        W67705   0.089   5.658  14.235
95446W        W67706  28.567  38.680  12.476
95447W        W67707  18.152  40.407   2.802
95448W        W67708  20.446  42.893   0.339
95449W        W67709  19.189  24.628  14.816
95450W        W67710  29.215  16.221   0.264
95451W        W67711  21.443  21.660  12.784
95452W        W67712  14.178  21.000  12.192
95453W        W67713   4.771  17.562   1.856
95454W        W67714   9.371  16.733  13.490
95455W        W67715  18.193  34.564  12.191
95456W        W67716  39.225  25.331  11.774
95457W        W67717   2.753  17.236   3.711
95458W        W67718   2.777  34.192  14.100
95459W        W67719  35.448  32.260  12.439
95460W        W67720  32.724   8.286  14.551
95461W        W67721   8.400  25.791   4.870
95462W        W67722  32.836  27.032   4.395
95463W        W67723  39.286  42.328   1.845
95464W        W67724  32.863  14.118  11.457
95465W        W67725  37.054  26.497  11.734
95466W        W67726  41.912  35.344   4.579
95467W        W67727  19.332  35.158  12.362
95468W        W67728  12.931   2.008   3.185
95469W        W67729   2.206  34.165   1.221
95470W        W67730   9.228  10.311  11.481
95471W        W67731  21.267  37.823  10.769
95472W        W67732  22.545  16.294   0.558
95473W        W67733  26.501  12.859   1.748
95474W        W67734  14.587  33.411   3.367
95475W        W67735   3.748   7.490   2.660
95476W        W67736  22.243  41.115   0.554
95477W        W67737  33.605  31.198   0.495
95478W        W67738  30.675  25.458   3.052
95479W        W67739  22.663  29.365   2.297
95480W        W67740  35.970  43.445   1.878
95481W        W67741  44.750   3.890  10.394
95482W        W67742  10.731   8.261  14.248
95483W        W67743  16.774  12.850  14.442
95484W        W67744   6.193   5.156   1.242
95485W        W67745  17.603  28.424   2.888
95486W        W67746  43.483  31.379  14.379
95487W        W67747  18.108   6.881  14.503
95488W        W67748  15.065  16.000   3.977
95489W        W67749  32.080  25.316   4.655
95490W        W67750  19.811  43.496   0.835
95491W        W67751  32.070   1.651  12.976
95492W        W67752  41.441  17.369  11.064
95493W        W67753  21.441  18.959   0.299
95494W        W67754  14.617  31.565   2.791
95495W        W67755  40.214   7.583  10.380
95496W        W67756  16.755  23.215   0.414
95497W        W67757  29.602  39.566   3.373
95498W        W67758   2.853  44.753   3.403
95499W        W67759  38.517   7.630  10.559
95500W        W67760  11.146  40.644  13.429
95501W        W67761  28.196   1.212  13.605
95502W        W67762   0.341  17.439  11.996
95503W        W67763  22.048   4.408  13.418
95504W        W67764  41.756  15.120   4.086
95505W        W67765  16.082  19.850   2.766
95506W        W67766  11.289  20.710  14.819
95507W        W67767  23.326  12.786   4.158
95508W        W67768  25.602  11.928   3.584
95509W        W67769   7.185  25.210  13.360
95510W        W67770   9.800  17.227   1.755
95511W        W67771  10.735  28.291  12.558
95512W        W67772   3.684   9.147   3.159
95513W        W67773  36.063  29.559   0.386
95514W        W67774  19.735  39.121  10.476
95515W        W67775  20.718   6.437  13.994
95516W        W67776  26.064  39.661   1.804
95517W        W67777  42.287  23.018  12.128
95518W        W67778  24.748   3.285  10.740
95519W        W67779  21.776   1.482   1.035
95520W        W67780  44.201  33.394  13.044
95521W        W67781  14.141  15.744  12.513
95522W        W67782  30.374  10.732   2.904
95523W        W67783   2.323   1.210  11.290
95524W        W67784  23.063  32.373   4.580
95525W        W67785  18.341  37.290   4.065
95526W        W67786  20.187  35.384   1.459
95527W        W67787  16.991  44.431   2.338
95528W        W67788  30.168  35.413   2.219
95529W        W67789  27.378  18.817   0.852
95530W        W67790  44.506   1.199   3.951
95531W        W67791  11.284  43.026   3.521
95532W        W67792  24.499  13.215   1.344
95533W        W67793   2.729  11.420  13.867
95534W        W67794  36.410  44.231   4.437
95535W        W67795  19.415  42.037   1.859
95536W        W67796   0.736  43.404  14.872
95537W        W67797  34.028   5.942   4.567
95538W        W67798  22.514  34.115   5.025
95539W        W67799  16.652  26.163   4.606
95540W        W67800  24.620  28.048   0.535
95541W        W67801  39.353  25.525   3.862
95542W        W67802   9.707  44.998   2.634
95543W        W67803  21.615  17.819  14.771
95544W        W67804   7.801  16.705  12.653
95545W        W67805   2.384   1.762   0.678
95546W        W67806  20.568  30.737  14.735
95547W        W67807  15.248   8.976  11.867
95548W        W67808   9.599  34.914   1.351
95549W        W67809   1.795  14.177   1.260
95550W        W67810  43.915  11.406   3.270
95551W        W67811  44.966  18.376   1.416
95552W        W67812   9.054   6.233   4.202
95553W        W67813  25.123  33.849   0.710
95554W        W67814  37.008  26.289   2.376
95555W        W67815  32.674   8.199  11.518
95556W        W67816   6.126  33.415   1.257
95557W        W67817  25.723  36.676  11.183
95558W        W67818   2.312  24.483   0.401
95559W        W67819  31.703   3.853  13.497
95560W        W67820  42.967   1.485  13.631
95561W        W67821  15.104   9.817   3.351
95562W        W67822  16.192   8.124  12.948
95563W        W67823  36.384   4.876  11.027
95564W        W67824   9.456  41.968   1.323
95565W        W67825  17.566  14.655   4.000
95566W        W67826  37.801   5.126  12.167
95567W        W67827  16.844  26.090   4.131
95568W        W67828  38.783  34.398   3.281
95569W        W67829  41.105  15.626   4.135
95570W        W67830  32.393  22.606  10.755
95571W        W67831  40.549  12.672   3.627
95572W        W67832   3.891   7.186  10.811
95573W        W67833  34.816  22.789  14.812
95574W        W67834  39.992  21.554   2.263
95575W        W67835  40.864   6.446   4.241
95576W        W67836  35.109  37.327  12.015
95577W        W67837  35.784   2.264  14.358
95578W        W67838  30.416  19.174   2.254
95579W        W67839  11.835  21.887   4.507
95580W        W67840  18.698   5.408   2.642
95581W        W67841   7.502  42.400   0.411
95582W        W67842  17.323  19.134  14.847
95583W        W67843   6.803  17.899   4.280
95584W        W67844  42.787  32.345   0.863
95585W        W67845  14.908  44.494   3.316
95586W        W67846   0.272  31.283  11.145
95587W        W67847  39.008  10.664   3.684
95588W        W67848  27.535  27.565  13.341
95589W        W67849   5.030   5.262   0.135
95590W        W67850  42.437  41.835   0.717
95591W        W67851  24.489  33.931   2.406
95592W        W67852  37.279  14.246   0.803
95593W        W67853  25.530   7.817  11.226
95594W        W67854  33.609  41.901  10.683
95595W        W67855  27.449  39.993   3.342
95596W        W67856  16.279  13.077  12.384
95597W        W67857  29.105   8.884   1.696
95598W        W67858  31.555   7.734   2.686
95599W        W67859  40.780  31.457   0.710
95600W        W67860  39.772   8.472   3.760
95601W        W67861   8.703  22.498  13.320
95602W        W67862  19.786  18.988  12.922
95603W        W67863  44.994  38.989  10.653
95604W        W67864  13.191  27.036   0.459
95605W        W67865  22.406  19.021  10.969
95606W        W67866  17.374  29.520  12.546
95607W        W67867  17.005  14.144   0.863
95608W        W67868  39.864  41.946  14.396
95609W        W67869  30.152  26.390   2.758
95610W        W67870  16.242  19.217  13.609
95611W        W67871  35.875  31.642   2.582
95612W        W67872  25.694  15.715  11.276
95613W        W67873  15.255  30.006   3.791
95614W        W67874   8.905  34.087   2.697
95615W        W67875  21.749  24.672  12.023
95616W        W67876  22.666   9.307  13.153
95617W        W67877   9.789  11.307   1.914
95618W        W67878  12.503  25.652   4.208
95619W        W67879  42.849  19.282  13.230
95620W        W67880  43.907  32.424  12.052
95621W        W67881  16.242  40.573   3.071
95622W        W67882   0.143  38.097  13.485
95623W        W67883  33.184   9.751  11.485
95624W        W67884  26.962  23.075   1.507
95625W        W67885  39.777  18.123  12.386
95626W        W67886   7.177  32.478  11.147
95627W        W67887  12.031  10.547   0.123
95628W        W67888  23.572  41.811   4.626
95629W        W67889   4.829  36.817   3.848
95630W        W67890   7.355  39.869   1.706
95631W        W67891   4.809  30.621   1.739
95632W        W67892  42.770   7.246   4.627
95633W        W67893  21.383  37.319   2.844
95634W        W67894  38.750   8.664  10.270
95635W        W67895  16.133  23.496  12.500
95636W        W67896  26.772  25.670   2.953
95637W        W67897  43.908  17.929  14.991
95638W        W67898  17.090   5.216  12.470
95639W        W67899  30.057  32.143  10.762
95640W        W67900  15.243  29.674   1.269
95641W        W67901  29.240  41.817  10.864
95642W        W67902  32.250  44.634  10.956
95643W        W67903  44.517  43.263   4.640
95644W        W67904  43.547   0.693   2.693
95645W        W67905  33.958  20.351  13.209
95646W        W67906  38.773   9.281   0.263
95647W        W67907  20.153  16.765   2.050
95648W        W67908  12.049  17.646   3.004
95649W        W67909  25.180   1.839   3.349
95650W        W67910  15.400  44.158  10.622
95651W        W67911  25.587  36.847  10.476
95652W        W67912   4.340  16.340   0.955
95653W        W67913  13.831  42.266   0.795
95654W        W67914  30.377  35.838  12.562
95655W        W67915  43.668  30.669   4.230
95656W        W67916   3.261  38.433  12.317
95657W        W67917  27.926  34.980   2.760
95658W        W67918  42.303   5.709   2.708
95659W        W67919  32.986   7.098   0.707
95660W        W67920   2.511  44.043   2.778
95661W        W67921   2.984  20.104  10.665
95662W        W67922  39.345  42.119  11.101
95663W        W67923  11.300  32.142   4.520
95664W        W67924  36.503  22.251   3.786
95665W        W67925  44.280  17.018  10.385
95666W        W67926   4.157  11.214   2.664
95667W        W67927  23.028   8.688   2.419
95668W        W67928  28.253  13.266  13.035
95669W        W67929   2.727  37.674  14.332
95670W        W67930  10.740  22.823  11.696
95671W        W67931  27.661   6.259  12.973
95672W        W67932  16.316   4.998   2.399
95673W        W67933  19.398  22.051  12.622
95674W        W67934  39.520  13.090   1.882
95675W        W67935  36.019   7.695   3.289
95676W        W67936  24.989   9.957  12.928
95677W        W67937  30.107  36.892  14.034
95678W        W67938  21.250  15.291  14.514
95679W        W67939  29.172  10.102  12.059
95680W        W67940  41.453  29.896   2.881
95681W        W67941  40.217  18.813  14.927
95682W        W67942  26.908  29.945  11.203
95683W        W67943  22.727  12.886  11.201
95684W        W67944  40.963   8.348  11.187
95685W        W67945  34.750  29.972   0.213
95686W        W67946  26.948  36.000   4.628
95687W        W67947   9.737  22.934  12.663
95688W        W67948  27.974  16.072   3.307
95689W        W67949  37.015  37.614  12.986
95690W        W67950  22.704  22.599   5.094
95691W        W67951  22.716  28.042   9.781
95692W        W67952  32.328   2.424   3.778
95693W        W67953  19.375  19.193  10.656
95694W        W67954  41.031  23.663  13.195
95695W        W67955  30.636  12.073  13.172
95696W        W67956  13.697   5.655  11.733
95697W        W67957  41.364  27.154  12.993
95698W        W67958  35.115  22.575  11.860
95699W        W67959  33.096  13.280   3.451
95700W        W67960  17.939  34.840  10.629
95701W        W67961  22.400   7.101  14.708
95702W        W67962  22.628   2.140  11.872
95703W        W67963  13.565   7.469  12.433
95704W        W67964  28.228  16.782  12.955
95705W        W67965  42.301   1.724   1.658
95706W        W67966  15.532  15.567   3.139
95707W        W67967  26.622  34.032  10.607
95708W        W67968  18.917  27.064   2.415
95709W        W67969  20.449  27.791   1.630
95710W        W67970  14.186  35.334   0.728
95711W        W67971  12.342  16.300   4.047
95712W        W67972  23.193  35.092   2.412
95713W        W67973  20.056   6.565  12.661
95714W        W67974  43.296   0.218  12.159
95715W        W67975   1.734  13.869   4.705
95716W        W67976  36.600  24.090  13.725
95717W        W67977  17.752  19.017   3.772
95718W        W67978   8.617  11.150   4.394
95719W        W67979  21.488  13.315  14.415
95720W        W67980  39.409  39.498   2.117
95721W        W67981  17.055  42.770  13.705
95722W        W67982  10.804  23.500   2.749
95723W        W67983  30.670  32.027  14.818
95724W        W67984  25.227  10.643  14.422
95725W        W67985  11.900   1.276  12.004
95726W        W67986   1.821  11.077   2.931
95727W        W67987  41.194  30.425   4.215
95728W        W67988  24.478  40.282   9.972
95729W        W67989  42.320  37.931  12.130
95730W        W67990  44.728   7.927   2.299
95731W        W67991  35.855  26.992   0.828
95732W        W67992  26.385  35.564  14.300
95733W        W67993  22.099  44.776  12.803
95734W        W67994  23.376   1.473   3.634
95735W        W67995  29.189  30.414   3.088
95736W        W67996  30.500  18.982   1.766
95737W        W67997  23.634   7.857  14.962
95738W        W67998  29.466  31.061  12.189
95739W        W67999  38.466  13.240  12.433
95740W        W68000  15.529  33.051   1.073
95741W        W68001  22.123  33.384  12.804
95742W        W68002   3.673  19.603  13.775
95743W        W68003  28.902  11.300  10.805
95744W        W68004  23.079  39.978  12.460
95745W        W68005  11.355  35.060  14.303
95746W        W68006  29.972  37.293   2.282
95747W        W68007   1.192  14.181  14.475
95748W        W68008   3.383  28.764   1.978
95749W        W68009  28.579  29.854   3.507
95750W        W68010  40.523  31.891   1.890
95751W        W68011  43.584   0.894  13.065
95752W        W68012  13.187  38.551   0.909
95753W        W68013  12.418  32.719  11.902
95754W        W68014   6.754   1.848   1.884
95755W        W68015  34.016  42.930   2.130
95756W        W68016   9.275  38.925   2.603
95757W        W68017   5.848  28.656   2.075
95758W        W68018  26.619  36.913   1.343
95759W        W68019  11.236   7.801   1.290
95760W        W68020  27.065  20.906  14.245
95761W        W68021   9.406  33.982   3.848
95762W        W68022  41.821  38.545  11.171
95763W        W68023   8.320   6.634   4.113
95764W        W68024  29.402  15.770   3.900
95765W        W68025  43.856  18.197  14.048
95766W        W68026  15.729  38.040   0.584
95767W        W68027   7.112  26.920  12.951
95768W        W68028  20.295  22.474  13.992
95769W        W68029  29.624  33.187   4.289
95770W        W68030  21.922  12.599   3.280
95771W        W68031  42.879  30.518   2.792
95772W        W68032   7.925   7.729   4.546
95773W        W68033  43.916  31.454   4.726
95774W        W68034   5.358  27.525  12.278
95775W        W68035  13.265  22.274   3.200
95776W        W68036  43.324  17.088   4.354
95777W        W68037   1.754  13.359  12.958
95778W        W68038  23.603  23.213   3.949
95779W        W68039   5.169   4.401  13.578
95780W        W68040  33.449  28.430  11.649
95781W        W68041   3.532  28.592  14.053
95782W        W68042  19.728   2.203  10.910
95783W        W68043  19.275   0.901   0.294
95784W        W68044   2.254  41.094  13.864
95785W        W68045  20.527  14.331   2.146
95786W        W68046  22.166  21.411   5.556
95787W        W68047   4.938  18.191  14.373
95788W        W68048   5.206  34.340  14.400
95789W        W68049  15.536  17.106  13.152
95790W        W68050  12.929  12.818   3.086
95791W        W68051  39.869  21.557   0.202
95792W        W68052  17.143  40.171   3.289
95793W        W68053   2.708  43.907  11.994
95794W        W68054   3.062  28.109  13.381
95795W        W68055  29.819  28.633   0.450
95796W        W68056  41.188   4.767  14.507
95797W        W68057  25.254   4.699  14.982
95798W        W68058  21.734  42.507   0.285
95799W        W68059   5.702   5.925  11.543
95800W        W68060  17.593  11.274   1.356
95801W        W68061  18.253  18.077   4.343
95802W        W68062  36.514  22.413  13.723
95803W        W68063  36.999  25.539   3.366
95804W        W68064  43.451   0.398  14.921
95805W        W68065   2.441  24.059  13.076
95806W        W68066  15.726  30.354  11.071
95807W        W68067   4.109  42.788  14.251
95808W        W68068  33.277  21.353   0.845
95809W        W68069  38.832   7.570   4.554
95810W        W68070  18.166   4.137   4.574
95811W        W68071  19.690  27.912   3.228
95812W        W68072  29.640  41.783   3.192
95813W        W68073  38.591   4.700  12.426
95814W        W68074   8.261  18.322   4.813
95815W        W68075   4.720  31.706  13.926
95816W        W68076  14.265  40.332   1.258
95817W        W68077   1.698  43.199   2.349
95818W        W68078  25.250  20.619   2.179
95819W        W68079  23.556  34.548  12.849
95820W        W68080  26.691  37.414  12.905
95821W        W68081  32.332  37.843  14.429
95822W        W68082  15.707  43.027  11.983
95823W        W68083  41.594  33.366   1.183
95824W        W68084  25.247   1.482   1.754
95825W        W68085  44.931  19.355  11.193
95826W        W68086  19.475  33.984   0.281
95827W        W68087  33.926  37.110  12.481
95828W        W68088   1.906  29.149  12.989
95829W        W68089   9.140   8.323  12.854
95830W        W68090  27.674  40.979   3.965
95831W        W68091  25.032  20.541  13.129
95832W        W68092  18.150  15.822   2.152
95833W        W68093   3.515   4.368  11.388
95834W        W68094  29.911  23.922  11.518
95835W        W68095  43.823  44.955  14.948
95836W        W68096   2.263  21.180   0.604
95837W        W68097  21.276  41.268  14.524
95838W        W68098  19.590  22.963  14.304
95839W        W68099  12.254  32.596  13.799
95840W        W68100  26.367   3.773   3.658
95841W        W68101  31.457  14.613  14.324
95842W        W68102  35.229   5.631  13.295
95843W        W68103   6.284  29.438   4.326
95844W        W68104  43.982  40.794   0.352
95845W        W68105  17.736  21.722  14.905
95846W        W68106  41.921  41.785   0.477
95847W        W68107  12.066  33.232   1.356
95848W        W68108  23.279  20.945   4.108
95849W        W68109   2.195  10.321  10.966
95850W        W68110  40.936  38.853   0.364
95851W        W68111  11.732  24.600  12.162
95852W        W68112  36.031  35.665  14.801
95853W        W68113  37.651  11.191   0.511
95854W        W68114   5.709  25.233  10.609
95855W        W68115  15.792  35.592  13.945
95856W        W68116  27.571  11.106  13.812
95857W        W68117  37.882  34.499   1.358
95858W        W68118  41.327  30.683   0.298
95859W        W68119  32.868  31.591   3.675
95860W        W68120  33.947   8.836   3.671
95861W        W68121  24.801   9.927   0.331
95862W        W68122   7.095  16.339  12.428
95863W        W68123  41.242  23.794   2.239
95864W        W68124   3.721  32.743  12.992
95865W        W68125   3.308   1.240   3.235
95866W        W68126  18.054  39.615   4.791
95867W        W68127  37.301   3.502   3.054
95868W        W68128  16.477  25.560   2.688
95869W        W68129  43.789  29.710  13.186
95870W        W68130  23.206  15.224   0.798
95871W        W68131  38.906  32.943   2.444
95872W        W68132   2.801  27.692   3.976
95873W        W68133  39.271  26.397   2.869
95874W        W68134  44.742  38.331   1.701
95875W        W68135   5.347  39.403   4.715
95876W        W68136  37.560   5.111  10.882
95877W        W68137  39.996  36.893  11.676
95878W        W68138   1.963  11.910  11.441
95879W        W68139  31.046  17.243  11.913
95880W        W68140  34.537  32.543   4.598
95881W        W68141  30.750   5.093  11.496
95882W        W68142   8.948  28.563   0.907
95883W        W68143  17.444  23.225   0.844
95884W        W68144  22.953  36.600   0.506
95885W        W68145   1.787   6.939   2.658
95886W        W68146  23.667  21.039  13.748
95887W        W68147  43.579  43.717   3.728
95888W        W68148  35.365  21.761   0.436
95889W        W68149  29.433   6.077   3.202
95890W        W68150  24.592  28.818  14.442
95891W        W68151   3.445  25.393  12.551
95892W        W68152  21.654  26.749  13.541
95893W        W68153   1.715  11.634   1.269
95894W        W68154   9.384  10.458  12.702
95895W        W68155  34.871   8.608  14.102
95896W        W68156  22.963  22.268   4.779
95897W        W68157  11.677   9.317  12.954
95898W        W68158  41.709  36.103  11.989
95899W        W68159  17.276  32.999   2.478
95900W        W68160  33.470  39.086  14.011
95901W        W68161  21.415   1.464   0.629
95902W        W68162  26.671  20.705  14.536
95903W        W68163  25.019  37.527   2.695
95904W        W68164  29.321  28.462  11.711
95905W        W68165  16.044  26.276   2.944
95906W        W68166   3.278   2.054   2.153
95907W        W68167  43.814  12.177   2.321
95908W        W68168  18.361  31.531  14.182
95909W        W68169  23.288  33.539   2.234
95910W        W68170  12.928   3.102   1.364
95911W        W68171  36.491  23.473   3.276
95912W        W68172   8.460  29.518   2.801
95913W        W68173  17.247  24.089  12.069
95914W        W68174  17.983  26.575   0.969
95915W        W68175   9.650  36.426   1.739
95916W        W68176  27.938   8.366   1.367
95917W        W68177   3.413  26.926   2.213
95918W        W68178  36.834  13.256  13.565
95919W        W68179  39.996  19.669  12.953
95920W        W68180  43.273  37.611  13.698
95921W        W68181  42.519   0.193  13.923
95922W        W68182  17.774  31.681  12.072
95923W        W68183  15.033  39.922  11.950
95924W        W68184   3.199  13.573   4.865
95925W        W68185  24.081  37.902   1.967
95926W        W68186  34.468  41.463   4.900
95927W        W68187  20.602  27.078  13.700
95928W        W68188   9.697  10.127  13.763
95929W        W68189   3.336  23.770   0.345
95930W        W68190   8.304  36.180   4.237
95931W        W68191  37.824   4.841  14.482
95932W        W68192  19.679   2.001  13.704
95933W        W68193  28.125  17.988   0.479
95934W        W68194  27.940  27.882  13.443
95935W        W68195  19.635   9.336   2.683
95936W        W68196   8.742  10.894   4.906
95937W        W68197  26.487   0.317  12.849
95938W        W68198  20.693  11.183   0.013
95939W        W68199   2.713  28.584   0.181
95940W        W68200  31.240   9.826   3.400
95941W        W68201  20.030  10.791  13.952
95942W        W68202  39.526  10.326  13.521
95943W        W68203  26.491  12.074  11.180
95944W        W68204  39.153  26.423  10.963
95945W        W68205  26.485  17.341   4.601
95946W        W68206  35.174  21.625   1.645
95947W        W68207  36.431  43.502  14.324
95948W        W68208   3.747  28.775  14.875
95949W        W68209   9.441  17.098  13.139
95950W        W68210  16.165  35.593   3.536
95951W        W68211  21.751  37.907  12.101
95952W        W68212  22.971  36.702  12.047
95953W        W68213  10.126   9.560   2.805
95954W        W68214  44.391  31.313  13.582
95955W        W68215  43.165  41.276  12.511
95956W        W68216   7.826  42.551   1.176
95957W        W68217  41.127  28.512  10.752
95958W        W68218  20.095   4.341   2.864
95959W        W68219  27.949  22.353   4.689
95960W        W68220  27.487   1.861  13.540
95961W        W68221  14.588  31.136  11.006
95962W        W68222  21.637  31.143   4.109
95963W        W68223  12.235  35.147   4.685
95964W        W68224  33.611  27.597   4.495
95965W        W68225   8.093  36.308  10.443
95966W        W68226  12.478   3.688  13.552
95967W        W68227  39.888  35.941  10.713
95968W        W68228   3.335  25.875   2.173
95969W        W68229  21.164  27.333  14.473
95970W        W68230  34.659  43.545  12.349
95971W        W68231  28.189  20.169  11.651
95972W        W68232  17.004  39.758   4.143
95973W        W68233  42.271  19.751   4.685
95974W        W68234  15.586  35.877  11.558
95975W        W68235  15.066  23.466   2.442
95976W        W68236  35.971  17.702   3.626
95977W        W68237   6.137  23.530   1.182
95978W        W68238  31.697  41.010   2.304
95979W        W68239  23.246  31.100   2.329
95980W        W68240   1.360  13.684  14.592
95981W        W68241  29.478  29.446   4.620
95982W        W68242  40.781  33.023  12.838
95983W        W68243   1.208  41.055  13.153
95984W        W68244  27.623  26.170   3.751
95985W        W68245  21.286  11.177  11.990
95986W        W68246  26.508  26.555   1.540
95987W        W68247  33.289  33.930  11.659
95988W        W68248  41.538   3.097  14.422
95989W        W68249  26.771  38.419   2.462
95990W        W68250  25.567  39.081   9.750
95991W        W68251  19.815  30.499  11.760
95992W        W68252  14.496   9.691  11.057
95993W        W68253   5.297  15.582  10.715
95994W        W68254  13.083  35.838   4.655
95995W        W68255  19.227   3.420  12.456
95996W        W68256  21.679  40.989  13.292
95997W        W68257  13.565  28.470   3.667
95998W        W68258   2.020  36.630  11.178
95999W        W68259  25.929  14.716   0.489
96000W        W68260  21.434  35.408  14.385
96001W        W68261  26.811  21.929   2.154
96002W        W68262  21.184   1.081   2.358
96003W        W68263  41.259  12.037   5.203
96004W        W68264   7.705  44.372  11.108
96005W        W68265  40.926   5.037   0.741
96006W        W68266  36.311  38.636  13.907
96007W        W68267  38.106   2.993   2.217
96008W        W68268  15.252  32.625  14.913
96009W        W68269   3.804  26.075   2.250
96010W        W68270  36.956  19.807  10.262
96011W        W68271   1.247  14.979  12.829
96012W        W68272  30.191   1.763  14.333
96013W        W68273  27.259  30.544  14.332
96014W        W68274  29.586  31.108   0.970
96015W        W68275  14.389   8.756   1.736
96016W        W68276  10.302   9.622  12.644
96017W        W68277  37.658  34.956  14.314
96018W        W68278  28.080  34.916   3.761
96019W        W68279  14.843  23.642  12.902
96020W        W68280   7.970  21.183   2.108
96021W        W68281  28.764  33.346  11.503
96022W        W68282   5.073  28.482  12.894
96023W        W68283  19.664   1.259   2.698
96024W        W68284  34.105   2.711   2.488
96025W        W68285  17.290  29.762  11.618
96026W        W68286   3.680  12.655   0.877
96027W        W68287  10.644  13.849  12.560
96028W        W68288   4.378   7.947   0.425
96029W        W68289  29.411  15.849  14.314
96030W        W68290  37.557   9.608   2.065
96031W        W68291  29.466  42.961   2.219
96032W        W68292  29.336   2.292  14.895
96033W        W68293  44.560  35.826   0.981
96034W        W68294  10.034  15.913  14.919
96035W        W68295   0.440  32.740  13.681
96036W        W68296  35.519  28.741   0.689
96037W        W68297   6.583  10.460  14.768
96038W        W68298  13.852  25.869   4.621
96039W        W68299  27.196   9.600  13.147
96040W        W68300  33.493  33.558  12.378
96041W        W68301  20.600  44.261   3.293
96042W        W68302  23.716  13.551  14.005
96043W        W68303  41.066  14.561   0.843
96044W        W68304   7.375  22.506  11.604
96045W        W68305  38.262   6.938   0.059
96046W        W68306  39.273  12.538   2.775
96047W        W68307  25.580  21.236  13.537
96048W        W68308  35.101  23.785  12.139
96049W        W68309  11.118  43.219   4.708
96050W        W68310  27.567  40.485   4.891
96051W        W68311  42.282  23.224   0.408
96052W        W68312  33.458  35.289  11.657
96053W        W68313  36.130  23.025   3.189
96054W        W68314  44.654  36.635   4.682
96055W        W68315  17.308   8.407  11.568
96056W        W68316  38.521  14.259  10.739
96057W        W68317  13.132   7.057  10.693
96058W        W68318  40.072  41.481  13.001
96059W        W68319  28.900   5.300  11.705
96060W        W68320  39.458  26.790  13.836
96061W        W68321  11.918   4.687   0.387
96062W        W68322  36.656  29.637  11.526
96063W        W68323   9.214   4.240  14.815
96064W        W68324  20.642  24.532   4.598
96065W        W68325   8.662  25.277   1.865
96066W        W68326  10.804  24.028   2.711
96067W        W68327  27.656  26.593   5.009
96068W        W68328  22.233   3.259   3.264
96069W        W68329  39.917  27.197   2.398
96070W        W68330  40.310  32.363   3.153
96071W        W68331  29.278   2.782   3.685
96072W        W68332  21.149  43.494   0.148
96073W        W68333   3.887  36.643  12.414
96074W        W68334  16.182   4.989   5.006
96075W        W68335  43.385  13.097   2.678
96076W        W68336   2.733   2.138   0.749
96077W        W68337   6.465  16.969   3.219
96078W        W68338  13.661  44.938  11.879
96079W        W68339  40.345  11.361   4.114
96080W        W68340   5.286  40.730   1.737
96081W        W68341   3.412   1.874  11.026
96082W        W68342  10.702  27.087  14.387
96083W        W68343  12.849  34.401   3.302
96084W        W68344  22.648  28.472  12.840
96085W        W68345  27.685  22.076  12.675
96086W        W68346  29.396  17.838  10.839
96087W        W68347   6.162   6.315  11.585
96088W        W68348  38.930  11.270   2.338
96089W        W68349  14.772   5.887   4.795
96090W        W68350  33.438  34.152  13.048
96091W        W68351  44.358  19.771   2.851
96092W        W68352  35.903  23.141  11.157
96093W        W68353  14.167  22.253   0.027
96094W        W68354  14.884  21.485   3.652
96095W        W68355   9.821  26.599   3.174
96096W        W68356  40.463  28.826  13.764
96097W        W68357   9.474  14.812   0.375
96098W        W68358  13.103   4.886  11.958
96099W        W68359  39.490  43.038  11.130
96100W        W68360  27.540   8.038  12.354
96101W        W68361  37.972   2.695  14.745
96102W        W68362  35.671  18.538   3.847
96103W        W68363  20.766  39.045   2.625
96104W        W68364  24.078  40.004   4.163
96105W        W68365  25.688  42.373   1.311
96106W        W68366   2.892  12.163   4.799
96107W        W68367  24.372  41.591   2.407
96108W        W68368  33.377  32.421   3.686
96109W        W68369  17.166   0.761   2.761
96110W        W68370   9.310  20.584   0.029
96111W        W68371   7.979  26.891  11.276
96112W        W68372  14.794  21.575  12.105
96113W        W68373  22.755   3.320  13.727
96114W        W68374   4.757  27.770  11.601
96115W        W68375  20.119  21.099  13.519
96116W        W68376  42.400   9.812  14.690
96117W        W68377   2.337  29.394   1.760
96118W        W68378  11.272  34.093   2.772
96119W        W68379   6.925   6.156   3.667
96120W        W68380  44.501  23.121   4.798
96121W        W68381  37.932  33.054   0.542
96122W        W68382  40.993  22.616   0.927
96123W        W68383  33.144  32.011  10.634
96124W        W68384  22.248  26.765   0.570
96125W        W68385  44.373  22.995  13.616
96126W        W68386  11.389  28.913   0.880
96127W        W68387  13.758  28.921   0.596
96128W        W68388  14.782  22.315   4.045
96129W        W68389  26.269  29.196   3.684
96130W        W68390  29.047  15.194  14.717
96131W        W68391  14.673  15.670  12.561
96132W        W68392  44.975  14.980   1.179
96133W        W68393   1.728  42.604   1.741
96134W        W68394  33.333  30.591  14.434
96135W        W68395  20.203  17.615   2.592
96136W        W68396  41.578  15.962  13.786
96137W        W68397  28.932  44.825   2.283
96138W        W68398  17.385   1.126   4.080
96139W        W68399  32.632  16.061  12.973
96140W        W68400  43.491  18.561   4.292
96141W        W68401  23.982   0.843  11.986
96142W        W68402  37.075   0.284  10.739
96143W        W68403   1.432  25.058  12.064
96144W        W68404  34.443  18.968  12.134
96145W        W68405   2.345  40.147   3.295
96146W        W68406  36.111  26.968   3.794
96147W        W68407  20.362  17.312  11.201
96148W        W68408  20.188   9.031  10.209
96149W        W68409  12.105  22.606   4.559
96150W        W68410  41.493  21.028   0.780
96151W        W68411  23.542  31.377  14.403
96152W        W68412   3.879  40.406   4.541
96153W        W68413  39.128   6.034   4.592
96154W        W68414  36.319   8.861  11.678
96155W        W68415   9.786  34.331  12.320
96156W        W68416   0.919  26.291  12.022
96157W        W68417  40.425  27.869   3.176
96158W        W68418  18.519  26.845   5.020
96159W        W68419  36.867   6.866   0.037
96160W        W68420  12.131   4.917   4.597
96161W        W68421   8.266  13.209   1.771
96162W        W68422  11.159  27.447  10.697
96163W        W68423  14.044  27.360  13.288
96164W        W68424  37.851   6.202  10.706
96165W        W68425  35.058  34.945   4.713
96166W        W68426  31.486  35.993  12.190
96167W        W68427   6.813  39.303   1.045
96168W        W68428  19.147  12.575   0.429
96169W        W68429  11.260  42.906   2.514
96170W        W68430   2.000   8.246   3.384
96171W        W68431   0.828  32.713   1.706
96172W        W68432  33.343   9.969   1.261
96173W        W68433   8.926  33.111   1.040
96174W        W68434  16.833  18.583  10.176
96175W        W68435   9.311  44.087   4.353
96176W        W68436  38.897   3.330   0.933
96177W        W68437  39.138  37.341  14.480
96178W        W68438  39.310  35.267   4.114
96179W        W68439  39.440  20.583   0.200
96180W        W68440  15.251  19.098  14.565
96181W        W68441  34.045   8.357   0.018
96182W        W68442  21.736  43.815  11.650
96183W        W68443  32.495   7.408   2.766
96184W        W68444  31.100   5.696  11.198
96185W        W68445  40.872  37.510   3.759
96186W        W68446  41.297   3.404  13.477
96187W        W68447   7.842  30.628   0.771
96188W        W68448  20.222  16.811  14.368
96189W        W68449  39.729  10.674   0.108
96190W        W68450   8.681   0.847   3.011
96191W        W68451  14.761   1.677  13.515
96192W        W68452  19.313  31.531   3.764
96193W        W68453  27.170  28.007  12.234
96194W        W68454  27.165  44.215   1.261
96195W        W68455  14.712  41.804  14.842
96196W        W68456   9.947  38.964  13.419
96197W        W68457  16.341   5.946  14.400
96198W        W68458  27.145  12.077  10.603
96199W        W68459  10.680  14.135  11.823
96200W        W68460  15.642  42.796   1.380
96201W        W68461  44.356  17.879   0.818
96202W        W68462  41.908  42.307  10.473
96203W        W68463  24.248  38.563   3.329
96204W        W68464  16.128   4.468  11.115
96205W        W68465  43.961   4.907   1.300
96206W        W68466  35.239  22.595  13.925
96207W        W68467  12.589   0.996   4.600
96208W        W68468   2.020  22.221   0.893
96209W        W68469   7.242   5.847  14.349
96210W        W68470   2.905   0.911  14.417
96211W        W68471  37.633  28.138   3.675
96212W        W68472   3.738  14.711   1.412
96213W        W68473  30.656  32.142  12.438
96214W        W68474  12.750  29.903  13.327
96215W        W68475  14.366  14.989  10.311
96216W        W68476   8.318  34.561  11.973
96217W        W68477  31.738  20.224   4.248
96218W        W68478  14.730  44.841  10.451
96219W        W68479   1.668  30.598   2.596
96220W        W68480  22.255  18.689  12.339
96221W        W68481   3.712  31.110   4.731
96222W        W68482   9.450  20.133   2.742
96223W        W68483  43.829   7.663  14.873
96224W        W68484  33.791   5.682   3.230
96225W        W68485  10.658  38.570   1.417
96226W        W68486  17.985  23.646  11.120
96227W        W68487  19.075   2.642   0.746
96228W        W68488  40.588  36.137   4.135
96229W        W68489   8.932   1.940  13.730
96230W        W68490  26.648   8.825   4.731
96231W        W68491  13.589  28.043   3.992
96232W        W68492  16.238  30.321   3.032
96233W        W68493  25.221   0.459  14.654
96234W        W68494  15.060  18.042   0.426
96235W        W68495  40.471  23.754   1.276
96236W        W68496   4.851  14.365  13.989
96237W        W68497  10.204  13.212   0.462
96238W        W68498  42.762  34.665   0.617
96239W        W68499  37.390  32.671  14.937
96240W        W68500  16.591  37.431   3.176
96241W        W68501  10.201  23.970   0.789
96242W        W68502   7.234   7.785  14.421
96243W        W68503   9.956  28.318  10.613
96244W        W68504   9.796  35.916   2.521
96245W        W68505  35.914  10.080   1.456
96246W        W68506   9.800  17.570  11.855
96247W        W68507  37.436  28.855   3.598
96248W        W68508  38.331  42.477   3.810
96249W        W68509  31.382  39.874   2.233
96250W        W68510  40.344   5.907  12.935
96251W        W68511  44.927   9.057   3.251
96252W        W68512  21.654   1.372   3.656
96253W        W68513  35.454   7.776   1.850
96254W        W68514   3.152  25.016   3.854
96255W        W68515   0.024  12.620  12.124
96256W        W68516   5.754  10.660  14.166
96257W        W68517  30.730  42.090  11.185
96258W        W68518  42.066   2.725   1.432
96259W        W68519  14.619  31.855  12.135
96260W        W68520  14.235   0.655   1.889
96261W        W68521  39.178  12.096  10.843
96262W        W68522  22.678  14.565  13.859
96263W        W68523   3.163  24.575   4.173
96264W        W68524  32.634   5.355  10.951
96265W        W68525   9.727  16.069  11.697
96266W        W68526   5.918  32.651   0.421
96267W        W68527  40.991   4.555   0.903
96268W        W68528  12.663   2.239   2.810
96269W        W68529  43.213  23.459  14.956
96270W        W68530  40.846  29.023   0.447
96271W        W68531  10.648  35.436  12.458
96272W        W68532  24.587  43.371  14.033
96273W        W68533  29.742  37.549  11.958
96274W        W68534  29.169  44.031   0.395
96275W        W68535   4.940  30.589  13.087
96276W        W68536  22.253  10.394  11.572
96277W        W68537   4.822  39.034   0.180
96278W        W68538  34.915   9.180  10.676
96279W        W68539  35.725  34.726  13.135
96280W        W68540   3.054   3.151  12.079
96281W        W68541  17.278   7.153   2.235
96282W        W68542  19.747  35.852  11.384
96283W        W68543  18.062  36.072  12.983
96284W        W68544  28.109  26.073   4.608
96285W        W68545  17.382   0.852   0.009
96286W        W68546  40.890   6.118   4.654
96287W        W68547  12.271   7.723   0.299
96288W        W68548  31.495  38.600   0.949
96289W        W68549   7.759  10.702  14.445
96290W        W68550  28.016   1.825  13.572
96291W        W68551  25.580  13.841   0.922
96292W        W68552  15.266  37.524   3.222
96293W        W68553   6.823  16.208   0.511
96294W        W68554  38.971  18.319  12.677
96295W        W68555  26.034  31.245  11.156
96296W        W68556  41.046  31.657  10.970
96297W        W68557  21.334  13.328  12.369
96298W        W68558  20.604  39.326   1.329
96299W        W68559  44.456  16.263   2.316
96300W        W68560  14.167   0.354  13.489
96301W        W68561  17.319  29.830  13.366
96302W        W68562   9.805  29.171  12.482
96303W        W68563   1.288  19.514  14.396
96304W        W68564  29.622  12.128   4.851
96305W        W68565  33.871   1.393   2.147
96306W        W68566  39.741   1.632  14.827
96307W        W68567  39.327   7.225  14.469
96308W        W68568   3.718  41.740   1.178
96309W        W68569  14.682   5.821   4.293
96310W        W68570  41.494  12.096   3.346
96311W        W68571  34.765  34.469  10.261
96312W        W68572  20.573  31.608   1.183
96313W        W68573  24.536   7.160   1.818
96314W        W68574  42.444   5.881   0.492
96315W        W68575  24.716  10.594   2.939
96316W        W68576  32.539  39.567  14.798
96317W        W68577  43.971  39.265   2.897
96318W        W68578  16.760  11.220  13.906
96319W        W68579  25.470  42.107  11.622
96320W        W68580   2.951  33.990  13.390
96321W        W68581  29.599   5.528  12.406
96322W        W68582  13.680  17.256  12.019
96323W        W68583  13.212   0.830   4.477
96324W        W68584   1.434  31.092  13.478
96325W        W68585  12.404  33.446   4.116
96326W        W68586   2.534  32.074  12.045
96327W        W68587  29.618  44.375  13.600
96328W        W68588  31.382   5.136   2.356
96329W        W68589  38.277  38.854  11.168
96330W        W68590  41.609   8.238   3.867
96331W        W68591  13.231  43.423   1.983
96332W        W68592  28.938  13.382  12.247
96333W        W68593  41.760  24.025  14.332
96334W        W68594   3.244  10.800  10.086
96335W        W68595   8.743  35.513   4.299
96336W        W68596   7.128  35.414   4.162
96337W        W68597  36.854  20.241  12.322
96338W        W68598  37.203  34.804  13.516
96339W        W68599  15.459  32.229   0.163
96340W        W68600  13.209  27.204   3.267
96341W        W68601  18.016  22.829   3.944
96342W        W68602  23.669  20.313   0.369
96343W        W68603   2.809  21.983   1.365
96344W        W68604  30.478   1.408   0.866
96345W        W68605  39.860   6.132   4.144
96346W        W68606  35.750   9.825  12.449
96347W        W68607   4.757  42.510  13.997
96348W        W68608  17.943  14.643   1.719
96349W        W68609   9.038  31.176   0.913
96350W        W68610  24.995  18.738  11.983
96351W        W68611  24.509  22.192  12.066
96352W        W68612  12.701  32.505   3.244
96353W        W68613  43.167   7.422   4.892
96354W        W68614  26.706   4.399  10.235
96355W        W68615  18.674  15.771   2.304
96356W        W68616   1.312  40.222  11.224
96357W        W68617  15.582  14.556   9.723
96358W        W68618  44.667  38.830  13.987
96359W        W68619  25.466  35.658  10.261
96360W        W68620  21.624  19.688  12.574
96361W        W68621  38.828  13.658   0.442
96362W        W68622  15.487  37.289   2.392
96363W        W68623  25.684   4.054  10.339
96364W        W68624  34.437  37.814   1.627
96365W        W68625   9.880  35.437   3.763
96366W        W68626  12.654   9.766  11.967
96367W        W68627  27.086  38.325   1.970
96368W        W68628  38.695  22.227  14.674
96369W        W68629  41.924  22.799  12.410
96370W        W68630  29.279  19.635   2.226
96371W        W68631  22.176  18.801   2.777
96372W        W68632  37.970  25.783   2.493
96373W        W68633   3.880  33.860   1.081
96374W        W68634  10.258  32.053   2.113
96375W        W68635  38.617  35.089  14.019
96376W        W68636  23.745  19.275   0.752
96377W        W68637  10.364  42.773  10.341
96378W        W68638  33.625   9.231   3.828
96379W        W68639  24.257  34.986  12.516
96380W        W68640   5.871  14.039   0.770
96381W        W68641  37.518  28.615  11.731
96382W        W68642  42.321  17.687  13.465
96383W        W68643  37.512   4.390  12.827
96384W        W68644  42.425   7.915   3.813
96385W        W68645   9.861  20.506  12.417
96386W        W68646  10.875  16.723   2.152
96387W        W68647   1.200  30.172   2.515
96388W        W68648   3.424  31.330   0.830
96389W        W68649  17.021   3.386  13.034
96390W        W68650  34.367   1.325  12.315
96391W        W68651  41.840  17.028  12.101
96392W        W68652  16.115  27.840   3.698
96393W        W68653  44.340  21.784   2.468
96394W        W68654  11.127  10.420   1.325
96395W        W68655  12.644   9.866  14.709
96396W        W68656  25.530   8.401  13.624
96397W        W68657   5.221  44.331  12.500
96398W        W68658  20.004   8.774   1.226
96399W        W68659  23.257  17.582   2.230
96400W        W68660   9.105   8.720  14.879
96401W        W68661  16.381  17.823  11.746
96402W        W68662  30.967   9.275  14.774
96403W        W68663  26.145   7.417  11.479
96404W        W68664   8.338   3.313   3.865
96405W        W68665  27.183  42.932  11.584
96406W        W68666  21.108  41.945   4.510
96407W        W68667  10.528  33.861  12.900
96408W        W68668   2.862  17.774  12.948
96409W        W68669   7.218  19.066   2.512
96410W        W68670  35.782  37.385   2.816
96411W        W68671  38.302  40.866  13.101
96412W        W68672   0.236   3.286   3.115
96413W        W68673  29.214   7.396  11.843
96414W        W68674  36.075   5.242  11.923
96415W        W68675   4.713  21.966  14.584
96416W        W68676   4.776   5.246  11.130
96417W        W68677   8.895  17.526  13.494
96418W        W68678  34.136  14.568   4.248
96419W        W68679  42.053  27.153  11.930
96420W        W68680  27.613  34.989  11.715
96421W        W68681  18.344  18.505   4.616
96422W        W68682  26.147  15.426  10.550
96423W        W68683  10.790  13.592  14.055
96424W        W68684  12.632  15.276   1.209
96425W        W68685   4.366  33.475  14.075
96426W        W68686  13.063   9.991   4.231
96427W        W68687   2.270   7.629  10.984
96428W        W68688   1.420  29.846   4.465
96429W        W68689   6.895  23.725   3.563
96430W        W68690  13.183  15.074   3.891
96431W        W68691  17.640  14.697  13.274
96432W        W68692  41.429  36.040   2.868
96433W        W68693   8.904   1.735   2.849
96434W        W68694  30.393  16.707   1.471
96435W        W68695  12.381  42.877   0.994
96436W        W68696  30.498  23.517  12.208
96437W        W68697  28.186   6.157  12.959
96438W        W68698   0.871  22.720  14.313
96439W        W68699  36.004  37.404  11.671
96440W        W68700  38.750  13.704   4.299
96441W        W68701   5.423  26.084  10.695
96442W        W68702  43.137  37.102   2.213
96443W        W68703  30.866   2.289   2.685
96444W        W68704  39.142  21.803   1.787
96445W        W68705  17.366   9.326  14.205
96446W        W68706  13.336  12.786  12.770
96447W        W68707   6.759  25.620  10.626
96448W        W68708  28.065  33.050  10.172
96449W        W68709  29.089  32.448  14.388
96450W        W68710   8.835  15.383  11.545
96451W        W68711  26.440  40.517  13.953
96452W        W68712  17.554   5.662  13.295
96453W        W68713  27.942  23.702  12.076
96454W        W68714  21.786  34.444   4.456
96455W        W68715  34.057  29.880   2.844
96456W        W68716  14.334  34.380   1.121
96457W        W68717  41.167  19.728  13.475
96458W        W68718  13.985   2.826   2.385
96459W        W68719  15.117  17.589   4.261
96460W        W68720   4.197  16.614   3.324
96461W        W68721  41.871  11.545   0.683
96462W        W68722  12.620  19.629   2.823
96463W        W68723  14.837  30.730  13.919
96464W        W68724   2.907  14.407  11.897
96465W        W68725  22.570   4.216  13.077
96466W        W68726  38.045  27.507  12.515
96467W        W68727  31.955  36.370   5.033
96468W        W68728  27.555  34.106   1.754
96469W        W68729  17.100   4.219   3.172
96470W        W68730  42.305  11.410   0.939
96471W        W68731  15.632  38.976  10.996
96472W        W68732  33.480  22.106  13.852
96473W        W68733  38.830  44.855   0.462
96474W        W68734  43.572  24.092  14.418
96475W        W68735  12.210  21.045   1.319
96476W        W68736  23.094  28.230  14.099
96477W        W68737  33.911  43.480  11.086
96478W        W68738   4.870  39.512  14.224
96479W        W68739  36.129  33.898   4.301
96480W        W68740  34.410  38.524   2.886
96481W        W68741  14.773   3.630   0.243
96482W        W68742  36.106   2.075   4.133
96483W        W68743  35.888   3.017   1.821
96484W        W68744  11.775  22.437  14.782
96485W        W68745  44.946   3.428  14.441
96486W        W68746  30.707  44.526  14.408
96487W        W68747  14.175  24.032  12.418
96488W        W68748  43.368   1.188   2.817
96489W        W68749  25.001   9.676  14.794
96490W        W68750  32.726  30.950   2.659
96491W        W68751   0.255  37.534  10.596
96492W        W68752  31.858  29.969  13.400
96493W        W68753  25.463   2.993  13.563
96494W        W68754  32.586  25.506   3.033
96495W        W68755  32.033  25.280   1.256
96496W        W68756  18.652  12.549  13.363
96497W        W68757  30.655  11.151   3.072
96498W        W68758  20.616  36.440  13.301
96499W        W68759  20.001  12.917   3.153
96500W        W68760  18.550  36.948   0.572
96501W        W68761  33.477  42.430  14.237
96502W        W68762  19.706  10.267   2.743
96503W        W68763  22.771  20.234   2.209
96504W        W68764  31.025  10.946  10.968
96505W        W68765  26.074  23.185   4.125
96506W        W68766  29.994   2.868   1.210
96507W        W68767  17.788  17.783   4.601
96508W        W68768  40.042  21.066  10.883
96509W        W68769  11.849  11.598  10.927
96510W        W68770  44.531  27.880  13.927
96511W        W68771  34.880  42.977  12.163
96512W        W68772  43.371   4.873   4.673
96513W        W68773  16.682  30.465   1.721
96514W        W68774  26.273  34.900  10.958
96515W        W68775  35.075  34.632  14.286
96516W        W68776  33.107   2.925   4.312
96517W        W68777  24.545  29.459   0.555
96518W        W68778  16.848  16.474   5.060
96519W        W68779  24.695   9.489   4.189
96520W        W68780  27.656  37.709  10.201
96521W        W68781   1.927   9.564  12.438
96522W        W68782  42.229  12.737   3.273
96523W        W68783  10.035  37.933  10.481
96524W        W68784  20.564  31.649  14.650
96525W        W68785   3.773  30.408  13.779
96526W        W68786  13.058   4.446   3.336
96527W        W68787  32.905  11.845  14.942
96528W        W68788  34.605  42.567   0.160
96529W        W68789  11.320  32.451   1.314
96530W        W68790   3.062  29.903  13.610
96531W        W68791   9.182  41.533   3.213
96532W        W68792  10.912  14.724   3.745
96533W        W68793  44.029  30.510   1.687
96534W        W68794  42.345   8.239  11.535
96535W        W68795  17.636  44.092  13.940
96536W        W68796  35.514  24.852  12.409
96537W        W68797  32.580  29.958   1.409
96538W        W68798  22.088  41.500   4.084
96539W        W68799  31.931   2.771  12.166
96540W        W68800  18.626  10.090   3.261
96541W        W68801  18.741   4.867   5.001
96542W        W68802  27.345  24.500  14.828
96543W        W68803  28.749  27.251  12.489
96544W        W68804  19.171  39.814  12.523
96545W        W68805   9.828   0.388   4.150
96546W        W68806  44.914  37.673  12.524
96547W        W68807  10.106  35.693  11.640
96548W        W68808  16.281   8.404  13.383
96549W        W68809  25.698  30.678  12.931
96550W        W68810  15.552  32.268  10.757
96551W        W68811  39.818  13.630   4.217
96552W        W68812  16.228  11.682  12.516
96553W        W68813   1.694  22.729  10.662
96554W        W68814  41.611  23.215   3.372
96555W        W68815   3.463  25.185   4.951
96556W        W68816  17.886  27.166  12.271
96557W        W68817   2.418  32.378   2.631
96558W        W68818   0.408  16.617  10.529
96559W        W68819  32.677  21.696  12.168
96560W        W68820  24.882  41.842   4.936
96561W        W68821   3.056  23.106   3.089
96562W        W68822  36.024  35.073   0.906
96563W        W68823  37.136  17.532   4.173
96564W        W68824  16.756   2.972   3.394
96565W        W68825  32.167   9.720  13.773
96566W        W68826  38.945  30.685   3.780
96567W        W68827  30.448  25.602  12.905
96568W        W68828   7.243  13.634  10.997
96569W        W68829   9.415  13.336  12.419
96570W        W68830  18.196  25.037   0.354
96571W        W68831  12.738  15.069  13.694
96572W        W68832  29.303  43.146   2.744
96573W        W68833   3.352  17.085   4.655
96574W        W68834  29.153   8.386  12.833
96575W        W68835   2.989  34.517   3.516
96576W        W68836  30.657   8.569  12.037
96577W        W68837   6.513  34.752   4.234
96578W        W68838  23.091  18.752   5.046
96579W        W68839  22.946  13.731   0.698
96580W        W68840  10.472  11.080  11.198
96581W        W68841   6.285   2.171   0.486
96582W        W68842  40.787  24.019   2.311
96583W        W68843  17.591   4.503   0.856
96584W        W68844  19.678  28.050  13.465
96585W        W68845  27.530  11.467  11.998
96586W        W68846  30.565  42.598  12.063
96587W        W68847  34.045  34.847   2.312
96588W        W68848  19.795  20.777   0.139
96589W        W68849  29.214  33.821  10.138
96590W        W68850  10.228  14.731   3.080
96591W        W68851  38.944  18.131  11.150
96592W        W68852  34.518  33.920  14.756
96593W        W68853  24.926  14.611   3.163
96594W        W68854  30.944  42.039   3.629
96595W        W68855  18.708  27.507   3.309
96596W        W68856  18.590  15.191  13.608
96597W        W68857   3.479  33.797  11.105
96598W        W68858  21.560  42.135  10.641
96599W        W68859   8.289   0.036  12.063
96600W        W68860  21.485   3.367  12.540
96601W        W68861   7.285  40.576  14.496
96602W        W68862  38.457  31.419   0.335
96603W        W68863  15.300  13.595  14.701
96604W        W68864  16.913   6.297   3.582
96605W        W68865  14.630  21.291   4.060
96606W        W68866  22.526  12.881  13.252
96607W        W68867  27.759   5.936  14.303
96608W        W68868  33.610   6.720  13.668
96609W        W68869  17.216   2.903  13.956
96610W        W68870  15.681  27.223   4.088
96611W        W68871  43.214  35.876   1.342
96612W        W68872  30.053  21.570  12.925
96613W        W68873  11.319  22.279  13.710
96614W        W68874  28.225  23.038   3.426
96615W        W68875   2.269  16.225   0.427
96616W        W68876  20.610  11.895  10.963
96617W        W68877  10.187  38.752  12.805
96618W        W68878   9.290  10.479   2.432
96619W        W68879   5.400   7.602  12.946
96620W        W68880  42.984  14.412   2.859
96621W        W68881  10.662  20.145   3.293
96622W        W68882  16.870  36.582   2.013
96623W        W68883  25.856   6.789   1.435
96624W        W68884   4.049  11.705  13.445
96625W        W68885  42.839  35.124   2.277
96626W        W68886  14.704   3.450   3.728
96627W        W68887   7.309  24.948   1.651
96628W        W68888   5.923  43.316  11.968
96629W        W68889  16.151  24.771   1.762
96630W        W68890  38.704   3.606   4.225
96631W        W68891  18.382  28.523   2.292
96632W        W68892  40.314   3.421  13.972
96633W        W68893  12.786  25.464   3.321
96634W        W68894   0.812  36.935  12.967
96635W        W68895  42.007   8.698  11.549
96636W        W68896  16.347  16.676  11.192
96637W        W68897  27.088   7.693  12.980
96638W        W68898  15.200  11.369  14.480
96639W        W68899  34.279   7.369   4.444
96640W        W68900  32.514  13.791  14.249
96641W        W68901  13.603  32.120  13.348
96642W        W68902  41.839  29.997   3.800
96643W        W68903  43.808  18.540   3.198
96644W        W68904  21.655  43.711  13.040
96645W        W68905  33.512   8.476   3.136
96646W        W68906  28.669  38.360  13.792
96647W        W68907   6.964  29.600   1.811
96648W        W68908  28.919  23.474  12.077
96649W        W68909   9.793  14.531  14.426
96650W        W68910  40.122  42.051   2.839
96651W        W68911   2.727  43.447  11.685
96652W        W68912  18.109  41.284  12.280
96653W        W68913   8.096  27.008  13.305
96654W        W68914   3.397  27.507  10.783
96655W        W68915  29.984  14.823   4.554
96656W        W68916  18.659  41.382   0.970
96657W        W68917   9.580  33.616   0.910
96658W        W68918  35.350  37.650  13.808
96659W        W68919  17.491  25.881   1.379
96660W        W68920  24.003   3.524   1.851
96661W        W68921   4.712  39.263  13.823
96662W        W68922  17.338  32.054   3.262
96663W        W68923  37.128   8.860  12.574
96664W        W68924   5.006  16.488  12.966
96665W        W68925  21.460   0.353  12.062
96666W        W68926  20.555   5.355  11.112
96667W        W68927  21.243  35.380   2.206
96668W        W68928  16.065  25.105   1.331
96669W        W68929  10.330  33.758   4.840
96670W        W68930  43.343  36.607  12.712
96671W        W68931   5.242  32.881   2.332
96672W        W68932  22.648   6.137   0.728
96673W        W68933  30.371  28.434  11.318
96674W        W68934  29.769  41.377   2.337
96675W        W68935  12.759  14.386  11.495
96676W        W68936  15.657  34.686   1.761
96677W        W68937  33.147  32.413  14.084
96678W        W68938   8.366  10.224  13.851
96679W        W68939  40.192   2.433   4.247
96680W        W68940  11.805  39.932   4.928
96681W        W68941  35.663  33.353  11.590
96682W        W68942   3.446  12.140  13.855
96683W        W68943  12.669   9.368  14.875
96684W        W68944   8.357  26.800   2.973
96685W        W68945  22.029   3.893  13.508
96686W        W68946  20.558  10.342   3.314
96687W        W68947  32.685  26.466  11.545
96688W        W68948  30.931  38.044   3.403
96689W        W68949  17.077   5.737  11.545
96690W        W68950  41.019  12.673  14.037
96691W        W68951  20.280  41.482  10.783
96692W        W68952   9.336  33.340   1.785
96693W        W68953  35.091  11.236   3.757
96694W        W68954   5.328  28.665   1.856
96695W        W68955  42.538  25.779  13.660
96696W        W68956   8.396   1.306   2.261
96697W        W68957  32.263  19.459  14.833
96698W        W68958  14.699   6.126   1.465
96699W        W68959  43.526  38.728   1.374
96700W        W68960   9.613  25.022  11.528
96701W        W68961   5.939  40.551   2.263
96702W        W68962  17.114   3.249   4.143
96703W        W68963  33.382  16.497  14.281
96704W        W68964  29.606   8.728  14.240
96705W        W68965  19.839  10.320  14.096
96706W        W68966  35.974  22.706   4.518
96707W        W68967  36.491  22.723   0.434
96708W        W68968  24.377  33.907  12.755
96709W        W68969  40.019  41.447   2.238
96710W        W68970  35.370   2.787   4.151
96711W        W68971  39.922  14.613   2.214
96712W        W68972  19.819  18.012   3.304
96713W        W68973  43.399  37.165   1.744
96714W        W68974  18.073  31.936  14.349
96715W        W68975   8.242  15.108   1.881
96716W        W68976  12.079  25.084   2.679
96717W        W68977  38.029  42.078  13.346
96718W        W68978  19.860  44.780  14.535
96719W        W68979   8.207   5.927  11.061
96720W        W68980  44.706  24.071  14.811
96721W        W68981  21.007  40.454  11.487
96722W        W68982  33.380  21.080   0.403
96723W        W68983  43.264  18.497   0.731
96724W        W68984  32.782  17.624  13.065
96725W        W68985  29.120  14.724  13.490
96726W        W68986  25.608  39.693   9.827
96727W        W68987  23.407  14.382   3.269
96728W        W68988  12.809  37.853  11.915
96729W        W68989  35.623  35.996  13.477
96730W        W68990  42.370  16.275  10.597
96731W        W68991  18.181   2.945   2.177
96732W        W68992  22.030  22.724   1.359
96733W        W68993  23.527  26.681   1.707
96734W        W68994  11.535  23.506   1.510
96735W        W68995  41.003  27.472  11.605
96736W        W68996  26.080  38.907   5.501
96737W        W68997  35.459   6.910  11.979
96738W        W68998   1.163  44.049   4.188
96739W        W68999  26.725  23.780   3.091
96740W        W69000  41.184  26.924  12.547
96741W        W69001   3.670   5.741  14.717
96742W        W69002  26.655   1.373   2.708
96743W        W69003   2.283  37.422  10.784
96744W        W69004  34.317  12.191  12.130
96745W        W69005  29.385  20.222   1.547
96746W        W69006  20.804  22.244   2.782
96747W        W69007  32.478  38.464   1.219
96748W        W69008  26.516  17.801  11.841
96749W        W69009  20.712  39.453  14.861
96750W        W69010  44.392  17.094  12.792
96751W        W69011   8.273   6.741   2.714
96752W        W69012  22.614  21.192   5.686
96753W        W69013  36.492   9.119   3.862
96754W        W69014   0.868  31.832   4.643
96755W        W69015  31.045  30.153  14.512
96756W        W69016  25.165  35.051   0.330
96757W        W69017  25.220  29.518   2.853
96758W        W69018  34.319  16.183  13.568
96759W        W69019  23.939  33.525  13.476
96760W        W69020  38.480   7.990   2.457
96761W        W69021  37.890  21.703  10.652
96762W        W69022   6.412   8.917   2.130
96763W        W69023  13.615   5.265  10.721
96764W        W69024   4.451   3.312   2.162
96765W        W69025  25.122   4.132   0.860
96766W        W69026  38.473  16.600  13.327
96767W        W69027  15.877  33.341  13.069
96768W        W69028  32.144   3.854  11.351
96769W        W69029  16.781  17.330   4.677
96770W        W69030  16.203  13.188   4.208
96771W        W69031   2.982  26.545   0.786
96772W        W69032   9.538  27.708   0.904
96773W        W69033  39.327   1.899  14.975
96774W        W69034  30.345  29.630   3.279
96775W        W69035  35.969  13.781  13.601
96776W        W69036   9.563  12.704   1.421
96777W        W69037   0.570  35.417   2.051
96778W        W69038  40.134  36.953   1.605
96779W        W69039  13.182  31.169  11.529
96780W        W69040  39.532  24.666   0.297
96781W        W69041  44.931  39.359   3.956
96782W        W69042  33.835   0.392  14.401
96783W        W69043   1.490   2.463   4.561
96784W        W69044  36.896  21.727   2.301
96785W        W69045  38.863  18.199  10.195
96786W        W69046  19.753  29.204  13.683
96787W        W69047  40.862  34.153  11.276
96788W        W69048  35.843   6.309   2.280
96789W        W69049  12.742  38.372   4.302
96790W        W69050  43.341  14.060  11.313
96791W        W69051  15.115  39.599  11.058
96792W        W69052  31.157   6.873   1.727
96793W        W69053  37.415  37.082  11.156
96794W        W69054   8.632  20.519   1.009
96795W        W69055  12.699   3.667   4.779
96796W        W69056   4.628  32.526  11.466
96797W        W69057  39.351  21.208  14.292
96798W        W69058   7.143  31.133   0.369
96799W        W69059  30.237  28.918   4.518
96800W        W69060  26.460   4.484  13.457
96801W        W69061  27.936   9.733  11.522
96802W        W69062  26.065  12.416   0.444
96803W        W69063  22.759  11.886  14.389
96804W        W69064   2.063  13.853   2.831
96805W        W69065   4.065  34.080   3.215
96806W        W69066   9.727  28.708   1.403
96807W        W69067  38.920  41.478   3.589
96808W        W69068  41.330   3.738   3.619
96809W        W69069  40.240   3.442   2.814
96810W        W69070   7.707  38.148   4.084
96811W        W69071  36.982  23.813   4.446
96812W        W69072  37.862  38.562  14.790
96813W        W69073  32.334  39.894  13.461
96814W        W69074  16.543   9.131  10.489
96815W        W69075  44.432  27.610   1.728
96816W        W69076  15.159   5.429   4.748
96817W        W69077  40.110  11.384   0.029
96818W        W69078  17.067  11.731   2.192
96819W        W69079  18.775   6.082   5.081
96820W        W69080  44.317  23.813   2.237
96821W        W69081  43.923  21.143  14.375
96822W        W69082  32.946  39.005   1.769
96823W        W69083  41.925  10.787   1.687
96824W        W69084  25.470  38.537  11.193
96825W        W69085  15.689   1.890   1.479
96826W        W69086  18.501   0.199   1.707
96827W        W69087   1.236  17.087  12.001
96828W        W69088  26.451  28.071  13.359
96829W        W69089   8.110  38.522   4.122
96830W        W69090   3.296  18.346  14.060
96831W        W69091  38.756  30.072   4.971
96832W        W69092  14.652  22.521  10.693
96833W        W69093  23.772  11.772  12.899
96834W        W69094  21.998  25.210  12.646
96835W        W69095  36.980  22.643   0.224
96836W        W69096  14.519  37.776   1.811
96837W        W69097  29.021  35.295  14.969
96838W        W69098  39.735  20.716  12.163
96839W        W69099  32.993  34.346   0.705
96840W        W69100  20.621   2.425  13.903
96841W        W69101  25.712  34.411   4.594
96842W        W69102  15.142  41.615  12.335
96843W        W69103  35.500  10.418   1.383
96844W        W69104  24.621  31.222   2.427
96845W        W69105  26.195  23.142  13.840
96846W        W69106   1.790   6.283   2.337
96847W        W69107   1.319  32.320   4.941
96848W        W69108   5.744  32.960  10.686
96849W        W69109  39.567  40.575  13.407
96850W        W69110   5.173  35.399  12.566
96851W        W69111   3.324  21.486  10.673
96852W        W69112  37.041   4.325   1.501
96853W        W69113  41.544  40.515  12.310
96854W        W69114   7.183  29.505   4.862
96855W        W69115  26.505  40.369   0.362
96856W        W69116   8.533  13.470  11.412
96857W        W69117  31.122   3.340  12.898
96858W        W69118  36.963   0.888  13.267
96859W        W69119  31.099   8.674  10.526
96860W        W69120   1.266  24.696   4.968
96861W        W69121  20.485  39.904   4.787
96862W        W69122  19.784  17.310   2.749
96863W        W69123  27.058   1.810  13.889
96864W        W69124  27.070  15.642  14.094
96865W        W69125  37.857  44.069   4.759
96866W        W69126  42.831  42.693  13.850
96867W        W69127  18.527  28.398  12.539
96868W        W69128  36.247  39.011  10.307
96869W        W69129   8.942   6.309   0.820
96870W        W69130  32.172  41.779   0.336
96871W        W69131  12.675  43.270  13.958
96872W        W69132  14.069  17.251   2.460
96873W        W69133  38.358  33.495  12.048
96874W        W69134  42.185  38.924   0.531
96875W        W69135  44.901  33.947  14.047
96876W        W69136  29.434   9.960   3.212
96877W        W69137   5.339  36.744  13.942
96878W        W69138  35.451  26.430  14.952
96879W        W69139  25.491  44.535  10.043
96880W        W69140  39.881  24.436   3.173
96881W        W69141  28.679  37.640  13.337
96882W        W69142  18.737  31.740  13.881
96883W        W69143  29.721   7.629   3.906
96884W        W69144   8.886  38.120   1.933
96885W        W69145  22.025  16.769   4.589
96886W        W69146  10.679   2.684   4.720
96887W        W69147  23.216  38.772   3.645
96888W        W69148   7.157  15.171  11.940
96889W        W69149   9.627  30.697  11.479
96890W        W69150  43.315  42.236  14.580
96891W        W69151  39.131  43.967   4.330
96892W        W69152  30.146  30.167   0.483
96893W        W69153   1.000   2.717   4.113
96894W        W69154  10.771  19.007   2.179
96895W        W69155  27.404  34.762   2.131
96896W        W69156  17.388   3.876   5.161
96897W        W69157  33.874  29.476  10.415
96898W        W69158  32.406  10.178  13.823
96899W        W69159   1.899   3.204  12.084
96900W        W69160  41.080   5.799   2.304
96901W        W69161  24.599  34.609   3.117
96902W        W69162  41.578  23.632   0.594
96903W        W69163  25.612  19.869   1.595
96904W        W69164   4.779  18.459   3.695
96905W        W69165  39.540  30.953  12.786
96906W        W69166  35.497   7.441  13.363
96907W        W69167  15.183   7.171  11.539
96908W        W69168  32.171  29.085   3.709
96909W        W69169  41.063  30.732   0.792
96910W        W69170  16.122  31.015   1.546
96911W        W69171  34.394  27.209  14.043
96912W        W69172   6.652   8.205   1.298
96913W        W69173   2.440  10.564  12.508
96914W        W69174  13.727  24.972   0.440
96915W        W69175  12.075   6.656  14.481
96916W        W69176  35.565   2.018   0.947
96917W        W69177  41.830  23.453   4.198
96918W        W69178  32.853  37.758  11.718
96919W        W69179  16.542   9.320   2.306
96920W        W69180  31.626  13.350   2.110
96921W        W69181   1.023  37.370   3.243
96922W        W69182  40.873   0.577  12.406
96923W        W69183  18.155  11.310   2.711
96924W        W69184  12.192  14.324   3.615
96925W        W69185   5.730  38.161   0.784
96926W        W69186  39.400  11.159  11.060
96927W        W69187   1.703  31.420   4.914
96928W        W69188   4.671  34.068  10.659
96929W        W69189   3.781  13.751  14.910
96930W        W69190   5.224   3.715   1.845
96931W        W69191  27.571  25.090  12.923
96932W        W69192  21.628  14.138   3.434
96933W        W69193  13.331  42.054   2.244
96934W        W69194  28.009  12.585  12.460
96935W        W69195  18.695   8.140  12.051
96936W        W69196  39.749  32.203   2.324
96937W        W69197  13.218  25.140  13.101
96938W        W69198  19.579  38.866  14.297
96939W        W69199  34.521  14.796   2.899
96940W        W69200  27.850   8.941  11.378
96941W        W69201  41.945  28.989  11.778
96942W        W69202  11.697  33.935  11.462
96943W        W69203  37.764   2.217   2.726
96944W        W69204  17.052   2.480   1.745
96945W        W69205  27.402  31.515  12.460
96946W        W69206  20.834  27.061  12.772
96947W        W69207  30.350  24.714  11.175
96948W        W69208  25.570  43.457  14.851
96949W        W69209  34.510  36.587   3.610
96950W        W69210  27.684   4.126  14.946
96951W        W69211  37.899   5.304   2.169
96952W        W69212   9.805   2.489   3.728
96953W        W69213  29.882  20.511   1.227
96954W        W69214  42.561  30.653  12.213
96955W        W69215  22.277  12.641  12.858
96956W        W69216   9.767  33.412   1.332
96957W        W69217  38.282  23.971   0.286
96958W        W69218   7.735  11.564  10.738
96959W        W69219  25.049  17.047  10.741
96960W        W69220  29.953  30.449  12.408
96961W        W69221  18.286  16.596  11.175
96962W        W69222  23.670  15.106  14.828
96963W        W69223  17.092  10.151   4.652
96964W        W69224  31.049  38.991  13.041
96965W        W69225  39.974  15.281  11.634
96966W        W69226  27.169  34.013   3.778
96967W        W69227  39.332  31.106  10.416
96968W        W69228  20.780  10.624   4.174
96969W        W69229  31.099  26.240  10.627
96970W        W69230  12.761  17.747  12.600
96971W        W69231  44.501   5.424  13.771
96972W        W69232  22.278  13.552   3.227
96973W        W69233  21.724   1.867  10.660
96974W        W69234  26.549  26.550   1.048
96975W        W69235   2.486  20.321  10.675
96976W        W69236   0.579  42.093  14.954
96977W        W69237  39.758  42.343  11.983
96978W        W69238  29.049   0.865  14.429
96979W        W69239   7.453  20.558   3.130
96980W        W69240   0.220  15.620  12.136
96981W        W69241  18.724  26.259   2.724
96982W        W69242  12.252  36.064  12.073
96983W        W69243  29.198  24.759  14.975
96984W        W69244  34.644  29.601   3.682
96985W        W69245  44.863   1.708   4.555
96986W        W69246  19.711  25.288   0.040
96987W        W69247  28.235   2.275  11.650
96988W        W69248  17.175  15.556   4.230
96989W        W69249  16.360  37.973  13.852
96990W        W69250  39.027  38.350   0.784
96991W        W69251  12.199  33.199  12.578
96992W        W69252  15.612  33.506  12.367
96993W        W69253  12.072  19.229  10.778
96994W        W69254   3.917  27.522   3.359
96995W        W69255  24.576   1.728  10.981
96996W        W69256  25.733  29.034   4.439
96997W        W69257  33.195  23.302   0.856
96998W        W69258  27.023  44.383   4.122
96999W        W69259  42.404  42.697   0.386
97000W        W69260  23.747  12.592  10.410
97001W        W69261  10.047   6.822   3.352
97002W        W69262  41.101  28.252  13.632
97003W        W69263  20.236  21.460   3.781
97004W        W69264  21.118  30.538   2.695
97005W        W69265  29.138  21.770   1.754
97006W        W69266  11.127  44.838   3.666
97007W        W69267  37.523   4.924   2.092
97008W        W69268   2.954  34.057   4.163
97009W        W69269  32.941  31.768   2.177
97010W        W69270   7.477  32.901  13.344
97011W        W69271  23.209   4.749  13.440
97012W        W69272  19.524  15.640  11.550
97013W        W69273   2.184  18.612  12.007
97014W        W69274  37.730  11.623  14.797
97015W        W69275   6.859   9.298  11.100
97016W        W69276  19.136  15.610  11.226
97017W        W69277  28.508   4.332  11.797
97018W        W69278  35.813  20.640  12.349
97019W        W69279  30.890   9.378   4.994
97020W        W69280   3.776   8.510   2.698
97021W        W69281   8.425   6.876   1.439
97022W        W69282  41.550  26.633  14.221
97023W        W69283   0.710  44.814  10.338
97024W        W69284  16.193  25.118   4.631
97025W        W69285  14.700  25.000   3.313
97026W        W69286  14.309  37.024  11.831
97027W        W69287  14.518  28.569   1.241
97028W        W69288  30.457   5.093  14.749
97029W        W69289  14.704  38.079  13.087
97030W        W69290  16.972  21.692   0.343
97031W        W69291   2.994  41.519   3.271
97032W        W69292  33.257  38.524  13.184
97033W        W69293  28.913   6.749   3.669
97034W        W69294  40.180  20.218   1.286
97035W        W69295  41.826  11.026   4.130
97036W        W69296   5.429  20.669   3.514
97037W        W69297  36.074  15.154   3.646
97038W        W69298  22.328  35.908  12.869
97039W        W69299  42.789  37.369   3.755
97040W        W69300  18.083  11.248  13.345
97041W        W69301  29.447  41.392  13.598
97042W        W69302  10.694  34.669   2.168
97043W        W69303  14.347  23.774  12.938
97044W        W69304  30.733   9.704   3.296
97045W        W69305   8.249   0.257   3.504
97046W        W69306  18.675  43.439   3.534
97047W        W69307  19.583  19.625  13.387
97048W        W69308  10.050  22.750  12.306
97049W        W69309  36.389  13.622   2.308
97050W        W69310  35.588   9.188   1.049
97051W        W69311  40.979  27.100   1.825
97052W        W69312  24.020  16.318   3.811
97053W        W69313   1.719   8.215  11.405
97054W        W69314  42.883   8.198  10.721
97055W        W69315   8.384  41.029   0.176
97056W        W69316   2.566  18.459   4.623
97057W        W69317   8.911  14.749   3.681
97058W        W69318  19.828   9.646   2.316
97059W        W69319  15.004  22.178  12.715
97060W        W69320  29.096  18.519   3.883
97061W        W69321  44.013  35.411  12.939
97062W        W69322  25.612   1.619   3.048
97063W        W69323   1.466  33.816   0.744
97064W        W69324  44.285  24.488   3.381
97065W        W69325  21.544  39.040   3.002
97066W        W69326   3.889  30.687   2.821
97067W        W69327  13.159  31.847  13.294
97068W        W69328   7.536  14.586   3.818
97069W        W69329   2.985   2.429   5.070
97070W        W69330  44.089  16.720  14.548
97071W        W69331  25.098  10.162  14.588
97072W        W69332   2.773  24.024   1.382
97073W        W69333  30.072  36.542  14.466
97074W        W69334  17.401   8.350  11.068
97075W        W69335  23.715   5.864  12.134
97076W        W69336  17.303  37.556  12.986
97077W        W69337  20.270  15.137   1.813
97078W        W69338  11.628  33.021  13.421
97079W        W69339  36.017  14.837   1.273
97080W        W69340  42.542  25.362  13.307
97081W        W69341   9.514  16.156   1.673
97082W        W69342  30.651  32.780  11.869
97083W        W69343  13.599  44.391   1.343
97084W        W69344  28.471  12.810  10.628
97085W        W69345  39.734   8.923   4.582
97086W        W69346  30.601  20.250   1.790
97087W        W69347  13.365  14.666   2.360
97088W        W69348  27.492   7.383  14.428
97089W        W69349  14.601  22.085  13.416
97090W        W69350  22.771   8.778   5.078
97091W        W69351  12.803  35.721   2.673
97092W        W69352  27.683  13.351  14.823
97093W        W69353  27.606  17.713  10.775
97094W        W69354  21.976   4.705   0.509
97095W        W69355   4.840  21.596  12.556
97096W        W69356  19.660  22.181   4.302
97097W        W69357  31.147  28.455  12.442
97098W        W69358  13.580  15.160  12.937
97099W        W69359  16.997  39.451  12.518
97100W        W69360  27.493  29.234  12.350
97101W        W69361   7.942  38.343   0.496
97102W        W69362  41.486  19.178   0.753
97103W        W69363   7.514   3.378  13.026
97104W        W69364   6.768  18.745   2.471
97105W        W69365  28.167   8.322   0.781
97106W        W69366  10.015  37.364   2.749
97107W        W69367  34.663  37.275   2.564
97108W        W69368  26.796   2.008  10.189
97109W        W69369   2.361  25.519   2.156
97110W        W69370  23.729  35.636   0.806
97111W        W69371  42.750   9.135   3.649
97112W        W69372  13.129  14.432   1.809
97113W        W69373  11.326  31.492   0.839
97114W        W69374  13.622  18.586   1.472
97115W        W69375   8.813   2.795   3.162
97116W        W69376  19.794  42.980  14.088
97117W        W69377  13.379   0.813  12.581
97118W        W69378  35.482   5.244  13.526
97119W        W69379  24.509  24.080  11.196
97120W        W69380  31.189  14.717   0.237
97121W        W69381  39.880  27.086  12.985
97122W        W69382  33.561  31.861  12.057
97123W        W69383  29.897   2.312   3.082
97124W        W69384  35.048  36.791   1.737
97125W        W69385   6.406   0.729  14.880
97126W        W69386   8.746  26.758   0.713
97127W        W69387   7.935  41.936  12.449
97128W        W69388   4.178  15.511  12.965
97129W        W69389  12.001  33.464   3.227
97130W        W69390   6.993   0.706   1.440
97131W        W69391  37.327  36.565   3.838
97132W        W69392  44.784  42.474   1.556
97133W        W69393  10.173  28.904   1.634
97134W        W69394  16.140  23.639  10.742
97135W        W69395  27.618  14.135   4.668
97136W        W69396  41.449  30.132  11.425
97137W        W69397  27.288  18.414   4.261
97138W        W69398   2.259  28.414  11.602
97139W        W69399  21.674  24.117   0.857
97140W        W69400  37.825  35.969   3.348
97141W        W69401  42.381  32.384   2.911
97142W        W69402  38.216  36.510  11.340
97143W        W69403  12.615  20.576  12.526
97144W        W69404  38.655  10.279   0.865
97145W        W69405  40.393  16.546  11.475
97146W        W69406  44.341  25.525   4.661
97147W        W69407  12.158  41.882   3.804
97148W        W69408   7.702  20.653  14.184
97149W        W69409  29.310  10.330   4.163
97150W        W69410  21.175  32.240  13.524
97151W        W69411   7.408  21.747   4.226
97152W        W69412  24.082   0.526  11.213
97153W        W69413  22.645   5.855   0.247
97154W        W69414  28.556  15.031  10.747
97155W        W69415  11.757  38.574   3.280
97156W        W69416  42.247  42.193   0.393
97157W        W69417  27.913  21.139  12.119
97158W        W69418  17.062  37.911  13.293
97159W        W69419  34.064   4.900  10.500
97160W        W69420  25.693  33.224   0.998
97161W        W69421  17.772  18.118   1.717
97162W        W69422  11.280  11.425   1.434
97163W        W69423  23.606  42.254  14.016
97164W        W69424  10.344   5.799  12.686
97165W        W69425  37.923  35.004   3.236
97166W        W69426  30.937  18.637  13.566
97167W        W69427  22.568  22.014   4.559
97168W        W69428  14.560  44.956   4.314
97169W        W69429  12.630  24.485  12.072
97170W        W69430   1.923   5.254   0.134
97171W        W69431  13.169  19.582  12.082
97172W        W69432  12.096  44.986   4.783
97173W        W69433  42.004  34.427   2.831
97174W        W69434  10.339   8.276  13.851
97175W        W69435  37.078  23.576  14.440
97176W        W69436  12.040  19.644  13.582
97177W        W69437   9.306  34.159  12.040
97178W        W69438  26.598  19.775  12.165
97179W        W69439  25.414   8.345   1.424
97180W        W69440  32.074  35.629   0.346
97181W        W69441   2.183  25.482  11.832
97182W        W69442   2.179  35.435   0.829
97183W        W69443   2.887  25.490  11.075
97184W        W69444  14.886   1.771  11.733
97185W        W69445  29.092  30.208  14.285
97186W        W69446  32.973  32.664   2.787
97187W        W69447  12.254   3.212   0.950
97188W        W69448  36.003  37.858  11.460
97189W        W69449  41.775  10.246   2.355
97190W        W69450   1.888  31.278  10.961
97191W        W69451  25.445  11.465   4.307
97192W        W69452  27.095  20.611   3.295
97193W        W69453  18.074  11.051  12.425
97194W        W69454   6.807  31.433  14.227
97195W        W69455   1.875   8.344   2.384
97196W        W69456  10.767  43.626  12.538
97197W        W69457  37.368   2.441   3.938
97198W        W69458   9.619  30.411  13.141
97199W        W69459  16.374   3.930  12.708
97200W        W69460  30.604   4.440   3.632
97201W        W69461   2.224  30.396   0.951
97202W        W69462   1.397  22.274  10.658
97203W        W69463  18.481  39.821   2.151
97204W        W69464  22.959  36.493   1.485
97205W        W69465  17.113  31.429  11.859
97206W        W69466  31.935   7.839  13.891
97207W        W69467  43.477  12.608  10.575
97208W        W69468  16.801   7.131   3.277
97209W        W69469  15.582  34.201  14.929
97210W        W69470  10.289  34.075   0.936
97211W        W69471  43.031   4.691  14.473
97212W        W69472   9.390  44.445   2.828
97213W        W69473   6.794   7.761   4.731
97214W        W69474  25.499  21.270  14.059
97215W        W69475   2.963  36.484  10.377
97216W        W69476   2.479  18.197  12.036
97217W        W69477   7.680  13.952   1.782
97218W        W69478  33.202  25.431  13.409
97219W        W69479  17.224  43.005   9.999
97220W        W69480  25.711  42.930   2.471
97221W        W69481  35.006  31.220   1.064
97222W        W69482   7.531  13.866  10.164
97223W        W69483  38.167  27.728   0.873
97224W        W69484   9.142   4.871  14.541
97225W        W69485  20.480  29.184  11.603
97226W        W69486  43.758  12.165   1.237
97227W        W69487  25.623  13.673  11.345
97228W        W69488  38.967  16.761   1.794
97229W        W69489  16.677  43.507  10.586
97230W        W69490   4.194  22.546  13.337
97231W        W69491  17.633  16.325  10.906
97232W        W69492   6.761  31.172   1.487
97233W        W69493  25.140  43.411  12.051
97234W        W69494  23.074  15.648   0.482
97235W        W69495  26.168   7.264  14.691
97236W        W69496  37.559   6.761   2.395
97237W        W69497  39.762  26.517   0.020
97238W        W69498   4.856  34.993   3.747
97239W        W69499  43.337  23.959   3.662
97240W        W69500   8.357  40.666  13.496
97241W        W69501  11.577  34.460   1.664
97242W        W69502  36.972   2.688  13.971
97243W        W69503  10.983  40.347  13.008
97244W        W69504  31.583  30.910  11.556
97245W        W69505  40.895  30.721  13.020
97246W        W69506  10.882   2.645  13.312
97247W        W69507   2.995  27.556  11.124
97248W        W69508   3.959  39.308   2.733
97249W        W69509  27.964  17.674  10.413
97250W        W69510   6.357  19.865  11.485
97251W        W69511   6.702  30.380  14.253
97252W        W69512   0.442   2.358   3.654
97253W        W69513   7.379  11.576   1.865
97254W        W69514   9.458  11.865  12.004
97255W        W69515  31.148  23.097   4.665
97256W        W69516  22.590   6.941   1.371
97257W        W69517  18.439  17.260  12.281
97258W        W69518  32.643  24.413  11.602
97259W        W69519  42.799  34.012   1.197
97260W        W69520  42.538  41.827  13.877
97261W        W69521  33.910  22.077   3.483
97262W        W69522  31.534  42.110   2.240
97263W        W69523  36.919  32.031   3.125
97264W        W69524  30.873  43.541  11.174
97265W        W69525  34.117  19.549   3.634
97266W        W69526  17.633  11.415   0.450
97267W        W69527  21.281  25.868  14.196
97268W        W69528  15.649  41.559  14.904
97269W        W69529   6.898   2.376  14.620
97270W        W69530  23.627   4.380   3.741
97271W        W69531  13.850  10.690  10.754
97272W        W69532  26.611  30.123   0.479
97273W        W69533  25.050   8.756  14.297
97274W        W69534  25.161  41.783   4.454
97275W        W69535   2.677  25.212   3.804
97276W        W69536   8.123  18.723  10.658
97277W        W69537  33.902  34.130   1.914
97278W        W69538  39.747  39.430  13.681
97279W        W69539  15.186  12.746   2.880
97280W        W69540  29.570  37.366   3.727
97281W        W69541   9.452  20.423   1.403
97282W        W69542  37.898   6.725   1.974
97283W        W69543   2.128  39.831  11.270
97284W        W69544  23.270  32.001  12.852
97285W        W69545  34.290  44.865  13.824
97286W        W69546  41.293   5.847   1.832
97287W        W69547  43.402  27.552   4.024
97288W        W69548   1.293   9.810  14.724
97289W        W69549   4.286   0.502   0.955
97290W        W69550   7.159  16.535   0.294
97291W        W69551  41.356  37.554   0.803
97292W        W69552  19.548  11.661  10.657
97293W        W69553  24.607  28.359  10.298
97294W        W69554  24.350  18.198   2.346
97295W        W69555  10.417  27.872   2.051
97296W        W69556  21.782  10.343  11.781
97297W        W69557  26.339  15.050  11.249
97298W        W69558  12.799  40.926  14.015
97299W        W69559  39.012  35.934  13.916
97300W        W69560  43.443  21.559  11.969
97301W        W69561  23.542  39.554   9.965
97302W        W69562  25.011  33.623  10.418
97303W        W69563  27.147  25.541   3.304
97304W        W69564  34.451  14.757  11.452
97305W        W69565  15.362  25.241  13.395
97306W        W69566  42.947  12.787   5.021
97307W        W69567  43.754  22.487   2.336
97308W        W69568  14.093  16.105   0.616
97309W        W69569  37.399  32.510   1.196
97310W        W69570   4.855  42.115  13.017
97311W        W69571  38.789   2.804  12.461
97312W        W69572  38.403  30.062   3.255
97313W        W69573  11.446  42.764  14.652
97314W        W69574   9.894  37.144  10.497
97315W        W69575  40.903  22.769  10.608
97316W        W69576  28.922  37.539   1.899
97317W        W69577  33.758  32.373   2.390
97318W        W69578  10.589  26.161  13.035
97319W        W69579   7.127  15.751   1.494
97320W        W69580  34.104   7.817   3.164
97321W        W69581  25.567   4.049   3.140
97322W        W69582  10.105  30.030  12.584
97323W        W69583  25.496  38.037   3.764
97324W        W69584  39.209  40.258   3.376
97325W        W69585  42.784   9.587  13.474
97326W        W69586   0.359   5.530  13.308
97327W        W69587  23.205  24.591  12.962
97328W        W69588  27.353   4.283  12.057
97329W        W69589  21.926  28.511   4.094
97330W        W69590  24.554  11.158   0.988
97331W        W69591  26.676  23.796  12.503
97332W        W69592   2.058  43.998   4.840
97333W        W69593  22.608   6.411   1.435
97334W        W69594  24.547  43.829  10.861
97335W        W69595  12.198  34.961  12.674
97336W        W69596  11.315  15.755  12.979
97337W        W69597   5.375  30.527   5.147
97338W        W69598   0.658  33.841  11.625
97339W        W69599  21.179  24.895   0.912
97340W        W69600   9.193  29.475  12.820
97341W        W69601  38.824  36.481  13.908
97342W        W69602  41.833  29.555  10.740
97343W        W69603   1.414  27.762  13.904
97344W        W69604   4.851  38.943  10.491
97345W        W69605  29.085  25.530  14.554
97346W        W69606  38.957  24.782  13.877
97347W        W69607   5.277  13.129  11.499
97348W        W69608  20.706  27.308   1.433
97349W        W69609   6.691  21.644  11.351
97350W        W69610  42.781  22.437  14.231
97351W        W69611   1.186   8.260  12.297
97352W        W69612  23.250  43.441  14.019
97353W        W69613  20.300   1.505  14.339
97354W        W69614  33.361  12.164  10.585
97355W        W69615  17.119  40.519   0.216
97356W        W69616  27.171   8.962   1.725
97357W        W69617   4.126  39.502  12.452
97358W        W69618  25.963  40.423  11.968
97359W        W69619  36.806  26.532  12.169
97360W        W69620  26.675  38.394  12.597
97361W        W69621  18.214  17.961   2.934
97362W        W69622  10.379  15.510  11.060
97363W        W69623  13.793  43.000  14.792
97364W        W69624  20.265  39.458  11.217
97365W        W69625   9.165  41.095   2.574
97366W        W69626  18.056  44.911  12.100
97367W        W69627  29.518   3.567  11.444
97368W        W69628  37.339  42.844  13.023
97369W        W69629   1.209  22.492   0.022
97370W        W69630   3.849  31.350   3.212
97371W        W69631  35.334  27.848   1.194
97372W        W69632  38.398   4.282   3.522
97373W        W69633  17.144  35.983  14.095
97374W        W69634  33.387  25.759  14.000
97375W        W69635  30.936  25.186   4.658
97376W        W69636  44.329   0.257  11.894
97377W        W69637  43.418  34.193  13.991
97378W        W69638  17.644  43.455  11.504
97379W        W69639  12.251  11.702   0.798
97380W        W69640   2.687   7.532  13.581
97381W        W69641  20.308  24.963   4.132
97382W        W69642  21.958  39.966  14.749
97383W        W69643   8.398  24.858   3.173
97384W        W69644  12.716  32.701   2.748
97385W        W69645   6.274   3.967  11.208
97386W        W69646  44.879  36.376  12.977
97387W        W69647  24.522  24.510   2.281
97388W        W69648  20.611  23.467   4.601
97389W        W69649  41.722  14.632  13.831
97390W        W69650  35.547  22.651  11.574
97391W        W69651  32.968  36.379   2.329
97392W        W69652  17.923   8.462  11.047
97393W        W69653  31.901  11.439   3.905
97394W        W69654  23.685   2.998  11.431
97395W        W69655   8.683   7.036   4.460
97396W        W69656   4.972  27.140   3.261
97397W        W69657   7.991  37.193  11.968
97398W        W69658  28.214  39.415   2.796
97399W        W69659  15.303  15.126   3.381
97400W        W69660  13.299  41.578  13.811
97401W        W69661   4.767  37.953  10.764
97402W        W69662  12.282  24.238   2.967
97403W        W69663  29.987  11.782   4.670
97404W        W69664  32.968   9.808   4.162
97405W        W69665   3.132  22.500  10.627
97406W        W69666  10.290  14.289  14.476
97407W        W69667  39.794  40.395   0.256
97408W        W69668  13.618  13.757  13.361
97409W        W69669  30.785  10.055  12.851
97410W        W69670  38.912  34.596   0.377
97411W        W69671   2.242   2.828   1.285
97412W        W69672  14.232  24.455  13.919
97413W        W69673  26.227  17.641   3.365
97414W        W69674  19.616   2.802   1.433
97415W        W69675   6.759  41.041   0.894
97416W        W69676  22.620  22.491   9.982
97417W        W69677  27.008   9.152   9.986
97418W        W69678  13.260  41.568  13.292
97419W        W69679  39.405  11.867   4.976
97420W        W69680   3.785  21.645  13.682
97421W        W69681  21.068  30.028   2.635
97422W        W69682   7.249  24.486   2.476
97423W        W69683  42.834  25.663   4.730
97424W        W69684  36.912   6.804  11.410
97425W        W69685   5.844  44.926   1.895
97426W        W69686  26.535   0.047  14.184
97427W        W69687  27.103  37.321  14.240
97428W        W69688  35.371  29.926  12.070
97429W        W69689  31.051  29.126  11.090
97430W        W69690  19.058  42.601   4.705
97431W        W69691  40.871  12.720   1.862
97432W        W69692  30.409   1.068   0.482
97433W        W69693   8.359  31.744   1.211
97434W        W69694  31.105   9.911   1.896
97435W        W69695  44.373  20.201   2.589
97436W        W69696   0.457  39.028  14.542
97437W        W69697  12.276  26.913  13.998
97438W        W69698  18.492   0.437   0.298
97439W        W69699   9.580  36.284  10.739
97440W        W69700   4.759  30.853   1.272
97441W        W69701   6.881  13.897   1.954
97442W        W69702  38.175  14.078  14.270
97443W        W69703  18.212  32.934  14.513
97444W        W69704   3.683  20.552   3.657
97445W        W69705  16.192  42.452  14.509
97446W        W69706   7.473  11.628   3.654
97447W        W69707  42.057  20.009   4.086
97448W        W69708  44.227  40.290  10.445
97449W        W69709  42.770  18.883  13.557
97450W        W69710  15.243  27.790   3.271
97451W        W69711  38.182   2.930  11.459
97452W        W69712  42.274  18.749   1.734
97453W        W69713  36.557  31.127  14.823
97454W        W69714   2.449  16.787  12.930
97455W        W69715  13.242  21.256   2.178
97456W        W69716  33.509  33.612   0.431
97457W        W69717  16.489  24.531   4.878
97458W        W69718  23.092  28.068  12.928
97459W        W69719   4.790  23.974   0.833
97460W        W69720  16.818  36.870   2.421
97461W        W69721  16.009  26.558   4.438
97462W        W69722  32.101  26.483  12.784
97463W        W69723  25.743  44.316   1.842
97464W        W69724  15.333  11.673   2.669
97465W        W69725  33.453   9.388  11.787
97466W        W69726  21.525  23.666  14.555
97467W        W69727   3.552  33.937  14.320
97468W        W69728   3.869   0.143  11.242
97469W        W69729  16.875  31.096   1.374
97470W        W69730  10.782  23.411   2.026
97471W        W69731  20.084   0.501   1.133
97472W        W69732  32.107   0.450   4.111
97473W        W69733  40.090  13.950   0.952
97474W        W69734  15.635  24.544   0.207
97475W        W69735  32.019  24.998  14.322
97476W        W69736  12.594  41.768  12.110
97477W        W69737  38.308   5.034  11.090
97478W        W69738  29.262  39.329  12.660
97479W        W69739  32.617  43.403  11.829
97480W        W69740  42.884  15.684  12.592
97481W        W69741  22.532  37.132   4.146
97482W        W69742  28.935  38.983   2.237
97483W        W69743   5.444  14.124   1.035
97484W        W69744  37.929   4.837   2.402
97485W        W69745  10.578  12.747  12.886
97486W        W69746   3.803   6.337  10.568
97487W        W69747  40.256  12.166  13.777
97488W        W69748  18.875  31.868   4.265
97489W        W69749  24.797  24.988  12.456
97490W        W69750  22.879  30.698   2.039
97491W        W69751   1.703  19.483   4.087
97492W        W69752  10.638  41.065  12.069
97493W        W69753   0.410   4.811   3.072
97494W        W69754  40.317  34.310   3.122
97495W        W69755  16.989  21.788   2.782
97496W        W69756  11.707   3.321   3.887
97497W        W69757  29.737  24.493  14.301
97498W        W69758   1.835  31.095   2.475
97499W        W69759  21.167   3.993   4.552
97500W        W69760  36.980   5.184   3.769
97501W        W69761  35.016  11.665   0.140
97502W        W69762  30.475   3.744   4.143
97503W        W69763  24.408  21.175   3.757
97504W        W69764   6.234  16.130   2.089
97505W        W69765  20.100   4.848  13.711
97506W        W69766  42.422  13.134  14.432
97507W        W69767  17.227  38.556  11.966
97508W        W69768  37.587  16.799  10.263
97509W        W69769   5.931  13.325   3.348
97510W        W69770  25.661   6.214   1.210
97511W        W69771  28.983  24.506   0.363
97512W        W69772  27.707   8.257   1.853
97513W        W69773  18.378  33.343  13.546
97514W        W69774  19.157  38.880  12.019
97515W        W69775  33.026  37.210   1.364
97516W        W69776  37.864  16.344  14.327
97517W        W69777   3.340  36.300  12.156
97518W        W69778   3.738  20.260  12.878
97519W        W69779   2.266  39.521  10.427
97520W        W69780  32.427  17.646   4.157
97521W        W69781  24.176  40.533  11.074
97522W        W69782  29.074  14.718  14.918
97523W        W69783  29.886   3.935   1.244
97524W        W69784  36.449  40.659  13.057
97525W        W69785   5.348  19.123  11.133
97526W        W69786  28.211  40.460  14.421
97527W        W69787  24.931  15.069  13.824
97528W        W69788   0.424  37.935   0.615
97529W        W69789  16.182   5.002  11.367
97530W        W69790  12.883   6.917   4.152
97531W        W69791  32.158  32.327   1.916
97532W        W69792  13.313   9.511   2.278
97533W        W69793   0.586   0.448   2.783
97534W        W69794  14.408  10.657  13.308
97535W        W69795   4.024  33.610   3.005
97536W        W69796   5.319  12.839   4.558
97537W        W69797   7.960   8.752   2.175
97538W        W69798  25.815  41.525   1.927
97539W        W69799  34.399  34.978  12.909
97540W        W69800  19.738  23.080   1.667
97541W        W69801   4.137  32.988  11.215
97542W        W69802  18.647   6.862   1.920
97543W        W69803  35.465  14.700   4.954
97544W        W69804  36.421  29.602  13.495
97545W        W69805   2.238  26.560   4.222
97546W        W69806  13.154  31.912  10.238
97547W        W69807   3.814   5.635  10.251
97548W        W69808  37.017  27.431  12.603
97549W        W69809  33.591   5.969   5.084
97550W        W69810  27.856  24.989   0.749
97551W        W69811  44.693   3.828  11.646
97552W        W69812  36.351  12.752  12.567
97553W        W69813  11.525  29.206   5.418
97554W        W69814  11.181  22.425   4.929
97555W        W69815  10.372  29.994  11.186
97556W        W69816  42.882  31.629   1.810
97557W        W69817  12.859  19.253  14.949
97558W        W69818  44.072   6.187   0.902
97559W        W69819  17.648  22.139   0.787
97560W        W69820  32.934   8.297  10.497
97561W        W69821  26.916  23.759  14.834
97562W        W69822   8.831   1.725  11.825
97563W        W69823  15.101  16.837  13.965
97564W        W69824  11.767  27.972  11.721
97565W        W69825  34.117   2.864  14.281
97566W        W69826  43.552  36.358  11.730
97567W        W69827  27.230  26.078  12.207
97568W        W69828   0.206  19.969  14.851
97569W        W69829   6.825  29.686  11.989
97570W        W69830  15.128  24.070   4.617
97571W        W69831  30.317  24.192   5.367
97572W        W69832  43.081  30.056   4.092
97573W        W69833  37.345   5.886  12.901
97574W        W69834  13.703  12.621  11.991
97575W        W69835  32.343  29.971   2.836
97576W        W69836  26.729  19.326  13.110
97577W        W69837  14.112  41.060  10.758
97578W        W69838  11.101  38.322  12.627
97579W        W69839   9.195  42.560   0.975
97580W        W69840  39.293  32.801  10.266
97581W        W69841  37.552  16.083  13.394
97582W        W69842  21.756  15.811  10.519
97583W        W69843  32.161  23.041  10.682
97584W        W69844  19.644  38.533  10.850
97585W        W69845  21.008  26.199   2.815
97586W        W69846  24.437   0.733   0.347
97587W        W69847   6.258  29.854  14.820
97588W        W69848  31.751  21.622   4.607
97589W        W69849   3.926  36.239   3.539
97590W        W69850  17.055  38.029   4.180
97591W        W69851  37.618   5.259  14.735
97592W        W69852  32.203   1.518   4.821
97593W        W69853   8.314   8.175   3.195
97594W        W69854   0.238  23.304  11.926
97595W        W69855   6.649  27.479  10.465
97596W        W69856  16.280  30.912   4.518
97597W        W69857  28.321  10.359   4.463
97598W        W69858   0.915   0.785   0.191
97599W        W69859  11.708  35.393   3.848
97600W        W69860   5.698  30.115  13.966
97601W        W69861  15.771  11.144   0.524
97602W        W69862  20.761  23.723   4.171
97603W        W69863   9.707  11.682  12.464
97604W        W69864  28.623  39.961  13.323
97605W        W69865  25.592  12.266   1.029
97606W        W69866  34.517   4.512  13.031
97607W        W69867  42.564  31.134  11.979
97608W        W69868  35.193  20.965   0.826
97609W        W69869  10.273   6.492  14.285
97610W        W69870  44.026  18.877  13.446
97611W        W69871  15.082  18.802   4.025
97612W        W69872  16.243  21.379   2.685
97613W        W69873   5.650  19.032   1.678
97614W        W69874  37.806  36.793   3.090
97615W        W69875  15.186  36.340  13.355
97616W        W69876   4.134  27.265  12.334
97617W        W69877   6.184  43.049  12.317
97618W        W69878   3.557  42.346   3.852
97619W        W69879  27.976   5.822   4.158
97620W        W69880  11.392  42.263  13.505
97621W        W69881  32.467   7.724  12.308
97622W        W69882  34.631  38.566  11.719
97623W        W69883  41.815  44.656  14.317
97624W        W69884  18.229  20.784   4.962
97625W        W69885  20.468   5.371   3.820
97626W        W69886  43.903  17.568   2.212
97627W        W69887  18.893  24.302   1.869
97628W        W69888  32.478  39.412  10.260
97629W        W69889  37.859   3.252   1.845
97630W        W69890  44.901   6.729  11.918
97631W        W69891  36.625  22.564   2.186
97632W        W69892  35.892   5.183   2.384
97633W        W69893  17.329  20.640  12.754
97634W        W69894  41.948  28.162  10.446
97635W        W69895  10.506  15.039   1.875
97636W        W69896   7.900   1.534   3.167
97637W        W69897  18.946  30.552   1.894
97638W        W69898  18.596  17.156  11.794
97639W        W69899  21.205  16.081  10.633
97640W        W69900  21.996  37.951   4.527
97641W        W69901  34.821  21.036   4.613
97642W        W69902  19.190  19.961   2.792
97643W        W69903  30.089  42.405  12.101
97644W        W69904  35.606  43.547  11.354
97645W        W69905  20.301   3.964   3.634
97646W        W69906  35.512  43.372  10.893
97647W        W69907  41.122  27.931   4.749
97648W        W69908  15.735   8.619   4.967
97649W        W69909  13.896   9.471   2.825
97650W        W69910  32.519   6.423   1.658
97651W        W69911   8.985  43.068  13.143
97652W        W69912  32.452  33.872  13.054
97653W        W69913  22.166  22.055   3.391
97654W        W69914  22.060  23.799   3.359
97655W        W69915  24.771  19.832  12.404
97656W        W69916   8.360  38.987   2.284
97657W        W69917  34.953   2.756  12.042
97658W        W69918  31.660  21.680   3.666
97659W        W69919  14.560  40.085  10.717
97660W        W69920   8.691   1.574  14.034
97661W        W69921  10.423  44.970   1.444
97662W        W69922  31.586  44.441   3.174
97663W        W69923   4.630  26.031  12.487
97664W        W69924  31.940  25.157   4.126
97665W        W69925  20.128   4.140   0.293
97666W        W69926  21.221  27.098  10.204
97667W        W69927  29.090   4.252   4.714
97668W        W69928  28.129  18.539   0.505
97669W        W69929  38.840  15.081  11.098
97670W        W69930  31.072  41.468  10.830
97671W        W69931  13.146  41.832  11.628
97672W        W69932   9.383  32.410  14.263
97673W        W69933  44.979  33.060   1.250
97674W        W69934  43.541  39.426  13.962
97675W        W69935  23.046  33.530  13.477
97676W        W69936  13.441  23.440  13.434
97677W        W69937  34.890  31.052   3.766
97678W        W69938  36.664  31.971  11.085
97679W        W69939  42.870  15.808   2.686
97680W        W69940  38.775  19.491   4.117
97681W        W69941  35.171  23.122  13.826
97682W        W69942  43.945  19.082   2.878
97683W        W69943  38.449   7.307   0.484
97684W        W69944  13.574   9.188   0.376
97685W        W69945  26.450  37.625   2.975
97686W        W69946  36.144  39.968   4.843
97687W        W69947  22.524  42.986   3.145
97688W        W69948  40.049  33.900  12.422
97689W        W69949  43.667  42.439  11.599
97690W        W69950  24.043  18.771  14.017
97691W        W69951  11.293  39.771   4.654
97692W        W69952   6.170  33.986   0.730
97693W        W69953   7.938  18.767   0.152
97694W        W69954  35.956  21.014   0.455
97695W        W69955  23.509  14.411   0.778
97696W        W69956  26.089  15.718   3.376
97697W        W69957  25.891  37.275  13.965
97698W        W69958   6.297  29.413  11.987
97699W        W69959  36.599   0.488  12.523
97700W        W69960  19.614  16.547  13.571
97701W        W69961  33.476  42.608   3.707
97702W        W69962  10.124  27.219  11.490
97703W        W69963  17.872  36.096  14.794
97704W        W69964  35.506  17.123  10.753
97705W        W69965  25.586  12.602   0.245
97706W        W69966  37.943  22.398   1.488
97707W        W69967  42.760   7.148   3.742
97708W        W69968  11.090   2.631   1.494
97709W        W69969  41.077  21.970   2.763
97710W        W69970  11.186  35.909   2.183
97711W        W69971  32.363   9.741  14.276
97712W        W69972  38.440  10.854   1.511
97713W        W69973  17.486  34.016   3.107
97714W        W69974  44.325  15.699  14.074
97715W        W69975   0.589  20.572  14.543
97716W        W69976  35.371  39.516   2.334
97717W        W69977  23.617  40.455  13.576
97718W        W69978  20.275  16.600  12.112
97719W        W69979   8.947  40.903   4.443
97720W        W69980  23.158  39.822   1.919
97721W        W69981  26.171   3.318   3.513
97722W        W69982   2.875  32.646  12.942
97723W        W69983  30.510  26.624   1.160
97724W        W69984   4.793  30.154  12.806
97725W        W69985  41.929   5.367  14.483
97726W        W69986   6.977   2.271   3.898
97727W        W69987   0.481  10.545  10.585
97728W        W69988  43.530  34.602   1.879
97729W        W69989  33.304  40.849  11.024
97730W        W69990  28.527  27.459   3.198
97731W        W69991  20.599  36.445   4.860
97732W        W69992  25.389  42.034  14.326
97733W        W69993  24.575  18.028   3.805
97734W        W69994   3.833   3.963  11.501
97735W        W69995  13.403   1.216  14.362
97736W        W69996  22.078  17.575  14.825
97737W        W69997  26.497  40.051  13.295
97738W        W69998  22.174  39.729   4.726
97739W        W69999  43.975  35.501   2.833
97740W        W70000  37.019  38.409  14.502
97741W        W70001  20.029  36.754   1.023
97742W        W70002  35.182   1.094   0.820
97743W        W70003  33.953  31.825   2.304
97744W        W70004   6.348  40.384   0.481
97745W        W70005   2.103  33.032   1.295
97746W        W70006   0.804   4.388   0.896
97747W        W70007  41.197  43.235  11.322
97748W        W70008  24.105  16.875   2.789
97749W        W70009  11.607   7.411  11.575
97750W        W70010  17.275  29.382  13.638
97751W        W70011  27.440  14.074  11.164
97752W        W70012  20.060  24.877  12.148
97753W        W70013  37.821  31.439  13.416
97754W        W70014  35.762  29.206   1.313
97755W        W70015  16.245  34.640   1.416
97756W        W70016  14.828  28.015  10.672
97757W        W70017  30.003  41.822   0.167
97758W        W70018  31.014  43.779   0.333
97759W        W70019  20.300  44.992   0.378
97760W        W70020   9.140  23.481  14.775
97761W        W70021  40.760   7.699   3.843
97762W        W70022   1.709  12.305   1.882
97763W        W70023  41.015  44.941   0.259
97764W        W70024  28.498   5.774   1.190
97765W        W70025  44.877  33.230   0.285
97766W        W70026  35.640  20.157   4.399
97767W        W70027   8.979  21.984  11.099
97768W        W70028  16.837   0.868  11.867
97769W        W70029  42.957  24.156  10.950
97770W        W70030  39.590  27.440   3.763
97771W        W70031  43.827  10.300   0.730
97772W        W70032   0.383  30.987   2.747
97773W        W70033   2.722  13.682   2.207
97774W        W70034  16.020  30.707   3.274
97775W        W70035   9.091  39.625  14.795
97776W        W70036   2.580   5.331  13.565
97777W        W70037  17.331  36.643   2.727
97778W        W70038  41.023  10.737   2.845
97779W        W70039  32.092  33.947   0.753
97780W        W70040   8.734  37.774  10.718
97781W        W70041  23.499  26.930  12.487
97782W        W70042  20.079  17.093   1.069
97783W        W70043  25.690  17.458  11.991
97784W        W70044   3.269  32.527   2.792
97785W        W70045  11.147  34.288   3.392
97786W        W70046   0.444  38.974  10.339
97787W        W70047  15.010   0.075  12.070
97788W        W70048   6.648  13.309  14.781
97789W        W70049  26.661  22.314   3.577
97790W        W70050  26.599   6.305  11.666
97791W        W70051   5.353  14.564   3.603
97792W        W70052  36.551  33.905   1.306
97793W        W70053  44.514  14.324  12.586
97794W        W70054  44.936  10.349  12.913
97795W        W70055  31.622   8.690   3.704
97796W        W70056  33.861  11.401  10.553
97797W        W70057  16.770   8.608   1.825
97798W        W70058   3.622   3.915  11.973
97799W        W70059   1.194  42.747  11.234
97800W        W70060  21.206  13.438   3.633
97801W        W70061  31.091  35.441   2.855
97802W        W70062  35.038   8.940  12.002
97803W        W70063   6.636  22.192   2.225
97804W        W70064  36.905   5.634  12.059
97805W        W70065  40.392   1.118   0.692
97806W        W70066  35.351  18.638   2.455
97807W        W70067   2.453  26.635   0.788
97808W        W70068  13.125  26.727   4.803
97809W        W70069  27.672  44.282   3.730
97810W        W70070  18.618  36.968   4.933
97811W        W70071  43.392  18.090   2.261
97812W        W70072  21.574  40.165   4.224
97813W        W70073  44.881  21.212  10.767
97814W        W70074  33.310   4.830  13.037
97815W        W70075  35.875  14.796  11.479
97816W        W70076  27.745  18.156  10.987
97817W        W70077  44.954   3.647  12.064
97818W        W70078  24.017  43.816  13.420
97819W        W70079  25.057   0.759   5.035
97820W        W70080  37.086  10.116  12.212
97821W        W70081  26.422  41.652  12.523
97822W        W70082   4.133  16.168  13.374
97823W        W70083  35.037  22.215   2.446
97824W        W70084  25.094  14.188  13.376
97825W        W70085  34.588   6.426  13.553
97826W        W70086  20.729  21.666   2.362
97827W        W70087   1.868  19.592   3.622
97828W        W70088  33.711  34.556  10.373
97829W        W70089  37.375  43.784  12.074
97830W        W70090  18.723  42.006   2.405
97831W        W70091  17.016  39.903   1.228
97832W        W70092  43.386  43.535   1.191
97833W        W70093   6.023  13.632   4.599
97834W        W70094   0.793  29.899  13.502
97835W        W70095  28.792  28.103   3.341
97836W        W70096  22.364  42.331  12.545
97837W        W70097  23.020  11.747   1.649
97838W        W70098  19.752  43.068   3.685
97839W        W70099  25.720  32.601  11.105
97840W        W70100  23.258  37.038  12.967
97841W        W70101  36.074  28.383  12.108
97842W        W70102   5.506  34.032   3.342
97843W        W70103  44.341   8.669   0.474
97844W        W70104  22.179  27.462   1.413
97845W        W70105  21.059  38.094  13.854
97846W        W70106  11.724  40.805   1.047
97847W        W70107  23.298  27.572   0.170
97848W        W70108   9.258   4.703  12.259
97849W        W70109  13.213  16.413   3.557
97850W        W70110   1.724  23.752   2.228
97851W        W70111  41.453  14.408   4.610
97852W        W70112  24.765  16.512  14.248
97853W        W70113  14.339  24.759  12.908
97854W        W70114  24.151  38.517  10.925
97855W        W70115  26.031  27.224   4.829
97856W        W70116  11.150   1.081   3.092
97857W        W70117  40.990  33.641   0.814
97858W        W70118  25.425   0.980   1.353
97859W        W70119  20.683  28.665   2.396
97860W        W70120  43.056  19.048   3.188
97861W        W70121  13.652   5.742   3.624
97862W        W70122  19.662  21.285  13.356
97863W        W70123   1.889  21.478  10.626
97864W        W70124  30.339   7.472   1.179
97865W        W70125  41.979   3.861  10.351
97866W        W70126  29.009  27.061   4.238
97867W        W70127   4.686  22.631  13.493
97868W        W70128  44.727  24.647  10.609
97869W        W70129  26.968  39.081  10.236
97870W        W70130  38.438   4.257  11.483
97871W        W70131  44.820   7.922   4.131
97872W        W70132  28.918   3.824   3.352
97873W        W70133   7.749  44.137  13.952
97874W        W70134  35.050   6.717   4.215
97875W        W70135   5.055  10.159  11.712
97876W        W70136   0.553  41.221  12.068
97877W        W70137  37.079   6.805   4.576
97878W        W70138  13.449  37.276   2.200
97879W        W70139   9.284  41.547  11.343
97880W        W70140   3.940  37.492  11.586
97881W        W70141   8.892  35.129   0.898
97882W        W70142  27.689  23.558   1.889
97883W        W70143  13.136   0.041  13.092
97884W        W70144  31.062  23.468   2.242
97885W        W70145  30.940   5.864  13.531
97886W        W70146  41.337  24.483   0.877
97887W        W70147  21.457   5.274   4.150
97888W        W70148  22.500  42.724   3.571
97889W        W70149  17.962  23.459  12.059
97890W        W70150   8.241  43.903  14.995
97891W        W70151  22.502  32.568  12.029
97892W        W70152  10.311  21.751  12.720
97893W        W70153  43.756  26.425   1.268
97894W        W70154  44.217  35.325   4.689
97895W        W70155  25.094  43.414  13.950
97896W        W70156   3.363  12.696   4.304
97897W        W70157  42.969   6.006   4.488
97898W        W70158  18.138  21.597   2.225
97899W        W70159  26.238   5.430   0.911
97900W        W70160  26.726  37.977   2.196
97901W        W70161  11.199   9.395  13.221
97902W        W70162  15.081  32.440  10.631
97903W        W70163   6.810  32.153   1.511
97904W        W70164   9.794  28.215   1.282
97905W        W70165  43.285  28.712   4.549
97906W        W70166  16.894  18.165   1.156
97907W        W70167  39.029  40.353   0.765
97908W        W70168  27.233  18.744   3.807
97909W        W70169   0.198  23.000  11.504
97910W        W70170  24.201  13.179   4.386
97911W        W70171  27.645  13.695   3.827
97912W        W70172  14.284  17.782   2.876
97913W        W70173   3.505   9.149  11.123
97914W        W70174  14.678  39.287  11.164
97915W        W70175  11.296   8.288   3.391
97916W        W70176   3.823  14.540   2.345
97917W        W70177  17.561  29.815  13.805
97918W        W70178  34.333  43.478  14.536
97919W        W70179  39.547  41.238  10.682
97920W        W70180  10.816  24.110   3.767
97921W        W70181  13.619  15.127   4.144
97922W        W70182  20.075   1.951  14.479
97923W        W70183  11.623  20.090   1.008
97924W        W70184  21.160  12.891   1.238
97925W        W70185  12.717  24.106  12.479
97926W        W70186  31.806   8.398  10.439
97927W        W70187  13.750  11.067  14.604
97928W        W70188  34.559  42.826   4.044
97929W        W70189  21.230  36.556  12.107
97930W        W70190  41.225  43.205   2.197
97931W        W70191  29.090  27.178   4.742
97932W        W70192  23.247  24.220  14.964
97933W        W70193   3.844  17.162  13.391
97934W        W70194  26.737  38.660   1.273
97935W        W70195  36.785  11.564   2.896
97936W        W70196  12.389  39.633  13.354
97937W        W70197  35.792   7.337  14.528
97938W        W70198  42.357  35.314   4.244
97939W        W70199  37.689  25.967  13.835
97940W        W70200  22.101  16.130   3.243
97941W        W70201  26.659  33.312  11.070
97942W        W70202  36.387  15.708  10.771
97943W        W70203   1.396   0.761  13.363
97944W        W70204  37.573  18.749   3.251
97945W        W70205  13.198  25.098   3.982
97946W        W70206  42.496  16.391  14.170
97947W        W70207  18.984  15.712   0.953
97948W        W70208  26.776  27.190  11.545
97949W        W70209  38.029  20.430  10.342
97950W        W70210   8.735   4.513   4.556
97951W        W70211  44.811  19.646  14.831
97952W        W70212  10.413  12.280  11.622
97953W        W70213  38.187  13.282  12.919
97954W        W70214  39.544  41.221   2.956
97955W        W70215   5.208  24.277   0.935
97956W        W70216  22.252  32.115   3.683
97957W        W70217  31.647   3.310  12.902
97958W        W70218  36.601   5.895   1.234
97959W        W70219  42.469   5.283  13.452
97960W        W70220  19.308  20.175  12.203
97961W        W70221   0.983  23.127   2.264
97962W        W70222  43.323   6.534   4.591
97963W        W70223   0.909  13.164   1.173
97964W        W70224   0.287  39.956  10.963
97965W        W70225   7.871  37.879   4.528
97966W        W70226  32.438  40.514  12.145
97967W        W70227  18.672  30.123   1.238
97968W        W70228  10.092  16.068   4.173
97969W        W70229  30.275  29.599   4.237
97970W        W70230   7.777  22.526   3.259
97971W        W70231  14.711  17.060   1.319
97972W        W70232  27.238   7.132  13.556
97973W        W70233  10.593  21.508   1.017
97974W        W70234  16.188  23.733   0.356
97975W        W70235  11.128   2.991  13.993
97976W        W70236  42.523  41.780   4.163
97977W        W70237  37.866   3.607  13.002
97978W        W70238  27.227  38.351   0.305
97979W        W70239  34.034  15.348  10.808
97980W        W70240   8.379   3.499   2.286
97981W        W70241  43.438  23.453   3.083
97982W        W70242   0.667  29.385  14.881
97983W        W70243   8.676   9.250   3.670
97984W        W70244  36.755  25.013   0.410
97985W        W70245   3.143  26.604  12.101
97986W        W70246  16.151  25.193  13.442
97987W        W70247  10.947  27.516  13.508
97988W        W70248  17.180   5.907   1.006
97989W        W70249  12.542  32.428   0.936
97990W        W70250   8.274   9.379   4.666
97991W        W70251   6.712  35.348   2.195
97992W        W70252  24.236   9.294   4.790
97993W        W70253  34.767  22.484   2.841
97994W        W70254  23.381   2.881   1.530
97995W        W70255  26.044  42.584  14.434
97996W        W70256  27.376  15.606   0.880
97997W        W70257  20.550  30.097  11.668
97998W        W70258  20.742  26.005  11.944
97999W        W70259  32.817  44.525   2.066
98000W        W70260  37.364   2.623  12.448
98001W        W70261  18.250  23.957  12.007
98002W        W70262  11.768  15.297   0.830
98003W        W70263  37.429  20.728   2.959
98004W        W70264  30.106  38.899   1.325
98005W        W70265  18.807   5.191   0.834
98006W        W70266   5.875  29.033  10.719
98007W        W70267  14.223   1.311  13.987
98008W        W70268  31.367   5.771   0.711
98009W        W70269  33.019  34.476   4.125
98010W        W70270  38.168  35.777  11.983
98011W        W70271  42.693  23.174   2.653
98012W        W70272  25.667  43.532   3.770
98013W        W70273  33.873  29.884   0.353
98014W        W70274  12.437   3.676  11.171
98015W        W70275  36.344  37.114  13.080
98016W        W70276  38.849  18.431   1.705
98017W        W70277  19.175  36.303  11.859
98018W        W70278  31.022  35.760  13.758
98019W        W70279  42.956  11.870  12.460
98020W        W70280  11.209   4.340  11.214
98021W        W70281   4.626  26.031   4.316
98022W        W70282  17.629   7.662   3.050
98023W        W70283  13.158  12.246   4.376
98024W        W70284  12.580  33.989   3.873
98025W        W70285   4.896  43.309  11.034
98026W        W70286   8.152  39.980  11.070
98027W        W70287   0.898  10.198  13.546
98028W        W70288  20.115  28.105  13.201
98029W        W70289  13.089  15.209   0.891
98030W        W70290  30.207   6.759   3.183
98031W        W70291  20.294  43.167   2.732
98032W        W70292  18.887  37.508   4.912
98033W        W70293  21.505   3.906  13.470
98034W        W70294  33.427  40.422  14.731
98035W        W70295  13.834  19.670  13.780
98036W        W70296  41.231  33.892  13.999
98037W        W70297   2.815  38.473   0.022
98038W        W70298  21.352  33.355  10.423
98039W        W70299   9.817  29.719   2.651
98040W        W70300  18.201  15.549   1.678
98041W        W70301  34.485   0.358  12.570
98042W        W70302   2.944  25.045  11.997
98043W        W70303   2.328  39.599   0.391
98044W        W70304  10.277   9.834   1.236
98045W        W70305  32.796  40.997   3.284
98046W        W70306  32.523  29.092   1.824
98047W        W70307  28.085  27.622   2.128
98048W        W70308  22.605  33.219  10.668
98049W        W70309   5.742  34.815   2.696
98050W        W70310  36.258  11.572   5.046
98051W        W70311  36.895   6.566   2.521
98052W        W70312   6.188  33.636  10.639
98053W        W70313   4.771  22.939  14.881
98054W        W70314  37.881  35.152  10.030
98055W        W70315  34.396  38.644   3.826
98056W        W70316  27.492  15.725   4.156
98057W        W70317   5.818  19.254   0.286
98058W        W70318  36.026  41.736   0.716
98059W        W70319  30.408  11.555   1.262
98060W        W70320   7.209  13.306  11.567
98061W        W70321  41.780  39.929  13.014
98062W        W70322  26.585  22.701  13.303
98063W        W70323  13.603   3.805  10.394
98064W        W70324  37.334   8.784  11.471
98065W        W70325   0.896  30.665  13.883
98066W        W70326  23.589   9.421   2.671
98067W        W70327  41.740  23.519  10.597
98068W        W70328  29.483  44.427   4.534
98069W        W70329  29.718  30.462  11.104
98070W        W70330  22.206  15.098   0.479
98071W        W70331  22.883  27.942  14.482
98072W        W70332  23.965  27.418   2.731
98073W        W70333  42.059  34.103  12.445
98074W        W70334  42.778   8.922  11.050
98075W        W70335   6.189  10.046  10.799
98076W        W70336  17.504  41.937  14.426
98077W        W70337  44.519   7.134   0.306
98078W        W70338  18.267   2.071   2.842
98079W        W70339  34.891   4.173  13.002
98080W        W70340  36.433  37.613   0.299
98081W        W70341   8.303   4.801  13.060
98082W        W70342  35.145  32.972  13.944
98083W        W70343  16.968  17.440   5.144
98084W        W70344  23.590  16.847   1.943
98085W        W70345  17.773   3.347   1.917
98086W        W70346  20.552  38.524   3.771
98087W        W70347  18.487  12.847  14.940
98088W        W70348  23.977   2.619   1.614
98089W        W70349   1.800  40.040   1.699
98090W        W70350  13.608  36.419  11.960
98091W        W70351  33.066   2.257  10.675
98092W        W70352  17.896  30.252   1.042
98093W        W70353   2.180  29.288   4.208
98094W        W70354  22.054  21.840  12.151
98095W        W70355  30.647  20.002  12.394
98096W        W70356  18.707  33.835   2.920
98097W        W70357  18.251  33.561   1.906
98098W        W70358  28.676   4.999  13.544
98099W        W70359   1.985  15.091   1.374
98100W        W70360   5.268   5.268  12.888
98101W        W70361   8.472  22.047   3.115
98102W        W70362   3.508  25.163  10.372
98103W        W70363  34.963  27.093   3.714
98104W        W70364  24.719   3.387   3.308
98105W        W70365  31.102  34.621   3.254
98106W        W70366  38.931   9.879  11.479
98107W        W70367  24.389   5.214   2.709
98108W        W70368  11.652  28.372  12.843
98109W        W70369  12.603   5.822   3.383
98110W        W70370   1.454  25.968   3.269
98111W        W70371  15.722  24.046   3.067
98112W        W70372  44.609   6.711  14.400
98113W        W70373  40.596   7.164  10.485
98114W        W70374  26.603  21.786   1.254
98115W        W70375  28.025  25.959  14.892
98116W        W70376  43.351  35.577   4.440
98117W        W70377  14.169  23.816   3.721
98118W        W70378  26.180  20.472  12.551
98119W        W70379   7.766   1.166   9.837
98120W        W70380   2.832  30.691  13.904
98121W        W70381   1.357   7.186   2.505
98122W        W70382  42.312  20.867  13.427
98123W        W70383  44.394   5.734   3.742
98124W        W70384   4.277  15.724   2.839
98125W        W70385  13.415  35.859   3.851
98126W        W70386   8.732  18.228   3.057
98127W        W70387  26.390  21.425  13.857
98128W        W70388   1.949   3.918  13.376
98129W        W70389  32.668  29.226   2.325
98130W        W70390  33.829  23.534  13.345
98131W        W70391  34.519  19.631   1.415
98132W        W70392  23.062  40.596   4.066
98133W        W70393  27.532  18.525   1.278
98134W        W70394   5.258   9.823  12.921
98135W        W70395  33.826  17.341  14.466
98136W        W70396  40.880   5.080  12.390
98137W        W70397   9.669  32.975  13.611
98138W        W70398   9.608  33.019   3.867
98139W        W70399  38.296  11.382  14.425
98140W        W70400  34.657  23.535  12.023
98141W        W70401  14.599  33.127   0.503
98142W        W70402   2.389  20.186  13.277
98143W        W70403   5.604  10.266   3.692
98144W        W70404  44.438  40.530   0.293
98145W        W70405   3.052  27.047   1.369
98146W        W70406  28.120  43.350  13.111
98147W        W70407  30.995  28.979  14.979
98148W        W70408   1.402   5.315   1.056
98149W        W70409   8.905  10.636   1.624
98150W        W70410  25.488  40.050   0.291
98151W        W70411   1.116   5.283  11.877
98152W        W70412  44.945  40.268   3.868
98153W        W70413  37.776  44.315   3.114
98154W        W70414   3.056  35.813   3.296
98155W        W70415  34.584  18.482  12.129
98156W        W70416  37.493  11.732  12.581
98157W        W70417   7.722  21.003   3.102
98158W        W70418  13.775   4.253   2.803
98159W        W70419  42.988  29.012  10.636
98160W        W70420  33.329  10.806  11.909
98161W        W70421  25.731   2.315  13.352
98162W        W70422  41.940  40.823  12.306
98163W        W70423   9.356  25.133  12.850
98164W        W70424  35.877  42.630   1.074
98165W        W70425  15.082  35.979   4.728
98166W        W70426   8.774  31.445  11.977
98167W        W70427  43.967  15.683   3.344
98168W        W70428  32.337  29.180  14.970
98169W        W70429  21.143   7.028  14.937
98170W        W70430  27.635  20.715  13.429
98171W        W70431   0.527  39.546   2.431
98172W        W70432   9.635   2.417   2.836
98173W        W70433  14.168  15.104  11.653
98174W        W70434  18.475   2.455   0.307
98175W        W70435  24.656   9.244   0.866
98176W        W70436  31.969  30.730  13.842
98177W        W70437  28.782  29.420  11.818
98178W        W70438  30.053  25.165   4.151
98179W        W70439   9.690  35.154  14.922
98180W        W70440  34.590  29.606  13.028
98181W        W70441  20.100  22.027  11.958
98182W        W70442  25.092  33.599  10.945
98183W        W70443   8.251  41.897   3.789
98184W        W70444  24.413   7.856  12.386
98185W        W70445  15.904  38.056  11.992
98186W        W70446  17.899  34.163   0.857
98187W        W70447  25.082   3.895   0.398
98188W        W70448  11.713  36.406   3.188
98189W        W70449  17.273   3.591  13.886
98190W        W70450  29.127  19.814  10.715
98191W        W70451  13.111   7.173  12.530
98192W        W70452  19.638  10.121   2.221
98193W        W70453   8.582  38.492  14.337
98194W        W70454  25.141  11.840  12.919
98195W        W70455  37.145  34.134   2.010
98196W        W70456  38.006  40.832   4.814
98197W        W70457  40.546  19.098  13.620
98198W        W70458  24.146  22.257  12.930
98199W        W70459   4.019  44.834   1.921
98200W        W70460  31.639  33.925  13.566
98201W        W70461  29.605  35.346  12.664
98202W        W70462  29.275  35.770  10.147
98203W        W70463  17.165  23.982  13.864
98204W        W70464  29.855   1.897  11.347
98205W        W70465  19.610   0.778   4.189
98206W        W70466  28.748  33.812  13.093
98207W        W70467  44.276  34.117  12.216
98208W        W70468  20.599  25.689  13.146
98209W        W70469  26.957  42.939  14.296
98210W        W70470   1.248  11.152   3.146
98211W        W70471   4.178   8.304  10.680
98212W        W70472   0.861  33.055   0.216
98213W        W70473  42.571  27.221   2.824
98214W        W70474  41.173  39.062  13.844
98215W        W70475  13.322  23.948  14.432
98216W        W70476  23.558  15.197  13.771
98217W        W70477  20.807  12.122  11.923
98218W        W70478   2.221   5.649   2.909
98219W        W70479  32.971  15.276  13.882
98220W        W70480  17.739   4.117   0.203
98221W        W70481  21.157  36.866   0.330
98222W        W70482  17.430  34.923  10.706
98223W        W70483  11.069  27.953  14.400
98224W        W70484  36.596  36.411   1.443
98225W        W70485  17.772   2.750   2.424
98226W        W70486  32.803  30.452  14.536
98227W        W70487   1.387   4.810  11.826
98228W        W70488  15.702  43.453   2.725
98229W        W70489  18.847  17.975  13.982
98230W        W70490   9.388   7.259   0.758
98231W        W70491  12.831   8.706  12.957
98232W        W70492  39.944  41.971  10.607
98233W        W70493  30.636  16.699   2.366
98234W        W70494  29.692   0.704   4.127
98235W        W70495  30.891  24.997  11.591
98236W        W70496  28.962  11.623   0.208
98237W        W70497  38.416  17.666   1.751
98238W        W70498  11.169  28.404  10.644
98239W        W70499  36.822  40.899  14.243
98240W        W70500   9.307  17.090  14.550
98241W        W70501  10.235  25.501   1.772
98242W        W70502  20.598   8.740   2.944
98243W        W70503  15.086   6.239  14.102
98244W        W70504  41.362  38.392  11.023
98245W        W70505  40.326  31.891   0.312
98246W        W70506  35.388  24.045   3.139
98247W        W70507  22.332  37.521   5.114
98248W        W70508  14.158   3.742   4.010
98249W        W70509  32.125   9.427   4.660
98250W        W70510   6.486  44.723   2.151
98251W        W70511  16.291  31.038  12.316
98252W        W70512  30.507  35.418   0.003
98253W        W70513  10.308  27.682  13.557
98254W        W70514   0.837  13.142   0.273
98255W        W70515  15.590  44.375   1.369
98256W        W70516  11.403  37.559   4.104
98257W        W70517  37.512  22.120   3.579
98258W        W70518  13.914  19.951   3.186
98259W        W70519  14.751  40.438  13.566
98260W        W70520  24.510  17.864  11.115
98261W        W70521  26.218   6.652  10.532
98262W        W70522   4.436  21.096   2.299
98263W        W70523  35.350  28.940   4.706
98264W        W70524  14.024   5.685  12.182
98265W        W70525  26.457  14.210  13.832
98266W        W70526  39.973  32.934   0.318
98267W        W70527  25.633   1.678   0.825
98268W        W70528  12.825  21.193  10.849
98269W        W70529  32.203  27.037   5.185
98270W        W70530   0.763   3.912   1.124
98271W        W70531   3.223  37.970   1.805
98272W        W70532  39.745  19.488   3.771
98273W        W70533  44.002   8.779  11.550
98274W        W70534  13.196  16.067   0.256
98275W        W70535   7.958   9.288   2.768
98276W        W70536  28.042  16.969   0.455
98277W        W70537  39.541   2.873  13.413
98278W        W70538  40.797  27.677  13.522
98279W        W70539  27.340  31.838  11.121
98280W        W70540   8.379  28.901  12.485
98281W        W70541  21.789   4.834  13.635
98282W        W70542  36.929  20.873  14.051
98283W        W70543   8.241   6.272  11.475
98284W        W70544   6.750   4.205   2.938
98285W        W70545  25.215  26.982  14.858
98286W        W70546  16.248  15.943   1.850
98287W        W70547  14.000  41.913  13.017
98288W        W70548  40.007  22.779   0.726
98289W        W70549  43.254  44.575  11.553
98290W        W70550  33.368   9.099   2.895
98291W        W70551  44.303   1.264  10.479
98292W        W70552  28.155  21.527  11.857
98293W        W70553   3.714   8.644   4.583
98294W        W70554  10.678  30.762   5.113
98295W        W70555  29.098  10.351  12.986
98296W        W70556  13.162   3.241   0.913
98297W        W70557  17.457  36.490   0.761
98298W        W70558  34.575  37.302  11.126
98299W        W70559  29.143   0.834   2.677
98300W        W70560  22.252   6.662   3.204
98301W        W70561   4.867  21.250  12.090
98302W        W70562  10.811  14.476   4.180
98303W        W70563  40.907  42.014  10.678
98304W        W70564   7.198  27.175   3.551
98305W        W70565  11.549   3.803   0.925
98306W        W70566   8.649  34.134   1.086
98307W        W70567  28.746   2.769   1.835
98308W        W70568  35.422  27.139  11.672
98309W        W70569   3.488  27.210   3.312
98310W        W70570  39.989  16.214   2.774
98311W        W70571  44.204   8.787  10.523
98312W        W70572  44.945   7.426   0.348
98313W        W70573  14.536  21.411   4.949
98314W        W70574  35.312  11.625  10.949
98315W        W70575  13.294   7.547  11.559
98316W        W70576   6.214  37.989   0.814
98317W        W70577  39.734  32.252   9.989
98318W        W70578  44.873  19.838   4.670
98319W        W70579  37.385  19.716   3.119
98320W        W70580   8.609  37.535  11.164
98321W        W70581   6.437  32.451   3.916
98322W        W70582  16.989  43.398  12.142
98323W        W70583  23.049   0.002   0.884
98324W        W70584  19.997  38.990   1.233
98325W        W70585   0.202  32.514  11.999
98326W        W70586   6.684  38.331   2.295
98327W        W70587   5.060  39.553   0.856
98328W        W70588  15.810  17.935   4.207
98329W        W70589  36.827  34.352   1.247
98330W        W70590  14.694  43.180   3.980
98331W        W70591  36.278   0.390   4.610
98332W        W70592  32.484  12.592  11.556
98333W        W70593  21.999  19.187   1.842
98334W        W70594  15.663   7.253  14.477
98335W        W70595  25.507   5.286   0.195
98336W        W70596  20.785   2.395  13.033
98337W        W70597  18.929   4.788   4.498
98338W        W70598  21.555   3.282  13.875
98339W        W70599  43.485   0.278  11.676
98340W        W70600  20.580  28.400   0.960
98341W        W70601  23.056   1.373   4.131
98342W        W70602  40.739   0.760   2.858
98343W        W70603  18.168  29.012  12.548
98344W        W70604  10.271  39.094  11.523
98345W        W70605  24.765  30.526  12.262
98346W        W70606  16.922  31.496   2.283
98347W        W70607  39.257  25.678  12.559
98348W        W70608  41.621   8.356  12.849
98349W        W70609  16.630   2.504   3.608
98350W        W70610  21.709  11.994  11.146
98351W        W70611   4.704   3.812   1.009
98352W        W70612   6.936  19.670  14.783
98353W        W70613  20.927  33.053  10.533
98354W        W70614   1.232  25.545  10.687
98355W        W70615  10.165  13.634   4.085
98356W        W70616  23.831  11.622   0.844
98357W        W70617  10.591   7.782   0.742
98358W        W70618  12.637  23.622   0.249
98359W        W70619   3.373   6.207   2.606
98360W        W70620   3.047  17.262   1.393
98361W        W70621  22.911  41.223  13.025
98362W        W70622  43.274  12.860  14.379
98363W        W70623   3.782   1.226   1.738
98364W        W70624  26.110  41.183   2.254
98365W        W70625  40.314  43.289   4.195
98366W        W70626  13.559   4.161   3.552
98367W        W70627  20.885  33.386   4.964
98368W        W70628   5.875  29.047   3.328
98369W        W70629  35.132   9.280  14.341
98370W        W70630  44.356  26.947  11.407
98371W        W70631  42.350  18.632   2.874
98372W        W70632  26.573   2.016  13.724
98373W        W70633  44.945  36.029   3.622
98374W        W70634  11.796  16.331   2.245
98375W        W70635  15.268  34.280   2.449
98376W        W70636  25.726  15.202   2.415
98377W        W70637  18.671  36.793   2.665
98378W        W70638   3.001  16.222   2.230
98379W        W70639  32.453  32.458   3.506
98380W        W70640  26.667  41.662  12.058
98381W        W70641   0.832  24.150   4.189
98382W        W70642   0.680  37.468   0.623
98383W        W70643  33.147  13.628   1.276
98384W        W70644  37.986  19.438   1.488
98385W        W70645  21.170  37.591  13.858
98386W        W70646   5.195   3.196  10.701
98387W        W70647  16.657  16.651  12.834
98388W        W70648  31.975  35.238   2.754
98389W        W70649  14.719  31.483   4.195
98390W        W70650   0.287  14.611   1.453
98391W        W70651  16.675  44.555   2.740
98392W        W70652  15.277  25.919  14.422
98393W        W70653  36.590  23.237  13.128
98394W        W70654  32.016  13.069  11.777
98395W        W70655  33.967  30.614  12.688
98396W        W70656  18.929  29.679   1.764
98397W        W70657  40.303  36.130   5.072
98398W        W70658   3.456  42.952   1.094
98399W        W70659   6.167  39.899   4.557
98400W        W70660  24.137  44.954   4.760
98401W        W70661   0.361  42.086  14.455
98402W        W70662  35.360   6.957   3.396
98403W        W70663   3.287  17.853   2.189
98404W        W70664  11.403  29.525   2.261
98405W        W70665  41.514  19.299  11.052
98406W        W70666   7.217  31.723   2.701
98407W        W70667  36.619   0.230   4.256
98408W        W70668  34.893  13.346   0.031
98409W        W70669  10.392  36.321  13.900
98410W        W70670  21.544  29.931  13.340
98411W        W70671  43.380  36.059   4.666
98412W        W70672  37.009  14.017  11.438
98413W        W70673  14.846   6.377   4.609
98414W        W70674  15.410  21.346   4.551
98415W        W70675  22.043  19.986   0.472
98416W        W70676   0.827  24.324  13.367
98417W        W70677  25.751  28.967   3.105
98418W        W70678  16.696  36.810  14.437
98419W        W70679  13.726  35.167   0.979
98420W        W70680  15.983  24.202   1.313
98421W        W70681  29.588  14.588  14.985
98422W        W70682  24.123  39.666   1.548
98423W        W70683  34.499  21.579  10.692
98424W        W70684  34.669  17.800   3.864
98425W        W70685   0.065  34.633   3.239
98426W        W70686  25.535  18.700  10.626
98427W        W70687  18.307  29.874   0.819
98428W        W70688  13.743  42.482  13.507
98429W        W70689  29.544  10.838  11.987
98430W        W70690  33.048  14.610   3.640
98431W        W70691  10.416  35.018  13.150
98432W        W70692  31.074  18.685  14.065
98433W        W70693  19.642  38.818  11.837
98434W        W70694   9.593  25.998  10.860
98435W        W70695   2.831   5.731  14.741
98436W        W70696  34.035  24.013   2.742
98437W        W70697  28.354  11.864   1.447
98438W        W70698  28.981   6.166  12.514
98439W        W70699  32.476  35.426   2.681
98440W        W70700  15.545   4.879  13.995
98441W        W70701  18.783  24.223  13.763
98442W        W70702  37.324   7.823  13.999
98443W        W70703  19.114  41.098  13.933
98444W        W70704   2.373  14.177  12.959
98445W        W70705  24.732  22.555   1.700
98446W        W70706  35.777  38.986   4.578
98447W        W70707  25.164   3.418  13.539
98448W        W70708  41.468  41.932   0.288
98449W        W70709  42.431   5.224   2.874
98450W        W70710   5.285   9.250   3.797
98451W        W70711  25.512  32.371   3.718
98452W        W70712  10.417   6.583  11.957
98453W        W70713  44.923  10.359   3.115
98454W        W70714  26.095  37.145   3.327
98455W        W70715  36.353  40.176  11.972
98456W        W70716  34.595  33.494   4.384
98457W        W70717   8.783  32.854   2.422
98458W        W70718   9.917  23.716   4.603
98459W        W70719   8.974  19.594  11.611
98460W        W70720  15.303   5.384  13.968
98461W        W70721  41.273  25.559  12.088
98462W        W70722  33.067  11.944  11.024
98463W        W70723   1.904   1.784   1.913
98464W        W70724  41.378   4.919  12.118
98465W        W70725  20.304  12.363  12.423
98466W        W70726   2.829  21.744   4.848
98467W        W70727   9.911  41.043   4.355
98468W        W70728  41.278  20.455  14.792
98469W        W70729  18.722  12.682   3.103
98470W        W70730   3.768  31.859   3.215
98471W        W70731  42.283   3.326   2.951
98472W        W70732  11.841  28.615  14.291
98473W        W70733   4.828  30.447   3.362
98474W        W70734  16.277   9.236  11.561
98475W        W70735  26.788   8.559  13.888
98476W        W70736  31.803  18.281   3.832
98477W        W70737  14.793   7.734   1.327
98478W        W70738  27.440  25.793  11.094
98479W        W70739  23.677   6.185  14.749
98480W        W70740   8.017  34.875  13.194
98481W        W70741  36.428  42.981  13.488
98482W        W70742  16.619  37.809  14.332
98483W        W70743   3.331   8.167   0.518
98484W        W70744  39.410  14.494   3.633
98485W        W70745  44.790  14.402   4.113
98486W        W70746   0.845  24.624  14.245
98487W        W70747  15.650   8.289  14.287
98488W        W70748  36.894  41.208   1.815
98489W        W70749   1.857  14.712   2.789
98490W        W70750   8.298  18.799  12.494
98491W        W70751  19.902  17.569  11.088
98492W        W70752  43.299  33.378  14.397
98493W        W70753  43.918  41.490  13.868
98494W        W70754  40.346   0.860   2.031
98495W        W70755   9.153   3.859  11.866
98496W        W70756  18.225  18.008  10.502
98497W        W70757  21.470  11.400   1.905
98498W        W70758  13.224  38.134  11.965
98499W        W70759  28.986  20.340   4.812
98500W        W70760  19.584  36.111  10.961
98501W        W70761  27.484  19.065  12.931
98502W        W70762   6.171  40.366  12.561
98503W        W70763  10.866   2.728  14.832
98504W        W70764  26.017  12.309   4.111
98505W        W70765   3.296  36.150   1.470
98506W        W70766  14.917  38.842  11.506
98507W        W70767  39.905   5.697  11.692
98508W        W70768   1.103   2.019  13.465
98509W        W70769  10.282   4.308  11.672
98510W        W70770   3.414  15.555   0.371
98511W        W70771  43.476   4.933   3.674
98512W        W70772   1.370  30.359   4.386
98513W        W70773  20.867  20.690   0.451
98514W        W70774  20.482  32.950   2.297
98515W        W70775  34.536  41.448  14.383
98516W        W70776  11.747  41.507   2.136
98517W        W70777   7.748  22.125  12.420
98518W        W70778  33.098  29.118  14.290
98519W        W70779  11.846  43.525  13.516
98520W        W70780  38.543  23.516  12.435
98521W        W70781  26.889   2.443   0.842
98522W        W70782  39.814   5.813   1.262
98523W        W70783  42.292   1.954  14.182
98524W        W70784  25.128   1.788   0.897
98525W        W70785  32.682   6.471   3.102
98526W        W70786  29.729  16.913   4.640
98527W        W70787   8.379  38.026   1.792
98528W        W70788  24.166  26.967  11.942
98529W        W70789  35.930  31.529  12.239
98530W        W70790  40.593  13.944   1.006
98531W        W70791  14.142  30.836  14.768
98532W        W70792  17.489  18.164  12.482
98533W        W70793  12.178  23.954   3.387
98534W        W70794  12.929  15.394  13.360
98535W        W70795  39.997  37.820  13.998
98536W        W70796   4.659  12.722   3.238
98537W        W70797  37.067   1.887  11.557
98538W        W70798   4.739  33.119   4.068
98539W        W70799  41.944   3.937  14.362
98540W        W70800  28.214  31.978  13.941
98541W        W70801   7.859  10.185   3.737
98542W        W70802  33.644  39.121   0.485
98543W        W70803  13.016  38.840  14.297
98544W        W70804  36.066  25.211   2.710
98545W        W70805   0.499  27.058  14.611
98546W        W70806   7.221  12.577   0.277
98547W        W70807  23.019  30.960  13.482
98548W        W70808   8.722  30.193  12.648
98549W        W70809   8.653  32.283  13.570
98550W        W70810  33.675  16.197  12.322
98551W        W70811   9.761   8.860   1.109
98552W        W70812  41.354  11.636   2.376
98553W        W70813  25.282  18.916   2.276
98554W        W70814  10.767  11.726  14.728
98555W        W70815  28.142  25.447   1.936
98556W        W70816  24.117  37.571   3.338
98557W        W70817  14.453  27.533  12.034
98558W        W70818  23.983  28.426   9.712
98559W        W70819  41.905   5.875   3.245
98560W        W70820  43.963  10.702   0.457
98561W        W70821  15.240   4.787   3.728
98562W        W70822  29.377  17.013   3.185
98563W        W70823   4.082   8.731   5.077
98564W        W70824   6.738  27.568   4.699
98565W        W70825  39.534  38.538   3.056
98566W        W70826  19.490  39.908  11.062
98567W        W70827   0.451  13.293   4.130
98568W        W70828   5.904   4.048  13.378
98569W        W70829  12.251  22.613  12.516
98570W        W70830   0.710  26.157  11.121
98571W        W70831  33.684  36.790   3.705
98572W        W70832   8.623  22.604   0.943
98573W        W70833  27.729   7.786   0.025
98574W        W70834   8.399   1.273   3.185
98575W        W70835  21.591   1.048   0.372
98576W        W70836  32.072   3.388   1.198
98577W        W70837   8.599  23.716  11.360
98578W        W70838  30.309  35.950   2.705
98579W        W70839   7.160  41.326   1.184
98580W        W70840  16.860   1.467   1.957
98581W        W70841  35.508  32.998   0.575
98582W        W70842  23.764   5.322  14.355
98583W        W70843  25.586  38.388   4.774
98584W        W70844  32.812  32.682   2.285
98585W        W70845  29.412  35.355   9.832
98586W        W70846   0.774   2.937  12.995
98587W        W70847  35.923  10.167  14.073
98588W        W70848  25.298  43.856   2.461
98589W        W70849  20.153   0.732   3.100
98590W        W70850  30.707  25.000  14.521
98591W        W70851  38.800   6.404  14.331
98592W        W70852   8.567  35.327   2.246
98593W        W70853  42.746  11.455  12.249
98594W        W70854  13.131  10.799  14.554
98595W        W70855  30.929  20.251  10.736
98596W        W70856  44.442  17.600  11.988
98597W        W70857   3.578  37.854   1.426
98598W        W70858   3.406  20.641  12.917
98599W        W70859  13.098  25.239   2.907
98600W        W70860   4.338  30.253  10.671
98601W        W70861  14.862   5.278   1.266
98602W        W70862  42.669  29.057   0.858
98603W        W70863  22.129   1.153   3.694
98604W        W70864   4.716  13.914  10.668
98605W        W70865  34.403  13.183  12.071
98606W        W70866   8.926  11.794   4.686
98607W        W70867  11.369   7.252  14.007
98608W        W70868   4.823  28.366   5.262
98609W        W70869   8.269  18.555  13.893
98610W        W70870  33.441  10.781   4.542
98611W        W70871  13.459  22.458  13.369
98612W        W70872   1.544  33.278  13.878
98613W        W70873  19.748  30.150  14.789
98614W        W70874  43.582   3.513  11.732
98615W        W70875  13.930  41.635   2.860
98616W        W70876  40.300   6.114   2.369
98617W        W70877  25.528   8.876  13.400
98618W        W70878  41.288   8.142  11.597
98619W        W70879  15.406   0.345   4.648
98620W        W70880   8.172  25.521   1.736
98621W        W70881  44.802  31.212  11.366
98622W        W70882  43.760  24.932   4.192
98623W        W70883   3.211  30.487  14.737
98624W        W70884  16.046  33.633   3.271
98625W        W70885  42.959  26.081   2.131
98626W        W70886  17.191  31.539   1.369
98627W        W70887  13.947   2.353   0.396
98628W        W70888  11.280  17.976   0.774
98629W        W70889   2.685  18.120   4.264
98630W        W70890  23.925  37.427   1.475
98631W        W70891  13.612   3.276  14.776
98632W        W70892  14.230  31.687   2.027
98633W        W70893   0.942  24.266   4.996
98634W        W70894   1.452   0.130   3.474
98635W        W70895   4.012  29.916  10.914
98636W        W70896  14.888  32.545   4.388
98637W        W70897   0.464  10.241  13.274
98638W        W70898  23.569  39.502  11.578
98639W        W70899  39.129  43.365   3.444
98640W        W70900  20.876  15.750   5.135
98641W        W70901   6.792  17.704  12.685
98642W        W70902   3.465   4.807   1.770
98643W        W70903  17.692  44.198   3.264
98644W        W70904  14.389  33.373   1.425
98645W        W70905  36.901  31.156  11.228
98646W        W70906   7.407  12.351  12.476
98647W        W70907  38.864  15.212  13.394
98648W        W70908  42.540  33.229  12.012
98649W        W70909  10.128   2.901   3.036
98650W        W70910   5.586  28.965   4.595
98651W        W70911  15.528  39.925   2.862
98652W        W70912  14.278  30.407   1.232
98653W        W70913  42.778  38.070  14.886
98654W        W70914  27.947   3.491   2.543
98655W        W70915   9.178  15.988  12.445
98656W        W70916  15.157  18.990  11.611
98657W        W70917  31.110  35.949   1.230
98658W        W70918  18.377  35.570  13.649
98659W        W70919  22.641  21.251  10.134
98660W        W70920  20.712  38.146   2.672
98661W        W70921   8.442  40.898   3.043
98662W        W70922  34.574  40.406   2.419
98663W        W70923  13.121  30.984  13.012
98664W        W70924   4.288  27.673   1.791
98665W        W70925  13.142  30.407   2.228
98666W        W70926  12.741  17.328  11.006
98667W        W70927  12.599  21.681  10.831
98668W        W70928  36.652   8.177   1.879
98669W        W70929  40.208  40.028  13.120
98670W        W70930   0.900   1.973   5.050
98671W        W70931   4.708  16.609   3.176
98672W        W70932  32.385  38.890  10.287
98673W        W70933  21.310  43.580   2.147
98674W        W70934  26.147  23.765  14.439
98675W        W70935  25.422  13.834  14.543
98676W        W70936  28.501  35.425   4.565
98677W        W70937  43.046  16.627   0.848
98678W        W70938  10.136  17.239  11.511
98679W        W70939  13.323  42.273  11.417
98680W        W70940   0.611  11.195   0.090
98681W        W70941  23.376  16.591   2.385
98682W        W70942  28.921  12.584  10.733
98683W        W70943  30.753  16.137   3.713
98684W        W70944  38.859   9.148   0.822
98685W        W70945  37.137  20.655  10.846
98686W        W70946  11.882  44.388  12.534
98687W        W70947  16.808  41.133   1.757
98688W        W70948  43.889  10.160   3.342
98689W        W70949  42.960  26.639   3.315
98690W        W70950  29.148  40.421   3.355
98691W        W70951  40.464   7.048   4.821
98692W        W70952  31.158  38.681   1.333
98693W        W70953  24.010  21.523  11.917
98694W        W70954   1.283  28.920  14.836
98695W        W70955   9.549   5.082   0.998
98696W        W70956   7.830   3.659  13.919
98697W        W70957  40.495  39.462  14.778
98698W        W70958  31.954  15.247  12.317
98699W        W70959  27.046  24.740  14.026
98700W        W70960  36.022  10.599  12.830
98701W        W70961  12.052  26.483  11.412
98702W        W70962   7.808  21.594  13.144
98703W        W70963   6.604  28.573  11.031
98704W        W70964  44.267   4.885   2.546
98705W        W70965  33.389   1.958   4.631
98706W        W70966   2.207   5.800   0.777
98707W        W70967  35.871  21.603   2.185
98708W        W70968  17.193  44.753  12.591
98709W        W70969  42.925  16.255   0.477
98710W        W70970  44.131   8.644  14.285
98711W        W70971   4.778  11.321  14.045
98712W        W70972   1.793  36.143   2.716
98713W        W70973  31.838  16.550   3.928
98714W        W70974  28.001   0.258   2.247
98715W        W70975  24.816  44.969  13.771
98716W        W70976   7.232  17.879   3.267
98717W        W70977  36.860  12.714  14.313
98718W        W70978   6.181  27.409  11.722
98719W        W70979  19.463  32.090  12.486
98720W        W70980  36.384  44.803   0.951
98721W        W70981  15.354  10.659  12.110
98722W        W70982  23.012  32.581   2.290
98723W        W70983  28.588  38.139  13.342
98724W        W70984  39.366  18.530   3.585
98725W        W70985  38.699  33.965   3.688
98726W        W70986  24.153  29.352  12.393
98727W        W70987  26.884  43.546   0.673
98728W        W70988  40.639  10.476   2.234
98729W        W70989  30.459  37.573  13.894
98730W        W70990   4.828  14.183   3.109
98731W        W70991  20.089  17.803   4.449
98732W        W70992  26.396  42.255   5.180
98733W        W70993  27.606  44.761   4.482
98734W        W70994  28.710  21.001   1.682
98735W        W70995   5.875  13.614  11.150
98736W        W70996  12.139   5.558  14.857
98737W        W70997  20.400  42.347  14.932
98738W        W70998  24.508  23.731  10.789
98739W        W70999  42.346  27.025   0.546
98740W        W71000   1.522  36.277   1.812
98741W        W71001   9.327   4.315  10.665
98742W        W71002   8.959  38.195   0.986
98743W        W71003   6.717  44.932   0.780
98744W        W71004  33.340   8.154   0.848
98745W        W71005  44.260  37.777  14.848
98746W        W71006  44.326  20.723   2.430
98747W        W71007  15.284  15.052   1.396
98748W        W71008  43.761  44.971   2.750
98749W        W71009  10.213  37.888   2.428
98750W        W71010  18.623  30.169   2.844
98751W        W71011  35.439  15.093  14.896
98752W        W71012  12.376  11.863   4.165
98753W        W71013  39.606  27.289  13.797
98754W        W71014  43.896  17.752  10.627
98755W        W71015  27.463   5.172  13.996
98756W        W71016  15.272  10.811   3.128
98757W        W71017  25.215  16.232   3.222
98758W        W71018  38.891  38.919  13.900
98759W        W71019  30.523   1.341   3.866
98760W        W71020  37.766  22.974  11.114
98761W        W71021  21.087  26.721   1.864
98762W        W71022  17.580   8.105  13.559
98763W        W71023  30.919  30.443  12.359
98764W        W71024  17.592   4.201  14.300
98765W        W71025  11.818  39.884  12.890
98766W        W71026  15.530   6.874   0.739
98767W        W71027  44.654  27.403  11.956
98768W        W71028  32.525   0.495   0.034
98769W        W71029  18.136   8.660   5.087
98770W        W71030   2.940  16.250  10.989
98771W        W71031  25.148  31.229  14.853
98772W        W71032  26.601  28.904  12.838
98773W        W71033  12.779  23.670  14.728
98774W        W71034  30.606  43.726  12.490
98775W        W71035  30.114   7.421   1.757
98776W        W71036  28.459  18.273   1.678
98777W        W71037  18.448   2.464   3.141
98778W        W71038  32.945  34.088   2.275
98779W        W71039  20.692  38.300   1.315
98780W        W71040  28.970  41.987   1.538
98781W        W71041  11.016  36.416  10.787
98782W        W71042  14.381  34.697   3.114
98783W        W71043  44.719  37.988   0.932
98784W        W71044   2.347  10.684   0.864
98785W        W71045  25.568   9.290  13.098
98786W        W71046  37.723  18.149  13.273
98787W        W71047   6.413  27.985   2.573
98788W        W71048   3.777  11.701   1.408
98789W        W71049   0.805  35.180   3.681
98790W        W71050  17.196  28.682  11.520
98791W        W71051  18.154  29.359   0.623
98792W        W71052  10.770  19.198   1.703
98793W        W71053  35.405   3.526   1.076
98794W        W71054  37.615  39.475   0.373
98795W        W71055  23.117   8.101  13.352
98796W        W71056  38.682  43.146   4.225
98797W        W71057  35.731  39.320   4.992
98798W        W71058  28.741  42.339   2.344
98799W        W71059  41.254  17.640   1.791
98800W        W71060   6.795  19.085  10.825
98801W        W71061   0.937  13.442  13.464
98802W        W71062  41.040  28.457   4.593
98803W        W71063  38.098   2.469  11.716
98804W        W71064   7.348  26.153   0.658
98805W        W71065  26.261  27.471   1.797
98806W        W71066  35.572  26.651   4.291
98807W        W71067  28.257  36.864  14.846
98808W        W71068  26.700  11.555  13.903
98809W        W71069  36.351  41.503   4.116
98810W        W71070   9.642  43.658  14.364
98811W        W71071  33.562  41.929   4.111
98812W        W71072   5.927  13.541   1.947
98813W        W71073  32.413  25.402   4.156
98814W        W71074  34.569  11.184  10.827
98815W        W71075   6.424  38.647   4.672
98816W        W71076  35.509  37.850   1.408
98817W        W71077   8.650  14.294   1.263
98818W        W71078  12.651  10.936  14.486
98819W        W71079  27.994  13.514  10.739
98820W        W71080  18.288   2.315   4.389
98821W        W71081  32.537  18.168   2.333
98822W        W71082  19.846   9.215  11.137
98823W        W71083  26.444  41.542   5.112
98824W        W71084  32.427  10.641   0.591
98825W        W71085  18.363   4.226   1.588
98826W        W71086   9.186  24.693   4.603
98827W        W71087   2.036  40.035   2.290
98828W        W71088  28.476   8.647  13.782
98829W        W71089  42.471  13.067   4.210
98830W        W71090  12.109  10.631   0.635
98831W        W71091  27.285   1.968  10.399
98832W        W71092  17.683   0.998  13.386
98833W        W71093   9.408   1.832  10.671
98834W        W71094  42.526  43.323   2.286
98835W        W71095  36.446  17.255  10.634
98836W        W71096  18.797  26.641  10.498
98837W        W71097   8.823  28.099  14.749
98838W        W71098  23.816   7.543   4.959
98839W        W71099  36.578  37.596   3.189
98840W        W71100  24.624  24.911   3.072
98841W        W71101  43.796  43.668   0.477
98842W        W71102  21.719  42.061   3.181
98843W        W71103  34.644  10.824   1.518
98844W        W71104  14.016  40.873   4.311
98845W        W71105  29.567   6.456  11.155
98846W        W71106  28.220  21.122  14.068
98847W        W71107  24.726  35.748  14.853
98848W        W71108  39.492   7.164   2.453
98849W        W71109  34.741  43.029  11.237
98850W        W71110  24.627   1.199   3.193
98851W        W71111  35.972   8.633  13.118
98852W        W71112  12.716  44.818  13.414
98853W        W71113  13.691  25.242  10.707
98854W        W71114  11.729  14.354   3.297
98855W        W71115  20.497  35.370   2.762
98856W        W71116   4.881  22.483  11.586
98857W        W71117   0.960  42.922   3.274
98858W        W71118   9.431   3.431  11.731
98859W        W71119  30.410  35.913  14.758
98860W        W71120  31.020   4.212  12.589
98861W        W71121  34.437  34.780  14.258
98862W        W71122  18.599  13.976   1.800
98863W        W71123   6.412   6.424  14.467
98864W        W71124  22.836  39.040   0.921
98865W        W71125  35.179  23.469   2.564
98866W        W71126  10.197  40.285   2.973
98867W        W71127  28.387  17.912  11.864
98868W        W71128  12.897  24.960   3.277
98869W        W71129  20.410  13.936  10.668
98870W        W71130   6.467  18.503  12.510
98871W        W71131  25.206  39.435   2.603
98872W        W71132  31.523  18.132  13.491
98873W        W71133  17.574  42.777   4.220
98874W        W71134   9.170  15.189  13.631
98875W        W71135   5.688  31.882   0.805
98876W        W71136   5.190  13.917   0.332
98877W        W71137  40.995  18.986  14.331
98878W        W71138  19.716  36.388  13.591
98879W        W71139  15.889  11.720   4.970
98880W        W71140  26.719  22.571  11.937
98881W        W71141  17.742   9.101   0.972
98882W        W71142  22.243  35.157  12.584
98883W        W71143  27.993  20.673  13.825
98884W        W71144  16.324  13.459  11.996
98885W        W71145  42.357   4.778  12.613
98886W        W71146  40.310   2.112  12.133
98887W        W71147  37.622  18.782  11.131
98888W        W71148  20.296   8.100  12.484
98889W        W71149  40.493   6.648   1.257
98890W        W71150   3.422  15.426   3.192
98891W        W71151  21.010  34.358  14.816
98892W        W71152  40.354   2.205  11.070
98893W        W71153  39.604  39.830  12.299
98894W        W71154  24.963   8.616   3.131
98895W        W71155  36.686  42.893  14.884
98896W        W71156  31.087  25.687  12.486
98897W        W71157  25.665  40.625   1.700
98898W        W71158   4.917  25.577   3.139
98899W        W71159  15.244  23.748  10.810
98900W        W71160   3.318  29.716  11.551
98901W        W71161  21.578  36.106   1.593
98902W        W71162  44.514  18.799   3.577
98903W        W71163  23.044  38.329  13.845
98904W        W71164  25.732  17.600   0.510
98905W        W71165  23.066  26.673  11.386
98906W        W71166  41.387  15.114  13.041
98907W        W71167  40.919  21.192  14.451
98908W        W71168   4.358  33.843   0.397
98909W        W71169  40.714  31.940   2.391
98910W        W71170  28.816  41.392  12.544
98911W        W71171  29.976  33.371   0.795
98912W        W71172  21.543  43.476   4.095
98913W        W71173  40.303  29.646   3.286
98914W        W71174  14.740  13.691  12.112
98915W        W71175  20.724  21.659   5.227
98916W        W71176  17.892  12.616   4.131
98917W        W71177  11.006  27.138  11.099
98918W        W71178  39.547  41.431   2.469
98919W        W71179  14.579  31.119  13.115
98920W        W71180  16.554  32.847   1.224
98921W        W71181  37.235  31.061   3.283
98922W        W71182   1.263   7.105  13.267
98923W        W71183  35.531  40.103  12.471
98924W        W71184  19.585  35.617   3.641
98925W        W71185  26.640  15.652  10.528
98926W        W71186  24.438  24.182   3.069
98927W        W71187  34.931  36.673  12.617
98928W        W71188  36.910  20.001  11.532
98929W        W71189   5.438  40.307   3.649
98930W        W71190   5.727   0.366  13.009
98931W        W71191  20.759   3.146   0.214
98932W        W71192  39.446   7.664  12.581
98933W        W71193   1.866   8.102  14.042
98934W        W71194  37.979  38.720   2.136
98935W        W71195  40.492  13.343  12.563
98936W        W71196  37.680  27.580   0.794
98937W        W71197  31.200  30.500   9.762
98938W        W71198  35.788  32.579   3.009
98939W        W71199  21.097  29.555   2.840
98940W        W71200  18.475  20.060  12.914
98941W        W71201  37.689  39.414  13.150
98942W        W71202  31.949  14.724  11.068
98943W        W71203  29.206   6.864   4.636
98944W        W71204  13.208  15.813   2.344
98945W        W71205  26.482  35.768  10.810
98946W        W71206   1.352  23.813  14.439
98947W        W71207   4.604  28.229  13.627
98948W        W71208  20.016   2.972   2.696
98949W        W71209  32.906  35.372  13.244
98950W        W71210   8.441  32.615   2.734
98951W        W71211  27.904  33.078   2.106
98952W        W71212  15.815  22.979   3.530
98953W        W71213  14.655  29.496   2.794
98954W        W71214  17.045  27.734   0.716
98955W        W71215  34.459  36.412   1.612
98956W        W71216   2.967  39.868   4.624
98957W        W71217  32.995   8.106  13.816
98958W        W71218  24.314  20.665   0.919
98959W        W71219  43.673  20.197  12.037
98960W        W71220  30.024   0.289   4.605
98961W        W71221  25.701  28.848  12.928
98962W        W71222   9.215  26.227  13.493
98963W        W71223  44.297  40.838   3.407
98964W        W71224  16.602  44.892   4.352
98965W        W71225  14.795  10.129   5.010
98966W        W71226  13.781   5.768  13.439
98967W        W71227  20.786  23.878  13.019
98968W        W71228  38.046   1.512   2.270
98969W        W71229  25.612  27.759   4.315
98970W        W71230  28.458  18.144  14.265
98971W        W71231  27.760  34.081  13.340
98972W        W71232  17.735  11.213  10.621
98973W        W71233   8.197   5.154   0.293
98974W        W71234  38.140   8.809   1.197
98975W        W71235  31.799  14.101  13.203
98976W        W71236  32.506  38.891  14.355
98977W        W71237  38.447  16.101  10.359
98978W        W71238  37.148   4.539   2.097
98979W        W71239   0.817  34.946  11.926
98980W        W71240  41.429  23.091  12.160
98981W        W71241  42.482   2.378  12.732
98982W        W71242  10.670   8.779  14.365
98983W        W71243  42.774  29.207  11.059
98984W        W71244   3.619  33.164   4.174
98985W        W71245  39.788  29.834  12.912
98986W        W71246  21.093   1.396  13.239
98987W        W71247  44.593  27.372  11.260
98988W        W71248  26.473  29.520  13.075
98989W        W71249  23.806  26.143  13.848
98990W        W71250   0.947  18.321   2.166
98991W        W71251  19.905  43.938  12.103
98992W        W71252   8.952  24.482  11.179
98993W        W71253   9.369  36.442   0.446
98994W        W71254  30.822  38.973  11.143
98995W        W71255  27.036  42.027  11.928
98996W        W71256   5.062   2.415  13.197
98997W        W71257  34.930  22.597   0.784
98998W        W71258  41.213   6.733  14.285
98999W        W71259  19.150  39.567   1.221
99000W        W71260  33.074   4.329  14.432
99001W        W71261  36.948  27.090  11.453
99002W        W71262   8.048  15.170  14.327
99003W        W71263  17.571  30.223  11.281
99004W        W71264  14.107  10.907  12.372
99005W        W71265  16.843  13.628   0.797
99006W        W71266  19.603  29.356  12.896
99007W        W71267   0.688  11.766  12.120
99008W        W71268   0.212  35.313   0.711
99009W        W71269  38.955  11.772   3.797
99010W        W71270  32.387  40.249   2.302
99011W        W71271  29.025  27.249   3.297
99012W        W71272  34.134  25.441  13.439
99013W        W71273   3.490  30.138   3.376
99014W        W71274  13.165  37.597  13.422
99015W        W71275   5.922  25.920   1.001
99016W        W71276  12.126   3.376  12.625
99017W        W71277  25.008  34.904   1.515
99018W        W71278  29.527  41.891   0.396
99019W        W71279  44.430  15.089   0.880
99020W        W71280  42.431  22.423   0.894
99021W        W71281  24.979  17.827  12.405
99022W        W71282  32.313  20.717   1.314
99023W        W71283   6.345  29.958  11.358
99024W        W71284   4.390  10.752   0.275
99025W        W71285  24.258  36.736   0.341
99026W        W71286  11.303   1.738   2.272
99027W        W71287  26.119   0.904   4.579
99028W        W71288  33.087  33.526  14.427
99029W        W71289   6.712  43.790   1.664
99030W        W71290  43.042  33.027  11.941
99031W        W71291  26.414  34.545  13.021
99032W        W71292  14.838  26.631  13.481
99033W        W71293  11.678  33.178  14.413
99034W        W71294  39.694  31.420  11.075
99035W        W71295  28.078  15.282  14.342
99036W        W71296  37.925   8.455  12.538
99037W        W71297  43.738   3.038   2.344
99038W        W71298  12.339  19.947   3.145
99039W        W71299  37.605   4.577  13.854
99040W        W71300  44.298  39.617  12.103
99041W        W71301   4.525  38.796  11.897
99042W        W71302  39.978  27.674  13.844
99043W        W71303  42.058   9.850   1.831
99044W        W71304  21.266  19.568   1.292
99045W        W71305  32.892  21.020  14.518
99046W        W71306  18.820  19.223  11.560
99047W        W71307  22.838  18.761   5.483
99048W        W71308   1.645   6.888  12.462
99049W        W71309  19.089  11.700  13.941
99050W        W71310   0.033  30.699  14.735
99051W        W71311  40.028   6.112  11.995
99052W        W71312   6.129  15.324   0.657
99053W        W71313  12.331  26.111  11.641
99054W        W71314   2.169   4.468  12.064
99055W        W71315   2.101   6.696   2.313
99056W        W71316  13.145   8.721  14.759
99057W        W71317  28.408   0.435   1.997
99058W        W71318  16.072  39.036  13.966
99059W        W71319  39.213  43.392   0.743
99060W        W71320  13.759   9.344   1.424
99061W        W71321  30.329  26.579  13.103
99062W        W71322   8.422  11.594   2.749
99063W        W71323   0.313  18.569  11.546
99064W        W71324   3.907  15.145   3.207
99065W        W71325  24.210  40.870   2.459
99066W        W71326  20.184  42.450  13.560
99067W        W71327  10.295  23.468  12.103
99068W        W71328  42.787   2.813   2.274
99069W        W71329  11.282  30.576  12.986
99070W        W71330  26.967  14.793   2.372
99071W        W71331   2.539  20.533  14.687
99072W        W71332   9.142  36.571   4.604
99073W        W71333  27.714  38.349   4.747
99074W        W71334  25.741  22.267   4.106
99075W        W71335  32.326  19.494   1.747
99076W        W71336  11.389  22.110  10.256
99077W        W71337  21.428  40.577   3.268
99078W        W71338  21.658  33.318  12.567
99079W        W71339  18.306  38.555  10.916
99080W        W71340  24.588  40.892  14.140
99081W        W71341  40.747  30.529   3.366
99082W        W71342  37.486  31.255   4.574
99083W        W71343  25.637   9.799  10.506
99084W        W71344  17.604  14.792   4.520
99085W        W71345  19.723  40.350  10.951
99086W        W71346  24.044   0.033  11.332
99087W        W71347  34.597  35.657   3.232
99088W        W71348  27.700  24.559   1.586
99089W        W71349   2.448  30.537  10.408
99090W        W71350  10.781  29.039   3.339
99091W        W71351  40.375  33.881   0.422
99092W        W71352   6.095   9.824  13.126
99093W        W71353   8.573  18.235  11.657
99094W        W71354   3.083  32.464   0.356
99095W        W71355   6.783  36.338   4.061
99096W        W71356  36.394  38.045  12.446
99097W        W71357   8.413  19.570  13.103
99098W        W71358   9.270  34.118  13.494
99099W        W71359   0.888  10.325   1.332
99100W        W71360  35.914   9.213   2.172
99101W        W71361  40.022  38.036  11.225
99102W        W71362  23.723  28.943   1.688
99103W        W71363  24.507  17.754  13.977
99104W        W71364  41.757  17.673   3.268
99105W        W71365  32.230  20.349   4.111
99106W        W71366  41.346  16.861  14.000
99107W        W71367  31.049  13.602   0.916
99108W        W71368   1.726  14.021  14.359
99109W        W71369  44.703  10.326  12.454
99110W        W71370  18.839  34.984   3.710
99111W        W71371  28.520  42.977  12.021
99112W        W71372   0.403  14.818   0.466
99113W        W71373  21.693  29.179   1.331
99114W        W71374  27.649  25.028   1.318
99115W        W71375  17.160   2.949  10.403
99116W        W71376  37.097   2.668   2.549
99117W        W71377   1.786  29.053  14.831
99118W        W71378  41.980   0.684  14.414
99119W        W71379  28.533  32.889  10.873
99120W        W71380  32.743  34.953   3.421
99121W        W71381   8.157  39.890  13.896
99122W        W71382   5.352   3.745   2.725
99123W        W71383  23.974  29.951  13.236
99124W        W71384   0.242  44.202   4.309
99125W        W71385  24.291  26.676  13.847
99126W        W71386  36.330  43.837  10.387
99127W        W71387  25.890  20.354   3.970
99128W        W71388  36.019  18.476   4.222
99129W        W71389  27.683  15.412  11.080
99130W        W71390  41.950  33.920   2.198
99131W        W71391  18.770  23.208   2.817
99132W        W71392  35.829  26.069  13.853
99133W        W71393  24.001  24.368  14.878
99134W        W71394   9.796  33.494  10.656
99135W        W71395   9.159  16.748  11.174
99136W        W71396  42.260  34.669   0.707
99137W        W71397  41.600   3.439   2.320
99138W        W71398  29.841   0.886   3.275
99139W        W71399  40.918   2.983   0.477
99140W        W71400  20.634   5.025   2.838
99141W        W71401   8.853  15.280  13.230
99142W        W71402  25.134  24.567   1.901
99143W        W71403  24.125  33.848  14.923
99144W        W71404  32.124  38.615  11.548
99145W        W71405  41.928  34.478  13.787
99146W        W71406   6.710  12.867   3.368
99147W        W71407   3.266  26.633   0.335
99148W        W71408  28.671   5.512   4.185
99149W        W71409  32.787  10.188   4.472
99150W        W71410  44.892  24.278  11.546
99151W        W71411  12.155  30.829  10.814
99152W        W71412  38.490  40.539   1.234
99153W        W71413  33.106   9.364   3.898
99154W        W71414  16.709   0.323   2.071
99155W        W71415   8.330  15.684   0.508
99156W        W71416  30.014  31.416  11.025
99157W        W71417  13.764   3.177   3.598
99158W        W71418  11.375  31.813  13.864
99159W        W71419  18.475  34.162   3.279
99160W        W71420  30.949  27.010  13.454
99161W        W71421  26.652  18.268  13.789
99162W        W71422   6.864  29.083  14.826
99163W        W71423  20.235   1.766   2.353
99164W        W71424  25.671  44.459   3.939
99165W        W71425  41.083   5.661   4.483
99166W        W71426  33.367  36.724   2.220
99167W        W71427  29.729  20.065  13.077
99168W        W71428   9.263   3.517   5.022
99169W        W71429  16.038  28.267  14.326
99170W        W71430  11.219   4.878  13.443
99171W        W71431  19.226  17.021   1.277
99172W        W71432  16.082  43.695   1.439
99173W        W71433  23.317  28.004  12.443
99174W        W71434  22.168  44.198   1.471
99175W        W71435  21.103  21.104   3.248
99176W        W71436  32.519  16.518   4.578
99177W        W71437   3.508  10.808  13.405
99178W        W71438  16.796  31.012   4.671
99179W        W71439  20.521  44.980  11.360
99180W        W71440  17.292  11.163  12.948
99181W        W71441  33.327  10.838  13.244
99182W        W71442  39.532  37.060   2.622
99183W        W71443   7.321  26.484  10.988
99184W        W71444  44.334   2.503  11.420
99185W        W71445  33.592   1.879  10.762
99186W        W71446  20.814   7.270  10.716
99187W        W71447   7.804  34.008   3.221
99188W        W71448   1.829  18.208  13.033
99189W        W71449   9.282  44.416  12.049
99190W        W71450  31.044  36.017  13.318
99191W        W71451   2.210  38.104   4.565
99192W        W71452  41.624  11.107  12.547
99193W        W71453  35.580  38.827  11.930
99194W        W71454  35.348  25.516  13.038
99195W        W71455  11.876   2.742   2.756
99196W        W71456  25.011  23.635   0.497
99197W        W71457  21.053   5.474   2.118
99198W        W71458  17.638  41.484   4.815
99199W        W71459  31.314   9.036   0.747
99200W        W71460   1.022   4.755   0.040
99201W        W71461  19.215  30.032  13.819
99202W        W71462   9.565  32.663   0.736
99203W        W71463  44.456  44.610  12.777
99204W        W71464  30.042  33.608  14.091
99205W        W71465   7.521  12.178   0.409
99206W        W71466  34.926  18.373  10.782
99207W        W71467   2.407  16.835   1.088
99208W        W71468  18.600  27.233  11.077
99209W        W71469   2.689  34.643   1.562
99210W        W71470   5.407  11.076  13.390
99211W        W71471   2.488  16.173   2.296
99212W        W71472  26.612  29.694   4.552
99213W        W71473  27.042  10.683  14.964
99214W        W71474  20.785  37.302   4.218
99215W        W71475  34.626  37.384  13.387
99216W        W71476  41.279  29.011  10.719
99217W        W71477  22.612   9.685  12.439
99218W        W71478   5.332  32.375   3.750
99219W        W71479  21.673  34.874  11.168
99220W        W71480  14.364   1.710  10.512
99221W        W71481  30.658   0.795  11.418
99222W        W71482   7.049   3.353  13.258
99223W        W71483  23.021   1.492   3.229
99224W        W71484   0.211  33.247   1.699
99225W        W71485  10.333  29.659   1.846
99226W        W71486  19.079   6.964  14.532
99227W        W71487  17.339  25.916  14.049
99228W        W71488   8.420   5.971   0.929
99229W        W71489  14.162  30.438  11.618
99230W        W71490  30.854  20.663   4.278
99231W        W71491   4.031   2.954  14.095
99232W        W71492   7.228   7.890   4.058
99233W        W71493  22.267  12.146  12.921
99234W        W71494  38.905  34.335   4.596
99235W        W71495  18.045  44.542   4.270
99236W        W71496  43.883  19.677  10.751
99237W        W71497  32.826  22.648  14.291
99238W        W71498   1.591   6.779   4.534
99239W        W71499  40.448  31.120  13.759
99240W        W71500  20.552   6.233  12.038
99241W        W71501  39.426  33.917   0.830
99242W        W71502  25.710  40.062   3.857
99243W        W71503  44.886  12.214   3.088
99244W        W71504  37.058  36.231   1.209
99245W        W71505   1.435   8.225  13.433
99246W        W71506  41.625   6.816  11.664
99247W        W71507  26.067  40.266  10.276
99248W        W71508  11.925   6.739  13.541
99249W        W71509  31.594  29.139   4.471
99250W        W71510  36.083  24.115  13.871
99251W        W71511  40.339  12.650   1.866
99252W        W71512  22.643  36.993  10.917
99253W        W71513   8.784  22.693  12.855
99254W        W71514  39.324   1.757   3.700
99255W        W71515  33.075  39.419  13.903
99256W        W71516   4.716  14.775   1.359
99257W        W71517  25.689  30.396  12.034
99258W        W71518  21.633  42.980   4.054
99259W        W71519  31.517  42.639  12.187
99260W        W71520  26.526  12.603  11.106
99261W        W71521  36.008   8.767   2.429
99262W        W71522  38.120  43.986  11.214
99263W        W71523   3.840  33.114   1.732
99264W        W71524  35.250  44.779   4.261
99265W        W71525  40.659  37.520  11.048
99266W        W71526  37.005  32.936  12.570
99267W        W71527  20.587  14.878  12.609
99268W        W71528  32.723  42.533   4.238
99269W        W71529  17.653   4.749   2.828
99270W        W71530  33.390   7.542  11.622
99271W        W71531  10.361  39.362  11.987
99272W        W71532  24.607  21.374   0.720
99273W        W71533   4.883  29.680   4.428
99274W        W71534   6.260  37.894  14.950
99275W        W71535  43.944  41.833   4.604
99276W        W71536   6.640  24.005  10.777
99277W        W71537  12.068  17.612  13.824
99278W        W71538  25.117   4.930   4.563
99279W        W71539  31.544  26.001  14.918
99280W        W71540  41.322  12.804  12.053
99281W        W71541  17.794   6.294  10.306
99282W        W71542  14.627   6.775   3.140
99283W        W71543  31.012  13.379   4.771
99284W        W71544  36.517  34.584  14.278
99285W        W71545  16.132   7.707  11.541
99286W        W71546  21.458  42.497   3.228
99287W        W71547   4.015   1.259  12.074
99288W        W71548  31.473  19.454   0.206
99289W        W71549  43.395  21.678   1.485
99290W        W71550  21.226  21.507   1.337
99291W        W71551   9.517   3.919   4.819
99292W        W71552  37.792   8.288  11.207
99293W        W71553  23.129  28.211  11.995
99294W        W71554  31.982   8.239   0.637
99295W        W71555  44.934  28.723   2.146
99296W        W71556  36.319  38.314   3.642
99297W        W71557  39.282  35.976  12.067
99298W        W71558   4.247  18.669  11.272
99299W        W71559   9.905   5.403   0.801
99300W        W71560  43.351   8.006   2.371
99301W        W71561  21.681   8.307   1.218
99302W        W71562  25.963  39.757   0.427
99303W        W71563   2.666  10.660   1.693
99304W        W71564   4.775   5.635  13.010
99305W        W71565  19.218   3.716  14.800
99306W        W71566  16.341  35.532  11.128
99307W        W71567  20.756  34.824  14.918
99308W        W71568  16.070  29.834  10.702
99309W        W71569  23.580  43.642   3.252
99310W        W71570   1.815   4.191   2.384
99311W        W71571  17.617  15.304   0.500
99312W        W71572  25.928  29.516   1.910
99313W        W71573  37.984   0.236   4.123
99314W        W71574  38.851  43.552  10.707
99315W        W71575   7.339   9.885  13.662
99316W        W71576  37.546  16.607  12.615
99317W        W71577  16.368   8.117   2.741
99318W        W71578  39.020  24.417  13.003
99319W        W71579  26.749   2.024  11.504
99320W        W71580   8.378  17.998   0.002
99321W        W71581  28.453   1.347   2.873
99322W        W71582  39.616  38.824  11.599
99323W        W71583  28.036  22.421  11.521
99324W        W71584  12.097  41.338  14.938
99325W        W71585  22.652   9.450  14.476
99326W        W71586   3.312   1.285  14.366
99327W        W71587  19.584  32.955  13.174
99328W        W71588   6.966   6.914   3.048
99329W        W71589  25.851   8.405  12.448
99330W        W71590  42.895  37.562   1.852
99331W        W71591  13.865  43.401  13.342
99332W        W71592  10.794  13.431   4.070
99333W        W71593  44.852  29.596  11.422
99334W        W71594  18.030  11.091   3.611
99335W        W71595  40.030   8.281  11.965
99336W        W71596   1.284  22.041   1.403
99337W        W71597  17.100  34.927   1.858
99338W        W71598   7.628   1.483   1.869
99339W        W71599  22.700  32.447  12.604
99340W        W71600  26.155  33.252  11.143
99341W        W71601  38.420   8.316  12.659
99342W        W71602  21.163  23.503   3.251
99343W        W71603  17.108  30.356  12.934
99344W        W71604  31.298  31.675  14.429
99345W        W71605  23.724  40.856   0.875
99346W        W71606  33.913  23.587   3.747
99347W        W71607  30.945  32.532   2.555
99348W        W71608  44.368  28.627  11.040
99349W        W71609  40.073  18.354   2.895
99350W        W71610  41.876  14.688   4.336
99351W        W71611  27.467  38.304  14.823
99352W        W71612  36.821  19.702   3.725
99353W        W71613  14.907  27.387   0.508
99354W        W71614  43.037  11.800   1.491
99355W        W71615   0.391  20.251   3.175
99356W        W71616   1.785  12.790  13.903
99357W        W71617  15.246  30.759  14.520
99358W        W71618  36.639   4.441  13.133
99359W        W71619  26.185  26.041   1.761
99360W        W71620  16.027  41.579   3.283
99361W        W71621  10.848   4.439  12.953
99362W        W71622  37.676   0.465   2.756
99363W        W71623  44.589  34.454  12.992
99364W        W71624  35.168  15.991   4.313
99365W        W71625  17.481  28.050  13.352
99366W        W71626   1.398  10.258  13.946
99367W        W71627  22.290  34.421   3.575
99368W        W71628  37.057  20.177  10.661
99369W        W71629  35.880  24.092  12.977
99370W        W71630  32.634  30.364   0.026
99371W        W71631  19.155  22.331   4.146
99372W        W71632  34.163   7.232   3.960
99373W        W71633  30.878  11.875   0.357
99374W        W71634   3.396  27.133  12.154
99375W        W71635   4.989   3.572  11.549
99376W        W71636  34.553  42.960   3.530
99377W        W71637  35.866  38.169  11.063
99378W        W71638  40.746   2.254  14.615
99379W        W71639   3.478  35.396   3.710
99380W        W71640  29.451   1.812  10.536
99381W        W71641  18.721  40.674   0.900
99382W        W71642  42.974   0.987  12.378
99383W        W71643  16.227  36.087   2.728
99384W        W71644  22.776  30.207   3.862
99385W        W71645  13.792   5.243  12.051
99386W        W71646  44.829  35.438  13.364
99387W        W71647  20.501  42.189   0.725
99388W        W71648  25.660  36.759  13.946
99389W        W71649  39.778  34.348  12.398
99390W        W71650  33.496  23.985   0.009
99391W        W71651  19.675  31.558   4.640
99392W        W71652  33.484  32.416  10.527
99393W        W71653  21.586   5.481  14.970
99394W        W71654  32.163  11.707   4.298
99395W        W71655   0.332   4.459  12.086
99396W        W71656  17.657  23.417   2.638
99397W        W71657  19.836  23.728   0.852
99398W        W71658  36.485  38.733   1.898
99399W        W71659  22.095  23.327  11.792
99400W        W71660  34.228  20.808   1.497
99401W        W71661   8.849   7.319  12.666
99402W        W71662  34.391  24.604  11.350
99403W        W71663   7.285  43.496  14.956
99404W        W71664  27.938  20.597  11.493
99405W        W71665   4.356  20.461  11.970
99406W        W71666  17.193   9.310   1.706
99407W        W71667  37.074  16.672   3.674
99408W        W71668  10.269  39.952  15.000
99409W        W71669  14.278  28.587  11.316
99410W        W71670   1.076  40.539   3.491
99411W        W71671  38.261  31.849  14.407
99412W        W71672  40.478  29.239   2.084
99413W        W71673   4.416  16.329  11.162
99414W        W71674   4.862  34.893  13.797
99415W        W71675  26.961  34.082   0.942
99416W        W71676   7.801   6.818   4.195
99417W        W71677  37.155  34.570  12.423
99418W        W71678  13.606  26.700   4.593
99419W        W71679  35.061  37.038  14.513
99420W        W71680  20.933  32.217   1.734
99421W        W71681  22.739  30.850  11.599
99422W        W71682  36.659  38.819  13.581
99423W        W71683  41.482  24.505   3.629
99424W        W71684   8.222  29.993   3.282
99425W        W71685   5.999   2.904   2.542
99426W        W71686  29.556  40.434   0.934
99427W        W71687   0.028  41.225   2.718
99428W        W71688  14.940  23.612   3.323
99429W        W71689  31.108   1.975  11.664
99430W        W71690  34.060  18.244   1.930
99431W        W71691  30.213   7.767   4.086
99432W        W71692  20.271  42.086  12.887
99433W        W71693  10.351   6.120  11.182
99434W        W71694  26.013  24.172  11.139
99435W        W71695  21.771  31.342  10.785
99436W        W71696  20.248  32.569  11.225
99437W        W71697   0.358   1.896   3.868
99438W        W71698  29.404  35.842   0.690
99439W        W71699  31.685  27.117   3.709
99440W        W71700  20.071  42.228  12.436
99441W        W71701  32.698  18.577  11.082
99442W        W71702  39.517  24.078   4.615
99443W        W71703   3.886   9.174  13.160
99444W        W71704  43.269   4.152   1.782
99445W        W71705  27.841  40.820  14.456
99446W        W71706  35.512  28.479   1.978
99447W        W71707   8.657   0.435   1.791
99448W        W71708  37.626   6.426   2.848
99449W        W71709   0.291  13.069  14.476
99450W        W71710   3.208  36.927  11.033
99451W        W71711  33.874  43.228  14.469
99452W        W71712   4.866  39.299   2.494
99453W        W71713  33.408  27.600   4.029
99454W        W71714  18.345  37.639   2.775
99455W        W71715  30.047  30.427   4.723
99456W        W71716   6.279   8.514   2.975
99457W        W71717   4.942  24.891   4.880
99458W        W71718  24.783  13.227   3.419
99459W        W71719  36.372  44.510   1.831
99460W        W71720  32.555  39.319   3.396
99461W        W71721  16.728  27.490  14.987
99462W        W71722  11.313   2.873  13.523
99463W        W71723  17.784  30.986   0.236
99464W        W71724  42.574  32.405  12.571
99465W        W71725  37.520  23.308   1.580
99466W        W71726  10.239  32.144  11.533
99467W        W71727  27.805  18.166  10.447
99468W        W71728  24.450  34.986  13.435
99469W        W71729   0.228  40.413   2.402
99470W        W71730   6.919   3.736  12.409
99471W        W71731  24.109  43.656   0.932
99472W        W71732  36.357   9.766  14.543
99473W        W71733   6.853  35.612   2.654
99474W        W71734  42.127  35.481  11.926
99475W        W71735  15.012  13.223   0.410
99476W        W71736  12.303  35.605  11.150
99477W        W71737  23.107  44.127  12.567
99478W        W71738  34.649  13.581  12.392
99479W        W71739  24.173  14.233   0.296
99480W        W71740  15.657   0.709   1.873
99481W        W71741  27.677  12.621   3.209
99482W        W71742  37.911  22.108  12.542
99483W        W71743  35.447   0.877   2.773
99484W        W71744  15.676  35.273   4.325
99485W        W71745  42.991  20.112   1.534
99486W        W71746  42.266  13.434  11.193
99487W        W71747  31.538  39.383  12.040
99488W        W71748   6.840  13.344  10.759
99489W        W71749  29.179  15.036  12.778
99490W        W71750  41.284   6.924  12.041
99491W        W71751  43.743  25.541   0.625
99492W        W71752  30.160  17.073  11.564
99493W        W71753   2.179  40.378   1.636
99494W        W71754  25.982  13.429   0.261
99495W        W71755  25.620  24.784   1.889
99496W        W71756  39.228  25.984   1.702
99497W        W71757  11.040  17.764   1.208
99498W        W71758  22.542  33.628   4.840
99499W        W71759  27.461  17.250  11.877
99500W        W71760   9.237  19.921  11.123
99501W        W71761  27.594  40.055  13.660
99502W        W71762  37.927  36.595  11.748
99503W        W71763   5.678  12.030   3.165
99504W        W71764   0.983  19.583   5.053
99505W        W71765  15.322  24.695  14.828
99506W        W71766   4.478  38.122   2.771
99507W        W71767  18.361  33.429  10.774
99508W        W71768  19.621   0.266   2.843
99509W        W71769  11.910  10.239   0.917
99510W        W71770  40.731  27.058  11.509
99511W        W71771   4.513   0.477  13.555
99512W        W71772  20.733   0.449  12.524
99513W        W71773  29.639  40.411   2.859
99514W        W71774   5.062  13.371   2.873
99515W        W71775  26.658  38.373   1.704
99516W        W71776  37.789   7.378   3.177
99517W        W71777  44.661  20.845  11.088
99518W        W71778  34.655  39.085   2.348
99519W        W71779  41.235  24.691  14.469
99520W        W71780   6.867  31.634   4.848
99521W        W71781   8.691  39.410  13.543
99522W        W71782   3.047  30.092  10.763
99523W        W71783  28.519  44.604   3.101
99524W        W71784  11.625  28.713  10.624
99525W        W71785  15.507  14.351  14.359
99526W        W71786   1.305  40.546   0.395
99527W        W71787  10.253  19.129  11.832
99528W        W71788  26.402   0.051   4.268
99529W        W71789  41.872   7.496  13.437
99530W        W71790  44.525  25.392   1.310
99531W        W71791  40.253  39.096   0.021
99532W        W71792  43.845   4.693   2.257
99533W        W71793  23.496  33.785  13.326
99534W        W71794  32.244  21.727  14.222
99535W        W71795  14.019  39.239   3.631
99536W        W71796  11.200  34.052  11.525
99537W        W71797  32.502  37.568  12.069
99538W        W71798  27.043  35.720  13.284
99539W        W71799  29.278  38.868  11.452
99540W        W71800  38.284  24.982   4.229
99541W        W71801  27.913  44.844   1.025
99542W        W71802   3.768  24.606   1.264
99543W        W71803  23.722  43.496   2.225
99544W        W71804  24.079  25.089  14.311
99545W        W71805  26.366  20.549  14.942
99546W        W71806  38.947  29.293  10.736
99547W        W71807   2.801  21.445   1.364
99548W        W71808  33.804  42.136  11.192
99549W        W71809  29.440  41.284  11.580
99550W        W71810  42.413  35.725   3.906
99551W        W71811  25.083   3.266   2.947
99552W        W71812  37.832  34.827  11.762
99553W        W71813   6.813  17.709  14.501
99554W        W71814   2.043  13.627   1.329
99555W        W71815  21.038  23.945  13.497
99556W        W71816  41.848   0.837   0.894
99557W        W71817  32.974  30.040  12.235
99558W        W71818  37.083  19.548  12.829
99559W        W71819  35.365  22.715  11.085
99560W        W71820  39.136  17.281  13.417
99561W        W71821  42.673   2.923   0.332
99562W        W71822   1.991  33.469   2.790
99563W        W71823  41.275  12.887   4.243
99564W        W71824  11.226  25.720   3.419
99565W        W71825  38.885   6.835   5.110
99566W        W71826   2.321  21.079  11.948
99567W        W71827  31.728   3.628   4.861
99568W        W71828  20.418  33.677   0.333
99569W        W71829  18.468   5.129   9.565
99570W        W71830  19.826  18.171   4.197
99571W        W71831   2.363  34.458   2.800
99572W        W71832  24.334   7.529   5.087
99573W        W71833  40.244   2.215  14.517
99574W        W71834   0.944  27.158   0.506
99575W        W71835  36.883  38.001  13.330
99576W        W71836  24.468  35.522   0.304
99577W        W71837  35.886   8.726  11.949
99578W        W71838   8.373  33.445   1.583
99579W        W71839  34.177  36.853   3.949
99580W        W71840  42.086  12.623  10.727
99581W        W71841  30.554  38.123  12.943
99582W        W71842  28.735  20.718  11.936
99583W        W71843  27.222  21.801   0.779
99584W        W71844  43.482  35.664   0.814
99585W        W71845  10.466  40.257   0.404
99586W        W71846  12.222  11.322  10.710
99587W        W71847  18.091  42.785  13.374
99588W        W71848  35.766  14.019   0.947
99589W        W71849  39.093  17.785  13.577
99590W        W71850  39.892  16.278  11.400
99591W        W71851  29.697  31.896   2.436
99592W        W71852  20.075  30.692   0.321
99593W        W71853  16.622  27.487   3.105
99594W        W71854  14.182  16.273   3.058
99595W        W71855  12.081  39.860   3.574
99596W        W71856  13.824  26.157   3.700
99597W        W71857  10.297  24.239   1.218
99598W        W71858  31.099  39.430  11.043
99599W        W71859   9.666  12.337  10.775
99600W        W71860  40.640  36.453   3.184
99601W        W71861   1.443  28.872  13.103
99602W        W71862   1.961  12.105  14.514
99603W        W71863  26.974  29.587   0.340
99604W        W71864  26.235   1.226  14.510
99605W        W71865  31.555  12.313   1.358
99606W        W71866  40.578   3.326   0.996
99607W        W71867  11.816  38.990   0.113
99608W        W71868  30.867   4.327  10.706
99609W        W71869  17.992  18.571   4.222
99610W        W71870  36.950   9.185  12.954
99611W        W71871  11.080  25.510   1.373
99612W        W71872   2.229  18.169   0.754
99613W        W71873  32.530   1.437   1.549
99614W        W71874  44.462   1.881   1.027
99615W        W71875  33.119  26.654   0.844
99616W        W71876  18.506   1.394   0.355
99617W        W71877  41.459   5.685   4.122
99618W        W71878  11.806  30.103  14.792
99619W        W71879   1.220   0.996   3.655
99620W        W71880  16.278  42.371  13.501
99621W        W71881   4.699   1.727   4.387
99622W        W71882  37.508   4.259  12.324
99623W        W71883  16.919  36.775  12.032
99624W        W71884  28.229   7.378  11.051
99625W        W71885  15.546  16.164   3.718
99626W        W71886  22.297   4.759   3.123
99627W        W71887  17.651  28.910  12.461
99628W        W71888  10.731   6.614   0.850
99629W        W71889   2.179   9.786   4.806
99630W        W71890  20.048  38.550  14.355
99631W        W71891  10.534  24.967   0.833
99632W        W71892  39.113  18.775  12.874
99633W        W71893  13.755   8.786   4.651
99634W        W71894  24.020  25.719  11.148
99635W        W71895  16.370  33.983   0.601
99636W        W71896  34.069  16.052  12.632
99637W        W71897  42.210   7.422   1.708
99638W        W71898   4.407  18.164  14.437
99639W        W71899  31.938  13.729  10.663
99640W        W71900  23.015  24.183  10.688
99641W        W71901  29.170  17.992   4.011
99642W        W71902   6.883   0.774   2.881
99643W        W71903  17.214  43.948   2.422
99644W        W71904   0.949  26.118   3.233
99645W        W71905  13.359  32.493  13.670
99646W        W71906   1.751  20.080   2.215
99647W        W71907  34.995  31.924   3.215
99648W        W71908  24.544  24.136  14.809
99649W        W71909  32.402  25.133  13.370
99650W        W71910  28.569   7.298  14.278
99651W        W71911  34.631  17.880   5.186
99652W        W71912  30.687   7.235  13.906
99653W        W71913  39.816   7.205  13.414
99654W        W71914  19.037  22.166  11.197
99655W        W71915  22.670   8.548  10.549
99656W        W71916  11.271  14.125   3.258
99657W        W71917  11.787   1.935   0.966
99658W        W71918  40.766  20.496  14.755
99659W        W71919  33.420  14.903   1.344
99660W        W71920  18.630  42.307   1.952
99661W        W71921   1.714  36.967   3.238
99662W        W71922  37.186  35.124  14.417
99663W        W71923  41.751   6.188  14.335
99664W        W71924   1.987  33.023  11.981
99665W        W71925   2.338  34.254  13.464
99666W        W71926  11.113  10.256   4.135
99667W        W71927   3.211  29.060   3.379
99668W        W71928   6.106  31.862  13.847
99669W        W71929   2.017  27.160   1.417
99670W        W71930  16.269  28.076  12.794
99671W        W71931  30.056  12.287  12.527
99672W        W71932  10.117   9.216  10.595
99673W        W71933  25.543  18.274   4.909
99674W        W71934  21.176  42.055   3.133
99675W        W71935  27.142  11.808  11.235
99676W        W71936  42.272  17.721   1.841
99677W        W71937   4.265   7.331  13.838
99678W        W71938  24.428  24.495  11.599
99679W        W71939  42.024  26.618  13.965
99680W        W71940  29.306  43.105   4.660
99681W        W71941   2.536  37.493   1.213
99682W        W71942  35.018  32.410   4.033
99683W        W71943   5.926  27.517   3.132
99684W        W71944  12.372  37.280  12.371
99685W        W71945  13.075   7.683  12.491
99686W        W71946  37.671  36.162   4.253
99687W        W71947  12.611   8.390   0.239
99688W        W71948  23.869  34.156  12.524
99689W        W71949  24.381  38.940   4.560
99690W        W71950   8.753  30.443  13.690
99691W        W71951  21.232  26.000   4.540
99692W        W71952  29.972  27.553   0.939
99693W        W71953  28.775  28.833   0.452
99694W        W71954  10.005   5.446  11.580
99695W        W71955  14.091  29.079  11.452
99696W        W71956  13.861  19.547   0.022
99697W        W71957  37.101   7.647  11.793
99698W        W71958  31.021   4.410   4.131
99699W        W71959  25.767  44.840   3.100
99700W        W71960  26.594  28.517   1.763
99701W        W71961   6.411  23.221   2.156
99702W        W71962  22.256  33.583  14.467
99703W        W71963  29.483   7.696   4.906
99704W        W71964  23.689  29.496   0.536
99705W        W71965  31.648  34.935  10.885
99706W        W71966  31.912  26.070   5.269
99707W        W71967   3.687  34.789  13.101
99708W        W71968  11.808  20.456   0.682
99709W        W71969   3.835  35.914   1.682
99710W        W71970  17.914  38.297  12.544
99711W        W71971  41.221  27.343  12.248
99712W        W71972  37.566  20.972   3.712
99713W        W71973  43.722  40.636  13.847
99714W        W71974  33.570  28.379   0.865
99715W        W71975  14.829  37.807  10.652
99716W        W71976  22.275   8.678  14.269
99717W        W71977   2.647  33.036   4.292
99718W        W71978  22.291  24.283   3.221
99719W        W71979   1.324  35.906  10.730
99720W        W71980  32.012  23.314  12.002
99721W        W71981  40.859  44.557  12.495
99722W        W71982  20.665  24.325   3.332
99723W        W71983  19.505  29.147  14.959
99724W        W71984  11.981  25.380   4.396
99725W        W71985   4.800   2.339  10.646
99726W        W71986  44.942   8.675  14.907
99727W        W71987   2.295  34.353   1.740
99728W        W71988   0.906   2.719  14.741
99729W        W71989   1.951  31.371   3.666
99730W        W71990  38.315  36.658   0.370
99731W        W71991  37.993  30.530  12.180
99732W        W71992  19.191  39.108  13.824
99733W        W71993   7.661  35.580  14.361
99734W        W71994  21.276   3.383   0.903
99735W        W71995  42.052  31.333   0.303
99736W        W71996  10.929  37.776  13.434
99737W        W71997  19.091  27.913   4.236
99738W        W71998  17.341  40.146   4.223
99739W        W71999   7.749  24.994   4.317
99740W        W72000  13.612   9.185  14.870
99741W        W72001  24.614  13.545  10.610
99742W        W72002   6.520  42.384   0.202
99743W        W72003   6.751  15.650   1.195
99744W        W72004  36.049  13.185  13.798
99745W        W72005   4.353  22.287  14.387
99746W        W72006  35.612  38.553  11.477
99747W        W72007  16.678  27.615  12.976
99748W        W72008  16.724  17.294  10.630
99749W        W72009  14.655   0.155  13.517
99750W        W72010  17.316  12.967  14.309
99751W        W72011  28.600  44.959   2.733
99752W        W72012  23.034  36.705  13.416
99753W        W72013   0.078  26.778  14.603
99754W        W72014  26.665  36.883   3.208
99755W        W72015  20.682  24.556   0.371
99756W        W72016   5.737   0.852   0.819
99757W        W72017  38.262  33.367  13.002
99758W        W72018  44.691   7.895   1.304
99759W        W72019  28.125   0.866  14.584
99760W        W72020  11.773  17.566  12.341
99761W        W72021  19.304  34.927   1.450
99762W        W72022  10.924  41.280   3.894
99763W        W72023  28.393   5.313  11.846
99764W        W72024   0.889   6.347  13.372
99765W        W72025   7.401  25.872   9.905
99766W        W72026  15.786   2.589   4.668
99767W        W72027  21.782   8.894  13.316
99768W        W72028  19.282   5.129   4.343
99769W        W72029  24.118   0.331   1.229
99770W        W72030   2.742   0.359   1.150
99771W        W72031   3.724  16.179  14.480
99772W        W72032  19.233  44.555  10.712
99773W        W72033  18.522   2.607  13.415
99774W        W72034  27.753  25.519   0.052
99775W        W72035   8.694  23.703   1.041
99776W        W72036   1.370  11.174   2.633
99777W        W72037   9.348  43.975   1.514
99778W        W72038   3.468  13.894  14.477
99779W        W72039   9.799  19.206  12.079
99780W        W72040  22.715  11.732   4.149
99781W        W72041  16.296   9.103   0.848
99782W        W72042   9.628  32.131  13.246
99783W        W72043  15.337   7.352   0.832
99784W        W72044  15.722  21.987   1.764
99785W        W72045  35.227  32.606  12.760
99786W        W72046  16.586  14.519  11.589
99787W        W72047  24.560  22.715  14.747
99788W        W72048  33.632   5.439   5.044
99789W        W72049  35.033   6.659  13.437
99790W        W72050  40.332   3.406  11.205
99791W        W72051   3.189   9.299   3.992
99792W        W72052  44.328   8.384  10.831
99793W        W72053  40.211  20.234  12.836
99794W        W72054   9.575  34.945  13.463
99795W        W72055   3.246  28.646  10.629
99796W        W72056  25.914   0.985  12.112
99797W        W72057  40.822  14.270   2.167
99798W        W72058  13.675  16.737   0.054
99799W        W72059  20.818  17.609  11.213
99800W        W72060   9.141  18.275   3.784
99801W        W72061  10.858  25.051  14.510
99802W        W72062  34.574  27.851   2.261
99803W        W72063  43.588  28.531   4.956
99804W        W72064  44.567  35.659  11.501
99805W        W72065  19.020   1.959   4.215
99806W        W72066  36.965  10.718  13.051
99807W        W72067  24.029  35.570  13.392
99808W        W72068   4.263  27.468   2.277
99809W        W72069  31.698   1.627  11.091
99810W        W72070  13.496  26.503  11.904
99811W        W72071  14.903  43.006   4.515
99812W        W72072  15.059  34.782  13.351
99813W        W72073  33.522  44.609   4.563
99814W        W72074  25.024  35.629  12.430
99815W        W72075   7.814  43.134  13.845
99816W        W72076  32.973  36.893  10.953
99817W        W72077  41.512  40.820  11.668
99818W        W72078  25.752  11.150  13.550
99819W        W72079  12.595   3.004   3.305
99820W        W72080  17.729  32.907   4.452
99821W        W72081  19.081   8.128   2.116
99822W        W72082  33.560  18.299  12.042
99823W        W72083  20.775  37.501   0.894
99824W        W72084  12.411  24.208  11.480
99825W        W72085  41.042  28.448  12.882
99826W        W72086   0.926  31.702   0.313
99827W        W72087  35.612  16.982  11.659
99828W        W72088  13.633  23.633   0.307
99829W        W72089   1.053   7.867  12.971
99830W        W72090   7.447   5.499  11.011
99831W        W72091  34.896  44.766   4.655
99832W        W72092  23.584  43.861  12.529
99833W        W72093  17.535  10.795  11.947
99834W        W72094  40.447  37.777   1.287
99835W        W72095  38.976   2.764  14.936
99836W        W72096  17.635  18.911  13.125
99837W        W72097   2.557  22.499   0.514
99838W        W72098   3.379   4.878  11.442
99839W        W72099  27.710  15.349   2.176
99840W        W72100  32.985  21.131   2.016
99841W        W72101  43.077   9.370   0.060
99842W        W72102   2.996  34.577  12.663
99843W        W72103   4.796  28.121   3.721
99844W        W72104  10.768   2.367  12.487
99845W        W72105  34.996   7.899  10.862
99846W        W72106   0.342  29.736  13.279
99847W        W72107  15.016  39.541   5.126
99848W        W72108  26.503  23.626  10.701
99849W        W72109  11.739  33.508   0.772
99850W        W72110  35.668  15.228   1.354
99851W        W72111  39.851  17.694  11.692
99852W        W72112  26.675  21.734   3.456
99853W        W72113   9.510  43.464   0.874
99854W        W72114  28.075   7.178  10.565
99855W        W72115  20.426  21.731   3.365
99856W        W72116  19.146  23.749  14.500
99857W        W72117  19.525  17.354  13.987
99858W        W72118  44.440  31.862  11.098
99859W        W72119  38.924  19.661  11.846
99860W        W72120  34.217  43.321   3.028
99861W        W72121  27.264  34.543   0.095
99862W        W72122  34.358   2.877  11.065
99863W        W72123  33.250  12.950  10.928
99864W        W72124  39.091   6.451   3.543
99865W        W72125   3.862  36.135  12.453
99866W        W72126  31.703   1.031   3.768
99867W        W72127  36.572  18.845  13.432
99868W        W72128  20.415  43.724  13.725
99869W        W72129  37.154  16.570  10.569
99870W        W72130  12.813  33.982  14.414
99871W        W72131  24.234  12.121   2.235
99872W        W72132  33.895  15.343   4.118
99873W        W72133  20.082  26.404  12.568
99874W        W72134  24.217  16.375   2.710
99875W        W72135  26.919  11.863   1.223
99876W        W72136  15.069  27.043  12.404
99877W        W72137  33.276  20.768   2.243
99878W        W72138  41.809  18.797   1.546
99879W        W72139  12.173  10.097  13.466
99880W        W72140  37.307  31.391  13.481
99881W        W72141  38.402  18.130   0.597
99882W        W72142   6.705  32.218  12.018
99883W        W72143  31.348  13.189  13.483
99884W        W72144  42.329  24.021   3.808
99885W        W72145  16.612  22.290   1.289
99886W        W72146  12.475  42.019   2.019
99887W        W72147   4.084  27.995   3.183
99888W        W72148   3.476   7.259   2.267
99889W        W72149  21.573  30.448  12.475
99890W        W72150  12.810  30.458   3.085
99891W        W72151  11.735  30.358  10.129
99892W        W72152  20.074   8.178  13.422
99893W        W72153   8.686  12.440   0.816
99894W        W72154  33.332  43.969  11.105
99895W        W72155  33.446  11.890   2.303
99896W        W72156  28.649  14.554  10.910
99897W        W72157  11.802  44.233  10.713
99898W        W72158   2.494  16.616  12.414
99899W        W72159  27.509  14.160  11.659
99900W        W72160   7.844  11.443  10.228
99901W        W72161   8.388  35.052   0.794
99902W        W72162  16.274  32.376   1.929
99903W        W72163  26.493  16.803   4.522
99904W        W72164   2.354   6.293   0.922
99905W        W72165   0.757  17.168  12.175
99906W        W72166   7.332  11.675  14.502
99907W        W72167  32.513  22.027  14.580
99908W        W72168  29.956  23.354   1.452
99909W        W72169  19.335  21.848   4.090
99910W        W72170  33.377  14.108  11.474
99911W        W72171  24.642  40.450   1.173
99912W        W72172   8.925  18.636  11.630
99913W        W72173  11.932  41.725   2.944
99914W        W72174  44.609  16.251  13.027
99915W        W72175  41.070  26.186   0.024
99916W        W72176   9.121  28.167   3.340
99917W        W72177  31.657  29.712   4.307
99918W        W72178   7.856  10.079   2.205
99919W        W72179   4.611  31.568  13.304
99920W        W72180  36.526  44.146  11.170
99921W        W72181  25.109  37.326  14.417
99922W        W72182  13.239  27.690   2.767
99923W        W72183  18.289  32.992  12.030
99924W        W72184  40.932   4.648   4.541
99925W        W72185  34.613  33.863  13.329
99926W        W72186  16.260  41.984   2.527
99927W        W72187  36.272  23.905   2.314
99928W        W72188   9.752  31.912   1.351
99929W        W72189  10.663  18.694  10.675
99930W        W72190   1.766  30.075   4.750
99931W        W72191   6.567  38.085   0.401
99932W        W72192  24.614   1.713   0.782
99933W        W72193  42.595  14.816   3.006
99934W        W72194  20.209  30.061  10.711
99935W        W72195  39.182  16.313  12.526
99936W        W72196  18.509  27.201   2.130
99937W        W72197  29.635  20.959   0.751
99938W        W72198  16.511   3.460  12.926
99939W        W72199  24.522  25.594   1.375
99940W        W72200   0.755  20.482  12.052
99941W        W72201   7.692  31.037  12.740
99942W        W72202  38.524   3.807   3.746
99943W        W72203  37.715   9.732   9.547
99944W        W72204   6.196  34.092  10.374
99945W        W72205   1.311  36.345   3.705
99946W        W72206  36.303  24.448   3.203
99947W        W72207  22.978  28.456   5.554
99948W        W72208   5.891  40.124   3.081
99949W        W72209  21.120  26.909   1.352
99950W        W72210  44.440  13.270   0.675
99951W        W72211   8.040  19.424   1.414
99952W        W72212  39.135  10.167   1.148
99953W        W72213  43.887  25.229  14.955
99954W        W72214  34.546  24.555  10.846
99955W        W72215   4.509  31.973   2.850
99956W        W72216  30.753   7.456  12.639
99957W        W72217  21.653  30.639   1.291
99958W        W72218  26.957  42.550   0.962
99959W        W72219  37.836  28.027  10.468
99960W        W72220  19.396  30.518  11.399
99961W        W72221  13.919   5.480  11.092
99962W        W72222  21.655  15.308  11.980
99963W        W72223  11.594  21.994  13.315
99964W        W72224  41.825  16.277   1.887
99965W        W72225   9.154  42.021   0.878
99966W        W72226  38.475  25.159  11.267
99967W        W72227   5.285   9.131   0.841
99968W        W72228  36.509   2.898  14.703
99969W        W72229   5.652  24.667   0.059
99970W        W72230  34.394  39.493   0.772
99971W        W72231  43.023   9.860   1.552
99972W        W72232  35.532  10.829  10.640
99973W        W72233  32.685  44.582  11.222
99974W        W72234  10.176  34.588   5.202
99975W        W72235  42.997  28.585  14.569
99976W        W72236  42.884  25.622  14.039
99977W        W72237   4.746  20.429  13.159
99978W        W72238  22.125  37.717  14.910
99979W        W72239  32.888  27.996   4.754
99980W        W72240   7.336  31.567  14.404
99981W        W72241   1.823  39.756  10.575
99982W        W72242  33.935  20.031  13.650
99983W        W72243  17.094  13.523   2.400
99984W        W72244  35.411   1.493  14.906
99985W        W72245  17.698  27.939   2.700
99986W        W72246   4.981   6.448   3.258
99987W        W72247  26.040   6.321  14.508
99988W        W72248  27.596  31.644   4.130
99989W        W72249  40.249  20.371  11.600
99990W        W72250  23.466   5.837  12.984
99991W        W72251  44.926  36.297  13.896
99992W        W72252  18.149   2.364  11.074
99993W        W72253  39.411   3.838   4.965
99994W        W72254   0.305  14.852   2.930
99995W        W72255  42.566  44.470  10.449
99996W        W72256  29.082  26.465   0.545
99997W        W72257  15.914   2.071   4.576
99998W        W72258   8.898  40.939  14.283
99999W        W72259  12.892  13.162  13.007
    0W        W72260   7.790  16.212   0.978
    1W        W72261  44.525  11.856  14.924
    2W        W72262  36.041  23.889   1.064
    3W        W72263  25.407  36.412   1.457
    4W        W72264   2.751  40.869   0.715
    5W        W72265  22.567  13.085   0.860
    6W        W72266  12.170   7.455   1.502
    7W        W72267  40.932   9.373   3.097
    8W        W72268  29.077   4.871  12.977
    9W        W72269   7.605  44.475  10.223
   10W        W72270  16.670   5.533  12.360
   11W        W72271   6.558  42.031   2.926
   12W        W72272  23.496   2.622  11.940
   13W        W72273   5.970  29.719   0.304
   14W        W72274  31.997  43.472   0.658
   15W        W72275  29.246  31.475  14.143
   16W        W72276  10.654  11.859   4.119
   17W        W72277  22.132  17.280  11.050
   18W        W72278  32.965  34.590  11.477
   19W        W72279  44.427  26.986   3.009
   20W        W72280  34.423  12.094  11.210
   21W        W72281  10.191  28.329  14.536
   22W        W72282  13.822  18.105   1.449
   23W        W72283   9.996   5.880   4.493
   24W        W72284   6.940  31.426  11.608
   25W        W72285  19.987  30.446   4.035
   26W        W72286  41.990  37.299  12.591
   27W        W72287  12.880  26.965   3.661
   28W        W72288  22.492  19.066   0.466
   29W        W72289  32.404  36.778   1.860
   30W        W72290   2.350  20.607   3.944
   31W        W72291  22.420  24.010   2.766
   32W        W72292  30.505  21.462   0.004
   33W        W72293  40.779  12.192   0.356
   34W        W72294  37.345  40.432   1.642
   35W        W72295   9.403  24.547  12.587
   36W        W72296  13.430  21.505   3.750
   37W        W72297  35.396  12.777   0.477
   38W        W72298  28.696  35.793   4.234
   39W        W72299  28.035   5.764  14.734
   40W        W72300   8.144  42.752   4.195
   41W        W72301  15.387  30.490   0.327
   42W        W72302  10.688  36.499  14.915
   43W        W72303  42.420  15.878  12.723
   44W        W72304   1.001  23.961  13.040
   45W        W72305   8.641   2.787   4.545
   46W        W72306  22.601  39.428   2.617
   47W        W72307   2.342  25.987   3.762
   48W        W72308  13.184  38.167  12.717
   49W        W72309  25.201  40.886   4.121
   50W        W72310  21.615  30.414   2.736
   51W        W72311  12.714  22.753   3.655
   52W        W72312  34.532  14.562  14.370
   53W        W72313  23.162  14.084  12.497
   54W        W72314  15.359   4.127  13.544
   55W        W72315  41.016   6.830  11.176
   56W        W72316  20.569  43.774  13.234
   57W        W72317  13.719   6.602   0.449
   58W        W72318   0.784  32.330  14.555
   59W        W72319  43.487  34.943  11.156
   60W        W72320   8.468  34.146   4.771
   61W        W72321  34.628   0.792   0.411
   62W        W72322   8.444  20.312   0.277
   63W        W72323  31.199  30.654   1.407
   64W        W72324  37.956  41.742   3.734
   65W        W72325   7.244  22.675   0.746
   66W        W72326   4.275  32.578  12.264
   67W        W72327  23.075  22.666   0.413
   68W        W72328  21.689   5.464   1.308
   69W        W72329   4.207  29.054   4.156
   70W        W72330  11.586  31.188  13.084
   71W        W72331  18.805  42.306  13.611
   72W        W72332  11.753  10.109   0.049
   73W        W72333  11.065  39.099  14.358
   74W        W72334  44.770  38.678  12.544
   75W        W72335   2.373  32.975  11.018
   76W        W72336  29.644   8.340  10.738
   77W        W72337  42.237   0.840  11.134
   78W        W72338  32.113  18.593   4.609
   79W        W72339  27.418  29.995  11.096
   80W        W72340  30.532  31.368   4.082
   81W        W72341  34.932  44.253   2.631
   82W        W72342   8.867  39.717   1.486
   83W        W72343   8.874  32.725  12.592
   84W        W72344  17.763   8.175  14.468
   85W        W72345   6.134  10.329  13.885
   86W        W72346  39.448  32.791  14.396
   87W        W72347  11.641  39.881   0.074
   88W        W72348  21.509  28.103   4.664
   89W        W72349  10.593  16.078   4.158
   90W        W72350  13.421  17.827  13.814
   91W        W72351  22.471  13.683  14.883
   92W        W72352  11.152  18.268   4.927
   93W        W72353  11.832  37.364  11.315
   94W        W72354  37.981  15.331  14.624
   95W        W72355  37.302   1.351   0.439
   96W        W72356   0.210  12.482  10.711
   97W        W72357  24.309  43.408  10.642
   98W        W72358  31.800  34.999  13.873
   99W        W72359  18.874   1.917   3.719
  100W        W72360  12.656  21.793   3.391
  101W        W72361  34.225  38.928  14.632
  102W        W72362  30.653  26.156   3.877
  103W        W72363  14.177  18.163   0.460
  104W        W72364  30.525  21.690   0.506
  105W        W72365  30.853  17.015  10.915
  106W        W72366  42.350   4.282   1.872
  107W        W72367  15.396   7.443  11.104
  108W        W72368   5.744  41.858   4.094
  109W        W72369   8.713   9.764  13.443
  110W        W72370  18.017  27.539   0.851
  111W        W72371  10.652  40.451  13.488
  112W        W72372  43.365   3.710   0.909
  113W        W72373  26.620  15.775  12.958
  114W        W72374  14.741  11.406   4.577
  115W        W72375  36.661   3.128  11.248
  116W        W72376  34.078  15.291  11.568
  117W        W72377  36.567  12.654   0.715
  118W        W72378  18.239  22.807  10.875
  119W        W72379  11.287  28.068  14.889
  120W        W72380  16.174  11.795   4.525
  121W        W72381  13.564  28.962  12.933
  122W        W72382  17.845  35.944  13.461
  123W        W72383  44.090   2.859  10.353
  124W        W72384   4.715  25.254   5.178
  125W        W72385  25.132  26.190  13.267
  126W        W72386  13.304   2.464  12.088
  127W        W72387  17.273  10.307  10.573
  128W        W72388  20.600   5.731  13.998
  129W        W72389   6.983   5.762  11.505
  130W        W72390  40.356  12.686  11.026
  131W        W72391  39.986  35.779   1.035
  132W        W72392   5.699  43.160  12.419
  133W        W72393  15.771  36.888   1.252
  134W        W72394  19.958   0.332  12.163
  135W        W72395  39.174  26.435  10.054
  136W        W72396  24.067  23.875   3.293
  137W        W72397   9.909  21.606  11.221
  138W        W72398   6.265   0.492   1.236
  139W        W72399  28.686  29.926  10.622
  140W        W72400  41.949  36.686  11.182
  141W        W72401  33.992  28.977   4.753
  142W        W72402  31.486  30.537   2.997
  143W        W72403   6.965  10.588   4.950
  144W        W72404  44.829  39.287  14.322
  145W        W72405  15.658  25.634   1.025
  146W        W72406   4.004  42.297  12.550
  147W        W72407   9.508  29.616   3.493
  148W        W72408  24.492  13.167  10.993
  149W        W72409  36.266  34.265   2.738
  150W        W72410  39.807  27.590   4.564
  151W        W72411   7.270  33.629  14.020
  152W        W72412  26.554   0.081  12.371
  153W        W72413  25.031   0.829   1.030
  154W        W72414  33.776  41.016  10.923
  155W        W72415  21.995  14.051  11.971
  156W        W72416  13.534   6.987  14.676
  157W        W72417  37.799  18.831   2.223
  158W        W72418   5.274  41.254   1.938
  159W        W72419   9.228  38.389  11.996
  160W        W72420  37.062   4.440  12.495
  161W        W72421  28.667  40.573   2.698
  162W        W72422  24.712  27.906  11.714
  163W        W72423   4.428   9.294  10.666
  164W        W72424  25.088  30.980   0.479
  165W        W72425   0.792   1.302   2.279
  166W        W72426  26.028  41.267  11.533
  167W        W72427  17.201  18.181  14.001
  168W        W72428   6.731  38.545  11.941
  169W        W72429  25.048   7.856  14.763
  170W        W72430  15.101  43.498  14.290
  171W        W72431  33.618  41.266  12.748
  172W        W72432  15.535  28.459   4.702
  173W        W72433  33.266  13.622  11.575
  174W        W72434  14.031  10.476   0.325
  175W        W72435  28.225  22.738   4.879
  176W        W72436  35.992   1.811   0.763
  177W        W72437   8.406  14.694  11.208
  178W        W72438  32.428  41.461  10.803
  179W        W72439   2.239  20.532  12.877
  180W        W72440  28.554  11.717  10.707
  181W        W72441  24.826  19.125   4.797
  182W        W72442  12.426   5.467   3.719
  183W        W72443  20.839   8.101  10.599
  184W        W72444  39.436  28.164   2.019
  185W        W72445   8.683  18.535  11.191
  186W        W72446  41.641  42.862   4.589
  187W        W72447  39.077  11.462   2.815
  188W        W72448   8.230  17.192   4.328
  189W        W72449   7.842  11.910   0.830
  190W        W72450  18.071  15.759   3.217
  191W        W72451   4.005  40.843   1.728
  192W        W72452  11.222  12.105   2.158
  193W        W72453   0.519  42.510  12.921
  194W        W72454  34.044  24.674  14.075
  195W        W72455  13.986  32.062   1.794
  196W        W72456   9.247  24.079  12.422
  197W        W72457  30.899  41.298  13.488
  198W        W72458  11.325  36.112   1.309
  199W        W72459  18.096   2.900  13.544
  200W        W72460  10.565  14.493   1.745
  201W        W72461  23.009  15.437  14.984
  202W        W72462  15.858  38.434   3.711
  203W        W72463   7.172   9.368   1.396
  204W        W72464  29.661  36.332   2.311
  205W        W72465   6.275  23.947  13.548
  206W        W72466  19.532  14.764  13.848
  207W        W72467  18.616  30.174   1.755
  208W        W72468   0.010  38.423  14.020
  209W        W72469  42.301  33.968   4.053
  210W        W72470  38.492   1.318   1.010
  211W        W72471  24.998  14.069   1.668
  212W        W72472  41.361  19.662   4.703
  213W        W72473  40.219   1.706  11.474
  214W        W72474  29.060  18.284  12.382
  215W        W72475  42.271  18.651   0.922
  216W        W72476  19.273   2.154  13.229
  217W        W72477  42.426  10.913   0.791
  218W        W72478  28.061  17.210  10.610
  219W        W72479   8.446  20.777   3.151
  220W        W72480  43.092   2.980  13.386
  221W        W72481  24.556   4.202   3.705
  222W        W72482  37.110   5.845   2.166
  223W        W72483   9.129  37.515  11.184
  224W        W72484  23.972   9.827  14.853
  225W        W72485  41.382  22.346   3.012
  226W        W72486  20.776  30.528  11.849
  227W        W72487  11.803  43.922   4.328
  228W        W72488  36.451  11.680  14.767
  229W        W72489  33.996  43.379   2.395
  230W        W72490  41.210  20.553   4.122
  231W        W72491  29.342  26.455  12.815
  232W        W72492   1.481   1.766  11.873
  233W        W72493   6.225  15.352  14.230
  234W        W72494  40.771   3.704  14.821
  235W        W72495  32.361  18.298  14.776
  236W        W72496  14.002   5.813   3.207
  237W        W72497  22.664  16.726  11.509
  238W        W72498  20.605  39.792  14.442
  239W        W72499  13.568   7.703  11.111
  240W        W72500  24.001  26.502   1.752
  241W        W72501   0.210  34.489  10.785
  242W        W72502  18.287   4.437   4.096
  243W        W72503  35.982  25.981   1.765
  244W        W72504  35.433  10.306  11.719
  245W        W72505  39.494  16.598   1.662
  246W        W72506  38.176  16.066  13.842
  247W        W72507  26.868  14.112   4.043
  248W        W72508  28.196  39.534  12.898
  249W        W72509  38.880   3.760   2.272
  250W        W72510   6.426  18.312   3.514
  251W        W72511   2.259  27.138   0.951
  252W        W72512  22.975   5.705  13.507
  253W        W72513  16.570  23.014   3.319
  254W        W72514  34.322  12.988   4.058
  255W        W72515   7.360  40.390   3.680
  256W        W72516   7.750  34.802  14.332
  257W        W72517  19.506  14.787  14.845
  258W        W72518  22.301  31.046   3.753
  259W        W72519  43.972  14.259   0.440
  260W        W72520  41.982  42.721  12.847
  261W        W72521   4.666   4.353  12.630
  262W        W72522   9.660  24.657   1.322
  263W        W72523  33.566  26.401  12.868
  264W        W72524  30.229  25.644   3.265
  265W        W72525  11.200  12.020  14.811
  266W        W72526   9.341   8.819  12.871
  267W        W72527  33.320  15.698  14.891
  268W        W72528  25.213  10.300  11.127
  269W        W72529  21.663  41.871  14.987
  270W        W72530  24.708  41.005   1.833
  271W        W72531  36.431  20.309  10.975
  272W        W72532  26.708  33.026  14.351
  273W        W72533  20.261  38.401   2.680
  274W        W72534   6.693  32.143   2.016
  275W        W72535  31.971  29.915  11.555
  276W        W72536  21.704  18.552   0.507
  277W        W72537  32.860   4.839  11.529
  278W        W72538  32.149  37.625   0.330
  279W        W72539  26.000  24.039   1.418
  280W        W72540  44.097  25.089  10.937
  281W        W72541  13.237  43.268   0.027
  282W        W72542  30.540  44.429   4.661
  283W        W72543  43.712  35.886  14.326
  284W        W72544  43.889  34.226  12.544
  285W        W72545  40.758   3.167  14.122
  286W        W72546   3.922  39.841  11.647
  287W        W72547   2.743  27.516   4.467
  288W        W72548  42.465   2.838   2.924
  289W        W72549  39.802  12.116  14.476
  290W        W72550  29.617   9.782  14.494
  291W        W72551   2.042  43.560   1.906
  292W        W72552  31.985  24.461  12.817
  293W        W72553  37.232  42.806  14.030
  294W        W72554  21.722  32.903  12.882
  295W        W72555  31.121   2.236   0.606
  296W        W72556  34.831  20.127   0.719
  297W        W72557  13.193   7.521   3.573
  298W        W72558  10.844  10.777  13.420
  299W        W72559  24.332  17.648  11.728
  300W        W72560   9.569   2.465   0.417
  301W        W72561  33.011  16.553  11.029
  302W        W72562   3.923  37.750   4.039
  303W        W72563   2.389   2.334   1.304
  304W        W72564  40.749   8.613  14.679
  305W        W72565  21.106  17.108   2.236
  306W        W72566  36.885  40.767   2.077
  307W        W72567  36.055  20.918  14.517
  308W        W72568  24.089  31.663  12.833
  309W        W72569  43.376  38.325  10.363
  310W        W72570  12.837  43.048   0.831
  311W        W72571  30.132  40.463   0.889
  312W        W72572  11.318   0.759  14.814
  313W        W72573  20.929  19.946   1.418
  314W        W72574   1.796  26.411  12.406
  315W        W72575  23.546   6.345   0.572
  316W        W72576  37.176  42.528  13.413
  317W        W72577  41.864  16.135   0.468
  318W        W72578  22.441  14.303   4.985
  319W        W72579  19.066   2.844   4.512
  320W        W72580  12.775  35.689   1.716
  321W        W72581   3.723  38.064  13.619
  322W        W72582   6.661  42.726   2.828
  323W        W72583  43.787   9.870  11.036
  324W        W72584  15.306  10.162  11.954
  325W        W72585  36.406  38.645   0.405
  326W        W72586  22.663  26.423  12.955
  327W        W72587  33.878  18.965  10.147
  328W        W72588  15.208  20.614   4.532
  329W        W72589  10.836  16.683   1.645
  330W        W72590  41.933  21.988   0.253
  331W        W72591  42.358  18.393   0.469
  332W        W72592  29.986  26.653   3.238
  333W        W72593   1.672  11.404  13.120
  334W        W72594  25.698  25.914   2.448
  335W        W72595  38.279  41.481   0.866
  336W        W72596   0.013   1.015  13.365
  337W        W72597  33.692  44.375   2.472
  338W        W72598  11.113   9.629  12.754
  339W        W72599  34.405   4.349  12.517
  340W        W72600  31.720   7.949   4.971
  341W        W72601   5.972  37.320  12.487
  342W        W72602  26.736  20.177  11.850
  343W        W72603  35.433  10.359  10.419
  344W        W72604   4.741   2.959   2.448
  345W        W72605   4.761  42.418   4.752
  346W        W72606  29.989  12.834  14.944
  347W        W72607   9.691  16.881   2.738
  348W        W72608  11.175  34.200   3.904
  349W        W72609  38.332   7.711  14.322
  350W        W72610  27.496  44.944  10.912
  351W        W72611  13.859   7.790   1.968
  352W        W72612  20.565  39.580   1.792
  353W        W72613  27.966  27.347  13.490
  354W        W72614  39.996  38.013   2.648
  355W        W72615  40.642  37.366   2.323
  356W        W72616  43.715  27.562   3.605
  357W        W72617  37.989  42.932  14.485
  358W        W72618  16.425   0.253   4.910
  359W        W72619   9.155  17.031  10.712
  360W        W72620  37.381  20.376  14.822
  361W        W72621  42.212   9.815  12.799
  362W        W72622  28.820  14.957  11.223
  363W        W72623  42.113   4.726  14.814
  364W        W72624  28.451  34.774  12.944
  365W        W72625  10.425  20.681  13.523
  366W        W72626  35.076  34.319   3.282
  367W        W72627   2.064   6.451   4.206
  368W        W72628  43.752  43.262  14.505
  369W        W72629   9.747   4.725   1.324
  370W        W72630  37.597  12.215  13.568
  371W        W72631  28.563   8.795  10.689
  372W        W72632   1.425  31.861   1.825
  373W        W72633  11.999   3.259  11.524
  374W        W72634  39.326  34.556  14.316
  375W        W72635   5.642   1.333   1.279
  376W        W72636  19.745  25.369  12.511
  377W        W72637  12.421  31.070   3.656
  378W        W72638  30.763  31.516   0.943
  379W        W72639   3.567  37.378   1.139
  380W        W72640  18.789  44.172  12.800
  381W        W72641  34.841   6.391  13.034
  382W        W72642  26.157  41.977   1.941
  383W        W72643  19.837   8.393   0.331
  384W        W72644  40.590  44.330   2.748
  385W        W72645  26.951   1.553   0.728
  386W        W72646  43.246  12.651  11.026
  387W        W72647  31.083  44.295   3.130
  388W        W72648   3.731   9.945  13.815
  389W        W72649  22.552  30.055   4.275
  390W        W72650  15.925  34.065   0.312
  391W        W72651  13.047  24.151   4.944
  392W        W72652  31.945  29.910   3.780
  393W        W72653  11.856  31.588   2.646
  394W        W72654  16.084  24.179  13.356
  395W        W72655  22.073  38.929  12.956
  396W        W72656  14.181  11.621   2.723
  397W        W72657   5.280  16.765  12.062
  398W        W72658  40.346  13.194  11.680
  399W        W72659  12.377  39.928  12.910
  400W        W72660   9.573   5.822   4.776
  401W        W72661  43.500  38.198   1.430
  402W        W72662   2.840  26.173   4.574
  403W        W72663  17.054   6.818  10.281
  404W        W72664  41.295  33.280  12.100
  405W        W72665  29.524   3.956  11.104
  406W        W72666  40.449  37.493   4.072
  407W        W72667  44.456  15.544  11.012
  408W        W72668   8.302  38.427  13.909
  409W        W72669  12.239  31.745   1.391
  410W        W72670  42.727  25.141  12.510
  411W        W72671  31.908   9.220  12.983
  412W        W72672  40.412  16.750  12.600
  413W        W72673  24.936  23.179  12.110
  414W        W72674   8.844  16.491   0.898
  415W        W72675  17.602  36.959  10.864
  416W        W72676   3.337   3.440   0.894
  417W        W72677  33.479  43.740  11.958
  418W        W72678  39.173  14.334  14.388
  419W        W72679  25.879   4.490   3.821
  420W        W72680  38.194  32.205  14.018
  421W        W72681   2.329   6.378  12.404
  422W        W72682  27.734   1.490  11.702
  423W        W72683  24.994  26.153  10.982
  424W        W72684  38.990   2.420   0.479
  425W        W72685  43.976  36.311  13.437
  426W        W72686  26.322  38.311   2.218
  427W        W72687  16.715   0.018   2.935
  428W        W72688  19.056  27.534  13.054
  429W        W72689  31.946  35.705  13.343
  430W        W72690  10.630  31.190  14.425
  431W        W72691  22.541   8.059   0.613
  432W        W72692  25.877  26.265   2.779
  433W        W72693  22.043   2.662   0.884
  434W        W72694   5.257   8.596  11.468
  435W        W72695   0.289  30.166   1.737
  436W        W72696  16.724  41.894   2.786
  437W        W72697  10.363  31.646  14.409
  438W        W72698   9.222  40.390   2.378
  439W        W72699  11.573  11.312  11.252
  440W        W72700   2.083   7.756   4.450
  441W        W72701  12.505  44.765   4.101
  442W        W72702  34.397   1.359   3.776
  443W        W72703  21.274  44.004   0.498
  444W        W72704  28.162  15.092   2.011
  445W        W72705  13.181  33.408  11.613
  446W        W72706   9.996  15.406  14.802
  447W        W72707   1.495   7.282   2.013
  448W        W72708  17.050  17.694   1.229
  449W        W72709  39.860  34.661  11.198
  450W        W72710  30.115  35.995  12.065
  451W        W72711   9.944  28.667  13.605
  452W        W72712  16.107  39.745   4.092
  453W        W72713  21.507   6.864   3.455
  454W        W72714   1.432  35.639   1.295
  455W        W72715  44.340  34.533  12.534
  456W        W72716  38.775  12.309   1.232
  457W        W72717  15.712  32.514   1.152
  458W        W72718  39.287   0.517  13.356
  459W        W72719   2.298   8.148   4.197
  460W        W72720  41.359   1.979   1.209
  461W        W72721  39.501  12.123  13.339
  462W        W72722  10.906  38.464  13.973
  463W        W72723  14.767   4.795  13.610
  464W        W72724  19.785   8.010   5.445
  465W        W72725  28.110  33.685   0.325
  466W        W72726  33.462  20.834   3.840
  467W        W72727  23.532  33.529  11.153
  468W        W72728  35.504  18.516   1.449
  469W        W72729  42.924  25.741  14.891
  470W        W72730  11.294  40.955   3.727
  471W        W72731  12.540  13.861   1.425
  472W        W72732  15.149  14.238  11.442
  473W        W72733  44.960  26.612   3.282
  474W        W72734  24.493  43.862  14.235
  475W        W72735   3.357  28.505   0.573
  476W        W72736  10.537  37.388  12.587
  477W        W72737  27.047  40.077   4.528
  478W        W72738  39.282  37.380  12.832
  479W        W72739  27.461  19.864  11.152
  480W        W72740  35.239   4.903  12.658
  481W        W72741   6.155  22.003   4.671
  482W        W72742  24.546  15.171  12.342
  483W        W72743  44.202  23.915  14.881
  484W        W72744  35.973  37.351   0.916
  485W        W72745  17.595   7.006  11.494
  486W        W72746  18.572  30.469  11.665
  487W        W72747  43.106  39.709  13.318
  488W        W72748  41.857   1.192   2.866
  489W        W72749  38.861  16.783   0.774
  490W        W72750  36.794  43.053  11.702
  491W        W72751   9.887  11.920  10.556
  492W        W72752  33.525  21.161  11.494
  493W        W72753  29.051  12.387   2.091
  494W        W72754  21.724  28.079   1.504
  495W        W72755  39.038  30.303  12.591
  496W        W72756  42.060  44.421   1.684
  497W        W72757  36.170   5.188   2.971
  498W        W72758  29.467   6.118  11.522
  499W        W72759  10.901  17.218  12.398
  500W        W72760  26.610  27.900   5.088
  501W        W72761  31.602  30.426  13.518
  502W        W72762  35.893  41.553   1.747
  503W        W72763  21.706  33.889   2.980
  504W        W72764  40.216  37.836  13.544
  505W        W72765   4.803  41.948  14.945
  506W        W72766  24.480  21.624   2.900
  507W        W72767   3.431  13.257   3.130
  508W        W72768   7.209   9.114  12.395
  509W        W72769  31.039  33.068  14.296
  510W        W72770  31.343  32.549   2.247
  511W        W72771  29.017  33.897   0.711
  512W        W72772  35.470  28.322  14.382
  513W        W72773  36.574   6.184   1.678
  514W        W72774  14.122   6.846   3.157
  515W        W72775  35.152  32.135  12.949
  516W        W72776  30.694  43.743   4.292
  517W        W72777   6.449  37.965   4.147
  518W        W72778  24.803   8.535   1.914
  519W        W72779  13.763  34.134   3.398
  520W        W72780  43.948  39.589  14.780
  521W        W72781  11.339  25.042   1.330
  522W        W72782  13.705  38.002   2.419
  523W        W72783  27.775  37.613  13.025
  524W        W72784  28.065  12.387  13.964
  525W        W72785   0.322  25.683  10.722
  526W        W72786  16.160  10.005   1.378
  527W        W72787   0.516   3.766  10.729
  528W        W72788  44.524  42.420  11.856
  529W        W72789   4.896  38.594  13.258
  530W        W72790   6.867   8.201   1.781
  531W        W72791  44.638  42.991  11.143
  532W        W72792  30.146   7.256  13.841
  533W        W72793  26.440   1.488  14.937
  534W        W72794   4.479  41.364   2.360
  535W        W72795   5.632  19.812   2.703
  536W        W72796   6.996   9.926  14.039
  537W        W72797  13.892  28.580   3.217
  538W        W72798  15.757   8.830   0.926
  539W        W72799  39.355  15.765   3.276
  540W        W72800  23.002  31.051   1.237
  541W        W72801  36.383   9.862   3.277
  542W        W72802  43.390  29.519   2.438
  543W        W72803  36.603  19.554   2.465
  544W        W72804  35.471   8.192  14.816
  545W        W72805  20.659  28.675  11.595
  546W        W72806   2.860  38.520  12.611
  547W        W72807  31.233   9.646  14.064
  548W        W72808   2.735  24.155   2.678
  549W        W72809  43.322  34.947   0.466
  550W        W72810  30.850  17.433  10.076
  551W        W72811  12.713  20.655   1.553
  552W        W72812  42.018  30.816   4.829
  553W        W72813  33.868  40.272   4.568
  554W        W72814  15.724  36.134  14.722
  555W        W72815  14.880   6.685   1.306
  556W        W72816  38.339  22.158   1.837
  557W        W72817  12.112  18.141  11.182
  558W        W72818  27.434   7.138  11.343
  559W        W72819  41.777   5.773   2.745
  560W        W72820  34.718  29.458   2.155
  561W        W72821   9.382   6.777   1.849
  562W        W72822  40.004  15.114  13.177
  563W        W72823  22.089  27.967   4.744
  564W        W72824  24.558  13.465   0.467
  565W        W72825  28.071   2.348   0.375
  566W        W72826   1.781  35.487  10.643
  567W        W72827   9.045  20.106  13.484
  568W        W72828  19.150  31.731   3.291
  569W        W72829  36.235  42.523   3.936
  570W        W72830   0.560  13.371   0.631
  571W        W72831  30.114  44.289   0.769
  572W        W72832  32.873  34.503  10.957
  573W        W72833   8.209  18.226  13.479
  574W        W72834  18.828  36.013   2.163
  575W        W72835  42.430  31.093  13.875
  576W        W72836  41.153  34.128   0.762
  577W        W72837  23.957   4.926  12.453
  578W        W72838   5.995  16.325  14.978
  579W        W72839  33.511   1.326  12.033
  580W        W72840   2.369  29.478   1.240
  581W        W72841  18.212   1.945  14.718
  582W        W72842  38.375  31.831  10.763
  583W        W72843   2.992  17.672   0.797
  584W        W72844  41.012  22.204  11.872
  585W        W72845  19.652  40.888  13.946
  586W        W72846  22.226  16.008  12.066
  587W        W72847  41.230   8.994  14.742
  588W        W72848   9.694  32.956  10.820
  589W        W72849  30.634  15.703   2.887
  590W        W72850  28.438  19.175  13.818
  591W        W72851  23.177   4.870   2.199
  592W        W72852  13.303  29.093   2.790
  593W        W72853  23.223  24.750   3.291
  594W        W72854  17.310   4.109  11.719
  595W        W72855  14.462   7.568   0.020
  596W        W72856   9.122   0.920  13.453
  597W        W72857  29.870  16.885   3.306
  598W        W72858  35.596  23.192   1.803
  599W        W72859  10.725  14.831   3.097
  600W        W72860   7.575   4.691   0.274
  601W        W72861  29.472  22.500   2.310
  602W        W72862  16.303  30.051  14.527
  603W        W72863  16.645  31.320  12.069
  604W        W72864  23.112  19.012  11.529
  605W        W72865   5.351  34.422  13.004
  606W        W72866  43.747  42.197  11.161
  607W        W72867   6.521  29.915  14.355
  608W        W72868  18.667  21.891  10.962
  609W        W72869  25.617  42.969  11.695
  610W        W72870  20.997   0.431   3.606
  611W        W72871  11.214   6.122   4.008
  612W        W72872  14.251   5.623  14.276
  613W        W72873  29.117  10.937  11.104
  614W        W72874  27.096  37.618   1.235
  615W        W72875  33.631  41.863  14.389
  616W        W72876  10.825  24.570   1.012
  617W        W72877  18.154  37.282  13.499
  618W        W72878  19.552   7.207  14.431
  619W        W72879  18.209  34.319   2.281
  620W        W72880  26.245  25.025   4.873
  621W        W72881  33.579  29.932   4.339
  622W        W72882  35.275  34.960  13.089
  623W        W72883  38.082  38.350  10.530
  624W        W72884  35.420   8.331  12.537
  625W        W72885  28.449  25.676  14.470
  626W        W72886   0.015   7.663   3.253
  627W        W72887  22.484  31.549  14.029
  628W        W72888  10.255  41.955   0.875
  629W        W72889   7.974  20.525  12.286
  630W        W72890   8.636  41.355  14.433
  631W        W72891  22.565  32.552   3.704
  632W        W72892  31.047   5.490   2.577
  633W        W72893  10.850   7.904  10.738
  634W        W72894   2.310  31.529   0.334
  635W        W72895  14.474  16.177   0.214
  636W        W72896   2.272   1.251  12.847
  637W        W72897  11.386  27.415   3.168
  638W        W72898  35.987  33.136   3.756
  639W        W72899  26.338  34.275  14.985
  640W        W72900  39.322   8.109  12.340
  641W        W72901  40.686  22.564   1.399
  642W        W72902   8.931   4.660  14.972
  643W        W72903  42.543  14.849  11.920
  644W        W72904  43.282  14.738   0.768
  645W        W72905  44.777  39.171   2.307
  646W        W72906  38.433  41.039   4.495
  647W        W72907  11.655  10.614  10.702
  648W        W72908  24.524   1.945  10.514
  649W        W72909  24.052  19.302   2.774
  650W        W72910  24.578   5.311  10.768
  651W        W72911  28.846   9.819  14.897
  652W        W72912  34.038  40.128   4.106
  653W        W72913   1.654  36.521  13.290
  654W        W72914  41.532  26.776  13.724
  655W        W72915  39.899  28.108  14.107
  656W        W72916  21.212  24.548  14.511
  657W        W72917  42.443  27.208  13.552
  658W        W72918  23.696  41.599  11.658
  659W        W72919  28.592  18.404  12.065
  660W        W72920  37.790  19.081   1.166
  661W        W72921   0.908  29.842  14.960
  662W        W72922  16.027  12.316   2.917
  663W        W72923  25.165  40.045  12.098
  664W        W72924  28.378  17.131  12.421
  665W        W72925  20.155   0.847   9.958
  666W        W72926  35.898  23.496   1.409
  667W        W72927  17.314  18.537  11.370
  668W        W72928  19.123  22.750   4.528
  669W        W72929  17.617  38.907  13.441
  670W        W72930  13.740   0.949   1.486
  671W        W72931  37.298  44.450   1.798
  672W        W72932  28.881  35.795  12.573
  673W        W72933  41.448  26.058  13.529
  674W        W72934  42.955  40.536  14.518
  675W        W72935  11.445  12.379   1.133
  676W        W72936  30.491   4.277   4.120
  677W        W72937  34.507  26.212  12.456
  678W        W72938  36.512   6.153   0.768
  679W        W72939   1.596  25.120  11.578
  680W        W72940  32.579   8.596   3.822
  681W        W72941   2.821  25.005   2.923
  682W        W72942  11.774  22.635   2.648
  683W        W72943  31.696   1.237   4.668
  684W        W72944  32.403  26.553  10.712
  685W        W72945  40.046  42.268   4.159
  686W        W72946  17.828  41.324   0.020
  687W        W72947  38.094   9.252  11.523
  688W        W72948  26.008  11.843  11.205
  689W        W72949  23.583  23.592   1.194
  690W        W72950   9.155   7.729   0.858
  691W        W72951  24.088  28.371  12.197
  692W        W72952  42.375  39.020  12.618
  693W        W72953  35.360  21.301  10.169
  694W        W72954  28.944  17.266  13.363
  695W        W72955  14.351  22.329   3.544
  696W        W72956  19.881  34.761   5.093
  697W        W72957  24.334  19.356   1.392
  698W        W72958   6.211  42.894  11.829
  699W        W72959  21.075  27.569   3.582
  700W        W72960   6.140   8.654   9.869
  701W        W72961  43.401  39.292  13.476
  702W        W72962  17.715  10.701   2.208
  703W        W72963  36.928  44.854  14.467
  704W        W72964  25.562  26.641   0.907
  705W        W72965  17.543  39.423  13.396
  706W        W72966  26.510  16.807   0.700
  707W        W72967  30.069  21.566   0.264
  708W        W72968  31.986  15.116  14.821
  709W        W72969   3.834  35.582  14.199
  710W        W72970  35.230   1.346   4.049
  711W        W72971  28.083  15.533   2.487
  712W        W72972  40.819  21.586   2.471
  713W        W72973  41.080  13.202   2.780
  714W        W72974  44.940  27.009  10.365
  715W        W72975   2.217  26.454   2.088
  716W        W72976  30.365  19.708   4.583
  717W        W72977  15.276  23.559   1.268
  718W        W72978  35.835  25.580  14.859
  719W        W72979   9.277  11.305   2.857
  720W        W72980   1.424  15.839  11.497
  721W        W72981   1.200  38.319   1.750
  722W        W72982  31.168  29.164   0.471
  723W        W72983  19.035   7.350  11.062
  724W        W72984  10.251  21.239  11.121
  725W        W72985   8.302  30.592   0.476
  726W        W72986  32.008  25.640   1.740
  727W        W72987   5.155  21.229   5.120
  728W        W72988  26.911  40.329   2.615
  729W        W72989   9.093  19.685   2.098
  730W        W72990  21.468  12.668   3.040
  731W        W72991  13.646  16.051   5.102
  732W        W72992  23.519  29.140   1.218
  733W        W72993  10.260  15.484   2.050
  734W        W72994   3.768   1.477  11.642
  735W        W72995  41.266  15.266  12.538
  736W        W72996   8.774  35.552  12.645
  737W        W72997  17.660   6.113  13.542
  738W        W72998   5.436  28.992   2.412
  739W        W72999  13.804  37.433   1.252
  740W        W73000  19.647  20.422  10.869
  741W        W73001  43.278  23.962  14.827
  742W        W73002  40.423  39.190  13.536
  743W        W73003  17.230  41.758   4.002
  744W        W73004   2.987  14.744   4.679
  745W        W73005  24.005   6.356   0.295
  746W        W73006  43.006  11.481   3.670
  747W        W73007  18.281   2.863   1.249
  748W        W73008  41.488  22.452   1.772
  749W        W73009  39.354  19.584  14.252
  750W        W73010   7.700  18.019  12.153
  751W        W73011  22.175  16.014   4.247
  752W        W73012  12.110  35.205  10.710
  753W        W73013  34.725  22.613  13.973
  754W        W73014  12.793  38.920  13.756
  755W        W73015  43.420  37.650   3.254
  756W        W73016  15.850  26.010  12.814
  757W        W73017  18.970   3.687   4.571
  758W        W73018  43.063  42.774  13.113
  759W        W73019   1.842   6.210   0.975
  760W        W73020  13.546  12.193  11.653
  761W        W73021  24.561  11.822   1.968
  762W        W73022  16.503  44.813  13.901
  763W        W73023  31.402  21.228  10.351
  764W        W73024  12.899  36.023   3.679
  765W        W73025  12.605  35.550  14.508
  766W        W73026  31.928   3.320  12.399
  767W        W73027   7.702   5.963  11.041
  768W        W73028  27.812   2.166   4.258
  769W        W73029  35.174  11.399  12.556
  770W        W73030   0.272  25.640  11.602
  771W        W73031  38.084  20.433  12.104
  772W        W73032  20.611   7.392   9.947
  773W        W73033  36.826  18.976   3.285
  774W        W73034  21.383  24.142   2.837
  775W        W73035  22.769  42.677   2.736
  776W        W73036  31.715  29.091  13.434
  777W        W73037  19.010  36.090  11.394
  778W        W73038  30.215  20.088  13.974
  779W        W73039   1.403  18.739  13.741
  780W        W73040  16.329   6.868   4.188
  781W        W73041  38.387   1.632  13.935
  782W        W73042   3.117  22.148  13.655
  783W        W73043  16.912  28.696  14.929
  784W        W73044  25.589   4.410  10.703
  785W        W73045  14.452  29.994  11.319
  786W        W73046  16.340  22.196   3.941
  787W        W73047  15.373  43.345  13.872
  788W        W73048  39.786  35.178  11.146
  789W        W73049   8.915  22.224   1.739
  790W        W73050  20.503  36.484   1.746
  791W        W73051  37.452  35.014   4.207
  792W        W73052  17.787  20.052  14.518
  793W        W73053   5.404  19.146   0.763
  794W        W73054   9.634  19.718   3.692
  795W        W73055   3.699  40.539   3.215
  796W        W73056  38.126  17.065   2.643
  797W        W73057  44.326  31.026   9.815
  798W        W73058   8.840  38.601  14.766
  799W        W73059  14.312  32.417   3.282
  800W        W73060  36.069  24.998  14.878
  801W        W73061  26.478  28.120   0.540
  802W        W73062  34.083  44.933  14.518
  803W        W73063  27.257  10.685  10.735
  804W        W73064   1.545  25.093   0.926
  805W        W73065  26.605  10.088  13.906
  806W        W73066  15.188   8.460  12.030
  807W        W73067  40.419   3.159   1.911
  808W        W73068   4.996  40.846  11.190
  809W        W73069  21.333   2.122  13.788
  810W        W73070  25.815  37.133   2.890
  811W        W73071  44.474  20.310   3.594
  812W        W73072   5.763  44.744   4.134
  813W        W73073  20.262   6.495  14.946
  814W        W73074  41.989  16.648  13.304
  815W        W73075  28.417   7.842   0.745
  816W        W73076   0.430  22.229  13.317
  817W        W73077  36.613   9.243  11.916
  818W        W73078  42.255  40.828   3.716
  819W        W73079  43.805  40.158   3.435
  820W        W73080  25.913  36.317  13.038
  821W        W73081  12.874  44.524  11.564
  822W        W73082  17.644   0.721   3.859
  823W        W73083   2.337   7.676   0.331
  824W        W73084  37.383  17.406   5.344
  825W        W73085  27.621  32.660   3.578
  826W        W73086  19.074  29.921  13.346
  827W        W73087   4.885  10.076   4.102
  828W        W73088   3.328   0.750   3.506
  829W        W73089   0.861   3.237  12.079
  830W        W73090   9.259  32.096  10.483
  831W        W73091  30.137  42.688  13.357
  832W        W73092  40.987  23.460   4.014
  833W        W73093  36.967  43.398  10.876
  834W        W73094   9.205  32.852  14.452
  835W        W73095   4.922  39.957  10.747
  836W        W73096  43.497  29.018  13.196
  837W        W73097  17.641   0.329   2.173
  838W        W73098  38.188  42.282  11.167
  839W        W73099  21.886   0.897  11.130
  840W        W73100  42.438  11.132   2.712
  841W        W73101  10.383  18.115  13.450
  842W        W73102  42.315  31.926  11.319
  843W        W73103  39.365  22.225  14.219
  844W        W73104   1.604  35.764  14.253
  845W        W73105  29.940  26.637   1.448
  846W        W73106  39.054   4.497   2.413
  847W        W73107   4.279  28.173  12.669
  848W        W73108  39.907  40.184   1.768
  849W        W73109  15.323  21.279  14.335
  850W        W73110  34.600   2.909  14.057
  851W        W73111  43.499  37.523   5.183
  852W        W73112  23.256   6.378   4.964
  853W        W73113  20.325   7.819  14.219
  854W        W73114  14.015  16.754   2.295
  855W        W73115   3.994  21.792   3.796
  856W        W73116   8.672  28.520   1.351
  857W        W73117   1.752  44.807   4.669
  858W        W73118  18.614   7.897   4.214
  859W        W73119   1.395   7.334  12.411
  860W        W73120  38.892   6.823  11.943
  861W        W73121  13.776  27.319  10.236
  862W        W73122  38.866  28.558  13.464
  863W        W73123  10.410  23.284   3.250
  864W        W73124   3.490   9.638  12.529
  865W        W73125  22.343  12.594  11.051
  866W        W73126   2.932  26.770  11.498
  867W        W73127   6.428  10.562   5.104
  868W        W73128  28.588   0.846   2.716
  869W        W73129  28.599  28.573  14.292
  870W        W73130   5.842  38.394   1.713
  871W        W73131  14.568   9.652   3.320
  872W        W73132  42.420  30.229   4.789
  873W        W73133  18.129  31.801  11.672
  874W        W73134  13.378   4.397  13.370
  875W        W73135  41.305   1.202   2.797
  876W        W73136   8.414  13.305  10.604
  877W        W73137   1.235  23.970  13.538
  878W        W73138  24.096  23.153  11.313
  879W        W73139  37.335  19.013  14.940
  880W        W73140  41.449  34.660  10.798
  881W        W73141  41.284  39.832  14.983
  882W        W73142   7.207  24.084   1.716
  883W        W73143  17.272  33.055   1.963
  884W        W73144   4.296  23.626  11.760
  885W        W73145  28.098  31.893   3.268
  886W        W73146   3.938  43.422   0.495
  887W        W73147  32.050  32.372   2.726
  888W        W73148  17.688  33.518  11.430
  889W        W73149  30.435   6.792   0.947
  890W        W73150  12.360  34.575   3.699
  891W        W73151  10.488  33.052   0.042
  892W        W73152   8.768  39.354  11.258
  893W        W73153  24.669  42.189   5.349
  894W        W73154  12.047  29.409  13.893
  895W        W73155  25.457  25.268  11.023
  896W        W73156  12.200  27.824   4.208
  897W        W73157  33.579  40.521   4.921
  898W        W73158   1.222  26.019  14.880
  899W        W73159   3.324  22.807   3.411
  900W        W73160  21.881  23.090   0.495
  901W        W73161  37.697  29.388  12.956
  902W        W73162  38.656  38.068  12.403
  903W        W73163  16.762  19.803   1.458
  904W        W73164  31.906  12.184  14.448
  905W        W73165  16.065  13.358   1.777
  906W        W73166  34.276  16.707  10.583
  907W        W73167   0.052   5.654  14.778
  908W        W73168  20.141  25.713   1.439
  909W        W73169   0.752  33.464  10.270
  910W        W73170  20.586  26.617   3.590
  911W        W73171  23.159  25.470   1.449
  912W        W73172  40.506  33.046  14.002
  913W        W73173  36.805  29.096  13.049
  914W        W73174  22.131  21.581  14.840
  915W        W73175  27.034  17.263  12.640
  916W        W73176  11.106  15.559  13.460
  917W        W73177  19.691  28.552  12.606
  918W        W73178  31.962  38.523   1.152
  919W        W73179  24.812  42.989  11.962
  920W        W73180  37.972  41.365  14.731
  921W        W73181  18.513  28.541  13.422
  922W        W73182  23.790  19.737   3.687
  923W        W73183  25.611  32.636   4.138
  924W        W73184   9.766  30.536   0.718
  925W        W73185  30.971   2.356   4.104
  926W        W73186  32.384   3.921   2.576
  927W        W73187  16.154  17.117  14.547
  928W        W73188  25.430  37.925   1.418
  929W        W73189  10.752  36.512   3.237
  930W        W73190  42.876  37.420  13.048
  931W        W73191  20.496   7.513   2.804
  932W        W73192  19.310   8.535   0.199
  933W        W73193   0.301  38.430   0.433
  934W        W73194  31.736  43.153   1.962
  935W        W73195  30.425  30.362   3.876
  936W        W73196   8.243  29.490  14.320
  937W        W73197  33.100  41.334  13.927
  938W        W73198  26.908  13.263   4.101
  939W        W73199   4.890  10.076  10.736
  940W        W73200  32.617  34.794  12.099
  941W        W73201  34.987  31.031   1.552
  942W        W73202   0.228  10.129   2.703
  943W        W73203  10.959  31.216  12.400
  944W        W73204  39.862  41.746   3.241
  945W        W73205   7.619  28.205   1.908
  946W        W73206  16.870  23.721  11.329
  947W        W73207  24.145  28.647   3.756
  948W        W73208  10.873   2.422   3.529
  949W        W73209   3.997  14.694  13.493
  950W        W73210  31.719   0.432  12.039
  951W        W73211  28.449  15.852   2.265
  952W        W73212  20.107   8.968   4.115
  953W        W73213  23.497  18.539  13.271
  954W        W73214   6.031  31.594  14.773
  955W        W73215  21.402  11.296  10.666
  956W        W73216  30.058   9.418   2.175
  957W        W73217   6.975  37.822  11.469
  958W        W73218  12.685  33.974   2.360
  959W        W73219  40.970   0.523  11.126
  960W        W73220  32.979  10.422  11.955
  961W        W73221  23.127  30.721  12.864
  962W        W73222  16.225  44.206  10.232
  963W        W73223   3.562  27.789   9.942
  964W        W73224   4.418  44.874   2.284
  965W        W73225  38.222   5.071   0.305
  966W        W73226  35.977   7.654  14.119
  967W        W73227  14.387  30.432  10.285
  968W        W73228  41.540  44.420   0.872
  969W        W73229   7.541  17.723  13.902
  970W        W73230  34.650  35.932   2.766
  971W        W73231  17.041  35.453   2.619
  972W        W73232  40.347  21.881   2.502
  973W        W73233  42.507  29.575   1.606
  974W        W73234  26.382   9.632   3.748
  975W        W73235  21.628  20.521   2.413
  976W        W73236   1.543  42.289   2.869
  977W        W73237  31.848   8.346  13.067
  978W        W73238   3.233  24.424   4.709
  979W        W73239  17.065  33.095  14.772
  980W        W73240  20.836   6.416   0.944
  981W        W73241   1.213  40.852   0.836
  982W        W73242  38.781  13.859   1.733
  983W        W73243  37.296  23.239   2.867
  984W        W73244  15.156  15.044   4.260
  985W        W73245  19.158  25.235   4.511
  986W        W73246  10.200  10.934   0.247
  987W        W73247  33.625  34.965   3.725
  988W        W73248  29.690  39.951  13.852
  989W        W73249   2.473  36.617   4.567
  990W        W73250  31.428  43.027  12.995
  991W        W73251  19.309   0.660   2.240
  992W        W73252  13.688  42.273  11.067
  993W        W73253  42.711  38.080   4.166
  994W        W73254  18.366  28.112   0.490
  995W        W73255  31.194  26.864  12.637
  996W        W73256  34.901  29.657   1.202
  997W        W73257  27.272  44.427  13.877
  998W        W73258  39.528  21.515  11.155
  999W        W73259  23.457  16.728   3.247
 1000W        W73260  11.475  42.805   5.017
 1001W        W73261  18.795  43.834  14.555
 1002W        W73262  36.155  21.631  12.067
 1003W        W73263  10.772   9.473   4.096
 1004W        W73264  37.908  21.006   4.091
 1005W        W73265  42.481   0.651  11.644
 1006W        W73266   1.042  25.399   1.412
 1007W        W73267  33.154  40.309   2.680
 1008W        W73268   9.339  38.094   3.621
 1009W        W73269  16.636  41.502   2.423
 1010W        W73270  38.489  40.406  13.288
 1011W        W73271   5.947  28.615  14.090
 1012W        W73272  29.442  28.444   2.218
 1013W        W73273  36.698  42.890  10.341
 1014W        W73274  16.571  42.529   1.732
 1015W        W73275  28.157  22.638   2.509
 1016W        W73276  10.679  39.044  12.810
 1017W        W73277  27.387  19.276   3.649
 1018W        W73278  20.485  24.741  11.147
 1019W        W73279   1.786  14.875  12.915
 1020W        W73280  12.237  28.609   0.817
 1021W        W73281  13.827  17.436   4.757
 1022W        W73282  14.584  17.547   2.262
 1023W        W73283  30.004  40.841   3.069
 1024W        W73284  15.641  30.589   4.485
 1025W        W73285   6.789  11.463  14.704
 1026W        W73286  21.007  17.343   4.232
 1027W        W73287  19.784  33.915   0.732
 1028W        W73288  25.723  42.688  12.975
 1029W        W73289   5.950  28.885  12.631
 1030W        W73290  40.351   9.119   3.733
 1031W        W73291  34.538  21.302   9.749
 1032W        W73292   3.985  40.897  11.897
 1033W        W73293  39.488  13.870  13.123
 1034W        W73294  27.178  13.241   3.633
 1035W        W73295  12.181   9.544   3.411
 1036W        W73296  19.285  22.115   0.298
 1037W        W73297  43.491  42.756   1.834
 1038W        W73298  42.987  34.938  11.444
 1039W        W73299  40.458  29.377  13.627
 1040W        W73300  17.799  39.325  11.875
 1041W        W73301  11.422   6.397  12.846
 1042W        W73302  28.400  22.240   3.801
 1043W        W73303  13.676  29.470  12.952
 1044W        W73304   5.344  42.772  12.422
 1045W        W73305  42.927  22.036  14.511
 1046W        W73306   2.899  43.709  11.147
 1047W        W73307   9.371   3.411   4.013
 1048W        W73308  15.631  22.954  13.316
 1049W        W73309  36.880  23.810  12.630
 1050W        W73310   9.837  41.200  13.496
 1051W        W73311   2.804  32.207   4.873
 1052W        W73312  27.382   0.944  10.447
 1053W        W73313  13.310  28.945  14.809
 1054W        W73314  29.156  25.424   3.216
 1055W        W73315  24.663  16.924   1.870
 1056W        W73316  16.160  13.092   2.229
 1057W        W73317  13.331  42.374   4.178
 1058W        W73318  17.934  21.038  13.435
 1059W        W73319  15.046   2.658  13.404
 1060W        W73320  32.151  44.015   3.932
 1061W        W73321  40.485  33.336  13.600
 1062W        W73322  37.881  22.153   4.141
 1063W        W73323  42.332   6.390   0.486
 1064W        W73324  24.507  36.809  13.832
 1065W        W73325  13.108  43.456   1.016
 1066W        W73326   8.979  10.673   4.495
 1067W        W73327  43.521   8.161  12.930
 1068W        W73328   9.349  36.062   0.845
 1069W        W73329  16.570  39.895  12.033
 1070W        W73330  33.112  11.132   2.806
 1071W        W73331  25.950  28.008   0.744
 1072W        W73332   1.992  33.428   9.939
 1073W        W73333  44.347  24.521  11.947
 1074W        W73334  34.542  18.644  13.525
 1075W        W73335  13.677  40.698  13.878
 1076W        W73336  35.402  40.319   2.742
 1077W        W73337   0.697  38.861  14.113
 1078W        W73338  35.932  11.089  14.524
 1079W        W73339  38.727  10.900  13.866
 1080W        W73340   6.624  14.628  13.826
 1081W        W73341  37.409   2.714  11.660
 1082W        W73342   0.978  19.331  13.216
 1083W        W73343  28.419   2.489  11.228
 1084W        W73344   4.175  34.433   1.764
 1085W        W73345  38.982  38.907  12.894
 1086W        W73346   1.159  33.265   3.381
 1087W        W73347  19.273  19.058  12.968
 1088W        W73348  26.731  25.206  13.477
 1089W        W73349  27.497  36.300   3.427
 1090W        W73350  31.136  23.604   9.567
 1091W        W73351   5.319   6.218  14.817
 1092W        W73352  18.771  23.566   1.517
 1093W        W73353  20.748  34.917   0.805
 1094W        W73354   4.864  32.157  11.215
 1095W        W73355  38.077  37.020  11.491
 1096W        W73356  16.792  19.451   3.647
 1097W        W73357   2.222  10.100  12.537
 1098W        W73358  28.860  18.808  14.512
 1099W        W73359  26.577  21.594  11.059
 1100W        W73360  19.654   5.643   5.236
 1101W        W73361  40.119   0.796   3.745
 1102W        W73362  16.775  19.421  14.933
 1103W        W73363   5.871  13.329   1.458
 1104W        W73364  19.637  31.037   0.977
 1105W        W73365  25.044  33.111  11.160
 1106W        W73366  33.910  10.538   1.716
 1107W        W73367  40.865  33.390  12.399
 1108W        W73368  30.129   7.162  11.982
 1109W        W73369  42.520   4.705   0.265
 1110W        W73370   8.369   1.712   0.668
 1111W        W73371  26.430  13.260  11.493
 1112W        W73372  38.413  14.346   2.104
 1113W        W73373  38.933  23.213   2.226
 1114W        W73374  10.439  29.266   0.222
 1115W        W73375  11.165  33.117   4.800
 1116W        W73376  28.155   2.189   1.554
 1117W        W73377  24.826   3.679  12.835
 1118W        W73378  44.921  27.126   3.177
 1119W        W73379  40.992  21.449   1.590
 1120W        W73380   6.368  17.521   3.219
 1121W        W73381  18.716   4.495   1.912
 1122W        W73382  31.979  39.861   4.620
 1123W        W73383  33.117  15.863  13.063
 1124W        W73384   9.890   4.400   3.706
 1125W        W73385  19.447   0.778  12.490
 1126W        W73386  27.403  38.550  11.768
 1127W        W73387  14.346   0.501  14.788
 1128W        W73388  40.184  39.786  14.351
 1129W        W73389   8.252  26.528  10.386
 1130W        W73390   6.413   7.705  13.804
 1131W        W73391   3.480   0.939   2.865
 1132W        W73392  42.176   5.069   4.057
 1133W        W73393   0.731  36.890   1.714
 1134W        W73394  41.915  29.705  11.217
 1135W        W73395  12.053   0.160  14.859
 1136W        W73396  24.449   0.124  11.034
 1137W        W73397   0.899  20.752   3.646
 1138W        W73398   1.977  36.809  12.394
 1139W        W73399   2.833   5.140   0.411
 1140W        W73400   8.511   9.144   5.060
 1141W        W73401   3.057  42.820   2.248
 1142W        W73402  21.157   6.711  14.093
 1143W        W73403   3.708  29.882   0.201
 1144W        W73404  43.003  35.330   1.822
 1145W        W73405   1.425  15.962   0.633
 1146W        W73406   0.962  42.817  10.771
 1147W        W73407  42.241  11.545   2.433
 1148W        W73408   3.548  33.568   0.416
 1149W        W73409  42.920  29.876   1.509
 1150W        W73410  10.213  26.416  12.793
 1151W        W73411   2.103  19.075  14.930
 1152W        W73412  34.437  13.637   1.743
 1153W        W73413  26.708  20.283   3.184
 1154W        W73414   4.640   3.911  13.106
 1155W        W73415   2.265   9.471  10.486
 1156W        W73416  18.689  32.558  10.601
 1157W        W73417   3.161   8.490   0.102
 1158W        W73418   7.467  20.199   0.390
 1159W        W73419  16.272  25.566  13.116
 1160W        W73420  32.554   5.162  13.363
 1161W        W73421   4.921  17.236   2.332
 1162W        W73422  32.847  23.740  11.490
 1163W        W73423  18.630  19.665  14.363
 1164W        W73424  18.204  28.171   2.773
 1165W        W73425   3.500  38.835   0.880
 1166W        W73426  42.414   9.631   2.548
 1167W        W73427  20.812  30.464  10.862
 1168W        W73428   2.907   4.487   3.885
 1169W        W73429   0.744   3.291   2.386
 1170W        W73430  24.150  37.379   1.023
 1171W        W73431  34.034  29.659  11.495
 1172W        W73432  15.670  44.915   4.835
 1173W        W73433  41.551  41.411   2.779
 1174W        W73434  30.027   3.233   1.992
 1175W        W73435  28.354  26.708   1.625
 1176W        W73436   8.264  28.970  11.427
 1177W        W73437   9.161  31.134  12.523
 1178W        W73438  38.430   5.091   1.387
 1179W        W73439  43.566   0.783   0.244
 1180W        W73440   7.750  14.695  12.631
 1181W        W73441  15.267   4.908   4.639
 1182W        W73442  23.025  29.393  14.285
 1183W        W73443  13.905  40.291  10.644
 1184W        W73444  42.381   5.168   1.857
 1185W        W73445  22.175  21.308  13.291
 1186W        W73446  19.273   7.882  13.346
 1187W        W73447  38.906  24.038   2.471
 1188W        W73448  35.132  39.398   1.854
 1189W        W73449  35.583  42.014   2.509
 1190W        W73450  19.371  20.453  13.457
 1191W        W73451  21.562  33.558   1.855
 1192W        W73452  12.881  37.372  11.657
 1193W        W73453  31.030   7.994   0.957
 1194W        W73454  38.832  35.318   3.747
 1195W        W73455  19.079  17.952   2.344
 1196W        W73456  26.888   9.700   1.012
 1197W        W73457  20.294  13.286   3.718
 1198W        W73458  39.969   2.329  10.737
 1199W        W73459  16.795  28.024   4.856
 1200W        W73460  26.031  10.456   4.184
 1201W        W73461  22.082  19.036  14.566
 1202W        W73462  42.803  19.333   2.196
 1203W        W73463  24.496  38.051  12.883
 1204W        W73464   6.141  41.454   1.327
 1205W        W73465   7.162  40.763   1.835
 1206W        W73466  20.763   0.684  13.330
 1207W        W73467   0.218  12.149   0.128
 1208W        W73468  36.845  26.488   0.759
 1209W        W73469  20.049  29.128  14.771
 1210W        W73470  20.589  33.289  14.000
 1211W        W73471  35.024  17.692  10.348
 1212W        W73472  29.320  37.332   0.550
 1213W        W73473  26.572  16.265   0.253
 1214W        W73474   9.570  44.591   3.785
 1215W        W73475  26.719  24.945   4.621
 1216W        W73476  31.294  29.369   4.121
 1217W        W73477  44.573  43.443   4.151
 1218W        W73478  44.635  32.786  11.531
 1219W        W73479  25.329  24.103  11.523
 1220W        W73480  23.933  44.900  14.492
 1221W        W73481   5.942  23.759   3.337
 1222W        W73482  16.522  38.460  14.034
 1223W        W73483  11.878   1.905  12.671
 1224W        W73484  34.724  36.074  10.728
 1225W        W73485  22.816  25.738  13.582
 1226W        W73486  30.467  11.183   4.115
 1227W        W73487  16.524  38.534  10.636
 1228W        W73488  42.094  26.313   5.006
 1229W        W73489   3.707  38.232   1.068
 1230W        W73490   2.411  42.819  13.207
 1231W        W73491  37.284   6.351  11.932
 1232W        W73492  29.994  44.806  14.386
 1233W        W73493   4.981   8.663   4.110
 1234W        W73494   0.378  37.054   0.044
 1235W        W73495  43.713  21.828   3.190
 1236W        W73496  37.076   1.826   3.274
 1237W        W73497  22.923  28.995   5.477
 1238W        W73498  33.138  32.737  13.400
 1239W        W73499  14.880   7.394  10.985
 1240W        W73500  44.819  26.687  13.284
 1241W        W73501  21.088  10.263   4.522
 1242W        W73502  25.141  41.799   2.469
 1243W        W73503  21.707  41.681  12.756
 1244W        W73504  34.053   6.881   1.710
 1245W        W73505  17.915   5.820  10.084
 1246W        W73506  32.213  19.350  11.047
 1247W        W73507  31.965  34.798   1.902
 1248W        W73508   2.338  23.683   0.926
 1249W        W73509  21.786  30.161   3.884
 1250W        W73510  36.479  16.374  12.557
 1251W        W73511  22.193  12.112   3.257
 1252W        W73512  10.621  23.693   0.554
 1253W        W73513  27.870  35.979   5.029
 1254W        W73514  23.421  19.076  14.852
 1255W        W73515  23.369  44.828  12.074
 1256W        W73516  35.087  32.142   2.266
 1257W        W73517  21.042  40.777   2.694
 1258W        W73518  32.478   4.756  12.432
 1259W        W73519  21.664  44.823   3.232
 1260W        W73520  23.082   3.362   4.620
 1261W        W73521  35.877  26.129  14.854
 1262W        W73522  21.040  12.876  12.399
 1263W        W73523  33.590   7.951   3.209
 1264W        W73524  26.016  28.599   4.472
 1265W        W73525  13.690  14.142   0.233
 1266W        W73526  43.467   2.995   4.240
 1267W        W73527  22.217  44.373  14.494
 1268W        W73528   6.601  33.325   3.895
 1269W        W73529  15.330   8.698  10.996
 1270W        W73530  28.472  37.227   0.186
 1271W        W73531  23.423  14.242  12.086
 1272W        W73532  31.357  35.144  11.263
 1273W        W73533  40.642  22.265   2.841
 1274W        W73534  27.011  21.864  14.381
 1275W        W73535  19.223  35.838   0.774
 1276W        W73536   0.984  44.488  11.182
 1277W        W73537  13.577  36.025   1.959
 1278W        W73538  44.998  20.588   3.113
 1279W        W73539  15.180  18.172  13.382
 1280W        W73540  17.713  42.751  11.972
 1281W        W73541  35.235   1.001  10.787
 1282W        W73542  23.658   4.046   4.189
 1283W        W73543  26.037  19.305  11.122
 1284W        W73544   3.605  27.304  13.434
 1285W        W73545  32.890  16.064  12.206
 1286W        W73546  17.643  34.220  14.359
 1287W        W73547  27.955   5.061  11.895
 1288W        W73548  38.285  23.720  12.874
 1289W        W73549   7.697  26.123   3.152
 1290W        W73550   1.009   8.915  10.258
 1291W        W73551  25.435  17.838  10.356
 1292W        W73552  29.049   1.408   3.462
 1293W        W73553  40.471  25.919   1.314
 1294W        W73554  34.856  24.568  14.418
 1295W        W73555  26.609  42.475   2.339
 1296W        W73556  33.349  11.876   1.771
 1297W        W73557  40.498   5.404   3.319
 1298W        W73558  41.265  43.016   3.319
 1299W        W73559  11.191  21.055   3.625
 1300W        W73560  24.476   2.364   2.360
 1301W        W73561   9.728   7.675   3.722
 1302W        W73562  19.594  18.223   1.227
 1303W        W73563   0.531  26.777   4.932
 1304W        W73564   2.886   7.426   4.620
 1305W        W73565  10.592  12.441   0.774
 1306W        W73566   2.026   2.817  10.691
 1307W        W73567   9.343  36.883   1.131
 1308W        W73568   6.885  33.883  13.449
 1309W        W73569  32.940  35.128  12.322
 1310W        W73570  10.376  12.887   3.695
 1311W        W73571  16.839  16.733   2.873
 1312W        W73572  40.849  15.142  12.224
 1313W        W73573  35.341  44.812  11.110
 1314W        W73574  11.264  13.833  11.096
 1315W        W73575  43.534  14.114  10.318
 1316W        W73576  18.875  24.052  12.007
 1317W        W73577  26.456   0.345   0.556
 1318W        W73578   5.730  37.542  12.085
 1319W        W73579  20.727  29.935  10.806
 1320W        W73580  29.341  11.972   2.789
 1321W        W73581  15.544  20.167   1.458
 1322W        W73582  18.740  13.280  12.358
 1323W        W73583  32.688   8.315   0.053
 1324W        W73584  33.908  37.432   2.196
 1325W        W73585  16.601  14.660   4.520
 1326W        W73586   4.662  27.862  11.104
 1327W        W73587   2.093  30.149  10.409
 1328W        W73588  33.297  25.451   4.653
 1329W        W73589  37.914   7.221  14.790
 1330W        W73590  22.175   8.727  14.770
 1331W        W73591   7.356  35.006   0.816
 1332W        W73592  23.241  41.060  14.362
 1333W        W73593  32.285  35.158   0.285
 1334W        W73594  10.835  43.841   3.037
 1335W        W73595   9.229   8.762   4.085
 1336W        W73596  21.576  10.899  14.487
 1337W        W73597   5.462  10.698   4.575
 1338W        W73598  34.985  41.723  14.377
 1339W        W73599   1.950  41.085  12.658
 1340W        W73600  25.423   7.215  10.938
 1341W        W73601  30.373  24.107  11.584
 1342W        W73602  11.195  30.081  11.209
 1343W        W73603  16.865  35.431   3.100
 1344W        W73604  19.355  26.905  13.020
 1345W        W73605  40.236   7.843   0.884
 1346W        W73606  36.161  23.299  11.567
 1347W        W73607  25.943  40.031  12.636
 1348W        W73608  19.044  20.241   3.197
 1349W        W73609  29.894  44.108  14.916
 1350W        W73610  17.045   3.285  10.016
 1351W        W73611  27.486  17.126  14.992
 1352W        W73612  33.505  38.175  11.683
 1353W        W73613  32.147  38.411   3.185
 1354W        W73614  19.301   1.734   2.119
 1355W        W73615   9.367  16.909   3.171
 1356W        W73616  14.609  16.534   1.418
 1357W        W73617  19.520  38.390   3.395
 1358W        W73618  18.210   7.636   9.813
 1359W        W73619   8.435  31.677  11.662
 1360W        W73620  37.016  30.221  11.897
 1361W        W73621   6.996  18.775   2.942
 1362W        W73622  12.525  40.480  11.121
 1363W        W73623  15.685  30.820  13.764
 1364W        W73624   5.369  22.586   3.457
 1365W        W73625  20.516   4.253  10.792
 1366W        W73626  34.843  10.100   4.785
 1367W        W73627  24.815  21.056   5.016
 1368W        W73628  32.934  15.582  13.460
 1369W        W73629  36.080  19.161   1.460
 1370W        W73630  24.659  30.463   3.790
 1371W        W73631  26.961  31.388  13.769
 1372W        W73632  19.780  39.908  11.977
 1373W        W73633  35.540   3.475  10.761
 1374W        W73634   0.383  32.904   3.652
 1375W        W73635  28.951  27.121   2.378
 1376W        W73636  43.003   4.077   0.939
 1377W        W73637  16.637   7.185   0.450
 1378W        W73638  37.391  11.946   2.141
 1379W        W73639  30.611  23.051  14.008
 1380W        W73640  44.452   8.857   3.369
 1381W        W73641   2.036  31.021   1.491
 1382W        W73642  37.381  34.314   1.398
 1383W        W73643  15.616  40.947   2.214
 1384W        W73644   3.513  39.452  14.754
 1385W        W73645  36.379   5.162  14.970
 1386W        W73646   3.806  29.494  11.508
 1387W        W73647   5.367   1.229  13.055
 1388W        W73648  10.697   1.738  13.776
 1389W        W73649  22.071  28.826  14.816
 1390W        W73650   4.259   4.006  12.764
 1391W        W73651   9.660  26.373  14.866
 1392W        W73652  12.678  30.203  13.884
 1393W        W73653  17.026  24.366   4.546
 1394W        W73654  23.063  18.867   2.662
 1395W        W73655  18.026  42.221  12.569
 1396W        W73656  31.994  37.438  12.109
 1397W        W73657  18.450   2.954   0.404
 1398W        W73658  44.452  20.035   0.289
 1399W        W73659  38.774  29.953   1.674
 1400W        W73660   0.722  29.392  13.492
 1401W        W73661  31.894  34.575  11.959
 1402W        W73662  24.074  28.931  13.536
 1403W        W73663  32.650  13.849  11.045
 1404W        W73664  20.266  35.656   0.309
 1405W        W73665  14.694  39.957   1.859
 1406W        W73666   5.410   8.594  12.154
 1407W        W73667  26.427  41.278   1.297
 1408W        W73668  27.472  40.589  13.809
 1409W        W73669   9.652  27.798   5.048
 1410W        W73670   8.811   6.725  11.321
 1411W        W73671  17.374  12.338   9.756
 1412W        W73672  24.097  44.395  12.901
 1413W        W73673  17.310   8.154  10.241
 1414W        W73674  43.003  42.410   3.141
 1415W        W73675  26.062   9.341   2.216
 1416W        W73676   0.566   8.483   0.695
 1417W        W73677   0.323  34.405   3.648
 1418W        W73678  16.243   8.899   4.060
 1419W        W73679  39.976  40.952   4.820
 1420W        W73680   5.298  38.360  11.112
 1421W        W73681   8.868  26.232  13.089
 1422W        W73682   3.508  17.005   2.360
 1423W        W73683   1.465  18.205   0.312
 1424W        W73684  19.694  43.442   4.448
 1425W        W73685  15.575  41.480   1.661
 1426W        W73686  40.731  25.750   0.019
 1427W        W73687  21.415  43.300   3.095
 1428W        W73688  38.999   0.798   3.802
 1429W        W73689  35.567  34.452  14.533
 1430W        W73690  34.940   4.247   0.228
 1431W        W73691  36.956  36.991   4.662
 1432W        W73692  14.066  38.952  14.370
 1433W        W73693  24.243  34.325   0.812
 1434W        W73694  29.540  31.574  14.535
 1435W        W73695  28.078  17.259   1.810
 1436W        W73696  42.729  37.039  13.831
 1437W        W73697  29.607   5.232   0.803
 1438W        W73698  15.016  10.418  11.580
 1439W        W73699  41.939  18.796  12.826
 1440W        W73700  20.645  33.506  10.535
 1441W        W73701  34.628  30.032  12.449
 1442W        W73702  40.537   8.285  12.045
 1443W        W73703   7.697   6.251  11.468
 1444W        W73704  31.646   1.970  13.067
 1445W        W73705  29.506  21.552   3.299
 1446W        W73706   1.230  15.654   1.611
 1447W        W73707  17.687  17.514  13.795
 1448W        W73708  18.102   1.773   4.288
 1449W        W73709  15.762  19.782   4.611
 1450W        W73710  26.154  24.804   0.612
 1451W        W73711  30.062   8.002  10.713
 1452W        W73712   4.980  39.366  12.966
 1453W        W73713  31.254  36.851  12.079
 1454W        W73714  40.025  42.082  11.119
 1455W        W73715  19.483  13.111   4.741
 1456W        W73716  10.713  41.871  13.524
 1457W        W73717  21.548  17.097  12.146
 1458W        W73718  11.723  11.137  10.756
 1459W        W73719  23.647  44.225  14.920
 1460W        W73720   0.700  20.918  11.130
 1461W        W73721   8.772  10.767  10.427
 1462W        W73722   2.821  42.363  14.182
 1463W        W73723  21.102  36.102   1.753
 1464W        W73724  10.842  15.864   0.281
 1465W        W73725  33.078  36.763  14.079
 1466W        W73726   6.191  34.959  11.787
 1467W        W73727   6.174  19.701  10.309
 1468W        W73728  36.044  31.025  12.525
 1469W        W73729  23.151  25.087  10.508
 1470W        W73730  39.090  41.399   2.750
 1471W        W73731  10.094  23.455  13.970
 1472W        W73732   6.925  41.341  11.895
 1473W        W73733  13.259  13.538   1.447
 1474W        W73734  11.522  35.641  12.450
 1475W        W73735  10.534  41.469  11.741
 1476W        W73736  36.086   8.228   5.003
 1477W        W73737  15.161  29.731  14.401
 1478W        W73738  11.831   8.132  10.773
 1479W        W73739  21.141  32.573   3.316
 1480W        W73740  27.831   6.398   5.066
 1481W        W73741  28.462  27.927   0.871
 1482W        W73742  23.524   2.277   3.695
 1483W        W73743   5.717  29.908   0.731
 1484W        W73744   7.688  21.605  11.516
 1485W        W73745  39.528  30.840  14.712
 1486W        W73746   1.890   5.463   4.014
 1487W        W73747  24.091  41.205   0.682
 1488W        W73748   1.293  23.189   4.316
 1489W        W73749  14.629   1.890  11.321
 1490W        W73750  41.916  24.648  13.676
 1491W        W73751   6.913  17.977  13.637
 1492W        W73752  13.261  15.192  10.071
 1493W        W73753   5.679  19.249  11.914
 1494W        W73754   5.099   5.895   3.286
 1495W        W73755  34.324  31.109  14.963
 1496W        W73756  38.466   5.499  13.556
 1497W        W73757  14.854  41.915   4.595
 1498W        W73758  22.161  18.495   3.677
 1499W        W73759  15.680  24.883   4.652
 1500W        W73760  35.448  12.565  12.571
 1501W        W73761   4.662  12.707  14.235
 1502W        W73762  14.285  34.176  11.112
 1503W        W73763  42.787   3.791  12.043
 1504W        W73764  10.317  33.022   0.512
 1505W        W73765  44.459   7.081   3.324
 1506W        W73766  21.705   9.203   2.200
 1507W        W73767  36.377  10.653   3.983
 1508W        W73768  12.972  41.986  11.168
 1509W        W73769  29.182  11.273   3.316
 1510W        W73770  18.627  23.217  11.543
 1511W        W73771  33.430  10.244  10.201
 1512W        W73772  13.856  17.154  10.607
 1513W        W73773   1.758  35.638   3.393
 1514W        W73774   7.232  21.479  11.755
 1515W        W73775  35.012  21.810   4.197
 1516W        W73776  15.173  41.991   4.182
 1517W        W73777   2.479  27.117  10.723
 1518W        W73778   3.675   0.997  13.820
 1519W        W73779  32.019  27.616  13.757
 1520W        W73780  24.104   2.907  10.556
 1521W        W73781  25.380   1.498   1.259
 1522W        W73782   9.926  34.952   3.628
 1523W        W73783  33.936  26.557  12.049
 1524W        W73784   7.296  12.422   4.870
 1525W        W73785   9.633  35.393   4.208
 1526W        W73786  16.547   9.534  11.885
 1527W        W73787  35.407  12.122   2.729
 1528W        W73788   3.204  20.663  11.468
 1529W        W73789  40.511  36.475  13.891
 1530W        W73790   5.327  31.505   1.967
 1531W        W73791   4.319   7.614  11.465
 1532W        W73792  39.971  17.176  14.789
 1533W        W73793  24.550  37.859   3.898
 1534W        W73794  44.487   9.755   0.415
 1535W        W73795  31.088   6.094  12.565
 1536W        W73796  37.078  29.522   2.342
 1537W        W73797  28.446   9.540   1.353
 1538W        W73798  27.796  37.504  13.531
 1539W        W73799  27.353  24.618   1.191
 1540W        W73800   9.399  42.873   2.125
 1541W        W73801  30.531  33.011  12.703
 1542W        W73802   7.969  34.151   4.602
 1543W        W73803  41.368  43.874  13.906
 1544W        W73804  34.245   5.777  13.629
 1545W        W73805  40.924  20.745   3.720
 1546W        W73806  35.468  38.602  12.397
 1547W        W73807  37.578   3.426  14.997
 1548W        W73808  30.195  14.137  12.096
 1549W        W73809   6.908  39.914   3.286
 1550W        W73810  43.056  14.341  12.575
 1551W        W73811  18.331  32.330   0.699
 1552W        W73812  19.566   1.289  12.637
 1553W        W73813  17.310  17.752   3.430
 1554W        W73814  28.595  21.819   4.639
 1555W        W73815   2.041  38.954  14.494
 1556W        W73816  24.468  36.287   1.182
 1557W        W73817  22.475  10.065   4.512
 1558W        W73818  44.985   4.136   1.878
 1559W        W73819   1.920  44.519  11.024
 1560W        W73820  16.625  34.779  14.904
 1561W        W73821  32.940  27.740  14.343
 1562W        W73822  33.905  43.911   2.416
 1563W        W73823  40.509  21.199  11.165
 1564W        W73824  32.041  19.097   4.489
 1565W        W73825  32.045  35.134  11.576
 1566W        W73826  13.207  19.000   1.241
 1567W        W73827  39.033   5.515   4.542
 1568W        W73828  24.047  44.603  13.683
 1569W        W73829  26.199  35.144   4.149
 1570W        W73830  35.380  28.554  13.904
 1571W        W73831  21.627  37.728   0.048
 1572W        W73832  43.347   2.523   3.069
 1573W        W73833  13.174  42.845   4.362
 1574W        W73834   6.657  42.057  14.800
 1575W        W73835  16.630  28.094   0.721
 1576W        W73836  12.269  43.849  11.523
 1577W        W73837  16.369   6.348   4.752
 1578W        W73838  39.391  13.639   2.684
 1579W        W73839   6.450  18.104   1.936
 1580W        W73840  20.563  14.960  10.644
 1581W        W73841  33.389  11.181  12.572
 1582W        W73842  10.170  10.176  14.501
 1583W        W73843  33.688   9.500  10.906
 1584W        W73844  29.020  39.553   1.585
 1585W        W73845  16.683  29.062  13.377
 1586W        W73846  31.106  42.295  14.317
 1587W        W73847  12.616  36.011  11.134
 1588W        W73848   6.611  33.457   1.435
 1589W        W73849  32.449  37.664   3.966
 1590W        W73850   1.728  17.271   0.998
 1591W        W73851   9.469   6.898   1.334
 1592W        W73852  33.844  32.586   3.436
 1593W        W73853  30.533  27.815   3.741
 1594W        W73854  29.547  36.784   4.915
 1595W        W73855  35.566   7.903   3.203
 1596W        W73856  16.731  43.577   2.494
 1597W        W73857  15.308  26.539   0.239
 1598W        W73858  16.663  22.434  12.010
 1599W        W73859   0.659  40.616   0.803
 1600W        W73860  27.826  20.220  11.155
 1601W        W73861  38.109   7.119   0.837
 1602W        W73862  27.773  35.540   1.816
 1603W        W73863   1.831  23.685  14.301
 1604W        W73864  21.173  25.449  13.308
 1605W        W73865   1.324  14.172   4.120
 1606W        W73866  40.464  10.599   4.607
 1607W        W73867  24.828   8.788  14.751
 1608W        W73868   6.756  18.748  14.310
 1609W        W73869  44.677  25.946   2.536
 1610W        W73870  15.203  22.941   4.397
 1611W        W73871  30.091  35.077  11.967
 1612W        W73872  37.871  18.816  14.570
 1613W        W73873   4.835  32.592   3.604
 1614W        W73874   5.355  35.118   2.826
 1615W        W73875   1.268  18.565   0.602
 1616W        W73876  35.519  21.131  11.484
 1617W        W73877   3.376  26.372   5.072
 1618W        W73878   5.636  39.406  12.438
 1619W        W73879   7.411  29.787   1.665
 1620W        W73880  29.335  39.502   0.790
 1621W        W73881   0.726  23.585  11.174
 1622W        W73882   1.940  44.929   3.359
 1623W        W73883  40.931  16.086  14.748
 1624W        W73884  25.102  33.154  11.678
 1625W        W73885  14.723  24.074   3.366
 1626W        W73886  34.964  25.129   4.546
 1627W        W73887  17.468  15.524   0.964
 1628W        W73888  12.467  40.679  14.319
 1629W        W73889   2.310  16.908   2.694
 1630W        W73890  12.820  44.517  14.797
 1631W        W73891  39.507  33.788   4.105
 1632W        W73892  27.134  34.017  10.759
 1633W        W73893  31.074  33.059  11.956
 1634W        W73894  18.007  25.445  12.512
 1635W        W73895  32.745  44.755  14.821
 1636W        W73896  27.930   7.348  14.794
 1637W        W73897  32.957  33.597  12.569
 1638W        W73898  24.243  31.209   1.716
 1639W        W73899  14.577  13.828   3.717
 1640W        W73900  41.230  19.552   2.868
 1641W        W73901  20.752   3.884   1.405
 1642W        W73902  20.697  28.589   2.893
 1643W        W73903  23.012  38.569   2.339
 1644W        W73904  14.276  17.240   4.647
 1645W        W73905   4.698  25.781   5.161
 1646W        W73906  26.051  17.307  13.364
 1647W        W73907  19.580  24.013  14.388
 1648W        W73908  28.165  26.518   4.193
 1649W        W73909  25.531  26.574  14.812
 1650W        W73910  43.884   5.364   1.507
 1651W        W73911  28.114  31.515  10.604
 1652W        W73912   0.992  43.230  11.128
 1653W        W73913  32.366  17.093  10.739
 1654W        W73914  31.243  21.393  11.146
 1655W        W73915   1.052   8.947  14.500
 1656W        W73916  14.228  23.047   4.145
 1657W        W73917  25.215  25.188  14.892
 1658W        W73918  38.341  32.915  11.565
 1659W        W73919   3.255  33.399   2.301
 1660W        W73920  42.080  41.055   1.244
 1661W        W73921  33.232  43.339   0.612
 1662W        W73922  29.256  29.386   0.997
 1663W        W73923  18.698  40.411   5.137
 1664W        W73924  11.117  38.850  12.565
 1665W        W73925   0.505  35.485   1.547
 1666W        W73926  19.061  24.095  14.977
 1667W        W73927  12.595  17.419   4.561
 1668W        W73928  40.563  16.171   1.181
 1669W        W73929  26.439  11.391   4.323
 1670W        W73930   2.189  38.346  13.257
 1671W        W73931  25.532  44.008  14.819
 1672W        W73932  18.936  41.343  13.481
 1673W        W73933  19.813  11.812   4.108
 1674W        W73934  23.125  21.122   1.889
 1675W        W73935  22.313  40.264  10.641
 1676W        W73936  28.738  41.923  10.732
 1677W        W73937  26.735   0.086   3.366
 1678W        W73938  32.468  19.643   2.255
 1679W        W73939   2.858  26.280  11.611
 1680W        W73940   4.784  44.075   4.262
 1681W        W73941  30.916  23.630   3.510
 1682W        W73942  22.027   0.495   1.649
 1683W        W73943  42.751  43.027  12.163
 1684W        W73944  16.026  11.350  11.620
 1685W        W73945   3.758  26.865  12.987
 1686W        W73946  26.132  23.642   3.897
 1687W        W73947   7.722  30.962   3.614
 1688W        W73948   6.944  18.194   3.873
 1689W        W73949  44.044   8.757   4.636
 1690W        W73950  42.042   2.655  12.568
 1691W        W73951   4.339  17.428  13.561
 1692W        W73952  32.734  44.739   3.085
 1693W        W73953   8.425  34.384  12.997
 1694W        W73954  25.432   8.351   4.340
 1695W        W73955   3.288  32.664  11.783
 1696W        W73956  40.393  30.931  12.442
 1697W        W73957   8.271  28.942   1.686
 1698W        W73958  19.311  38.311  12.645
 1699W        W73959  27.065  21.964   3.249
 1700W        W73960   0.085  35.057  12.570
 1701W        W73961  14.410  15.349   2.562
 1702W        W73962  22.604  33.950  13.879
 1703W        W73963  11.411  30.413  11.995
 1704W        W73964   1.671  24.985  12.579
 1705W        W73965   8.752   9.805   2.901
 1706W        W73966   6.265  10.747  14.470
 1707W        W73967   5.260  16.934  11.331
 1708W        W73968  37.857  33.606  11.832
 1709W        W73969  22.266   0.689  11.611
 1710W        W73970  31.964  12.603  11.529
 1711W        W73971   7.769  37.063  14.805
 1712W        W73972  40.759  27.507   1.463
 1713W        W73973  29.076   0.830   3.696
 1714W        W73974  39.156  41.953  10.650
 1715W        W73975  23.810  12.155   0.882
 1716W        W73976  40.586   9.878   4.202
 1717W        W73977  23.694   8.942   3.126
 1718W        W73978   2.397   1.705  10.503
 1719W        W73979  10.914  27.919  12.913
 1720W        W73980  35.343   9.222  12.511
 1721W        W73981  21.025   6.550   4.542
 1722W        W73982  41.999  36.797  12.522
 1723W        W73983  23.551  18.186   1.698
 1724W        W73984  17.549  15.134   2.621
 1725W        W73985  26.002  17.616   2.868
 1726W        W73986  40.814   0.508  12.899
 1727W        W73987  32.096  28.071  13.352
 1728W        W73988  16.022  36.099  10.728
 1729W        W73989   9.200  16.058   4.339
 1730W        W73990  39.524  23.704  11.517
 1731W        W73991  31.691  32.221  13.383
 1732W        W73992  24.233  13.045  13.470
 1733W        W73993  40.110  40.444  12.518
 1734W        W73994  21.838  15.236   2.440
 1735W        W73995  37.441  20.761   4.311
 1736W        W73996  37.952  29.283  12.087
 1737W        W73997   0.426   5.201   1.173
 1738W        W73998  40.553  44.612  12.936
 1739W        W73999  32.650  17.118  10.300
 1740W        W74000  19.746  33.583  14.341
 1741W        W74001  31.652  16.733   1.253
 1742W        W74002  34.959  11.458   4.787
 1743W        W74003  28.843   9.971  13.369
 1744W        W74004  27.732   5.216   0.852
 1745W        W74005   4.467  12.549  13.416
 1746W        W74006  28.139  43.563   3.746
 1747W        W74007   7.083  31.067  10.508
 1748W        W74008  41.276  43.506   4.206
 1749W        W74009  10.614   5.427  13.021
 1750W        W74010  38.420  38.687  10.706
 1751W        W74011  34.406  42.167  13.812
 1752W        W74012  34.507  28.893   1.170
 1753W        W74013  21.694   4.271   3.964
 1754W        W74014   3.068  31.809   5.112
 1755W        W74015  42.976  22.207  13.506
 1756W        W74016   7.418   6.898  14.359
 1757W        W74017  32.060  20.153   2.242
 1758W        W74018  40.000  19.024   3.390
 1759W        W74019  40.246  22.479   0.368
 1760W        W74020  13.307  25.540   1.236
 1761W        W74021  33.477  24.544   1.963
 1762W        W74022  21.563  44.087  10.829
 1763W        W74023   2.187  32.077  12.419
 1764W        W74024  42.988   0.646   4.952
 1765W        W74025  23.674  30.902  14.851
 1766W        W74026  25.823   1.856   2.154
 1767W        W74027  26.643  16.684  11.532
 1768W        W74028  31.512  23.138  12.016
 1769W        W74029  10.122  17.882   0.360
 1770W        W74030  32.624  21.799   5.087
 1771W        W74031  12.814  41.256   0.533
 1772W        W74032  13.085  43.540  12.943
 1773W        W74033  12.949  32.393   3.825
 1774W        W74034   1.073  42.639   5.004
 1775W        W74035   0.153  21.148  12.268
 1776W        W74036  33.422   1.699   1.344
 1777W        W74037   8.952  34.893   0.370
 1778W        W74038  23.162  21.140  13.845
 1779W        W74039  42.789  40.560  12.128
 1780W        W74040  29.449  30.113  10.198
 1781W        W74041  16.900  43.003   0.462
 1782W        W74042   3.120  20.481   1.277
 1783W        W74043  14.789  29.584  14.802
 1784W        W74044  28.598  40.039   4.656
 1785W        W74045   8.402  19.546  13.605
 1786W        W74046  26.074   9.190  13.169
 1787W        W74047   2.828  22.741   4.535
 1788W        W74048   6.942  29.689   0.509
 1789W        W74049  25.211   9.582   0.253
 1790W        W74050  22.204  24.947   0.126
 1791W        W74051  22.665   3.182   2.634
 1792W        W74052  14.305  37.861   0.321
 1793W        W74053  29.756  44.698   1.740
 1794W        W74054   7.441  10.023   2.756
 1795W        W74055  13.457  33.591  12.088
 1796W        W74056  16.432  31.576   2.236
 1797W        W74057   1.917  26.227   3.186
 1798W        W74058  27.886  42.577  13.086
 1799W        W74059   2.624   4.736  13.782
 1800W        W74060  25.062   3.264  14.017
 1801W        W74061  17.149   0.856   3.716
 1802W        W74062  44.960  10.915   0.430
 1803W        W74063  15.520  26.657  13.934
 1804W        W74064  13.278   7.190   3.983
 1805W        W74065  38.117  32.007   1.185
 1806W        W74066   4.663  16.172  13.241
 1807W        W74067  41.988   0.913  14.892
 1808W        W74068   9.673  20.613  14.650
 1809W        W74069  26.163  37.638  10.003
 1810W        W74070  43.796  41.928  10.718
 1811W        W74071  17.916  17.611   1.813
 1812W        W74072  23.906   2.899  14.767
 1813W        W74073  31.110  28.123  11.951
 1814W        W74074  38.676  33.051  11.196
 1815W        W74075   0.794   0.332   1.440
 1816W        W74076  37.890  16.571  11.067
 1817W        W74077  29.626  16.470   2.324
 1818W        W74078   1.930  21.435  12.018
 1819W        W74079  23.934  28.723   0.234
 1820W        W74080  37.513  30.685  11.989
 1821W        W74081  44.987  38.947   3.311
 1822W        W74082   0.821  21.201  10.707
 1823W        W74083  10.406  26.514   0.311
 1824W        W74084  15.787  22.234   4.179
 1825W        W74085  19.990  31.197   0.273
 1826W        W74086   5.028  10.729  13.418
 1827W        W74087   1.359  43.785   3.452
 1828W        W74088  41.985  39.915   0.843
 1829W        W74089   1.978  30.375  12.268
 1830W        W74090  24.877  41.928  14.424
 1831W        W74091  20.693  43.312  13.017
 1832W        W74092  12.762  32.626  14.790
 1833W        W74093  16.504  28.856  11.771
 1834W        W74094  16.672  29.054   3.194
 1835W        W74095  36.001  25.372   4.285
 1836W        W74096  16.766  18.204   0.450
 1837W        W74097  27.964  40.928  12.463
 1838W        W74098  34.145  18.662   3.810
 1839W        W74099   9.343  18.820  11.083
 1840W        W74100  14.313  22.721  13.005
 1841W        W74101  16.329   3.399   4.607
 1842W        W74102  39.328  15.230   0.953
 1843W        W74103  23.973  19.483  10.088
 1844W        W74104  30.207  35.891  13.864
 1845W        W74105  16.530  20.230   0.322
 1846W        W74106  32.350  30.925   0.163
 1847W        W74107   5.887  34.827   3.699
 1848W        W74108  31.618  10.506  11.873
 1849W        W74109   9.894   6.389  11.084
 1850W        W74110   2.845  13.868   1.757
 1851W        W74111  30.007   1.983   4.398
 1852W        W74112   4.202   3.707   1.918
 1853W        W74113   4.830   5.339   1.307
 1854W        W74114  32.975   2.209   0.693
 1855W        W74115  23.615  36.655  11.481
 1856W        W74116  24.726   1.510  14.301
 1857W        W74117   9.666  44.702  13.965
 1858W        W74118  14.107  35.716   3.090
 1859W        W74119   8.335  10.082   2.706
 1860W        W74120  44.310   1.866  10.647
 1861W        W74121   6.629   3.732   3.168
 1862W        W74122   4.954   6.842  12.203
 1863W        W74123  26.474  31.196   0.428
 1864W        W74124   9.016  43.518  14.816
 1865W        W74125  15.301  13.279   1.379
 1866W        W74126  10.203  16.295  13.113
 1867W        W74127  34.635   3.886  12.598
 1868W        W74128  40.693  33.219   3.286
 1869W        W74129  43.129  22.533   3.070
 1870W        W74130  33.645  16.663  13.333
 1871W        W74131  19.714  20.575   5.103
 1872W        W74132  33.375  15.324  12.388
 1873W        W74133  38.562  20.926   3.937
 1874W        W74134  28.091  37.427  12.063
 1875W        W74135  18.779  18.465  14.181
 1876W        W74136   6.702  14.082   3.645
 1877W        W74137  32.378  31.533  11.395
 1878W        W74138  27.634  26.006   0.996
 1879W        W74139  21.674  12.681   3.705
 1880W        W74140  19.511  11.362   3.259
 1881W        W74141   5.430  40.510  13.895
 1882W        W74142   0.919  42.872   1.231
 1883W        W74143  30.228  12.298   3.630
 1884W        W74144   5.056  35.806   5.021
 1885W        W74145  40.416  35.015   2.211
 1886W        W74146   9.085  35.966  13.071
 1887W        W74147  12.858  15.811  11.656
 1888W        W74148  13.115  21.456  14.443
 1889W        W74149   0.980   8.596  12.657
 1890W        W74150  14.665   8.244   4.650
 1891W        W74151  39.037  30.960   3.298
 1892W        W74152  21.198  27.122   5.121
 1893W        W74153  40.235  35.032  12.431
 1894W        W74154  12.196  17.138   3.231
 1895W        W74155  25.851  24.140  11.608
 1896W        W74156  36.787  33.351   2.655
 1897W        W74157  35.795  12.433  14.716
 1898W        W74158  30.154   4.310   4.523
 1899W        W74159  21.920  14.792  12.846
 1900W        W74160  28.064  29.181  14.932
 1901W        W74161  44.946  42.478  10.783
 1902W        W74162  11.197   0.055   3.161
 1903W        W74163  22.951   5.780   4.167
 1904W        W74164  11.296  30.890  10.801
 1905W        W74165  18.814  38.231  11.599
 1906W        W74166   2.490  30.531   2.257
 1907W        W74167  18.375  24.948   5.035
 1908W        W74168  35.366  40.210  13.878
 1909W        W74169  20.510   0.423  12.976
 1910W        W74170   4.898  33.466  12.891
 1911W        W74171  10.235  15.339  12.869
 1912W        W74172  32.064  43.420   1.170
 1913W        W74173   4.337  42.297  14.242
 1914W        W74174  40.027  17.544  10.705
 1915W        W74175  25.041  24.543  10.771
 1916W        W74176  26.235  10.489  11.015
 1917W        W74177  37.971  17.840   0.327
 1918W        W74178   0.208  44.329  13.876
 1919W        W74179  26.626  17.608   1.721
 1920W        W74180   1.071  36.106   2.156
 1921W        W74181   9.790  27.529   2.654
 1922W        W74182  36.302   7.178  10.430
 1923W        W74183  36.288   9.332  11.485
 1924W        W74184   3.369  38.239   0.209
 1925W        W74185   1.776  11.153  14.078
 1926W        W74186  36.428  43.517  12.654
 1927W        W74187  10.023   8.098   3.765
 1928W        W74188   6.982   6.695   2.580
 1929W        W74189  23.430   5.513   4.284
 1930W        W74190  34.566  28.075  10.415
 1931W        W74191   9.872   2.485  11.159
 1932W        W74192   4.442  28.073  13.181
 1933W        W74193   9.391   3.219  13.509
 1934W        W74194   7.287  42.772   0.151
 1935W        W74195  14.675  22.246  14.903
 1936W        W74196  30.624  25.636   4.077
 1937W        W74197  36.459  28.147  12.360
 1938W        W74198  11.400  29.102  12.528
 1939W        W74199   1.712  10.192   3.628
 1940W        W74200  23.635   6.770   4.918
 1941W        W74201  42.124  23.235  13.423
 1942W        W74202  33.308   8.037  11.765
 1943W        W74203  40.631  30.171   1.226
 1944W        W74204  24.937   2.474   1.388
 1945W        W74205  32.224  36.554  10.621
 1946W        W74206   2.756   9.681  13.886
 1947W        W74207  34.832  38.632  14.903
 1948W        W74208  23.574  15.083   3.786
 1949W        W74209   5.896  13.424   2.829
 1950W        W74210  27.268   5.293  13.530
 1951W        W74211  23.220   1.676   0.310
 1952W        W74212   2.067  16.146   4.544
 1953W        W74213  10.544   6.884  14.019
 1954W        W74214  33.055  43.478  12.592
 1955W        W74215  18.710  42.275   2.895
 1956W        W74216   4.987  15.247   0.467
 1957W        W74217  37.264  21.665   0.428
 1958W        W74218  23.090  43.459   2.428
 1959W        W74219   4.107  37.111  14.268
 1960W        W74220  24.006  38.025  12.630
 1961W        W74221  37.948  22.754   1.114
 1962W        W74222   5.929  39.533   1.333
 1963W        W74223   2.705   4.802   4.698
 1964W        W74224  44.507   0.377   0.832
 1965W        W74225  12.691  38.118   4.757
 1966W        W74226  16.402  44.783  11.125
 1967W        W74227   0.982  12.941  13.534
 1968W        W74228  20.974   6.822  10.438
 1969W        W74229  37.544  14.686   3.280
 1970W        W74230  21.706  16.105   4.486
 1971W        W74231  40.822  34.012  11.767
 1972W        W74232  40.461  34.377   0.192
 1973W        W74233   1.383  20.695   3.829
 1974W        W74234   2.349   1.802   2.160
 1975W        W74235  37.885  30.454  14.524
 1976W        W74236  30.978  13.210  11.466
 1977W        W74237  42.418  42.057  12.320
 1978W        W74238  32.036   7.060   2.116
 1979W        W74239  22.989  33.964   3.409
 1980W        W74240  21.784   1.530   2.830
 1981W        W74241  23.657  12.249  13.621
 1982W        W74242   9.140  39.461   3.867
 1983W        W74243  31.143  28.634  11.934
 1984W        W74244   7.204  44.896   4.846
 1985W        W74245  10.734  43.370   4.119
 1986W        W74246  41.819  20.450   4.252
 1987W        W74247  10.136  31.953   5.036
 1988W        W74248   3.412   9.566   2.363
 1989W        W74249   8.218   7.305   2.736
 1990W        W74250   2.254   7.482   2.704
 1991W        W74251  25.745   2.305  11.995
 1992W        W74252  32.150  28.513   0.884
 1993W        W74253   4.497  24.381  10.928
 1994W        W74254  29.858   4.355  10.637
 1995W        W74255  20.141  28.824   1.651
 1996W        W74256  19.098  43.278  14.372
 1997W        W74257  41.377   5.160  12.567
 1998W        W74258  30.855   6.309   3.624
 1999W        W74259  12.755  14.074   1.880
 2000W        W74260  29.171  29.335  12.153
 2001W        W74261   6.318   7.272  11.245
 2002W        W74262  21.289  43.391   2.608
 2003W        W74263  17.062   5.350   0.448
 2004W        W74264  25.885  18.621   1.282
 2005W        W74265  12.137  13.302  12.487
 2006W        W74266   9.417  41.490   3.681
 2007W        W74267  27.709  34.866   5.319
 2008W        W74268  12.619  26.368  12.063
 2009W        W74269  14.740  13.830   5.217
 2010W        W74270   7.949  16.994  13.537
 2011W        W74271  40.876  43.295  13.340
 2012W        W74272  12.609  12.378   2.337
 2013W        W74273  19.171  35.224   4.537
 2014W        W74274  39.437   5.207  12.591
 2015W        W74275   6.311   6.662  13.477
 2016W        W74276  14.630  14.226   4.865
 2017W        W74277   5.471  30.422   2.337
 2018W        W74278   5.885   0.571  14.799
 2019W        W74279  39.568  36.506   1.405
 2020W        W74280  10.663  38.545  13.514
 2021W        W74281  10.273  18.996   4.786
 2022W        W74282  33.531   7.744   1.526
 2023W        W74283  26.147  33.898   0.367
 2024W        W74284   0.060   1.916  12.948
 2025W        W74285  35.741   9.354  13.500
 2026W        W74286  44.923  15.300  12.437
 2027W        W74287  16.326  21.754  12.101
 2028W        W74288  20.651  32.379  10.955
 2029W        W74289   8.146  27.979   1.894
 2030W        W74290  29.912  38.633  12.446
 2031W        W74291  28.151  44.286  14.023
 2032W        W74292  28.038  29.883   2.224
 2033W        W74293  42.464  28.679  13.474
 2034W        W74294  29.544   9.369  11.480
 2035W        W74295   2.790  36.048   3.708
 2036W        W74296  26.946  17.052  13.879
 2037W        W74297  42.551  27.744  13.049
 2038W        W74298  19.259  11.801   3.260
 2039W        W74299  27.139  14.005   4.488
 2040W        W74300  37.386  23.779   1.683
 2041W        W74301  17.801  29.119   1.375
 2042W        W74302  17.562   5.921  14.777
 2043W        W74303  44.404   1.437   1.953
 2044W        W74304  27.651  43.057  13.016
 2045W        W74305  10.318  26.928  12.272
 2046W        W74306  28.987  22.161   4.650
 2047W        W74307  17.631  23.258  11.070
 2048W        W74308  37.929  33.305   3.237
 2049W        W74309  19.050  43.853   0.566
 2050W        W74310   7.737  33.363   2.726
 2051W        W74311  39.662  43.473   1.327
 2052W        W74312  37.575  20.879  14.945
 2053W        W74313  10.873   2.174   0.598
 2054W        W74314   0.151  27.676   1.392
 2055W        W74315  33.436  43.408   3.140
 2056W        W74316  27.628  36.344  13.532
 2057W        W74317  22.705   1.745   0.161
 2058W        W74318   5.383  33.510   2.129
 2059W        W74319  10.495  18.620   1.219
 2060W        W74320  33.895  37.818  11.584
 2061W        W74321  16.734  31.446   3.703
 2062W        W74322  15.451  25.844   1.750
 2063W        W74323   0.553  22.083   3.390
 2064W        W74324   7.886  35.959   5.067
 2065W        W74325  27.989  33.248  11.125
 2066W        W74326  37.027  23.113  12.031
 2067W        W74327  32.581  19.051   1.872
 2068W        W74328  26.980  25.685   5.201
 2069W        W74329  18.405  41.058  14.428
 2070W        W74330  32.449  28.115   4.498
 2071W        W74331  26.634  42.840   2.925
 2072W        W74332  23.844  30.007   1.320
 2073W        W74333   6.717  14.355   4.562
 2074W        W74334  37.447  12.226   0.413
 2075W        W74335  13.987  24.789  10.841
 2076W        W74336  12.924  13.848  14.562
 2077W        W74337  11.698   4.188  14.812
 2078W        W74338  27.975  36.461  12.935
 2079W        W74339   0.393   5.329   3.762
 2080W        W74340   2.749  16.965   0.378
 2081W        W74341  14.297  23.964  13.755
 2082W        W74342  14.278  44.521   0.798
 2083W        W74343  41.308  44.257  12.535
 2084W        W74344   8.422   6.674  14.347
 2085W        W74345  33.918  14.117  12.369
 2086W        W74346  38.814   8.566  14.866
 2087W        W74347   9.023   1.457   3.973
 2088W        W74348  41.957  23.434  12.090
 2089W        W74349  39.986   0.019   4.446
 2090W        W74350  20.532  11.856   1.847
 2091W        W74351  26.935  27.545   2.128
 2092W        W74352   2.685  26.113  14.962
 2093W        W74353  20.741  24.198   0.725
 2094W        W74354   8.660  23.825  14.006
 2095W        W74355  19.503  32.404   4.264
 2096W        W74356  42.249  23.437  10.852
 2097W        W74357  21.856   5.246   4.504
 2098W        W74358   7.723  30.523  12.833
 2099W        W74359   6.370  12.870  14.561
 2100W        W74360   7.606  44.559  11.569
 2101W        W74361  42.602  43.541  13.543
 2102W        W74362   1.354  31.062   2.623
 2103W        W74363  40.207  34.499  12.174
 2104W        W74364  13.137  15.353   4.857
 2105W        W74365  26.004  31.035   3.635
 2106W        W74366  33.394  31.923  13.296
 2107W        W74367  29.076  42.751   3.029
 2108W        W74368  39.798   8.220   0.010
 2109W        W74369  39.726  12.562  13.515
 2110W        W74370  28.296  23.941   1.738
 2111W        W74371   0.394   0.612  10.691
 2112W        W74372  38.843  32.348  10.676
 2113W        W74373  39.270  44.004  14.542
 2114W        W74374   2.311  19.745  11.132
 2115W        W74375   3.373  26.945  11.673
 2116W        W74376  19.006  30.215  11.519
 2117W        W74377   5.760  43.552   1.182
 2118W        W74378  14.265  11.515   1.445
 2119W        W74379  31.981   6.335   0.355
 2120W        W74380  22.537   6.548  10.438
 2121W        W74381  19.606  26.269  11.933
 2122W        W74382  20.113   1.343   3.678
 2123W        W74383  12.549  22.020   0.717
 2124W        W74384  39.046  38.932   1.908
 2125W        W74385   5.544  33.007   4.532
 2126W        W74386  23.671  16.248   2.124
 2127W        W74387  35.817  34.425  12.225
 2128W        W74388   1.312  31.180  12.607
 2129W        W74389  20.636  14.557  13.061
 2130W        W74390  38.378  30.473  11.838
 2131W        W74391  27.110  43.472  12.821
 2132W        W74392   5.780  42.783  11.092
 2133W        W74393  15.643  36.096  13.414
 2134W        W74394  32.238   2.942  12.560
 2135W        W74395  44.787  21.711  12.517
 2136W        W74396  27.428  31.195  12.044
 2137W        W74397   5.532  34.652  13.436
 2138W        W74398  35.587  36.839  12.570
 2139W        W74399  25.049  32.376  14.569
 2140W        W74400  27.998  20.726  10.610
 2141W        W74401  18.182  25.875   3.277
 2142W        W74402   2.310   8.415  14.793
 2143W        W74403  34.411  19.644   0.888
 2144W        W74404  23.061  24.965  10.005
 2145W        W74405  32.649  27.261  12.418
 2146W        W74406  43.776  38.353  12.570
 2147W        W74407  41.963  38.498  10.308
 2148W        W74408  43.082   3.870   3.127
 2149W        W74409  28.288  23.491   0.010
 2150W        W74410  34.495  38.834  11.305
 2151W        W74411   0.408   2.432  12.107
 2152W        W74412  26.411  41.557   0.864
 2153W        W74413   8.433   8.508   5.011
 2154W        W74414  19.527  30.895  12.957
 2155W        W74415   7.899  34.926   0.911
 2156W        W74416  28.406  10.371  12.495
 2157W        W74417   8.963  40.495   1.945
 2158W        W74418  41.168  10.618   2.323
 2159W        W74419   9.424  29.122   1.298
 2160W        W74420  12.792  44.666   0.309
 2161W        W74421  44.357   5.674   0.944
 2162W        W74422  20.525  22.267  12.177
 2163W        W74423  32.051   8.380   4.747
 2164W        W74424  13.842  19.023  12.146
 2165W        W74425  19.175   0.425  11.603
 2166W        W74426  43.975  43.747  14.386
 2167W        W74427   3.226   7.979   0.018
 2168W        W74428   3.240  12.794   2.385
 2169W        W74429   4.755  19.521  11.606
 2170W        W74430   0.377  16.553   3.585
 2171W        W74431  19.536  42.383  14.684
 2172W        W74432  38.214  41.883   4.149
 2173W        W74433  39.954  14.277  14.741
 2174W        W74434  33.626  23.816   0.951
 2175W        W74435  31.649   8.646   0.683
 2176W        W74436  27.000  26.616   1.337
 2177W        W74437  20.863   9.429   1.758
 2178W        W74438   4.637   0.561   3.485
 2179W        W74439  21.462  25.957  11.518
 2180W        W74440   3.720  38.356   2.459
 2181W        W74441  39.236   3.688   0.763
 2182W        W74442   7.377  20.754  10.312
 2183W        W74443  43.496  21.521   3.616
 2184W        W74444  11.860  17.776  10.913
 2185W        W74445  42.483  11.984  12.602
 2186W        W74446   5.520  10.163  11.953
 2187W        W74447  14.697  28.889   4.163
 2188W        W74448  30.844  43.898  12.934
 2189W        W74449  12.291   8.421   4.651
 2190W        W74450  34.076  23.279   0.250
 2191W        W74451   1.363  39.602   2.408
 2192W        W74452  12.151   1.024  10.415
 2193W        W74453  32.101  20.911   2.859
 2194W        W74454  13.369  43.337  11.084
 2195W        W74455  24.995  16.635  10.422
 2196W        W74456  20.298  28.354  11.391
 2197W        W74457  18.233   8.458  10.209
 2198W        W74458  26.130   3.923   0.698
 2199W        W74459  19.536  34.648   2.693
 2200W        W74460  44.054  34.523   1.807
 2201W        W74461  36.931  27.882  13.793
 2202W        W74462  24.779  21.078  11.211
 2203W        W74463  33.334  19.763   4.556
 2204W        W74464  21.683  31.378  14.938
 2205W        W74465  41.784  16.480   1.419
 2206W        W74466  27.695  25.181   4.373
 2207W        W74467  44.529  41.520   1.812
 2208W        W74468  21.606  19.532   0.903
 2209W        W74469  27.994  22.244  13.622
 2210W        W74470  27.191  21.127   3.258
 2211W        W74471  30.538   7.818   0.809
 2212W        W74472  19.987  23.714  13.498
 2213W        W74473  30.671  23.499  14.918
 2214W        W74474  36.112   0.246  13.894
 2215W        W74475   7.897  41.405  10.769
 2216W        W74476   3.965  16.854   0.369
 2217W        W74477  38.766  43.869  13.002
 2218W        W74478   0.384  27.948  14.751
 2219W        W74479  12.823  25.956  13.369
 2220W        W74480   1.727  41.008  13.948
 2221W        W74481  13.407   2.399   1.722
 2222W        W74482  13.578  15.565   2.084
 2223W        W74483  18.304  37.579  11.115
 2224W        W74484  20.128   5.130   2.254
 2225W        W74485  35.402  29.227   0.858
 2226W        W74486  34.616  43.890  13.108
 2227W        W74487  13.651   7.832  13.550
 2228W        W74488  24.486  11.480  11.662
 2229W        W74489  22.079   3.874   4.067
 2230W        W74490  27.460  20.578  14.398
 2231W        W74491  14.877  36.117   0.794
 2232W        W74492  24.284  34.467   9.726
 2233W        W74493  31.467  31.010  14.784
 2234W        W74494  12.300  34.744  10.804
 2235W        W74495   7.348  28.165   3.677
 2236W        W74496   3.354  40.181   3.339
 2237W        W74497  22.992  31.575  12.777
 2238W        W74498  37.479  28.551  13.769
 2239W        W74499  16.671  27.170  13.781
 2240W        W74500  35.544  24.254   2.676
 2241W        W74501  16.690   2.035   3.300
 2242W        W74502  26.990  14.161   2.677
 2243W        W74503  38.337   2.855   1.284
 2244W        W74504   5.009  19.728   2.128
 2245W        W74505  22.968  21.660  14.499
 2246W        W74506   2.443   5.362  11.715
 2247W        W74507  10.459  34.412  11.450
 2248W        W74508   2.910  39.373   1.419
 2249W        W74509  16.703   9.110   1.694
 2250W        W74510  39.839  10.906   0.547
 2251W        W74511   7.467  18.830   4.526
 2252W        W74512  19.275   9.016  10.189
 2253W        W74513  41.868  24.617   2.700
 2254W        W74514  19.262  24.712  11.620
 2255W        W74515  24.932  40.931  12.792
 2256W        W74516  20.010   3.257  14.869
 2257W        W74517  36.254  23.743   3.696
 2258W        W74518   7.935  32.019   1.918
 2259W        W74519  16.001  41.462   4.219
 2260W        W74520  34.628  32.115  12.925
 2261W        W74521  29.552  10.653  12.941
 2262W        W74522  35.546   1.383  10.913
 2263W        W74523  36.618  31.800   3.729
 2264W        W74524  35.055  21.554   4.649
 2265W        W74525  27.517  24.575   0.700
 2266W        W74526  29.109   3.352   3.157
 2267W        W74527   1.484   0.743   1.926
 2268W        W74528  28.975  44.257   3.641
 2269W        W74529  33.126   0.308   1.793
 2270W        W74530  35.011  32.607  11.772
 2271W        W74531  33.413  43.367   4.153
 2272W        W74532  27.271  35.928  14.722
 2273W        W74533  32.683  14.169  13.929
 2274W        W74534  32.623   8.756   1.538
 2275W        W74535   0.550  11.086  14.537
 2276W        W74536  37.613  41.429  14.361
 2277W        W74537  39.617  22.482  12.123
 2278W        W74538  18.339  18.669   5.114
 2279W        W74539  14.103  24.356  11.094
 2280W        W74540  28.002  39.996  14.524
 2281W        W74541  16.692  43.822   0.377
 2282W        W74542  42.033  20.050  14.992
 2283W        W74543  38.461   8.242  14.153
 2284W        W74544   0.728  10.894  11.930
 2285W        W74545  33.114  12.232   4.613
 2286W        W74546  34.773  29.106  11.375
 2287W        W74547  33.208  27.040   3.365
 2288W        W74548  26.003  19.088   3.234
 2289W        W74549   0.274  10.655  11.061
 2290W        W74550  39.171   8.076  11.097
 2291W        W74551   6.548  38.786  11.520
 2292W        W74552  22.707  36.956   2.778
 2293W        W74553   8.627   5.422   3.328
 2294W        W74554  21.081  18.257  14.237
 2295W        W74555  33.085   3.254  12.472
 2296W        W74556   7.078  15.347   4.035
 2297W        W74557  30.618  29.074  10.520
 2298W        W74558  38.098  29.035  13.532
 2299W        W74559  15.400  43.938   4.093
 2300W        W74560   1.806   5.821   2.579
 2301W        W74561  32.554  42.206   0.936
 2302W        W74562  10.243  29.835   1.192
 2303W        W74563  20.860  12.065   3.682
 2304W        W74564  16.869  13.258  13.342
 2305W        W74565  36.156   9.194   1.216
 2306W        W74566   2.417   2.371  14.908
 2307W        W74567  36.410   5.443  13.032
 2308W        W74568  32.088   7.659   1.204
 2309W        W74569  43.363  37.107   4.387
 2310W        W74570  33.219  17.498  11.907
 2311W        W74571  10.066   8.718   3.135
 2312W        W74572  28.210  16.159  11.188
 2313W        W74573  35.172   2.467   1.771
 2314W        W74574  40.185  10.318   2.413
 2315W        W74575  16.227  26.821   1.551
 2316W        W74576  34.795  22.827   4.193
 2317W        W74577  19.577  29.092   4.672
 2318W        W74578  23.379  30.670   1.877
 2319W        W74579  42.088  35.641   4.985
 2320W        W74580   0.521  22.188   0.738
 2321W        W74581  34.207  13.802   0.402
 2322W        W74582  13.160  16.049  12.791
 2323W        W74583  34.978   6.643  14.398
 2324W        W74584  14.385  17.052   2.114
 2325W        W74585  42.369  32.005  12.818
 2326W        W74586  17.284  39.303  14.746
 2327W        W74587  16.309  30.358   2.411
 2328W        W74588   1.527  22.294   0.384
 2329W        W74589  35.872  33.569  12.002
 2330W        W74590  39.535   1.866   4.682
 2331W        W74591   7.843  36.644   2.484
 2332W        W74592   2.837  33.372  14.251
 2333W        W74593  35.427   3.921   0.712
 2334W        W74594  26.613  43.723  12.104
 2335W        W74595  19.626  16.260  12.490
 2336W        W74596  21.641  30.382  11.482
 2337W        W74597  31.867  38.171  11.607
 2338W        W74598  14.842  35.294   3.333
 2339W        W74599  19.226  23.852   0.403
 2340W        W74600  11.340  19.165  14.482
 2341W        W74601  38.844  31.011  14.081
 2342W        W74602   0.421  19.493  11.318
 2343W        W74603  33.896   1.877   3.891
 2344W        W74604  41.739  43.978  12.570
 2345W        W74605  35.922  17.593   0.604
 2346W        W74606  17.174   0.622   4.745
 2347W        W74607  38.280  17.728   1.263
 2348W        W74608  24.051   6.871   1.770
 2349W        W74609  41.735   3.258  13.763
 2350W        W74610   1.575  29.498   4.121
 2351W        W74611  43.752  13.325   3.991
 2352W        W74612  13.065  40.444   3.717
 2353W        W74613  40.502   9.820   9.864
 2354W        W74614  38.501  33.615   4.422
 2355W        W74615   3.911   3.330   3.707
 2356W        W74616  40.017   7.837  13.318
 2357W        W74617  17.129   8.337  12.054
 2358W        W74618  26.232  36.958  12.145
 2359W        W74619  43.983  15.822   1.515
 2360W        W74620  17.182   7.754   0.829
 2361W        W74621  37.550  21.743  13.022
 2362W        W74622  12.093  13.418   2.159
 2363W        W74623  24.176  39.601   3.331
 2364W        W74624   4.189  25.368  10.766
 2365W        W74625   3.392   2.211   2.856
 2366W        W74626  20.569  37.477   2.268
 2367W        W74627  33.493  19.279  11.042
 2368W        W74628  43.131  20.594   4.562
 2369W        W74629  12.906  42.178  14.386
 2370W        W74630  10.476  20.550   1.777
 2371W        W74631  38.018  14.905  12.520
 2372W        W74632  33.349  28.326  12.514
 2373W        W74633  39.527  43.879  14.985
 2374W        W74634   4.971  21.225   3.195
 2375W        W74635  32.746   0.424  10.385
 2376W        W74636  19.253  27.158   1.819
 2377W        W74637  38.337  12.766  13.462
 2378W        W74638   7.421   5.431   1.666
 2379W        W74639   3.897   4.462   2.897
 2380W        W74640  35.828  12.450  11.174
 2381W        W74641  38.503  30.619   1.684
 2382W        W74642   1.062   5.243   0.283
 2383W        W74643  43.853  30.201   2.741
 2384W        W74644  24.986  34.043   4.600
 2385W        W74645  13.322  35.831   0.607
 2386W        W74646  33.037  25.903  14.889
 2387W        W74647  44.054  26.965   0.801
 2388W        W74648  33.897  44.376   4.280
 2389W        W74649   0.501   9.709   1.438
 2390W        W74650  12.594  31.034  10.984
 2391W        W74651  26.503  34.914   5.062
 2392W        W74652  13.683   7.478   4.165
 2393W        W74653  33.498  20.118  10.760
 2394W        W74654  22.099  10.171   3.587
 2395W        W74655  39.520  41.972  13.467
 2396W        W74656  29.434  36.087  14.804
 2397W        W74657   3.299  30.059   2.451
 2398W        W74658  37.315  12.711  11.716
 2399W        W74659  27.504   9.506   2.227
 2400W        W74660  35.682   8.215   3.590
 2401W        W74661  29.480  18.895  12.026
 2402W        W74662  33.448  36.401  10.361
 2403W        W74663  16.765  20.370  13.542
 2404W        W74664  22.680   1.875   1.738
 2405W        W74665  42.055  22.004  11.988
 2406W        W74666  39.917  15.066  12.115
 2407W        W74667  31.016   7.346  13.508
 2408W        W74668  32.411  44.331  12.576
 2409W        W74669   2.442  35.157   4.616
 2410W        W74670  38.358   0.501   3.523
 2411W        W74671  25.916  28.970  11.164
 2412W        W74672   5.098  31.019   0.367
 2413W        W74673  39.828  31.309  13.025
 2414W        W74674   3.815  18.712  12.498
 2415W        W74675  10.412  12.106  14.449
 2416W        W74676  25.863  27.094   0.918
 2417W        W74677  31.683  14.139   2.470
 2418W        W74678   2.215   2.222   0.799
 2419W        W74679   9.745  41.919   2.985
 2420W        W74680  41.371  20.094   2.472
 2421W        W74681  17.141  38.735   1.282
 2422W        W74682  33.666   6.427  12.456
 2423W        W74683  25.001   7.608   4.528
 2424W        W74684   0.518  21.567  13.999
 2425W        W74685  25.656  40.167   2.834
 2426W        W74686  29.415  35.366   0.914
 2427W        W74687   4.923  25.967   3.886
 2428W        W74688  10.722  21.095   0.192
 2429W        W74689  21.874  25.336   0.289
 2430W        W74690   8.173  33.983   0.718
 2431W        W74691  39.762   6.248  12.840
 2432W        W74692  27.178   3.187   0.366
 2433W        W74693  43.983   9.813  12.434
 2434W        W74694  37.447  27.747   0.347
 2435W        W74695  36.962  14.594  11.565
 2436W        W74696  38.628  20.564  10.408
 2437W        W74697  25.598   3.055   2.778
 2438W        W74698  11.118  39.264   2.833
 2439W        W74699  15.141  24.952   3.596
 2440W        W74700  32.096   2.858  13.046
 2441W        W74701  11.579  25.228   2.691
 2442W        W74702  38.925   7.853  10.379
 2443W        W74703  22.199  16.321  11.157
 2444W        W74704  44.515  15.636   5.066
 2445W        W74705  27.456  16.933   1.815
 2446W        W74706  41.369  34.434  13.536
 2447W        W74707  11.597  25.230  13.172
 2448W        W74708  35.443  39.816  12.904
 2449W        W74709   8.722  16.634  13.096
 2450W        W74710  30.182  36.301   2.345
 2451W        W74711  42.997  20.557  11.533
 2452W        W74712  16.557  38.216  12.387
 2453W        W74713  33.962  42.443   4.601
 2454W        W74714  28.152   6.826   4.312
 2455W        W74715   7.693   1.251  11.999
 2456W        W74716  31.458   4.559  12.641
 2457W        W74717  24.160  23.898   0.060
 2458W        W74718  43.888  30.065   3.605
 2459W        W74719   0.832  16.335   1.015
 2460W        W74720  41.547  31.577  11.120
 2461W        W74721   9.278  24.016   1.762
 2462W        W74722  29.493  18.647   0.060
 2463W        W74723  23.526   5.300   2.747
 2464W        W74724  16.830  18.950   3.774
 2465W        W74725  23.289  38.050   2.298
 2466W        W74726  19.583   7.803   1.123
 2467W        W74727   2.004  22.549   1.306
 2468W        W74728  34.134  32.448  12.005
 2469W        W74729  44.415  23.500   3.780
 2470W        W74730  14.029  20.778   3.382
 2471W        W74731  24.401  15.546  14.294
 2472W        W74732  14.584   3.985  11.950
 2473W        W74733   7.217   4.475  11.129
 2474W        W74734  43.786  24.524  12.911
 2475W        W74735  38.290   0.457   2.134
 2476W        W74736  15.014  42.357  11.490
 2477W        W74737  32.478  17.567   2.930
 2478W        W74738  19.160  38.508   0.152
 2479W        W74739  14.164  22.902  14.375
 2480W        W74740  40.527  35.942  13.735
 2481W        W74741  36.967  39.277   2.339
 2482W        W74742  22.247   6.944   1.784
 2483W        W74743  21.957  26.085   4.128
 2484W        W74744  30.847   7.306  14.390
 2485W        W74745   1.781  35.603   4.413
 2486W        W74746  34.416  41.000   4.608
 2487W        W74747  42.299  11.365  14.895
 2488W        W74748   7.286   7.163  10.574
 2489W        W74749  38.116  40.843  12.043
 2490W        W74750  29.988   5.920  11.636
 2491W        W74751  24.710  35.455   3.674
 2492W        W74752  15.798  29.971   1.776
 2493W        W74753  15.817  24.331   5.176
 2494W        W74754  27.864  17.626  11.856
 2495W        W74755  29.001  16.692  13.392
 2496W        W74756  35.503  21.016  13.955
 2497W        W74757  14.127  21.581   2.393
 2498W        W74758   0.768   4.304   3.689
 2499W        W74759  30.402   1.283  14.379
 2500W        W74760  23.451  22.629   1.360
 2501W        W74761  14.371  19.183  12.918
 2502W        W74762  37.842  43.869  13.489
 2503W        W74763  28.039   3.040   0.409
 2504W        W74764  27.927   7.811   1.951
 2505W        W74765   8.224  27.881  13.587
 2506W        W74766  10.956   4.780   1.936
 2507W        W74767  25.478   9.174   4.763
 2508W        W74768  37.034  37.827   1.799
 2509W        W74769  13.579  36.313  14.915
 2510W        W74770   6.390  24.214   3.655
 2511W        W74771  33.045  14.072  13.436
 2512W        W74772   6.723  42.937  14.395
 2513W        W74773  40.888  40.018   2.627
 2514W        W74774   1.702  22.796   3.630
 2515W        W74775  35.453  30.584  13.150
 2516W        W74776  22.651  34.085  12.933
 2517W        W74777  21.262  22.980   4.147
 2518W        W74778  28.470  26.259  11.596
 2519W        W74779   4.265  21.701   2.325
 2520W        W74780  38.341   6.349  12.978
 2521W        W74781   3.691  41.450   4.653
 2522W        W74782   9.662  16.362   2.655
 2523W        W74783   1.326  30.940  12.150
 2524W        W74784  12.648  17.931   4.689
 2525W        W74785  13.153  40.997   3.752
 2526W        W74786  40.428  33.126   2.235
 2527W        W74787  12.250  30.642  14.364
 2528W        W74788  44.027  19.906   2.339
 2529W        W74789  40.560  17.539  10.706
 2530W        W74790  42.511  42.823  14.782
 2531W        W74791   6.311  36.673  11.941
 2532W        W74792  23.180   4.201  12.456
 2533W        W74793   3.992  29.509   1.816
 2534W        W74794  28.077  20.953  11.133
 2535W        W74795  33.352  36.934   1.658
 2536W        W74796  10.389  44.721   1.927
 2537W        W74797  38.513  42.240  13.494
 2538W        W74798   5.287   8.976  14.547
 2539W        W74799  15.246  17.176   9.823
 2540W        W74800  40.584  13.747   3.375
 2541W        W74801  21.150  14.413   3.396
 2542W        W74802  39.897   1.377  13.088
 2543W        W74803   0.501  40.794   2.089
 2544W        W74804  10.678  25.013  11.499
 2545W        W74805  27.011  35.336  12.958
 2546W        W74806  35.416  28.266   3.297
 2547W        W74807  26.712  25.199  11.604
 2548W        W74808  39.339  39.761  13.735
 2549W        W74809  38.636  24.890  11.675
 2550W        W74810   0.927  22.970  12.008
 2551W        W74811   5.506   3.440   1.319
 2552W        W74812   7.287  10.200   0.861
 2553W        W74813  23.241  22.220  13.399
 2554W        W74814   0.756   8.788  13.100
 2555W        W74815   8.517   2.890   0.111
 2556W        W74816   5.191  23.735  10.725
 2557W        W74817  38.950  21.784  12.897
 2558W        W74818  35.407   7.569  12.859
 2559W        W74819   9.332  29.485  10.680
 2560W        W74820  23.278   3.524  13.069
 2561W        W74821  16.773  29.640   3.039
 2562W        W74822  18.517   9.422   9.904
 2563W        W74823  14.476   2.789  13.071
 2564W        W74824  35.783  31.153  10.703
 2565W        W74825  40.441  37.284   3.589
 2566W        W74826   1.261   0.600   1.448
 2567W        W74827  22.516  11.214   4.231
 2568W        W74828   6.192  27.548   2.276
 2569W        W74829   6.917  27.076   4.730
 2570W        W74830  27.038  28.150  13.277
 2571W        W74831  40.771   0.504   0.142
 2572W        W74832   1.520  19.956   3.784
 2573W        W74833   2.161  36.013  12.867
 2574W        W74834  25.569  37.686   4.177
 2575W        W74835  17.170  25.037  12.099
 2576W        W74836   0.648   3.226  11.209
 2577W        W74837  19.802  23.025   2.851
 2578W        W74838  38.063  21.566  14.340
 2579W        W74839  23.364  28.444  10.561
 2580W        W74840  38.055  44.026  11.727
 2581W        W74841   2.206  12.674   3.188
 2582W        W74842  23.638  20.206  11.789
 2583W        W74843   5.549  18.288  11.373
 2584W        W74844  15.094  14.154   0.064
 2585W        W74845  38.930   4.153  13.609
 2586W        W74846   6.937  44.780  11.970
 2587W        W74847  28.436  38.273   1.399
 2588W        W74848   6.391  40.194   0.964
 2589W        W74849  37.077  30.187   2.720
 2590W        W74850  18.031  16.083   4.099
 2591W        W74851  14.430  36.079   2.276
 2592W        W74852   6.269  44.259   3.219
 2593W        W74853  20.293  36.392  12.463
 2594W        W74854  28.693  25.310  12.906
 2595W        W74855  12.168  31.968  12.797
 2596W        W74856   3.086  29.985   1.886
 2597W        W74857  25.603  30.394  11.093
 2598W        W74858  39.496  20.514   3.711
 2599W        W74859   0.354  37.475   4.594
 2600W        W74860  23.041  42.242   2.640
 2601W        W74861  29.880   3.231  11.260
 2602W        W74862  28.965   3.484   0.435
 2603W        W74863   8.694   9.672   3.382
 2604W        W74864   8.281  29.550   2.332
 2605W        W74865  18.488  23.847  13.505
 2606W        W74866  19.734   0.379  13.499
 2607W        W74867  36.827  37.422   2.768
 2608W        W74868  44.506  29.794   3.400
 2609W        W74869  26.941  10.679  12.374
 2610W        W74870  16.010  40.343  11.566
 2611W        W74871   2.052   6.220   0.514
 2612W        W74872  29.194  26.107  13.327
 2613W        W74873  10.992  44.344   3.752
 2614W        W74874   2.736  32.214   0.031
 2615W        W74875  22.155  31.909   2.372
 2616W        W74876  25.024   2.492  14.341
 2617W        W74877   5.410   0.603   4.535
 2618W        W74878   6.379  18.999   4.098
 2619W        W74879  35.435  21.732   3.891
 2620W        W74880  41.474   4.418   4.039
 2621W        W74881  23.626  13.168  10.741
 2622W        W74882   5.385  17.146   4.535
 2623W        W74883  41.430   5.145  13.285
 2624W        W74884  16.494  11.604   3.600
 2625W        W74885  38.892  28.313  12.439
 2626W        W74886   5.279  23.088  14.740
 2627W        W74887   9.541   5.146   0.484
 2628W        W74888  10.940  18.233  10.685
 2629W        W74889  25.647  35.869   3.095
 2630W        W74890  27.104  13.756   3.565
 2631W        W74891  31.884  10.036  12.541
 2632W        W74892  31.622   4.875   3.752
 2633W        W74893  41.466  26.514  14.734
 2634W        W74894  39.834  41.309   0.726
 2635W        W74895  33.064  35.356   4.760
 2636W        W74896  11.463  40.037  12.434
 2637W        W74897  16.239  20.623   2.096
 2638W        W74898  17.721   0.905  11.401
 2639W        W74899  24.423  14.666   0.504
 2640W        W74900   5.907  21.154  13.073
 2641W        W74901  40.003   4.800  11.953
 2642W        W74902  35.136  32.655   0.729
 2643W        W74903  28.409  40.678  10.921
 2644W        W74904  35.044  32.388   0.306
 2645W        W74905   4.648   1.222   4.245
 2646W        W74906  36.736   4.578   4.149
 2647W        W74907   9.774   5.482  10.707
 2648W        W74908   5.358  33.639   2.999
 2649W        W74909  26.695  41.948   1.103
 2650W        W74910   7.725  11.768  13.747
 2651W        W74911  25.008   8.577  12.467
 2652W        W74912  42.409  13.242   2.164
 2653W        W74913  28.634  13.745   4.089
 2654W        W74914  37.993  34.264   4.121
 2655W        W74915  24.175  37.495  10.741
 2656W        W74916  39.346  22.304   2.434
 2657W        W74917  28.614  17.503   1.102
 2658W        W74918   1.530  19.922  14.599
 2659W        W74919  30.768  31.092  13.382
 2660W        W74920  34.081  16.780   4.113
 2661W        W74921  43.099  15.520  11.123
 2662W        W74922  44.348  19.598  10.465
 2663W        W74923   1.977  41.566   1.713
 2664W        W74924  44.225  10.560  11.251
 2665W        W74925   3.012   9.832   0.472
 2666W        W74926  14.229  27.631   1.110
 2667W        W74927  44.227  12.931   2.306
 2668W        W74928  36.487   7.237  14.993
 2669W        W74929  32.458  26.057   2.286
 2670W        W74930  44.846  15.665  11.763
 2671W        W74931  41.794  31.063   1.399
 2672W        W74932  30.906   8.869   4.271
 2673W        W74933  21.267   4.844  13.557
 2674W        W74934   8.591  40.968  13.859
 2675W        W74935   8.926  43.829  11.117
 2676W        W74936   8.324  21.489  14.368
 2677W        W74937   0.562  20.802  12.423
 2678W        W74938  14.359  16.052  12.932
 2679W        W74939  20.659  27.170   9.901
 2680W        W74940  15.254  41.024  14.522
 2681W        W74941  11.792  13.215   3.457
 2682W        W74942  28.486  11.702  13.089
 2683W        W74943  10.766  18.168   1.438
 2684W        W74944  44.704  19.667  13.294
 2685W        W74945  31.633  38.912   1.382
 2686W        W74946   6.369  38.907  12.009
 2687W        W74947   7.146  13.570  10.384
 2688W        W74948  19.887  18.045   2.191
 2689W        W74949   7.719  17.105   0.920
 2690W        W74950  21.564  26.402  14.960
 2691W        W74951  41.818  11.705  13.251
 2692W        W74952  20.501  31.032   0.390
 2693W        W74953  13.453   4.650   3.658
 2694W        W74954  39.591  22.448  10.861
 2695W        W74955  15.585  28.669   4.233
 2696W        W74956  43.902  11.801  11.712
 2697W        W74957  35.904  18.522  14.533
 2698W        W74958  16.462   2.800   2.269
 2699W        W74959  37.622  39.995  11.630
 2700W        W74960  22.715  15.937   0.195
 2701W        W74961   7.902  19.728   0.030
 2702W        W74962  28.955  15.778  10.733
 2703W        W74963  28.277   6.168   1.436
 2704W        W74964  10.449  13.775   2.747
 2705W        W74965  12.729  13.062   2.669
 2706W        W74966  35.949  22.179   4.590
 2707W        W74967  39.138   4.855  11.323
 2708W        W74968  12.170  31.457   4.895
 2709W        W74969  30.936  12.028  14.450
 2710W        W74970  25.238  16.607   3.600
 2711W        W74971  26.910  23.506   4.891
 2712W        W74972  40.475  29.653   1.150
 2713W        W74973  12.743  43.765   1.907
 2714W        W74974  12.049  15.939   1.479
 2715W        W74975   7.257  34.937  10.803
 2716W        W74976  29.371  18.151  14.319
 2717W        W74977   6.431  18.135   3.998
 2718W        W74978  32.174  10.058   0.951
 2719W        W74979  20.184  17.200   0.572
 2720W        W74980  11.619  19.118   1.598
 2721W        W74981   3.371   9.831   4.322
 2722W        W74982   7.764  30.405  10.497
 2723W        W74983   2.323  17.106  13.806
 2724W        W74984  17.127   6.754   2.551
 2725W        W74985   5.670  12.718   2.332
 2726W        W74986   3.995  25.931   5.534
 2727W        W74987   1.770   0.743   0.357
 2728W        W74988  31.673  22.109   3.972
 2729W        W74989  15.373   5.319   2.887
 2730W        W74990  24.046  42.863   1.435
 2731W        W74991   9.233  23.717   1.197
 2732W        W74992  10.247  21.843   1.224
 2733W        W74993  18.343  15.613  13.383
 2734W        W74994  37.136  27.198   3.658
 2735W        W74995  22.538  17.889  13.890
 2736W        W74996   0.841  35.427  12.126
 2737W        W74997  25.645  10.626   0.201
 2738W        W74998   7.401  15.758   2.356
 2739W        W74999  31.469  32.167  14.366
 2740W        W75000  13.340  19.460  14.943
 2741W        W75001   1.486   1.907   2.164
 2742W        W75002   9.970  43.800   4.413
 2743W        W75003  35.019  15.425   1.743
 2744W        W75004   9.907  12.245  11.640
 2745W        W75005  27.683  22.046   0.416
 2746W        W75006  24.915  14.253   1.191
 2747W        W75007  42.064  11.115   0.473
 2748W        W75008  28.420  18.828   0.821
 2749W        W75009  44.754  38.516  10.586
 2750W        W75010   4.951  21.550   0.220
 2751W        W75011   8.361  29.856  10.939
 2752W        W75012  23.351  22.628  11.731
 2753W        W75013   1.742   5.366   2.293
 2754W        W75014   1.244  25.820   0.777
 2755W        W75015   3.112   4.255   0.284
 2756W        W75016  36.837   1.655   3.721
 2757W        W75017  20.208   9.854  10.638
 2758W        W75018  21.076  40.406   1.264
 2759W        W75019  25.363  29.928  10.981
 2760W        W75020  43.880  13.941   0.019
 2761W        W75021  19.292  11.269   0.644
 2762W        W75022  27.464  25.001   0.374
 2763W        W75023   2.835  41.258  12.425
 2764W        W75024  15.901  43.870  13.022
 2765W        W75025  36.215  42.064   0.329
 2766W        W75026  35.488  20.229  13.452
 2767W        W75027   4.975  13.142  14.133
 2768W        W75028  37.103  12.392   1.395
 2769W        W75029  19.780  26.189   3.669
 2770W        W75030  36.577   1.918  12.871
 2771W        W75031  25.032  41.638  12.535
 2772W        W75032   4.290  15.787   0.198
 2773W        W75033  42.054   1.739  12.135
 2774W        W75034  36.501  14.533  12.607
 2775W        W75035  36.328  35.818  14.388
 2776W        W75036  37.056  40.098   2.757
 2777W        W75037  40.907  27.902  13.985
 2778W        W75038  33.609  17.704  10.827
 2779W        W75039  24.500  41.450   1.409
 2780W        W75040  43.460  29.460  13.473
 2781W        W75041  13.224  18.349   2.602
 2782W        W75042  21.204  43.585  14.513
 2783W        W75043  27.199  12.385   2.066
 2784W        W75044  26.849  39.290  12.895
 2785W        W75045  38.800  38.477  12.035
 2786W        W75046  11.665  14.812   0.963
 2787W        W75047   3.851  19.242  13.441
 2788W        W75048  15.074  22.011   2.320
 2789W        W75049  26.158  14.616   0.970
 2790W        W75050  39.796  33.521   0.803
 2791W        W75051  24.273  19.054  14.407
 2792W        W75052  33.583  12.245  14.739
 2793W        W75053  10.090  31.893  12.761
 2794W        W75054   3.731  20.165   0.941
 2795W        W75055   5.647  11.857   2.508
 2796W        W75056  10.144  40.525  14.478
 2797W        W75057   5.357  12.793   0.099
 2798W        W75058  11.259  13.401  12.460
 2799W        W75059   9.991   4.941   9.865
 2800W        W75060  18.474   6.984  11.547
 2801W        W75061  33.202  27.157   2.868
 2802W        W75062  17.260  14.889   2.255
 2803W        W75063  20.164   9.863   4.143
 2804W        W75064  23.708  28.050   1.824
 2805W        W75065  40.947  27.770  11.195
 2806W        W75066  28.103   9.725   2.958
 2807W        W75067   5.567  25.574   5.401
 2808W        W75068  32.863   1.794  12.465
 2809W        W75069   6.660  19.124  11.798
 2810W        W75070  43.211   9.382   3.631
 2811W        W75071   3.605  43.804   0.667
 2812W        W75072   3.996  21.123   4.495
 2813W        W75073   4.548  33.019  12.137
 2814W        W75074  14.296  31.209   1.872
 2815W        W75075  17.562   5.976   5.508
 2816W        W75076  15.148   1.018   4.144
 2817W        W75077   9.853  30.547  11.024
 2818W        W75078  20.802  29.125   1.211
 2819W        W75079  12.727  37.070   4.745
 2820W        W75080  11.696  23.098   0.885
 2821W        W75081  22.556  35.039   4.600
 2822W        W75082  34.996  38.600   1.324
 2823W        W75083  31.832  31.822  14.426
 2824W        W75084  41.652  35.279  11.928
 2825W        W75085   2.904  41.385   2.754
 2826W        W75086   4.132  14.850  13.015
 2827W        W75087  18.200   9.146  14.739
 2828W        W75088   4.943  13.678  11.580
 2829W        W75089  35.576   1.164   3.676
 2830W        W75090  43.644  14.214   1.859
 2831W        W75091  24.233  29.556  10.816
 2832W        W75092  27.492   1.710   4.239
 2833W        W75093  17.700   7.810   1.594
 2834W        W75094  20.446   0.388  12.091
 2835W        W75095  38.523  33.496   1.974
 2836W        W75096  25.128  22.218   1.866
 2837W        W75097   3.408   4.567  11.845
 2838W        W75098  39.916  10.920   1.973
 2839W        W75099   1.784  18.492   4.573
 2840W        W75100  39.634  24.579   4.298
 2841W        W75101   7.207   6.758   1.190
 2842W        W75102   3.630  23.262   1.696
 2843W        W75103  36.257  42.721  11.644
 2844W        W75104  32.580   4.412  11.425
 2845W        W75105  28.660  16.973   3.776
 2846W        W75106  29.615   0.420   0.384
 2847W        W75107  32.810  34.047  11.759
 2848W        W75108  33.154  34.925  11.108
 2849W        W75109  11.571  10.486  12.697
 2850W        W75110  39.446  30.741   3.654
 2851W        W75111  15.751  37.520   2.778
 2852W        W75112  38.456   5.486   1.034
 2853W        W75113  27.436  15.552  13.397
 2854W        W75114  38.823  33.493   3.546
 2855W        W75115  34.564  33.388   0.942
 2856W        W75116  40.923   1.811   3.339
 2857W        W75117  14.176  18.451  11.449
 2858W        W75118  26.349  18.544   4.219
 2859W        W75119  26.676   8.567  12.668
 2860W        W75120  33.600  15.886   3.652
 2861W        W75121  26.967  25.938  11.211
 2862W        W75122   5.202   9.357  13.119
 2863W        W75123  22.323  15.278   4.917
 2864W        W75124  10.265  41.816   9.976
 2865W        W75125  41.415   0.182   2.886
 2866W        W75126  28.020  18.332   4.678
 2867W        W75127  25.766  16.966  12.011
 2868W        W75128  12.573  29.062   1.605
 2869W        W75129  40.072  14.375   0.242
 2870W        W75130  27.459  10.083   4.076
 2871W        W75131  22.224   5.717   2.184
 2872W        W75132  34.056  18.237  10.721
 2873W        W75133  38.764  38.434   5.001
 2874W        W75134   5.966  17.951   4.837
 2875W        W75135  12.147  21.575  11.177
 2876W        W75136   3.082  41.274  11.568
 2877W        W75137  33.560  14.162   2.683
 2878W        W75138  33.788  35.816   0.066
 2879W        W75139  31.991  28.459   0.043
 2880W        W75140  37.803  42.066   3.005
 2881W        W75141  34.876   3.853  11.462
 2882W        W75142   5.655   3.322   4.106
 2883W        W75143  14.713  31.000   0.971
 2884W        W75144   4.330  16.600   4.789
 2885W        W75145  24.470  20.677  14.377
 2886W        W75146   3.768  15.069  12.521
 2887W        W75147  42.768  16.868   2.770
 2888W        W75148  21.694   0.980   1.068
 2889W        W75149  29.886  35.810  14.788
 2890W        W75150  31.421  27.699  11.674
 2891W        W75151   4.919  14.186  11.884
 2892W        W75152  22.382  14.214   2.945
 2893W        W75153  18.229  24.646  12.549
 2894W        W75154  18.947  10.424   4.115
 2895W        W75155  16.651  33.375  14.974
 2896W        W75156  16.583  31.881  11.229
 2897W        W75157  28.864  14.210   1.946
 2898W        W75158  26.120  43.066  12.181
 2899W        W75159  36.877  42.278  12.058
 2900W        W75160  10.443  14.786   3.534
 2901W        W75161  25.778   8.178   0.472
 2902W        W75162  37.322   3.298  14.543
 2903W        W75163  18.235  13.327  12.040
 2904W        W75164  20.280   7.361  11.623
 2905W        W75165  21.482   8.895   0.742
 2906W        W75166  35.502  38.426  14.401
 2907W        W75167  27.009  15.731   4.340
 2908W        W75168  10.660  37.227  14.320
 2909W        W75169  43.455  20.041  10.758
 2910W        W75170   5.717  14.357   1.862
 2911W        W75171  17.664   4.072  12.096
 2912W        W75172  30.728  28.674   4.146
 2913W        W75173  23.516  37.658  14.851
 2914W        W75174   3.385  20.698  11.948
 2915W        W75175  11.853  13.221   3.953
 2916W        W75176  25.079  11.263   1.413
 2917W        W75177  37.082  12.124  11.609
 2918W        W75178  20.278  21.229   0.901
 2919W        W75179  20.117   9.712   1.379
 2920W        W75180  36.825   4.745   1.723
 2921W        W75181  21.050  32.121  11.219
 2922W        W75182  37.558  32.224   2.181
 2923W        W75183   5.006  13.660   3.755
 2924W        W75184   5.693   9.191  13.876
 2925W        W75185  36.600  14.178   4.581
 2926W        W75186   5.201   4.255  12.632
 2927W        W75187  24.650  34.641   0.801
 2928W        W75188  17.130  18.112  12.110
 2929W        W75189  21.035  23.757   3.708
 2930W        W75190  26.658  14.942   0.009
 2931W        W75191  11.587  37.546   2.379
 2932W        W75192  11.735  12.098   4.627
 2933W        W75193  42.987  25.103  14.042
 2934W        W75194  26.264  20.060   4.234
 2935W        W75195  22.217  20.471   4.087
 2936W        W75196  39.046  32.480   2.714
 2937W        W75197  11.462  19.500   1.212
 2938W        W75198  21.314  20.725   4.220
 2939W        W75199   0.695  31.941   1.470
 2940W        W75200  44.949  36.639  14.323
 2941W        W75201  44.669  37.452  14.788
 2942W        W75202  36.811  16.674   0.367
 2943W        W75203   0.272  44.008   2.894
 2944W        W75204   8.405  19.823  12.504
 2945W        W75205  11.627   0.281  13.090
 2946W        W75206  29.458   8.843   0.687
 2947W        W75207  16.701  18.580  14.522
 2948W        W75208  18.909  42.816  14.172
 2949W        W75209   9.246  41.851  10.667
 2950W        W75210  30.135   8.589   4.085
 2951W        W75211  23.759  19.078   2.204
 2952W        W75212  28.680  41.422   1.691
 2953W        W75213   5.734  29.432  13.497
 2954W        W75214  15.701  36.004   2.833
 2955W        W75215  33.986  18.775  12.328
 2956W        W75216   0.658  29.561   0.378
 2957W        W75217  29.245   4.690  14.480
 2958W        W75218  40.115   4.458   0.892
 2959W        W75219  23.671  29.029   2.251
 2960W        W75220  14.654   6.486  11.341
 2961W        W75221  39.404  39.263  11.714
 2962W        W75222   1.239   9.608  11.967
 2963W        W75223   9.743  35.426  13.082
 2964W        W75224  17.589   3.392   4.356
 2965W        W75225  18.761  43.326  12.227
 2966W        W75226  12.449   0.638   1.962
 2967W        W75227  29.253  11.236  14.804
 2968W        W75228  10.339  27.952  10.661
 2969W        W75229  23.737   7.730  12.507
 2970W        W75230   8.813  35.981  12.360
 2971W        W75231  25.204  19.265   1.883
 2972W        W75232  18.767  24.262  12.731
 2973W        W75233   4.894  35.110   3.089
 2974W        W75234  43.947  17.421   0.158
 2975W        W75235  19.120  26.722   3.349
 2976W        W75236  42.705   1.908  12.387
 2977W        W75237  13.238  29.560  11.260
 2978W        W75238   0.262  25.014  13.538
 2979W        W75239  15.664  42.524   1.818
 2980W        W75240  44.397  42.745   3.305
 2981W        W75241  10.646   1.935   2.195
 2982W        W75242  16.318  36.572  13.052
 2983W        W75243  27.977  14.028   4.274
 2984W        W75244  22.827  16.819  13.447
 2985W        W75245  26.985  26.539  14.788
 2986W        W75246  17.096  44.684  14.428
 2987W        W75247  24.197   2.809  11.495
 2988W        W75248  32.793   3.580   0.348
 2989W        W75249  42.288  28.143  12.802
 2990W        W75250  44.494   3.509  13.805
 2991W        W75251   9.420  37.008  14.704
 2992W        W75252  41.485   4.634  12.585
 2993W        W75253  41.367   6.594   0.706
 2994W        W75254   4.768   7.483   3.354
 2995W        W75255  29.274  22.593  12.069
 2996W        W75256  42.009   8.822   1.985
 2997W        W75257  41.597  10.343  13.620
 2998W        W75258  16.841  15.208   3.304
 2999W        W75259   3.446  29.620  14.407
 3000W        W75260   6.349  37.432   4.038
 3001W        W75261  31.451  31.415   5.474
 3002W        W75262  33.638  16.574  14.813
 3003W        W75263  39.667  37.282   3.855
 3004W        W75264   2.148  38.907   0.988
 3005W        W75265  42.556  19.170  13.962
 3006W        W75266  34.994  41.311  12.895
 3007W        W75267   8.029  20.299  13.366
 3008W        W75268  24.321   5.726   3.911
 3009W        W75269  24.016  32.163  11.644
 3010W        W75270  40.557  10.204   0.028
 3011W        W75271  31.902   2.272  13.816
 3012W        W75272  28.273  27.558   1.628
 3013W        W75273  26.139  15.110   0.781
 3014W        W75274  33.908  13.442   4.768
 3015W        W75275  21.032  15.735   3.641
 3016W        W75276  11.747  11.250   1.182
 3017W        W75277   6.354  44.832   3.312
 3018W        W75278  20.397  30.573   0.714
 3019W        W75279  44.325  24.426  14.911
 3020W        W75280   7.356  10.546   2.819
 3021W        W75281  44.766  39.426  11.933
 3022W        W75282  25.119   2.351   0.891
 3023W        W75283  30.930   1.322   3.025
 3024W        W75284  36.574  28.704  13.410
 3025W        W75285  22.703  14.762   0.156
 3026W        W75286  43.800   8.937  12.003
 3027W        W75287  41.365  17.286  14.782
 3028W        W75288  40.103  26.729   1.386
 3029W        W75289  29.162  34.284   4.056
 3030W        W75290   5.272  44.145   3.745
 3031W        W75291  35.929  21.003   5.195
 3032W        W75292  24.757  44.880  10.685
 3033W        W75293  14.610   8.410   3.773
 3034W        W75294  26.957  12.832   3.369
 3035W        W75295  34.395  41.797  13.338
 3036W        W75296  14.561   4.860  14.944
 3037W        W75297  20.251  32.954   3.155
 3038W        W75298   0.753   8.855   2.968
 3039W        W75299  31.174  11.852   4.173
 3040W        W75300  19.348  43.254   2.309
 3041W        W75301  25.617  29.008  14.638
 3042W        W75302  38.066  25.756   3.366
 3043W        W75303  30.430  21.337   3.266
 3044W        W75304  43.948   0.461   0.027
 3045W        W75305   0.936   8.139   1.926
 3046W        W75306  24.922  30.447  10.481
 3047W        W75307  10.426  39.367  11.102
 3048W        W75308  15.638  24.281   4.671
 3049W        W75309  13.258  17.759   2.967
 3050W        W75310  27.412  13.487  14.156
 3051W        W75311  38.772   6.733   2.655
 3052W        W75312  31.188  35.423  12.555
 3053W        W75313  41.726   4.318  13.409
 3054W        W75314  24.792  36.163  10.820
 3055W        W75315  24.526   3.209   2.839
 3056W        W75316  33.385   7.655   4.188
 3057W        W75317  41.430  43.236   0.199
 3058W        W75318  44.287  44.974   2.776
 3059W        W75319   0.331  32.296   4.795
 3060W        W75320  17.337  12.237  14.028
 3061W        W75321  37.463  34.097   3.194
 3062W        W75322  22.622  39.595   3.097
 3063W        W75323  33.850  27.570   1.862
 3064W        W75324  42.963  32.958  13.732
 3065W        W75325  12.602   3.968   0.752
 3066W        W75326  42.385  44.989  14.552
 3067W        W75327  37.017  20.118   4.551
 3068W        W75328  39.518  39.119   1.771
 3069W        W75329  15.288  42.533  14.463
 3070W        W75330  26.645  32.575   2.930
 3071W        W75331  19.349  16.962   3.293
 3072W        W75332   6.361   1.172   4.901
 3073W        W75333  28.096  35.102   1.721
 3074W        W75334  23.165   9.216  12.385
 3075W        W75335  34.669   6.796   4.579
 3076W        W75336  26.682  34.768  10.153
 3077W        W75337  24.455  43.076  14.438
 3078W        W75338  28.005   7.661  13.284
 3079W        W75339  18.016  30.929   2.180
 3080W        W75340  28.395   4.487   0.928
 3081W        W75341  14.275  42.075  14.553
 3082W        W75342  10.267  28.743   2.364
 3083W        W75343  24.453  38.771   1.996
 3084W        W75344   6.148  39.455  12.472
 3085W        W75345  10.425  40.295  12.125
 3086W        W75346  12.324   5.147   4.148
 3087W        W75347   2.739  31.196  13.974
 3088W        W75348  37.018  39.067  10.638
 3089W        W75349  10.770  35.289   4.604
 3090W        W75350  21.787  33.347  14.534
 3091W        W75351  27.227  30.206   4.135
 3092W        W75352  35.967  32.814   1.346
 3093W        W75353  30.469  22.858   0.722
 3094W        W75354  32.969   3.777  14.896
 3095W        W75355  12.879  37.949  14.254
 3096W        W75356  31.889  26.771   3.318
 3097W        W75357  42.454  43.431   0.757
 3098W        W75358  17.190   4.102   2.259
 3099W        W75359  18.194  13.916   2.350
 3100W        W75360  40.278  34.580  12.664
 3101W        W75361  44.335  11.820  14.449
 3102W        W75362  11.853  34.828  11.685
 3103W        W75363  36.373   0.495  14.908
 3104W        W75364  23.607  14.381  12.543
 3105W        W75365   4.486  40.812  12.041
 3106W        W75366   9.659  18.258   1.777
 3107W        W75367  33.887  28.664   1.734
 3108W        W75368   0.236  34.418  14.956
 3109W        W75369  12.264  21.145  10.938
 3110W        W75370  29.017  20.318   2.837
 3111W        W75371  28.359   3.332  11.462
 3112W        W75372  29.087  26.619   2.755
 3113W        W75373  24.514  29.037   4.151
 3114W        W75374  15.557  15.217  13.015
 3115W        W75375   1.211   2.238  11.237
 3116W        W75376  10.466  32.131  10.724
 3117W        W75377  35.753  26.448  10.671
 3118W        W75378  30.946  10.371   2.231
 3119W        W75379  19.836  39.939  13.238
 3120W        W75380  21.385  14.758   4.129
 3121W        W75381   6.034  18.854  11.632
 3122W        W75382  43.727  40.046  13.151
 3123W        W75383   5.190   0.616   0.413
 3124W        W75384  17.122  37.515   4.344
 3125W        W75385  22.919  10.361   1.862
 3126W        W75386   6.842  42.530   3.268
 3127W        W75387  42.285  29.395  14.634
 3128W        W75388  42.940  21.985   0.379
 3129W        W75389  34.154  18.672   9.814
 3130W        W75390   8.726  18.293   0.315
 3131W        W75391  38.761  26.880  12.617
 3132W        W75392  36.758  32.333   0.393
 3133W        W75393   1.746  37.780  13.936
 3134W        W75394  42.845  35.435   3.069
 3135W        W75395  19.662  10.898  11.179
 3136W        W75396  40.696  19.248  11.358
 3137W        W75397  33.511  25.031   3.676
 3138W        W75398  34.423  43.875   0.482
 3139W        W75399  22.996   5.173   2.669
 3140W        W75400  36.396   8.521  12.838
 3141W        W75401  36.868  14.707   3.736
 3142W        W75402  35.544  31.488   4.751
 3143W        W75403  27.658  41.484   2.290
 3144W        W75404   1.452  13.300  13.478
 3145W        W75405  36.272  36.803  14.311
 3146W        W75406   7.121  17.489   4.223
 3147W        W75407   1.531  21.234   0.006
 3148W        W75408  28.787  13.592  13.886
 3149W        W75409  42.901  13.876   2.896
 3150W        W75410  24.511  43.021   0.690
 3151W        W75411  26.925  21.015   3.720
 3152W        W75412  37.086   3.182   2.355
 3153W        W75413  16.507  21.788   1.321
 3154W        W75414  36.106  22.141  14.931
 3155W        W75415   9.144   5.660  11.957
 3156W        W75416  11.647   0.214   1.760
 3157W        W75417  17.056  37.025   1.776
 3158W        W75418  39.473  25.303  12.241
 3159W        W75419  29.372  19.687   3.637
 3160W        W75420   0.474   4.827   4.760
 3161W        W75421  34.907  38.123  11.035
 3162W        W75422  13.196   1.423  14.860
 3163W        W75423  15.712  27.008   4.585
 3164W        W75424   5.887  40.055   3.603
 3165W        W75425  28.592   6.782  13.421
 3166W        W75426  39.106  29.993  11.877
 3167W        W75427  15.406  31.966  11.886
 3168W        W75428  26.029  29.529   4.501
 3169W        W75429  10.071   2.891   3.570
 3170W        W75430  19.772   4.731   1.707
 3171W        W75431  19.149   4.085  10.592
 3172W        W75432  18.250   4.840   1.862
 3173W        W75433   9.644  40.666   0.893
 3174W        W75434   1.385  15.385  12.570
 3175W        W75435  13.248  22.001   4.551
 3176W        W75436   7.433  32.298   3.714
 3177W        W75437  24.715   0.300   0.389
 3178W        W75438  17.602   6.631   3.354
 3179W        W75439  23.077  11.041  13.451
 3180W        W75440  16.811  14.986  10.202
 3181W        W75441   4.475  43.014  10.902
 3182W        W75442  10.226   8.931   1.715
 3183W        W75443  43.361  32.253  14.769
 3184W        W75444  31.264  22.122   3.665
 3185W        W75445  33.631   9.506   0.652
 3186W        W75446  35.883  16.857  13.038
 3187W        W75447   8.277  29.393   0.767
 3188W        W75448  39.612   4.299   0.894
 3189W        W75449  31.640  20.474   2.238
 3190W        W75450  11.513  14.084  10.237
 3191W        W75451  36.377  17.073  11.118
 3192W        W75452  33.340   2.549  14.999
 3193W        W75453   4.626  28.255  10.158
 3194W        W75454   9.902  29.200  14.402
 3195W        W75455  16.949   2.833  14.402
 3196W        W75456  14.604  28.326   9.784
 3197W        W75457  20.680   2.961  13.863
 3198W        W75458  32.504  11.838  12.322
 3199W        W75459  24.415  22.697  10.692
 3200W        W75460  10.166  32.834  12.913
 3201W        W75461  24.998   6.953   1.605
 3202W        W75462   5.657   1.922  14.917
 3203W        W75463  38.371  29.983  12.493
 3204W        W75464  27.426  20.208   1.389
 3205W        W75465   4.481  19.365   1.529
 3206W        W75466   4.270  25.662   0.832
 3207W        W75467  43.229  25.598   3.337
 3208W        W75468  33.606  28.070   4.157
 3209W        W75469  20.996  13.510   2.606
 3210W        W75470   7.276  30.718  13.055
 3211W        W75471  33.928  23.099   1.415
 3212W        W75472  31.494  38.804  10.664
 3213W        W75473  10.898  39.366  13.950
 3214W        W75474  40.545  35.931   3.288
 3215W        W75475  24.306  37.778  13.491
 3216W        W75476   7.806  18.357  10.831
 3217W        W75477  14.624  39.178  11.793
 3218W        W75478  34.608  28.409   1.039
 3219W        W75479  34.221   5.449   3.389
 3220W        W75480  17.726  32.049   4.253
 3221W        W75481  38.803  40.188   2.371
 3222W        W75482  34.665  33.081  14.973
 3223W        W75483  11.370  10.048  14.703
 3224W        W75484   6.874  16.434  14.122
 3225W        W75485  29.106  15.283   0.877
 3226W        W75486   5.403  26.161   3.858
 3227W        W75487   2.460  10.734  13.471
 3228W        W75488  28.890  20.799   2.680
 3229W        W75489  18.826  14.773  11.886
 3230W        W75490  36.892  37.103  13.069
 3231W        W75491  27.560  32.558  11.511
 3232W        W75492   5.229  20.663  13.272
 3233W        W75493   1.816   2.283  11.946
 3234W        W75494  11.167   4.386   3.165
 3235W        W75495  13.721  19.128  11.653
 3236W        W75496  37.483  23.596   2.556
 3237W        W75497   0.162   2.801   2.338
 3238W        W75498  41.162  16.094  14.237
 3239W        W75499  25.420  14.729  14.557
 3240W        W75500  24.572  22.243   3.159
 3241W        W75501  17.154  27.579  13.196
 3242W        W75502  27.615  28.534  13.783
 3243W        W75503  35.387   4.106  12.093
 3244W        W75504   2.153  23.050  12.811
 3245W        W75505  41.428  19.704   1.698
 3246W        W75506  14.483  32.362  11.988
 3247W        W75507  23.504  13.259  12.189
 3248W        W75508  21.113  28.428  11.469
 3249W        W75509  42.939  17.706   4.368
 3250W        W75510  37.937  31.536  10.615
 3251W        W75511  13.052  30.564  13.861
 3252W        W75512   6.272  22.691  13.915
 3253W        W75513  33.881   9.609  12.029
 3254W        W75514  15.627  24.265  11.234
 3255W        W75515  11.771  34.334   4.561
 3256W        W75516  20.196  32.476  14.522
 3257W        W75517  34.030  30.299  13.539
 3258W        W75518  41.591   0.929  10.581
 3259W        W75519  18.076  31.801  13.416
 3260W        W75520  34.565   0.211   3.184
 3261W        W75521  24.371  25.988  12.130
 3262W        W75522   2.361   7.939  13.560
 3263W        W75523  12.684  31.877   3.231
 3264W        W75524   6.673  30.111  14.961
 3265W        W75525  24.446  39.577   2.420
 3266W        W75526  34.606  14.870   0.983
 3267W        W75527  29.367  41.031  12.958
 3268W        W75528  12.492  13.046   3.276
 3269W        W75529  13.099  18.678   3.940
 3270W        W75530  19.676   9.091   3.487
 3271W        W75531  23.641  30.973   2.756
 3272W        W75532  13.639  13.256   2.206
 3273W        W75533  15.813  20.540   3.652
 3274W        W75534  40.124  27.614  10.917
 3275W        W75535  21.337   7.815  14.291
 3276W        W75536  18.100  25.160   0.894
 3277W        W75537  33.047  19.739   9.568
 3278W        W75538  27.881   2.427   0.870
 3279W        W75539  13.050  20.697   4.263
 3280W        W75540  37.776  36.852  14.026
 3281W        W75541  35.788  26.857   2.267
 3282W        W75542  24.044  28.805  14.456
 3283W        W75543   5.175  35.596   1.944
 3284W        W75544  19.794   0.878   1.361
 3285W        W75545  24.452  32.922  10.508
 3286W        W75546   7.379  16.567   4.086
 3287W        W75547  22.593  39.326   9.650
 3288W        W75548  34.798  41.348   0.880
 3289W        W75549  29.211   0.483   4.090
 3290W        W75550  29.434  29.581   0.230
 3291W        W75551  35.843  43.097  11.576
 3292W        W75552  31.958  26.263   3.135
 3293W        W75553  31.925  34.503   3.836
 3294W        W75554  39.911  34.998   3.324
 3295W        W75555  33.789   3.567   9.988
 3296W        W75556  12.706   2.791   2.299
 3297W        W75557  29.552   1.220  11.040
 3298W        W75558  15.136  33.062  12.120
 3299W        W75559  13.256  15.309   2.892
 3300W        W75560  32.962  30.561  14.049
 3301W        W75561   6.129   2.500  12.350
 3302W        W75562   7.382  34.921  14.832
 3303W        W75563  31.521  40.695  10.701
 3304W        W75564   5.857  39.840  13.353
 3305W        W75565   4.374   4.112   0.760
 3306W        W75566  20.527  15.783   0.755
 3307W        W75567  20.322  19.612  12.871
 3308W        W75568   7.258  17.574  12.924
 3309W        W75569  35.274  15.074  13.460
 3310W        W75570  34.318  24.192   4.085
 3311W        W75571  32.428   7.173   4.149
 3312W        W75572  11.931  32.433  13.422
 3313W        W75573  36.099  18.831  10.998
 3314W        W75574  33.248  18.324  11.464
 3315W        W75575  22.535   3.867  13.486
 3316W        W75576  41.555   7.757   0.268
 3317W        W75577  22.795  39.123   3.189
 3318W        W75578  32.523  16.784  11.137
 3319W        W75579   4.173   8.864   0.737
 3320W        W75580  11.909  14.694   1.401
 3321W        W75581  21.656  44.336  11.948
 3322W        W75582   6.025  41.682   5.061
 3323W        W75583  26.541  21.701   1.766
 3324W        W75584  41.071  25.213   4.938
 3325W        W75585  27.202  27.036   1.975
 3326W        W75586  29.337  12.309   3.531
 3327W        W75587  43.896   4.785  12.272
 3328W        W75588   9.233  30.460  10.191
 3329W        W75589  22.605  43.933   3.207
 3330W        W75590  41.824   5.776   3.767
 3331W        W75591  41.460   9.301  13.011
 3332W        W75592   3.271  37.868  12.613
 3333W        W75593  36.011  10.265   3.410
 3334W        W75594  24.181  24.642   0.308
 3335W        W75595  32.628  43.761   0.065
 3336W        W75596  27.023  42.409  10.904
 3337W        W75597   1.910   5.472  10.676
 3338W        W75598   3.973  36.695   3.769
 3339W        W75599  38.948  26.348  11.432
 3340W        W75600  10.346   8.173  10.721
 3341W        W75601  27.996  34.440  13.985
 3342W        W75602  28.559  40.019   0.771
 3343W        W75603  33.659  38.826   2.215
 3344W        W75604   2.719  29.053  13.546
 3345W        W75605  20.465  32.331   4.602
 3346W        W75606  19.192  10.301   2.801
 3347W        W75607  13.343  12.174  14.853
 3348W        W75608  43.626  33.557   1.805
 3349W        W75609  16.686  26.080  14.356
 3350W        W75610   2.695  21.106  13.884
 3351W        W75611  12.320  37.677   1.287
 3352W        W75612  18.769  17.245   2.669
 3353W        W75613  18.801  19.460   0.415
 3354W        W75614  30.106  29.841  14.128
 3355W        W75615  27.002   4.694   3.091
 3356W        W75616  36.401   8.444  11.961
 3357W        W75617  22.497  16.249   3.881
 3358W        W75618  43.317  24.183   1.123
 3359W        W75619  17.148  19.025  10.129
 3360W        W75620  32.627  42.958   3.480
 3361W        W75621  25.963  19.831  11.110
 3362W        W75622  24.700  16.960  13.362
 3363W        W75623  40.228  38.263  13.841
 3364W        W75624  21.130  34.114  12.911
 3365W        W75625  26.472  39.785   3.027
 3366W        W75626  17.640   9.230  10.982
 3367W        W75627  22.366   8.605  11.886
 3368W        W75628  26.889  29.121  13.641
 3369W        W75629  38.093  20.231   3.712
 3370W        W75630   2.957  23.577  14.838
 3371W        W75631  37.851  27.474  11.995
 3372W        W75632  44.622  10.652  13.210
 3373W        W75633  39.234  40.316   4.141
 3374W        W75634  42.316  44.701   0.440
 3375W        W75635   4.342   9.369   2.907
 3376W        W75636  35.006   9.486  12.892
 3377W        W75637  26.659  30.145   4.823
 3378W        W75638   9.418  33.116  12.238
 3379W        W75639  15.944  32.757   1.974
 3380W        W75640   5.713  25.766   4.442
 3381W        W75641  39.958   4.850   4.594
 3382W        W75642   8.655  33.056   3.686
 3383W        W75643  23.414  27.777  11.976
 3384W        W75644  39.969  10.606  11.580
 3385W        W75645  11.803  12.571  10.731
 3386W        W75646  39.077  32.505  13.038
 3387W        W75647  30.432   4.571  14.625
 3388W        W75648   5.129  13.135  14.781
 3389W        W75649  12.311  15.357   3.711
 3390W        W75650  42.830  30.229  13.769
 3391W        W75651   7.789  15.725   3.852
 3392W        W75652  42.712  30.439   4.146
 3393W        W75653   1.455  17.188   2.299
 3394W        W75654  21.813  32.528   4.206
 3395W        W75655  29.080  20.091   0.859
 3396W        W75656  17.125  29.266   2.114
 3397W        W75657  23.948   9.716  11.168
 3398W        W75658  20.598  21.595   0.667
 3399W        W75659  17.056  41.124  11.527
 3400W        W75660  42.648  18.090   1.825
 3401W        W75661  12.748  34.953  10.698
 3402W        W75662   5.464   7.298   2.351
 3403W        W75663  35.603  16.590  13.415
 3404W        W75664  12.618  35.427   1.292
 3405W        W75665  36.554  15.275  13.415
 3406W        W75666  30.450   3.458  13.493
 3407W        W75667  14.608  36.440  14.078
 3408W        W75668  12.295  30.900  10.324
 3409W        W75669   3.023  36.216  14.427
 3410W        W75670   2.209  33.442  11.187
 3411W        W75671  33.293  32.848  10.734
 3412W        W75672   4.328  38.584   2.640
 3413W        W75673  25.379  28.931   2.263
 3414W        W75674  28.708   2.535  11.645
 3415W        W75675   1.399  26.967  14.098
 3416W        W75676  35.035  22.005   1.968
 3417W        W75677  15.036  36.009   3.390
 3418W        W75678   0.421  17.093   3.910
 3419W        W75679  23.687  14.944   4.433
 3420W        W75680  30.024  12.245  13.876
 3421W        W75681   2.441  18.838  12.378
 3422W        W75682  33.197   8.692   0.928
 3423W        W75683  23.004  31.898   3.304
 3424W        W75684  17.596  27.116   0.279
 3425W        W75685  12.662   4.491   3.776
 3426W        W75686  16.053  20.302  12.074
 3427W        W75687  36.143  23.005  10.725
 3428W        W75688  35.314   4.443  12.904
 3429W        W75689   9.681  39.271   2.643
 3430W        W75690  34.040  29.040  10.646
 3431W        W75691   6.904  41.835  11.652
 3432W        W75692  23.569  22.128   1.193
 3433W        W75693  24.560  44.966  11.504
 3434W        W75694  34.067  42.460   1.479
 3435W        W75695  34.554  42.561   2.735
 3436W        W75696  12.765  35.151   0.874
 3437W        W75697   0.397   2.758   0.314
 3438W        W75698  33.415  12.540  11.747
 3439W        W75699   4.616  29.959  13.246
 3440W        W75700  21.163  39.123  12.001
 3441W        W75701  11.817  26.025  11.651
 3442W        W75702  30.124  32.076   4.719
 3443W        W75703  17.162  16.292  11.137
 3444W        W75704  40.319  22.147  14.709
 3445W        W75705  35.542   1.971   0.040
 3446W        W75706  18.556   1.205   1.865
 3447W        W75707   1.910   3.794  11.248
 3448W        W75708  18.036  31.026  14.306
 3449W        W75709  18.765  39.936  12.246
 3450W        W75710  22.427  24.633   2.259
 3451W        W75711  18.078  36.751  10.698
 3452W        W75712  16.830   4.281   0.360
 3453W        W75713  13.071   7.861  11.225
 3454W        W75714  43.082  43.229   4.232
 3455W        W75715   7.915  15.950   2.353
 3456W        W75716  36.753  10.251  10.637
 3457W        W75717   9.892   9.633  13.800
 3458W        W75718  37.362   3.327   1.927
 3459W        W75719  14.080   1.134   0.358
 3460W        W75720  13.115  14.699  13.598
 3461W        W75721  42.817  40.376  14.046
 3462W        W75722  11.196  15.058   4.663
 3463W        W75723   0.915  36.011  13.539
 3464W        W75724  13.600  12.684   4.900
 3465W        W75725  32.075  41.794  13.389
 3466W        W75726  10.604  14.723   0.839
 3467W        W75727   6.897  14.545   1.409
 3468W        W75728  11.616   4.531  13.455
 3469W        W75729  29.629  13.293  11.500
 3470W        W75730  13.872  19.266  14.590
 3471W        W75731   8.269   0.218  12.628
 3472W        W75732  19.567  22.601  12.171
 3473W        W75733  21.215  35.543  11.579
 3474W        W75734  30.908  38.860   1.745
 3475W        W75735  17.239  43.933   1.227
 3476W        W75736  36.452  44.494  12.477
 3477W        W75737  15.427  44.367   3.242
 3478W        W75738   3.872  39.041  14.291
 3479W        W75739  19.454  21.158   4.106
 3480W        W75740   9.605   5.703  14.478
 3481W        W75741   4.282  24.417  11.431
 3482W        W75742   4.245  20.808   2.721
 3483W        W75743  23.600  35.139  10.724
 3484W        W75744  36.934  32.095  12.940
 3485W        W75745   6.727  17.214   0.771
 3486W        W75746  35.998  11.604  11.548
 3487W        W75747  10.137  40.306   3.504
 3488W        W75748  41.059  43.985  14.901
 3489W        W75749   6.219   0.631   0.354
 3490W        W75750  34.843  17.020   0.105
 3491W        W75751  23.130  43.944  11.337
 3492W        W75752  12.548  17.965   1.042
 3493W        W75753  10.283  23.992   3.604
 3494W        W75754  33.404   7.687   4.714
 3495W        W75755  26.119  30.967  12.522
 3496W        W75756  29.034  44.993  12.461
 3497W        W75757  30.985  30.932  10.720
 3498W        W75758  25.348  15.733   4.448
 3499W        W75759  23.063   5.917  11.993
 3500W        W75760   7.883  43.724  11.052
 3501W        W75761  28.235  26.587  10.137
 3502W        W75762   6.944  18.059   1.863
 3503W        W75763  14.502  35.336  14.017
 3504W        W75764  34.655  16.078   2.378
 3505W        W75765  16.544  42.346  12.421
 3506W        W75766   2.058  28.665   2.796
 3507W        W75767  30.799  32.631   5.223
 3508W        W75768  20.636   7.654  10.410
 3509W        W75769   9.087   5.296   4.153
 3510W        W75770   0.344  35.970  14.012
 3511W        W75771   3.215  18.609   1.437
 3512W        W75772  25.510  21.631   2.669
 3513W        W75773  12.688  30.692  12.994
 3514W        W75774   0.083  18.911   4.248
 3515W        W75775  35.824  16.832  11.190
 3516W        W75776  29.707  23.460  13.084
 3517W        W75777  40.401   9.223  13.031
 3518W        W75778  40.536  38.330   3.375
 3519W        W75779  36.809   2.028  11.996
 3520W        W75780   3.926  14.091   1.259
 3521W        W75781   6.873  33.469   1.962
 3522W        W75782  30.378  26.994  11.973
 3523W        W75783  25.633  10.428   2.208
 3524W        W75784  29.719  21.986   1.777
 3525W        W75785  26.031  43.962  14.517
 3526W        W75786  33.130   4.833   1.842
 3527W        W75787  26.503  12.166  12.852
 3528W        W75788  30.499  33.609  11.176
 3529W        W75789  37.986  24.314  10.714
 3530W        W75790   5.764  40.515  11.678
 3531W        W75791  11.685   0.347   0.544
 3532W        W75792  36.369  25.134  10.404
 3533W        W75793  26.960  21.122  12.418
 3534W        W75794  15.660  22.167  14.732
 3535W        W75795  29.190  23.106  14.459
 3536W        W75796   7.294  44.415   3.315
 3537W        W75797  11.354  13.796   2.873
 3538W        W75798  36.758  41.913   4.373
 3539W        W75799  16.527   5.788  11.466
 3540W        W75800   8.086  27.535  14.452
 3541W        W75801  42.727   7.049   1.677
 3542W        W75802  32.871  26.057  13.151
 3543W        W75803   4.165  16.799  14.505
 3544W        W75804  44.805  42.021   1.242
 3545W        W75805   5.848   7.791  11.656
 3546W        W75806  33.474  20.466   3.420
 3547W        W75807   5.150  18.401   3.216
 3548W        W75808  19.211  37.888   0.882
 3549W        W75809  23.808  34.686  12.416
 3550W        W75810  33.620   7.120   9.796
 3551W        W75811  34.005  14.274   2.449
 3552W        W75812  39.958  21.550   1.219
 3553W        W75813   0.979   0.708  11.295
 3554W        W75814  24.264  29.014  14.886
 3555W        W75815  37.562   4.343  11.818
 3556W        W75816   3.218   1.380   2.726
 3557W        W75817  40.480   2.556   3.830
 3558W        W75818  43.221  38.207  11.507
 3559W        W75819  37.003  20.211   5.044
 3560W        W75820   8.923  35.031   4.530
 3561W        W75821  37.277  29.033   4.069
 3562W        W75822  18.388  29.484  12.040
 3563W        W75823  42.275  38.096   2.683
 3564W        W75824  44.152  18.036   9.978
 3565W        W75825  20.059   3.910   0.743
 3566W        W75826  42.226  21.379   2.176
 3567W        W75827  30.914   3.826  12.939
 3568W        W75828  25.701  30.611   3.738
 3569W        W75829  18.375   6.160  12.991
 3570W        W75830  13.314   8.933  12.895
 3571W        W75831   7.248   5.615   0.299
 3572W        W75832  31.066  33.610   2.231
 3573W        W75833   6.495   1.829   4.218
 3574W        W75834   4.424  14.326   1.301
 3575W        W75835   5.802  27.096   1.343
 3576W        W75836  31.625   4.835   1.040
 3577W        W75837   1.362  21.796   4.194
 3578W        W75838   5.450  11.190   3.692
 3579W        W75839   9.911  38.060  12.911
 3580W        W75840  24.987   2.865   0.314
 3581W        W75841  24.203  42.654   4.926
 3582W        W75842  27.624  18.598  14.844
 3583W        W75843  42.919  27.675  10.535
 3584W        W75844   0.105  10.234   4.014
 3585W        W75845  36.466   9.408  12.892
 3586W        W75846  20.244  24.491   1.956
 3587W        W75847  41.098  22.985  13.413
 3588W        W75848   3.971  20.244  12.425
 3589W        W75849  34.928  33.026   3.695
 3590W        W75850  29.191   4.973  10.240
 3591W        W75851  38.053  14.762   0.886
 3592W        W75852  35.334  17.013  14.856
 3593W        W75853  38.896   8.142   3.881
 3594W        W75854  27.048   0.643  13.526
 3595W        W75855  42.780  36.956   2.600
 3596W        W75856  32.498   6.001  12.075
 3597W        W75857   9.249   4.882   1.373
 3598W        W75858   2.828   6.209   3.880
 3599W        W75859  13.848   6.155   1.428
 3600W        W75860  19.832  25.092   4.282
 3601W        W75861   9.064  41.767   3.927
 3602W        W75862   9.950  38.669  10.199
 3603W        W75863   6.867  11.626   0.672
 3604W        W75864  13.283   0.248   2.997
 3605W        W75865  38.774  44.626   3.243
 3606W        W75866   3.951  16.661  13.374
 3607W        W75867   4.755  18.245  11.707
 3608W        W75868  28.702  20.200  11.804
 3609W        W75869  34.849  18.865   0.301
 3610W        W75870   6.838  40.041   2.370
 3611W        W75871  10.352  22.670   2.429
 3612W        W75872  35.909  40.106   1.624
 3613W        W75873  16.352  10.661   0.055
 3614W        W75874   6.333  36.952  14.379
 3615W        W75875  44.507  39.336   3.620
 3616W        W75876   6.736   9.600   4.142
 3617W        W75877  24.314  10.637   3.307
 3618W        W75878  26.133  27.027   3.162
 3619W        W75879  18.985  20.445   2.237
 3620W        W75880  42.132  13.748   0.244
 3621W        W75881  32.836  39.944  13.501
 3622W        W75882  11.436  17.808  14.838
 3623W        W75883  14.050   7.316  14.767
 3624W        W75884   8.400   5.776   2.434
 3625W        W75885  40.404  24.206   2.607
 3626W        W75886   7.157   0.235   0.131
 3627W        W75887  13.340  24.963  14.335
 3628W        W75888  22.717  18.357  14.789
 3629W        W75889  43.571  10.130  14.593
 3630W        W75890  14.690  28.567  14.367
 3631W        W75891  33.007  18.709   0.561
 3632W        W75892  34.066  21.373  14.188
 3633W        W75893  14.731  11.697  11.359
 3634W        W75894  14.299  26.173   3.886
 3635W        W75895  31.425  34.417   3.681
 3636W        W75896  29.001  39.936   4.362
 3637W        W75897  11.063   2.550   0.283
 3638W        W75898  25.989  35.627  11.143
 3639W        W75899   2.719   0.926  12.954
 3640W        W75900  12.725  28.683   0.742
 3641W        W75901  24.843  15.528  14.962
 3642W        W75902  19.226  13.228   2.766
 3643W        W75903  34.886  31.889  11.129
 3644W        W75904  13.019   7.375  14.287
 3645W        W75905  15.236  41.559  13.714
 3646W        W75906   2.835  37.443   4.711
 3647W        W75907  26.099  25.318  12.137
 3648W        W75908  11.626   8.584  10.950
 3649W        W75909   1.928  30.205   1.353
 3650W        W75910  35.442   9.892   0.416
 3651W        W75911  42.623  32.063   4.335
 3652W        W75912   9.802  39.030  14.988
 3653W        W75913   9.204  14.842  14.936
 3654W        W75914  10.127  12.565  13.766
 3655W        W75915   9.425  35.073  10.959
 3656W        W75916  21.179   7.515   4.995
 3657W        W75917  33.003  30.649   1.769
 3658W        W75918  11.753  38.325  13.578
 3659W        W75919  29.094  35.684   3.604
 3660W        W75920  15.640  24.588  11.643
 3661W        W75921  44.528   6.687   3.637
 3662W        W75922  29.777  26.403   3.772
 3663W        W75923  21.285  38.275  13.083
 3664W        W75924  15.095   4.443  13.888
 3665W        W75925  39.320  29.922   4.100
 3666W        W75926  15.253  11.268  11.209
 3667W        W75927  41.856   6.699   3.580
 3668W        W75928  34.849   1.721  10.462
 3669W        W75929  20.306  15.334  13.528
 3670W        W75930  28.481  31.175   4.902
 3671W        W75931  33.449  42.691  12.093
 3672W        W75932  20.783  25.180  11.060
 3673W        W75933  34.967  27.404   1.296
 3674W        W75934  19.838   6.161  14.070
 3675W        W75935   0.787  15.434   1.223
 3676W        W75936  38.357   6.172   1.177
 3677W        W75937   3.958  15.294   3.691
 3678W        W75938   0.976  19.733   3.702
 3679W        W75939   1.368  19.998  13.945
 3680W        W75940  26.515  22.107   2.563
 3681W        W75941   8.456  42.889  13.305
 3682W        W75942  43.043  24.849  11.249
 3683W        W75943  40.477  29.580   3.781
 3684W        W75944   2.221   6.650   3.153
 3685W        W75945   1.032  20.018   0.234
 3686W        W75946  37.986   2.361   1.390
 3687W        W75947  33.128  40.310   0.184
 3688W        W75948  28.979  20.498  11.492
 3689W        W75949   1.352   1.252  11.889
 3690W        W75950   3.780  32.668   1.960
 3691W        W75951   9.887  26.698  12.523
 3692W        W75952  26.439  26.914   4.855
 3693W        W75953  40.748  44.275  12.080
 3694W        W75954  15.564  25.279  14.243
 3695W        W75955  28.370  31.962   2.817
 3696W        W75956  20.668  17.237  11.617
 3697W        W75957  25.725  34.318   5.359
 3698W        W75958  43.286   5.401   2.368
 3699W        W75959  10.907  28.788   1.063
 3700W        W75960   6.605  23.030  14.242
 3701W        W75961  24.158  42.811   0.360
 3702W        W75962   6.254   5.901   0.367
 3703W        W75963   9.147  35.274   4.093
 3704W        W75964  18.176  33.308   2.352
 3705W        W75965  28.990  26.259   1.422
 3706W        W75966  41.367   2.947   0.779
 3707W        W75967  13.231  28.151  14.226
 3708W        W75968  26.869   2.379   4.033
 3709W        W75969   2.684  31.401  11.987
 3710W        W75970  14.190  10.635   2.782
 3711W        W75971  22.364  19.574   1.852
 3712W        W75972   6.344   9.368   1.866
 3713W        W75973  43.461  43.088  14.910
 3714W        W75974   1.230  41.865   4.631
 3715W        W75975  21.786   9.383  13.483
 3716W        W75976  15.715  21.212   1.366
 3717W        W75977  14.393  29.465  13.404
 3718W        W75978  36.799  39.909   1.268
 3719W        W75979  34.524  31.130   0.451
 3720W        W75980   4.803  12.407   1.416
 3721W        W75981  39.297   8.746  14.741
 3722W        W75982  31.425   6.442   1.855
 3723W        W75983  41.237  20.070   1.394
 3724W        W75984  40.412  43.975   1.269
 3725W        W75985  41.163   1.836  11.115
 3726W        W75986   1.488   3.455   0.015
 3727W        W75987  11.279  18.966   2.285
 3728W        W75988   8.334  14.206   0.803
 3729W        W75989  37.926  37.563   1.875
 3730W        W75990  20.104   8.723  14.718
 3731W        W75991  39.010   4.471  14.013
 3732W        W75992  44.463  35.531  13.733
 3733W        W75993  13.024  18.105  11.180
 3734W        W75994  35.206  21.486  12.906
 3735W        W75995  34.046   6.262   1.344
 3736W        W75996  37.026  20.340   0.195
 3737W        W75997   4.815  11.172  11.596
 3738W        W75998  29.320   4.238  13.463
 3739W        W75999  18.486  36.024   0.334
 3740W        W76000  33.925  21.089   3.071
 3741W        W76001   9.097  18.539   0.730
 3742W        W76002  37.856  35.297   2.819
 3743W        W76003  36.112   3.466   1.638
 3744W        W76004  25.995   4.316   1.338
 3745W        W76005  42.907  35.537  14.030
 3746W        W76006  18.325  25.035  13.925
 3747W        W76007  34.634  19.379  10.238
 3748W        W76008  34.924   6.926  11.098
 3749W        W76009   1.187   1.052  12.388
 3750W        W76010  25.898   0.452  12.042
 3751W        W76011  37.022  36.046   4.907
 3752W        W76012   4.326  35.292   1.409
 3753W        W76013  33.689  27.011   2.813
 3754W        W76014  38.434  19.066   4.024
 3755W        W76015  19.726   9.727  11.795
 3756W        W76016   0.021  19.567   2.361
 3757W        W76017  21.065  35.583   4.567
 3758W        W76018   3.389  18.045  12.109
 3759W        W76019  12.915  13.752   2.256
 3760W        W76020  26.163  30.441  14.283
 3761W        W76021  35.839  36.457  13.543
 3762W        W76022  24.284  27.417   1.811
 3763W        W76023   8.351  30.782  14.981
 3764W        W76024   6.486  39.687   0.882
 3765W        W76025  43.745  18.194  14.578
 3766W        W76026  36.291  12.240   0.993
 3767W        W76027   8.565  26.928  13.522
 3768W        W76028  27.694  20.122   3.371
 3769W        W76029  19.582   6.922  13.318
 3770W        W76030  13.600  10.727   1.431
 3771W        W76031  11.258  29.462   1.755
 3772W        W76032  26.977  29.915   1.793
 3773W        W76033   6.945  30.771   2.245
 3774W        W76034  38.160  20.299  12.657
 3775W        W76035  19.059  25.710  13.427
 3776W        W76036  20.218   2.746  13.975
 3777W        W76037  35.553  29.454   2.723
 3778W        W76038  21.877   1.403  10.449
 3779W        W76039  29.920  42.322  14.020
 3780W        W76040  41.790  19.247   0.331
 3781W        W76041  21.189  32.529  12.713
 3782W        W76042  27.159  15.823   2.813
 3783W        W76043  11.568  19.708  14.804
 3784W        W76044  38.303  41.549   4.530
 3785W        W76045  15.335   2.076   3.247
 3786W        W76046  40.711   5.474  12.078
 3787W        W76047  19.334  13.188  14.238
 3788W        W76048   4.757  35.354   1.718
 3789W        W76049  24.570  34.424  11.194
 3790W        W76050  30.235   2.656   0.797
 3791W        W76051  17.639  13.699   1.323
 3792W        W76052   3.238  30.675  14.249
 3793W        W76053  10.704  37.809   4.635
 3794W        W76054   8.416  32.877  11.990
 3795W        W76055   3.598  42.433   0.499
 3796W        W76056  26.033  40.681   2.174
 3797W        W76057   6.451  28.854   2.264
 3798W        W76058  28.509  22.406  11.185
 3799W        W76059  43.468  41.260   1.560
 3800W        W76060   0.087  18.586  12.512
 3801W        W76061  32.043  24.304   4.549
 3802W        W76062  41.981  20.603   3.723
 3803W        W76063  27.660   3.451   3.710
 3804W        W76064   7.210  40.296  13.991
 3805W        W76065  44.505  14.066  14.007
 3806W        W76066  33.871  44.361   3.359
 3807W        W76067  35.119  13.939   4.617
 3808W        W76068  13.280  17.786  10.379
 3809W        W76069  21.541  28.163   3.652
 3810W        W76070   4.149  43.535   3.326
 3811W        W76071  10.709  24.206  10.458
 3812W        W76072  33.808  42.928   1.085
 3813W        W76073   4.314  15.779  10.067
 3814W        W76074  42.466  13.385   4.630
 3815W        W76075  16.605  11.911   1.293
 3816W        W76076   4.021   5.321  11.455
 3817W        W76077  29.385  31.578   2.743
 3818W        W76078  32.683  35.602  12.458
 3819W        W76079  38.520  35.101  11.011
 3820W        W76080  23.348   7.722   1.158
 3821W        W76081  36.795  10.146  13.866
 3822W        W76082  26.974  33.791  12.124
 3823W        W76083  34.603   4.697   3.717
 3824W        W76084  28.509  30.564  14.737
 3825W        W76085  14.879   4.601  10.029
 3826W        W76086  29.983  19.583  11.921
 3827W        W76087  13.090  31.942   1.426
 3828W        W76088  10.404  34.781   0.457
 3829W        W76089  22.784  22.304   0.796
 3830W        W76090  19.699  21.555   3.895
 3831W        W76091   6.677   8.076  11.392
 3832W        W76092  16.135  36.029  12.224
 3833W        W76093  11.819  18.295  10.779
 3834W        W76094  24.044  35.388  11.655
 3835W        W76095  12.153  22.298   0.882
 3836W        W76096  36.306   1.617  13.351
 3837W        W76097   3.447   8.684   1.201
 3838W        W76098  16.332  39.634   0.873
 3839W        W76099   6.609  42.469  13.538
 3840W        W76100  22.045  10.367   4.585
 3841W        W76101  41.441  36.529   4.653
 3842W        W76102  31.689  42.908  10.978
 3843W        W76103  25.738   4.885  14.901
 3844W        W76104  23.557  33.968   2.129
 3845W        W76105  26.026  19.419  13.227
 3846W        W76106  10.267  35.248  11.460
 3847W        W76107  25.732  38.401   1.533
 3848W        W76108  16.212   5.353  12.689
 3849W        W76109   9.584   2.018   4.636
 3850W        W76110  15.074  16.718   1.209
 3851W        W76111   9.051  36.045   0.426
 3852W        W76112  27.454  38.980  14.262
 3853W        W76113  18.110  42.233   0.331
 3854W        W76114   5.692  28.631   1.125
 3855W        W76115  25.399  18.517   4.466
 3856W        W76116   5.457  18.560  13.965
 3857W        W76117  42.750  31.746  13.042
 3858W        W76118  12.247  40.356   0.575
 3859W        W76119  13.558  34.928   1.923
 3860W        W76120  31.382  22.313  11.505
 3861W        W76121  17.243  32.754  11.738
 3862W        W76122  28.547   6.907   0.999
 3863W        W76123  25.744  35.113   0.859
 3864W        W76124  33.886  23.585   4.685
 3865W        W76125  29.893  11.836   2.375
 3866W        W76126  15.190  29.629   1.779
 3867W        W76127  34.313  27.528  13.572
 3868W        W76128  20.733  18.288   3.388
 3869W        W76129  25.951  20.394   2.697
 3870W        W76130   0.502  35.821   0.553
 3871W        W76131  26.511  43.467  14.876
 3872W        W76132  16.161  10.799  10.590
 3873W        W76133   0.668  34.727   2.899
 3874W        W76134  35.426  44.155   1.877
 3875W        W76135   6.267   5.520  12.414
 3876W        W76136  12.583  14.566   3.293
 3877W        W76137  20.640  15.640  14.738
 3878W        W76138   3.574  33.847   3.138
 3879W        W76139  12.090  34.126   3.814
 3880W        W76140  20.414  25.092   2.758
 3881W        W76141  31.578  11.910  12.428
 3882W        W76142  11.820  11.047  11.618
 3883W        W76143  18.271   6.645  13.168
 3884W        W76144  11.197  44.529   1.316
 3885W        W76145  31.964  43.496   3.819
 3886W        W76146  27.532  12.256  11.741
 3887W        W76147  37.013  41.318  11.999
 3888W        W76148  33.055  21.938   3.385
 3889W        W76149  30.829  23.970   1.817
 3890W        W76150  18.832  27.429   4.246
 3891W        W76151  35.283  11.575   2.728
 3892W        W76152  16.207   8.930   3.088
 3893W        W76153   6.147  26.645  11.916
 3894W        W76154   3.231  38.430   4.932
 3895W        W76155  22.277  15.190   4.405
 3896W        W76156  35.437  41.938  12.554
 3897W        W76157  16.317  38.889   0.363
 3898W        W76158  34.908  16.146   2.823
 3899W        W76159  20.478  19.093   5.516
 3900W        W76160   5.306  26.607   1.624
 3901W        W76161  41.644   3.454  11.576
 3902W        W76162  26.429   2.957  12.444
 3903W        W76163  22.464  29.433  14.224
 3904W        W76164  44.226  37.806   4.119
 3905W        W76165   1.020  16.781   0.733
 3906W        W76166  31.329  39.080   0.990
 3907W        W76167  23.379  23.125  14.346
 3908W        W76168   6.670  20.521  13.440
 3909W        W76169  36.266   0.981   4.305
 3910W        W76170  39.394  18.326   0.345
 3911W        W76171  44.388  36.188  13.157
 3912W        W76172  21.974  43.971   1.945
 3913W        W76173  15.305  24.249   4.133
 3914W        W76174   7.325  41.117   4.464
 3915W        W76175  12.094  22.886  14.853
 3916W        W76176   2.339   3.417  14.029
 3917W        W76177  32.174  22.559  12.034
 3918W        W76178   4.847  35.057   2.585
 3919W        W76179  42.990  44.171   4.114
 3920W        W76180  11.188  44.203   0.052
 3921W        W76181  24.626   2.348  12.590
 3922W        W76182  16.832  44.871  13.461
 3923W        W76183  37.084  40.732  13.406
 3924W        W76184  18.266  21.043  14.366
 3925W        W76185  34.020  20.947  11.594
 3926W        W76186  44.897  43.276  13.029
 3927W        W76187  38.982  37.032  13.351
 3928W        W76188  25.467  29.016  13.388
 3929W        W76189   0.906  42.718   2.231
 3930W        W76190  20.716  16.600   0.244
 3931W        W76191  39.466  27.242   0.624
 3932W        W76192   3.985  28.198   0.940
 3933W        W76193  17.135  38.769   2.208
 3934W        W76194  37.540   4.803  12.536
 3935W        W76195  12.669  16.173  12.919
 3936W        W76196  39.297  33.623   3.664
 3937W        W76197  17.935   9.128   2.300
 3938W        W76198  13.698  18.085  12.557
 3939W        W76199  44.437  24.529   2.697
 3940W        W76200  11.961  30.643   3.713
 3941W        W76201  12.657  30.442  13.437
 3942W        W76202  10.272  43.336   2.180
 3943W        W76203  18.187  31.128   0.522
 3944W        W76204  12.634  10.134   2.190
 3945W        W76205  35.669  35.760  11.470
 3946W        W76206  40.269   9.301  10.723
 3947W        W76207   5.259  29.992  12.586
 3948W        W76208  15.604  36.905   4.726
 3949W        W76209   2.480   7.013  13.548
 3950W        W76210   5.832  36.063   1.674
 3951W        W76211  44.963  36.894   0.647
 3952W        W76212  28.699  27.039   0.228
 3953W        W76213  36.131  28.218   3.760
 3954W        W76214  21.426  22.199  11.477
 3955W        W76215  29.853  15.949   1.385
 3956W        W76216  44.337  20.495   0.533
 3957W        W76217  30.690  18.998  11.562
 3958W        W76218   6.181  28.442   0.081
 3959W        W76219  40.712  28.832  14.419
 3960W        W76220  44.279  42.380   2.948
 3961W        W76221   5.643   3.408  12.502
 3962W        W76222  12.768  31.932   2.420
 3963W        W76223  28.658   5.922  13.363
 3964W        W76224   7.160  44.388  11.725
 3965W        W76225  36.864   0.719  11.548
 3966W        W76226  14.585   7.897  13.542
 3967W        W76227   2.622  23.752  13.484
 3968W        W76228  20.336   9.106  11.084
 3969W        W76229  19.535  24.511   1.158
 3970W        W76230  37.891   0.723   1.006
 3971W        W76231   2.536   7.113   4.037
 3972W        W76232  19.123   5.351   2.950
 3973W        W76233  11.934   7.757   1.878
 3974W        W76234  23.754  39.089   2.195
 3975W        W76235  25.647  44.504  13.311
 3976W        W76236  41.418   0.369   2.418
 3977W        W76237  21.827  41.039   1.709
 3978W        W76238  30.789  16.168  12.472
 3979W        W76239  21.015  34.474   3.196
 3980W        W76240  18.362   3.121   5.003
 3981W        W76241  30.856  42.947   1.539
 3982W        W76242  11.889  43.460   2.277
 3983W        W76243  17.859  13.533   2.252
 3984W        W76244  36.390  28.816  12.917
 3985W        W76245  35.179  41.103   1.361
 3986W        W76246  20.032   1.292   0.279
 3987W        W76247  17.181   4.718  12.499
 3988W        W76248  25.508  38.377  12.363
 3989W        W76249  28.029  16.754  13.442
 3990W        W76250   0.080   1.805   1.794
 3991W        W76251  23.729  43.495  11.502
 3992W        W76252  19.422  12.289  12.524
 3993W        W76253  12.609  20.899  11.213
 3994W        W76254  11.081  43.666  14.939
 3995W        W76255   9.156  30.951   1.861
 3996W        W76256  15.783  19.010  12.007
 3997W        W76257  22.624  30.639   4.124
 3998W        W76258   6.357   7.259  12.903
 3999W        W76259  39.841  14.950   1.817
 4000W        W76260   6.713  35.100  13.810
 4001W        W76261   4.275   2.866   1.315
 4002W        W76262   5.903  13.556  14.419
 4003W        W76263   9.360  20.353  12.558
 4004W        W76264  21.297  34.171   1.020
 4005W        W76265  38.557  12.113   0.763
 4006W        W76266  39.346   6.662  13.643
 4007W        W76267  26.906  31.269  12.065
 4008W        W76268  13.966  31.867  10.075
 4009W        W76269   2.367   4.059  12.389
 4010W        W76270  14.794  13.209   1.388
 4011W        W76271  37.405  30.171   3.178
 4012W        W76272   5.155  37.487  12.191
 4013W        W76273   5.300  33.408  12.145
 4014W        W76274  44.594  42.719  12.440
 4015W        W76275  38.973  24.577  14.498
 4016W        W76276   7.298  29.760  12.729
 4017W        W76277  10.697  42.925  12.229
 4018W        W76278   8.602  38.993  14.412
 4019W        W76279  32.609  37.375   0.376
 4020W        W76280   4.691  32.057   0.964
 4021W        W76281  42.550  44.377   0.808
 4022W        W76282  16.361  15.114  13.458
 4023W        W76283  19.988   9.620  12.566
 4024W        W76284   7.446  13.882  12.372
 4025W        W76285  22.234  41.267  12.505
 4026W        W76286  11.214  36.283   1.789
 4027W        W76287   5.540  14.634   4.919
 4028W        W76288  35.032  21.721   1.148
 4029W        W76289   3.488  23.528   4.233
 4030W        W76290  36.984  32.349  14.927
 4031W        W76291  10.822   9.285  11.963
 4032W        W76292   2.324  13.202   1.503
 4033W        W76293  43.862  39.337  14.352
 4034W        W76294  16.532   6.482   3.869
 4035W        W76295  11.754  36.937  13.732
 4036W        W76296  41.856  30.718  11.079
 4037W        W76297   5.003   5.982  12.063
 4038W        W76298  26.187  16.237   4.145
 4039W        W76299  43.324   7.151  12.104
 4040W        W76300   7.851  23.227  11.928
 4041W        W76301  12.594  13.235   0.844
 4042W        W76302  41.533  24.752   2.279
 4043W        W76303   0.319  25.706  13.940
 4044W        W76304  33.587  38.084  14.061
 4045W        W76305   7.659  34.933  11.116
 4046W        W76306  17.378  33.957  12.149
 4047W        W76307  11.758   1.217  10.715
 4048W        W76308   3.904  40.342  11.811
 4049W        W76309   7.424  31.622  11.626
 4050W        W76310  30.921  27.847  11.542
 4051W        W76311  20.811  38.864  11.648
 4052W        W76312  37.484  27.459  12.333
 4053W        W76313  19.057  17.619   3.312
 4054W        W76314  35.427  18.474  14.752
 4055W        W76315   8.731  10.319  13.489
 4056W        W76316  17.523  39.908   1.184
 4057W        W76317  44.445   9.087  13.412
 4058W        W76318  24.097  37.635   0.257
 4059W        W76319  37.487  19.691   0.633
 4060W        W76320  38.461   4.241   3.009
 4061W        W76321  32.839  35.880  13.993
 4062W        W76322  40.344   3.057   3.665
 4063W        W76323  16.145   5.919  10.492
 4064W        W76324  42.311  38.834   2.532
 4065W        W76325   7.712  18.842  10.955
 4066W        W76326   6.324  41.568  13.927
 4067W        W76327  36.924  18.257   2.611
 4068W        W76328  40.556  13.153   2.730
 4069W        W76329   1.461  39.054   0.420
 4070W        W76330   6.979  11.284   2.506
 4071W        W76331  22.761  30.502  13.446
 4072W        W76332  17.087  27.035   0.969
 4073W        W76333  21.123  41.514  10.288
 4074W        W76334   3.531  20.936   0.427
 4075W        W76335  22.574  25.924  12.162
 4076W        W76336   9.733  39.590   2.218
 4077W        W76337   5.730  24.214  11.672
 4078W        W76338  17.763  17.453   3.539
 4079W        W76339  10.142   0.096   0.888
 4080W        W76340  31.462  43.748   0.062
 4081W        W76341  29.917   6.901  10.712
 4082W        W76342  11.192   6.824   0.805
 4083W        W76343   8.673   0.654  13.825
 4084W        W76344  32.563  20.188  14.351
 4085W        W76345  12.370   6.397   4.596
 4086W        W76346  24.582  41.022   0.376
 4087W        W76347   9.801   5.911  11.647
 4088W        W76348  12.670  23.373   4.359
 4089W        W76349  16.747  33.601   1.925
 4090W        W76350  23.624  28.296  11.930
 4091W        W76351  19.165  42.747   4.192
 4092W        W76352  43.386  43.723   2.309
 4093W        W76353  30.537  36.099  10.682
 4094W        W76354  44.477  44.274   0.428
 4095W        W76355  37.866  43.388   1.715
 4096W        W76356  29.715  11.634  12.496
 4097W        W76357  30.615   7.486  11.297
 4098W        W76358   3.367  36.741  14.931
 4099W        W76359  28.393  19.664   3.610
 4100W        W76360  40.632  15.601  13.929
 4101W        W76361  28.809   7.652   4.114
 4102W        W76362  27.715   6.609  12.182
 4103W        W76363  28.437  24.030   3.136
 4104W        W76364  10.137  18.222   1.964
 4105W        W76365  33.013  23.959  12.473
 4106W        W76366   7.371  37.389  10.589
 4107W        W76367  11.293   4.510  13.855
 4108W        W76368  32.395  11.660   3.842
 4109W        W76369  40.315  38.293  12.877
 4110W        W76370  15.345  26.617  12.569
 4111W        W76371  44.576  17.761   3.635
 4112W        W76372   3.517  38.865   2.297
 4113W        W76373  40.173  16.296  12.450
 4114W        W76374  37.031  26.754   3.895
 4115W        W76375  29.452  38.769   1.786
 4116W        W76376  15.194  41.534   3.918
 4117W        W76377  29.517  35.914   3.343
 4118W        W76378  19.260  17.233   2.833
 4119W        W76379   9.357  20.182  10.705
 4120W        W76380  19.018  17.779  11.523
 4121W        W76381   3.863  31.294  14.359
 4122W        W76382  18.317  23.219   4.658
 4123W        W76383  41.251  26.942   4.334
 4124W        W76384  31.933   8.913   4.057
 4125W        W76385  43.284  43.010  12.124
 4126W        W76386   7.630  40.824  14.804
 4127W        W76387  31.077  14.620   3.214
 4128W        W76388   9.548  32.439  13.751
 4129W        W76389  34.296  24.566   3.740
 4130W        W76390  31.447   0.546   2.776
 4131W        W76391  44.597  32.365  11.868
 4132W        W76392  40.871   7.055   1.303
 4133W        W76393  21.220   4.742  13.020
 4134W        W76394  26.984  41.835   9.985
 4135W        W76395  20.220  26.885  14.847
 4136W        W76396  41.870  24.048  12.887
 4137W        W76397   2.927  15.317   2.324
 4138W        W76398   3.958  26.186  11.703
 4139W        W76399  13.172   1.237  13.548
 4140W        W76400   6.574  42.591   9.984
 4141W        W76401  11.622  27.209  12.400
 4142W        W76402  10.150  15.107   2.370
 4143W        W76403  25.470  14.048   1.903
 4144W        W76404  33.759   7.741   2.763
 4145W        W76405  24.209   2.446   4.832
 4146W        W76406  15.812  13.375  11.543
 4147W        W76407  31.369   8.862   0.259
 4148W        W76408  33.707  21.726  13.051
 4149W        W76409  17.003  24.592   0.745
 4150W        W76410  16.871  20.126   2.137
 4151W        W76411  16.054  13.055   0.874
 4152W        W76412  24.498  21.481  11.039
 4153W        W76413  25.452  30.962  12.110
 4154W        W76414  27.614   9.005  12.584
 4155W        W76415   6.000   2.308   0.933
 4156W        W76416  41.380  23.776   4.184
 4157W        W76417  19.748  40.750   2.853
 4158W        W76418   2.374  22.347  11.512
 4159W        W76419  43.000   4.784   1.403
 4160W        W76420  25.566  32.651   3.281
 4161W        W76421   0.911   7.357  12.947
 4162W        W76422  20.698  25.264  13.444
 4163W        W76423  23.706  43.408  13.498
 4164W        W76424  44.707  44.326  11.694
 4165W        W76425  15.786  34.395   1.280
 4166W        W76426  15.014  30.602   3.350
 4167W        W76427  38.867   7.483   9.533
 4168W        W76428   9.102  33.621   2.808
 4169W        W76429   6.367  28.683  10.224
 4170W        W76430  10.333  38.226   2.809
 4171W        W76431  44.223  39.143   4.839
 4172W        W76432  33.109   5.826  11.360
 4173W        W76433  28.720  34.766   1.824
 4174W        W76434  32.635  31.538  10.942
 4175W        W76435  22.288  30.942  10.435
 4176W        W76436  17.275  21.320   0.826
 4177W        W76437   4.355   4.473   4.113
 4178W        W76438  13.010   8.915   5.052
 4179W        W76439  17.166  25.888  10.633
 4180W        W76440  38.801  12.139  10.462
 4181W        W76441   1.274  19.318  11.538
 4182W        W76442  30.666  37.294   1.755
 4183W        W76443   1.902  22.316   3.738
 4184W        W76444  36.863  19.080  11.593
 4185W        W76445  20.240  29.246  12.535
 4186W        W76446  42.045  31.897   4.988
 4187W        W76447   6.777  31.679   1.747
 4188W        W76448  13.352  17.941   1.268
 4189W        W76449  25.863  21.209  11.582
 4190W        W76450  10.272   0.775  14.719
 4191W        W76451   2.443  30.152  11.578
 4192W        W76452  24.125  15.134  14.506
 4193W        W76453  32.676  13.620   3.927
 4194W        W76454  31.482  23.777  14.235
 4195W        W76455  32.078   3.949   4.017
 4196W        W76456  42.179   4.390   4.620
 4197W        W76457  21.517  38.584   9.882
 4198W        W76458   0.513   0.327  12.552
 4199W        W76459  13.129  34.967   2.810
 4200W        W76460  44.188   9.256  11.693
 4201W        W76461  28.482  14.353   1.641
 4202W        W76462  15.561  17.603   5.072
 4203W        W76463  27.613   4.832  12.646
 4204W        W76464  34.948  25.373  10.410
 4205W        W76465  13.583  22.054   2.158
 4206W        W76466  43.823  16.391   4.139
 4207W        W76467  34.992  39.132   1.430
 4208W        W76468   0.056  18.684  13.378
 4209W        W76469  19.605  26.871   0.713
 4210W        W76470  33.910  12.697  11.610
 4211W        W76471  15.359  42.590   2.234
 4212W        W76472  43.471  34.094  10.597
 4213W        W76473  19.631  28.075  12.389
 4214W        W76474  16.081  19.691  13.409
 4215W        W76475  39.738  30.635  11.589
 4216W        W76476  39.550  21.505   3.281
 4217W        W76477  35.353  39.886   0.285
 4218W        W76478  17.539   2.388  14.229
 4219W        W76479  13.305  10.433  12.047
 4220W        W76480  19.324   4.383  13.330
 4221W        W76481  29.159   7.977   1.853
 4222W        W76482   2.396  15.708   3.881
 4223W        W76483  38.344  36.454   1.954
 4224W        W76484  33.846   7.026   2.513
 4225W        W76485  32.050   2.363   1.742
 4226W        W76486   4.691  29.960  13.899
 4227W        W76487  14.140  28.936   4.520
 4228W        W76488  40.349  16.660   3.325
 4229W        W76489  33.553  42.433  10.793
 4230W        W76490   4.788  43.975   0.370
 4231W        W76491  44.226  18.193   0.310
 4232W        W76492  44.323  32.292   3.798
 4233W        W76493  24.268  24.529   4.201
 4234W        W76494   5.815  36.409  11.865
 4235W        W76495  35.789   1.736  12.114
 4236W        W76496  36.599  24.182  12.408
 4237W        W76497  44.080  17.202  13.641
 4238W        W76498  24.509   9.108   1.346
 4239W        W76499  39.707  26.673  14.530
 4240W        W76500  42.936  36.837  14.255
 4241W        W76501   6.255  21.753  11.119
 4242W        W76502  39.958  25.201  12.061
 4243W        W76503  41.833  31.539   4.687
 4244W        W76504  22.056  28.617   0.585
 4245W        W76505   0.552  36.579  10.691
 4246W        W76506  39.107  31.185  11.675
 4247W        W76507   6.017  28.766   0.450
 4248W        W76508  32.354   1.848  12.562
 4249W        W76509  43.198  27.480   2.192
 4250W        W76510   1.392  13.932  12.581
 4251W        W76511  30.464   1.514  13.921
 4252W        W76512  38.277  44.529  11.123
 4253W        W76513  19.348  23.447  14.900
 4254W        W76514  12.710  29.206  12.632
 4255W        W76515   4.216  26.239  13.852
 4256W        W76516  32.999  12.652  11.406
 4257W        W76517  44.914  11.721  10.184
 4258W        W76518  34.091  26.310   2.636
 4259W        W76519  34.967  29.553  13.820
 4260W        W76520  15.255  19.682   4.613
 4261W        W76521  33.143  26.967   1.770
 4262W        W76522  28.653   8.340  14.169
 4263W        W76523  12.645  28.736  13.001
 4264W        W76524  12.521   0.385  11.662
 4265W        W76525  23.007  26.097   5.057
 4266W        W76526  44.341  20.542   0.007
 4267W        W76527  14.239  27.962   9.711
 4268W        W76528  10.253  18.048   2.432
 4269W        W76529  21.312  27.779  12.383
 4270W        W76530   1.460   0.476  12.452
 4271W        W76531  33.612  22.169  12.433
 4272W        W76532   0.342  10.098  11.857
 4273W        W76533  31.005   7.010  14.835
 4274W        W76534  27.793  32.189   1.444
 4275W        W76535  18.193   9.226   5.090
 4276W        W76536   3.473  14.947   3.026
 4277W        W76537  23.080  35.129  13.416
 4278W        W76538  36.864  14.317  13.431
 4279W        W76539  40.824  10.272   2.681
 4280W        W76540   9.005  32.534  14.849
 4281W        W76541  18.587  15.730   3.306
 4282W        W76542  22.789  31.888  14.832
 4283W        W76543  26.740  39.045   4.980
 4284W        W76544  40.298  34.405   0.695
 4285W        W76545  12.540  38.279  12.064
 4286W        W76546  26.522  28.925   1.436
 4287W        W76547  21.336   9.806   0.834
 4288W        W76548  24.925  16.607   2.217
 4289W        W76549  13.148  24.436  12.521
 4290W        W76550  13.152  43.351  11.555
 4291W        W76551  32.183  33.785  14.311
 4292W        W76552   7.651  31.589  12.949
 4293W        W76553   6.202  41.329  11.458
 4294W        W76554  33.888  18.432   3.336
 4295W        W76555  43.831   8.149   3.849
 4296W        W76556  22.039  23.713   3.855
 4297W        W76557   8.375  42.764   1.461
 4298W        W76558  29.126  34.963  12.043
 4299W        W76559  31.900  35.933   0.906
 4300W        W76560  21.495   8.854   3.448
 4301W        W76561   6.242  18.115   0.799
 4302W        W76562  10.636   5.649  14.381
 4303W        W76563  15.518  15.569  12.035
 4304W        W76564  28.072  18.425  11.972
 4305W        W76565  27.710  22.011   1.818
 4306W        W76566  27.190   8.292  10.738
 4307W        W76567   0.674  14.089  12.884
 4308W        W76568   2.705  34.163   1.349
 4309W        W76569  21.154  19.343   5.177
 4310W        W76570   2.410  16.028  14.955
 4311W        W76571  34.465  40.432   3.352
 4312W        W76572  22.225  15.102   3.351
 4313W        W76573  44.158   2.717   2.256
 4314W        W76574   3.539  37.487  12.847
 4315W        W76575   7.695   9.339   1.372
 4316W        W76576  19.472  32.896   3.642
 4317W        W76577  36.043  30.509   3.197
 4318W        W76578  35.373   8.232   2.243
 4319W        W76579  31.520  19.471  11.568
 4320W        W76580  17.660  28.123  14.892
 4321W        W76581  15.803  42.366  13.721
 4322W        W76582  26.850   8.354   3.428
 4323W        W76583  41.450  32.900   4.663
 4324W        W76584  32.466  10.051  12.282
 4325W        W76585  31.004  21.218  10.714
 4326W        W76586  19.139   9.602   3.602
 4327W        W76587   5.300  12.104   2.817
 4328W        W76588  20.958   8.206   1.962
 4329W        W76589  36.332   2.432  12.852
 4330W        W76590  24.049  33.520   1.658
 4331W        W76591  35.913   4.764  11.925
 4332W        W76592  28.108  27.598   0.408
 4333W        W76593   6.947  34.467   0.808
 4334W        W76594  43.258  42.259   3.551
 4335W        W76595   3.568  29.668  11.094
 4336W        W76596  42.258   8.309   4.941
 4337W        W76597   1.791  10.388   0.684
 4338W        W76598   1.870  14.810  14.056
 4339W        W76599  16.337  20.688  13.598
 4340W        W76600  25.067  38.522   4.905
 4341W        W76601  41.862   0.191   2.630
 4342W        W76602  22.741  29.665   4.517
 4343W        W76603  31.547  43.034   2.828
 4344W        W76604  29.893  25.108   0.044
 4345W        W76605  16.825  11.626  13.313
 4346W        W76606   4.939  37.482   2.407
 4347W        W76607   0.271  21.059   2.197
 4348W        W76608  18.646  28.128  12.124
 4349W        W76609  10.743  11.825  13.387
 4350W        W76610  22.486  30.552   1.714
 4351W        W76611  42.044   9.421  14.857
 4352W        W76612  19.844   8.348  10.776
 4353W        W76613   8.362   4.022   2.091
 4354W        W76614   1.671  35.105  13.997
 4355W        W76615  26.658  27.204  12.415
 4356W        W76616  39.317  38.817  13.596
 4357W        W76617  21.793  25.955   1.446
 4358W        W76618  37.346   7.113   3.202
 4359W        W76619  18.507   3.457   0.491
 4360W        W76620  33.574   6.335   1.809
 4361W        W76621  10.088   6.306   4.118
 4362W        W76622  25.035  15.250  12.947
 4363W        W76623  24.423  16.317   3.485
 4364W        W76624   4.724   0.857   4.694
 4365W        W76625   3.900  16.245   2.217
 4366W        W76626  40.286  17.496   1.669
 4367W        W76627  25.811  37.111   0.877
 4368W        W76628   2.945   3.861  11.025
 4369W        W76629  41.137  12.288   1.776
 4370W        W76630  20.295   0.916   1.376
 4371W        W76631  20.499  36.946  10.731
 4372W        W76632   2.858  29.107   3.774
 4373W        W76633  26.718   9.369  11.124
 4374W        W76634  42.384  29.197   4.703
 4375W        W76635  25.125  33.064   4.718
 4376W        W76636  17.529  29.956   2.829
 4377W        W76637   4.717  10.269  13.419
 4378W        W76638   1.464   6.161  12.976
 4379W        W76639  19.501   0.817   1.779
 4380W        W76640  19.147  18.690  14.478
 4381W        W76641  21.066  43.946   0.975
 4382W        W76642  44.913  43.191   2.326
 4383W        W76643  36.393  30.336  13.034
 4384W        W76644  33.019   8.391   4.839
 4385W        W76645  18.436   6.851   0.968
 4386W        W76646  44.735  26.734  14.226
 4387W        W76647   3.285  12.195  11.010
 4388W        W76648  19.522  44.502  13.220
 4389W        W76649  27.767  34.977   0.029
 4390W        W76650  14.643   6.920  11.728
 4391W        W76651  37.025  33.930   3.850
 4392W        W76652  25.434  42.149  10.788
 4393W        W76653  25.495   8.775  12.382
 4394W        W76654  39.989   5.267   1.277
 4395W        W76655   7.865  31.619  10.703
 4396W        W76656  23.175  37.793   1.354
 4397W        W76657  22.313  21.532   9.800
 4398W        W76658  37.938  27.979   0.307
 4399W        W76659  44.338  21.848  14.389
 4400W        W76660  18.272  37.971   3.667
 4401W        W76661  13.284  34.589   0.518
 4402W        W76662  33.103  29.997   0.727
 4403W        W76663  14.092  42.098   3.257
 4404W        W76664  11.745  14.217   1.312
 4405W        W76665  41.537  14.192   0.814
 4406W        W76666   6.830  34.017   3.248
 4407W        W76667   3.675  29.746   3.699
 4408W        W76668  40.912  28.037   4.274
 4409W        W76669  31.149  28.041   2.299
 4410W        W76670   1.891   7.987   1.589
 4411W        W76671  37.952   6.238  14.748
 4412W        W76672  16.514  12.248  11.406
 4413W        W76673  19.250  40.073   1.333
 4414W        W76674   5.145   5.910   1.486
 4415W        W76675  27.244  12.580  10.698
 4416W        W76676  21.686  21.280   1.184
 4417W        W76677  20.992   8.819   0.957
 4418W        W76678  14.829  41.237   2.632
 4419W        W76679  43.334  21.055  12.113
 4420W        W76680  14.816  31.292  13.568
 4421W        W76681  29.622   7.174  14.878
 4422W        W76682  29.014  24.725  11.288
 4423W        W76683  10.738  44.185   4.601
 4424W        W76684  31.560   9.842   4.422
 4425W        W76685   6.064   7.249  12.473
 4426W        W76686   4.276  34.374  14.206
 4427W        W76687  35.053  39.906   1.847
 4428W        W76688  30.685  14.371  13.917
 4429W        W76689  33.618  13.100   1.761
 4430W        W76690  22.704  42.977   0.929
 4431W        W76691   6.818  28.685   1.898
 4432W        W76692  33.832  33.579   0.901
 4433W        W76693   9.317  13.857   2.195
 4434W        W76694  20.902  42.976  11.502
 4435W        W76695  16.029   6.172  12.865
 4436W        W76696  32.425  30.033   1.894
 4437W        W76697  32.246  16.655  14.805
 4438W        W76698  22.931  26.246  10.180
 4439W        W76699   6.490  40.202  14.617
 4440W        W76700  17.761  24.538   2.453
 4441W        W76701  25.931  24.510  10.764
 4442W        W76702  16.209  17.133  11.493
 4443W        W76703  20.261  13.373  10.689
 4444W        W76704  38.011  10.825   1.786
 4445W        W76705  11.174  26.727  11.362
 4446W        W76706  27.393  23.063   2.664
 4447W        W76707  24.594   6.759   2.866
 4448W        W76708  39.567  22.788   3.898
 4449W        W76709  27.135  23.378  12.922
 4450W        W76710  37.018  33.184  14.019
 4451W        W76711  18.735  37.663   0.690
 4452W        W76712   8.688   8.400  14.017
 4453W        W76713  13.243  13.360  13.505
 4454W        W76714  39.533  29.090   3.222
 4455W        W76715  27.570  34.446   1.327
 4456W        W76716  17.721  33.544  10.912
 4457W        W76717   0.183  13.754  10.756
 4458W        W76718  14.734  15.603  11.140
 4459W        W76719  22.286  29.451   3.118
 4460W        W76720  27.224   9.597  11.959
 4461W        W76721  27.087  34.332   1.692
 4462W        W76722  15.051  25.003  12.914
 4463W        W76723  14.226  10.382  14.390
 4464W        W76724  16.654  33.462   0.477
 4465W        W76725   5.270  16.826   1.912
 4466W        W76726   2.762  34.445  13.139
 4467W        W76727   6.926  40.670   3.593
 4468W        W76728  32.467   0.532  14.096
 4469W        W76729  23.035  20.486  10.675
 4470W        W76730  24.236  19.567   1.885
 4471W        W76731  30.066  31.362   3.350
 4472W        W76732   1.866  18.596   2.345
 4473W        W76733  14.690  14.088   1.996
 4474W        W76734  11.666   1.461   0.826
 4475W        W76735   2.355  44.330  10.785
 4476W        W76736   0.375  27.049  10.678
 4477W        W76737   6.708  29.717   2.286
 4478W        W76738  43.763  23.738   3.414
 4479W        W76739  38.823  36.615   2.847
 4480W        W76740   7.385  17.662   1.347
 4481W        W76741   9.192  40.021  10.812
 4482W        W76742  42.447  40.033   1.888
 4483W        W76743  12.092  19.298  11.632
 4484W        W76744  40.613   0.856  11.383
 4485W        W76745  40.360  43.418   2.476
 4486W        W76746  32.514  34.786  14.294
 4487W        W76747  13.271  16.316  13.701
 4488W        W76748  13.552   9.314   3.727
 4489W        W76749   2.874  26.996   4.619
 4490W        W76750   1.930   2.793  13.621
 4491W        W76751  33.165  40.337   1.535
 4492W        W76752   1.770   9.273   1.214
 4493W        W76753  40.484   9.150   2.827
 4494W        W76754  44.074  18.464  14.866
 4495W        W76755   5.912  33.932  11.927
 4496W        W76756  44.979  26.485  11.907
 4497W        W76757  29.861  37.442   0.487
 4498W        W76758  11.433   0.888   2.680
 4499W        W76759  40.276   2.963   1.206
 4500W        W76760  30.406  12.647   2.253
 4501W        W76761  15.840   7.123   3.463
 4502W        W76762  18.649   3.766   1.334
 4503W        W76763  13.164   9.757   4.669
 4504W        W76764  33.158  19.413   2.766
 4505W        W76765  24.971  41.946  10.849
 4506W        W76766  11.504  15.729  14.781
 4507W        W76767   3.517   1.815   2.555
 4508W        W76768  17.537  27.404   2.632
 4509W        W76769  32.657  42.029   4.122
 4510W        W76770   0.039  34.672   0.417
 4511W        W76771  18.484  44.237  11.358
 4512W        W76772   6.477   7.679   3.270
 4513W        W76773  16.266   8.923  12.550
 4514W        W76774   7.751   7.258  10.783
 4515W        W76775  37.545  15.289  13.804
 4516W        W76776  29.163  21.935  13.880
 4517W        W76777  22.082  25.498  14.823
 4518W        W76778  22.033  29.340  14.526
 4519W        W76779  11.552  17.181   0.248
 4520W        W76780   8.935  35.684  14.574
 4521W        W76781  12.660  44.296   4.779
 4522W        W76782  12.733  37.324  11.173
 4523W        W76783  14.028   8.030   4.501
 4524W        W76784  37.866   3.706   0.997
 4525W        W76785  41.097  24.622  11.184
 4526W        W76786  28.630  29.918  13.478
 4527W        W76787  21.229  18.177   3.259
 4528W        W76788  29.397  14.306  13.659
 4529W        W76789  40.950  35.990  14.011
 4530W        W76790  43.492  34.392   2.420
 4531W        W76791  21.644  16.778  11.719
 4532W        W76792  27.781  12.449  13.088
 4533W        W76793   8.364  42.348   0.469
 4534W        W76794   7.824  41.819  11.435
 4535W        W76795  41.878  21.734  14.244
 4536W        W76796  32.579  39.101   0.008
 4537W        W76797  21.708  11.326  14.006
 4538W        W76798  43.100   0.190   0.904
 4539W        W76799  40.470  10.613   3.669
 4540W        W76800  24.836   9.394  10.794
 4541W        W76801  21.163  18.060   2.321
 4542W        W76802  42.373   9.377   4.219
 4543W        W76803  31.625  35.008  14.759
 4544W        W76804  20.026  26.443  10.292
 4545W        W76805  35.360  39.148  13.743
 4546W        W76806   8.503   9.817  12.510
 4547W        W76807   2.510  28.582  11.193
 4548W        W76808   7.264  11.368   3.253
 4549W        W76809   5.386   5.972   3.726
 4550W        W76810  28.403  29.088  13.089
 4551W        W76811  26.930   7.672  14.919
 4552W        W76812  26.668   5.410   3.309
 4553W        W76813  24.914  44.641  14.749
 4554W        W76814   0.570  39.906  12.977
 4555W        W76815  26.864  38.061   4.161
 4556W        W76816   4.355  38.915   3.379
 4557W        W76817  16.590  24.166   0.074
 4558W        W76818  25.127  12.816   0.412
 4559W        W76819  37.773  34.799  13.806
 4560W        W76820  10.123  10.600  10.234
 4561W        W76821  32.612  16.871   1.148
 4562W        W76822  18.264  11.728   4.369
 4563W        W76823   3.403  43.429  13.849
 4564W        W76824  36.446   4.401  11.232
 4565W        W76825  15.719   0.056  11.620
 4566W        W76826  40.054  20.340  12.356
 4567W        W76827  32.636   0.388  11.828
 4568W        W76828  31.397  34.386   0.512
 4569W        W76829   7.885  25.013   4.843
 4570W        W76830  44.403  16.512   4.101
 4571W        W76831  43.150   1.777  13.237
 4572W        W76832  33.209   2.203  12.396
 4573W        W76833   5.749  23.295   2.653
 4574W        W76834  21.099  35.996  14.787
 4575W        W76835  31.448  23.135   0.348
 4576W        W76836  23.134  21.950   0.889
 4577W        W76837  39.388  43.572   2.243
 4578W        W76838  10.618   9.742   2.755
 4579W        W76839  39.815  35.460  11.566
 4580W        W76840  25.004  23.971   4.585
 4581W        W76841  44.296  35.335  11.187
 4582W        W76842  21.262  17.162   4.685
 4583W        W76843  39.881  35.825   4.916
 4584W        W76844  22.697   4.187   3.815
 4585W        W76845   5.635  22.428  14.691
 4586W        W76846  25.589  39.900   3.371
 4587W        W76847   1.701  36.324   0.358
 4588W        W76848  13.761  27.462   2.007
 4589W        W76849  13.800  16.794  11.831
 4590W        W76850  42.553  33.117   3.187
 4591W        W76851  27.715  31.094  14.903
 4592W        W76852  42.856  10.034   0.296
 4593W        W76853  42.325   4.528   4.115
 4594W        W76854  34.854  35.117  14.258
 4595W        W76855  35.929  35.423   0.279
 4596W        W76856   2.026  29.128  11.988
 4597W        W76857  26.560   7.663  13.983
 4598W        W76858   2.657  26.152   0.916
 4599W        W76859   4.403  32.472  14.765
 4600W        W76860  29.917  41.635   1.179
 4601W        W76861   8.231  16.335   2.146
 4602W        W76862  28.161   1.403  14.462
 4603W        W76863  28.414  14.075  10.910
 4604W        W76864  42.969  16.709  14.779
 4605W        W76865  23.021  15.493  11.156
 4606W        W76866  20.198  15.812  10.652
 4607W        W76867   8.579  27.210   3.293
 4608W        W76868  30.873  32.421   4.268
 4609W        W76869  22.205  25.386   4.612
 4610W        W76870  12.180   4.198  14.614
 4611W        W76871  22.715  31.381  14.955
 4612W        W76872  34.625  39.925  10.595
 4613W        W76873  15.171  26.773  14.786
 4614W        W76874  17.022  39.802  12.907
 4615W        W76875  16.171  40.379  14.183
 4616W        W76876  26.625  33.393   3.254
 4617W        W76877  11.223  41.189  13.515
 4618W        W76878  23.429   3.754   4.612
 4619W        W76879  24.590  16.893   0.372
 4620W        W76880   8.641  21.241  12.258
 4621W        W76881   4.015  26.959  13.433
 4622W        W76882  15.789   2.235  14.717
 4623W        W76883  32.985  31.223   3.043
 4624W        W76884   9.137  39.618  13.868
 4625W        W76885   5.196  33.911  12.920
 4626W        W76886  18.005  28.427   0.189
 4627W        W76887   8.723   3.482   1.750
 4628W        W76888   1.295   4.297  11.706
 4629W        W76889  35.564   1.828  14.526
 4630W        W76890  18.846  19.222  10.648
 4631W        W76891  32.904  21.259   1.527
 4632W        W76892  22.765  33.934  11.250
 4633W        W76893  35.040   9.367  11.131
 4634W        W76894  40.036   0.464   0.852
 4635W        W76895  40.884  38.379   2.570
 4636W        W76896  11.282   5.154   3.657
 4637W        W76897  22.988  29.025   1.179
 4638W        W76898  27.206  11.843  11.791
 4639W        W76899  11.327  35.287   1.411
 4640W        W76900  36.871  33.991  10.713
 4641W        W76901   2.906   1.651  13.585
 4642W        W76902  18.613  42.386  14.102
 4643W        W76903   4.265  36.402  14.077
 4644W        W76904  27.914  31.081  12.955
 4645W        W76905  43.166   8.851  10.231
 4646W        W76906  18.531  23.576  13.070
 4647W        W76907  26.481  19.224  14.058
 4648W        W76908  27.848  12.004   1.466
 4649W        W76909  25.926  14.759  14.532
 4650W        W76910  11.070  40.417   3.047
 4651W        W76911   4.971  37.005   0.817
 4652W        W76912   3.439  12.180  12.838
 4653W        W76913  10.170   8.702  10.604
 4654W        W76914   9.233   3.030  14.093
 4655W        W76915  21.543  28.698   2.156
 4656W        W76916  31.066  22.447   2.482
 4657W        W76917  26.984  39.371   9.811
 4658W        W76918  31.269   5.313  12.112
 4659W        W76919  22.140  19.487   3.666
 4660W        W76920  44.442  13.245   4.225
 4661W        W76921  28.478  11.162  10.540
 4662W        W76922  28.005  40.810  11.197
 4663W        W76923  21.083  39.445   3.864
 4664W        W76924   9.773  37.095  13.350
 4665W        W76925  25.224  44.809  11.021
 4666W        W76926  31.115  29.629  14.395
 4667W        W76927  37.997   7.467  12.368
 4668W        W76928  13.288  17.162   4.261
 4669W        W76929   4.825  26.028   2.299
 4670W        W76930   9.976  17.602   2.373
 4671W        W76931  13.596  41.460   1.599
 4672W        W76932  32.447  41.867   3.654
 4673W        W76933  27.495  30.676  10.733
 4674W        W76934   1.426   2.511   3.894
 4675W        W76935  13.769  19.752   4.998
 4676W        W76936  15.875  40.971  12.138
 4677W        W76937  21.222  21.767  11.713
 4678W        W76938  14.535  23.105   2.723
 4679W        W76939  14.352  29.136  11.910
 4680W        W76940   0.852  16.770  11.839
 4681W        W76941  15.931  31.669   2.240
 4682W        W76942   4.476  38.516  12.400
 4683W        W76943  28.053   7.648   2.425
 4684W        W76944   4.159  21.039  11.045
 4685W        W76945  44.754   6.429  13.986
 4686W        W76946   3.687  39.360   1.830
 4687W        W76947  25.013   0.937   2.310
 4688W        W76948  15.820  23.151  14.598
 4689W        W76949  13.962  34.504  11.980
 4690W        W76950  29.014  25.745  12.170
 4691W        W76951  21.904  41.421  14.021
 4692W        W76952  32.834  36.369  13.858
 4693W        W76953  38.572  27.276  13.911
 4694W        W76954  28.228  29.358   2.302
 4695W        W76955  11.425   2.399  11.786
 4696W        W76956   1.955  23.337   3.735
 4697W        W76957  29.480  25.404  10.151
 4698W        W76958   4.793  25.557  11.851
 4699W        W76959  19.863  29.770   1.310
 4700W        W76960   9.290  25.127  10.487
 4701W        W76961   3.544  30.369   0.120
 4702W        W76962  31.058  30.106   1.479
 4703W        W76963  16.695   8.743   1.297
 4704W        W76964  19.110  30.953  11.222
 4705W        W76965   0.296  41.671   3.097
 4706W        W76966  19.064  12.866  12.425
 4707W        W76967   7.259  13.115   1.740
 4708W        W76968  43.178   9.434  11.623
 4709W        W76969  10.268  32.415   3.698
 4710W        W76970  42.334  33.584   3.231
 4711W        W76971  27.932   0.372  14.717
 4712W        W76972   0.938   7.051   3.332
 4713W        W76973  36.143   8.691   0.360
 4714W        W76974   1.498  22.508   1.327
 4715W        W76975  11.354  24.725  12.944
 4716W        W76976   1.149   2.677  11.577
 4717W        W76977  23.902  34.159   3.341
 4718W        W76978  32.559  15.099   1.754
 4719W        W76979  44.078  13.647   4.278
 4720W        W76980  16.392  43.989  14.376
 4721W        W76981  39.463   7.685  12.047
 4722W        W76982  15.710  32.180  14.095
 4723W        W76983  17.683  25.197   3.604
 4724W        W76984  18.672  44.886   2.658
 4725W        W76985  30.099  17.726  14.462
 4726W        W76986  13.778   2.578   0.872
 4727W        W76987  38.423   0.960   2.214
 4728W        W76988  26.560  14.195   3.634
 4729W        W76989  42.837   7.825  13.432
 4730W        W76990  25.973  34.358  11.969
 4731W        W76991  39.048   7.696   4.112
 4732W        W76992   2.878  20.550   4.960
 4733W        W76993  34.321   1.500   2.892
 4734W        W76994   3.338  37.482   4.568
 4735W        W76995  29.144  43.804   0.857
 4736W        W76996  16.366  10.762   2.092
 4737W        W76997  32.170   7.822   3.496
 4738W        W76998  40.397  30.571   2.136
 4739W        W76999  17.118  44.343   0.867
 4740W        W77000  42.349  44.572   4.610
 4741W        W77001  20.644  43.146  12.533
 4742W        W77002   3.368   0.437   5.113
 4743W        W77003  11.204  21.161  13.719
 4744W        W77004  24.158  27.134  12.836
 4745W        W77005  12.569   2.733   1.344
 4746W        W77006   3.729  12.548   3.173
 4747W        W77007  22.047  30.356  14.138
 4748W        W77008   0.724  41.830   4.680
 4749W        W77009  10.668  17.212  14.324
 4750W        W77010   3.674  32.159   2.790
 4751W        W77011   5.023  29.641   4.911
 4752W        W77012  35.588  26.050   1.361
 4753W        W77013  39.494   8.913   1.454
 4754W        W77014   4.143   9.669   1.930
 4755W        W77015  34.431  36.965  13.133
 4756W        W77016  38.608   6.944   0.889
 4757W        W77017   4.165  25.682  14.079
 4758W        W77018  36.389  42.770  10.756
 4759W        W77019  24.322  41.907  11.130
 4760W        W77020  23.879  25.202  13.832
 4761W        W77021  25.498   7.524   4.969
 4762W        W77022  18.204   5.393  10.870
 4763W        W77023  23.382  18.207   3.241
 4764W        W77024  11.334   5.943  13.703
 4765W        W77025  20.877  28.635  10.687
 4766W        W77026  29.900  39.772  14.454
 4767W        W77027  32.098   3.371   4.095
 4768W        W77028   3.497   8.755   5.050
 4769W        W77029  23.586   8.426  14.899
 4770W        W77030  28.031  39.062  12.091
 4771W        W77031  21.470  40.531   0.275
 4772W        W77032  13.606  23.614   3.828
 4773W        W77033   3.014  16.643  11.561
 4774W        W77034  33.551  34.411   4.625
 4775W        W77035  18.943  33.412  14.874
 4776W        W77036  18.778   2.792   0.030
 4777W        W77037   9.585  36.736  11.529
 4778W        W77038  32.593   7.256  11.001
 4779W        W77039  25.049  22.027   4.207
 4780W        W77040  17.630  32.898   1.135
 4781W        W77041  14.479  42.527  13.371
 4782W        W77042  35.073  31.894  11.615
 4783W        W77043  35.492  14.214   1.358
 4784W        W77044   6.167  12.615   4.966
 4785W        W77045  25.734  17.381  12.925
 4786W        W77046  21.533  35.700  14.825
 4787W        W77047   3.520  21.618   1.023
 4788W        W77048  11.193  20.552   3.714
 4789W        W77049  24.985  37.112   3.641
 4790W        W77050  12.192  37.280  10.621
 4791W        W77051  22.925  39.354   0.411
 4792W        W77052  21.552   0.472  12.943
 4793W        W77053  41.878   4.091  13.887
 4794W        W77054  31.144  37.481   1.766
 4795W        W77055  17.548  18.837   0.448
 4796W        W77056   4.693  13.164   4.620
 4797W        W77057  27.508  15.781  12.157
 4798W        W77058  41.447  18.596   2.892
 4799W        W77059   4.596  32.579   1.282
 4800W        W77060  13.105  10.167   3.206
 4801W        W77061  33.295  25.468  11.082
 4802W        W77062  11.916  39.067   3.270
 4803W        W77063   9.945  38.932  11.010
 4804W        W77064  32.086  38.823   4.590
 4805W        W77065   9.541  29.886   4.091
 4806W        W77066  10.865  17.148  12.921
 4807W        W77067  36.790   1.413   0.375
 4808W        W77068  31.746   5.537   2.277
 4809W        W77069   1.340   6.695   2.701
 4810W        W77070  28.971  36.278  12.404
 4811W        W77071  14.865  29.982   5.045
 4812W        W77072  11.851  20.255   1.461
 4813W        W77073  35.526   1.410  14.011
 4814W        W77074  16.491   8.432   4.131
 4815W        W77075  17.666   0.943   2.821
 4816W        W77076   0.749  38.540  14.517
 4817W        W77077  12.046  33.996   3.334
 4818W        W77078  27.015  29.656   1.255
 4819W        W77079  17.542  22.634   1.712
 4820W        W77080   4.920  33.127   0.231
 4821W        W77081  41.343   5.954  14.015
 4822W        W77082  29.892  33.115   3.845
 4823W        W77083  25.522  43.741   0.775
 4824W        W77084   9.868  13.654   2.162
 4825W        W77085  29.515  32.069  10.643
 4826W        W77086  30.626   8.802  13.032
 4827W        W77087  11.829  31.616   4.132
 4828W        W77088  42.778  13.862   1.524
 4829W        W77089  14.152  21.003  13.898
 4830W        W77090  35.922  12.186  12.099
 4831W        W77091  39.650  11.428   0.358
 4832W        W77092  16.132   4.204   3.185
 4833W        W77093  13.196   8.374   2.916
 4834W        W77094  13.315  42.061  14.029
 4835W        W77095  11.658  24.960  13.609
 4836W        W77096  24.160   3.286   5.096
 4837W        W77097  36.753  22.033  14.239
 4838W        W77098  28.160   7.856   2.880
 4839W        W77099  13.332   6.423  11.987
 4840W        W77100  19.646  29.486   5.079
 4841W        W77101  36.726  13.585  14.297
 4842W        W77102  39.458  27.270   4.237
 4843W        W77103  15.675  27.759   0.860
 4844W        W77104  15.180  14.726  14.264
 4845W        W77105   3.351  33.107  13.088
 4846W        W77106  16.623  32.696  10.671
 4847W        W77107  21.878  29.125   4.656
 4848W        W77108  44.531  36.858  12.027
 4849W        W77109  22.640  15.819   2.386
 4850W        W77110   6.226  15.782   2.563
 4851W        W77111  15.983  13.089  11.940
 4852W        W77112  11.097  19.281  14.924
 4853W        W77113  23.239   1.950   3.437
 4854W        W77114  38.692  14.173  14.323
 4855W        W77115  21.946  20.040   4.057
 4856W        W77116  29.549  39.368  14.346
 4857W        W77117  17.167   2.334  13.253
 4858W        W77118  19.100  22.500   0.679
 4859W        W77119  24.767  10.594   4.219
 4860W        W77120  11.263   8.663  13.992
 4861W        W77121  23.351  28.968  10.669
 4862W        W77122  20.059  36.793   2.852
 4863W        W77123  10.851  26.942   1.731
 4864W        W77124   8.175  13.260  14.296
 4865W        W77125  34.971  41.198  14.272
 4866W        W77126  32.885  14.170  14.432
 4867W        W77127  14.102  40.271   4.611
 4868W        W77128  11.636  41.919   4.312
 4869W        W77129  13.720  36.768   4.700
 4870W        W77130  11.323  41.312  11.486
 4871W        W77131   0.838  28.190   9.849
 4872W        W77132   7.019  41.582  14.713
 4873W        W77133  20.641  21.661  10.123
 4874W        W77134   0.379  31.185   4.720
 4875W        W77135  33.071  12.925  11.824
 4876W        W77136  27.917   5.942   3.238
 4877W        W77137  38.496  17.654   0.388
 4878W        W77138  41.533  35.683  11.116
 4879W        W77139   9.767  26.917   0.909
 4880W        W77140  41.252  27.132   0.936
 4881W        W77141  29.617  40.070   0.260
 4882W        W77142  41.887  43.049   2.425
 4883W        W77143  24.644  12.867  12.582
 4884W        W77144  27.275   1.435  10.565
 4885W        W77145  29.719  24.552  12.697
 4886W        W77146  34.099  11.170  13.830
 4887W        W77147   4.390  21.732  12.380
 4888W        W77148   6.830  22.642  10.543
 4889W        W77149  10.374  20.253   1.337
 4890W        W77150   3.430  16.926  14.700
 4891W        W77151  43.396  19.464  14.565
 4892W        W77152   4.307  26.791   3.639
 4893W        W77153  11.634  28.096   0.743
 4894W        W77154  31.233  29.932   5.488
 4895W        W77155  22.589   0.246  14.246
 4896W        W77156  35.414  35.043   3.340
 4897W        W77157  35.492  41.619   0.520
 4898W        W77158  12.276  28.620  10.132
 4899W        W77159  44.841  28.514  11.204
 4900W        W77160  12.251   3.717  14.449
 4901W        W77161  27.586   2.879  12.812
 4902W        W77162  36.405  17.239  12.507
 4903W        W77163   6.001  17.653   1.441
 4904W        W77164  26.134   6.032  11.636
 4905W        W77165  40.290  22.227  11.579
 4906W        W77166  13.916  12.172   1.762
 4907W        W77167   9.703  34.144  14.761
 4908W        W77168  11.716  42.373   4.603
 4909W        W77169  42.425  17.282   2.756
 4910W        W77170  15.199   0.159  12.875
 4911W        W77171   7.739  41.813  12.956
 4912W        W77172  16.621  21.568   3.352
 4913W        W77173  29.188  21.650   2.883
 4914W        W77174  28.532  34.898  13.947
 4915W        W77175  10.157  14.375  12.589
 4916W        W77176  36.450   0.846   2.772
 4917W        W77177  44.400  32.861   3.708
 4918W        W77178  17.069  26.839   3.712
 4919W        W77179  35.635  22.403   2.304
 4920W        W77180  12.795   2.235   0.243
 4921W        W77181  19.950  19.422  12.414
 4922W        W77182  31.884  39.844  12.055
 4923W        W77183   5.225  10.405   3.186
 4924W        W77184  14.573  16.694  13.376
 4925W        W77185  39.525   7.000   3.107
 4926W        W77186  34.671  22.525   1.539
 4927W        W77187   7.254  12.177  11.019
 4928W        W77188  28.989   6.180   2.441
 4929W        W77189  37.461  37.618   3.586
 4930W        W77190   2.283  42.836   3.693
 4931W        W77191   1.293   2.492  13.588
 4932W        W77192  38.512  20.016   1.919
 4933W        W77193  19.688  14.296  12.121
 4934W        W77194   9.945  15.862  13.982
 4935W        W77195  16.187  14.699  11.294
 4936W        W77196  11.729  36.917   4.458
 4937W        W77197   8.201  37.548  13.736
 4938W        W77198  24.283  32.105   4.586
 4939W        W77199  11.284  11.105  13.429
 4940W        W77200  32.011  44.762   0.973
 4941W        W77201  30.440  35.589  10.695
 4942W        W77202  24.704   6.244   4.180
 4943W        W77203  24.632   7.933   4.253
 4944W        W77204  40.807  36.516  11.924
 4945W        W77205  31.094  43.738   1.225
 4946W        W77206  15.550   5.831   2.153
 4947W        W77207  10.342  43.375   3.696
 4948W        W77208  19.257  13.314   1.920
 4949W        W77209  21.960   7.880   4.165
 4950W        W77210  25.514  36.056   0.041
 4951W        W77211  44.032  35.056  14.987
 4952W        W77212   0.949  40.662   1.238
 4953W        W77213  25.458  14.262  14.820
 4954W        W77214  23.612  18.350   1.221
 4955W        W77215  22.787  28.919  11.533
 4956W        W77216  44.826   6.135  14.869
 4957W        W77217  32.654  26.181  14.416
 4958W        W77218  40.467  23.234   1.228
 4959W        W77219  21.109   2.772   1.901
 4960W        W77220  22.733  35.708  11.698
 4961W        W77221   6.171  14.122   9.982
 4962W        W77222  34.647  37.249  14.296
 4963W        W77223  19.803  39.860   0.730
 4964W        W77224   5.134  19.169  14.758
 4965W        W77225  44.469  13.094  11.559
 4966W        W77226  33.929  27.455  12.075
 4967W        W77227  24.177  32.676   3.717
 4968W        W77228  28.053  33.636  14.270
 4969W        W77229  24.058  22.552   5.006
 4970W        W77230  28.951  40.897  14.768
 4971W        W77231  28.452   1.229   2.381
 4972W        W77232  22.809  17.558  12.002
 4973W        W77233  11.380  41.576  10.602
 4974W        W77234  40.018  29.029  13.597
 4975W        W77235  28.074   3.440  13.319
 4976W        W77236  36.908  20.825   1.359
 4977W        W77237  16.230  15.774  14.812
 4978W        W77238  39.502  17.848   1.324
 4979W        W77239  37.135  39.980  14.839
 4980W        W77240   7.214  24.619  12.141
 4981W        W77241   6.128  24.051  10.751
 4982W        W77242  10.174  20.791  10.846
 4983W        W77243  32.452   1.923   1.782
 4984W        W77244  10.576   8.085   1.686
 4985W        W77245   7.837  21.542  14.599
 4986W        W77246  37.319  26.484   4.851
 4987W        W77247  12.141  20.808   2.749
 4988W        W77248  25.580  24.574  11.683
 4989W        W77249  24.161  36.912   4.573
 4990W        W77250  18.866   9.305  11.082
 4991W        W77251  43.869  23.044  14.948
 4992W        W77252  20.628   8.767   0.574
 4993W        W77253  30.721   5.249   4.152
 4994W        W77254  12.658  44.887  14.472
 4995W        W77255   7.425  32.086   3.246
 4996W        W77256  28.806  19.715  11.142
 4997W        W77257   9.964  32.465   1.800
 4998W        W77258  36.572  26.677  14.284
 4999W        W77259  12.762  30.887  11.672
 5000W        W77260   5.914  37.519   2.173
 5001W        W77261   1.977  37.410   4.549
 5002W        W77262  37.330  21.183   1.238
 5003W        W77263   5.792  30.615  12.395
 5004W        W77264   1.212  14.322  13.514
 5005W        W77265   3.856   9.269  12.635
 5006W        W77266  30.713  15.231  10.799
 5007W        W77267  30.609   1.849   2.685
 5008W        W77268  10.418   0.074   2.302
 5009W        W77269  17.725   6.167   0.267
 5010W        W77270  33.772  36.818   1.312
 5011W        W77271   6.304  38.147  13.618
 5012W        W77272  32.348  29.957   0.108
 5013W        W77273  20.525  31.171   1.482
 5014W        W77274  44.155  26.175  14.483
 5015W        W77275  19.299   8.769   9.734
 5016W        W77276   5.191   3.940   4.075
 5017W        W77277   8.383  12.175  12.448
 5018W        W77278  10.618  38.843  14.206
 5019W        W77279   8.721  37.630   1.849
 5020W        W77280  22.901  35.828  10.774
 5021W        W77281  22.022   0.449  14.065
 5022W        W77282  15.200  35.257  14.696
 5023W        W77283   5.939   6.200   4.488
 5024W        W77284  20.285  20.975  12.502
 5025W        W77285  22.258  11.831   0.540
 5026W        W77286  40.533  24.426   2.124
 5027W        W77287  26.981  15.123   4.085
 5028W        W77288  10.476  39.897  13.496
 5029W        W77289  31.755   5.013   1.922
 5030W        W77290  18.899  19.932   2.340
 5031W        W77291  34.102   0.342  10.942
 5032W        W77292  39.358  28.028   0.555
 5033W        W77293   2.769  12.389   1.892
 5034W        W77294   4.801  11.534   2.408
 5035W        W77295  34.980  20.226   3.159
 5036W        W77296  32.591  35.063  13.537
 5037W        W77297  17.931   9.919  13.797
 5038W        W77298   9.636   9.763  14.756
 5039W        W77299  23.417   9.371   3.133
 5040W        W77300  35.532  29.402   1.817
 5041W        W77301  25.919  11.973  12.017
 5042W        W77302  40.433  14.678   2.281
 5043W        W77303  32.762  20.891  11.967
 5044W        W77304   7.839   7.913   3.259
 5045W        W77305  27.613   9.372  12.184
 5046W        W77306  39.096  14.774   3.190
 5047W        W77307   0.637   3.377   3.418
 5048W        W77308  26.028  38.807  13.117
 5049W        W77309  13.235  37.806   4.055
 5050W        W77310  38.455  14.316   2.611
 5051W        W77311   0.902  36.554   2.379
 5052W        W77312  23.498  28.077   2.334
 5053W        W77313   2.400  34.889  10.323
 5054W        W77314  18.176   6.181   4.199
 5055W        W77315   0.023  32.355   2.802
 5056W        W77316  36.324  22.514  11.225
 5057W        W77317  10.561  15.116  13.208
 5058W        W77318  33.414   3.531   1.625
 5059W        W77319  39.356  39.384  12.208
 5060W        W77320  24.650   2.731   2.680
 5061W        W77321  32.961   9.811   2.629
 5062W        W77322  42.958  24.353   1.916
 5063W        W77323  22.754  43.991  12.930
 5064W        W77324   4.719  16.946   2.775
 5065W        W77325  39.054  39.837   2.673
 5066W        W77326  29.695  26.347   4.364
 5067W        W77327   6.374   7.921   0.534
 5068W        W77328  41.384   4.385   3.078
 5069W        W77329  37.105   4.757  13.814
 5070W        W77330   7.059  25.294  10.359
 5071W        W77331  38.325  36.446   2.851
 5072W        W77332  43.247  31.570  13.020
 5073W        W77333  22.080  11.137  11.130
 5074W        W77334   6.424   4.995   0.720
 5075W        W77335   9.252  22.110  11.548
 5076W        W77336  23.341  38.382   3.987
 5077W        W77337  38.388   4.854   4.848
 5078W        W77338  31.872  41.531  14.675
 5079W        W77339  10.178  44.388   3.404
 5080W        W77340  16.323  10.215  14.282
 5081W        W77341  37.370  12.782   4.614
 5082W        W77342  38.057  35.304  11.029
 5083W        W77343  14.100  14.962   3.930
 5084W        W77344  25.673  19.432  13.990
 5085W        W77345   7.797  20.632  14.689
 5086W        W77346  43.774  23.376   0.388
 5087W        W77347  22.957  28.404   4.183
 5088W        W77348  19.356  15.210  12.586
 5089W        W77349   8.091   7.813   2.811
 5090W        W77350  28.778  12.552  14.686
 5091W        W77351  13.683  19.486   3.223
 5092W        W77352  24.606   2.474  14.018
 5093W        W77353  34.734  44.722   3.314
 5094W        W77354  30.658  39.926   4.518
 5095W        W77355  33.002  22.151  10.694
 5096W        W77356  26.473  15.079   5.039
 5097W        W77357  37.821  30.113  11.456
 5098W        W77358   0.299   1.236   1.703
 5099W        W77359   9.355  25.072   0.457
 5100W        W77360   4.032  12.832   1.781
 5101W        W77361  19.657   6.378   2.334
 5102W        W77362  30.893  13.113   0.828
 5103W        W77363   5.330  35.127  12.171
 5104W        W77364   8.315  36.432   2.445
 5105W        W77365  29.179  39.503  14.698
 5106W        W77366  25.992  43.501   0.808
 5107W        W77367  38.108   6.235   0.705
 5108W        W77368  40.884   3.356  12.133
 5109W        W77369  14.471  26.068   1.093
 5110W        W77370  11.449  34.898   3.087
 5111W        W77371   1.287  32.374   3.368
 5112W        W77372  10.310  38.612   1.846
 5113W        W77373  29.625  12.730   0.299
 5114W        W77374  12.677  23.195  12.997
 5115W        W77375  19.300  41.540   1.853
 5116W        W77376  20.065  19.929  12.531
 5117W        W77377   8.751  32.020  14.013
 5118W        W77378   8.965   2.580  11.122
 5119W        W77379  42.320   0.189   0.567
 5120W        W77380  39.122  25.487   4.305
 5121W        W77381   2.255  31.431   4.824
 5122W        W77382  30.129  15.555  13.654
 5123W        W77383  36.478  37.027   4.426
 5124W        W77384  34.984  41.089   0.485
 5125W        W77385  32.758  21.643  14.238
 5126W        W77386  29.060  22.020  11.754
 5127W        W77387  17.401  29.244   5.066
 5128W        W77388  31.000  18.645  12.466
 5129W        W77389  18.535  27.095  13.452
 5130W        W77390   2.914  15.502   2.987
 5131W        W77391  28.080  18.870   3.545
 5132W        W77392  13.110   7.958  12.044
 5133W        W77393  30.986   8.367   4.559
 5134W        W77394  28.037   6.411   3.650
 5135W        W77395   9.428  30.056   2.770
 5136W        W77396  37.853  12.072   2.366
 5137W        W77397  11.868  26.881   3.703
 5138W        W77398  29.853  18.711  14.696
 5139W        W77399  34.299   8.908   1.270
 5140W        W77400  41.277  13.850  11.486
 5141W        W77401  28.035   1.088   2.730
 5142W        W77402  14.151  21.775  11.891
 5143W        W77403   4.350  20.578  10.738
 5144W        W77404  14.034  14.798   0.878
 5145W        W77405  16.458  17.429   5.094
 5146W        W77406  13.054  28.172  11.894
 5147W        W77407  17.039  27.644   1.271
 5148W        W77408  29.219  35.369  13.397
 5149W        W77409  29.810  15.800  14.645
 5150W        W77410   9.147  26.908  13.982
 5151W        W77411  33.630   7.106  14.972
 5152W        W77412  39.095  18.940  10.614
 5153W        W77413   3.313  43.059  12.193
 5154W        W77414  32.669  24.621   0.459
 5155W        W77415  25.205  36.375   2.303
 5156W        W77416  19.175   8.661   3.302
 5157W        W77417  24.417   5.878   1.109
 5158W        W77418  40.897  32.521  12.635
 5159W        W77419   4.465  14.041  13.917
 5160W        W77420  13.981  43.768  11.114
 5161W        W77421   9.801   8.251   0.394
 5162W        W77422  40.981  30.200   0.838
 5163W        W77423  25.489   6.382  10.718
 5164W        W77424  19.260  42.897   3.660
 5165W        W77425  20.192  18.568  10.606
 5166W        W77426  35.400   6.987   0.718
 5167W        W77427  16.818  17.661   4.292
 5168W        W77428  23.525   7.711   4.024
 5169W        W77429  26.235  37.373   0.714
 5170W        W77430   0.974  11.770   1.770
 5171W        W77431   5.254   0.370   1.431
 5172W        W77432  11.188   4.287   0.397
 5173W        W77433  40.439   4.035  12.130
 5174W        W77434  40.881  33.385   1.757
 5175W        W77435  36.066  21.623   4.482
 5176W        W77436  35.587  36.888   3.900
 5177W        W77437   6.198  34.028   0.189
 5178W        W77438   3.095  16.333  13.479
 5179W        W77439  44.216  30.144  11.990
 5180W        W77440   3.310  35.636  10.725
 5181W        W77441  10.219  23.628  14.434
 5182W        W77442  14.120  38.802  10.578
 5183W        W77443  27.732  43.269   3.567
 5184W        W77444  43.889  33.996  13.839
 5185W        W77445  34.572   7.833  12.948
 5186W        W77446  24.020  10.672   0.011
 5187W        W77447  29.698   0.348  13.514
 5188W        W77448  11.707  42.478   2.288
 5189W        W77449  26.062  12.303  10.965
 5190W        W77450  27.548  36.446   2.914
 5191W        W77451  19.144   2.654   2.203
 5192W        W77452  32.335  17.847  12.925
 5193W        W77453  27.894   7.826  10.992
 5194W        W77454  37.357  37.424  14.870
 5195W        W77455  39.811  12.625   1.880
 5196W        W77456   9.923   9.082   3.672
 5197W        W77457  27.250   2.518   0.027
 5198W        W77458  34.387  33.893  13.825
 5199W        W77459  36.952   7.204   2.638
 5200W        W77460   8.379   7.494  11.392
 5201W        W77461  11.151  27.896   3.297
 5202W        W77462  27.035  30.690   2.210
 5203W        W77463  18.021  36.520   2.313
 5204W        W77464  39.301  14.317   0.859
 5205W        W77465  26.898  38.864  10.684
 5206W        W77466  38.017  21.465   3.231
 5207W        W77467  21.581   8.757   1.953
 5208W        W77468  26.663   1.927  14.783
 5209W        W77469   5.861   5.098  11.852
 5210W        W77470  24.566   1.201  12.896
 5211W        W77471  19.070   4.402  14.877
 5212W        W77472  12.215  18.253  13.415
 5213W        W77473  26.870  31.159   2.198
 5214W        W77474  33.087   1.260  13.697
 5215W        W77475  26.856  23.147  11.181
 5216W        W77476  35.779  40.641  11.135
 5217W        W77477  37.301  22.146   4.045
 5218W        W77478  32.124  23.519   4.129
 5219W        W77479  27.528  32.104  12.057
 5220W        W77480  36.502  36.082  13.972
 5221W        W77481  32.941  29.978   4.595
 5222W        W77482   7.121   7.507   3.714
 5223W        W77483  30.094  20.989   3.069
 5224W        W77484   4.367  28.176   0.007
 5225W        W77485  14.040  40.317  13.922
 5226W        W77486   1.325  22.607   4.891
 5227W        W77487  15.761  35.632   4.672
 5228W        W77488  29.495  18.211   0.823
 5229W        W77489  34.097  32.187  11.362
 5230W        W77490  34.470  28.322  11.688
 5231W        W77491  21.711  11.426   1.348
 5232W        W77492  16.323  15.624  13.486
 5233W        W77493  14.635  20.122  13.993
 5234W        W77494  41.533  41.409  11.116
 5235W        W77495  36.933  16.294   0.037
 5236W        W77496  36.986  15.079   1.495
 5237W        W77497  38.008   7.356   2.695
 5238W        W77498  30.717   2.872  12.582
 5239W        W77499   1.200  27.299  13.767
 5240W        W77500   4.366  30.150  14.288
 5241W        W77501  30.361  34.751  11.149
 5242W        W77502  23.566  44.020   4.188
 5243W        W77503  20.284   4.801   3.140
 5244W        W77504  28.949  21.723   3.326
 5245W        W77505  26.560  43.272   1.685
 5246W        W77506  20.189  38.370   0.434
 5247W        W77507  14.143  21.279  13.087
 5248W        W77508  43.907  23.645  13.284
 5249W        W77509  10.135   0.030  12.598
 5250W        W77510   6.408  12.162   0.261
 5251W        W77511  21.798  19.861  10.360
 5252W        W77512   9.413  38.544   1.433
 5253W        W77513  10.050  14.554  13.587
 5254W        W77514   8.963   0.019   3.284
 5255W        W77515  25.583  28.933  12.041
 5256W        W77516   2.655  38.892  13.793
 5257W        W77517  37.971  30.494   0.420
 5258W        W77518  22.640  19.034   5.065
 5259W        W77519  18.535  36.304   4.083
 5260W        W77520  42.749   8.686   2.164
 5261W        W77521  43.951   6.322  12.044
 5262W        W77522  43.390  25.657   2.839
 5263W        W77523  37.569  35.390  11.123
 5264W        W77524  34.047  19.824  13.191
 5265W        W77525  12.125  40.382  14.553
 5266W        W77526   2.594  28.144   0.757
 5267W        W77527  28.024   3.901   2.897
 5268W        W77528  29.014   8.070  11.116
 5269W        W77529  41.337  10.226   2.651
 5270W        W77530  25.515  27.402   3.913
 5271W        W77531  26.531  29.638   2.048
 5272W        W77532  30.869  16.225   1.183
 5273W        W77533  16.561  29.733   4.060
 5274W        W77534   7.637  30.122  13.453
 5275W        W77535   9.642  31.006   4.650
 5276W        W77536  43.245  28.555  14.116
 5277W        W77537  22.928   8.115  11.432
 5278W        W77538  24.991  44.287   1.179
 5279W        W77539   6.384  35.014  10.776
 5280W        W77540   2.432  24.026   2.253
 5281W        W77541  21.931   4.303  11.849
 5282W        W77542  32.764  34.002   4.839
 5283W        W77543  25.063  24.251  14.824
 5284W        W77544  21.550   4.404  12.791
 5285W        W77545  11.261   4.719  12.435
 5286W        W77546  29.629  31.672   3.204
 5287W        W77547   3.501  42.534  13.596
 5288W        W77548  14.188  41.938  10.630
 5289W        W77549  19.192  41.245   0.279
 5290W        W77550  11.606  23.195  11.938
 5291W        W77551  26.070  16.653  12.778
 5292W        W77552  32.550  17.048   4.537
 5293W        W77553  15.791  18.654   2.685
 5294W        W77554  18.331  26.244   3.614
 5295W        W77555   8.489  32.580  12.887
 5296W        W77556  42.807  31.543   3.152
 5297W        W77557   1.319  38.843  11.499
 5298W        W77558   6.780   1.695  11.724
 5299W        W77559  24.317   0.804  11.579
 5300W        W77560   0.914  35.641   3.891
 5301W        W77561  37.175  16.037  12.041
 5302W        W77562  19.195   0.329  13.472
 5303W        W77563  22.821  10.775   4.245
 5304W        W77564   9.740  11.703   0.435
 5305W        W77565  33.979  23.835   4.234
 5306W        W77566  11.348   4.284   0.895
 5307W        W77567  18.649  28.235  14.376
 5308W        W77568  29.891   9.456  10.641
 5309W        W77569  34.661   6.015  13.861
 5310W        W77570  39.140  16.854  14.521
 5311W        W77571  14.773  36.350  11.520
 5312W        W77572  24.696  11.374   3.576
 5313W        W77573  38.342   6.753  10.346
 5314W        W77574  26.570  38.107  14.964
 5315W        W77575   4.225  24.556   1.942
 5316W        W77576  29.393  28.701   3.630
 5317W        W77577  32.602  15.900  11.378
 5318W        W77578  23.930  26.689  13.036
 5319W        W77579  26.076  34.594  14.655
 5320W        W77580  40.207  42.432   3.661
 5321W        W77581  31.480   0.008  11.123
 5322W        W77582  44.472   5.891  12.019
 5323W        W77583  18.212   6.373   0.225
 5324W        W77584  36.366  38.336   4.473
 5325W        W77585  20.281  12.801  11.536
 5326W        W77586  35.066  29.599   2.820
 5327W        W77587  37.368  15.540   2.426
 5328W        W77588  14.828   8.838  10.994
 5329W        W77589  29.149  42.634  11.909
 5330W        W77590  30.627  41.566   0.320
 5331W        W77591  21.129  25.750   3.625
 5332W        W77592  16.146   1.394  14.439
 5333W        W77593   2.469  22.674   3.498
 5334W        W77594  43.720  15.135   4.049
 5335W        W77595   6.893  23.085   1.258
 5336W        W77596  16.227  23.667  12.977
 5337W        W77597  26.611  36.536   3.951
 5338W        W77598  33.033  38.802   0.259
 5339W        W77599  11.454  11.235  14.176
 5340W        W77600   1.784  28.948   1.205
 5341W        W77601  42.897  11.417  10.992
 5342W        W77602  12.590   0.368  12.181
 5343W        W77603  39.388  33.478  14.919
 5344W        W77604   4.418  18.773   2.690
 5345W        W77605   3.728   6.986   2.728
 5346W        W77606  25.575  13.138   1.612
 5347W        W77607  39.296  27.651   4.624
 5348W        W77608  34.405  32.632  14.892
 5349W        W77609  31.882  28.131   2.773
 5350W        W77610  27.919  25.482   1.457
 5351W        W77611   3.439  26.019   0.449
 5352W        W77612  37.373   3.030   3.280
 5353W        W77613  31.051  33.892   3.616
 5354W        W77614  20.503  27.711   9.833
 5355W        W77615  11.263  12.331   4.516
 5356W        W77616  36.412   2.384  14.718
 5357W        W77617  42.840  17.197  10.713
 5358W        W77618   8.759  32.288   2.454
 5359W        W77619  38.424  15.062  14.470
 5360W        W77620   2.533  28.221   3.355
 5361W        W77621  33.214  43.896   4.972
 5362W        W77622  20.565  27.325   4.038
 5363W        W77623  15.227  21.759  11.879
 5364W        W77624  15.002  23.490   0.209
 5365W        W77625  12.818  12.868  14.072
 5366W        W77626  18.182   0.194  14.888
 5367W        W77627  30.657  35.125  11.504
 5368W        W77628  12.695  23.002   0.994
 5369W        W77629   2.857  28.597   0.721
 5370W        W77630  28.086   1.779   4.039
 5371W        W77631  32.683  11.428  13.524
 5372W        W77632   2.334   4.012  14.877
 5373W        W77633   4.958   2.303   1.914
 5374W        W77634  30.545  25.058   3.365
 5375W        W77635  16.206  38.770   2.331
 5376W        W77636  18.642  29.046  11.946
 5377W        W77637  25.465  44.818   4.575
 5378W        W77638  13.562  20.725  11.059
 5379W        W77639  36.349  25.453  14.015
 5380W        W77640   5.252   8.312   1.667
 5381W        W77641  22.390  39.927   0.015
 5382W        W77642   4.451   7.005   3.193
 5383W        W77643  10.416  40.039   1.785
 5384W        W77644  31.446  24.195  14.567
 5385W        W77645  41.853  10.282  14.492
 5386W        W77646  31.470  18.136   2.341
 5387W        W77647  30.480   5.791  11.992
 5388W        W77648  24.453  36.599  12.899
 5389W        W77649  24.623  40.547   0.664
 5390W        W77650  29.605   8.862  14.738
 5391W        W77651  35.744  24.467  12.653
 5392W        W77652  35.877  27.232   4.171
 5393W        W77653  22.193  19.187   0.043
 5394W        W77654   9.872  24.886   4.237
 5395W        W77655  32.970  30.217   3.134
 5396W        W77656  15.374   0.279  12.410
 5397W        W77657  19.585  41.760   0.790
 5398W        W77658   1.299  38.303  11.643
 5399W        W77659  35.070  18.259  14.427
 5400W        W77660  36.019  43.563  11.671
 5401W        W77661  38.483  36.647  13.428
 5402W        W77662  23.307   9.801   4.241
 5403W        W77663  29.949   8.895   0.466
 5404W        W77664  16.105  29.071   3.377
 5405W        W77665   6.481   3.352   3.866
 5406W        W77666  14.009  28.144   0.952
 5407W        W77667  44.812  29.621  14.237
 5408W        W77668   4.717  14.104   2.151
 5409W        W77669  42.767  19.493   3.179
 5410W        W77670  38.933  17.027   3.262
 5411W        W77671  22.502  44.223  10.573
 5412W        W77672  17.803   7.461  11.615
 5413W        W77673  18.101  36.008   4.122
 5414W        W77674  13.012   5.242  11.568
 5415W        W77675  43.977  27.026  13.622
 5416W        W77676  42.450  26.535   0.353
 5417W        W77677   8.629  11.178  11.231
 5418W        W77678   9.270  42.427   4.570
 5419W        W77679  44.946   6.052   2.589
 5420W        W77680  23.309   9.372   1.869
 5421W        W77681  43.409  36.203  13.041
 5422W        W77682   3.881  27.105   3.677
 5423W        W77683   4.414  42.213   5.074
 5424W        W77684  35.022   3.753  11.964
 5425W        W77685  41.830  16.497   3.711
 5426W        W77686   0.579   3.921  12.977
 5427W        W77687  25.781  34.156   0.106
 5428W        W77688   7.897  28.786   4.984
 5429W        W77689  14.294  13.730   4.137
 5430W        W77690  13.894  19.579  10.483
 5431W        W77691  38.348   9.814   4.560
 5432W        W77692  29.772  11.691   2.903
 5433W        W77693   3.359   2.305  11.590
 5434W        W77694  12.183  15.032   4.111
 5435W        W77695  43.122   0.912   1.315
 5436W        W77696  37.889  14.746   3.676
 5437W        W77697  43.819   6.083  13.928
 5438W        W77698  29.663  15.329   3.874
 5439W        W77699  15.243   4.404   3.257
 5440W        W77700  25.329  15.677  10.521
 5441W        W77701  26.537   6.701   1.403
 5442W        W77702   4.705  14.600   3.409
 5443W        W77703  30.232  35.494  14.525
 5444W        W77704  31.413   3.281  12.443
 5445W        W77705  43.890  10.441   1.752
 5446W        W77706   3.905  25.504   3.317
 5447W        W77707  10.261  22.108   4.804
 5448W        W77708   2.075   6.664   3.697
 5449W        W77709  25.393  13.249  11.564
 5450W        W77710  21.283  34.588   3.627
 5451W        W77711  17.177  20.214   4.150
 5452W        W77712   2.167  44.972   2.234
 5453W        W77713   3.606  37.956  11.646
 5454W        W77714  12.242   1.365   1.223
 5455W        W77715  29.113  27.058  11.550
 5456W        W77716  14.813   7.847  11.804
 5457W        W77717  11.879  16.023   4.102
 5458W        W77718  29.446  17.529   4.062
 5459W        W77719  26.187  42.121   1.418
 5460W        W77720  11.719   0.220  10.503
 5461W        W77721  39.130  35.338   1.036
 5462W        W77722  12.108   8.447  11.114
 5463W        W77723   5.938  27.144   2.503
 5464W        W77724  17.607  35.314   1.167
 5465W        W77725   8.233  16.745  12.391
 5466W        W77726  28.232  32.426  12.266
 5467W        W77727  29.735   8.488  12.037
 5468W        W77728  44.416  21.339  14.378
 5469W        W77729  11.553  38.932  14.275
 5470W        W77730   2.841   2.232  11.763
 5471W        W77731  28.506  44.250   3.466
 5472W        W77732  11.880   6.715  11.139
 5473W        W77733   8.739  35.870  10.845
 5474W        W77734  13.306  23.081   4.570
 5475W        W77735  36.630  34.410  10.927
 5476W        W77736  14.065   7.768   0.960
 5477W        W77737  23.594   4.269   2.784
 5478W        W77738  21.482  11.770  13.832
 5479W        W77739  29.675  33.399  10.706
 5480W        W77740  30.412  16.441  11.472
 5481W        W77741  17.015  38.212   0.390
 5482W        W77742   1.286   1.709   4.242
 5483W        W77743  41.397  12.782   2.893
 5484W        W77744  33.393  34.680   0.746
 5485W        W77745   0.151  11.809   2.870
 5486W        W77746  23.317   7.234  11.401
 5487W        W77747  19.723  30.047   1.955
 5488W        W77748  11.247  21.809   1.823
 5489W        W77749  21.427  37.261   0.113
 5490W        W77750   5.292  21.437  13.830
 5491W        W77751  16.516  10.394   1.361
 5492W        W77752   7.103   7.882  11.179
 5493W        W77753  17.554  16.821  11.659
 5494W        W77754  10.658  13.968   1.809
 5495W        W77755   2.268  23.496   3.253
 5496W        W77756  33.524  22.292   0.882
 5497W        W77757  34.786  35.515  10.669
 5498W        W77758   1.616  19.337   3.254
 5499W        W77759  34.796  30.613  11.270
 5500W        W77760  44.738   6.669   3.155
 5501W        W77761  27.089  38.842   1.893
 5502W        W77762   2.520  33.025  12.027
 5503W        W77763  24.457   8.339   4.635
 5504W        W77764  32.340  40.494  14.726
 5505W        W77765  43.874  10.206  11.385
 5506W        W77766  23.122  23.610   1.417
 5507W        W77767  37.074  18.061   4.172
 5508W        W77768   7.628  26.356   1.864
 5509W        W77769   1.281  16.292  12.482
 5510W        W77770  23.304  25.751  13.329
 5511W        W77771  11.351  39.992   3.281
 5512W        W77772  29.398  10.219   1.869
 5513W        W77773  24.664   4.658  12.069
 5514W        W77774  17.341  39.299   3.239
 5515W        W77775  39.354   6.704   1.885
 5516W        W77776   3.411  32.535  12.266
 5517W        W77777  42.391  34.551  11.469
 5518W        W77778   0.298  26.782   2.430
 5519W        W77779   8.690   6.512   4.435
 5520W        W77780  19.761  29.657   4.617
 5521W        W77781  38.970  22.289   1.936
 5522W        W77782  26.983  11.088   2.749
 5523W        W77783   8.178  32.162  11.523
 5524W        W77784  19.071   1.557   4.573
 5525W        W77785  32.937  13.644  14.497
 5526W        W77786  34.908  28.514   3.898
 5527W        W77787  43.897   3.218  11.461
 5528W        W77788  31.169  19.273   2.554
 5529W        W77789  10.367  10.421   1.847
 5530W        W77790  33.840  18.951   0.525
 5531W        W77791  23.136  15.628  12.140
 5532W        W77792  28.734  25.719  14.907
 5533W        W77793   6.393  23.595   3.580
 5534W        W77794  33.479  43.536  14.346
 5535W        W77795  26.771  11.698  12.609
 5536W        W77796  29.302   6.221  10.721
 5537W        W77797  41.780  28.176   5.316
 5538W        W77798  20.579  28.690   1.380
 5539W        W77799  29.234   5.348  12.085
 5540W        W77800  44.457  29.370  13.523
 5541W        W77801   7.236  32.035  11.390
 5542W        W77802  19.569   3.833  10.766
 5543W        W77803  38.600   7.232   3.587
 5544W        W77804  39.714  34.473   1.786
 5545W        W77805   1.255  29.107   4.140
 5546W        W77806  32.957  13.242   4.515
 5547W        W77807   3.439  10.608  14.915
 5548W        W77808   9.118   1.155   0.920
 5549W        W77809  36.052  13.911   0.436
 5550W        W77810  18.840  16.100  13.937
 5551W        W77811  17.854   6.282   3.810
 5552W        W77812  23.480  28.302   5.421
 5553W        W77813  35.478  39.084  11.459
 5554W        W77814   9.888  38.525   3.245
 5555W        W77815  16.334  30.617  13.326
 5556W        W77816  10.873  37.084  10.531
 5557W        W77817   5.439   9.634   0.880
 5558W        W77818  36.690   6.451   4.269
 5559W        W77819  10.788  20.211  13.873
 5560W        W77820  28.741  14.284   2.437
 5561W        W77821  18.526   3.881   0.815
 5562W        W77822  40.201   4.355   3.879
 5563W        W77823  41.084  36.669  10.461
 5564W        W77824  24.323  12.291  13.978
 5565W        W77825   1.492   4.403  14.488
 5566W        W77826  38.475   5.420  13.049
 5567W        W77827  34.112  16.347  14.776
 5568W        W77828  38.024   5.800   0.990
 5569W        W77829   1.359  13.345   1.741
 5570W        W77830  32.565  39.912  13.011
 5571W        W77831   6.893  42.044   2.220
 5572W        W77832  14.319   0.354   3.379
 5573W        W77833   3.826  15.753  12.194
 5574W        W77834  28.245   2.667   1.795
 5575W        W77835  34.941   6.078  14.313
 5576W        W77836  34.959  25.805   4.540
 5577W        W77837   8.698   7.182  11.140
 5578W        W77838  38.129  34.066  14.059
 5579W        W77839  41.884   3.778   1.316
 5580W        W77840   5.222  23.092   0.704
 5581W        W77841   7.415   8.137  12.511
 5582W        W77842  40.296   6.089  11.554
 5583W        W77843   2.747  16.318  10.503
 5584W        W77844  19.480  19.687   1.378
 5585W        W77845  34.501  43.686  14.093
 5586W        W77846  12.371  28.745  10.946
 5587W        W77847  31.286  16.064  12.487
 5588W        W77848   6.983   3.759   2.199
 5589W        W77849  37.444  19.258  11.019
 5590W        W77850  10.345  13.586   4.886
 5591W        W77851  36.069  16.392   3.281
 5592W        W77852  40.039   1.490   1.624
 5593W        W77853  30.964   8.239  12.325
 5594W        W77854  43.761  44.315  11.262
 5595W        W77855  27.481  25.458   4.807
 5596W        W77856  21.979  35.904  11.887
 5597W        W77857  29.683   7.126   1.752
 5598W        W77858   9.255  15.753   3.925
 5599W        W77859  37.378   7.672   4.435
 5600W        W77860  43.970   8.683  13.795
 5601W        W77861  31.062  28.473  14.788
 5602W        W77862  16.017   8.809  11.493
 5603W        W77863  18.343  23.185   4.127
 5604W        W77864  20.606  24.005   1.525
 5605W        W77865  33.481   2.304   3.253
 5606W        W77866   1.944  34.120  12.921
 5607W        W77867   0.057  13.780   1.414
 5608W        W77868  38.571  15.487  12.358
 5609W        W77869   2.493  23.187   0.835
 5610W        W77870   1.490  12.714  13.006
 5611W        W77871   2.454  26.023   2.332
 5612W        W77872  37.008  31.220   2.617
 5613W        W77873   9.670   2.971   2.799
 5614W        W77874   2.203  43.886   3.169
 5615W        W77875  10.151  11.345   1.560
 5616W        W77876  32.867  17.675   3.260
 5617W        W77877   9.082   6.775   4.215
 5618W        W77878  37.962   6.950  12.341
 5619W        W77879  12.868  32.383   4.578
 5620W        W77880  21.121  25.186   2.773
 5621W        W77881   9.361  18.540   1.226
 5622W        W77882  13.774   7.878   0.526
 5623W        W77883  24.134  12.081  10.264
 5624W        W77884  12.288  14.191  11.474
 5625W        W77885  28.029   5.915  10.001
 5626W        W77886  40.581  28.175  13.601
 5627W        W77887  26.171  44.108   4.920
 5628W        W77888  38.117  20.941  11.072
 5629W        W77889  38.588  21.113  13.178
 5630W        W77890  34.068  30.952   2.409
 5631W        W77891  27.986  29.940  14.261
 5632W        W77892  29.031  40.365  12.426
 5633W        W77893  40.778  34.552   3.012
 5634W        W77894  28.436  31.914  10.652
 5635W        W77895  36.899  12.760   4.869
 5636W        W77896  42.034  26.416   1.897
 5637W        W77897  42.924   5.974  13.504
 5638W        W77898  14.542  19.619  14.357
 5639W        W77899  42.509  28.581  14.788
 5640W        W77900  42.004  34.185   0.047
 5641W        W77901  18.093  44.214  13.404
 5642W        W77902  11.089  44.897   4.222
 5643W        W77903   7.279  44.623  13.251
 5644W        W77904  36.998  40.996   1.067
 5645W        W77905   3.297  29.142   1.374
 5646W        W77906  19.635  26.169   2.797
 5647W        W77907  21.114  22.183  13.510
 5648W        W77908  16.781  15.940   4.962
 5649W        W77909  13.273  22.968  12.536
 5650W        W77910  32.596  40.390  13.386
 5651W        W77911   6.484  43.826   4.623
 5652W        W77912   9.221  24.507   2.778
 5653W        W77913  23.590   9.367   4.072
 5654W        W77914  38.440  37.643   4.942
 5655W        W77915  44.483  40.787  14.842
 5656W        W77916  26.639   4.789  13.059
 5657W        W77917  13.654  20.043  10.560
 5658W        W77918  13.494  37.357  12.967
 5659W        W77919  24.404   0.268   2.089
 5660W        W77920  15.555  14.276  14.869
 5661W        W77921  31.040  12.272  10.695
 5662W        W77922  28.629  29.436   2.613
 5663W        W77923  23.524  29.594   4.134
 5664W        W77924   5.238  21.099   2.750
 5665W        W77925  40.845  40.306   1.339
 5666W        W77926  32.984  36.943  12.469
 5667W        W77927  26.180  44.309   3.820
 5668W        W77928   8.944  31.438   5.156
 5669W        W77929  25.422  43.949   1.240
 5670W        W77930  20.967  34.481  11.498
 5671W        W77931  40.012  39.472  12.393
 5672W        W77932   5.420  29.477   3.803
 5673W        W77933   1.901  25.551   1.918
 5674W        W77934  28.227   4.272   4.621
 5675W        W77935  20.077   7.716   0.910
 5676W        W77936  37.089  34.495   3.208
 5677W        W77937  14.122  34.819   0.903
 5678W        W77938  10.780  17.955   2.456
 5679W        W77939   6.909  19.029   1.826
 5680W        W77940  36.327  23.215   3.695
 5681W        W77941  28.139   5.327  14.497
 5682W        W77942  37.467  37.299   0.839
 5683W        W77943   3.280  36.874  10.502
 5684W        W77944  24.306  19.503  13.505
 5685W        W77945  27.037  10.248   3.764
 5686W        W77946  26.194  39.724  13.020
 5687W        W77947  40.585   4.190  14.899
 5688W        W77948  16.822  15.561   1.622
 5689W        W77949   4.381  23.460  10.750
 5690W        W77950  21.728  17.301   3.251
 5691W        W77951   6.021  18.640  14.810
 5692W        W77952  16.542  33.061  11.042
 5693W        W77953  25.590   2.152   1.032
 5694W        W77954   3.977  43.105   4.260
 5695W        W77955  44.408  34.916   3.687
 5696W        W77956  32.809   0.756  12.319
 5697W        W77957  18.124   1.322   3.595
 5698W        W77958  34.893   0.813   1.911
 5699W        W77959  33.590  12.828   1.319
 5700W        W77960  41.485  14.885   4.836
 5701W        W77961  20.344  24.197  11.050
 5702W        W77962  25.063  24.114   0.317
 5703W        W77963  44.772   2.299  11.216
 5704W        W77964  41.393   7.424   4.617
 5705W        W77965  23.494  35.448  14.739
 5706W        W77966   4.251  10.239   0.263
 5707W        W77967  30.999   6.996  12.562
 5708W        W77968  43.727  39.375   1.693
 5709W        W77969   7.309  23.244   4.689
 5710W        W77970   6.299   9.157   3.762
 5711W        W77971  27.374  11.307   4.154
 5712W        W77972  41.098  35.564   0.160
 5713W        W77973   4.238  20.519   4.149
 5714W        W77974  23.636  39.036   0.247
 5715W        W77975   1.228  34.453   2.149
 5716W        W77976  42.663  43.043   2.733
 5717W        W77977  15.244  19.258  14.052
 5718W        W77978   5.899   4.970   4.299
 5719W        W77979  37.574  20.496  10.623
 5720W        W77980  23.875   7.364   4.190
 5721W        W77981  26.212  39.352   2.865
 5722W        W77982  42.073  24.732   2.222
 5723W        W77983  29.656  19.681  10.708
 5724W        W77984   7.806  23.625   3.020
 5725W        W77985  14.744   9.313  10.829
 5726W        W77986  12.558  22.236  12.379
 5727W        W77987  29.823   2.030  13.381
 5728W        W77988   4.781  31.591   0.766
 5729W        W77989   4.360  36.844  10.374
 5730W        W77990  30.786  29.519   4.219
 5731W        W77991  14.806  23.596  12.033
 5732W        W77992  28.201  22.617   2.002
 5733W        W77993  11.783  15.350   0.293
 5734W        W77994  11.114   5.832  12.145
 5735W        W77995   4.802  33.464   4.725
 5736W        W77996  37.573  13.111  13.866
 5737W        W77997   4.826  14.172  12.401
 5738W        W77998  42.923  30.055   0.546
 5739W        W77999  20.492   9.181  13.002
 5740W        W78000  23.001  13.125   4.381
 5741W        W78001   5.959   4.029  11.599
 5742W        W78002   5.362  43.096   3.816
 5743W        W78003  16.747  14.152  11.904
 5744W        W78004  29.633  39.123  11.730
 5745W        W78005  43.032   7.750   3.127
 5746W        W78006  26.976  23.679   3.900
 5747W        W78007  30.430  12.261  12.122
 5748W        W78008  30.668  29.043   0.418
 5749W        W78009   2.905  36.166   1.836
 5750W        W78010  26.974  32.877   3.257
 5751W        W78011  24.642  15.825   3.322
 5752W        W78012  42.888  40.873   0.351
 5753W        W78013  14.763  28.896  10.634
 5754W        W78014  14.691  13.179  14.392
 5755W        W78015  26.690  30.424  11.161
 5756W        W78016  10.328  34.414   4.732
 5757W        W78017  28.986  38.958  13.434
 5758W        W78018  33.696  10.869  12.875
 5759W        W78019   7.822  41.796   2.237
 5760W        W78020   0.785  38.632   0.452
 5761W        W78021  10.198  29.020   3.711
 5762W        W78022  28.035  27.423  14.358
 5763W        W78023   9.330  17.845   2.889
 5764W        W78024  35.371   4.212   2.430
 5765W        W78025  14.078   5.952  10.331
 5766W        W78026  32.542  33.662   0.312
 5767W        W78027  43.569   5.954  12.047
 5768W        W78028  36.635   4.244   1.154
 5769W        W78029   8.925   2.357  12.961
 5770W        W78030   4.346  27.558  11.859
 5771W        W78031  12.403  10.274  13.012
 5772W        W78032  33.912  19.296   5.624
 5773W        W78033  18.139  43.866  11.259
 5774W        W78034  22.312  16.239   1.886
 5775W        W78035  18.399  36.022  13.392
 5776W        W78036  17.728   0.374   0.791
 5777W        W78037  22.762  10.725   3.089
 5778W        W78038  33.153  29.766  11.535
 5779W        W78039  35.026  40.951  10.909
 5780W        W78040  11.198  20.604  11.504
 5781W        W78041   3.645  25.124  14.937
 5782W        W78042  29.462  24.364  10.646
 5783W        W78043  34.994  13.109   0.480
 5784W        W78044   3.711  16.303  10.611
 5785W        W78045  19.538  30.001  12.544
 5786W        W78046  12.361  15.194   1.996
 5787W        W78047  25.652  34.484   3.606
 5788W        W78048  13.881  27.680   0.756
 5789W        W78049  12.285   0.762  10.831
 5790W        W78050  13.791  26.986  13.024
 5791W        W78051  11.858  25.392  13.838
 5792W        W78052  25.263  10.099  12.509
 5793W        W78053  44.964  40.784  13.554
 5794W        W78054  37.090  22.994   1.563
 5795W        W78055  14.531  43.778  12.082
 5796W        W78056  27.956  39.848  13.304
 5797W        W78057  36.858  14.490  10.690
 5798W        W78058   6.817  27.681   2.775
 5799W        W78059   0.518  10.745   0.385
 5800W        W78060  36.195  29.219  12.414
 5801W        W78061   3.307  43.083   2.880
 5802W        W78062   9.592  35.046  14.420
 5803W        W78063   8.490  43.969  11.450
 5804W        W78064  33.673  42.486  12.527
 5805W        W78065  16.224   1.801  14.122
 5806W        W78066  32.221  42.795  13.405
 5807W        W78067  34.464   3.463   4.726
 5808W        W78068  40.727  40.329   1.851
 5809W        W78069  19.643  20.114  11.261
 5810W        W78070  40.715   7.175   3.885
 5811W        W78071  16.632  37.472   4.106
 5812W        W78072  20.651  19.689   0.364
 5813W        W78073  20.274   2.028  14.942
 5814W        W78074  37.118   9.897  10.634
 5815W        W78075  30.890  37.774  11.825
 5816W        W78076  31.412  29.132   3.678
 5817W        W78077  14.920  36.509  12.519
 5818W        W78078   7.577  32.340   1.696
 5819W        W78079  31.535  42.431   4.163
 5820W        W78080  36.847   1.885   4.611
 5821W        W78081  37.476   4.162  14.187
 5822W        W78082  11.802  13.847   3.160
 5823W        W78083  36.648  16.189   2.055
 5824W        W78084  33.961  25.439  12.917
 5825W        W78085  39.428  21.997  12.897
 5826W        W78086  14.871   8.667  12.414
 5827W        W78087  39.295  37.102  11.037
 5828W        W78088  17.403  10.126   2.144
 5829W        W78089  35.512  24.724   2.861
 5830W        W78090  38.000  41.505  14.013
 5831W        W78091  37.116  34.076  12.083
 5832W        W78092  10.832   5.392  11.960
 5833W        W78093  44.777  32.823   1.694
 5834W        W78094  14.711  33.930  14.485
 5835W        W78095  13.278  28.667   0.495
 5836W        W78096  43.925  19.989   4.503
 5837W        W78097  19.835  11.726  13.350
 5838W        W78098  29.693  33.976  14.030
 5839W        W78099  35.028   3.325   1.972
 5840W        W78100   5.436  37.389  14.769
 5841W        W78101  17.253   1.881  10.157
 5842W        W78102  32.325  26.638  11.210
 5843W        W78103  41.827  21.088   2.411
 5844W        W78104  44.108  24.065  13.088
 5845W        W78105  13.090  24.159  13.000
 5846W        W78106  26.938  12.821   0.021
 5847W        W78107  18.115  31.209   4.059
 5848W        W78108  27.658  23.607  12.531
 5849W        W78109  28.629  13.341   4.654
 5850W        W78110  22.636  24.689   3.108
 5851W        W78111  12.825   5.285   4.037
 5852W        W78112  35.636  37.037   0.451
 5853W        W78113  11.722  13.768   1.030
 5854W        W78114  38.382  41.486  10.899
 5855W        W78115   4.536  22.198   0.910
 5856W        W78116  12.619  10.332   1.589
 5857W        W78117  40.876  37.425   1.837
 5858W        W78118   0.432   3.419  14.236
 5859W        W78119  16.295   4.911  14.496
 5860W        W78120   6.812  27.608  10.967
 5861W        W78121  12.192  43.872  13.349
 5862W        W78122  16.240  23.949  13.826
 5863W        W78123  10.847  21.805   3.240
 5864W        W78124   7.154  15.538  13.800
 5865W        W78125   7.786  32.863  14.461
 5866W        W78126  44.962  38.113   3.153
 5867W        W78127  34.496  30.123   2.668
 5868W        W78128   8.915   7.829  12.820
 5869W        W78129  21.196  25.036   4.118
 5870W        W78130  42.334  43.659   4.122
 5871W        W78131  44.471  15.085   5.108
 5872W        W78132   8.745  23.423   2.343
 5873W        W78133  36.974   9.957   4.625
 5874W        W78134  24.746  12.561  14.108
 5875W        W78135   6.959  23.633   1.808
 5876W        W78136  42.400  26.915   1.472
 5877W        W78137  14.765  36.395   1.650
 5878W        W78138  29.276  35.769   1.216
 5879W        W78139  30.647  13.385   2.627
 5880W        W78140  42.041  31.178  13.498
 5881W        W78141  24.418  26.608   0.897
 5882W        W78142   2.713  44.901  10.621
 5883W        W78143  11.135   7.658  11.587
 5884W        W78144  29.619   0.825  14.432
 5885W        W78145  36.518  28.551   3.881
 5886W        W78146  23.064  10.607  12.153
 5887W        W78147  28.007  19.865  12.076
 5888W        W78148  36.085  27.513  11.170
 5889W        W78149  20.640  15.714  13.274
 5890W        W78150  16.692  10.705  12.182
 5891W        W78151  36.315  17.649  14.181
 5892W        W78152   9.947  15.062   0.327
 5893W        W78153  34.947  41.082  13.370
 5894W        W78154  44.279  38.073  12.511
 5895W        W78155  21.303   3.362  14.353
 5896W        W78156  21.760  29.140  13.704
 5897W        W78157  10.844  36.526  13.965
 5898W        W78158  38.419  22.023  11.658
 5899W        W78159  31.110  40.607   1.659
 5900W        W78160   2.756   4.214  10.693
 5901W        W78161  33.985   2.689   4.825
 5902W        W78162   3.142  19.826  11.194
 5903W        W78163  33.191  30.595  11.272
 5904W        W78164  30.062  23.747  11.066
 5905W        W78165   9.836  38.516  13.158
 5906W        W78166  29.369   4.847  12.140
 5907W        W78167  42.286   9.366  14.394
 5908W        W78168  22.283   2.129  13.117
 5909W        W78169  36.950  18.104  11.812
 5910W        W78170  17.276  19.761   3.535
 5911W        W78171  11.737  27.536   3.987
 5912W        W78172   3.681  31.070  12.094
 5913W        W78173  21.614  12.921  11.146
 5914W        W78174  25.045   1.122   0.074
 5915W        W78175  26.004  26.497  10.634
 5916W        W78176  38.402   7.359   9.730
 5917W        W78177  28.243  32.111   3.723
 5918W        W78178   4.923  12.639  12.851
 5919W        W78179  40.444  11.865   5.015
 5920W        W78180  26.700  39.337  10.629
 5921W        W78181  40.895  37.930   3.349
 5922W        W78182  41.874   1.408   0.207
 5923W        W78183   0.910  25.926  12.375
 5924W        W78184  41.497  19.153   3.134
 5925W        W78185  22.580  33.705  10.494
 5926W        W78186  42.768  28.407   1.386
 5927W        W78187  32.846   2.348   3.761
 5928W        W78188  26.536  43.873  14.411
 5929W        W78189  25.518   7.494  13.918
 5930W        W78190  43.550  18.883   1.941
 5931W        W78191  37.922   4.385   0.009
 5932W        W78192  41.948  25.332   3.773
 5933W        W78193   6.319  25.407  14.884
 5934W        W78194  31.144  12.808  12.144
 5935W        W78195  16.886  18.712  10.679
 5936W        W78196   7.177  40.801   4.029
 5937W        W78197  37.056  13.197   4.606
 5938W        W78198  43.853  32.933  10.427
 5939W        W78199  21.428  31.896  12.531
 5940W        W78200  17.081   8.538   0.464
 5941W        W78201  37.386  40.470  12.396
 5942W        W78202  41.903  14.859   0.244
 5943W        W78203  10.939  25.456   2.717
 5944W        W78204  33.794  24.277   4.058
 5945W        W78205  20.235   0.724   2.207
 5946W        W78206   5.812  26.529  10.010
 5947W        W78207  37.925  26.218   2.167
 5948W        W78208  19.762  27.050   1.736
 5949W        W78209   6.347  33.523   0.255
 5950W        W78210  27.251  24.396  12.363
 5951W        W78211  29.164   6.805   4.116
 5952W        W78212  11.324   0.376  14.428
 5953W        W78213  43.295  36.457  14.335
 5954W        W78214  35.432  11.229  14.375
 5955W        W78215   4.489  35.629  11.929
 5956W        W78216  36.555  28.905  11.080
 5957W        W78217   7.876   4.857   1.138
 5958W        W78218  13.411  16.779  13.852
 5959W        W78219  29.549  25.261  11.537
 5960W        W78220  27.405  24.474   2.790
 5961W        W78221  44.024  40.053  12.208
 5962W        W78222  43.698  22.901  14.005
 5963W        W78223  19.510  15.284  11.915
 5964W        W78224  23.641  32.212  12.381
 5965W        W78225  35.929   5.458  13.292
 5966W        W78226  38.380  38.548  14.584
 5967W        W78227  33.995  25.256  14.957
 5968W        W78228  17.733  43.171  11.085
 5969W        W78229  29.964  41.817   2.781
 5970W        W78230  27.453  28.153   0.565
 5971W        W78231   7.819  29.517   1.513
 5972W        W78232  36.971  29.901  12.577
 5973W        W78233  32.864   0.083  11.179
 5974W        W78234  16.110  11.200   1.351
 5975W        W78235   8.895  35.659   3.794
 5976W        W78236   3.319  20.949  10.647
 5977W        W78237  33.940  39.259   4.599
 5978W        W78238  37.147   6.315   4.066
 5979W        W78239  17.007  35.627   4.001
 5980W        W78240  23.302  33.117   1.651
 5981W        W78241  20.415  43.809   1.802
 5982W        W78242  36.019   7.157  13.118
 5983W        W78243  41.075  29.046  14.969
 5984W        W78244   1.324   0.240  12.913
 5985W        W78245   0.672  39.985  11.691
 5986W        W78246  23.049  27.607  12.630
 5987W        W78247  40.810  34.083   3.320
 5988W        W78248   0.695  12.223   1.858
 5989W        W78249  40.770  25.387   3.294
 5990W        W78250  37.428  21.936   2.208
 5991W        W78251  23.865  44.032  12.084
 5992W        W78252  16.290   7.897   3.367
 5993W        W78253  42.349  21.052  13.916
 5994W        W78254  38.356   2.463  11.270
 5995W        W78255   8.528  23.329   4.301
 5996W        W78256  24.683  11.971   2.464
 5997W        W78257   2.928  34.426  11.771
 5998W        W78258  27.182  18.048   0.407
 5999W        W78259  33.476  38.910   0.007
 6000W        W78260  24.854   4.597  10.317
 6001W        W78261  42.891  33.526   3.148
 6002W        W78262  39.563  35.608   1.265
 6003W        W78263  19.651  26.688   3.660
 6004W        W78264  25.479  11.097   1.716
 6005W        W78265   0.315  22.086  12.817
 6006W        W78266  27.138   8.245   3.845
 6007W        W78267  36.587  10.418  13.321
 6008W        W78268  12.224  31.909  10.173
 6009W        W78269   1.939  36.781   0.320
 6010W        W78270  20.255  18.139   0.442
 6011W        W78271  10.644   7.568  11.762
 6012W        W78272   8.432  17.873   2.839
 6013W        W78273  16.622  12.851   2.340
 6014W        W78274  13.158  40.342   2.747
 6015W        W78275  34.099   9.681   1.727
 6016W        W78276   4.415   4.199   3.666
 6017W        W78277  41.305  24.103  13.303
 6018W        W78278  44.436   2.014   3.346
 6019W        W78279  10.562   5.770  12.182
 6020W        W78280  40.120  35.103  14.241
 6021W        W78281   6.145  37.351   1.691
 6022W        W78282  39.290  19.987  14.551
 6023W        W78283  15.267  11.450   2.205
 6024W        W78284   5.368  39.851  13.620
 6025W        W78285  28.612  33.155   4.580
 6026W        W78286  27.912  40.780  10.267
 6027W        W78287  26.441  31.421  11.901
 6028W        W78288  24.747  43.863  11.852
 6029W        W78289   8.879  13.337  10.818
 6030W        W78290  16.761   2.239  12.522
 6031W        W78291   5.176  26.600  12.967
 6032W        W78292  10.745  20.057  12.425
 6033W        W78293  22.669  38.554   4.135
 6034W        W78294  44.514  38.347  11.028
 6035W        W78295  39.083  26.042   0.325
 6036W        W78296   3.295  29.604  10.657
 6037W        W78297   0.991  20.822   1.800
 6038W        W78298   0.655   9.310   1.857
 6039W        W78299  21.205  28.767  11.108
 6040W        W78300  31.566   5.846  14.712
 6041W        W78301  17.035   4.178  14.882
 6042W        W78302  22.546  10.609   4.662
 6043W        W78303  41.350  42.043   4.136
 6044W        W78304  17.726  19.180   2.241
 6045W        W78305  24.421  39.393  10.522
 6046W        W78306  10.773  38.317   1.877
 6047W        W78307  18.537  17.755   0.345
 6048W        W78308   5.292  20.778  11.611
 6049W        W78309  39.494  10.914   3.715
 6050W        W78310   2.957  40.941   1.708
 6051W        W78311  30.745  18.604   0.465
 6052W        W78312  34.544  38.495  10.805
 6053W        W78313  42.347  43.326  14.060
 6054W        W78314  10.286   6.378   3.170
 6055W        W78315  35.074  14.608  10.421
 6056W        W78316  27.398   0.234  13.053
 6057W        W78317  44.998   4.481  11.143
 6058W        W78318  28.119  25.132  13.798
 6059W        W78319  10.910   4.207  11.616
 6060W        W78320   9.167  22.497  11.911
 6061W        W78321  37.870  20.155  11.212
 6062W        W78322  28.732  19.274  13.022
 6063W        W78323  10.122   3.195  14.698
 6064W        W78324  18.604   6.854   2.440
 6065W        W78325   7.683  14.323  11.506
 6066W        W78326  19.806   9.382   4.265
 6067W        W78327  38.601  42.047   3.182
 6068W        W78328  30.190  10.598  12.406
 6069W        W78329  33.981  20.211   2.331
 6070W        W78330   2.916  41.269   0.435
 6071W        W78331  40.480   4.325   2.922
 6072W        W78332  15.185  18.628  14.824
 6073W        W78333   2.777   0.333   0.619
 6074W        W78334  18.379  12.790   4.073
 6075W        W78335  27.112  33.348  10.216
 6076W        W78336  36.620   4.402  14.566
 6077W        W78337  30.679  25.973  11.699
 6078W        W78338  28.239   9.250   2.688
 6079W        W78339  27.167  42.718   0.316
 6080W        W78340  18.019  15.858   2.660
 6081W        W78341  39.335  29.981  10.631
 6082W        W78342  28.806   4.229  13.296
 6083W        W78343   9.946  29.022   4.154
 6084W        W78344  33.478  33.259  10.973
 6085W        W78345  33.714   3.883  14.453
 6086W        W78346  26.600   3.969  13.483
 6087W        W78347   6.968  32.047   3.036
 6088W        W78348  35.375  27.714  11.732
 6089W        W78349  33.535   3.507  12.409
 6090W        W78350  10.237   7.984  11.640
 6091W        W78351  11.207  11.881  12.444
 6092W        W78352  37.620  16.096  11.063
 6093W        W78353  41.574   5.143  10.377
 6094W        W78354  12.841  32.435   2.310
 6095W        W78355  32.018   6.582  10.854
 6096W        W78356   4.975  24.529   1.405
 6097W        W78357  34.856   5.462   2.739
 6098W        W78358  21.029  34.111  11.113
 6099W        W78359  31.981  39.305   2.656
 6100W        W78360  19.066   6.650  10.549
 6101W        W78361  37.512  10.193  12.800
 6102W        W78362  14.812  34.138   2.682
 6103W        W78363  36.103   7.354  11.366
 6104W        W78364  11.119  24.208  12.930
 6105W        W78365  25.300   1.009  11.511
 6106W        W78366  39.591  31.237   3.636
 6107W        W78367   4.410  40.309   0.134
 6108W        W78368  39.072  12.442  14.794
 6109W        W78369  16.186   2.100   2.781
 6110W        W78370  43.919   0.798  11.852
 6111W        W78371  10.855  32.633  14.346
 6112W        W78372   5.862  25.223   4.582
 6113W        W78373  32.444  20.285   5.543
 6114W        W78374  27.177  41.892   2.815
 6115W        W78375  43.278   8.122  13.391
 6116W        W78376  41.887  42.551  13.924
 6117W        W78377   5.929  19.599   0.874
 6118W        W78378  36.604   7.725  14.768
 6119W        W78379  35.359  44.940   1.418
 6120W        W78380   6.974  22.222   0.756
 6121W        W78381  41.583  38.190   1.660
 6122W        W78382  28.816  30.405  13.771
 6123W        W78383   0.417  32.573   4.099
 6124W        W78384   1.174  18.076   0.750
 6125W        W78385  33.684   1.935  13.320
 6126W        W78386  41.490  37.756  13.107
 6127W        W78387  30.129  16.574   2.456
 6128W        W78388  42.837  16.158  13.404
 6129W        W78389   1.800  31.639  12.141
 6130W        W78390  24.693   0.936   1.852
 6131W        W78391  11.767  35.352   4.801
 6132W        W78392  39.583  41.755  11.379
 6133W        W78393  44.407  10.298   3.241
 6134W        W78394  21.802  35.011  13.352
 6135W        W78395  24.462   5.430   3.161
 6136W        W78396  41.138  13.954  14.028
 6137W        W78397  12.333  25.039   2.212
 6138W        W78398  14.554   4.794   2.812
 6139W        W78399  21.404  25.177   5.012
 6140W        W78400  14.518  17.311   2.714
 6141W        W78401  18.920  39.013   4.241
 6142W        W78402  16.255   0.021  11.575
 6143W        W78403  31.207  17.886   0.744
 6144W        W78404  27.426   0.984  13.458
 6145W        W78405   4.842  10.560   4.233
 6146W        W78406  31.957   8.321  11.953
 6147W        W78407   6.032  14.109  11.980
 6148W        W78408   1.583  11.656  11.189
 6149W        W78409   3.811  35.856   0.443
 6150W        W78410  36.094   4.349   1.269
 6151W        W78411  11.050  33.952   1.302
 6152W        W78412  32.651   2.289  13.329
 6153W        W78413  25.699  33.352   2.735
 6154W        W78414  30.319  43.857  12.943
 6155W        W78415  21.714  44.441  14.402
 6156W        W78416   1.719   5.813  11.988
 6157W        W78417  31.700  39.227   0.085
 6158W        W78418  10.553   0.792  11.106
 6159W        W78419  26.238   9.783   2.500
 6160W        W78420  40.605  32.096  12.510
 6161W        W78421  26.452  22.984  14.669
 6162W        W78422  44.775  11.789   0.395
 6163W        W78423  19.989  32.534   1.416
 6164W        W78424   9.711   2.690   2.374
 6165W        W78425   5.708   0.474   3.676
 6166W        W78426   5.465  13.806  14.457
 6167W        W78427   0.029  22.088  11.237
 6168W        W78428  14.789   1.896   0.563
 6169W        W78429  31.862  42.966  11.460
 6170W        W78430  35.475   6.035   4.577
 6171W        W78431  41.405  33.166   5.100
 6172W        W78432  28.105  41.566   3.695
 6173W        W78433  16.259  41.286  11.957
 6174W        W78434  43.227   5.272   3.296
 6175W        W78435   9.526  42.077  12.545
 6176W        W78436  41.832  22.204   3.762
 6177W        W78437  18.614  24.943  12.084
 6178W        W78438  43.225   6.727  11.858
 6179W        W78439  11.873  15.357  14.752
 6180W        W78440   8.223   7.799   1.927
 6181W        W78441   8.277  25.493   0.870
 6182W        W78442  43.260  41.721  14.539
 6183W        W78443  14.572  19.763   4.186
 6184W        W78444  40.460  38.869  12.287
 6185W        W78445   6.162   2.495  11.532
 6186W        W78446  18.929   6.970   0.909
 6187W        W78447  16.392  36.480  12.132
 6188W        W78448  26.682  16.535   4.104
 6189W        W78449   2.339  11.175   2.341
 6190W        W78450  39.245  32.784   5.030
 6191W        W78451   5.744  44.551  14.478
 6192W        W78452  17.558  13.548  14.434
 6193W        W78453   5.084   6.757   1.287
 6194W        W78454  27.590  44.015  14.794
 6195W        W78455   2.991   6.190  13.610
 6196W        W78456  43.957  18.355  11.087
 6197W        W78457  31.611  40.273  13.127
 6198W        W78458  23.767  12.161  14.909
 6199W        W78459   1.836  32.292   4.593
 6200W        W78460  30.547  31.203  13.855
 6201W        W78461  17.654  28.656  11.193
 6202W        W78462  41.869  11.088  13.977
 6203W        W78463  32.083  40.342  13.356
 6204W        W78464  21.566  43.204  13.962
 6205W        W78465  17.464  19.025   4.196
 6206W        W78466   5.232  36.956   3.062
 6207W        W78467  38.645  15.723  14.986
 6208W        W78468  38.266  39.072   3.798
 6209W        W78469  29.457  24.601   2.177
 6210W        W78470  34.488   6.767  11.381
 6211W        W78471  26.878  20.691   1.851
 6212W        W78472   3.007  22.753   5.055
 6213W        W78473  34.959  19.743   3.887
 6214W        W78474  19.822  24.089   4.227
 6215W        W78475  43.826  23.152  10.698
 6216W        W78476  34.203  19.758   2.703
 6217W        W78477  29.083   6.202  11.174
 6218W        W78478  41.013   7.490   4.268
 6219W        W78479  10.457  11.063   0.742
 6220W        W78480  25.117  42.315   1.013
 6221W        W78481  42.347  16.941  11.981
 6222W        W78482   3.380  26.911  10.456
 6223W        W78483   0.771  29.236  11.241
 6224W        W78484  16.576  29.659   1.331
 6225W        W78485  16.819  21.945  12.056
 6226W        W78486  31.117  33.216   0.263
 6227W        W78487  10.079  34.906  13.523
 6228W        W78488   2.276  28.168   1.180
 6229W        W78489  30.996   7.325  10.982
 6230W        W78490  44.211  19.606   0.507
 6231W        W78491  24.724  42.907  13.828
 6232W        W78492  21.897   8.715   0.980
 6233W        W78493   2.943  43.691   4.530
 6234W        W78494  36.996  36.746   4.199
 6235W        W78495  34.488  11.898  13.035
 6236W        W78496  26.513  41.494  13.418
 6237W        W78497  31.434  18.778  12.094
 6238W        W78498   9.252   0.161   0.894
 6239W        W78499  27.468  24.546  10.619
 6240W        W78500   0.914  27.767  11.622
 6241W        W78501   5.519  14.234   2.387
 6242W        W78502  42.519  11.234  13.478
 6243W        W78503  36.878   3.212   1.868
 6244W        W78504  19.443   9.821   2.797
 6245W        W78505  20.544   2.977   0.678
 6246W        W78506  38.986  32.020  11.955
 6247W        W78507  27.054  28.615  12.914
 6248W        W78508  27.007   1.049  11.333
 6249W        W78509   1.947  27.100   4.855
 6250W        W78510   5.759   8.713   5.038
 6251W        W78511  23.660  40.947  11.003
 6252W        W78512  21.036  15.426  14.984
 6253W        W78513  13.124  24.006   2.219
 6254W        W78514  27.342   4.334  14.562
 6255W        W78515   5.722   1.248  11.594
 6256W        W78516  15.604  12.517   0.191
 6257W        W78517  41.497  24.042   1.861
 6258W        W78518   5.424   7.294   1.174
 6259W        W78519  28.671  25.092   3.887
 6260W        W78520  25.460  24.572   1.453
 6261W        W78521  27.645  22.721  14.802
 6262W        W78522  32.640  24.757  12.506
 6263W        W78523  30.037  25.426  11.594
 6264W        W78524  19.216   5.482   0.809
 6265W        W78525  33.019  33.457   0.343
 6266W        W78526   9.036  33.960   1.416
 6267W        W78527  44.374  27.102   1.493
 6268W        W78528  27.243  18.072   2.951
 6269W        W78529  17.600  33.960  11.684
 6270W        W78530  41.734  13.963  12.745
 6271W        W78531  34.799  13.893   0.858
 6272W        W78532  44.575  44.520   2.678
 6273W        W78533  14.872  20.724  13.410
 6274W        W78534  31.546  30.572  13.015
 6275W        W78535  18.656  33.949   4.641
 6276W        W78536   8.956  26.981  10.966
 6277W        W78537  18.951   2.161   2.270
 6278W        W78538   0.427   0.097  11.625
 6279W        W78539  36.557   5.709  13.438
 6280W        W78540  33.148  41.265  11.265
 6281W        W78541  18.494   8.386   0.081
 6282W        W78542  10.842  29.738  11.098
 6283W        W78543  30.446  23.402  10.943
 6284W        W78544  12.789  12.647  12.135
 6285W        W78545   5.722  28.140   2.840
 6286W        W78546  18.120  28.676   1.390
 6287W        W78547  43.095  16.701   4.819
 6288W        W78548  41.947   8.086   3.485
 6289W        W78549  19.700  24.034   1.884
 6290W        W78550  25.755  22.410  11.889
 6291W        W78551  33.765  10.251   1.324
 6292W        W78552  37.696   5.712   3.319
 6293W        W78553   1.159  29.956   4.878
 6294W        W78554  12.583  38.669   4.772
 6295W        W78555  31.715  27.258   1.334
 6296W        W78556  11.386   5.030  13.927
 6297W        W78557  11.792  25.313   4.960
 6298W        W78558   4.794  29.900   3.097
 6299W        W78559  44.888  37.181  10.949
 6300W        W78560  34.910  18.292  13.395
 6301W        W78561  22.242  20.624  10.293
 6302W        W78562   0.457  13.408  14.855
 6303W        W78563  44.572  24.633   3.886
 6304W        W78564   0.160   9.299  10.697
 6305W        W78565  41.231  25.095  10.965
 6306W        W78566  33.514   7.925  13.153
 6307W        W78567  34.723  31.977   4.966
 6308W        W78568   9.755  15.903  11.206
 6309W        W78569  40.701  34.456  12.351
 6310W        W78570  42.324  17.204   0.861
 6311W        W78571  11.832  23.475  10.561
 6312W        W78572  25.430   0.368   0.159
 6313W        W78573  39.928  30.339  12.977
 6314W        W78574  22.176  30.392   4.192
 6315W        W78575   9.338  38.458   4.752
 6316W        W78576  38.200   1.396  12.533
 6317W        W78577  15.072  37.328  10.571
 6318W        W78578   0.862  11.775  13.339
 6319W        W78579  13.878   4.853  12.397
 6320W        W78580  14.809  10.166  14.969
 6321W        W78581  18.515  36.071   1.721
 6322W        W78582  40.761  26.544  14.808
 6323W        W78583  30.972  26.531  12.334
 6324W        W78584   0.943   4.947   4.225
 6325W        W78585  39.277   2.950  12.464
 6326W        W78586  22.119   6.068   4.123
 6327W        W78587   2.905  41.919   2.234
 6328W        W78588  30.639  18.759   4.207
 6329W        W78589  44.293   4.814   2.016
 6330W        W78590  10.162  43.816   2.401
 6331W        W78591  32.842  43.429   3.710
 6332W        W78592  33.995  37.457  12.071
 6333W        W78593   0.416  23.188   0.934
 6334W        W78594  30.205  22.795  14.365
 6335W        W78595   4.440  25.091   4.738
 6336W        W78596  24.514  25.015  11.207
 6337W        W78597  12.724   8.063   1.218
 6338W        W78598   4.007  29.156  12.406
 6339W        W78599  37.473  35.076   0.313
 6340W        W78600   9.567   1.335   0.739
 6341W        W78601  33.536  15.558  10.643
 6342W        W78602  15.795  17.291  14.903
 6343W        W78603  35.371  38.305  11.087
 6344W        W78604   1.972  26.121   4.092
 6345W        W78605  26.474  34.536  11.318
 6346W        W78606  34.496  16.430   1.418
 6347W        W78607  23.368  36.030   2.798
 6348W        W78608  17.981   7.474   3.392
 6349W        W78609  11.335  44.829   1.942
 6350W        W78610   6.114  38.520   0.763
 6351W        W78611  27.097   2.109   2.682
 6352W        W78612  44.646  29.516  12.675
 6353W        W78613  32.360   5.814   0.922
 6354W        W78614  15.171  12.282  13.940
 6355W        W78615  37.692  35.124   2.346
 6356W        W78616  43.550  22.691   4.197
 6357W        W78617   4.267  16.252  14.475
 6358W        W78618  41.589  24.025   0.941
 6359W        W78619  31.223  31.323  13.090
 6360W        W78620  40.282  22.969   0.242
 6361W        W78621  39.057  41.692  11.986
 6362W        W78622  35.005   8.855  11.195
 6363W        W78623  44.458  32.652  14.131
 6364W        W78624   3.944  37.544   3.191
 6365W        W78625  38.977  38.780   2.417
 6366W        W78626   0.333  29.613   2.825
 6367W        W78627  27.129  22.691  14.847
 6368W        W78628  39.396  24.002   0.737
 6369W        W78629  32.688  38.423  11.181
 6370W        W78630  17.260   7.790   4.351
 6371W        W78631  18.053  18.851  12.573
 6372W        W78632  24.813  23.310   1.445
 6373W        W78633  39.717  19.750   2.296
 6374W        W78634  16.437  31.561   3.268
 6375W        W78635  15.718  26.730   2.734
 6376W        W78636  18.680  12.128   1.648
 6377W        W78637  23.623  18.697  12.250
 6378W        W78638  23.618   6.867   3.389
 6379W        W78639  38.554  30.736   2.177
 6380W        W78640  41.383  40.881  13.610
 6381W        W78641  15.764   0.068   3.723
 6382W        W78642  16.023   9.449   4.755
 6383W        W78643  36.928  42.415  13.853
 6384W        W78644  25.922   8.734   3.380
 6385W        W78645  14.793   3.947   0.651
 6386W        W78646  30.319  35.035  10.645
 6387W        W78647  27.804  25.004  13.422
 6388W        W78648  15.561  14.681  11.990
 6389W        W78649   1.420  38.251   1.264
 6390W        W78650  34.050  21.174   1.211
 6391W        W78651   9.388   0.915   3.673
 6392W        W78652   3.909  27.489  10.586
 6393W        W78653  19.680  14.193  13.645
 6394W        W78654  14.673  30.713   1.406
 6395W        W78655  21.991  40.621   2.002
 6396W        W78656  25.082  20.679   0.458
 6397W        W78657  29.378  25.876   3.190
 6398W        W78658  24.745   0.368   2.792
 6399W        W78659  32.024  31.974   4.038
 6400W        W78660  41.371  41.908   4.624
 6401W        W78661  29.355  43.848  11.125
 6402W        W78662   6.737  12.624  11.297
 6403W        W78663  42.473  29.487   2.117
 6404W        W78664  22.200   6.861   3.695
 6405W        W78665   5.181  28.401   4.380
 6406W        W78666   4.703  12.221   4.131
 6407W        W78667   7.573  34.914   1.301
 6408W        W78668   9.443  30.173   0.925
 6409W        W78669  25.654  21.044  12.044
 6410W        W78670  20.152  19.608  11.973
 6411W        W78671  40.588   4.250   0.796
 6412W        W78672   6.313  30.421   1.774
 6413W        W78673  37.354   7.597   3.379
 6414W        W78674  36.745  16.356  12.092
 6415W        W78675  24.558  20.739  14.889
 6416W        W78676   2.362  11.171   4.749
 6417W        W78677  28.726   1.384   4.638
 6418W        W78678  35.194  31.104  10.595
 6419W        W78679   9.362  41.466  14.968
 6420W        W78680  29.471  38.416  11.293
 6421W        W78681  10.271   7.208   0.912
 6422W        W78682  14.351  35.582   2.222
 6423W        W78683  28.737  21.427   2.926
 6424W        W78684  14.323  41.620   3.806
 6425W        W78685   8.440  15.305  11.218
 6426W        W78686   3.499   9.289  13.522
 6427W        W78687  37.541   7.540  14.991
 6428W        W78688  10.460  10.180  14.982
 6429W        W78689   3.777   5.247  14.430
 6430W        W78690  10.144  19.701  10.626
 6431W        W78691  18.420   4.985   2.825
 6432W        W78692   8.366  16.156   4.926
 6433W        W78693  38.235  21.966   1.328
 6434W        W78694  24.710  34.486   3.611
 6435W        W78695  38.962  24.794   1.435
 6436W        W78696  23.620  30.004   0.386
 6437W        W78697  35.091  32.482  13.570
 6438W        W78698  12.663  26.274   2.201
 6439W        W78699  11.762  42.752   2.789
 6440W        W78700   9.690  29.566  14.108
 6441W        W78701  31.980  39.535  10.641
 6442W        W78702  39.363   9.841   0.287
 6443W        W78703  41.348  17.243  12.417
 6444W        W78704  23.020  32.934   0.691
 6445W        W78705   7.921  39.310   3.158
 6446W        W78706  11.664   4.454   1.305
 6447W        W78707  24.467  42.083  11.700
 6448W        W78708  30.106  12.551  14.294
 6449W        W78709  39.199  25.640  14.987
 6450W        W78710  27.738  37.407  14.795
 6451W        W78711  11.483  28.611  12.376
 6452W        W78712  39.567  41.404   0.296
 6453W        W78713  13.282  31.030  10.239
 6454W        W78714  26.979   7.973  14.004
 6455W        W78715  14.778  21.952   0.315
 6456W        W78716   0.595   6.934   4.633
 6457W        W78717  20.227   7.813   2.428
 6458W        W78718  11.215  20.774   4.179
 6459W        W78719   4.869   6.761  11.688
 6460W        W78720   1.461  40.022   3.539
 6461W        W78721  12.276   9.145   0.714
 6462W        W78722  11.693  12.887  13.526
 6463W        W78723  30.427  39.288  12.029
 6464W        W78724  21.391  24.081   1.287
 6465W        W78725  36.873  31.836  13.428
 6466W        W78726   7.117   0.895  12.615
 6467W        W78727  44.398  18.013  14.833
 6468W        W78728  42.464  26.098  11.459
 6469W        W78729  16.334   9.963  12.062
 6470W        W78730   8.991   4.805   2.849
 6471W        W78731  36.390  18.489   1.747
 6472W        W78732  18.124  22.356   0.886
 6473W        W78733  38.942   3.527  13.528
 6474W        W78734  23.416  32.131  11.085
 6475W        W78735  37.056   1.040   2.104
 6476W        W78736   0.887  12.204  11.428
 6477W        W78737  23.559   4.202  12.814
 6478W        W78738   2.000  15.683   4.223
 6479W        W78739  42.270   7.346   4.614
 6480W        W78740  25.680   9.242   4.252
 6481W        W78741  40.816   3.766   4.471
 6482W        W78742   7.770  27.667  13.787
 6483W        W78743  27.005   8.925  11.423
 6484W        W78744  36.660  18.123  14.180
 6485W        W78745  27.823  20.343  12.013
 6486W        W78746  22.506   4.735  10.326
 6487W        W78747  21.989   1.223  13.039
 6488W        W78748  39.451  24.476  13.815
 6489W        W78749   1.459  28.943   1.764
 6490W        W78750  41.422  14.544  12.039
 6491W        W78751  30.109  18.048   4.037
 6492W        W78752  26.120  43.570  12.153
 6493W        W78753   3.760  23.047   3.528
 6494W        W78754  11.690  11.757   1.308
 6495W        W78755  32.178  19.967   3.154
 6496W        W78756  12.632  39.215  14.294
 6497W        W78757   8.770   1.938   1.887
 6498W        W78758  26.946  31.915  13.794
 6499W        W78759   4.799  10.142   4.603
 6500W        W78760  31.934   5.722  10.722
 6501W        W78761   2.450   2.929  13.830
 6502W        W78762  43.052   1.028  11.431
 6503W        W78763  13.008  16.902   1.826
 6504W        W78764  19.097  38.015   4.234
 6505W        W78765  10.400   0.562   5.306
 6506W        W78766   5.711  43.903   2.861
 6507W        W78767  40.343  23.290  13.979
 6508W        W78768  23.685  15.408  12.824
 6509W        W78769   4.314  43.663  12.401
 6510W        W78770   3.515  13.744   0.966
 6511W        W78771  39.624  29.396  11.254
 6512W        W78772  15.806  40.475  12.018
 6513W        W78773  36.487  26.709   5.055
 6514W        W78774  11.723   0.329   2.689
 6515W        W78775  10.700  27.900   0.243
 6516W        W78776  16.705  18.733  13.152
 6517W        W78777  26.614  10.487   2.173
 6518W        W78778  27.003  36.336   3.640
 6519W        W78779  24.530  39.853   5.005
 6520W        W78780  12.636  23.504  11.190
 6521W        W78781  40.285  31.506   3.133
 6522W        W78782  37.320   8.197   2.658
 6523W        W78783   0.283  40.781   3.664
 6524W        W78784  24.601  22.985  12.508
 6525W        W78785  17.953  44.552   0.517
 6526W        W78786  22.924  22.322  11.924
 6527W        W78787  39.838  24.626  12.525
 6528W        W78788   5.182  21.367  10.894
 6529W        W78789  18.141  26.724  13.582
 6530W        W78790  14.083   5.254   0.892
 6531W        W78791   2.986   8.572  11.139
 6532W        W78792  24.551   4.763  14.475
 6533W        W78793  25.956  25.071   3.319
 6534W        W78794   2.256  27.463  11.828
 6535W        W78795  10.867  21.768   2.406
 6536W        W78796   6.162  16.747   1.858
 6537W        W78797  30.851   0.777  10.930
 6538W        W78798  30.803  23.454  13.542
 6539W        W78799  39.636   5.884  13.456
 6540W        W78800  36.539   1.990  10.364
 6541W        W78801  24.119  19.195  12.366
 6542W        W78802  11.485  36.025  12.816
 6543W        W78803  36.521  39.035   4.048
 6544W        W78804  11.144  35.269  12.447
 6545W        W78805   0.853   9.120  14.949
 6546W        W78806  38.471  28.450   1.665
 6547W        W78807  42.047  15.122   2.305
 6548W        W78808  44.779   2.181   1.614
 6549W        W78809  23.998  42.450   4.481
 6550W        W78810  14.431   2.459   2.052
 6551W        W78811  35.596  38.479  10.630
 6552W        W78812  20.909  37.873   3.271
 6553W        W78813  14.484  23.640  10.787
 6554W        W78814  11.357  28.719   5.418
 6555W        W78815  35.236  10.083   2.711
 6556W        W78816  38.964  31.320  12.552
 6557W        W78817   3.183   8.930  11.443
 6558W        W78818  19.056  33.614   4.508
 6559W        W78819  14.920  44.351  10.588
 6560W        W78820  14.037  40.225  12.427
 6561W        W78821  33.714  33.054   4.677
 6562W        W78822  29.399  29.704  13.919
 6563W        W78823  31.928  30.205  11.155
 6564W        W78824  39.877   2.452   2.844
 6565W        W78825  41.437  31.484  11.627
 6566W        W78826  26.125  30.077   2.675
 6567W        W78827  42.070  13.752   3.308
 6568W        W78828  41.283  30.466  12.242
 6569W        W78829   8.305  26.974   2.009
 6570W        W78830  25.399  11.618   1.773
 6571W        W78831   6.961   2.390  13.708
 6572W        W78832   7.866  13.366   3.690
 6573W        W78833  26.496  26.628   5.281
 6574W        W78834   5.024  22.489  13.887
 6575W        W78835  38.978  33.118  14.284
 6576W        W78836   0.993   1.836   3.530
 6577W        W78837   6.717  36.335  12.014
 6578W        W78838  11.669  40.377  14.273
 6579W        W78839  26.509  12.143   1.379
 6580W        W78840  12.408  15.787   4.157
 6581W        W78841  33.069  33.489  10.007
 6582W        W78842   2.998   8.414   2.244
 6583W        W78843   1.255  41.263  14.177
 6584W        W78844   4.202   1.857  14.910
 6585W        W78845   1.177  43.798   1.914
 6586W        W78846   2.147  44.003  10.465
 6587W        W78847  25.976  37.841   3.885
 6588W        W78848   2.907  16.189  11.899
 6589W        W78849  43.284   8.363   3.441
 6590W        W78850  10.229  39.443   2.369
 6591W        W78851  20.900  44.269  13.993
 6592W        W78852  24.964   8.795  12.958
 6593W        W78853  34.466  20.757  13.711
 6594W        W78854   2.894  30.503   3.167
 6595W        W78855  25.986  18.197   4.074
 6596W        W78856  17.800  13.611   4.163
 6597W        W78857   3.531  29.726   1.900
 6598W        W78858  42.827  20.208  10.858
 6599W        W78859   5.865  21.679  10.622
 6600W        W78860  35.431  38.385   1.838
 6601W        W78861   0.286  37.919  14.752
 6602W        W78862  25.543  38.252  10.770
 6603W        W78863  41.770  18.696   0.785
 6604W        W78864  24.122   9.899  10.726
 6605W        W78865  23.090   9.987   1.292
 6606W        W78866  39.375  35.781   4.184
 6607W        W78867  10.102  40.607   4.184
 6608W        W78868   8.183  43.814  10.629
 6609W        W78869  22.717  40.699  13.014
 6610W        W78870  33.596   8.112  14.835
 6611W        W78871   2.152   9.890   3.636
 6612W        W78872   5.634  14.484   4.055
 6613W        W78873  37.079  42.917  14.526
 6614W        W78874  24.381  23.957  11.673
 6615W        W78875  37.932  35.786  14.305
 6616W        W78876  35.966  39.405  11.547
 6617W        W78877  28.892  13.804   4.549
 6618W        W78878  29.180  30.652  14.067
 6619W        W78879  43.965  33.666   2.195
 6620W        W78880   0.937  19.162   3.761
 6621W        W78881  30.297  41.941  11.569
 6622W        W78882  40.834  14.313   3.607
 6623W        W78883   5.713   4.878   1.358
 6624W        W78884  22.232  26.262   5.457
 6625W        W78885  37.382   9.745   4.923
 6626W        W78886  21.071  20.573  10.580
 6627W        W78887  29.172  14.627  10.955
 6628W        W78888   2.429  11.799  11.666
 6629W        W78889  44.359  19.061  12.083
 6630W        W78890  32.696  31.973  12.085
 6631W        W78891  21.409  10.114   1.837
 6632W        W78892  44.551  30.632   1.736
 6633W        W78893  26.583  37.865   4.564
 6634W        W78894  42.819  12.768   0.000
 6635W        W78895  26.503  38.477  11.331
 6636W        W78896  42.116  10.186  12.429
 6637W        W78897   0.672  21.069  13.910
 6638W        W78898  30.693  39.066  13.462
 6639W        W78899  36.107  24.266  11.471
 6640W        W78900  30.315  40.284   0.415
 6641W        W78901  37.484   2.607   2.968
 6642W        W78902   4.224   1.527   4.292
 6643W        W78903  24.964  29.596   0.844
 6644W        W78904  39.990  16.036   4.123
 6645W        W78905  32.268  16.666  11.679
 6646W        W78906  44.008   8.784  12.456
 6647W        W78907  18.545  22.380  10.996
 6648W        W78908   1.247  23.571  10.461
 6649W        W78909  15.022  23.141  12.135
 6650W        W78910  14.688  35.125  11.070
 6651W        W78911  11.737  27.176   1.095
 6652W        W78912  19.029  15.081   3.806
 6653W        W78913  36.899  42.897  13.659
 6654W        W78914   8.281  36.524   4.827
 6655W        W78915  39.004  29.017   4.577
 6656W        W78916  15.671  26.099   2.159
 6657W        W78917  38.059  12.760   0.984
 6658W        W78918  13.197   1.417   3.758
 6659W        W78919   5.066  31.375  11.079
 6660W        W78920   5.899  22.760   1.303
 6661W        W78921  24.980   2.150   2.288
 6662W        W78922  21.671  13.022   0.782
 6663W        W78923   6.790   0.200   4.903
 6664W        W78924  41.921  32.255  14.465
 6665W        W78925  25.541  29.962   0.882
 6666W        W78926   0.332   6.844  12.928
 6667W        W78927  35.454  14.299  11.147
 6668W        W78928  39.921  11.257   4.861
 6669W        W78929  29.221   0.458  11.586
 6670W        W78930  44.691  26.089  12.063
 6671W        W78931  32.622   8.813  14.215
 6672W        W78932  37.982   6.763  11.423
 6673W        W78933  20.164   8.940   3.600
 6674W        W78934  16.749  23.524   4.566
 6675W        W78935  38.034  13.398  12.247
 6676W        W78936  18.043  35.590   3.786
 6677W        W78937  21.253  21.256   0.865
 6678W        W78938  12.168  10.618  13.371
 6679W        W78939  12.721  11.389  10.584
 6680W        W78940  36.079  13.770  14.926
 6681W        W78941  33.136  20.011  12.973
 6682W        W78942  34.946  24.271  12.003
 6683W        W78943  18.108  22.276   3.151
 6684W        W78944   3.060   6.440   0.349
 6685W        W78945  40.447  25.220   2.630
 6686W        W78946  35.753  22.665  14.911
 6687W        W78947  16.728   0.499   3.087
 6688W        W78948  20.705   8.227  12.772
 6689W        W78949  15.373  27.002  11.936
 6690W        W78950  13.220  28.565   4.978
 6691W        W78951   5.570  19.601  11.122
 6692W        W78952  42.980  38.549  10.636
 6693W        W78953  40.756  16.194  11.228
 6694W        W78954  28.154  10.712   1.915
 6695W        W78955  42.238  15.716   3.866
 6696W        W78956  18.173  42.756   4.150
 6697W        W78957   2.288  19.277   0.430
 6698W        W78958  31.053  11.250   3.403
 6699W        W78959  16.189  28.893  12.174
 6700W        W78960   4.362  25.429  11.594
 6701W        W78961  36.377  29.939  11.144
 6702W        W78962  16.521  14.407   3.198
 6703W        W78963   9.356  13.750   3.843
 6704W        W78964  13.903  12.873   0.947
 6705W        W78965  21.779  31.663   2.686
 6706W        W78966  39.348   7.853  10.672
 6707W        W78967  16.041  24.183   2.297
 6708W        W78968  40.974  43.754   4.584
 6709W        W78969  32.976  44.359   0.099
 6710W        W78970   3.279  44.070  11.146
 6711W        W78971  13.676  33.000  11.014
 6712W        W78972  25.607  32.138   3.284
 6713W        W78973  21.167  27.397   1.190
 6714W        W78974  12.557  28.138  10.615
 6715W        W78975  30.011  37.619  13.551
 6716W        W78976  25.204  11.095   3.605
 6717W        W78977  33.428   7.211  12.005
 6718W        W78978   3.925  36.514   4.842
 6719W        W78979  44.216  44.400  10.950
 6720W        W78980  34.029  25.033   3.780
 6721W        W78981  17.204  19.177  14.326
 6722W        W78982  15.302  15.096  12.308
 6723W        W78983  15.397   5.626  12.215
 6724W        W78984   1.945  27.583  14.843
 6725W        W78985   3.553  24.567   2.603
 6726W        W78986  30.072  14.229  10.710
 6727W        W78987   4.231   6.932  12.937
 6728W        W78988  39.835  17.892  13.081
 6729W        W78989  37.911  16.840   1.313
 6730W        W78990  18.179  41.267  10.965
 6731W        W78991  20.551  34.111   1.343
 6732W        W78992  28.110  40.522  11.611
 6733W        W78993  35.035  18.788  14.403
 6734W        W78994  12.911   9.200   2.454
 6735W        W78995  34.833  38.518  13.823
 6736W        W78996   2.247   8.752   3.521
 6737W        W78997   0.521   6.838   0.891
 6738W        W78998  16.052  38.434  13.780
 6739W        W78999  36.426  25.126  11.979
 6740W        W79000  12.775  18.649   2.585
 6741W        W79001  38.576  41.320  12.935
 6742W        W79002  14.225  13.998   4.614
 6743W        W79003  15.667  38.918   3.663
 6744W        W79004  14.184   0.988   4.210
 6745W        W79005   7.672  30.696  11.513
 6746W        W79006  34.062  39.133   1.359
 6747W        W79007  29.690  28.676  12.915
 6748W        W79008  27.156  34.122   0.416
 6749W        W79009   1.283   9.776  13.143
 6750W        W79010  23.508  43.221  14.805
 6751W        W79011  40.791  23.202  13.049
 6752W        W79012  36.439  43.953   2.620
 6753W        W79013  22.691  10.634  11.479
 6754W        W79014  19.290  40.054  10.627
 6755W        W79015  44.487  30.403  13.862
 6756W        W79016  19.735  19.791  14.141
 6757W        W79017  28.104  25.025   4.611
 6758W        W79018  23.428  23.437  12.590
 6759W        W79019  26.194   9.194   0.917
 6760W        W79020  33.346  26.574   4.998
 6761W        W79021   8.381   2.356  13.449
 6762W        W79022  16.115  25.568  12.623
 6763W        W79023   5.207   9.332   1.892
 6764W        W79024  12.225  19.416   3.078
 6765W        W79025  23.250  28.688   2.312
 6766W        W79026   2.788   2.712   1.283
 6767W        W79027  36.892  29.253  11.225
 6768W        W79028  35.539   7.077  12.875
 6769W        W79029   7.841   5.471   3.726
 6770W        W79030  23.918  17.311   3.586
 6771W        W79031   9.740  25.566   3.224
 6772W        W79032  44.373  28.027   1.346
 6773W        W79033  43.473  29.005   2.470
 6774W        W79034  24.354  16.629  13.566
 6775W        W79035  36.396  29.840  13.043
 6776W        W79036  33.252   6.255  10.727
 6777W        W79037  39.417  30.139  13.046
 6778W        W79038  29.538  17.655   1.547
 6779W        W79039  32.767   5.881   4.164
 6780W        W79040  17.571   0.937   0.858
 6781W        W79041  37.159  22.169   0.348
 6782W        W79042   7.305  10.630  13.013
 6783W        W79043   0.273  42.559   2.851
 6784W        W79044  33.657   2.154   1.393
 6785W        W79045  38.296  20.224   0.894
 6786W        W79046  30.346  11.596   2.329
 6787W        W79047  26.581  43.460   2.206
 6788W        W79048  16.748  28.562  12.130
 6789W        W79049  26.019  35.505   3.177
 6790W        W79050  13.638  28.310  12.549
 6791W        W79051  16.356  29.969   3.643
 6792W        W79052   9.756  43.809   3.573
 6793W        W79053  33.514   2.883  10.999
 6794W        W79054  32.118  18.247   4.231
 6795W        W79055  28.630  39.798  10.882
 6796W        W79056   8.253  44.256   3.711
 6797W        W79057  16.778  22.293   2.720
 6798W        W79058  30.337  18.013  14.927
 6799W        W79059   1.867   9.266  14.836
 6800W        W79060  15.206  28.951  10.873
 6801W        W79061  23.705  14.212  10.656
 6802W        W79062  18.783  33.376   4.102
 6803W        W79063  34.920   2.175   2.571
 6804W        W79064  36.013  37.736   1.922
 6805W        W79065   9.144  16.733  11.963
 6806W        W79066   4.290  16.003  12.919
 6807W        W79067  16.588  40.058   1.482
 6808W        W79068  27.276  30.500   0.941
 6809W        W79069   5.282  13.560   3.309
 6810W        W79070  18.102   4.801  10.116
 6811W        W79071  10.160  32.331  12.984
 6812W        W79072  32.025  23.697  11.683
 6813W        W79073  40.390  36.532   0.944
 6814W        W79074   2.953  23.979   2.241
 6815W        W79075   4.662  32.587   4.511
 6816W        W79076  38.283  32.071  13.071
 6817W        W79077  42.742  35.317  11.215
 6818W        W79078  43.648  10.604  13.082
 6819W        W79079  32.966  21.775   1.703
 6820W        W79080  14.183  29.630  12.934
 6821W        W79081  25.740  34.820   5.016
 6822W        W79082  40.387  26.994  13.040
 6823W        W79083  11.252  24.030  14.838
 6824W        W79084   4.022  19.628   1.735
 6825W        W79085  20.975  26.169   4.957
 6826W        W79086  13.923  25.532  14.838
 6827W        W79087  39.590  27.667  10.994
 6828W        W79088  24.088  14.085  13.407
 6829W        W79089  30.689  30.406  10.960
 6830W        W79090   3.122  10.171   0.846
 6831W        W79091  15.108  43.392  14.992
 6832W        W79092  24.502   0.746  12.076
 6833W        W79093  39.762  17.307   3.662
 6834W        W79094  10.946  44.189  10.595
 6835W        W79095  31.825  40.783  13.302
 6836W        W79096  35.335  42.395  11.876
 6837W        W79097  26.374  35.726   0.812
 6838W        W79098   3.500  17.138   3.283
 6839W        W79099   3.935  42.476  10.781
 6840W        W79100  14.585  39.916  14.554
 6841W        W79101  36.090  12.661  13.866
 6842W        W79102   1.955  18.942  11.351
 6843W        W79103  41.638  41.382  10.614
 6844W        W79104   9.248  26.907   4.756
 6845W        W79105   0.349  21.180   1.698
 6846W        W79106  43.444  27.059  11.246
 6847W        W79107  39.628  12.088   2.687
 6848W        W79108  35.121  15.907   1.587
 6849W        W79109  25.651  29.198  10.755
 6850W        W79110   8.101  43.768   3.121
 6851W        W79111  27.017  36.660   1.622
 6852W        W79112  41.431  43.530   0.657
 6853W        W79113  41.998  25.127   4.692
 6854W        W79114   5.945  33.081  13.593
 6855W        W79115  31.474   5.422   3.840
 6856W        W79116   9.282  13.474  11.101
 6857W        W79117  40.987  41.774  14.708
 6858W        W79118  37.006  36.888  11.801
 6859W        W79119  31.681  14.205  12.097
 6860W        W79120   5.609   0.872   2.780
 6861W        W79121  20.186  44.864  12.109
 6862W        W79122  25.497  21.114   2.275
 6863W        W79123  31.657   9.386   3.310
 6864W        W79124  18.319  24.070   4.076
 6865W        W79125   2.527  12.291   0.347
 6866W        W79126  43.742  37.116  12.094
 6867W        W79127   2.511  20.013  14.824
 6868W        W79128  24.098   6.734  14.878
 6869W        W79129  38.639  12.397  13.239
 6870W        W79130  35.066  40.570   2.384
 6871W        W79131   8.892   3.908  13.888
 6872W        W79132  30.131   9.144  13.570
 6873W        W79133  20.784  18.209  12.820
 6874W        W79134  24.154  20.392   1.349
 6875W        W79135   1.967  22.024   4.190
 6876W        W79136  13.598  38.647  11.475
 6877W        W79137  22.039   1.161   2.587
 6878W        W79138  19.027  37.621   3.401
 6879W        W79139  10.386  10.652  14.325
 6880W        W79140  44.100  43.276   4.343
 6881W        W79141   8.643  21.574  10.989
 6882W        W79142  10.353   9.378   1.465
 6883W        W79143  19.110   3.285   3.362
 6884W        W79144  12.381  14.809  12.965
 6885W        W79145  17.197  41.246  12.760
 6886W        W79146  27.731  29.701  12.436
 6887W        W79147  13.850  20.975  13.459
 6888W        W79148  25.593  10.146  11.546
 6889W        W79149  33.824  43.028   2.784
 6890W        W79150  30.500   4.320  11.982
 6891W        W79151  22.055  22.659  12.864
 6892W        W79152  26.699   4.879   4.050
 6893W        W79153   1.791  16.120   1.054
 6894W        W79154  38.147  24.475   4.104
 6895W        W79155  13.881  15.907  11.698
 6896W        W79156  17.609  16.343  11.912
 6897W        W79157  24.115  29.536   0.840
 6898W        W79158  17.064  13.388  14.481
 6899W        W79159  11.309  38.915   1.100
 6900W        W79160  13.779  28.002   4.470
 6901W        W79161   1.926  43.298   0.725
 6902W        W79162  28.281  37.918   4.140
 6903W        W79163  44.634   7.242  12.482
 6904W        W79164   1.211  12.098   2.768
 6905W        W79165   5.469  32.979  12.409
 6906W        W79166  19.372  15.163   0.237
 6907W        W79167  41.239  30.398   1.250
 6908W        W79168   2.229  26.740   2.871
 6909W        W79169  23.218  28.771   1.789
 6910W        W79170  26.884   4.259   4.186
 6911W        W79171   8.831  38.030   0.511
 6912W        W79172  28.317  13.823  10.473
 6913W        W79173  44.030  22.574   0.953
 6914W        W79174   6.889  15.163  11.217
 6915W        W79175   6.943  40.956  11.563
 6916W        W79176   8.936   8.854  13.967
 6917W        W79177   8.464  19.778   4.552
 6918W        W79178  23.112  22.984  11.412
 6919W        W79179  28.121  22.203   4.231
 6920W        W79180  35.596  19.001   2.758
 6921W        W79181  42.607  40.780  13.770
 6922W        W79182   7.922  32.471   2.681
 6923W        W79183   1.206  43.302  12.960
 6924W        W79184  17.735  40.610   4.275
 6925W        W79185   0.921  16.705   4.327
 6926W        W79186   2.641  22.224  10.741
 6927W        W79187  43.889  17.333   2.696
 6928W        W79188  30.879  21.632   2.280
 6929W        W79189  44.015  33.901  10.979
 6930W        W79190  27.833  22.032  13.173
 6931W        W79191  35.516  17.458   3.684
 6932W        W79192  18.214  11.379  10.640
 6933W        W79193   9.464   2.220   0.859
 6934W        W79194   5.142   8.254  11.892
 6935W        W79195   4.361  12.162  10.705
 6936W        W79196  29.471  39.297   1.736
 6937W        W79197  19.200  18.128  10.682
 6938W        W79198   1.191   4.987   0.722
 6939W        W79199   1.085   1.990  10.746
 6940W        W79200  25.958  37.922   1.444
 6941W        W79201   0.985  14.282   3.407
 6942W        W79202  20.310   1.246   2.256
 6943W        W79203  27.582  37.444  14.308
 6944W        W79204  27.516  11.014  14.886
 6945W        W79205  22.416  28.915  13.061
 6946W        W79206   7.419   4.962  12.430
 6947W        W79207   2.789  17.187   0.899
 6948W        W79208  38.547  19.535  13.305
 6949W        W79209  18.049  36.053  12.418
 6950W        W79210  15.673  39.088   1.808
 6951W        W79211  24.080  36.007   0.933
 6952W        W79212   8.609  21.124  13.527
 6953W        W79213  20.636  24.264  13.391
 6954W        W79214  37.827  14.728   1.823
 6955W        W79215   7.258   1.847   2.647
 6956W        W79216  44.374   1.370   0.477
 6957W        W79217  13.491  31.001  11.116
 6958W        W79218  34.538   7.259  11.712
 6959W        W79219  15.720  37.258   3.215
 6960W        W79220  16.380  33.433   2.292
 6961W        W79221  34.516  35.831  12.446
 6962W        W79222  12.083   9.632   1.463
 6963W        W79223   0.445  23.803  12.344
 6964W        W79224  37.939   4.880   1.446
 6965W        W79225  39.571  43.528   3.655
 6966W        W79226   3.497  16.982  12.599
 6967W        W79227  17.839   1.738   0.440
 6968W        W79228  30.441  38.977  10.796
 6969W        W79229  12.736   6.479  14.030
 6970W        W79230  28.028  10.135   3.294
 6971W        W79231  10.229   8.139   1.301
 6972W        W79232  13.080  21.726   0.252
 6973W        W79233   7.370  35.149   0.298
 6974W        W79234  27.039  18.155  13.055
 6975W        W79235  26.224  14.819  13.525
 6976W        W79236  38.360  21.119   2.986
 6977W        W79237  40.311  11.195  11.087
 6978W        W79238  38.970   9.934  13.927
 6979W        W79239  23.742  38.902   4.655
 6980W        W79240   5.756  13.351  13.503
 6981W        W79241   3.535  15.200   1.585
 6982W        W79242  40.883  44.006  10.757
 6983W        W79243   1.301  36.356   2.727
 6984W        W79244  44.956   3.177  11.826
 6985W        W79245  25.128   4.502   2.713
 6986W        W79246  25.038   3.962   1.812
 6987W        W79247   1.111  29.296  14.082
 6988W        W79248  40.823  24.448   0.857
 6989W        W79249  16.482   1.685  12.919
 6990W        W79250  31.125  40.679  10.366
 6991W        W79251  42.735  15.286  14.880
 6992W        W79252  36.695  13.325  13.059
 6993W        W79253  35.062  10.651   0.335
 6994W        W79254  33.989  18.819  10.663
 6995W        W79255  18.532  15.267   0.636
 6996W        W79256  28.906  39.265  11.188
 6997W        W79257  22.320  13.598  10.792
 6998W        W79258  21.818  24.665   3.372
 6999W        W79259  41.267  30.901   1.399
 7000W        W79260  19.596   9.257  12.612
 7001W        W79261  42.995   0.945  10.404
 7002W        W79262  38.382  13.580   1.387
 7003W        W79263  16.333   6.937  12.458
 7004W        W79264  21.125  13.902  14.831
 7005W        W79265  31.512  16.536   2.749
 7006W        W79266  43.755  20.502  14.886
 7007W        W79267  14.173  29.436   2.235
 7008W        W79268  38.978  17.261   1.645
 7009W        W79269  33.903  41.472   0.008
 7010W        W79270   0.501  32.090  12.213
 7011W        W79271  14.579  25.987   0.222
 7012W        W79272   4.802  19.792   3.318
 7013W        W79273  14.083   6.899   2.246
 7014W        W79274  27.199  40.566   4.536
 7015W        W79275   2.850  43.166   5.313
 7016W        W79276  18.364  15.589  14.427
 7017W        W79277  21.584  31.683  12.073
 7018W        W79278  37.450   8.568   4.831
 7019W        W79279   3.660  36.311   4.003
 7020W        W79280  12.588  18.537  12.030
 7021W        W79281  37.601   5.829   2.333
 7022W        W79282  43.010  40.600   1.475
 7023W        W79283  14.799  11.636   3.342
 7024W        W79284  19.305   6.702   2.665
 7025W        W79285  20.161  14.055  11.095
 7026W        W79286   2.463  39.932   4.549
 7027W        W79287   8.364  32.616   3.664
 7028W        W79288  10.262   3.265  11.504
 7029W        W79289  38.141  16.175   3.064
 7030W        W79290  40.881  37.120   1.163
 7031W        W79291  13.106   6.614  12.479
 7032W        W79292  25.075   6.945   0.974
 7033W        W79293  35.753   1.568   0.321
 7034W        W79294  31.610  17.374   1.838
 7035W        W79295  29.045  11.671   1.731
 7036W        W79296  36.353  17.513  11.733
 7037W        W79297  23.059  19.803  12.006
 7038W        W79298  24.276  38.367   4.375
 7039W        W79299  42.952   7.739  12.218
 7040W        W79300   2.718   3.560   4.137
 7041W        W79301  43.356   7.207  10.663
 7042W        W79302  24.264   8.421  11.102
 7043W        W79303  33.168  15.482   1.767
 7044W        W79304   3.462   4.972   0.823
 7045W        W79305   4.236   5.828  12.623
 7046W        W79306  42.532  37.345   0.233
 7047W        W79307  29.348  15.078  11.163
 7048W        W79308   5.510  35.626  11.666
 7049W        W79309   7.863  43.428   4.827
 7050W        W79310  11.591   4.272   3.680
 7051W        W79311  35.847  33.383  12.482
 7052W        W79312  25.100  10.237   1.418
 7053W        W79313  39.507   8.464  13.807
 7054W        W79314   9.948  26.457  11.531
 7055W        W79315  41.309   3.860   2.323
 7056W        W79316  27.859   8.820  10.516
 7057W        W79317  26.054   1.085  12.999
 7058W        W79318  24.721  30.405   0.920
 7059W        W79319  38.981  23.168  12.115
 7060W        W79320   9.810  23.805   3.758
 7061W        W79321  27.988   4.545   0.425
 7062W        W79322  27.368  18.297   0.857
 7063W        W79323   3.433   9.451   2.860
 7064W        W79324  31.962  42.331   3.864
 7065W        W79325  31.902  40.519  11.458
 7066W        W79326  15.132  20.084   0.480
 7067W        W79327   1.810   1.733   4.686
 7068W        W79328  28.628   7.629   2.728
 7069W        W79329  29.930  42.935  14.386
 7070W        W79330  36.643  20.784  10.160
 7071W        W79331   8.828  12.286  13.339
 7072W        W79332  25.496  19.160   3.830
 7073W        W79333   7.057  34.885  12.282
 7074W        W79334  35.514  10.689  12.851
 7075W        W79335  30.127  17.752   3.370
 7076W        W79336  35.900  11.736   2.098
 7077W        W79337  23.226  36.631  10.626
 7078W        W79338  30.508  29.196   2.672
 7079W        W79339   0.927  20.968  12.090
 7080W        W79340   1.033   4.130   1.869
 7081W        W79341  44.353   3.458  12.932
 7082W        W79342  35.004  31.119  14.750
 7083W        W79343  24.672  39.496  13.043
 7084W        W79344  25.949  17.349   3.719
 7085W        W79345  32.127  37.932  12.007
 7086W        W79346  32.436  44.811   4.581
 7087W        W79347  31.877  39.838   3.314
 7088W        W79348  34.904  31.921   0.490
 7089W        W79349   0.855   3.736   3.097
 7090W        W79350   9.151  28.230  12.563
 7091W        W79351  31.619  24.679  14.444
 7092W        W79352  37.861  22.611   0.619
 7093W        W79353  22.232  42.308   1.407
 7094W        W79354   1.492  18.529  14.647
 7095W        W79355   2.745  14.514  13.151
 7096W        W79356   5.280   7.104  13.042
 7097W        W79357  32.473   1.441   0.509
 7098W        W79358  19.639  14.337   1.009
 7099W        W79359  39.065  31.771   1.666
 7100W        W79360   1.265  44.869   4.467
 7101W        W79361  19.336  22.987   0.689
 7102W        W79362  34.529  25.496   2.926
 7103W        W79363  13.393  24.284  11.759
 7104W        W79364  38.045  34.761  12.764
 7105W        W79365  32.981  20.737  14.987
 7106W        W79366  22.467  29.172   5.285
 7107W        W79367  31.544  10.378  10.505
 7108W        W79368  29.000   4.153  12.474
 7109W        W79369  23.258  11.462  11.242
 7110W        W79370  41.413  38.456  13.408
 7111W        W79371  15.689  26.890  12.900
 7112W        W79372  38.103  28.084   2.641
 7113W        W79373  27.072  27.103  11.143
 7114W        W79374  18.003   8.332  13.338
 7115W        W79375   9.753  10.818  12.705
 7116W        W79376  37.960  28.706  13.923
 7117W        W79377   0.384  14.528  12.959
 7118W        W79378  41.174   7.443   2.876
 7119W        W79379  18.186  15.601   4.690
 7120W        W79380  19.616  37.055  13.936
 7121W        W79381  35.999  25.209   4.802
 7122W        W79382  29.117   1.921   4.206
 7123W        W79383  41.566  24.178  12.453
 7124W        W79384  35.999  43.254   2.768
 7125W        W79385  17.658  11.780  13.771
 7126W        W79386  10.780  31.597   4.098
 7127W        W79387  36.940  21.597   1.137
 7128W        W79388   5.481  28.319   2.211
 7129W        W79389  20.686   4.155   3.970
 7130W        W79390  28.054  11.404  12.992
 7131W        W79391  25.625  37.464  13.527
 7132W        W79392  16.770   6.753  12.927
 7133W        W79393  38.503  13.717  12.188
 7134W        W79394  34.850  14.614   0.254
 7135W        W79395   4.807  30.910   2.216
 7136W        W79396  28.045  27.553   2.659
 7137W        W79397   7.851  32.616   3.619
 7138W        W79398   5.053   5.485   1.783
 7139W        W79399   7.354  31.818  13.957
 7140W        W79400  34.885  27.003  12.357
 7141W        W79401  32.558  23.465   1.904
 7142W        W79402  18.175  29.904   4.565
 7143W        W79403  12.111  20.451   3.212
 7144W        W79404   6.767  34.446  10.925
 7145W        W79405  41.991  22.303  11.070
 7146W        W79406  32.637  31.096  11.546
 7147W        W79407  38.423  10.092   3.771
 7148W        W79408  30.847  31.727   2.786
 7149W        W79409   9.196  18.490   1.733
 7150W        W79410  25.407  32.018   2.679
 7151W        W79411   8.347  37.626  12.398
 7152W        W79412   9.937  43.288   4.591
 7153W        W79413  35.486  15.505   2.336
 7154W        W79414  28.563  24.229  12.523
 7155W        W79415  20.767  13.198   0.561
 7156W        W79416  19.250  44.957   0.339
 7157W        W79417  39.853  39.448   0.071
 7158W        W79418  30.060  31.043  12.944
 7159W        W79419  25.721   0.525  14.754
 7160W        W79420  35.922  37.870  11.980
 7161W        W79421  20.073  42.783  10.217
 7162W        W79422   5.217  32.112   0.871
 7163W        W79423  12.676   6.771   3.660
 7164W        W79424  37.483  17.337  11.855
 7165W        W79425  32.233  39.822   3.737
 7166W        W79426   7.629  27.604  10.618
 7167W        W79427  23.205  14.631   1.904
 7168W        W79428  37.374  13.686   3.367
 7169W        W79429  20.761   7.270  13.094
 7170W        W79430  41.627  14.785  11.646
 7171W        W79431  19.763  21.658   1.526
 7172W        W79432  41.278  40.561  10.819
 7173W        W79433  44.756  28.403  12.154
 7174W        W79434   0.867   4.074   4.375
 7175W        W79435  17.568  12.145   4.157
 7176W        W79436  38.394  22.954  11.555
 7177W        W79437  27.189  13.676   0.945
 7178W        W79438  38.959  44.306  13.181
 7179W        W79439  18.190  43.075   2.248
 7180W        W79440  19.760  10.900   3.249
 7181W        W79441  13.321  19.205   0.800
 7182W        W79442  23.703  40.336  14.917
 7183W        W79443  31.120  24.900  12.940
 7184W        W79444  40.844  44.037  12.588
 7185W        W79445  10.901  43.373  11.210
 7186W        W79446  39.625  29.644   4.440
 7187W        W79447  15.276  38.059   3.234
 7188W        W79448  28.421  26.518  10.630
 7189W        W79449  18.705  12.332   2.135
 7190W        W79450  25.137  12.271   1.283
 7191W        W79451  36.666   9.266   1.389
 7192W        W79452   9.737  37.100  11.855
 7193W        W79453  17.134  27.530   3.286
 7194W        W79454  13.703  36.559   4.202
 7195W        W79455  10.946  26.508   0.322
 7196W        W79456   8.193  28.104  11.293
 7197W        W79457  10.504  21.221  12.865
 7198W        W79458  31.144   3.252  13.805
 7199W        W79459  23.961  12.296   0.353
 7200W        W79460  32.976   5.896  11.845
 7201W        W79461  28.097  12.655   0.769
 7202W        W79462  33.266   5.467   1.266
 7203W        W79463  14.963  32.995  12.923
 7204W        W79464  14.198  21.504   0.989
 7205W        W79465  43.935   7.634   3.273
 7206W        W79466  14.757   7.106  14.020
 7207W        W79467  37.822  39.911  12.994
 7208W        W79468   1.543  16.069   1.637
 7209W        W79469  16.516   0.775   4.130
 7210W        W79470   0.282  36.233  11.971
 7211W        W79471  24.286  43.794   2.336
 7212W        W79472   0.826  40.452   1.689
 7213W        W79473  39.442   2.223  12.180
 7214W        W79474  29.339   9.128  13.990
 7215W        W79475  21.504  37.635   2.415
 7216W        W79476  15.811  38.843   0.381
 7217W        W79477  21.514  44.210   3.177
 7218W        W79478  13.617   1.387   4.142
 7219W        W79479   7.712  44.675   2.194
 7220W        W79480  24.791  34.003   1.984
 7221W        W79481  37.656   4.437   2.196
 7222W        W79482  26.595  21.074  11.028
 7223W        W79483  21.497  26.089   1.902
 7224W        W79484  43.907  23.268   3.226
 7225W        W79485  37.255  29.044  13.932
 7226W        W79486  36.036   1.290   3.878
 7227W        W79487  21.669  42.469  11.617
 7228W        W79488  40.489  41.090   3.933
 7229W        W79489  44.726  12.758   4.777
 7230W        W79490  18.987  30.733  11.654
 7231W        W79491  27.571  28.698   0.618
 7232W        W79492  35.313  23.712  11.239
 7233W        W79493  35.509  33.287  10.714
 7234W        W79494  21.081  20.759  14.952
 7235W        W79495  23.746  31.067   1.834
 7236W        W79496   4.878   5.338  13.467
 7237W        W79497  42.267  44.461   3.697
 7238W        W79498  36.257  28.386   1.328
 7239W        W79499   0.435   7.863   1.879
 7240W        W79500  21.198  18.331  11.183
 7241W        W79501  34.927  19.115   4.556
 7242W        W79502  23.537  17.745  13.565
 7243W        W79503   1.046  11.005  14.560
 7244W        W79504  29.634  44.448   3.267
 7245W        W79505  34.561  27.682  14.039
 7246W        W79506  16.708  26.635   4.096
 7247W        W79507   6.924  25.948  14.658
 7248W        W79508   2.437  11.543  12.143
 7249W        W79509  43.960  24.706   0.877
 7250W        W79510  26.593  43.477  10.658
 7251W        W79511   8.254  11.363  12.030
 7252W        W79512  18.645  26.136  12.925
 7253W        W79513   8.472   8.247   0.342
 7254W        W79514   2.032  17.684   2.921
 7255W        W79515  22.909  23.487  13.426
 7256W        W79516   0.822  17.724   4.098
 7257W        W79517  36.507  36.955  14.740
 7258W        W79518  26.954  29.849  10.332
 7259W        W79519   3.889  42.295   2.733
 7260W        W79520  26.134  36.484   2.739
 7261W        W79521   5.482  22.475   2.941
 7262W        W79522   6.944  36.398  11.573
 7263W        W79523  39.715  20.424   2.861
 7264W        W79524  37.907  33.427  12.321
 7265W        W79525  30.573  10.230  14.546
 7266W        W79526  13.555  35.471   0.290
 7267W        W79527  33.923  27.930   2.801
 7268W        W79528  20.058  12.348   3.187
 7269W        W79529  23.030  35.487   1.257
 7270W        W79530  21.498  13.850   4.216
 7271W        W79531  29.577  12.368  13.628
 7272W        W79532   1.773  42.441  14.301
 7273W        W79533   3.523  41.410   9.991
 7274W        W79534  38.336  10.201   1.835
 7275W        W79535  10.740  41.937   4.572
 7276W        W79536  29.144  44.332   2.291
 7277W        W79537  20.285  34.090   3.583
 7278W        W79538  14.896  36.655   0.818
 7279W        W79539  18.835   6.428  10.147
 7280W        W79540  29.574  17.666  14.445
 7281W        W79541  19.764   0.923   2.228
 7282W        W79542  23.216   1.901   1.271
 7283W        W79543   7.147  26.101   5.397
 7284W        W79544  17.279  16.092  13.863
 7285W        W79545  11.811  26.841  12.096
 7286W        W79546  38.477  12.184   3.842
 7287W        W79547  26.724  21.205   1.805
 7288W        W79548   2.944   7.510   0.876
 7289W        W79549  30.722  13.025   3.729
 7290W        W79550   4.482   2.601   0.775
 7291W        W79551  16.165  37.070   0.732
 7292W        W79552  26.106  25.067   2.763
 7293W        W79553  40.286  26.780  11.526
 7294W        W79554  38.339  19.044   1.425
 7295W        W79555   0.821  44.364  10.637
 7296W        W79556  14.015  28.587   1.230
 7297W        W79557  23.914  14.618   0.529
 7298W        W79558  37.533  12.589  13.934
 7299W        W79559  21.977  26.060   5.052
 7300W        W79560  13.714  44.352  12.976
 7301W        W79561   2.834  37.582  12.397
 7302W        W79562   4.267  15.714  12.476
 7303W        W79563   8.362   0.253   4.049
 7304W        W79564  42.284   6.158   0.950
 7305W        W79565  34.284  10.744   4.687
 7306W        W79566  41.517  33.802  11.214
 7307W        W79567  43.874  13.643  11.536
 7308W        W79568  11.156  14.626   3.281
 7309W        W79569  23.215  14.698   3.705
 7310W        W79570   4.237   7.127   0.189
 7311W        W79571  14.890  33.242  11.682
 7312W        W79572  27.504  25.990  14.993
 7313W        W79573  35.379  30.736   3.891
 7314W        W79574   2.465  36.482   3.225
 7315W        W79575  32.437   6.315   2.680
 7316W        W79576  25.747  37.440   1.389
 7317W        W79577  18.592  12.900  12.981
 7318W        W79578  18.494  39.348  10.665
 7319W        W79579  16.992  41.786   5.195
 7320W        W79580  32.148  41.606   3.309
 7321W        W79581  16.741  41.466  10.759
 7322W        W79582   3.789  21.908   1.429
 7323W        W79583  24.630  27.928   1.037
 7324W        W79584  29.356   4.247  10.693
 7325W        W79585  15.079   7.787   0.854
 7326W        W79586  33.952   2.588  13.849
 7327W        W79587  20.732  13.790   1.292
 7328W        W79588   9.312  31.697  14.828
 7329W        W79589   2.846  11.897  11.030
 7330W        W79590  25.474  29.384   3.282
 7331W        W79591   2.846  28.890   2.287
 7332W        W79592  20.265  23.517   5.005
 7333W        W79593  36.359  30.566   1.837
 7334W        W79594  33.099  13.248   2.468
 7335W        W79595  19.534  17.090   4.579
 7336W        W79596   3.376  35.926   1.941
 7337W        W79597  36.561  19.245   3.661
 7338W        W79598   1.832   7.273   4.524
 7339W        W79599  30.696  40.451  14.437
 7340W        W79600  10.607  33.076   1.428
 7341W        W79601  10.956  13.675   1.483
 7342W        W79602  17.200   9.817  10.891
 7343W        W79603   1.176  25.282   3.590
 7344W        W79604  21.144  18.803  11.009
 7345W        W79605  26.792  21.486   0.800
 7346W        W79606  44.218   2.973  12.778
 7347W        W79607  23.061   7.885   4.217
 7348W        W79608  34.575  38.551   2.352
 7349W        W79609   8.499  44.663  14.448
 7350W        W79610  30.516  42.414  14.824
 7351W        W79611  38.067   0.271  11.047
 7352W        W79612  44.574  18.486   4.857
 7353W        W79613   1.795  28.687   4.721
 7354W        W79614  27.226  29.013   4.776
 7355W        W79615  40.436  21.963  10.609
 7356W        W79616  42.412  19.513  12.940
 7357W        W79617   2.089  18.689  14.497
 7358W        W79618  38.323  41.427  12.500
 7359W        W79619  20.261  44.031   1.363
 7360W        W79620  29.083  27.642  12.431
 7361W        W79621  41.471   8.340   2.439
 7362W        W79622  32.975  18.284  12.445
 7363W        W79623  12.645  14.088   2.840
 7364W        W79624  33.458  21.713  12.605
 7365W        W79625  21.642  31.186  13.102
 7366W        W79626   5.204  12.303   0.376
 7367W        W79627  22.143  17.952   2.421
 7368W        W79628  36.024  18.751  12.731
 7369W        W79629   9.135  12.200   0.834
 7370W        W79630  43.527  26.748  12.270
 7371W        W79631   1.296  13.603   3.537
 7372W        W79632  29.930  14.248  11.208
 7373W        W79633  40.945  15.251   0.132
 7374W        W79634   6.455   4.929  13.492
 7375W        W79635  39.503  43.012   3.613
 7376W        W79636   2.180   0.485   2.511
 7377W        W79637  12.324  21.113   4.725
 7378W        W79638   4.316  14.128   4.427
 7379W        W79639   6.808   7.946  14.764
 7380W        W79640  24.058  34.966   0.415
 7381W        W79641  40.361  12.447  11.786
 7382W        W79642  20.022   0.473  13.084
 7383W        W79643  36.903  31.363   3.605
 7384W        W79644  17.549  33.348  13.917
 7385W        W79645  40.439  26.132  14.822
 7386W        W79646  17.504  10.186  11.478
 7387W        W79647  41.593   9.054  13.468
 7388W        W79648   5.433  41.153  11.104
 7389W        W79649  18.260  19.822  10.802
 7390W        W79650  38.409   8.334  14.648
 7391W        W79651   5.770  20.823   3.863
 7392W        W79652   5.267  10.833  13.892
 7393W        W79653  10.449  38.081   4.232
 7394W        W79654  34.679  27.515  10.665
 7395W        W79655   2.899  20.712  13.592
 7396W        W79656  13.816  14.558  14.306
 7397W        W79657  37.205   0.778  12.425
 7398W        W79658  41.405   6.920   3.708
 7399W        W79659  15.437  17.162   0.368
 7400W        W79660   4.185   3.760  14.008
 7401W        W79661  37.436  20.284   2.711
 7402W        W79662  44.264  14.223   1.529
 7403W        W79663   6.276  32.435  13.163
 7404W        W79664  41.395  21.816   3.137
 7405W        W79665  23.081  41.744   4.372
 7406W        W79666  30.185  24.145   3.233
 7407W        W79667  25.212  25.899  11.886
 7408W        W79668  36.665  26.113   2.823
 7409W        W79669  22.490  13.125   4.116
 7410W        W79670  30.982   0.760   1.698
 7411W        W79671  10.739  32.596  12.128
 7412W        W79672  13.639  18.823   1.022
 7413W        W79673  31.529  32.907   0.086
 7414W        W79674  42.519  44.395   4.151
 7415W        W79675  37.269  30.694   1.822
 7416W        W79676  31.622  19.106  13.350
 7417W        W79677  20.974   8.598  10.739
 7418W        W79678  33.890  22.629  12.561
 7419W        W79679  23.991  24.976   4.200
 7420W        W79680  21.741  26.594  11.524
 7421W        W79681   7.431  38.370  14.973
 7422W        W79682  19.443  28.944   0.439
 7423W        W79683  24.954   2.849  10.949
 7424W        W79684  32.102  44.147   5.086
 7425W        W79685  37.381  12.146   2.872
 7426W        W79686  44.845  24.553  11.996
 7427W        W79687  44.609  39.605   4.904
 7428W        W79688  43.256  37.112  13.899
 7429W        W79689   1.787  17.677   3.388
 7430W        W79690  18.737  34.306  12.997
 7431W        W79691  30.378  25.028   0.480
 7432W        W79692   9.901  12.072  14.486
 7433W        W79693  33.592  42.362   2.765
 7434W        W79694  10.610  26.441  13.564
 7435W        W79695  11.765  34.334   0.383
 7436W        W79696  28.128  23.321  12.394
 7437W        W79697  17.839  30.766  12.112
 7438W        W79698  41.911  20.041  14.430
 7439W        W79699   7.321  39.272  13.832
 7440W        W79700  39.529  26.300  13.706
 7441W        W79701  17.281  10.870   0.061
 7442W        W79702  40.894  10.675  12.551
 7443W        W79703  34.673  16.753  12.495
 7444W        W79704  22.591  38.969  14.398
 7445W        W79705  44.800  34.092   2.227
 7446W        W79706  39.325  29.886   2.161
 7447W        W79707  20.236   8.107   4.613
 7448W        W79708  41.374   6.343  12.698
 7449W        W79709   6.284  11.682  13.493
 7450W        W79710   9.325   6.090  11.740
 7451W        W79711   6.879  26.647  10.764
 7452W        W79712  13.268  14.099  12.528
 7453W        W79713  39.105  35.809  14.955
 7454W        W79714   6.807  30.210   4.081
 7455W        W79715   3.723  12.106  13.289
 7456W        W79716  20.662  18.919  13.971
 7457W        W79717  35.016  44.795   1.820
 7458W        W79718  14.369  26.508   5.023
 7459W        W79719  17.082  18.571  13.655
 7460W        W79720  12.313  30.128  11.998
 7461W        W79721  31.140  26.579   4.953
 7462W        W79722  43.415  12.570  12.055
 7463W        W79723  38.766  36.858   3.863
 7464W        W79724  20.994  28.115   9.920
 7465W        W79725  27.908  15.947   5.203
 7466W        W79726  35.695  27.504  10.815
 7467W        W79727  14.723  36.932  10.608
 7468W        W79728  23.141  18.754  12.501
 7469W        W79729  20.026  12.684  11.056
 7470W        W79730  17.619  19.927   4.121
 7471W        W79731   8.189  14.089  13.700
 7472W        W79732  34.352  33.508  13.045
 7473W        W79733  35.074  15.285  11.131
 7474W        W79734   8.660  33.935  13.930
 7475W        W79735  27.643  16.882   3.109
 7476W        W79736  20.210  27.057   1.445
 7477W        W79737   2.405   0.423   4.718
 7478W        W79738  44.902  38.022  10.652
 7479W        W79739  21.768  28.138  12.429
 7480W        W79740   1.901  32.176  13.261
 7481W        W79741  19.562  18.802  12.499
 7482W        W79742  26.204  20.432  13.343
 7483W        W79743   0.072   9.411   4.176
 7484W        W79744   8.300  12.799   4.366
 7485W        W79745   7.675   5.901   0.379
 7486W        W79746  42.533  39.398  10.751
 7487W        W79747  14.928  27.994   4.450
 7488W        W79748  29.926  29.978  11.128
 7489W        W79749  22.601  21.313  11.061
 7490W        W79750  40.477  19.647   0.238
 7491W        W79751  21.283  24.063  13.042
 7492W        W79752  42.605  27.737   2.804
 7493W        W79753  26.764  34.098  12.963
 7494W        W79754  10.908  26.940  11.761
 7495W        W79755   7.728   9.069  13.640
 7496W        W79756   9.964  15.345  13.843
 7497W        W79757  33.596   9.841  10.520
 7498W        W79758  39.590  14.570   0.015
 7499W        W79759  15.772  10.248   4.141
 7500W        W79760  42.847  32.577   4.202
 7501W        W79761  22.447   5.669   4.138
 7502W        W79762  42.323  24.754   3.174
 7503W        W79763  36.559  13.805   1.298
 7504W        W79764  15.983  29.968   2.696
 7505W        W79765  26.505  17.925   2.673
 7506W        W79766  27.017   9.669   5.052
 7507W        W79767   0.944  19.084   4.296
 7508W        W79768  27.128  20.587  13.364
 7509W        W79769   5.795  17.006  12.023
 7510W        W79770  39.325   4.498   1.261
 7511W        W79771   5.208   2.941   4.773
 7512W        W79772  42.280  16.417   1.233
 7513W        W79773  13.404  34.859   1.347
 7514W        W79774   4.797  39.487  11.148
 7515W        W79775  21.048  27.330  13.154
 7516W        W79776  32.974  32.224  13.353
 7517W        W79777  22.706  15.328   2.225
 7518W        W79778  37.823   6.921   1.240
 7519W        W79779   2.743   6.946   1.661
 7520W        W79780  13.642   3.648   2.801
 7521W        W79781  13.484   9.878  14.106
 7522W        W79782  39.128   9.226   4.643
 7523W        W79783  22.905  39.832   2.764
 7524W        W79784  20.038  27.162  14.347
 7525W        W79785  24.556  18.261  11.470
 7526W        W79786  24.269  15.855   3.678
 7527W        W79787  43.003  33.041  14.659
 7528W        W79788  23.208  44.034   3.793
 7529W        W79789  30.930  16.492  12.032
 7530W        W79790   0.207   0.414  11.149
 7531W        W79791  42.037  42.308   0.875
 7532W        W79792   6.232  23.245  12.076
 7533W        W79793  34.884  26.078  14.314
 7534W        W79794  38.084  26.405   1.192
 7535W        W79795  25.722  10.594  14.312
 7536W        W79796   1.977  17.058  10.220
 7537W        W79797  40.376  14.400  12.526
 7538W        W79798   7.937  19.585   3.243
 7539W        W79799  18.548  21.191  13.923
 7540W        W79800   1.022   1.453  10.128
 7541W        W79801   2.893   2.139  14.873
 7542W        W79802  27.462  31.013  14.440
 7543W        W79803  32.604  12.109   4.575
 7544W        W79804  11.252  22.953  10.642
 7545W        W79805  41.046   3.080   3.179
 7546W        W79806   3.786  11.680  12.966
 7547W        W79807  40.093  39.398   4.110
 7548W        W79808  34.501  28.008  14.505
 7549W        W79809   5.226   6.334  10.665
 7550W        W79810  40.985  39.358  11.604
 7551W        W79811  18.818  18.764   3.745
 7552W        W79812  24.018  18.768  12.620
 7553W        W79813  14.800  25.778  12.911
 7554W        W79814  43.380  28.886   3.855
 7555W        W79815  27.704   8.199  13.759
 7556W        W79816   6.561  25.520   5.033
 7557W        W79817  17.022  28.930   3.577
 7558W        W79818   2.663   4.769   2.265
 7559W        W79819  16.594  11.567  14.956
 7560W        W79820  34.378   8.335   2.362
 7561W        W79821  12.290  16.716   4.395
 7562W        W79822   6.671  33.411  13.416
 7563W        W79823  14.663  38.563   2.840
 7564W        W79824  25.433  34.297   2.285
 7565W        W79825   5.355  15.608   2.307
 7566W        W79826  26.929  10.255   1.831
 7567W        W79827  44.902  26.852   1.773
 7568W        W79828  36.405  12.228   0.479
 7569W        W79829  25.098  39.620   9.796
 7570W        W79830   3.200  31.148   4.152
 7571W        W79831  19.055  33.646   0.322
 7572W        W79832  40.921  26.584  12.156
 7573W        W79833  38.521   9.500  12.121
 7574W        W79834  20.062  24.225   3.775
 7575W        W79835   8.829   3.158   0.419
 7576W        W79836  31.065   4.735  14.223
 7577W        W79837  23.631  15.407   4.217
 7578W        W79838  23.133  32.806   4.246
 7579W        W79839  12.578   7.470  14.509
 7580W        W79840  36.067   1.056   3.423
 7581W        W79841  21.282  28.159   1.801
 7582W        W79842  39.911  28.451  10.447
 7583W        W79843  22.005   6.494   2.753
 7584W        W79844  41.323  23.545  12.388
 7585W        W79845  20.242  14.134   4.011
 7586W        W79846  38.984  12.734   1.500
 7587W        W79847  25.728  20.325   2.204
 7588W        W79848  26.051  23.677  10.973
 7589W        W79849   0.479  39.595   1.842
 7590W        W79850   9.713  25.648   4.717
 7591W        W79851   8.576  27.064   2.433
 7592W        W79852  34.377  24.447   1.410
 7593W        W79853  21.031   0.401  12.980
 7594W        W79854  14.819  29.135   9.694
 7595W        W79855   2.816   8.170  11.389
 7596W        W79856  13.399  19.086   4.127
 7597W        W79857  29.498  38.339  10.772
 7598W        W79858  20.032   3.035   0.768
 7599W        W79859  10.999  30.051   5.650
 7600W        W79860  43.457   9.820  13.878
 7601W        W79861  37.467  16.255   4.301
 7602W        W79862   5.142   4.915   2.198
 7603W        W79863   8.262  32.899   2.307
 7604W        W79864   1.847  23.971   4.644
 7605W        W79865  16.543  40.431  11.585
 7606W        W79866  34.018  35.406  11.965
 7607W        W79867  18.709  37.669   4.138
 7608W        W79868  32.147  22.764   0.283
 7609W        W79869  26.106   9.425  11.758
 7610W        W79870   8.178   4.191   0.932
 7611W        W79871  25.590  21.309   4.085
 7612W        W79872  36.506  18.264  10.577
 7613W        W79873  41.868   2.367   4.720
 7614W        W79874  29.904  32.655  13.865
 7615W        W79875  17.585  18.288  14.353
 7616W        W79876  14.031  39.146   2.634
 7617W        W79877  32.634  40.513   0.180
 7618W        W79878  43.439   3.825   3.741
 7619W        W79879  29.626  30.863   2.274
 7620W        W79880  43.102  24.038  12.159
 7621W        W79881  25.813  10.188   0.791
 7622W        W79882  31.331   7.356   4.215
 7623W        W79883   6.833  34.155  14.840
 7624W        W79884  43.930   5.330   0.983
 7625W        W79885  22.161  40.765  13.276
 7626W        W79886   0.303  35.012  13.035
 7627W        W79887   6.182  30.726   4.146
 7628W        W79888  29.161  19.807   1.318
 7629W        W79889  30.124   7.106  14.812
 7630W        W79890  19.306  19.213   2.613
 7631W        W79891  18.570  19.722  13.467
 7632W        W79892  15.519  38.994  11.968
 7633W        W79893  26.962  30.925   2.693
 7634W        W79894  31.174  25.672  13.411
 7635W        W79895  44.446  41.096   0.255
 7636W        W79896  22.105   3.822  11.723
 7637W        W79897  38.748   6.500  10.561
 7638W        W79898  12.556  12.181   3.795
 7639W        W79899  19.028  19.448  13.451
 7640W        W79900  43.692  44.990   0.474
 7641W        W79901  41.531  40.113  10.432
 7642W        W79902  16.241   7.282   2.434
 7643W        W79903  13.913  27.702   5.497
 7644W        W79904  35.177  30.479   9.865
 7645W        W79905  12.260  12.085  12.942
 7646W        W79906  19.566  16.035   0.273
 7647W        W79907  21.403  33.556  12.184
 7648W        W79908  14.541   0.474   0.697
 7649W        W79909  34.867  38.987  14.044
 7650W        W79910  22.598   6.686  12.452
 7651W        W79911  25.423  44.273   0.321
 7652W        W79912  13.099  44.238   0.380
 7653W        W79913   7.782  35.973  10.178
 7654W        W79914   1.680  26.698   0.340
 7655W        W79915  23.296   5.986   1.834
 7656W        W79916  31.389  29.047   0.939
 7657W        W79917  16.554  10.147   2.640
 7658W        W79918  20.442  30.049  13.050
 7659W        W79919  31.510   0.930   4.256
 7660W        W79920  16.610   2.785   1.777
 7661W        W79921  11.733  39.855   4.409
 7662W        W79922   7.697  17.389   3.789
 7663W        W79923  38.581   2.495   0.788
 7664W        W79924  32.502  40.211  12.565
 7665W        W79925  41.760  16.423   3.207
 7666W        W79926  26.228  25.957   3.221
 7667W        W79927  11.382   5.100   1.896
 7668W        W79928  33.504   4.989   2.234
 7669W        W79929   4.865  42.801  13.566
 7670W        W79930  33.727  20.111  12.330
 7671W        W79931  34.568  34.920   3.906
 7672W        W79932  41.245  41.314   2.384
 7673W        W79933  43.907  18.234   1.306
 7674W        W79934   6.142   6.753  13.000
 7675W        W79935  38.052  44.478   2.719
 7676W        W79936  12.696  43.013   4.204
 7677W        W79937  32.837  41.760  11.940
 7678W        W79938  13.266  40.652   1.436
 7679W        W79939  44.749  20.571   2.175
 7680W        W79940   3.652  42.308   1.819
 7681W        W79941  35.228  24.259  13.327
 7682W        W79942  36.055  18.351  10.828
 7683W        W79943   7.605  10.585  14.926
 7684W        W79944   3.713  43.399   0.983
 7685W        W79945  29.164  32.085   1.268
 7686W        W79946  25.263  19.045  11.321
 7687W        W79947  22.000  13.262  14.527
 7688W        W79948  40.487  21.285   1.642
 7689W        W79949  34.895  24.262  14.863
 7690W        W79950  15.342   4.922   3.245
 7691W        W79951  18.785   9.606   3.224
 7692W        W79952  25.448  18.337   1.644
 7693W        W79953   6.655  36.623   2.723
 7694W        W79954  16.328  41.200  14.450
 7695W        W79955  19.967  13.019   4.943
 7696W        W79956   0.783  37.125   2.733
 7697W        W79957   0.760  20.102   2.825
 7698W        W79958   8.788   7.885   4.891
 7699W        W79959  42.002  43.951  12.118
 7700W        W79960  28.114  36.458   9.927
 7701W        W79961  34.105  44.386   1.073
 7702W        W79962  19.172  42.037   1.305
 7703W        W79963  21.283  33.632   3.214
 7704W        W79964  18.228  10.350  10.492
 7705W        W79965  35.447   3.713   4.229
 7706W        W79966   4.040   4.796  14.334
 7707W        W79967  18.194  19.750   3.405
 7708W        W79968   4.715  21.985   2.362
 7709W        W79969   4.806  38.151   3.161
 7710W        W79970  44.458  32.599  10.638
 7711W        W79971  27.556  40.981  10.628
 7712W        W79972  26.496   3.946   1.763
 7713W        W79973  36.516  24.199   1.833
 7714W        W79974  42.888  23.457  14.363
 7715W        W79975  32.629  12.811  13.081
 7716W        W79976  44.145  29.616  11.909
 7717W        W79977  39.870   3.504  10.905
 7718W        W79978  30.080  16.727   4.307
 7719W        W79979  37.385  22.383   2.487
 7720W        W79980   3.540  23.962  11.770
 7721W        W79981  10.879   6.468   3.698
 7722W        W79982  36.966   8.411  11.588
 7723W        W79983   5.867  15.614  14.479
 7724W        W79984  26.810  14.905  12.651
 7725W        W79985  16.190   8.604   0.634
 7726W        W79986   7.892  38.254  12.918
 7727W        W79987   6.788  23.708   2.284
 7728W        W79988  13.821  11.708   1.274
 7729W        W79989  17.782  14.940   3.061
 7730W        W79990  43.532  11.672   1.322
 7731W        W79991  38.846  40.324  12.910
 7732W        W79992  34.570   6.582   4.117
 7733W        W79993  21.252  12.856   4.594
 7734W        W79994  17.848   8.302   2.907
 7735W        W79995  26.090  14.190  12.455
 7736W        W79996  21.693  35.773  11.472
 7737W        W79997  43.235  40.868   3.498
 7738W        W79998   2.295  28.623  12.436
 7739W        W79999  42.819  33.324   4.504
 7740W        W80000  28.218  40.348  10.249
 7741W        W80001   9.415  18.369   3.342
 7742W        W80002   6.915   7.247  13.360
 7743W        W80003  30.504  14.625  10.691
 7744W        W80004  43.895  31.156  13.803
 7745W        W80005  39.867   4.225   1.320
 7746W        W80006  31.359  33.992  12.462
 7747W        W80007   4.810  41.436  11.521
 7748W        W80008  20.570  29.107   2.195
 7749W        W80009  19.520  33.852  13.140
 7750W        W80010  44.311  10.132  12.186
 7751W        W80011  43.880   7.127  14.907
 7752W        W80012   9.920  34.867   0.298
 7753W        W80013  27.570  37.829   0.050
 7754W        W80014  36.043  13.167  10.532
 7755W        W80015  21.731  41.560  14.559
 7756W        W80016  21.044  21.404  10.332
 7757W        W80017  12.286  16.559  11.353
 7758W        W80018   3.441  15.550  11.915
 7759W        W80019   3.402  20.523   3.127
 7760W        W80020   7.199  14.203   1.684
 7761W        W80021  24.494   1.358  13.378
 7762W        W80022  23.300   3.844   0.320
 7763W        W80023  31.630  27.355  13.034
 7764W        W80024  11.224  33.084  11.541
 7765W        W80025  41.377   8.256  14.366
 7766W        W80026   0.202  25.979  11.130
 7767W        W80027  40.392  44.589   0.425
 7768W        W80028   3.685  22.085  11.438
 7769W        W80029  35.927  10.252  11.531
 7770W        W80030  35.613  44.298   0.400
 7771W        W80031  40.403   1.945   4.250
 7772W        W80032   2.276  10.866   1.385
 7773W        W80033  43.449  38.117  14.322
 7774W        W80034  24.725   4.520  11.156
 7775W        W80035  31.100  17.508   1.093
 7776W        W80036  22.977  32.419  11.666
 7777W        W80037  40.297  20.685  14.859
 7778W        W80038  28.419   0.255   4.426
 7779W        W80039  32.409  43.465  12.296
 7780W        W80040  42.058  26.180   2.765
 7781W        W80041   8.314  27.073  11.649
 7782W        W80042  18.213  39.642  13.842
 7783W        W80043   7.415   1.472   1.400
 7784W        W80044  17.488  17.318   1.848
 7785W        W80045  22.746  18.550   4.143
 7786W        W80046  39.517   0.304   1.092
 7787W        W80047   6.512  21.640  14.184
 7788W        W80048   7.217   5.899   1.478
 7789W        W80049  32.587  20.001   4.280
 7790W        W80050  15.355  17.780   2.683
 7791W        W80051  16.784   9.149  13.433
 7792W        W80052  42.756   2.490  14.828
 7793W        W80053  39.049   0.762   1.702
 7794W        W80054  22.118  34.124   1.187
 7795W        W80055  22.195  32.234   1.358
 7796W        W80056   7.218  16.817  13.408
 7797W        W80057  20.971  26.636   0.933
 7798W        W80058  13.707  35.504   2.712
 7799W        W80059  17.783  16.589   0.758
 7800W        W80060  31.693  37.360   3.347
 7801W        W80061   0.511  11.897   1.486
 7802W        W80062  16.273  29.650   1.779
 7803W        W80063  11.874   8.885   0.912
 7804W        W80064  39.980  22.296   3.391
 7805W        W80065  21.407  44.464   2.272
 7806W        W80066  31.353  27.723   0.390
 7807W        W80067  24.786   1.760   2.544
 7808W        W80068  21.899  27.324   1.826
 7809W        W80069   8.806  18.027  12.554
 7810W        W80070  30.598   5.207   4.663
 7811W        W80071  38.785  18.156  11.661
 7812W        W80072   7.818  20.845  11.017
 7813W        W80073  20.705   3.295   3.404
 7814W        W80074   4.631  44.354   1.321
 7815W        W80075   8.367   6.348   3.645
 7816W        W80076  15.657  20.257   2.331
 7817W        W80077  42.732  18.267   3.582
 7818W        W80078   7.735  31.472   4.344
 7819W        W80079   9.185  14.336   0.467
 7820W        W80080  33.175  37.424  12.629
 7821W        W80081  26.844  13.197   0.408
 7822W        W80082   8.694  28.467   3.477
 7823W        W80083   1.039   9.637  11.494
 7824W        W80084  16.581  22.286  14.952
 7825W        W80085  41.502  40.119  10.939
 7826W        W80086  25.813  30.508  13.859
 7827W        W80087  34.830  29.685  11.118
 7828W        W80088   2.380   0.446   2.034
 7829W        W80089  38.834  25.040   0.431
 7830W        W80090  20.904  24.246   1.194
 7831W        W80091  14.138  42.497  10.412
 7832W        W80092  34.424   3.815   4.030
 7833W        W80093  25.234  14.632   1.010
 7834W        W80094  11.729  40.545   1.870
 7835W        W80095  36.558  19.794   1.191
 7836W        W80096   9.851  28.625   3.693
 7837W        W80097   5.295  20.417  12.819
 7838W        W80098  26.986  43.257   2.529
 7839W        W80099  39.397   0.797  12.084
 7840W        W80100  31.450  37.926  14.480
 7841W        W80101  24.243   1.308   0.921
 7842W        W80102  17.128   6.119   5.784
 7843W        W80103  25.367  37.331   1.058
 7844W        W80104  42.920  21.245  12.340
 7845W        W80105  32.514   1.645  12.106
 7846W        W80106  32.901   4.954   3.297
 7847W        W80107  15.264   3.208   1.083
 7848W        W80108  41.977  38.562   3.812
 7849W        W80109  37.171   2.790   2.030
 7850W        W80110  42.275   6.441   4.544
 7851W        W80111  38.807  30.296  11.580
 7852W        W80112  33.057  16.062  11.153
 7853W        W80113  10.435   8.202  13.348
 7854W        W80114  42.797  34.910   3.152
 7855W        W80115  42.804  17.476  13.568
 7856W        W80116   5.707  32.644  13.448
 7857W        W80117  28.110  17.654   3.254
 7858W        W80118  30.352  16.655   3.388
 7859W        W80119   4.866  18.134   4.078
 7860W        W80120  26.043  28.119   3.720
 7861W        W80121  26.081  23.558   2.281
 7862W        W80122  33.935  11.053   1.727
 7863W        W80123  11.644  13.817  13.263
 7864W        W80124   6.160  24.511  11.570
 7865W        W80125  28.605   3.427   4.573
 7866W        W80126  18.559  35.448   3.690
 7867W        W80127  14.332  26.071  11.352
 7868W        W80128  30.063  32.082  12.909
 7869W        W80129  44.317  25.495   3.699
 7870W        W80130   3.953  42.205   2.224
 7871W        W80131  22.318  22.239  10.917
 7872W        W80132   6.357  24.510   1.428
 7873W        W80133  15.288   0.279   3.662
 7874W        W80134  18.375   7.413   4.630
 7875W        W80135  21.966   1.301   3.236
 7876W        W80136  16.350  14.592  13.474
 7877W        W80137  15.051   3.740   2.442
 7878W        W80138  28.963   1.570  14.222
 7879W        W80139  43.175  44.012   0.934
 7880W        W80140  13.268  44.405   2.322
 7881W        W80141  14.334  21.493  12.302
 7882W        W80142  16.311  42.964  14.253
 7883W        W80143  36.056  21.056  13.966
 7884W        W80144  16.339  21.266  12.345
 7885W        W80145  21.534  40.432   4.665
 7886W        W80146   5.516  16.556   3.797
 7887W        W80147  22.037  14.865  14.471
 7888W        W80148  37.957  34.375  12.013
 7889W        W80149   6.757  13.656  11.161
 7890W        W80150  15.923  28.175  12.393
 7891W        W80151  31.851  37.159   1.285
 7892W        W80152  27.767  23.985   3.763
 7893W        W80153  35.904   2.314  14.870
 7894W        W80154  15.723  17.024  10.129
 7895W        W80155  33.462  41.844  14.889
 7896W        W80156  13.245  32.484   1.794
 7897W        W80157   0.781  38.358   3.229
 7898W        W80158  34.929  18.788   2.150
 7899W        W80159   0.945  18.162   1.675
 7900W        W80160   0.408  13.448  11.604
 7901W        W80161  36.966  10.139  10.172
 7902W        W80162  42.858  18.740   0.462
 7903W        W80163  26.543  18.765  11.692
 7904W        W80164   3.332  36.674  14.206
 7905W        W80165  16.871  25.230  14.914
 7906W        W80166  30.815  27.583  14.277
 7907W        W80167  41.929   3.900  11.440
 7908W        W80168  43.950  13.701  14.548
 7909W        W80169  12.195  29.900  10.458
 7910W        W80170  37.461  23.426  13.542
 7911W        W80171  16.832  42.598   2.194
 7912W        W80172  40.863  42.218   4.463
 7913W        W80173  35.670  36.614   0.139
 7914W        W80174   7.770  24.489   3.604
 7915W        W80175  38.593   3.235  11.559
 7916W        W80176   6.011   4.897   5.112
 7917W        W80177  28.929  29.833  13.021
 7918W        W80178  30.528  20.949  12.437
 7919W        W80179  17.725   0.868  14.319
 7920W        W80180   8.812   2.759   4.032
 7921W        W80181  44.060  16.709  10.719
 7922W        W80182  15.632  34.502  10.646
 7923W        W80183  10.056  12.902  14.908
 7924W        W80184   4.694   2.701   3.852
 7925W        W80185  10.675  35.117   1.774
 7926W        W80186  19.795  13.792  13.069
 7927W        W80187  26.806  20.630   2.829
 7928W        W80188  10.677  37.793  12.186
 7929W        W80189   3.124  31.479  13.090
 7930W        W80190  22.933  10.264  13.984
 7931W        W80191  20.091  32.125  10.990
 7932W        W80192  11.536  29.518  13.846
 7933W        W80193  23.952   1.175   2.207
 7934W        W80194  11.622   9.551  10.765
 7935W        W80195  39.734  39.944  12.925
 7936W        W80196  10.445   7.893  12.105
 7937W        W80197   9.150   7.050  13.316
 7938W        W80198  17.205  23.935  12.973
 7939W        W80199  23.374  31.758  12.404
 7940W        W80200  37.523  21.643  13.886
 7941W        W80201  30.762  27.078   1.077
 7942W        W80202  19.879  22.270  10.445
 7943W        W80203  32.139  22.660   2.146
 7944W        W80204  40.239   9.867  14.701
 7945W        W80205  25.873  32.524  13.104
 7946W        W80206  20.001   8.050   4.152
 7947W        W80207  23.729  28.441   0.826
 7948W        W80208  29.891  28.146   2.291
 7949W        W80209  21.172  13.981   3.751
 7950W        W80210  36.028  11.379   3.678
 7951W        W80211  34.811   5.115  14.206
 7952W        W80212  24.540  26.408   4.113
 7953W        W80213  10.905  44.686  10.713
 7954W        W80214  32.867  23.759   4.933
 7955W        W80215  23.663  42.601  11.589
 7956W        W80216   7.240  21.241   3.853
 7957W        W80217  31.164  37.596  11.231
 7958W        W80218  16.349  37.925  11.188
 7959W        W80219  42.861  26.061   3.224
 7960W        W80220  36.996  15.300   4.595
 7961W        W80221   1.228  25.022  10.770
 7962W        W80222  11.487  38.778  13.496
 7963W        W80223  44.752  40.700   3.606
 7964W        W80224  38.091  42.490   2.138
 7965W        W80225  23.397  14.662  14.601
 7966W        W80226  19.790  32.009   4.401
 7967W        W80227  20.960  37.958   5.017
 7968W        W80228  20.470  34.392   0.069
 7969W        W80229   0.959  22.010  14.599
 7970W        W80230  36.658  17.273  12.072
 7971W        W80231  18.239  25.542   2.872
 7972W        W80232   9.055  44.461  13.107
 7973W        W80233  31.686  31.929   2.900
 7974W        W80234  32.842   6.775  11.005
 7975W        W80235  22.246  27.170  11.176
 7976W        W80236   4.414  23.773  13.960
 7977W        W80237   7.451  24.057   2.174
 7978W        W80238  35.732  40.935  14.396
 7979W        W80239  44.176  17.268   1.396
 7980W        W80240  37.422   7.469  14.443
 7981W        W80241  11.231   4.708   1.491
 7982W        W80242  43.560  36.477   2.906
 7983W        W80243  18.518   6.551   4.329
 7984W        W80244   0.365  36.809  11.642
 7985W        W80245  41.076  35.449  11.023
 7986W        W80246  37.316  19.195   3.214
 7987W        W80247   8.183  28.136   3.319
 7988W        W80248  19.839  28.549  13.189
 7989W        W80249   1.273  44.030  12.210
 7990W        W80250  18.669  27.895  13.053
 7991W        W80251  20.827   4.848  12.071
 7992W        W80252  11.122  43.452   3.237
 7993W        W80253  20.517  39.806  12.516
 7994W        W80254   5.530  32.404   2.890
 7995W        W80255  32.647  42.916  13.127
 7996W        W80256  36.827   9.742   5.057
 7997W        W80257  15.694  35.051   3.427
 7998W        W80258  39.372  41.982  12.853
 7999W        W80259  19.330   5.723   1.247
 8000W        W80260  28.260   3.501   2.124
 8001W        W80261   5.991  43.105   3.480
 8002W        W80262  12.210   2.084   3.541
 8003W        W80263   5.649  41.843   0.217
 8004W        W80264  41.172   1.412   2.346
 8005W        W80265  25.140  20.534   4.162
 8006W        W80266  26.576  28.923   0.089
 8007W        W80267  31.329   5.169  13.993
 8008W        W80268   0.959  41.702  12.033
 8009W        W80269  40.340  19.733  13.894
 8010W        W80270   3.895  27.661   0.950
 8011W        W80271   5.216  17.607   2.119
 8012W        W80272  39.854  16.833  13.941
 8013W        W80273  21.682  24.288   4.169
 8014W        W80274   5.044  22.134  11.267
 8015W        W80275  33.799   4.345   1.295
 8016W        W80276   5.033  11.141   3.381
 8017W        W80277  22.832  13.369   3.183
 8018W        W80278  14.703  18.816   5.358
 8019W        W80279   2.292  36.600   3.684
 8020W        W80280  15.923  26.557   1.905
 8021W        W80281  24.586  12.345  11.346
 8022W        W80282  16.619  15.377  13.093
 8023W        W80283  37.558  26.229   1.267
 8024W        W80284  44.315  23.531  12.934
 8025W        W80285  44.682  25.885   3.794
 8026W        W80286  14.213  14.446  14.979
 8027W        W80287  13.638   3.666   1.938
 8028W        W80288  35.492  17.812   5.500
 8029W        W80289  28.075  12.284   2.321
 8030W        W80290  11.467  19.014   0.942
 8031W        W80291  15.867  18.316   1.394
 8032W        W80292   8.654  20.631  10.446
 8033W        W80293  23.152  20.758   3.670
 8034W        W80294   6.784  28.722   2.716
 8035W        W80295  14.577  17.347  14.296
 8036W        W80296  19.075  15.078   1.808
 8037W        W80297  39.208  27.766  12.861
 8038W        W80298  37.555  20.675  14.433
 8039W        W80299  37.344  29.353   3.664
 8040W        W80300  16.800   0.011  11.620
 8041W        W80301  32.712  16.410  11.452
 8042W        W80302  12.250  36.580  12.049
 8043W        W80303  42.319   2.494  14.327
 8044W        W80304  16.304  18.037   3.633
 8045W        W80305  24.487   1.184   2.271
 8046W        W80306  25.953  14.719   2.322
 8047W        W80307  12.305  28.185   4.602
 8048W        W80308  10.024  36.372   2.728
 8049W        W80309  40.251  25.282   0.004
 8050W        W80310  35.823  28.634  12.493
 8051W        W80311  42.045  36.914   3.127
 8052W        W80312  42.636  39.966  13.342
 8053W        W80313  31.519  21.166   2.741
 8054W        W80314  30.418  39.795   4.084
 8055W        W80315  23.922  43.041  14.452
 8056W        W80316  18.147   5.190  12.781
 8057W        W80317  21.470  21.739  10.231
 8058W        W80318  16.078   5.413   2.226
 8059W        W80319  33.939  10.643   3.814
 8060W        W80320  42.791  41.461  14.898
 8061W        W80321  38.979  12.797  13.056
 8062W        W80322  21.645  23.113  12.156
 8063W        W80323  11.194   8.919  13.472
 8064W        W80324  18.050   2.515  10.589
 8065W        W80325  12.722  33.532   3.645
 8066W        W80326  30.372  15.240   2.933
 8067W        W80327  28.145  42.601  11.376
 8068W        W80328  38.369   4.527   0.726
 8069W        W80329  27.677  24.126   0.473
 8070W        W80330  44.816  28.489  12.665
 8071W        W80331   9.465  42.840   0.297
 8072W        W80332  22.460  13.895  12.847
 8073W        W80333  33.251  15.334   0.229
 8074W        W80334   9.342   1.462   0.285
 8075W        W80335   6.767  44.891  10.694
 8076W        W80336  14.125  28.263  12.726
 8077W        W80337  42.023  37.803   1.373
 8078W        W80338  40.907  24.541  13.652
 8079W        W80339  43.897  10.969  11.184
 8080W        W80340  41.617   1.298   4.269
 8081W        W80341  18.106  29.483   1.129
 8082W        W80342  14.648  30.725   4.625
 8083W        W80343  15.350  13.999  11.027
 8084W        W80344  42.915  37.288  11.600
 8085W        W80345  34.596   6.312   0.605
 8086W        W80346  13.234  13.790  11.116
 8087W        W80347   4.814  17.055   1.865
 8088W        W80348  33.386  44.589  14.205
 8089W        W80349  19.303   3.747   3.632
 8090W        W80350  27.024  42.058   3.801
 8091W        W80351  44.313  14.738   1.670
 8092W        W80352  34.519  20.614   4.242
 8093W        W80353   3.176  41.534   3.763
 8094W        W80354  21.010  27.359   0.179
 8095W        W80355  10.132   1.340   3.320
 8096W        W80356  16.213  37.326  12.464
 8097W        W80357  41.961  35.786  12.306
 8098W        W80358  44.705  35.925   4.090
 8099W        W80359  44.674  19.717   3.248
 8100W        W80360   8.338  43.691   3.576
 8101W        W80361  42.333  19.113   4.087
 8102W        W80362  38.859  21.254   4.554
 8103W        W80363  23.683  28.648  12.868
 8104W        W80364  19.628   4.882  10.647
 8105W        W80365   3.035   6.268  13.106
 8106W        W80366   7.149  32.617   1.473
 8107W        W80367  25.227  42.000   3.085
 8108W        W80368  31.800  22.520   0.877
 8109W        W80369  12.593  29.035  14.337
 8110W        W80370  21.004  18.794  13.356
 8111W        W80371   4.698  38.803   1.208
 8112W        W80372  28.586  10.289  11.528
 8113W        W80373  37.400   8.283   3.179
 8114W        W80374  14.247  30.052   3.683
 8115W        W80375  37.576  25.047   1.462
 8116W        W80376   8.104  11.891  12.910
 8117W        W80377  33.512  11.308   3.136
 8118W        W80378  12.250  18.283   0.764
 8119W        W80379  13.607  39.092   1.440
 8120W        W80380  36.937  44.072   0.754
 8121W        W80381  24.391  36.974   2.207
 8122W        W80382   3.191  38.752  11.832
 8123W        W80383  32.614  10.710  13.881
 8124W        W80384  10.084  40.502   0.655
 8125W        W80385   7.778   8.683  11.918
 8126W        W80386  28.053  27.829  12.501
 8127W        W80387  20.600  15.794   0.220
 8128W        W80388   9.262   3.455   1.308
 8129W        W80389  28.459  20.593  11.523
 8130W        W80390  33.343  16.037   1.884
 8131W        W80391  27.937  42.296   4.074
 8132W        W80392  21.623   7.363   4.200
 8133W        W80393   4.637  20.160   0.759
 8134W        W80394  29.482  37.744   4.442
 8135W        W80395  42.873  16.810   4.346
 8136W        W80396   9.074  39.127  10.609
 8137W        W80397  30.959  33.327   0.815
 8138W        W80398  24.864  37.999   0.170
 8139W        W80399  43.809   7.406  13.539
 8140W        W80400   6.869  36.592  13.354
 8141W        W80401   4.426  36.770   1.841
 8142W        W80402   8.409  17.100  14.618
 8143W        W80403  32.898  17.367   3.695
 8144W        W80404   5.233  18.175  12.583
 8145W        W80405  13.760   9.218   3.247
 8146W        W80406  34.994   4.275  11.757
 8147W        W80407   2.488  21.896   3.857
 8148W        W80408   3.851  32.507  12.531
 8149W        W80409  43.290  33.041   2.630
 8150W        W80410  22.218   0.242   3.887
 8151W        W80411  14.363   9.661   2.801
 8152W        W80412  19.676  33.346   2.350
 8153W        W80413  41.314  18.086   2.096
 8154W        W80414  23.446  13.082  11.721
 8155W        W80415  17.422  40.262   9.861
 8156W        W80416  15.789  28.288   3.921
 8157W        W80417  41.824  32.391   1.954
 8158W        W80418  34.447  29.353   0.747
 8159W        W80419   2.781   8.636  14.759
 8160W        W80420  22.574  43.345   1.279
 8161W        W80421  29.157  31.166   0.023
 8162W        W80422  18.220  40.507   0.876
 8163W        W80423  29.207  37.156   2.112
 8164W        W80424  37.853  38.990   3.102
 8165W        W80425  34.362  15.792  13.928
 8166W        W80426  36.083  29.615  10.791
 8167W        W80427  22.173  37.107   3.671
 8168W        W80428  15.676   1.866   2.378
 8169W        W80429  31.714  18.340  12.009
 8170W        W80430  14.263  19.738  14.779
 8171W        W80431   7.407   8.684   4.558
 8172W        W80432  12.228   2.697   0.951
 8173W        W80433  26.554  36.870   4.619
 8174W        W80434  18.127  17.250  13.985
 8175W        W80435  24.508  42.570  11.894
 8176W        W80436  41.846  30.352   4.970
 8177W        W80437  35.875   1.502   3.310
 8178W        W80438  33.023  40.440  11.434
 8179W        W80439  42.947  44.000  12.385
 8180W        W80440  33.532  43.756  14.834
 8181W        W80441  32.000  10.807  12.152
 8182W        W80442  25.343  10.940   2.212
 8183W        W80443  27.484  10.098   0.296
 8184W        W80444  38.029  35.798  13.807
 8185W        W80445  22.302  26.130   3.322
 8186W        W80446   1.136  39.862  14.481
 8187W        W80447  42.340  28.574  11.519
 8188W        W80448  13.617  32.991   4.399
 8189W        W80449  13.937  14.610  11.888
 8190W        W80450  43.558   7.827   0.609
 8191W        W80451   0.848  11.506   4.135
 8192W        W80452  16.985  12.842   0.757
 8193W        W80453  13.797  13.021  12.926
 8194W        W80454  35.617  33.024   3.205
 8195W        W80455  10.636  42.463   4.569
 8196W        W80456  38.490  17.620  14.392
 8197W        W80457   6.909  29.588   2.771
 8198W        W80458   7.721   2.155  10.457
 8199W        W80459  19.304  30.060   0.672
 8200W        W80460  23.246  39.380   1.393
 8201W        W80461  23.974  31.224  13.055
 8202W        W80462  32.259  35.524   0.830
 8203W        W80463  24.210   4.860  14.995
 8204W        W80464   7.556  31.537   4.928
 8205W        W80465   2.238  23.117   2.778
 8206W        W80466  19.029  41.545  12.995
 8207W        W80467  37.391  34.958  10.841
 8208W        W80468  39.556  21.762   4.169
 8209W        W80469  41.510  16.891  13.387
 8210W        W80470   8.467  28.027  11.709
 8211W        W80471   7.328  28.542   3.188
 8212W        W80472  11.377  18.625   2.665
 8213W        W80473   4.543  11.678  10.752
 8214W        W80474  21.805  33.545   0.933
 8215W        W80475  30.751  12.821  11.263
 8216W        W80476  35.974  22.949   0.467
 8217W        W80477  44.445  42.803  14.714
 8218W        W80478  17.082  36.419  14.346
 8219W        W80479  43.846   6.618  14.906
 8220W        W80480   8.602   9.878  14.765
 8221W        W80481  21.579  32.887   3.908
 8222W        W80482  42.528   3.308   4.992
 8223W        W80483   9.077  36.972   0.673
 8224W        W80484  30.058   6.636   4.756
 8225W        W80485  15.732  17.463   5.521
 8226W        W80486  20.260  44.612  11.126
 8227W        W80487  19.871   1.519   0.798
 8228W        W80488  34.977  23.108   5.037
 8229W        W80489  35.334  36.446  13.421
 8230W        W80490   0.372  27.645   2.847
 8231W        W80491   8.707  16.295   2.327
 8232W        W80492  11.803  36.308  12.030
 8233W        W80493  12.719  26.582   4.076
 8234W        W80494  31.142   8.142  13.700
 8235W        W80495  41.685  14.097  10.021
 8236W        W80496  27.869  40.573  12.858
 8237W        W80497  30.521  19.602  14.926
 8238W        W80498  12.278  13.515   1.163
 8239W        W80499  40.928  13.535   0.872
 8240W        W80500  15.763   4.208   0.404
 8241W        W80501  11.184  12.802   1.280
 8242W        W80502  38.597   9.099   3.794
 8243W        W80503  31.444  12.551  11.490
 8244W        W80504  31.185  21.804  13.941
 8245W        W80505   5.762  11.797  10.751
 8246W        W80506  14.071  39.108   1.653
 8247W        W80507  37.257  36.846  13.990
 8248W        W80508  13.343   3.207   4.594
 8249W        W80509  10.806  11.303  13.372
 8250W        W80510  28.753   1.223  13.181
 8251W        W80511   2.962  18.664   1.933
 8252W        W80512  15.554  25.954  13.290
 8253W        W80513  25.144   7.457   1.042
 8254W        W80514  38.804  37.835  10.730
 8255W        W80515  12.203   8.479   1.511
 8256W        W80516  40.428  36.535   1.858
 8257W        W80517  33.362  23.517   4.755
 8258W        W80518   6.254  40.404   1.845
 8259W        W80519  39.015  25.535  11.182
 8260W        W80520  24.637  24.309   4.830
 8261W        W80521   4.338  37.889   3.221
 8262W        W80522  29.665  37.226   1.844
 8263W        W80523  38.449  37.927   4.520
 8264W        W80524   4.803   2.001  11.047
 8265W        W80525  15.823   7.228   0.987
 8266W        W80526  28.686  39.533   4.402
 8267W        W80527  33.385  36.098  11.373
 8268W        W80528  40.029  20.834  14.428
 8269W        W80529  43.841  24.506  12.033
 8270W        W80530  15.820   3.702   0.398
 8271W        W80531  37.489  39.323  10.707
 8272W        W80532  32.477  16.835  14.387
 8273W        W80533  18.407   8.636  11.099
 8274W        W80534  34.469   5.298   4.238
 8275W        W80535  13.243  23.791   2.674
 8276W        W80536  32.380  27.304   4.217
 8277W        W80537  42.980  32.986   3.431
 8278W        W80538   5.916  34.424   0.827
 8279W        W80539   6.893  27.633  13.797
 8280W        W80540  40.369  38.656   3.727
 8281W        W80541   4.689  20.233   4.180
 8282W        W80542  39.839  16.535   3.185
 8283W        W80543  10.116  22.761   1.686
 8284W        W80544  30.343  14.149  11.573
 8285W        W80545  19.627  10.177   1.684
 8286W        W80546   2.471  10.119   3.256
 8287W        W80547  30.005  33.883   4.426
 8288W        W80548  42.840  13.136   3.351
 8289W        W80549  13.671  33.846   0.494
 8290W        W80550  38.662  13.302  13.820
 8291W        W80551  14.618   9.356  13.985
 8292W        W80552  43.973  38.431   1.335
 8293W        W80553  41.418  10.241   3.649
 8294W        W80554  13.909  21.133   1.657
 8295W        W80555  25.699  26.102  14.726
 8296W        W80556  43.095  27.912   3.782
 8297W        W80557  42.301  11.703  12.200
 8298W        W80558  10.636   2.751  11.610
 8299W        W80559  44.029   0.963  11.380
 8300W        W80560  37.453  16.607   2.318
 8301W        W80561  42.269  35.287   2.303
 8302W        W80562  41.482  23.598   0.084
 8303W        W80563   6.006  38.530  10.494
 8304W        W80564   8.610  42.348   1.741
 8305W        W80565  28.942  18.118   3.566
 8306W        W80566  39.001  27.099   3.962
 8307W        W80567  28.513   1.081  11.946
 8308W        W80568   3.259  34.528  13.247
 8309W        W80569  42.450   5.848  14.578
 8310W        W80570  42.472  26.131  14.409
 8311W        W80571   6.124  18.444   4.752
 8312W        W80572  36.889  44.035   3.917
 8313W        W80573   6.170  22.198   3.659
 8314W        W80574  44.477  12.086  12.551
 8315W        W80575  23.708  15.686   1.420
 8316W        W80576  21.268  42.228  13.963
 8317W        W80577  22.316  31.717   0.044
 8318W        W80578   6.274  28.877  11.971
 8319W        W80579  35.082  25.294   3.164
 8320W        W80580  24.958  27.378  13.951
 8321W        W80581  21.564  25.521   1.307
 8322W        W80582  23.964  26.531  10.689
 8323W        W80583   5.283  18.540   2.189
 8324W        W80584  33.226   7.693   2.549
 8325W        W80585   1.940  14.360  12.039
 8326W        W80586  44.758  40.946  10.798
 8327W        W80587  36.909  17.376   0.847
 8328W        W80588  44.331  10.002   5.015
 8329W        W80589  21.685   7.595  10.633
 8330W        W80590  30.114   2.502   1.615
 8331W        W80591  21.192  23.993  11.052
 8332W        W80592  38.022  19.824   1.892
 8333W        W80593  38.836  24.312  10.903
 8334W        W80594  43.500  20.590  11.612
 8335W        W80595  39.746  28.890  11.227
 8336W        W80596  22.395  43.885  11.110
 8337W        W80597   6.177  35.953  10.137
 8338W        W80598  41.542   1.821   4.375
 8339W        W80599  10.242  19.990  11.060
 8340W        W80600  42.755  26.024   0.301
 8341W        W80601  17.169   6.211   5.283
 8342W        W80602  22.378  26.932  13.036
 8343W        W80603  19.238  30.503   0.433
 8344W        W80604  44.211  34.640  11.653
 8345W        W80605   0.250  36.459  12.616
 8346W        W80606  23.096  41.775   1.736
 8347W        W80607   6.920  40.937   1.400
 8348W        W80608  25.959  25.691   0.835
 8349W        W80609  14.817   3.738  13.455
 8350W        W80610  44.740  41.989   1.743
 8351W        W80611  24.103  34.584  13.382
 8352W        W80612   1.864  16.011  14.458
 8353W        W80613  38.057  31.479   1.068
 8354W        W80614  39.538   2.352  13.161
 8355W        W80615   8.689   1.936  14.768
 8356W        W80616   3.939  26.967   3.152
 8357W        W80617  34.431   0.914  10.547
 8358W        W80618  25.050  35.587   1.043
 8359W        W80619  29.124  15.323  11.539
 8360W        W80620  29.163  12.426  14.381
 8361W        W80621  33.459  20.722  13.437
 8362W        W80622  20.885   2.379   3.441
 8363W        W80623  22.734  11.141   4.697
 8364W        W80624  36.476   3.725   0.926
 8365W        W80625  13.672  29.577  10.019
 8366W        W80626  24.388  25.045   1.624
 8367W        W80627  27.201  14.173   0.272
 8368W        W80628  21.686   5.208  11.071
 8369W        W80629  30.663  20.566   4.744
 8370W        W80630  30.269  31.811  12.498
 8371W        W80631  21.089  11.596   3.597
 8372W        W80632  37.536  36.296  11.535
 8373W        W80633  25.733  20.020   0.764
 8374W        W80634  13.624   8.209  11.179
 8375W        W80635  18.681  15.721   4.834
 8376W        W80636  24.235   3.326  10.813
 8377W        W80637  43.088  41.258  11.491
 8378W        W80638   3.374   2.704  12.296
 8379W        W80639  43.207  30.061  14.076
 8380W        W80640  26.572  26.986  13.947
 8381W        W80641  29.414  34.082   2.806
 8382W        W80642  29.197  37.004  12.443
 8383W        W80643  21.000  15.191  10.259
 8384W        W80644  29.384   5.204  14.363
 8385W        W80645  39.397   9.851   3.746
 8386W        W80646   4.404   0.243   4.351
 8387W        W80647  41.043   9.119  11.626
 8388W        W80648  23.158  36.816   3.726
 8389W        W80649   0.985  15.117   2.643
 8390W        W80650  20.189  44.277   4.191
 8391W        W80651  18.672  25.230   2.808
 8392W        W80652  43.923  39.405  13.573
 8393W        W80653   7.130  14.332  12.332
 8394W        W80654  17.089   2.317  14.505
 8395W        W80655   7.634   1.200   4.060
 8396W        W80656  25.461  10.267  10.662
 8397W        W80657  44.234   2.855   4.504
 8398W        W80658  27.098  40.572  11.425
 8399W        W80659  37.788  37.083  11.894
 8400W        W80660  40.129  24.074  14.829
 8401W        W80661  22.119  24.760  13.929
 8402W        W80662  17.965  25.491   4.328
 8403W        W80663  30.024   9.683  11.883
 8404W        W80664   8.278  27.837   1.400
 8405W        W80665  44.787  30.152   0.454
 8406W        W80666  28.354  11.775   4.903
 8407W        W80667  21.016  17.176  12.072
 8408W        W80668  38.020   3.202  14.859
 8409W        W80669  42.032  44.411   2.617
 8410W        W80670  30.691   5.923  14.443
 8411W        W80671  40.471   4.863   4.601
 8412W        W80672  38.415  24.254  13.837
 8413W        W80673  19.254  26.925   2.804
 8414W        W80674  31.017  39.975  14.877
 8415W        W80675  39.269   0.722   4.245
 8416W        W80676  28.893  20.353   2.325
 8417W        W80677   2.413  20.711   2.958
 8418W        W80678   8.438  38.335   0.321
 8419W        W80679  31.234  39.837   2.769
 8420W        W80680  20.633   2.865   2.642
 8421W        W80681   6.783  35.394  12.142
 8422W        W80682   7.403  11.317  12.466
 8423W        W80683   6.141  17.206   4.161
 8424W        W80684  36.088  39.280   2.818
 8425W        W80685  37.360  44.685   3.239
 8426W        W80686  31.822  27.910   1.648
 8427W        W80687   9.297  38.671  12.450
 8428W        W80688  28.965   5.955   1.946
 8429W        W80689  22.251  24.269  13.227
 8430W        W80690  41.994  41.631   2.608
 8431W        W80691  11.856   4.210   0.884
 8432W        W80692   1.490  10.674  10.433
 8433W        W80693  11.651  32.617  12.113
 8434W        W80694  34.335  14.189  13.463
 8435W        W80695   3.701  23.708   4.662
 8436W        W80696  18.220  17.378   1.059
 8437W        W80697  41.711  37.671   5.202
 8438W        W80698  12.587  32.716   3.686
 8439W        W80699   1.420  26.650  10.809
 8440W        W80700  28.914  17.486   3.955
 8441W        W80701   0.728  43.378   3.207
 8442W        W80702  18.103  15.931  12.549
 8443W        W80703  26.133  29.989  12.475
 8444W        W80704  19.152  14.887  10.686
 8445W        W80705   7.385  16.786  12.368
 8446W        W80706  34.651  40.808   3.655
 8447W        W80707  11.677  42.528  10.695
 8448W        W80708  32.592   9.109  11.212
 8449W        W80709  19.652  28.202  14.989
 8450W        W80710  35.005  39.876  13.158
 8451W        W80711   7.862  31.399   3.839
 8452W        W80712  31.969  40.033  13.792
 8453W        W80713  28.984  27.756  14.221
 8454W        W80714  20.400  30.867  11.896
 8455W        W80715   2.830  13.217   0.737
 8456W        W80716  18.920   9.868   2.812
 8457W        W80717  15.063  33.076  11.221
 8458W        W80718  20.145   1.906  12.133
 8459W        W80719   2.140   4.165   2.781
 8460W        W80720   0.404  18.205   2.458
 8461W        W80721  12.094  31.027  13.227
 8462W        W80722  18.648   9.978  12.913
 8463W        W80723   3.711  18.949  10.459
 8464W        W80724  14.375   5.720  13.043
 8465W        W80725  26.000  13.193  10.531
 8466W        W80726  27.220  28.024   4.729
 8467W        W80727   3.809  20.827   1.727
 8468W        W80728  44.973   6.002   0.775
 8469W        W80729  33.528  38.920  12.982
 8470W        W80730  19.112   3.663  12.909
 8471W        W80731   0.413   9.729  14.542
 8472W        W80732  11.781  19.700  11.600
 8473W        W80733  13.089  32.370   2.896
 8474W        W80734  34.430  29.364  11.698
 8475W        W80735  19.254  43.887   4.157
 8476W        W80736  12.197  26.790   1.865
 8477W        W80737  19.835  14.079  14.998
 8478W        W80738  17.295  26.112  11.651
 8479W        W80739  13.259   3.982  11.751
 8480W        W80740  15.231  41.250   1.351
 8481W        W80741   5.137  36.922   4.352
 8482W        W80742  15.686  13.290  10.648
 8483W        W80743  19.579  19.492  12.063
 8484W        W80744  32.347  20.225   3.588
 8485W        W80745  33.762  34.027   0.274
 8486W        W80746   8.786  23.168   2.822
 8487W        W80747  15.616  30.606  10.624
 8488W        W80748  26.484  15.269   1.769
 8489W        W80749   8.959  19.653   4.431
 8490W        W80750  29.231   0.288   1.368
 8491W        W80751  22.625  25.975  12.651
 8492W        W80752  17.810  14.256  13.061
 8493W        W80753   8.876  18.322   1.176
 8494W        W80754  17.216  14.758  10.916
 8495W        W80755  36.549  42.389   4.320
 8496W        W80756  21.827  12.710   1.177
 8497W        W80757  22.645  34.593   4.307
 8498W        W80758  28.003  17.275   0.014
 8499W        W80759  18.760  23.270   3.761
 8500W        W80760   9.168  42.401  10.599
 8501W        W80761   7.700  44.656   4.118
 8502W        W80762  25.690  16.568  11.155
 8503W        W80763  39.367  13.917  14.118
 8504W        W80764   9.083  28.960   5.043
 8505W        W80765  31.890  16.266   1.173
 8506W        W80766  24.626  19.439  14.255
 8507W        W80767  26.484  40.489   2.877
 8508W        W80768  12.675  13.739  13.524
 8509W        W80769  18.045  31.895   3.871
 8510W        W80770  31.646   9.753  13.796
 8511W        W80771  21.744  13.945   2.444
 8512W        W80772  20.545  41.282  14.763
 8513W        W80773  17.013  44.905  13.976
 8514W        W80774  26.117  39.730  11.161
 8515W        W80775  18.810  19.033   0.710
 8516W        W80776  38.302  18.584  10.580
 8517W        W80777  27.571  34.397   4.338
 8518W        W80778  23.412  17.565  14.963
 8519W        W80779  29.723   4.857   3.647
 8520W        W80780  13.917  11.838   4.103
 8521W        W80781   8.412  19.300  14.536
 8522W        W80782   7.238  12.633  11.253
 8523W        W80783  29.669   1.032  11.536
 8524W        W80784  14.933  39.419   1.143
 8525W        W80785  23.065  44.083  10.527
 8526W        W80786  41.437  21.039   4.105
 8527W        W80787  30.621  36.797   2.000
 8528W        W80788  40.019  44.544   4.234
 8529W        W80789  21.594  20.517  14.093
 8530W        W80790  26.388  39.514   1.420
 8531W        W80791  13.499   3.488  14.313
 8532W        W80792  18.342  29.284   3.743
 8533W        W80793  35.415  31.658   3.901
 8534W        W80794  35.659  20.046   4.932
 8535W        W80795  33.960   1.561  12.060
 8536W        W80796  24.344  23.190   1.245
 8537W        W80797   9.985  16.244   3.699
 8538W        W80798  30.447  38.018  10.664
 8539W        W80799  37.311  43.972   2.591
 8540W        W80800  22.502  28.657  13.503
 8541W        W80801  11.251  32.591   0.233
 8542W        W80802  20.635  35.794  14.966
 8543W        W80803  33.394  43.026  10.280
 8544W        W80804   6.414  44.255   0.160
 8545W        W80805  26.531  35.143  11.950
 8546W        W80806  22.192  33.937   4.617
 8547W        W80807  13.748  31.733   2.177
 8548W        W80808  12.270  30.380  14.784
 8549W        W80809  25.052  43.051   5.084
 8550W        W80810  36.969  11.813  10.327
 8551W        W80811  19.760  20.313   0.436
 8552W        W80812  19.649  18.039  14.637
 8553W        W80813  11.813   6.129   0.826
 8554W        W80814  11.793   7.688   3.947
 8555W        W80815  32.962  26.588   4.129
 8556W        W80816  21.580   6.887  11.078
 8557W        W80817  25.472   9.240  12.596
 8558W        W80818  41.711  26.353  11.024
 8559W        W80819   1.153  27.601   1.470
 8560W        W80820   8.145  10.818   3.246
 8561W        W80821   9.873  36.868   2.713
 8562W        W80822  26.663  38.931  11.127
 8563W        W80823  24.024  36.973  10.674
 8564W        W80824  41.381  36.618   2.433
 8565W        W80825  19.463  32.032  11.568
 8566W        W80826  26.474  12.355  14.324
 8567W        W80827  24.420  23.463   1.756
 8568W        W80828  20.239  43.530   1.154
 8569W        W80829  17.296  37.888   3.701
 8570W        W80830  35.701   9.546   3.755
 8571W        W80831  26.992  34.629  12.310
 8572W        W80832  37.943  30.372   3.256
 8573W        W80833  14.060  18.146  13.398
 8574W        W80834   4.608   7.893   4.769
 8575W        W80835  30.550   1.856  12.393
 8576W        W80836  29.946  19.189  13.934
 8577W        W80837   5.455  36.533   4.531
 8578W        W80838  19.731   2.360   2.845
 8579W        W80839  24.671  27.933   9.975
 8580W        W80840  43.940  42.455   3.344
 8581W        W80841  16.966  29.453   0.396
 8582W        W80842  42.027  26.776   3.240
 8583W        W80843  25.330  25.075   1.353
 8584W        W80844  27.603  13.225   4.573
 8585W        W80845  41.041  37.053   2.190
 8586W        W80846  35.448  41.019  11.176
 8587W        W80847  44.967  15.138   2.670
 8588W        W80848  16.820  44.928   2.399
 8589W        W80849  23.698  21.577   3.392
 8590W        W80850   6.130   4.219  13.882
 8591W        W80851  15.390  36.107  12.936
 8592W        W80852   0.434  25.509  13.445
 8593W        W80853   1.826  38.912  11.595
 8594W        W80854   7.881  35.265   0.149
 8595W        W80855  38.388  20.057   0.363
 8596W        W80856  35.022  10.229   4.209
 8597W        W80857  41.981  19.599   2.401
 8598W        W80858  13.131  32.362  14.131
 8599W        W80859  35.863  28.066   3.134
 8600W        W80860   2.275  44.269  11.285
 8601W        W80861  22.590  24.831   1.789
 8602W        W80862  20.200  30.875  14.405
 8603W        W80863  14.761  27.814   9.643
 8604W        W80864  28.436   9.842  12.454
 8605W        W80865  18.024  41.006   1.648
 8606W        W80866   9.697  32.201   0.929
 8607W        W80867  32.385   6.761   3.810
 8608W        W80868  22.115  41.712  13.422
 8609W        W80869  26.986  22.470  12.999
 8610W        W80870  28.225  15.327  12.887
 8611W        W80871  25.533   0.730   0.880
 8612W        W80872  14.404  23.705   3.219
 8613W        W80873   1.989  10.192   4.072
 8614W        W80874   2.519  41.984   4.163
 8615W        W80875  19.962  32.004  12.406
 8616W        W80876  27.335  16.928  10.958
 8617W        W80877  32.018   5.443   0.765
 8618W        W80878  23.201  21.614   1.812
 8619W        W80879  32.884  34.512   3.623
 8620W        W80880  38.598   4.462   2.174
 8621W        W80881  28.748  31.938  13.916
 8622W        W80882  32.921  19.829   2.463
 8623W        W80883  43.745  32.664  14.116
 8624W        W80884  29.299  11.846   4.522
 8625W        W80885  16.643   7.509   3.669
 8626W        W80886   1.658  36.977   2.268
 8627W        W80887   3.518  37.933  14.102
 8628W        W80888  23.253  28.184  11.030
 8629W        W80889  35.195  36.483  12.073
 8630W        W80890  13.340  31.604  12.412
 8631W        W80891  25.252  39.979   2.196
 8632W        W80892  18.815  11.299   0.892
 8633W        W80893  25.373  21.758   1.832
 8634W        W80894  25.717  25.426   1.238
 8635W        W80895  37.171  28.224  13.489
 8636W        W80896   1.468  23.494  13.970
 8637W        W80897   9.257  28.604  12.140
 8638W        W80898  44.489  27.676  14.422
 8639W        W80899  44.026  28.246  11.039
 8640W        W80900  33.889  26.423  10.170
 8641W        W80901  18.538  12.632  10.740
 8642W        W80902  31.135   4.183   0.444
 8643W        W80903  37.546  42.422   1.102
 8644W        W80904   1.239  41.784  13.949
 8645W        W80905  17.790  28.622  12.058
 8646W        W80906  14.073   3.850  11.903
 8647W        W80907   3.874  39.986   1.269
 8648W        W80908  30.141  10.022  10.580
 8649W        W80909  21.690  31.544  13.508
 8650W        W80910  17.681  10.668  12.446
 8651W        W80911  39.092  18.178  13.914
 8652W        W80912  20.123  27.544   0.245
 8653W        W80913  31.429  11.663  11.541
 8654W        W80914  32.691  33.908  14.384
 8655W        W80915  33.460  22.536  14.924
 8656W        W80916   0.449  17.188  10.712
 8657W        W80917  17.498  44.032   3.715
 8658W        W80918   9.450  29.022  12.905
 8659W        W80919  10.664   7.723   3.111
 8660W        W80920   8.887  12.193  11.573
 8661W        W80921   6.292   9.976  11.286
 8662W        W80922  22.691   3.461   0.203
 8663W        W80923  39.108  41.249   0.520
 8664W        W80924  21.926  25.165   3.314
 8665W        W80925  38.648  39.194  11.353
 8666W        W80926  27.258  33.129  10.668
 8667W        W80927  38.296   8.690   3.774
 8668W        W80928  24.691   5.428   3.611
 8669W        W80929  25.493  18.524  12.075
 8670W        W80930   4.333  30.527   2.610
 8671W        W80931  35.445  17.510  13.827
 8672W        W80932  34.530  14.292   2.171
 8673W        W80933  39.252  21.149   1.201
 8674W        W80934  25.048  12.811   3.239
 8675W        W80935  12.379  25.482  13.030
 8676W        W80936  42.050  39.350  12.960
 8677W        W80937  15.607   5.660  11.665
 8678W        W80938  41.077   4.989  10.197
 8679W        W80939   6.725  38.955  14.832
 8680W        W80940  10.751  30.999   2.367
 8681W        W80941  34.375  27.002   4.460
 8682W        W80942  32.889   7.233  13.111
 8683W        W80943  37.271  28.755   1.289
 8684W        W80944  14.047  39.555   0.780
 8685W        W80945  33.937  27.688   4.068
 8686W        W80946  28.926   8.931   2.179
 8687W        W80947  34.406  37.136   2.993
 8688W        W80948   4.702  27.232   4.186
 8689W        W80949  31.563   8.674  11.954
 8690W        W80950  19.502  15.195  13.215
 8691W        W80951  10.380  23.930  14.042
 8692W        W80952  12.378  41.325  10.671
 8693W        W80953   7.808  15.425   2.170
 8694W        W80954  28.428  31.136  12.966
 8695W        W80955   2.875   7.651   2.959
 8696W        W80956   3.688   1.855  14.979
 8697W        W80957  44.126  35.883   1.262
 8698W        W80958  19.827  34.989   3.752
 8699W        W80959  35.413  11.825   2.305
 8700W        W80960  31.192  31.989  14.856
 8701W        W80961  36.022  24.293   4.481
 8702W        W80962  29.933   7.452   4.971
 8703W        W80963  34.653  41.878   1.158
 8704W        W80964   9.714  35.412  12.572
 8705W        W80965  35.989   5.470   4.177
 8706W        W80966  26.625  26.427  12.831
 8707W        W80967  39.545  25.610  11.084
 8708W        W80968   5.293  26.506  10.105
 8709W        W80969   7.294  30.725   4.754
 8710W        W80970  11.405  38.310  11.181
 8711W        W80971   6.453  20.258   2.691
 8712W        W80972   4.243  24.231  10.515
 8713W        W80973  26.235  14.319  14.387
 8714W        W80974   2.573  30.047   0.809
 8715W        W80975  35.846  17.996  10.516
 8716W        W80976  41.403  36.467   1.564
 8717W        W80977  38.638  18.628   2.146
 8718W        W80978  22.939  37.954  12.566
 8719W        W80979  16.721   2.075   2.754
 8720W        W80980  25.454  19.659   5.085
 8721W        W80981   1.505  16.125  11.927
 8722W        W80982  43.234  11.318   1.584
 8723W        W80983  34.073  17.437  14.898
 8724W        W80984  34.509  15.294  13.929
 8725W        W80985  10.583  27.035  11.396
 8726W        W80986  14.360  29.475  11.167
 8727W        W80987  38.536  30.381  10.325
 8728W        W80988   0.641  39.377  12.449
 8729W        W80989   8.867  40.953   1.778
 8730W        W80990  14.582  18.123   3.775
 8731W        W80991   0.581  22.679  11.624
 8732W        W80992   2.763  10.955  12.072
 8733W        W80993  25.796  14.187  12.896
 8734W        W80994  20.307  29.759  12.592
 8735W        W80995  34.547  13.036  14.794
 8736W        W80996  32.504  37.979   1.672
 8737W        W80997  18.194  17.725   3.923
 8738W        W80998  25.126  29.000  14.373
 8739W        W80999  34.161  25.431   0.907
 8740W        W81000  35.950  37.806  13.751
 8741W        W81001  15.116  15.990  11.164
 8742W        W81002  16.001  39.953  12.884
 8743W        W81003  30.714  28.027   1.252
 8744W        W81004   4.782  44.725   0.975
 8745W        W81005  27.417  33.936  13.683
 8746W        W81006  34.739  40.598  11.114
 8747W        W81007  16.135  42.771   1.905
 8748W        W81008  35.855  24.194   2.263
 8749W        W81009  11.103  41.956  13.193
 8750W        W81010  33.466   1.847  14.275
 8751W        W81011  31.552  22.142   2.389
 8752W        W81012  37.803  32.960   4.673
 8753W        W81013  24.969   6.713   0.111
 8754W        W81014   3.418  17.125  13.099
 8755W        W81015  33.100  14.928  11.625
 8756W        W81016  40.329  12.657   4.537
 8757W        W81017   5.952  24.581   2.808
 8758W        W81018  42.265  37.459  11.931
 8759W        W81019   6.732   8.291  12.712
 8760W        W81020  10.103  42.399  11.564
 8761W        W81021  24.956  26.634   2.953
 8762W        W81022  13.303  44.799   1.049
 8763W        W81023   2.560  21.745  14.397
 8764W        W81024  35.521  13.932  13.801
 8765W        W81025  15.756  23.778   4.826
 8766W        W81026  32.899   7.387   4.080
 8767W        W81027  27.771  13.062   0.378
 8768W        W81028   4.425   1.813  13.454
 8769W        W81029  22.217   6.857  10.750
 8770W        W81030  40.259   4.749  11.509
 8771W        W81031  19.792   6.736   3.594
 8772W        W81032  30.850   1.397   2.517
 8773W        W81033  14.481  15.178   5.059
 8774W        W81034  33.731  42.417   3.271
 8775W        W81035  42.662  22.671  12.328
 8776W        W81036  36.609  16.961  12.927
 8777W        W81037  40.901   4.289  11.702
 8778W        W81038  24.999   5.996   0.252
 8779W        W81039  30.842  16.829  14.440
 8780W        W81040  38.957   9.480  11.820
 8781W        W81041  32.458  39.404   2.876
 8782W        W81042  36.317  37.904  13.356
 8783W        W81043  31.482  28.994  13.895
 8784W        W81044  11.304  13.766  14.700
 8785W        W81045  39.888  28.063   4.873
 8786W        W81046   3.493  12.686  12.959
 8787W        W81047  12.394  27.128  14.460
 8788W        W81048  34.342  21.004   1.939
 8789W        W81049   7.002  11.143   3.699
 8790W        W81050   8.866  36.150  14.083
 8791W        W81051  44.815   8.718  13.493
 8792W        W81052   4.278  30.117   0.897
 8793W        W81053   7.784   6.627  14.902
 8794W        W81054  27.543  34.145   2.841
 8795W        W81055  23.285  14.219  13.000
 8796W        W81056  40.078  33.015   1.419
 8797W        W81057  17.316  40.838  11.192
 8798W        W81058  34.822   4.735   3.135
 8799W        W81059   1.512  15.845  12.398
 8800W        W81060  27.622  19.745   4.135
 8801W        W81061  30.061  10.103   3.877
 8802W        W81062   6.661  10.707  12.371
 8803W        W81063  39.660   9.389   0.281
 8804W        W81064   8.308  27.594  12.510
 8805W        W81065  29.705  14.102  14.002
 8806W        W81066  34.005  10.596   0.358
 8807W        W81067  43.428   5.803  11.566
 8808W        W81068  30.706  30.648  11.915
 8809W        W81069  10.614  22.129  12.993
 8810W        W81070  30.001  38.508  14.590
 8811W        W81071  19.542  26.271  11.424
 8812W        W81072  16.086   2.846  11.198
 8813W        W81073  20.633   7.402  14.289
 8814W        W81074  17.290  19.635  14.950
 8815W        W81075  32.609  14.057   3.675
 8816W        W81076  36.708  30.445  13.808
 8817W        W81077  30.534  15.626  13.085
 8818W        W81078  10.388  27.058   1.497
 8819W        W81079  10.689  14.757  14.551
 8820W        W81080  18.813  16.534  11.177
 8821W        W81081  19.771  33.434  13.384
 8822W        W81082   5.115  26.306   5.143
 8823W        W81083  27.957   1.182  12.521
 8824W        W81084  42.346  38.943  13.123
 8825W        W81085   9.714  40.614   3.695
 8826W        W81086   6.078  18.548   3.205
 8827W        W81087  31.093  25.738  10.795
 8828W        W81088   0.787  16.556   2.640
 8829W        W81089  35.888   7.286   5.123
 8830W        W81090  26.159  25.770   1.288
 8831W        W81091  22.215  20.139   9.658
 8832W        W81092  44.066  13.054   0.395
 8833W        W81093  19.738  13.163   2.758
 8834W        W81094  16.776  29.658   4.563
 8835W        W81095   8.786  29.072   4.613
 8836W        W81096  13.092  39.461  11.930
 8837W        W81097  44.894   0.419  14.403
 8838W        W81098   3.320  24.911   4.528
 8839W        W81099  42.362  32.030   2.542
 8840W        W81100  23.947  42.327   2.740
 8841W        W81101  14.030  31.175  10.964
 8842W        W81102  33.605  25.607  14.469
 8843W        W81103  34.406  23.306   2.126
 8844W        W81104   2.941  36.788   0.923
 8845W        W81105  11.812  41.933  14.446
 8846W        W81106  42.726  20.605   1.237
 8847W        W81107  34.516  21.250   1.448
 8848W        W81108  11.142  42.216  13.963
 8849W        W81109   4.158  31.305   4.566
 8850W        W81110  38.461  29.569  14.976
 8851W        W81111   0.439  37.142   0.925
 8852W        W81112  32.590  39.480   1.348
 8853W        W81113   7.686  24.597   0.809
 8854W        W81114  44.463  26.139   0.852
 8855W        W81115   9.172  34.771   4.123
 8856W        W81116  13.654  11.137  13.066
 8857W        W81117  31.963  15.853   1.919
 8858W        W81118  11.161  41.881   2.284
 8859W        W81119  40.006  35.937  11.523
 8860W        W81120  22.155  42.393  13.022
 8861W        W81121  30.766  19.322   0.896
 8862W        W81122  24.558  40.825   5.036
 8863W        W81123  12.304  28.862   2.720
 8864W        W81124  23.082  28.530   1.347
 8865W        W81125   0.379  10.471   4.878
 8866W        W81126  32.533  38.632  14.797
 8867W        W81127  28.966  38.080  14.550
 8868W        W81128  34.849  43.795  14.503
 8869W        W81129  39.768  27.679   0.430
 8870W        W81130  26.096  38.165   4.832
 8871W        W81131  11.841  42.754   4.244
 8872W        W81132   3.048  11.807   0.853
 8873W        W81133  15.578   1.884  13.880
 8874W        W81134  40.114  18.757  13.064
 8875W        W81135  10.233  38.083  12.449
 8876W        W81136  22.067   2.901  14.312
 8877W        W81137  26.698   9.046  14.010
 8878W        W81138  31.166  17.766  12.080
 8879W        W81139  18.048  31.040   3.554
 8880W        W81140  13.531   1.718   2.819
 8881W        W81141   4.302   3.747  11.456
 8882W        W81142  44.897   1.274   1.114
 8883W        W81143  35.888  16.330  12.919
 8884W        W81144  12.671  40.932   2.225
 8885W        W81145  32.054  10.378   2.459
 8886W        W81146   8.340  42.286   4.124
 8887W        W81147  12.722  22.114   2.499
 8888W        W81148  38.319  37.561  14.268
 8889W        W81149  29.558  21.729  14.988
 8890W        W81150  41.216  10.748   0.430
 8891W        W81151  32.800  16.426   3.645
 8892W        W81152  25.736   9.922   2.214
 8893W        W81153  34.787  40.386  13.868
 8894W        W81154   1.501  10.295   3.171
 8895W        W81155  24.631   4.842   4.372
 8896W        W81156   2.201   3.294  13.526
 8897W        W81157  16.278   3.874  13.210
 8898W        W81158  17.751  22.414   0.321
 8899W        W81159  42.375  12.923  11.939
 8900W        W81160  36.012  43.003   3.227
 8901W        W81161  28.126  19.942  14.417
 8902W        W81162  18.281  29.008   2.450
 8903W        W81163   3.931   3.240   2.155
 8904W        W81164   4.395  22.495   1.852
 8905W        W81165   0.100  28.493   4.160
 8906W        W81166  32.328  44.208  11.261
 8907W        W81167  31.545   3.385   0.489
 8908W        W81168  28.212  35.805   3.678
 8909W        W81169  14.277   2.863  10.977
 8910W        W81170   4.517   1.395  12.075
 8911W        W81171  18.970  18.038  13.435
 8912W        W81172   7.866   4.171   0.428
 8913W        W81173  31.133  11.849  14.016
 8914W        W81174  33.199  34.586  12.416
 8915W        W81175  27.935  39.441   0.223
 8916W        W81176  44.861  42.763  14.345
 8917W        W81177  32.076  10.585  11.667
 8918W        W81178  37.194   8.021   2.165
 8919W        W81179  44.439  25.509  12.630
 8920W        W81180  19.337  23.013   1.976
 8921W        W81181  26.589  24.784   0.334
 8922W        W81182   5.408  38.457   1.150
 8923W        W81183   5.797  17.590  11.979
 8924W        W81184  22.956  38.816  12.825
 8925W        W81185   0.905  16.075   2.428
 8926W        W81186  19.248  21.729   1.404
 8927W        W81187  31.995  27.890   4.609
 8928W        W81188   3.467  41.301  13.191
 8929W        W81189  41.538   2.857   1.427
 8930W        W81190   8.504  42.122  13.297
 8931W        W81191  21.558   3.451   4.629
 8932W        W81192   3.879  15.629   4.145
 8933W        W81193  37.399  20.652  13.917
 8934W        W81194  39.608  30.371  13.469
 8935W        W81195  22.173  32.883   4.362
 8936W        W81196  37.364  27.585   3.904
 8937W        W81197  11.386  17.653   4.437
 8938W        W81198   1.264   9.392   0.003
 8939W        W81199  39.433  15.986   3.732
 8940W        W81200  25.444  30.503  10.616
 8941W        W81201  14.701  23.918  12.443
 8942W        W81202  27.569  11.775   4.039
 8943W        W81203  36.593   9.344   3.088
 8944W        W81204  28.555  30.141   1.346
 8945W        W81205  40.960  11.881   0.006
 8946W        W81206  40.415   1.299   1.191
 8947W        W81207  13.137  13.186  12.518
 8948W        W81208  41.494   5.185   1.340
 8949W        W81209  24.453   6.123   4.644
 8950W        W81210  12.747   0.817  11.024
 8951W        W81211  18.750  34.942   4.695
 8952W        W81212  41.274  36.834   0.067
 8953W        W81213  19.115  31.909   0.508
 8954W        W81214  10.775   7.845  12.951
 8955W        W81215   6.704  18.408   4.355
 8956W        W81216  15.122  26.274   3.001
 8957W        W81217  16.714  18.784   4.662
 8958W        W81218  33.455  24.022   1.901
 8959W        W81219   5.658  20.090   3.158
 8960W        W81220  33.637   3.006  12.447
 8961W        W81221  12.479  27.550  10.651
 8962W        W81222   9.495  11.590   4.492
 8963W        W81223   1.303  42.074  11.969
 8964W        W81224  11.666  16.071  10.357
 8965W        W81225  27.384  42.454   3.143
 8966W        W81226   3.013  34.539   2.485
 8967W        W81227  36.856  22.676   4.541
 8968W        W81228  38.448  23.227  12.862
 8969W        W81229   2.822  33.550   4.349
 8970W        W81230   2.555  26.568   1.709
 8971W        W81231  40.776  39.961   3.909
 8972W        W81232  36.608  29.748  14.332
 8973W        W81233  24.840  29.734   1.357
 8974W        W81234   5.702  19.785   1.324
 8975W        W81235  23.703   6.034  11.245
 8976W        W81236   4.198  42.980   0.314
 8977W        W81237   7.236  22.442   0.255
 8978W        W81238  43.473  35.120   1.829
 8979W        W81239  33.337  30.876  14.869
 8980W        W81240  21.225  13.038   0.258
 8981W        W81241  44.225  36.549  12.349
 8982W        W81242  13.033   0.859   3.642
 8983W        W81243  24.661   7.935   2.342
 8984W        W81244   7.750  25.465   1.180
 8985W        W81245   1.245   1.248  11.400
 8986W        W81246  30.220  13.991   3.299
 8987W        W81247  31.163  37.418  10.758
 8988W        W81248  39.023  31.033   4.541
 8989W        W81249  32.548  37.095  14.860
 8990W        W81250  16.151  44.919   4.618
 8991W        W81251  32.029  33.615   4.440
 8992W        W81252  30.574  14.979   4.939
 8993W        W81253  44.584  20.788   3.767
 8994W        W81254  35.248   6.356  11.661
 8995W        W81255  11.640   3.941   2.260
 8996W        W81256  28.700  29.021  10.583
 8997W        W81257  14.063  17.626   4.365
 8998W        W81258  24.802  43.480  14.485
 8999W        W81259  31.247  14.181   0.062
 9000W        W81260  24.233   7.229   0.087
 9001W        W81261  17.297  10.155   0.790
 9002W        W81262  28.460   7.511  10.606
 9003W        W81263  16.364   6.340  10.697
 9004W        W81264  36.057  34.099   4.906
 9005W        W81265  35.368  24.109  12.860
 9006W        W81266  30.465  36.778   3.862
 9007W        W81267  31.602   1.620  14.774
 9008W        W81268  41.301  36.489  11.729
 9009W        W81269  32.974   6.298  11.142
 9010W        W81270  34.434  43.702  11.887
 9011W        W81271  17.600  28.077  12.026
 9012W        W81272  17.989  14.605   4.816
 9013W        W81273  39.073  23.534  11.403
 9014W        W81274  29.085  35.651   2.352
 9015W        W81275   3.755  20.011   2.758
 9016W        W81276  15.580  43.775  14.048
 9017W        W81277   1.036  26.021   2.725
 9018W        W81278   8.520   8.302   2.702
 9019W        W81279  21.497  33.624  11.653
 9020W        W81280   4.796  26.135   5.523
 9021W        W81281  39.698  16.477   1.204
 9022W        W81282  38.977  20.062  12.440
 9023W        W81283  17.254   4.688  13.330
 9024W        W81284  10.568   9.795  10.332
 9025W        W81285  17.841  16.807   0.269
 9026W        W81286   1.972  12.895  12.965
 9027W        W81287  21.047  29.888   1.300
 9028W        W81288  24.178  34.715   4.505
 9029W        W81289  23.148   8.419   1.550
 9030W        W81290  33.829   3.728   4.660
 9031W        W81291   7.983  37.797  12.701
 9032W        W81292  13.022  23.644   1.225
 9033W        W81293  28.076  21.413   2.543
 9034W        W81294  13.363   0.423   3.556
 9035W        W81295  27.071  24.519   2.353
 9036W        W81296   9.433  13.847  11.397
 9037W        W81297  29.131  25.675  11.639
 9038W        W81298  32.159  42.548  11.541
 9039W        W81299  22.928  35.540  11.225
 9040W        W81300  31.030   3.156   3.861
 9041W        W81301  29.018  13.238  13.599
 9042W        W81302  13.758  39.795   2.245
 9043W        W81303  38.070  32.565  12.007
 9044W        W81304  20.790  32.100   0.310
 9045W        W81305   3.988  34.092  14.541
 9046W        W81306  30.954  42.014   0.356
 9047W        W81307  28.334  14.664  12.677
 9048W        W81308  27.336  44.356   0.753
 9049W        W81309  38.111  44.940  14.716
 9050W        W81310  23.255  19.397  14.398
 9051W        W81311  22.470  36.064  14.021
 9052W        W81312  39.518   3.680  12.970
 9053W        W81313  43.180  15.668   0.325
 9054W        W81314  23.898  16.323   0.791
 9055W        W81315  37.101  15.518   0.173
 9056W        W81316  25.728  17.826   3.761
 9057W        W81317   9.791  26.438  10.663
 9058W        W81318  43.870   4.873   0.713
 9059W        W81319   7.882  28.140  14.397
 9060W        W81320  25.754  22.823  10.679
 9061W        W81321  29.369  22.062   3.169
 9062W        W81322  26.788  24.081  10.715
 9063W        W81323  28.612   3.467  11.921
 9064W        W81324  38.969   7.356  10.537
 9065W        W81325  31.243   3.761   4.049
 9066W        W81326  44.776  37.348  12.926
 9067W        W81327  15.998  38.101   4.098
 9068W        W81328  17.187   4.676  11.467
 9069W        W81329   8.834  30.942  11.946
 9070W        W81330  15.841  12.781   4.249
 9071W        W81331  33.524  35.666  11.127
 9072W        W81332  20.625  28.425   0.436
 9073W        W81333   1.338  33.501   2.554
 9074W        W81334  41.413  43.463  12.049
 9075W        W81335  17.779  11.286  12.052
 9076W        W81336  12.682  40.816  14.878
 9077W        W81337  39.933   0.319  12.895
 9078W        W81338   1.493  27.004  11.567
 9079W        W81339  12.405  22.274   2.959
 9080W        W81340  31.941  42.340   4.877
 9081W        W81341  26.672  42.797  12.860
 9082W        W81342  29.391  22.075   1.398
 9083W        W81343  13.951   9.717  11.882
 9084W        W81344  27.645   3.358   0.346
 9085W        W81345   4.895  39.775  12.427
 9086W        W81346  11.305   0.574   4.068
 9087W        W81347  24.446  28.697  12.012
 9088W        W81348  44.212  34.480   0.849
 9089W        W81349  27.494  44.798   2.824
 9090W        W81350  23.257  10.894  12.975
 9091W        W81351  36.124  12.282   2.290
 9092W        W81352  31.928  33.095   2.156
 9093W        W81353  22.472   4.353   0.395
 9094W        W81354  36.288   7.146   1.899
 9095W        W81355  16.183  21.704   3.661
 9096W        W81356  35.878  39.974   3.291
 9097W        W81357  20.219  24.056   3.309
 9098W        W81358  28.267  43.010   2.838
 9099W        W81359  14.109  17.619  10.432
 9100W        W81360   0.212  28.163   0.652
 9101W        W81361  29.711  36.523  12.878
 9102W        W81362  37.347  21.037   2.305
 9103W        W81363   3.607   0.357   2.250
 9104W        W81364   4.188  35.532   4.528
 9105W        W81365  25.740  44.664  11.165
 9106W        W81366   9.373  12.806  12.093
 9107W        W81367  29.431  15.707   1.139
 9108W        W81368  23.241  35.834   2.020
 9109W        W81369  11.050  15.120   0.978
 9110W        W81370  26.477   4.376  11.869
 9111W        W81371  10.109   4.998   3.232
 9112W        W81372  42.507  28.596  12.976
 9113W        W81373  18.292   7.431   0.405
 9114W        W81374  35.389  20.008  12.971
 9115W        W81375   8.216  20.098  12.066
 9116W        W81376  19.623   1.333   4.870
 9117W        W81377  16.691   4.282   0.925
 9118W        W81378  43.344  37.926  11.943
 9119W        W81379   6.060  19.636  11.158
 9120W        W81380  25.258   8.889  11.425
 9121W        W81381  43.534  20.052   2.284
 9122W        W81382  28.497  12.967  14.817
 9123W        W81383  23.981  10.420  10.124
 9124W        W81384  15.526  13.983   0.338
 9125W        W81385  12.225   9.835   2.417
 9126W        W81386  43.987   3.638  13.924
 9127W        W81387  44.870  37.546   2.974
 9128W        W81388  29.104  41.897   4.441
 9129W        W81389  14.234   6.745  11.457
 9130W        W81390  36.432  31.883   5.014
 9131W        W81391  12.826  39.321   4.100
 9132W        W81392  28.406  23.624  14.219
 9133W        W81393  30.880  21.606  13.571
 9134W        W81394  11.124  11.168  12.070
 9135W        W81395  27.975  30.900   0.874
 9136W        W81396  17.078  27.896   3.966
 9137W        W81397  19.152  21.983  13.323
 9138W        W81398  37.166   7.333  10.094
 9139W        W81399  11.006  10.381  14.894
 9140W        W81400  16.096  42.998   4.291
 9141W        W81401  38.550   3.858   4.645
 9142W        W81402  25.329  38.433  12.852
 9143W        W81403   1.145  21.722   1.784
 9144W        W81404  22.838   9.159   1.816
 9145W        W81405  33.808  21.603   5.150
 9146W        W81406  31.781  31.177  11.139
 9147W        W81407  27.665   0.483  11.598
 9148W        W81408  42.568   0.784   3.302
 9149W        W81409   2.126  42.412   1.447
 9150W        W81410   5.908  25.994   3.866
 9151W        W81411  42.280  11.894   1.967
 9152W        W81412  35.875  15.637  10.944
 9153W        W81413  33.533  19.481   5.308
 9154W        W81414   1.178  32.825   3.097
 9155W        W81415   9.937   3.680   3.085
 9156W        W81416  33.548  35.471   4.586
 9157W        W81417  44.832  13.505   0.985
 9158W        W81418   1.298  28.105  13.508
 9159W        W81419   0.747   7.291   0.826
 9160W        W81420  21.206   4.813   4.977
 9161W        W81421  10.871  42.339   1.330
 9162W        W81422  33.776  36.537   4.177
 9163W        W81423   1.946  24.191  12.950
 9164W        W81424  31.613  16.265   2.322
 9165W        W81425  20.990  21.462  12.080
 9166W        W81426   0.405  36.289   3.701
 9167W        W81427  28.481  37.363  13.748
 9168W        W81428  39.729   3.688   2.242
 9169W        W81429  28.079   4.622  11.619
 9170W        W81430  38.073   7.291   3.629
 9171W        W81431  24.387  32.609  11.485
 9172W        W81432  44.061   5.554  14.978
 9173W        W81433   8.262  22.215  11.496
 9174W        W81434  34.726  37.148   0.899
 9175W        W81435  16.108   9.804   3.140
 9176W        W81436  10.887  42.887   1.873
 9177W        W81437   4.806  20.075  11.027
 9178W        W81438  43.618   8.221  14.971
 9179W        W81439   5.819  29.261  11.210
 9180W        W81440  13.166   7.883   3.195
 9181W        W81441  44.159  15.730   0.473
 9182W        W81442   9.250  23.574   5.016
 9183W        W81443  19.745  12.734  11.470
 9184W        W81444  42.467   2.686  12.279
 9185W        W81445  18.120   7.863  14.254
 9186W        W81446  14.634  27.073  10.373
 9187W        W81447  41.997   3.313   5.006
 9188W        W81448   5.952  22.504   4.218
 9189W        W81449  15.963   2.867   2.349
 9190W        W81450  14.654  31.248   3.195
 9191W        W81451  16.831   3.294  12.553
 9192W        W81452  43.386  14.215   1.001
 9193W        W81453  34.359  43.896   2.682
 9194W        W81454  17.371   1.271   1.173
 9195W        W81455  10.418  27.904  12.625
 9196W        W81456  38.724  23.376  11.074
 9197W        W81457  14.183  17.710  11.917
 9198W        W81458  20.507   2.397   2.417
 9199W        W81459  23.547  33.100  10.690
 9200W        W81460  14.890  43.321  11.038
 9201W        W81461  39.435  39.000   2.279
 9202W        W81462  10.901   5.926  14.027
 9203W        W81463  38.952  35.843   3.811
 9204W        W81464  25.543  31.261   0.536
 9205W        W81465   2.922  31.860   3.889
 9206W        W81466  24.642  23.425  11.179
 9207W        W81467   5.847  21.762   0.308
 9208W        W81468  29.423  15.587  11.180
 9209W        W81469   8.283   9.156   2.307
 9210W        W81470   2.018  16.764   1.823
 9211W        W81471  16.294  13.742  14.828
 9212W        W81472   9.831  16.750  10.389
 9213W        W81473  19.603  23.088  11.498
 9214W        W81474  44.356  30.622  11.881
 9215W        W81475  11.290   7.707  14.823
 9216W        W81476  10.058  26.896  10.665
 9217W        W81477  23.977  15.334  14.056
 9218W        W81478  30.634  33.356   0.419
 9219W        W81479   6.257   5.620  14.870
 9220W        W81480  43.826   3.440   4.184
 9221W        W81481  14.946  28.406  14.868
 9222W        W81482  13.727  18.945  10.370
 9223W        W81483  10.676  37.415  14.834
 9224W        W81484  25.734   6.465   3.149
 9225W        W81485  18.716   2.735   4.880
 9226W        W81486  33.632  21.743   4.018
 9227W        W81487  26.512  24.560   0.879
 9228W        W81488  43.279  26.666  13.240
 9229W        W81489  40.063  13.976  14.311
 9230W        W81490  40.747   2.743  14.797
 9231W        W81491  43.271   6.826   3.123
 9232W        W81492  28.109  11.397   1.369
 9233W        W81493  20.991  20.449   1.271
 9234W        W81494  12.184   5.887  12.942
 9235W        W81495   8.888  27.866  12.295
 9236W        W81496  25.693  41.850   3.266
 9237W        W81497  28.257  13.883   1.599
 9238W        W81498  36.087  38.506   3.229
 9239W        W81499  22.566  17.543  11.024
 9240W        W81500  28.586  34.978   3.640
 9241W        W81501  16.394  19.089   0.071
 9242W        W81502  33.889  41.369   2.479
 9243W        W81503  19.636  44.799  14.070
 9244W        W81504  42.896  15.561  13.995
 9245W        W81505  39.330  16.158  13.007
 9246W        W81506  28.224   1.040  10.181
 9247W        W81507  36.365   9.342  12.394
 9248W        W81508  18.621  19.752   0.022
 9249W        W81509  39.391   4.351  12.510
 9250W        W81510  25.015  14.090  12.420
 9251W        W81511  30.878  33.415   4.519
 9252W        W81512  41.995  35.112  11.575
 9253W        W81513  12.937  27.502  12.303
 9254W        W81514   6.373  26.189  11.973
 9255W        W81515  13.051  41.179   5.112
 9256W        W81516   0.538  12.205   4.813
 9257W        W81517  37.963  17.687   3.862
 9258W        W81518  12.111   0.701   3.218
 9259W        W81519  21.555  16.222   2.424
 9260W        W81520  13.820  34.409  13.739
 9261W        W81521  37.942  41.236   3.603
 9262W        W81522  10.151   2.485   2.684
 9263W        W81523   8.427   1.139  14.791
 9264W        W81524   4.194  17.141   4.228
 9265W        W81525  36.062  30.705  12.121
 9266W        W81526  31.710  15.012   1.898
 9267W        W81527  35.532  10.115  14.452
 9268W        W81528  26.466  37.725   4.065
 9269W        W81529  25.785  11.776   4.602
 9270W        W81530  33.468  44.059   2.133
 9271W        W81531   0.232  31.626  12.125
 9272W        W81532  19.782   9.618  10.817
 9273W        W81533  30.678   5.397  11.101
 9274W        W81534  27.038  19.448  11.465
 9275W        W81535  30.599   5.488  12.430
 9276W        W81536  26.150  14.827   0.017
 9277W        W81537  14.189  39.026   0.935
 9278W        W81538  21.613  29.418  14.222
 9279W        W81539  36.298  14.723  11.172
 9280W        W81540  27.179  41.150   3.186
 9281W        W81541  35.621  18.980   1.268
 9282W        W81542  10.052  31.137   5.079
 9283W        W81543  29.115  16.659  11.019
 9284W        W81544  22.498  10.413   0.417
 9285W        W81545  22.003  10.916  12.438
 9286W        W81546  32.603  22.605  13.829
 9287W        W81547  43.575  43.977  12.065
 9288W        W81548   6.279  21.283  14.491
 9289W        W81549  27.718  37.589   3.708
 9290W        W81550  23.751  29.105   3.219
 9291W        W81551  10.233  39.084  12.409
 9292W        W81552  41.218  36.808  12.859
 9293W        W81553  38.927  16.350  10.522
 9294W        W81554  23.967  36.619  12.394
 9295W        W81555  29.689   5.137   4.133
 9296W        W81556  43.853   4.980  11.815
 9297W        W81557  11.346  44.548   0.474
 9298W        W81558   1.694  13.860  12.045
 9299W        W81559   6.919  36.404   0.425
 9300W        W81560  22.431  36.480   4.421
 9301W        W81561  15.379   5.079  12.145
 9302W        W81562  35.173  21.538  12.016
 9303W        W81563  41.488  25.625   4.506
 9304W        W81564  34.828   9.343   4.708
 9305W        W81565  39.521  21.061   0.761
 9306W        W81566   4.463  42.530  10.723
 9307W        W81567  27.711  42.339  14.475
 9308W        W81568  20.247  29.554  14.571
 9309W        W81569  33.609   4.403  13.127
 9310W        W81570   5.652   6.789   2.189
 9311W        W81571  18.689   1.265   4.342
 9312W        W81572  38.015   3.932   4.607
 9313W        W81573  37.781  31.384   4.147
 9314W        W81574   5.375  37.427  10.685
 9315W        W81575   4.834   0.429   2.623
 9316W        W81576  29.206   9.817   2.201
 9317W        W81577  30.901  33.951   4.474
 9318W        W81578  39.836  33.394   4.233
 9319W        W81579  44.107  10.401   4.225
 9320W        W81580   3.247  14.589  13.935
 9321W        W81581  16.079  29.606  14.262
 9322W        W81582   9.287  13.057   1.123
 9323W        W81583  22.090  36.738   0.308
 9324W        W81584  17.173   6.627  10.867
 9325W        W81585  27.482  13.827  13.440
 9326W        W81586   4.878  28.140   4.716
 9327W        W81587  26.889  22.550   0.302
 9328W        W81588   8.285  25.268   2.220
 9329W        W81589  19.011  10.375  10.869
 9330W        W81590  33.171  22.697   0.328
 9331W        W81591  18.564   9.150  13.498
 9332W        W81592  25.091   2.849   3.266
 9333W        W81593  11.642  11.119  12.089
 9334W        W81594  15.130  36.876  13.364
 9335W        W81595  38.007   6.283  11.181
 9336W        W81596  37.007   7.458   5.366
 9337W        W81597  12.562  18.995  12.871
 9338W        W81598  14.257  16.269   1.092
 9339W        W81599  16.689  34.417   2.298
 9340W        W81600  28.017   8.329  11.091
 9341W        W81601   4.846  36.777  14.462
 9342W        W81602   5.417  42.986   2.883
 9343W        W81603  33.060  17.222  13.252
 9344W        W81604  35.716  33.521   3.481
 9345W        W81605  15.048  36.348   3.791
 9346W        W81606   7.859  33.554   0.037
 9347W        W81607  14.589  10.128  12.555
 9348W        W81608  22.675  23.034   3.615
 9349W        W81609  16.761   7.906  11.172
 9350W        W81610  35.467  36.944  12.094
 9351W        W81611  23.738  42.895  12.802
 9352W        W81612  29.135  26.501  12.242
 9353W        W81613  28.926  16.653   4.162
 9354W        W81614  21.310   9.834  12.956
 9355W        W81615  16.030  26.556  10.708
 9356W        W81616   3.225  41.817  11.605
 9357W        W81617  43.658  19.036  12.664
 9358W        W81618  15.054  28.301  11.936
 9359W        W81619  24.056  44.972  12.684
 9360W        W81620  27.650  14.701  14.963
 9361W        W81621  38.352   9.873   0.960
 9362W        W81622   9.743  38.895   3.936
 9363W        W81623  21.723   8.337   2.216
 9364W        W81624  40.377  25.414   1.291
 9365W        W81625  43.980  36.779  11.134
 9366W        W81626  39.364  39.976   1.271
 9367W        W81627  27.619   2.512  12.408
 9368W        W81628  40.963  15.777   1.855
 9369W        W81629  18.584  43.721   0.382
 9370W        W81630  41.249  10.019   1.776
 9371W        W81631  42.468  20.948   4.218
 9372W        W81632  24.035   9.104   3.945
 9373W        W81633  40.304  30.590   1.308
 9374W        W81634  13.084   2.532   2.670
 9375W        W81635  15.304  26.950  14.313
 9376W        W81636  29.243  27.144  12.474
 9377W        W81637  41.545  11.211   0.443
 9378W        W81638  11.791  33.304   0.303
 9379W        W81639   9.685  11.134   2.378
 9380W        W81640  26.849   4.733   3.582
 9381W        W81641  30.245  16.728   4.806
 9382W        W81642  42.959  37.585   2.382
 9383W        W81643  44.366  39.993  10.864
 9384W        W81644   0.517  27.435  11.434
 9385W        W81645   7.437   3.996   2.224
 9386W        W81646  43.854   0.376  14.036
 9387W        W81647  37.811  18.602  10.699
 9388W        W81648  17.021  23.908   3.771
 9389W        W81649  18.473  19.756   2.709
 9390W        W81650  41.438  38.590  11.500
 9391W        W81651  13.890  33.586   4.145
 9392W        W81652   8.998  13.413   3.589
 9393W        W81653   2.004  21.136  10.208
 9394W        W81654  36.446  35.856   2.216
 9395W        W81655  26.215  44.533   1.896
 9396W        W81656  42.277  13.246   3.409
 9397W        W81657  27.509   8.574   4.156
 9398W        W81658  15.519  20.331  13.814
 9399W        W81659  27.394  14.865   1.031
 9400W        W81660   2.059  43.555  11.214
 9401W        W81661  21.580  27.074  10.850
 9402W        W81662  21.797  10.758  13.382
 9403W        W81663  17.984  34.857   1.692
 9404W        W81664  25.744  44.997  14.722
 9405W        W81665   6.176   7.207   1.791
 9406W        W81666  32.234  29.253  12.058
 9407W        W81667   4.110  44.334   1.366
 9408W        W81668  39.719  38.933   3.314
 9409W        W81669  42.934  13.636  12.068
 9410W        W81670  31.575   0.590  11.173
 9411W        W81671  41.034  40.384   4.063
 9412W        W81672  22.277  36.602   3.627
 9413W        W81673  27.579  10.403   0.750
 9414W        W81674  20.248  13.282   0.093
 9415W        W81675  34.952  27.049   0.892
 9416W        W81676  38.527  12.750  11.554
 9417W        W81677  39.559  19.343   4.556
 9418W        W81678  37.533  21.587  14.392
 9419W        W81679  20.958  18.967   4.761
 9420W        W81680  31.071  28.471   3.282
 9421W        W81681   0.744  36.809   1.195
 9422W        W81682  33.831  32.824  10.722
 9423W        W81683  20.243  10.635  11.084
 9424W        W81684  39.329  39.816   4.092
 9425W        W81685  37.855  12.055  12.369
 9426W        W81686  21.784  30.836  10.632
 9427W        W81687   3.691  25.989  13.096
 9428W        W81688  10.688  43.874  12.997
 9429W        W81689  38.769   3.970  14.827
 9430W        W81690  18.834  23.114  12.006
 9431W        W81691   9.655  37.937  13.839
 9432W        W81692  25.750  27.444  13.617
 9433W        W81693  24.966  30.070  11.788
 9434W        W81694   8.303  30.391   0.961
 9435W        W81695  26.713  20.166   4.022
 9436W        W81696   1.733  17.090   4.696
 9437W        W81697  39.931   0.900   4.821
 9438W        W81698  20.600  38.906   3.332
 9439W        W81699   6.336  36.141   3.307
 9440W        W81700   3.322  30.411  10.428
 9441W        W81701  23.562  24.945  11.624
 9442W        W81702  12.162  37.352  14.353
 9443W        W81703  28.526  38.662  13.384
 9444W        W81704  30.378  11.282   0.596
 9445W        W81705  25.224  13.200  14.399
 9446W        W81706  28.956  16.407  13.946
 9447W        W81707  36.009  19.989   2.742
 9448W        W81708  33.965  39.982  11.988
 9449W        W81709  19.946  27.212   2.306
 9450W        W81710  32.862  29.113  14.943
 9451W        W81711  13.109  22.365  10.161
 9452W        W81712  23.940  16.250  13.041
 9453W        W81713  11.032  15.864  12.441
 9454W        W81714  32.019  17.072   0.015
 9455W        W81715  10.708  34.393  12.847
 9456W        W81716   3.455  14.590  10.782
 9457W        W81717  34.418  11.042  11.288
 9458W        W81718  36.445  14.032  14.161
 9459W        W81719  20.929  27.049   4.702
 9460W        W81720   8.274  29.451  11.637
 9461W        W81721  38.017  10.529   2.242
 9462W        W81722  19.827  13.544  14.923
 9463W        W81723   0.913  18.146   1.178
 9464W        W81724  21.158  30.172   0.885
 9465W        W81725   5.876  19.485   1.719
 9466W        W81726  15.845   4.684  12.637
 9467W        W81727  37.520  21.475  10.374
 9468W        W81728  19.770  42.799   0.966
 9469W        W81729  24.958   9.412  13.946
 9470W        W81730  21.852  12.482  11.120
 9471W        W81731  26.141  30.055   0.226
 9472W        W81732   0.866  10.766  14.992
 9473W        W81733  25.960  15.210   0.310
 9474W        W81734  42.335  28.794  12.032
 9475W        W81735   4.718  27.080  11.129
 9476W        W81736  19.164  27.226  11.531
 9477W        W81737  19.749   1.810   2.635
 9478W        W81738  37.374  31.677   1.859
 9479W        W81739  12.625   3.356  11.872
 9480W        W81740  15.384  13.192   4.903
 9481W        W81741  33.131  19.671  12.423
 9482W        W81742  12.404  32.917   3.109
 9483W        W81743   2.858  35.568   2.376
 9484W        W81744  33.631  12.581  10.790
 9485W        W81745  20.050  12.237  13.450
 9486W        W81746  40.957  10.894  13.038
 9487W        W81747  36.421  12.891  11.674
 9488W        W81748  22.518  39.194  12.886
 9489W        W81749  44.691  21.069  13.607
 9490W        W81750   4.662  40.483  14.475
 9491W        W81751  15.109  19.201  13.537
 9492W        W81752   1.337   3.392   2.265
 9493W        W81753  31.815   6.041   2.239
 9494W        W81754  27.995   8.815   0.791
 9495W        W81755   8.269  16.544  13.873
 9496W        W81756  16.898  39.070  11.588
 9497W        W81757  24.532  20.417   3.588
 9498W        W81758   8.234  15.789   3.596
 9499W        W81759  35.450  12.900   3.323
 9500W        W81760  19.065  27.447  11.073
 9501W        W81761  43.517  28.089  13.994
 9502W        W81762  18.054  37.479   3.668
 9503W        W81763   0.010  19.622  12.883
 9504W        W81764  16.092   4.293  12.951
 9505W        W81765   4.636  33.471   1.320
 9506W        W81766  18.040  18.570   1.631
 9507W        W81767  34.045  11.659  12.900
 9508W        W81768  21.827  39.959   2.566
 9509W        W81769   4.282  35.413  14.427
 9510W        W81770  22.085  38.519   3.651
 9511W        W81771  19.598   8.648   1.534
 9512W        W81772  30.478   7.260   2.093
 9513W        W81773   7.930   2.045   3.232
 9514W        W81774  13.243  43.183   3.222
 9515W        W81775  35.702  14.224  12.894
 9516W        W81776  35.552  15.045  11.870
 9517W        W81777  38.491   7.493  11.557
 9518W        W81778  38.122  32.351   4.254
 9519W        W81779  38.529  21.472   3.381
 9520W        W81780  13.033  22.738   3.251
 9521W        W81781  21.861  32.439  14.533
 9522W        W81782   2.548  15.665  14.004
 9523W        W81783   0.904  30.922  13.395
 9524W        W81784  15.471   9.264  12.688
 9525W        W81785  37.027  26.568  14.039
 9526W        W81786   8.876  18.805   0.317
 9527W        W81787   8.106   7.838   1.026
 9528W        W81788  40.618  41.926   2.906
 9529W        W81789   9.543  12.671  13.054
 9530W        W81790  18.777  10.755  13.438
 9531W        W81791   2.157  12.205  13.537
 9532W        W81792  17.729   2.501   0.689
 9533W        W81793  22.670   8.364  11.060
 9534W        W81794  33.406  37.407  11.716
 9535W        W81795   8.203   2.133  14.770
 9536W        W81796  12.086  27.384   0.384
 9537W        W81797  31.185  21.231   2.264
 9538W        W81798  17.149   7.311   0.503
 9539W        W81799   4.817  11.840  14.355
 9540W        W81800  44.528  31.468  14.201
 9541W        W81801  15.570  11.180  10.794
 9542W        W81802  38.405  40.459  14.979
 9543W        W81803   6.295   9.624  14.802
 9544W        W81804  35.597  39.820  10.703
 9545W        W81805  44.477  22.535  11.995
 9546W        W81806   0.399  36.814  13.570
 9547W        W81807  14.525  23.519   0.976
 9548W        W81808  11.142  31.098   4.192
 9549W        W81809  37.797  34.227   3.632
 9550W        W81810  35.584   4.972  10.494
 9551W        W81811   6.621  16.296  14.541
 9552W        W81812  10.357   0.491  13.341
 9553W        W81813  15.557   2.237  14.252
 9554W        W81814  39.013  34.220   2.845
 9555W        W81815  30.628  32.212   5.495
 9556W        W81816  40.118   8.195  12.950
 9557W        W81817  29.554  35.041   4.407
 9558W        W81818   1.849  33.524   0.905
 9559W        W81819  17.283   4.640   3.640
 9560W        W81820   1.817  32.252  11.401
 9561W        W81821   2.697  28.424  14.251
 9562W        W81822   4.407  17.658  13.098
 9563W        W81823   9.607  14.070  14.337
 9564W        W81824  21.314  38.590  13.972
 9565W        W81825  21.563  23.099  14.904
 9566W        W81826  15.254   1.268   3.528
 9567W        W81827   5.339  32.657  10.679
 9568W        W81828  15.557  42.203   3.202
 9569W        W81829  37.106  37.924   2.700
 9570W        W81830  10.578  38.401  12.680
 9571W        W81831  17.679  10.340  12.864
 9572W        W81832  22.567  28.189   4.621
 9573W        W81833  38.988  33.028  12.974
 9574W        W81834  28.464  25.003  11.999
 9575W        W81835  34.634   0.308  13.983
 9576W        W81836  10.266  40.115  10.665
 9577W        W81837  40.459  23.562  14.445
 9578W        W81838  36.014  38.728   0.047
 9579W        W81839  24.730  41.881   9.991
 9580W        W81840  30.995  42.725  11.551
 9581W        W81841  40.841  27.449   0.945
 9582W        W81842  35.071  16.291   4.727
 9583W        W81843  22.348  11.555   3.213
 9584W        W81844  43.881  42.965  10.709
 9585W        W81845   3.039  20.965  13.060
 9586W        W81846  37.845   7.153   0.334
 9587W        W81847  23.288   0.026   1.371
 9588W        W81848  37.892   9.711  13.294
 9589W        W81849  29.132  22.634   4.811
 9590W        W81850   5.212   9.239   0.027
 9591W        W81851   6.306  27.523   4.435
 9592W        W81852   2.116   6.834   4.547
 9593W        W81853  29.057  17.677   4.425
 9594W        W81854  26.577   4.253   0.029
 9595W        W81855  28.270   2.815  11.650
 9596W        W81856  13.901   0.240   3.651
 9597W        W81857  15.409  27.536   0.438
 9598W        W81858  38.378  34.041  14.899
 9599W        W81859  25.182  30.551  11.960
 9600W        W81860   9.684  22.607  13.091
 9601W        W81861  10.301   8.386  11.948
 9602W        W81862  18.178   6.247  10.755
 9603W        W81863   1.830  43.247  13.878
 9604W        W81864   9.409   0.218  10.262
 9605W        W81865  37.306   3.428  10.761
 9606W        W81866  33.942   0.871  13.155
 9607W        W81867  26.197   2.667  10.703
 9608W        W81868  37.362  16.606  13.602
 9609W        W81869  26.709  16.340   0.835
 9610W        W81870  12.649  31.246   9.696
 9611W        W81871  39.337  39.266  13.989
 9612W        W81872  30.507  30.747   4.795
 9613W        W81873  12.722  40.917   1.354
 9614W        W81874  19.037  15.336  11.665
 9615W        W81875  27.445  22.630   3.787
 9616W        W81876  14.282  30.631  13.929
 9617W        W81877  31.622  16.321  13.786
 9618W        W81878   6.172  17.553   4.583
 9619W        W81879  39.356  34.922  12.201
 9620W        W81880  25.522  24.242  10.982
 9621W        W81881  34.400   3.271  11.372
 9622W        W81882  10.096  36.820  13.036
 9623W        W81883  36.403  37.665  11.928
 9624W        W81884  12.656   2.003  14.803
 9625W        W81885  34.567  27.427   3.650
 9626W        W81886  22.015  17.974  11.734
 9627W        W81887   0.231   6.356  11.154
 9628W        W81888  20.742  26.169  13.325
 9629W        W81889  26.848   6.267   2.143
 9630W        W81890  37.822   3.953   1.454
 9631W        W81891  14.974  15.385  12.014
 9632W        W81892  17.836  42.170  11.162
 9633W        W81893  19.791  32.535   0.921
 9634W        W81894  25.519  33.913   4.655
 9635W        W81895  33.063  13.276   3.974
 9636W        W81896   6.621   8.179   2.677
 9637W        W81897  23.574   6.828  11.589
 9638W        W81898  34.862  29.102   4.583
 9639W        W81899   2.621  22.013  13.622
 9640W        W81900   6.318  23.208  13.074
 9641W        W81901  10.965  19.589   1.404
 9642W        W81902   9.172  37.803   3.211
 9643W        W81903  28.823  23.331  14.847
 9644W        W81904  42.374  36.898   0.390
 9645W        W81905  44.851  23.909   0.282
 9646W        W81906  15.985   4.881   1.102
 9647W        W81907  22.204  41.328  14.481
 9648W        W81908  30.031  16.639  10.661
 9649W        W81909  39.488  30.348  14.528
 9650W        W81910   3.334  18.671  12.877
 9651W        W81911   5.437  20.517  12.038
 9652W        W81912   1.283   7.295  11.919
 9653W        W81913  42.810  28.217   2.817
 9654W        W81914  10.744   4.650  12.496
 9655W        W81915  18.797  40.852   4.333
 9656W        W81916   6.397  14.398  14.534
 9657W        W81917  41.518  31.876   2.805
 9658W        W81918  18.422  10.255  12.538
 9659W        W81919  11.232   3.798   4.646
 9660W        W81920  15.394  40.266   4.107
 9661W        W81921  10.694  35.455   3.301
 9662W        W81922  28.506  13.865  14.904
 9663W        W81923  38.888  23.138  10.662
 9664W        W81924  29.396  34.974  11.599
 9665W        W81925  39.956  21.191   1.817
 9666W        W81926   5.893  19.748   2.229
 9667W        W81927  42.401  30.660   4.504
 9668W        W81928  19.176  43.013   5.051
 9669W        W81929  33.376  20.329  14.367
 9670W        W81930  21.411  19.569  12.116
 9671W        W81931   5.760   2.887  13.146
 9672W        W81932  27.560  40.159   4.506
 9673W        W81933   5.717  21.043  10.843
 9674W        W81934   8.419  21.942   0.655
 9675W        W81935  16.408  40.500   1.299
 9676W        W81936  16.635   1.486  14.265
 9677W        W81937  23.505  10.728   3.793
 9678W        W81938  43.277  33.363   3.606
 9679W        W81939  39.062  13.287   2.878
 9680W        W81940  13.238  20.682   1.673
 9681W        W81941  12.203   9.604  14.966
 9682W        W81942  14.649  25.242   2.398
 9683W        W81943  17.795  12.934   3.229
 9684W        W81944  29.711   2.961  13.324
 9685W        W81945  31.119  20.079   3.262
 9686W        W81946  18.634  40.837  13.909
 9687W        W81947   7.823   1.913  12.773
 9688W        W81948   1.766  16.039  13.466
 9689W        W81949  39.089  14.734   4.115
 9690W        W81950  24.875  22.922  14.183
 9691W        W81951  33.570  24.622  12.652
 9692W        W81952  24.152   5.196   1.078
 9693W        W81953  20.178   7.427  14.537
 9694W        W81954  31.351  19.777  11.935
 9695W        W81955  14.054  29.427   0.303
 9696W        W81956  10.726  31.986   4.954
 9697W        W81957  19.633  26.452   1.064
 9698W        W81958   4.958   5.700   3.772
 9699W        W81959   6.742   1.324  13.247
 9700W        W81960  25.530  27.878   1.547
 9701W        W81961  29.867  18.024  10.931
 9702W        W81962   8.180  25.201   1.302
 9703W        W81963  30.493  10.677   2.357
 9704W        W81964  40.110  44.993   0.667
 9705W        W81965  12.857  19.899   4.801
 9706W        W81966   8.907  24.475  12.452
 9707W        W81967  12.415  43.674   0.406
 9708W        W81968  43.887  39.037  14.774
 9709W        W81969  16.075   0.867  12.880
 9710W        W81970  14.579  17.278   0.326
 9711W        W81971  30.589   6.920  13.493
 9712W        W81972   9.954  35.857  10.114
 9713W        W81973   7.120   1.485   1.839
 9714W        W81974  20.301  31.361  13.099
 9715W        W81975  41.975  23.727  13.484
 9716W        W81976   8.256  42.878  13.785
 9717W        W81977  25.780  34.146  11.069
 9718W        W81978  12.383  31.320  12.549
 9719W        W81979  22.571  14.179   4.067
 9720W        W81980   9.954  20.424  11.177
 9721W        W81981  30.264   9.493  14.864
 9722W        W81982   5.410  11.293   0.796
 9723W        W81983  16.273   3.344   2.291
 9724W        W81984   2.912  25.575  14.296
 9725W        W81985   3.451  40.038   4.629
 9726W        W81986   1.848   7.733  11.278
 9727W        W81987  44.227  19.581  13.940
 9728W        W81988  16.103   7.341   1.934
 9729W        W81989  20.188  10.374  11.568
 9730W        W81990  36.924   9.656   4.222
 9731W        W81991   3.514   4.647  10.059
 9732W        W81992  26.500  12.679  14.757
 9733W        W81993  11.646  29.901   0.266
 9734W        W81994  14.221  27.813  12.998
 9735W        W81995  14.570  18.173   2.662
 9736W        W81996  28.995   0.339   0.837
 9737W        W81997  31.102   7.851  12.685
 9738W        W81998  12.727   0.431   0.708
 9739W        W81999  30.373  22.491   4.679
 9740W        W82000   0.133  26.698   4.595
 9741W        W82001  16.253  41.311  11.449
 9742W        W82002  31.376  15.551   5.019
 9743W        W82003   8.946   3.833  11.349
 9744W        W82004   5.737  14.890  13.825
 9745W        W82005  37.359   5.837  11.932
 9746W        W82006  24.188  16.087   0.428
 9747W        W82007  20.043  11.389  11.555
 9748W        W82008   7.448  32.272   0.778
 9749W        W82009  30.453   5.302  13.718
 9750W        W82010  11.313   1.093   0.405
 9751W        W82011  19.576  26.233   1.894
 9752W        W82012   4.233   6.320  12.220
 9753W        W82013  21.347  44.991  12.872
 9754W        W82014   5.714  28.600   2.587
 9755W        W82015  38.942  26.614  12.168
 9756W        W82016  37.436  17.154  13.492
 9757W        W82017  30.687  20.562   2.541
 9758W        W82018   5.726  26.503  13.827
 9759W        W82019  19.639  22.702  13.238
 9760W        W82020  40.032   1.280   3.559
 9761W        W82021   3.708  24.935   0.797
 9762W        W82022  29.749   9.401  14.859
 9763W        W82023   4.382  17.072   2.390
 9764W        W82024   7.710  26.787  10.827
 9765W        W82025  42.617   0.033   2.327
 9766W        W82026   8.745  21.000   1.231
 9767W        W82027  25.133  29.887   3.239
 9768W        W82028  44.203  31.089   1.023
 9769W        W82029  23.145   4.163   4.110
 9770W        W82030  35.022  29.528   0.647
 9771W        W82031  42.494  41.983  12.812
 9772W        W82032   9.481  23.537   2.980
 9773W        W82033   1.298  10.628  12.875
 9774W        W82034  20.975   1.395   1.520
 9775W        W82035  25.489  29.098   0.642
 9776W        W82036  19.503   5.889   2.416
 9777W        W82037   0.395  32.653  14.458
 9778W        W82038  39.486   7.869  11.540
 9779W        W82039  32.107  19.783   0.733
 9780W        W82040  10.316  41.102  13.928
 9781W        W82041  27.012   7.284   3.937
 9782W        W82042  38.601  17.641   2.234
 9783W        W82043  33.159  30.457  13.572
 9784W        W82044  34.961   8.348  14.763
 9785W        W82045  44.030  22.642   1.909
 9786W        W82046  26.417  22.979  11.962
 9787W        W82047  36.166  40.625  14.326
 9788W        W82048  17.054  33.888   5.087
 9789W        W82049  43.003  39.885   4.164
 9790W        W82050  18.998  19.819   1.309
 9791W        W82051  38.506  34.695   2.407
 9792W        W82052   5.892  27.204   1.977
 9793W        W82053   9.376   7.584  11.492
 9794W        W82054  15.505  35.673  14.875
 9795W        W82055  18.238   1.493  12.401
 9796W        W82056  19.789   1.390  14.440
 9797W        W82057  17.259  24.519  14.724
 9798W        W82058   0.793  25.436  11.614
 9799W        W82059   4.984  22.451   0.793
 9800W        W82060  12.556  32.997  13.938
 9801W        W82061  17.337  30.435   2.756
 9802W        W82062  31.673  14.891  12.596
 9803W        W82063  26.066  12.892  13.129
 9804W        W82064  31.051  27.246  10.671
 9805W        W82065  27.684  31.573   3.189
 9806W        W82066  19.196  40.288   0.299
 9807W        W82067  36.281  10.175   1.869
 9808W        W82068  36.325   3.790  10.548
 9809W        W82069  30.958  22.596  14.706
 9810W        W82070  15.995  17.594   3.722
 9811W        W82071   0.882  41.419  13.827
 9812W        W82072  16.191  35.514  12.133
 9813W        W82073  20.945  33.010  14.411
 9814W        W82074  28.684  36.860  14.489
 9815W        W82075  20.083   7.074  12.532
 9816W        W82076  12.911  41.251   1.833
 9817W        W82077   0.324  31.281  13.582
 9818W        W82078   6.673  41.472   1.313
 9819W        W82079  16.192  15.886  13.058
 9820W        W82080  10.638  38.040   3.196
 9821W        W82081  43.835   5.199   2.393
 9822W        W82082  37.755  44.278   4.247
 9823W        W82083  14.373  12.180   0.876
 9824W        W82084  12.151  20.753  12.667
 9825W        W82085  10.994  38.944  13.408
 9826W        W82086   0.886  41.994  12.504
 9827W        W82087   4.017   7.234  13.396
 9828W        W82088   3.037  25.697   1.721
 9829W        W82089   8.889   6.851   1.127
 9830W        W82090  23.148  11.431   1.232
 9831W        W82091  11.966  42.536   3.237
 9832W        W82092  21.737  15.924   0.188
 9833W        W82093  42.866  41.995   1.896
 9834W        W82094   0.262  20.927  14.252
 9835W        W82095  43.434  40.106   0.948
 9836W        W82096  13.531   1.893  14.001
 9837W        W82097  14.793  15.847   1.738
 9838W        W82098  42.961  32.833   2.265
 9839W        W82099  13.049  26.633  11.626
 9840W        W82100  35.614  19.505  13.968
 9841W        W82101  12.518  24.707  11.557
 9842W        W82102  28.614  38.288   2.356
 9843W        W82103  36.031  17.228  11.467
 9844W        W82104  27.273   7.737   0.333
 9845W        W82105  15.295   7.915  11.983
 9846W        W82106  31.700  44.757  14.042
 9847W        W82107  32.151   8.786   1.245
 9848W        W82108  43.291  17.843  12.048
 9849W        W82109   1.257  31.320   1.241
 9850W        W82110  38.865  36.932   4.548
 9851W        W82111  44.353  43.506  12.024
 9852W        W82112  19.081  36.801   3.765
 9853W        W82113  42.718   7.472  14.891
 9854W        W82114  42.230  21.650   0.527
 9855W        W82115  42.385  44.399  10.913
 9856W        W82116   1.018  29.388  10.317
 9857W        W82117   2.090  15.779  13.766
 9858W        W82118  24.122  20.689  10.131
 9859W        W82119  36.392  35.855   3.670
 9860W        W82120  22.550   8.113  12.482
 9861W        W82121  38.909  34.444  11.141
 9862W        W82122  22.620  32.643   1.941
 9863W        W82123  39.513  13.302  11.995
 9864W        W82124  14.028  13.873  12.904
 9865W        W82125  16.746  19.575   2.885
 9866W        W82126   1.226  23.490  12.933
 9867W        W82127  29.945  12.898   2.215
 9868W        W82128  13.233  36.256   1.487
 9869W        W82129   5.352  32.500  11.171
 9870W        W82130  18.257  15.628  14.936
 9871W        W82131  15.051  22.727   0.696
 9872W        W82132  15.724  16.506  10.042
 9873W        W82133  33.078   0.310   4.847
 9874W        W82134  37.961  42.962  13.540
 9875W        W82135  15.395  12.824   3.347
 9876W        W82136  17.585  34.173  14.868
 9877W        W82137  21.068  20.303   0.750
 9878W        W82138  32.411   7.677   4.349
 9879W        W82139  39.025   8.305  10.629
 9880W        W82140  40.924  26.702   4.007
 9881W        W82141   6.532   2.335  13.420
 9882W        W82142  21.643  44.647  12.603
 9883W        W82143  20.087  19.283  11.206
 9884W        W82144  18.141  14.637   3.290
 9885W        W82145  44.327  31.859  12.828
 9886W        W82146  15.290  19.235  12.067
 9887W        W82147  33.587  31.590   0.867
 9888W        W82148  17.418  24.139  11.588
 9889W        W82149  20.820   7.245   2.458
 9890W        W82150  17.043  33.506  10.721
 9891W        W82151  44.005  28.987  10.766
 9892W        W82152  40.872  28.433   2.571
 9893W        W82153  40.459  19.619   4.516
 9894W        W82154  10.311   3.696  12.987
 9895W        W82155  35.977  28.014   4.645
 9896W        W82156   8.348   1.785   3.068
 9897W        W82157  21.170   0.725  12.596
 9898W        W82158   0.293  41.573  14.559
 9899W        W82159   3.296  42.853   3.718
 9900W        W82160  29.559  19.302   1.951
 9901W        W82161   7.485  15.677  11.139
 9902W        W82162   9.422   0.066  13.302
 9903W        W82163   4.873  21.477   0.703
 9904W        W82164  28.985  15.109   1.685
 9905W        W82165  30.588  32.410   0.334
 9906W        W82166   5.789  19.237   1.223
 9907W        W82167  42.361  22.216  14.464
 9908W        W82168  36.473   9.905   4.470
 9909W        W82169  34.895   2.685  13.005
 9910W        W82170   0.727  27.430  13.994
 9911W        W82171  22.234   2.700   4.513
 9912W        W82172  44.023  40.619   1.644
 9913W        W82173   6.689   9.365   2.273
 9914W        W82174  22.825  42.304  10.369
 9915W        W82175  18.739   0.787   4.626
 9916W        W82176  33.910  43.780  14.448
 9917W        W82177  35.585  12.391  11.621
 9918W        W82178  38.509  44.482   3.677
 9919W        W82179  18.168  17.129  14.514
 9920W        W82180  36.948  27.998  14.292
 9921W        W82181   4.194  29.641   0.571
 9922W        W82182   1.401  42.890   2.051
 9923W        W82183   4.162  42.601  12.096
 9924W        W82184   1.034  17.766   2.764
 9925W        W82185  36.873  26.333   4.134
 9926W        W82186  22.494  28.337  10.121
 9927W        W82187   3.517  23.494  12.552
 9928W        W82188   0.491  39.284   3.905
 9929W        W82189  12.243  28.093  10.206
 9930W        W82190  28.002  34.628   4.555
 9931W        W82191   6.482  37.639  13.563
 9932W        W82192  17.312  32.052  14.861
 9933W        W82193  20.745   9.048  12.544
 9934W        W82194  11.087  32.805  13.854
 9935W        W82195  18.740  26.116  12.027
 9936W        W82196  32.652  12.102  11.598
 9937W        W82197  39.964  13.182  10.716
 9938W        W82198  38.586  23.960   1.183
 9939W        W82199   4.664  28.520  11.958
 9940W        W82200  28.184  26.384  12.162
 9941W        W82201  28.876  39.067   4.375
 9942W        W82202  13.475  23.500  10.813
 9943W        W82203  18.218   0.898   4.694
 9944W        W82204  39.844  24.058  13.775
 9945W        W82205  39.599  10.266   3.249
 9946W        W82206  28.278  21.709   0.823
 9947W        W82207  15.029  14.718  10.262
 9948W        W82208   0.820  12.595  13.992
 9949W        W82209  15.120  37.760  14.351
 9950W        W82210   7.339   5.122  11.932
 9951W        W82211  42.001  31.202  14.391
 9952W        W82212  23.651  19.197  12.084
 9953W        W82213  19.717  21.300  10.803
 9954W        W82214  19.710  19.270   0.412
 9955W        W82215  16.177  22.560  12.570
 9956W        W82216   0.844  23.680  14.454
 9957W        W82217  12.603  25.871  11.992
 9958W        W82218  41.896  18.598   2.616
 9959W        W82219  43.448  19.798   4.670
 9960W        W82220  11.472   5.981   0.463
 9961W        W82221  23.501  38.021  14.014
 9962W        W82222   5.895  38.691  12.116
 9963W        W82223   3.417   7.329  10.630
 9964W        W82224   2.696  34.087   3.685
 9965W        W82225  41.402  31.525   4.375
 9966W        W82226  38.121  15.702  11.588
 9967W        W82227  28.216  42.303   0.728
 9968W        W82228  34.072   2.254   0.450
 9969W        W82229  17.729  44.459  11.442
 9970W        W82230  21.527  19.169  14.426
 9971W        W82231  34.106  37.512  11.179
 9972W        W82232  31.032  22.970  13.403
 9973W        W82233  24.800  23.246   3.315
 9974W        W82234  15.812  43.525   3.568
 9975W        W82235   8.629  12.359  10.713
 9976W        W82236  17.014  10.673   2.859
 9977W        W82237   9.609  36.628   0.014
 9978W        W82238  18.037  35.043  12.379
 9979W        W82239   5.349  44.378  10.700
 9980W        W82240  41.491  38.476  12.384
 9981W        W82241  38.829  38.431  13.043
 9982W        W82242  12.698  24.154   3.268
 9983W        W82243  35.350  31.208   3.692
 9984W        W82244   4.848  43.465   0.452
 9985W        W82245   5.712   4.994  13.025
 9986W        W82246  28.280   6.322   3.205
 9987W        W82247  20.663  13.032   1.408
 9988W        W82248  10.252  10.671  12.441
 9989W        W82249   7.462   5.801  12.381
 9990W        W82250  24.928   2.769  11.853
 9991W        W82251  39.535  28.969  13.397
 9992W        W82252  36.516  44.740  10.526
 9993W        W82253  31.606  42.109   2.850
 9994W        W82254   5.640  40.093   0.595
 9995W        W82255  41.867   9.615   0.403
 9996W        W82256  29.041  42.346   4.755
 9997W        W82257  29.722  44.389  14.502
 9998W        W82258  38.344  35.959   1.188
 9999W        W82259   4.709  31.301  12.295
10000W        W82260  37.071   0.023  11.180
10001W        W82261  31.234  17.303  13.880
10002W        W82262   3.702   1.498   0.360
10003W        W82263  22.851  33.958  11.737
10004W        W82264  39.318  25.517   1.930
10005W        W82265  42.382  24.980   5.029
10006W        W82266  40.989   7.524  13.288
10007W        W82267  19.094  19.220  11.104
10008W        W82268  40.208   8.379  12.458
10009W        W82269   4.331   6.307  14.866
10010W        W82270   3.186  16.050  13.951
10011W        W82271   9.937  17.741  11.354
10012W        W82272   7.019  12.112   0.483
10013W        W82273   5.892  40.980  14.659
10014W        W82274  28.467  21.079   2.664
10015W        W82275   4.268  43.914   4.826
10016W        W82276  25.646  37.446  14.380
10017W        W82277   2.646  33.642   0.571
10018W        W82278  44.703  34.614  11.530
10019W        W82279  42.825  22.989   1.334
10020W        W82280   1.148  24.782  13.513
10021W        W82281  38.102  31.897   0.639
10022W        W82282  23.983  41.392   2.149
10023W        W82283   8.108   8.097  12.958
10024W        W82284   0.729  28.206  12.161
10025W        W82285  24.110  23.537  13.418
10026W        W82286  16.302  22.710  14.956
10027W        W82287   7.495  17.822  14.878
10028W        W82288  30.535  36.168   1.181
10029W        W82289  37.063  15.878   2.091
10030W        W82290  12.757  33.918  10.496
10031W        W82291   7.904   2.044   4.292
10032W        W82292  16.873  24.529  10.953
10033W        W82293   1.512   9.193  14.477
10034W        W82294   8.475   9.393  14.626
10035W        W82295  10.586  36.884   0.299
10036W        W82296  26.668  38.045  14.454
10037W        W82297  42.385  28.128   1.218
10038W        W82298  18.177  15.138  13.269
10039W        W82299  37.508  41.950   0.904
10040W        W82300  32.095  10.131   3.473
10041W        W82301  10.705  10.790  13.918
10042W        W82302   0.459  25.424   4.255
10043W        W82303  44.456  31.810   0.507
10044W        W82304   3.034  37.999   1.293
10045W        W82305  30.593  18.032  11.513
10046W        W82306  27.210  38.642   2.357
10047W        W82307   7.634   8.749   0.887
10048W        W82308  29.035  19.264   0.276
10049W        W82309  22.055  28.966   5.612
10050W        W82310  13.651  19.127   1.448
10051W        W82311  12.125   3.254   1.822
10052W        W82312  14.202  19.030  13.744
10053W        W82313  37.116  40.230  13.475
10054W        W82314  41.563   3.618  14.592
10055W        W82315   6.312  17.907  11.219
10056W        W82316  43.158   3.665   1.892
10057W        W82317  31.717   5.412  11.894
10058W        W82318  42.877  44.225  11.462
10059W        W82319  44.500   9.628  13.438
10060W        W82320  28.401   1.911   0.231
10061W        W82321   6.392   7.002   0.824
10062W        W82322  13.903  34.948   4.392
10063W        W82323   8.399  36.559   3.836
10064W        W82324  15.621  24.003   1.718
10065W        W82325  10.745  33.944   4.060
10066W        W82326   4.500  13.999   0.766
10067W        W82327  19.723  30.342   0.494
10068W        W82328  36.952  15.151  11.563
10069W        W82329  39.454   9.579  11.882
10070W        W82330  39.357  27.179  12.894
10071W        W82331  28.220  31.579   0.189
10072W        W82332  25.868  31.718  13.558
10073W        W82333  31.417  41.831  14.801
10074W        W82334  44.173  31.884   1.770
10075W        W82335  40.492   0.911  13.457
10076W        W82336  37.078  19.243   3.672
10077W        W82337  18.817  23.725  13.888
10078W        W82338  31.187   4.368  14.914
10079W        W82339  32.753   5.986   3.251
10080W        W82340  33.885  13.912  14.265
10081W        W82341  11.736  32.198  12.949
10082W        W82342  36.567  13.336   3.269
10083W        W82343  34.662   8.351   1.881
10084W        W82344   4.563  32.080   1.461
10085W        W82345  33.681  26.201  12.400
10086W        W82346  42.976   2.052   2.589
10087W        W82347  39.970  10.799  13.064
10088W        W82348  24.844  32.995   2.721
10089W        W82349  12.223  31.543  11.627
10090W        W82350  21.170  28.289  14.772
10091W        W82351  22.187  33.404   4.522
10092W        W82352  18.447  28.831  13.889
10093W        W82353  35.209  23.945  11.678
10094W        W82354  37.967  33.686  14.376
10095W        W82355  23.707  32.217  14.423
10096W        W82356   2.857  18.338  12.854
10097W        W82357  23.335  15.770   3.315
10098W        W82358   4.157  42.186   1.718
10099W        W82359  10.956  39.389   1.900
10100W        W82360  23.176  12.639  11.093
10101W        W82361  36.609  30.087  13.453
10102W        W82362  41.938  11.352  12.870
10103W        W82363  11.841  14.132  11.669
10104W        W82364  22.197  13.098  10.991
10105W        W82365  18.954  15.928  12.948
10106W        W82366  17.985  29.586   1.646
10107W        W82367   8.727  28.079   0.800
10108W        W82368  20.191   5.849   9.778
10109W        W82369  21.587   6.143  13.008
10110W        W82370  31.339  31.515   4.658
10111W        W82371  15.607  16.674  13.509
10112W        W82372  33.041   2.397   4.235
10113W        W82373  24.694  34.129   0.461
10114W        W82374  10.571  19.466  11.004
10115W        W82375  41.506  15.523   2.907
10116W        W82376  28.204  37.720   5.101
10117W        W82377  18.731  21.735  13.504
10118W        W82378   2.470   8.958  12.031
10119W        W82379  41.890  22.633  10.711
10120W        W82380  29.265  22.009   3.676
10121W        W82381   4.201  17.642   2.466
10122W        W82382  22.304  15.027   2.308
10123W        W82383  15.246  25.019  13.914
10124W        W82384   4.941  17.843   4.502
10125W        W82385  14.859  18.072   1.421
10126W        W82386  39.995  13.722   1.401
10127W        W82387   5.412  44.395   1.804
10128W        W82388  27.665  42.422   4.518
10129W        W82389   0.863  28.430   2.663
10130W        W82390  44.291  31.080  10.638
10131W        W82391   2.470   7.402  10.546
10132W        W82392   5.557  39.997  14.630
10133W        W82393  36.559  31.421   2.401
10134W        W82394   8.814   1.544  11.351
10135W        W82395  42.966   0.525  10.721
10136W        W82396  12.272  38.271   2.844
10137W        W82397  27.649  39.923   2.426
10138W        W82398  42.488  32.237   3.411
10139W        W82399  37.316  25.218  12.966
10140W        W82400  35.652  29.869  14.348
10141W        W82401   3.228  15.056  12.587
10142W        W82402  25.276  11.536   0.618
10143W        W82403   7.823  25.009   2.142
10144W        W82404   0.410  25.704   3.831
10145W        W82405   2.554  44.275  11.694
10146W        W82406  39.903  28.992  12.583
10147W        W82407  29.628  14.452   3.577
10148W        W82408  13.073   8.247   0.032
10149W        W82409   5.192  24.393  14.999
10150W        W82410  13.246  36.152  13.776
10151W        W82411  35.381   2.425  13.060
10152W        W82412  16.044   4.857  13.494
10153W        W82413  42.576   5.250   0.280
10154W        W82414  32.870  41.325  14.902
10155W        W82415  34.983  43.059  10.194
10156W        W82416  44.751   5.284  12.392
10157W        W82417  41.167  44.797   3.139
10158W        W82418   8.310   7.329  13.875
10159W        W82419   6.499  18.830   4.578
10160W        W82420  31.806   0.439  14.378
10161W        W82421  38.272  44.305   4.102
10162W        W82422  36.076  28.647   4.115
10163W        W82423  39.201  21.754  12.449
10164W        W82424  20.140   3.011  11.029
10165W        W82425  31.053  11.827  13.041
10166W        W82426  32.771   3.813   0.812
10167W        W82427  38.953  10.137   3.653
10168W        W82428  34.657  15.133  12.659
10169W        W82429  35.065   5.180  10.729
10170W        W82430   2.820  12.750   0.959
10171W        W82431  41.146   5.309  10.619
10172W        W82432   4.833  14.667  12.082
10173W        W82433   6.370  27.017  13.967
10174W        W82434  26.536   7.211  11.140
10175W        W82435  26.774   1.803  12.761
10176W        W82436  35.442  19.423  10.177
10177W        W82437  24.549  12.694   0.903
10178W        W82438  44.772  11.882  11.991
10179W        W82439  40.666  14.253   4.233
10180W        W82440  22.229  28.404  13.136
10181W        W82441   6.832   9.290   3.148
10182W        W82442   7.915  14.633   2.724
10183W        W82443  15.498  33.172   3.722
10184W        W82444   1.543  42.947  12.132
10185W        W82445  39.363  29.082  10.466
10186W        W82446  35.396  19.420   0.773
10187W        W82447  13.101  40.061  13.553
10188W        W82448  44.772  25.253  11.533
10189W        W82449   6.695  25.705   1.911
10190W        W82450  37.997  37.905   3.821
10191W        W82451   8.125   9.665  14.891
10192W        W82452   7.928   3.808   3.778
10193W        W82453   6.806  13.089  14.342
10194W        W82454   3.487   3.952  11.090
10195W        W82455  16.669   3.262  10.482
10196W        W82456  27.645   3.291  10.684
10197W        W82457  30.485  14.641   3.658
10198W        W82458   6.193  14.803  12.979
10199W        W82459  42.210  27.478   2.158
10200W        W82460  21.359  28.174   2.343
10201W        W82461  13.736  41.884   1.902
10202W        W82462  24.636  21.641   3.404
10203W        W82463  42.975  44.332   0.499
10204W        W82464  32.953   9.464  11.126
10205W        W82465  39.279  40.399  11.244
10206W        W82466  40.528  20.826  11.606
10207W        W82467   9.166  17.984  12.953
10208W        W82468  37.521  22.122   4.527
10209W        W82469  31.980  42.953   0.502
10210W        W82470  11.714   7.180  12.692
10211W        W82471   6.327  31.368  10.597
10212W        W82472   5.666  36.811   1.428
10213W        W82473  37.536   7.855   0.866
10214W        W82474  44.264  38.072   1.826
10215W        W82475  23.155  39.525   0.864
10216W        W82476   0.642  18.492  12.545
10217W        W82477  27.698   1.394   0.381
10218W        W82478  17.585  37.112   1.841
10219W        W82479  37.799  18.283  11.267
10220W        W82480  34.929  19.625   0.894
10221W        W82481   6.393  10.339   0.234
10222W        W82482  13.071  20.752   0.254
10223W        W82483  29.926  18.725   2.857
10224W        W82484  28.552  10.134   0.447
10225W        W82485  35.463  44.424   1.440
10226W        W82486  35.606  21.888  12.065
10227W        W82487  24.543  24.114   3.809
10228W        W82488   2.423  15.109   1.672
10229W        W82489  42.016   0.488  13.427
10230W        W82490  18.855  34.617   1.694
10231W        W82491  37.479  44.943  11.494
10232W        W82492  27.503  29.470   1.244
10233W        W82493  15.530  32.095  12.652
10234W        W82494  31.927   9.851   4.847
10235W        W82495  22.304  16.697   1.391
10236W        W82496  16.348  18.205  12.817
10237W        W82497  25.989  23.440   4.805
10238W        W82498  44.325  11.586  12.484
10239W        W82499  24.578  22.090   1.831
10240W        W82500  29.163  27.011   0.633
10241W        W82501  24.651  39.443  14.320
10242W        W82502   1.308  25.672  13.300
10243W        W82503  10.349  32.198   0.729
10244W        W82504  43.747  10.769  12.620
10245W        W82505  32.590  18.657   4.872
10246W        W82506  21.335  24.539  12.833
10247W        W82507  39.006  30.594   2.394
10248W        W82508  22.836  41.335   4.590
10249W        W82509  40.508  11.944  12.539
10250W        W82510   4.294  23.068   0.176
10251W        W82511   0.501   5.828  14.992
10252W        W82512  37.653  11.725   0.317
10253W        W82513  39.831  25.988   0.846
10254W        W82514  23.577   8.617  14.376
10255W        W82515   7.479  28.598   5.664
10256W        W82516   0.317  10.942   3.739
10257W        W82517  29.483   3.517   1.229
10258W        W82518  39.127  22.780   2.445
10259W        W82519  25.036  18.296   2.758
10260W        W82520  10.313   6.199  12.349
10261W        W82521   2.773  30.898   3.613
10262W        W82522  31.680  39.405   3.629
10263W        W82523  32.016  31.434   2.269
10264W        W82524   9.606  27.961  10.757
10265W        W82525  19.030  36.302   3.799
10266W        W82526   3.833  11.391  13.875
10267W        W82527  34.881  21.138  14.371
10268W        W82528   0.511  32.750   4.570
10269W        W82529  40.333  38.458  11.057
10270W        W82530  42.553   4.433  12.289
10271W        W82531  28.518  33.881   2.569
10272W        W82532  30.948  17.845  14.296
10273W        W82533  15.773  30.881   1.909
10274W        W82534  35.488  27.194  10.451
10275W        W82535  10.759  38.455   0.489
10276W        W82536  31.924  21.800  11.418
10277W        W82537   2.174  30.904  10.665
10278W        W82538   1.178  40.838  14.972
10279W        W82539  13.005  13.624  12.781
10280W        W82540  29.981  39.564  11.976
10281W        W82541  14.277  12.652   0.698
10282W        W82542   3.259  19.198   0.083
10283W        W82543  37.301   8.716  13.851
10284W        W82544  22.040  39.395   0.624
10285W        W82545   7.493  30.149  10.861
10286W        W82546  33.608  16.717   2.747
10287W        W82547  25.972  33.521   1.353
10288W        W82548  40.728  15.829  12.959
10289W        W82549  39.658  35.603  12.020
10290W        W82550   6.999  22.659   2.147
10291W        W82551  36.629  11.799   0.263
10292W        W82552  39.809   4.985  14.272
10293W        W82553  22.799   1.959   4.159
10294W        W82554   7.408  21.784   2.788
10295W        W82555  39.061  35.331   4.624
10296W        W82556   1.553  17.551  12.456
10297W        W82557  12.990  10.250   0.105
10298W        W82558  15.608  39.103  14.283
10299W        W82559  17.650  38.762   1.581
10300W        W82560  31.142  15.073  14.539
10301W        W82561   0.438  11.824   4.265
10302W        W82562   1.657  20.340  11.138
10303W        W82563  14.337  13.681   0.661
10304W        W82564   0.666  37.434   4.147
10305W        W82565  16.225  16.640  12.189
10306W        W82566  33.373  17.074  11.592
10307W        W82567  41.391   8.387  10.623
10308W        W82568  18.420  40.765   2.561
10309W        W82569  40.856   2.852   4.384
10310W        W82570  10.894  32.262  12.544
10311W        W82571  38.939  31.898   4.522
10312W        W82572  42.423   5.716  11.635
10313W        W82573  16.450  34.820   4.241
10314W        W82574  31.208  32.089  11.573
10315W        W82575  30.196  30.399   1.330
10316W        W82576  31.357  43.942   2.203
10317W        W82577   0.925  38.047   1.370
10318W        W82578   2.847  21.687   2.745
10319W        W82579  28.882   2.642  12.833
10320W        W82580  32.528  18.818   1.394
10321W        W82581  25.537  26.247  12.775
10322W        W82582  30.137  23.980   3.747
10323W        W82583   7.888  18.540   4.567
10324W        W82584  42.348   6.914   4.307
10325W        W82585  14.829  14.813  13.894
10326W        W82586  29.852  38.069  14.382
10327W        W82587  23.214  25.501   0.086
10328W        W82588  24.763  18.170  13.872
10329W        W82589   7.247  15.275  12.469
10330W        W82590  32.013  35.444  10.708
10331W        W82591  12.476  28.854  14.819
10332W        W82592  30.989  37.340  12.128
10333W        W82593  21.505  28.179   0.190
10334W        W82594  23.131  38.741  11.078
10335W        W82595  18.555  27.957  11.600
10336W        W82596  26.303   8.716  13.878
10337W        W82597   2.310  41.783   0.858
10338W        W82598   3.868  28.402   0.440
10339W        W82599   5.442  13.142   2.582
10340W        W82600  25.163  42.042   5.340
10341W        W82601  17.786  40.881  12.158
10342W        W82602  30.160  33.573   2.160
10343W        W82603  12.343   4.697  12.404
10344W        W82604  26.231  14.879  10.779
10345W        W82605   1.488  19.837   1.846
10346W        W82606  33.793  33.859  11.578
10347W        W82607  33.970   7.299   2.970
10348W        W82608  27.100  37.297  11.001
10349W        W82609  38.651  36.608  12.495
10350W        W82610  44.912   6.887   2.213
10351W        W82611  18.796   4.291  13.483
10352W        W82612  22.113  26.020   0.826
10353W        W82613  15.141  37.255   2.785
10354W        W82614  31.102  28.747  14.298
10355W        W82615  30.179  33.152   0.314
10356W        W82616  17.287  13.531   4.873
10357W        W82617  43.377   4.288   0.012
10358W        W82618  19.120   9.356  12.423
10359W        W82619   9.325  20.129   2.236
10360W        W82620   2.396   0.380   3.843
10361W        W82621  42.481   5.765  11.111
10362W        W82622  39.887   4.011   1.853
10363W        W82623  43.894  27.057  14.137
10364W        W82624   2.572  44.870  12.727
10365W        W82625  33.999   7.625  12.404
10366W        W82626   5.514  18.798  11.645
10367W        W82627  29.230  16.327  14.386
10368W        W82628  19.228   6.755   3.582
10369W        W82629  17.704  14.824  14.361
10370W        W82630   8.962  44.317   5.054
10371W        W82631  10.472  31.616  10.768
10372W        W82632   1.394  30.948   3.129
10373W        W82633   5.608  37.088   4.220
10374W        W82634  37.966  23.219  11.528
10375W        W82635   6.792  19.240   2.797
10376W        W82636  38.525  28.893  13.279
10377W        W82637   0.564   8.807   1.446
10378W        W82638  10.259  39.529   0.915
10379W        W82639  42.268  23.817   2.289
10380W        W82640  10.194   3.483   2.330
10381W        W82641  15.336   7.171  12.416
10382W        W82642  42.983  13.366   2.891
10383W        W82643   5.046  27.067  12.481
10384W        W82644   8.787  31.934   4.812
10385W        W82645  21.678   2.935   4.240
10386W        W82646  26.636  18.002  14.236
10387W        W82647   1.494   8.755   3.520
10388W        W82648  10.745  40.986   3.099
10389W        W82649  16.115  22.117  12.849
10390W        W82650  31.848  42.885  14.675
10391W        W82651  13.913  33.566  13.012
10392W        W82652   6.841  38.360  10.672
10393W        W82653  36.171  17.267   1.387
10394W        W82654  34.293  41.260   2.163
10395W        W82655  13.270  39.924  11.199
10396W        W82656  33.116  35.653  11.442
10397W        W82657  28.202   7.964  11.776
10398W        W82658  35.028  42.374   4.175
10399W        W82659   5.874  35.784   4.282
10400W        W82660  19.111   8.742   4.250
10401W        W82661   4.416  40.143  10.676
10402W        W82662  18.658  13.850   3.223
10403W        W82663   9.262  14.405   2.313
10404W        W82664   1.357  12.695   0.874
10405W        W82665  42.519  18.077  10.535
10406W        W82666  39.497  42.425  14.113
10407W        W82667  12.369   6.979   1.440
10408W        W82668  30.610  10.246  11.976
10409W        W82669  30.510  18.564  12.363
10410W        W82670  21.600  34.374  12.463
10411W        W82671  37.971  14.223   0.426
10412W        W82672  12.730  28.946   4.517
10413W        W82673  38.823  14.158   3.827
10414W        W82674  12.182  19.305   0.300
10415W        W82675  15.088   5.543   2.172
10416W        W82676  12.394  41.530   2.783
10417W        W82677  40.842  33.882  12.267
10418W        W82678  17.244   6.204  13.862
10419W        W82679  42.754   1.930  12.925
10420W        W82680   7.356  14.793   1.480
10421W        W82681  23.271   7.607   0.260
10422W        W82682   4.218  33.646   4.042
10423W        W82683  10.243  30.922   2.256
10424W        W82684  27.327  44.788   4.044
10425W        W82685  38.065   8.032  10.852
10426W        W82686  40.141  42.651  13.688
10427W        W82687  29.034  17.608   0.832
10428W        W82688   6.879  17.508   3.315
10429W        W82689  35.021   8.986  12.884
10430W        W82690   8.982  31.705   4.400
10431W        W82691  27.649  41.375   3.163
10432W        W82692  44.437  32.163   1.339
10433W        W82693  18.779   1.487  13.562
10434W        W82694   2.477  16.549  14.017
10435W        W82695  29.614  41.075  13.974
10436W        W82696  18.965   6.599   4.013
10437W        W82697  23.101  13.897   1.325
10438W        W82698  26.716  43.957   1.313
10439W        W82699   5.637  24.262  14.289
10440W        W82700  39.685  36.770   4.046
10441W        W82701  33.991  20.788   4.230
10442W        W82702  28.361  17.806  13.003
10443W        W82703  18.768  20.647  14.893
10444W        W82704  27.102  26.381  10.375
10445W        W82705  24.732  29.588   2.731
10446W        W82706  43.228  27.697  13.127
10447W        W82707  27.410   5.962   0.278
10448W        W82708  36.988  18.140   0.413
10449W        W82709  38.360  36.927  11.080
10450W        W82710  30.883  37.370   0.048
10451W        W82711  35.165  34.880  12.008
10452W        W82712   6.585  42.456   1.465
10453W        W82713   5.110  12.192   3.774
10454W        W82714  19.106  26.414  11.142
10455W        W82715  21.253  37.329  11.500
10456W        W82716   9.940  40.962  14.310
10457W        W82717  30.263  16.242  14.213
10458W        W82718   3.509  44.942   1.949
10459W        W82719  20.625  12.759   3.939
10460W        W82720  12.759  31.988   0.593
10461W        W82721  13.803  40.562  12.081
10462W        W82722  12.159  14.070  13.941
10463W        W82723  14.363  36.646  11.461
10464W        W82724   3.226  40.119   1.906
10465W        W82725  29.892  13.444   2.262
10466W        W82726  42.005  41.228   0.487
10467W        W82727  24.999   4.215   1.351
10468W        W82728  39.425  16.599  14.913
10469W        W82729  31.519  39.740  14.919
10470W        W82730  30.545  32.507  10.088
10471W        W82731  39.566  35.061   4.537
10472W        W82732  17.598  34.745  14.357
10473W        W82733  17.947  13.844  13.414
10474W        W82734  15.901  44.904  11.174
10475W        W82735  24.926   4.454   4.522
10476W        W82736   5.961   8.505  12.033
10477W        W82737   8.468   0.830  11.624
10478W        W82738  19.056  13.183   0.978
10479W        W82739  33.519  35.998  13.364
10480W        W82740  28.666   9.299   0.770
10481W        W82741  10.466   7.250   3.725
10482W        W82742  13.245   7.318   4.474
10483W        W82743  40.064  14.899   4.787
10484W        W82744  33.390  43.395  11.545
10485W        W82745   2.682   8.789   3.797
10486W        W82746  39.649  18.095   2.759
10487W        W82747   9.135   8.497   3.664
10488W        W82748  11.826  38.384   4.310
10489W        W82749  34.495  26.828  11.627
10490W        W82750  32.473  30.234  12.308
10491W        W82751   6.682  30.016  13.773
10492W        W82752   9.937   3.354   3.762
10493W        W82753  42.418   7.184   0.859
10494W        W82754  41.671   0.556  12.557
10495W        W82755  18.717  24.063  10.538
10496W        W82756  42.483  19.313  11.972
10497W        W82757   9.250  23.141   3.765
10498W        W82758   2.197  29.031   0.835
10499W        W82759  11.358  15.656  10.486
10500W        W82760   4.906   5.989   2.765
10501W        W82761  41.539  11.469  14.102
10502W        W82762  18.515  39.065   2.650
10503W        W82763  26.627  42.725  11.893
10504W        W82764  18.079  41.439  13.251
10505W        W82765  40.019  38.539   2.773
10506W        W82766  44.462  27.627   4.157
10507W        W82767  40.874  12.307  11.563
10508W        W82768  33.322   7.275   0.358
10509W        W82769  18.419   5.370  12.100
10510W        W82770  40.685  19.284   1.721
10511W        W82771  14.535  18.714   4.003
10512W        W82772  31.480   8.213  12.189
10513W        W82773  25.571  11.894  12.549
10514W        W82774   8.328   2.374   4.367
10515W        W82775  12.700  23.072  10.754
10516W        W82776  20.135  12.344  14.842
10517W        W82777  26.335   0.865   5.094
10518W        W82778  39.117  18.561  11.448
10519W        W82779  32.950  19.098  14.483
10520W        W82780  20.003  10.732   3.694
10521W        W82781  19.077  34.595  14.544
10522W        W82782  16.049  25.990  13.287
10523W        W82783   7.790   2.314  10.948
10524W        W82784  30.863  13.813   4.535
10525W        W82785  14.767   8.760  11.905
10526W        W82786  11.103  33.060  13.375
10527W        W82787  17.165  11.150  11.157
10528W        W82788  31.681   3.155   1.482
10529W        W82789  28.607  33.624   4.332
10530W        W82790  19.723  37.848   1.275
10531W        W82791  22.803  16.667  11.006
10532W        W82792  38.794  21.981   3.270
10533W        W82793  27.460  31.035   0.371
10534W        W82794  40.615  10.355   3.212
10535W        W82795  31.957  26.475   2.312
10536W        W82796   3.330  36.010   0.426
10537W        W82797  33.148  30.655   1.274
10538W        W82798  42.905  38.134   1.756
10539W        W82799   5.596  31.446  11.018
10540W        W82800  34.917  44.017  13.998
10541W        W82801   2.754  34.034   4.633
10542W        W82802   1.863   7.840   2.602
10543W        W82803  31.723   1.051   2.362
10544W        W82804  36.400   8.474  13.361
10545W        W82805  35.660   1.603   4.067
10546W        W82806  25.674  16.544   2.729
10547W        W82807  36.326  32.191  14.537
10548W        W82808  11.899  28.682   4.099
10549W        W82809  20.505   6.926  12.781
10550W        W82810   4.386   3.703   4.580
10551W        W82811  20.315  14.848   0.296
10552W        W82812  21.645  10.769  10.657
10553W        W82813  31.935   9.371   1.913
10554W        W82814   5.678   7.767   2.221
10555W        W82815   8.653   8.801   3.357
10556W        W82816  42.854  36.508   1.649
10557W        W82817  28.081   9.225  12.305
10558W        W82818  41.436   6.401   3.664
10559W        W82819   1.859   2.971   1.619
10560W        W82820  38.936   1.572  11.902
10561W        W82821  14.223  30.932   1.165
10562W        W82822   2.726  12.685   2.385
10563W        W82823  43.985   4.375  14.342
10564W        W82824  26.895   1.322  13.978
10565W        W82825   7.359  12.892  13.318
10566W        W82826  25.826  37.771  14.994
10567W        W82827  43.739   7.887  13.338
10568W        W82828  19.445  24.076   0.839
10569W        W82829  25.527  40.561   3.824
10570W        W82830  37.908  12.272   2.840
10571W        W82831  12.357  15.123  13.377
10572W        W82832  23.696  10.305   2.197
10573W        W82833  10.897  23.573   4.937
10574W        W82834   3.843  19.283  10.831
10575W        W82835  42.518  22.930   0.883
10576W        W82836  14.567  32.989  14.986
10577W        W82837   8.463   3.810   3.779
10578W        W82838  43.872  40.905  11.585
10579W        W82839  43.696   9.245  14.490
10580W        W82840   2.197  29.192   2.442
10581W        W82841  36.053   2.964  13.380
10582W        W82842   4.306  26.992  11.564
10583W        W82843  33.255  29.177   9.924
10584W        W82844  11.661  27.995   0.236
10585W        W82845  30.908  29.120   3.919
10586W        W82846  31.961   6.483   1.632
10587W        W82847  42.972  40.422  11.015
10588W        W82848  23.531  27.117  11.998
10589W        W82849  40.368  20.789   4.622
10590W        W82850  27.663  35.918  10.721
10591W        W82851  18.678  30.687   3.734
10592W        W82852  39.458  28.149   0.051
10593W        W82853  44.113  18.929   3.316
10594W        W82854  24.442  30.081   4.076
10595W        W82855  30.419  20.655  14.381
10596W        W82856   9.357  28.519  14.533
10597W        W82857  13.850  34.557   3.698
10598W        W82858  20.262  30.376  11.990
10599W        W82859   2.414  42.011   0.411
10600W        W82860   9.662  24.778   2.768
10601W        W82861  27.052  21.271  11.888
10602W        W82862  17.279  30.195   4.097
10603W        W82863  29.318  31.676  14.990
10604W        W82864  28.517  24.242  11.507
10605W        W82865   3.972  31.185   1.904
10606W        W82866  44.688  41.932   2.267
10607W        W82867  18.242  36.105   4.644
10608W        W82868  38.341  26.406  10.742
10609W        W82869  27.466  15.168   0.162
10610W        W82870  43.860   5.890   0.310
10611W        W82871  30.578   6.969  11.225
10612W        W82872  32.658   1.950   2.360
10613W        W82873  34.632  34.117   2.791
10614W        W82874  35.009  43.300   3.691
10615W        W82875  37.554  41.633   2.807
10616W        W82876  30.341  38.460  10.904
10617W        W82877  34.501  42.871  14.724
10618W        W82878   3.598  12.128   2.251
10619W        W82879   0.071  36.491  10.452
10620W        W82880  22.063  23.147   0.003
10621W        W82881  17.319  43.779   0.738
10622W        W82882  18.650   4.981  13.987
10623W        W82883  11.842  24.159  12.527
10624W        W82884  13.097  21.161   2.682
10625W        W82885  44.542  40.088  12.088
10626W        W82886  39.931  27.390   0.862
10627W        W82887  28.320  24.780  14.530
10628W        W82888  37.627  27.954   4.651
10629W        W82889  23.369  18.985   9.825
10630W        W82890  26.426  24.956   3.173
10631W        W82891  13.374   3.318  11.136
10632W        W82892  19.921  35.829  11.859
10633W        W82893  13.208  21.062   3.185
10634W        W82894  24.149  40.877  11.738
10635W        W82895  16.167   3.583  11.914
10636W        W82896  33.115  32.824  12.551
10637W        W82897  16.522   1.498  13.404
10638W        W82898   2.089  38.951   4.567
10639W        W82899  10.582  20.874  14.238
10640W        W82900  40.781  27.974   2.797
10641W        W82901  31.549  33.926   3.782
10642W        W82902  28.749  11.275   0.917
10643W        W82903  19.358   0.911  11.682
10644W        W82904  18.019  17.763   0.383
10645W        W82905  32.714  36.826   4.043
10646W        W82906   3.748  22.944   2.639
10647W        W82907   1.791  10.110   1.136
10648W        W82908  27.889  43.877   4.191
10649W        W82909  43.033   7.663  13.894
10650W        W82910   9.869  18.040  12.615
10651W        W82911  41.839  40.919  13.313
10652W        W82912   7.710  40.589   0.732
10653W        W82913  39.087  36.716   2.392
10654W        W82914   2.293   1.396   2.471
10655W        W82915  25.225  15.747  13.452
10656W        W82916  40.449  18.005   0.202
10657W        W82917  41.839  22.562  11.546
10658W        W82918  27.284  43.524  11.424
10659W        W82919   2.920  21.036  12.487
10660W        W82920   6.858  11.297  10.742
10661W        W82921  37.116  28.872  12.595
10662W        W82922  12.348  44.294   3.231
10663W        W82923  33.562  23.970   4.543
10664W        W82924  44.254  24.182  12.320
10665W        W82925  28.128  29.356   3.217
10666W        W82926  11.662  24.484  11.662
10667W        W82927   3.505  15.945   1.398
10668W        W82928  44.079  39.051  10.706
10669W        W82929  26.175  26.023  11.437
10670W        W82930  35.606  40.102  11.587
10671W        W82931  30.981  26.429   3.398
10672W        W82932   4.425   6.904   4.131
10673W        W82933   7.705   8.219   3.679
10674W        W82934  24.776  10.300  14.966
10675W        W82935  36.090  32.226   0.540
10676W        W82936  27.865  10.736  14.522
10677W        W82937   0.012  25.113  11.961
10678W        W82938  37.967  11.910  12.870
10679W        W82939  29.581  28.200   2.679
10680W        W82940  13.638   8.201  14.387
10681W        W82941  16.147   5.452  11.626
10682W        W82942  36.049  41.071  11.058
10683W        W82943  21.694   8.196  12.656
10684W        W82944   6.353  28.438   2.924
10685W        W82945  23.230  26.477   1.338
10686W        W82946  17.325  36.514  12.798
10687W        W82947  44.786   0.831   4.284
10688W        W82948  42.287  38.544  11.359
10689W        W82949  11.750  39.303  12.058
10690W        W82950  43.401  43.995   2.778
10691W        W82951  43.449  42.705   3.318
10692W        W82952  39.585  30.069   2.615
10693W        W82953  20.957  41.496   0.028
10694W        W82954  28.574   4.904  11.558
10695W        W82955  43.940   0.525  10.664
10696W        W82956  34.824  19.023  11.349
10697W        W82957  26.365  44.358  14.549
10698W        W82958  12.644  41.126   3.890
10699W        W82959  28.558  29.322   0.394
10700W        W82960   6.749  28.525  10.546
10701W        W82961  12.700  14.569   4.576
10702W        W82962  36.447  20.067   2.414
10703W        W82963   3.714  27.038  10.825
10704W        W82964  44.286   7.930  14.845
10705W        W82965  17.873  36.867  12.172
10706W        W82966  29.222   2.031  14.237
10707W        W82967  18.482  31.865  12.519
10708W        W82968   8.323  35.835  12.412
10709W        W82969  40.474  20.305   0.836
10710W        W82970   2.224  20.928  13.216
10711W        W82971  31.848  32.577   2.286
10712W        W82972  40.421  42.435  13.303
10713W        W82973  24.812  39.523  10.221
10714W        W82974  40.498   0.303   2.808
10715W        W82975  15.807  42.475   4.609
10716W        W82976   9.874  25.108   0.333
10717W        W82977   7.561   4.638   3.302
10718W        W82978  20.351  25.199  13.075
10719W        W82979  22.129  18.598  12.828
10720W        W82980   7.334  14.964  13.800
10721W        W82981  29.114  29.207  11.478
10722W        W82982  24.101  21.538   2.433
10723W        W82983  44.895   1.159   2.039
10724W        W82984  37.017   4.446  11.546
10725W        W82985  39.667   6.729  12.622
10726W        W82986  11.335  12.906  10.583
10727W        W82987  38.342  10.100   2.348
10728W        W82988  42.022  37.024   4.158
10729W        W82989  29.108  26.551  14.108
10730W        W82990  12.873  35.827   0.378
10731W        W82991  11.740  20.787  12.297
10732W        W82992  27.431  42.789  14.423
10733W        W82993  29.395  10.631   0.407
10734W        W82994  40.489  43.056  12.035
10735W        W82995  37.168  24.189  12.385
10736W        W82996  30.079   4.026   2.080
10737W        W82997  13.018   0.401  11.869
10738W        W82998  15.607  10.423  13.959
10739W        W82999  39.595  18.728  13.043
10740W        W83000  31.356  41.307  13.842
10741W        W83001  11.731  32.077   0.768
10742W        W83002  25.075  16.292   4.101
10743W        W83003  17.820  25.399   2.618
10744W        W83004  43.813   3.001   1.348
10745W        W83005  22.274  26.274  11.001
10746W        W83006  25.433  37.354  10.554
10747W        W83007  25.258   3.742  13.970
10748W        W83008  33.614  20.721  10.953
10749W        W83009  12.825  26.682   0.409
10750W        W83010  33.480  22.021  10.906
10751W        W83011  26.556  10.841   2.537
10752W        W83012  44.301   2.244   2.433
10753W        W83013  29.363  13.576   3.667
10754W        W83014  27.264  10.796   2.436
10755W        W83015  36.444  23.186  13.641
10756W        W83016  20.256  41.048  13.116
10757W        W83017   8.768  38.033  13.333
10758W        W83018  24.118   1.752   0.670
10759W        W83019   3.135  36.047  12.999
10760W        W83020  19.800   7.420  10.605
10761W        W83021  26.698  35.921  13.597
10762W        W83022  35.220  30.265  13.527
10763W        W83023  20.619  42.883  12.073
10764W        W83024  21.805  28.378   4.984
10765W        W83025  13.962  26.958   0.379
10766W        W83026  22.963  35.511  14.750
10767W        W83027  10.233   1.940  14.051
10768W        W83028  31.122   5.496  12.567
10769W        W83029   3.947   4.968   1.752
10770W        W83030   1.651  10.698  13.860
10771W        W83031  39.173  16.500   0.417
10772W        W83032   0.249  24.658  10.725
10773W        W83033   7.408  43.883   0.919
10774W        W83034   1.871  22.136  11.420
10775W        W83035  29.552   8.325  14.579
10776W        W83036  42.770  33.963  11.545
10777W        W83037  44.992  39.082   1.366
10778W        W83038   3.828  27.530  14.510
10779W        W83039  20.201  43.008   1.239
10780W        W83040   4.846  30.532  10.538
10781W        W83041   6.996   3.343  12.727
10782W        W83042  35.196   0.850  12.168
10783W        W83043   6.637   2.290  14.106
10784W        W83044  19.163  33.256   2.191
10785W        W83045  24.825   6.306  12.534
10786W        W83046  10.199   8.330   2.259
10787W        W83047   0.157  16.075  11.886
10788W        W83048  25.687  31.646   0.236
10789W        W83049   2.998  42.836  13.526
10790W        W83050   3.465  13.186  10.520
10791W        W83051   1.820   8.429   1.877
10792W        W83052  27.661  26.925  11.012
10793W        W83053  20.935   9.347   3.321
10794W        W83054  31.957  38.315   4.593
10795W        W83055  20.074   6.268   3.711
10796W        W83056  41.361  32.069  11.006
10797W        W83057  42.563  23.848  10.854
10798W        W83058  31.626  15.155   4.826
10799W        W83059   6.726  24.175  13.756
10800W        W83060  29.422  37.524   1.449
10801W        W83061  21.488  28.237   4.153
10802W        W83062  38.308   7.336   3.174
10803W        W83063  40.531  40.929   0.233
10804W        W83064  37.502  36.481   2.509
10805W        W83065   5.280  38.931  14.764
10806W        W83066   9.166   2.379  13.943
10807W        W83067  26.533  30.119  11.554
10808W        W83068   5.464   8.671  13.639
10809W        W83069  37.888   4.831  13.462
10810W        W83070  34.534   4.814   1.335
10811W        W83071  41.012   8.725   4.503
10812W        W83072  11.648  29.201  14.633
10813W        W83073   7.163   2.379  12.415
10814W        W83074   4.129  35.370   2.491
10815W        W83075   8.280  43.405  13.800
10816W        W83076   2.431  40.957   4.532
10817W        W83077  25.661  39.802   0.842
10818W        W83078  19.027   2.537  13.490
10819W        W83079  44.018  12.074   0.780
10820W        W83080  24.485  24.747   1.207
10821W        W83081  36.355   4.343   2.152
10822W        W83082  12.242  15.716   1.895
10823W        W83083  26.608   4.529  10.794
10824W        W83084  31.085  34.340  11.529
10825W        W83085  28.081   1.697  10.269
10826W        W83086  30.625  10.287  10.365
10827W        W83087  39.602  36.673  10.811
10828W        W83088  15.574  36.196   2.011
10829W        W83089   5.748   5.207   4.740
10830W        W83090  11.023  31.717   3.629
10831W        W83091  42.803  16.926  10.265
10832W        W83092  38.376  28.712   0.532
10833W        W83093  10.092  38.327  11.843
10834W        W83094  28.942  36.650  11.063
10835W        W83095  24.744  17.896  13.427
10836W        W83096   6.366  37.436   3.528
10837W        W83097  34.564   9.825  13.841
10838W        W83098  39.850  33.797  10.800
10839W        W83099  33.482  30.706   0.350
10840W        W83100  13.875  10.234   2.763
10841W        W83101  29.730   3.718   0.797
10842W        W83102  38.975  41.477  11.529
10843W        W83103  31.862  15.076   2.891
10844W        W83104   5.746  41.004  11.519
10845W        W83105  43.974  32.909  11.875
10846W        W83106   3.003  18.121   1.410
10847W        W83107  37.538   2.141   3.247
10848W        W83108   3.318  32.852   0.081
10849W        W83109  40.612   8.333  12.930
10850W        W83110  15.589  13.801  13.360
10851W        W83111   9.916   6.196  13.371
10852W        W83112  26.637  33.484   3.856
10853W        W83113  16.352   0.945  10.645
10854W        W83114   0.539  35.421  12.746
10855W        W83115   5.798  27.064  12.984
10856W        W83116  37.032   7.194  13.027
10857W        W83117   9.997  41.963  12.351
10858W        W83118   2.125   4.227  11.081
10859W        W83119  14.904  22.761  13.507
10860W        W83120  21.297   7.514   0.048
10861W        W83121  16.114  37.335   0.291
10862W        W83122  30.167   0.392  11.274
10863W        W83123  30.588  12.643  10.315
10864W        W83124   8.644  16.128  13.778
10865W        W83125   7.648   4.702  14.339
10866W        W83126  24.643  21.670   4.414
10867W        W83127  22.781   4.279  14.604
10868W        W83128  16.879   9.491   1.361
10869W        W83129  17.353  27.924  10.603
10870W        W83130  35.355   8.296  13.292
10871W        W83131   2.990  41.009  11.028
10872W        W83132  30.268  12.868  11.106
10873W        W83133  34.030  31.673  14.341
10874W        W83134  42.461  28.151  10.561
10875W        W83135  20.819  32.837  13.944
10876W        W83136   7.703  40.123  13.978
10877W        W83137  20.596   6.268   4.607
10878W        W83138   3.511   1.419  12.086
10879W        W83139  44.292   4.183   3.822
10880W        W83140  39.659  22.069   3.734
10881W        W83141  42.385   0.251   3.559
10882W        W83142   3.756  22.755   1.825
10883W        W83143  37.327  21.293  14.769
10884W        W83144  24.901   3.430   1.004
10885W        W83145   4.761   9.394   0.281
10886W        W83146  21.520  21.967   2.106
10887W        W83147  29.515  20.626   4.088
10888W        W83148  35.119  26.559  13.947
10889W        W83149  34.311   7.315  14.581
10890W        W83150   6.118  24.913   0.778
10891W        W83151  17.025  21.721  10.487
10892W        W83152  12.742  14.298  10.623
10893W        W83153  27.649  12.261  14.395
10894W        W83154  21.187   4.258   4.122
10895W        W83155   3.814   6.035  13.996
10896W        W83156   3.496  34.885   1.818
10897W        W83157   9.918  31.025   1.270
10898W        W83158  25.474  39.301  13.942
10899W        W83159  27.673  37.465  11.563
10900W        W83160  40.990  29.796   1.172
10901W        W83161   3.436  40.209  10.736
10902W        W83162   7.721  25.994   1.498
10903W        W83163  22.886  19.567   4.130
10904W        W83164  24.232   1.503  12.634
10905W        W83165  12.943  11.769  11.219
10906W        W83166  15.054   7.776  10.700
10907W        W83167  18.994  33.577  12.067
10908W        W83168  15.264  34.070  13.151
10909W        W83169  14.669  13.655  10.319
10910W        W83170  13.693  41.775   3.304
10911W        W83171  32.965  24.804   1.360
10912W        W83172  38.286   2.846  12.047
10913W        W83173   6.103  43.266   1.825
10914W        W83174  39.948  38.870  14.303
10915W        W83175  43.501  27.685   2.600
10916W        W83176   3.549  36.977   3.676
10917W        W83177   9.593   6.145   4.269
10918W        W83178  24.371   2.942  13.934
10919W        W83179  33.536  31.061   3.817
10920W        W83180  36.961  28.929  11.690
10921W        W83181   9.685   9.168  12.615
10922W        W83182  26.634  20.083  10.854
10923W        W83183  44.400  34.116  14.940
10924W        W83184  11.607  43.966   1.279
10925W        W83185  17.072  37.287   2.255
10926W        W83186  40.398  40.346  10.714
10927W        W83187   2.716  38.416   2.253
10928W        W83188  12.610  42.478   2.245
10929W        W83189   6.756  13.787   3.205
10930W        W83190  24.518  44.368  14.953
10931W        W83191  39.783  18.152  11.475
10932W        W83192  20.653  40.421   4.746
10933W        W83193  44.837  39.991  10.650
10934W        W83194  23.109  24.985   1.274
10935W        W83195  28.982   0.300   3.656
10936W        W83196  37.668  37.638  13.587
10937W        W83197  25.627   2.815   1.826
10938W        W83198  38.026   0.860   0.518
10939W        W83199  22.783   0.880   1.895
10940W        W83200  24.211  40.332  14.790
10941W        W83201  27.570  12.729  11.450
10942W        W83202   8.392   9.856  11.250
10943W        W83203  10.342  36.335  11.220
10944W        W83204  23.948   5.361   4.581
10945W        W83205  14.232  26.908   2.188
10946W        W83206  13.242  34.978   0.864
10947W        W83207  27.652  34.882  14.024
10948W        W83208  17.670  21.460  10.611
10949W        W83209  34.954  31.573  10.441
10950W        W83210  21.289  41.381   4.510
10951W        W83211   2.497   0.978   2.103
10952W        W83212   6.255  32.305   1.790
10953W        W83213  32.521   1.481  14.978
10954W        W83214   9.617  44.452   5.166
10955W        W83215  33.966  26.142   0.424
10956W        W83216  41.630   0.133  10.581
10957W        W83217  43.942  16.633   3.272
10958W        W83218  29.885  44.828  13.517
10959W        W83219  36.377  27.854  12.769
10960W        W83220   6.185   6.431   0.357
10961W        W83221   1.238  34.111  14.709
10962W        W83222  41.416  21.633  12.913
10963W        W83223  31.161  25.180   0.633
10964W        W83224  34.885   1.694  12.293
10965W        W83225  39.168  40.577  12.583
10966W        W83226  14.005  24.164  11.957
10967W        W83227  22.629  38.824  13.216
10968W        W83228  32.604  21.048  13.410
10969W        W83229  35.409  34.707  13.573
10970W        W83230  25.570  36.382   0.955
10971W        W83231   9.308   2.918   4.148
10972W        W83232  30.661  15.025  11.817
10973W        W83233  40.543  43.629   3.247
10974W        W83234  21.699  23.123   1.364
10975W        W83235  42.015   9.402   2.786
10976W        W83236  17.161  36.498  13.277
10977W        W83237  40.918   5.176   4.560
10978W        W83238  36.978  24.792  13.785
10979W        W83239  14.687  28.517  13.523
10980W        W83240  34.205  14.237  11.969
10981W        W83241   5.858  40.520   0.373
10982W        W83242   8.743  36.782  10.899
10983W        W83243   9.358  31.234   3.833
10984W        W83244  23.380  38.303  11.181
10985W        W83245   2.114   9.053   0.236
10986W        W83246  42.828  25.440  12.073
10987W        W83247  24.997   7.872   1.927
10988W        W83248  26.576  18.885   4.516
10989W        W83249  29.544   0.110  12.681
10990W        W83250  36.073  26.741   4.329
10991W        W83251  12.656   1.989   0.698
10992W        W83252  18.557  34.028   1.980
10993W        W83253   6.919  20.096  14.496
10994W        W83254  33.019  43.778  14.326
10995W        W83255  26.963  17.137  10.675
10996W        W83256   7.178  29.836   4.014
10997W        W83257  24.850  26.150  14.849
10998W        W83258   9.848  19.564   4.143
10999W        W83259  31.614  29.551  13.211
11000W        W83260   7.700  44.487   0.028
11001W        W83261  10.147   9.732  10.623
11002W        W83262  25.627  35.433  12.391
11003W        W83263   8.019  19.181  14.224
11004W        W83264  14.691  26.116   4.227
11005W        W83265  42.417   1.967   0.222
11006W        W83266   0.740  33.963  14.445
11007W        W83267  27.929  17.149  12.123
11008W        W83268  14.212  18.959  11.505
11009W        W83269   1.235  43.385   3.176
11010W        W83270  17.765  27.753  14.492
11011W        W83271  10.819  23.085  13.334
11012W        W83272  25.800   8.876  13.846
11013W        W83273  39.375  25.953   2.225
11014W        W83274   5.601  10.794   1.734
11015W        W83275  21.067  43.501   3.429
11016W        W83276  44.920  37.674   0.213
11017W        W83277  13.645   1.103  13.439
11018W        W83278   5.296  31.040   2.222
11019W        W83279  11.244   4.942   3.195
11020W        W83280  26.079   5.427   3.733
11021W        W83281  40.997   0.684   5.041
11022W        W83282  26.201  20.248   3.155
11023W        W83283  17.190   3.154   2.659
11024W        W83284  14.334  35.025   2.251
11025W        W83285  38.704  36.364  11.298
11026W        W83286  33.503   6.760  14.200
11027W        W83287  33.092   7.282  11.185
11028W        W83288   1.531  29.160  14.394
11029W        W83289  29.170  28.090   2.964
11030W        W83290  22.657  27.560   9.981
11031W        W83291  27.347  39.177  12.943
11032W        W83292  23.764  37.741   2.403
11033W        W83293  24.704  38.797  12.531
11034W        W83294  21.162   3.264   1.390
11035W        W83295  20.832   2.489  11.565
11036W        W83296   8.799  27.999   1.318
11037W        W83297   5.306  38.380  14.003
11038W        W83298  10.928  11.673  11.243
11039W        W83299  43.264  20.550  12.069
11040W        W83300  10.118  10.366  11.509
11041W        W83301  27.214  33.401  12.365
11042W        W83302  13.165  26.089  12.905
11043W        W83303   4.726  35.279  14.782
11044W        W83304   9.897  15.837   4.644
11045W        W83305   2.245  15.055   0.286
11046W        W83306   0.818  44.277   1.339
11047W        W83307  16.051  30.995  14.589
11048W        W83308  39.757  32.577  10.404
11049W        W83309   1.433  30.403   4.962
11050W        W83310  23.624  18.514   4.459
11051W        W83311  12.508  34.601  14.888
11052W        W83312  42.745  22.755  11.468
11053W        W83313  39.436  42.019   3.369
11054W        W83314  12.089  36.920  12.850
11055W        W83315  18.302  12.869   2.821
11056W        W83316   2.865  22.994  11.112
11057W        W83317  34.032  39.537  13.459
11058W        W83318   1.276  34.922   3.944
11059W        W83319  23.937   3.322  10.284
11060W        W83320  13.612  16.190   0.892
11061W        W83321   7.484  25.498   3.222
11062W        W83322   9.122  39.846  12.928
11063W        W83323   2.357  26.974   3.880
11064W        W83324  22.127  29.969   1.170
11065W        W83325   0.035  10.124   2.214
11066W        W83326  24.415  30.642   1.569
11067W        W83327   8.479  22.117  11.045
11068W        W83328   5.683  30.186   0.304
11069W        W83329  17.226   9.859   1.232
11070W        W83330  40.042   5.193   3.289
11071W        W83331  37.704   9.260  14.025
11072W        W83332  34.011  37.269  12.986
11073W        W83333  22.515   0.412   1.410
11074W        W83334  15.538  31.095  14.216
11075W        W83335  24.580   7.751  11.179
11076W        W83336  37.692  37.452  10.112
11077W        W83337   5.853  34.439  12.117
11078W        W83338  42.006  29.957  12.093
11079W        W83339   2.454  22.079  13.122
11080W        W83340   2.178   0.367  13.775
11081W        W83341  13.163  33.852   4.510
11082W        W83342  13.872  22.841  11.917
11083W        W83343  21.692  26.193   5.467
11084W        W83344  17.798  39.318  11.344
11085W        W83345  44.909  30.162  10.635
11086W        W83346   0.955  37.416   2.107
11087W        W83347  28.943  26.692   4.603
11088W        W83348   2.868  23.062  14.673
11089W        W83349  10.121  21.685  13.193
11090W        W83350  37.781  44.724  13.827
11091W        W83351  43.719  16.367   2.895
11092W        W83352  32.196  21.086  13.075
11093W        W83353  23.948  18.379  14.948
11094W        W83354  35.541   1.804   2.602
11095W        W83355  25.335  19.002   0.012
11096W        W83356  41.941  25.500   4.300
11097W        W83357   0.249   9.152   0.517
11098W        W83358  21.080   0.066   4.568
11099W        W83359  40.761  18.297   4.382
11100W        W83360  42.849  20.695  12.371
11101W        W83361   3.467   9.421  13.008
11102W        W83362   1.279   1.843  14.848
11103W        W83363  21.140  23.407   0.934
11104W        W83364  27.519  39.011  11.935
11105W        W83365  31.985   5.651  14.464
11106W        W83366  20.694  32.426  11.459
11107W        W83367  11.640  12.319   2.428
11108W        W83368  43.759  19.748   0.296
11109W        W83369  40.428   1.792   1.395
11110W        W83370  30.649  33.978   3.934
11111W        W83371  31.476   5.356   0.365
11112W        W83372   9.077  39.338   0.234
11113W        W83373   0.438  15.356   0.441
11114W        W83374  15.179  41.882  11.468
11115W        W83375  43.300   7.416  12.536
11116W        W83376  39.291  32.059  13.333
11117W        W83377  25.469  17.124  11.618
11118W        W83378  11.378  43.118  13.823
11119W        W83379  36.295  18.981   3.289
11120W        W83380   6.152  21.048   0.909
11121W        W83381  21.315  34.720   1.147
11122W        W83382  31.521  38.426  14.723
11123W        W83383  43.246  29.451  11.145
11124W        W83384   9.860  42.113   2.031
11125W        W83385  34.318  14.622   5.112
11126W        W83386  27.929  28.952  14.403
11127W        W83387  25.957   6.476  13.156
11128W        W83388  38.211  10.991  13.026
11129W        W83389  16.346   1.428   2.070
11130W        W83390   5.899  13.037  14.439
11131W        W83391  34.042   0.350   4.398
11132W        W83392  21.082   4.521   3.689
11133W        W83393  36.519  37.266  14.327
11134W        W83394   4.710  16.530   4.086
11135W        W83395  31.033  25.194  13.872
11136W        W83396  15.084  11.207   2.638
11137W        W83397  30.175   1.672  13.015
11138W        W83398  44.792  32.892   0.784
11139W        W83399  16.662  12.548  11.034
11140W        W83400  38.427  37.450  10.711
11141W        W83401  43.815   9.870   4.219
11142W        W83402  38.731   3.785   0.711
11143W        W83403   0.797  44.800   1.386
11144W        W83404  22.933  43.003  14.220
11145W        W83405  28.544   4.250  14.043
11146W        W83406  32.581   1.426  13.902
11147W        W83407  20.744  42.929   3.727
11148W        W83408   2.223   8.472  10.698
11149W        W83409  39.432   7.386  14.996
11150W        W83410  12.342   5.724  14.390
11151W        W83411   8.228   0.769   4.554
11152W        W83412  17.007   1.943   1.739
11153W        W83413   7.682  15.221   0.389
11154W        W83414  15.986  39.873   3.052
11155W        W83415  43.548  44.541  13.803
11156W        W83416  26.864  33.396   4.500
11157W        W83417  16.494  24.496   0.851
11158W        W83418  39.066  19.197   3.296
11159W        W83419  39.272  38.131   1.754
11160W        W83420  12.014  33.022  12.016
11161W        W83421  11.795   4.690  13.927
11162W        W83422  21.885  20.105  11.852
11163W        W83423  22.270   3.089  13.868
11164W        W83424  23.567  17.156  11.474
11165W        W83425  42.761  13.492  13.837
11166W        W83426   4.867  36.478  13.926
11167W        W83427  35.340   5.664   2.886
11168W        W83428  36.027   4.135   3.746
11169W        W83429  21.172   0.206  12.466
11170W        W83430  15.183  34.653   3.966
11171W        W83431  26.612  27.020  13.329
11172W        W83432  40.720  30.558   2.725
11173W        W83433  35.411  40.351  12.908
11174W        W83434  32.009  27.664   1.206
11175W        W83435  24.748  16.191   5.012
11176W        W83436  18.483  25.497   4.158
11177W        W83437  17.206  13.281   0.518
11178W        W83438  21.381  25.199   0.219
11179W        W83439  36.875   0.056  12.047
11180W        W83440   6.907  14.946   4.572
11181W        W83441  38.817  40.506   4.420
11182W        W83442  41.892   6.732   2.865
11183W        W83443   7.345  14.067   3.866
11184W        W83444   0.315  43.409  12.351
11185W        W83445   7.188  13.111  11.098
11186W        W83446  42.846  24.666   4.327
11187W        W83447  35.510  17.328  12.045
11188W        W83448  28.643  21.393   3.803
11189W        W83449  12.072  39.260   2.732
11190W        W83450  24.492  29.639   3.181
11191W        W83451  26.268  12.158   2.343
11192W        W83452  20.195  23.556   2.188
11193W        W83453  12.889   1.019   2.838
11194W        W83454  24.285  28.020   4.114
11195W        W83455  43.246  13.178  11.114
11196W        W83456  16.242  14.118   1.364
11197W        W83457   1.309  10.523   4.741
11198W        W83458  14.917  18.181   9.835
11199W        W83459  38.851  17.816   3.681
11200W        W83460  36.371  19.496   3.260
11201W        W83461  16.799  29.392  14.393
11202W        W83462   4.850  13.360  13.676
11203W        W83463  26.550  34.136  13.673
11204W        W83464   5.456  26.522  10.989
11205W        W83465  13.245  10.280   1.399
11206W        W83466  38.897  37.393   0.000
11207W        W83467  44.826  17.654   1.761
11208W        W83468  17.137  43.472   0.350
11209W        W83469  36.787  43.076   3.267
11210W        W83470  32.085  36.693  11.527
11211W        W83471   8.843  24.578   3.321
11212W        W83472  43.936  35.933  13.075
11213W        W83473  29.032  17.413   3.217
11214W        W83474   4.981  29.442  11.156
11215W        W83475  13.010  13.838   4.558
11216W        W83476  32.803  36.036  12.112
11217W        W83477  36.557   0.325   3.370
11218W        W83478  43.451   5.478   3.704
11219W        W83479   1.311  17.691   3.194
11220W        W83480  33.131  20.170  11.695
11221W        W83481   7.643  34.118  13.826
11222W        W83482  12.324  22.122   4.691
11223W        W83483   5.350  17.221  12.278
11224W        W83484   2.934  33.111  14.825
11225W        W83485  20.487  44.986  10.842
11226W        W83486   2.034  36.044  12.049
11227W        W83487  32.125  29.485  10.676
11228W        W83488  32.900  33.308  13.988
11229W        W83489  39.016  38.554  14.922
11230W        W83490  22.968  37.580  13.515
11231W        W83491   8.184   5.637   0.520
11232W        W83492  34.270  39.382   3.283
11233W        W83493  32.498  27.178   2.344
11234W        W83494  25.241  43.894   4.609
11235W        W83495  28.885   8.626   4.198
11236W        W83496  12.184  14.187   0.022
11237W        W83497  40.755  44.796  12.059
11238W        W83498   7.480   9.671   4.541
11239W        W83499  30.252  40.275   4.184
11240W        W83500  16.689  11.866   3.172
11241W        W83501  38.000  12.556   3.257
11242W        W83502  35.331  27.079  11.117
11243W        W83503   5.369  23.943  13.570
11244W        W83504  37.431  25.482   3.669
11245W        W83505   2.516  37.571  10.341
11246W        W83506  43.674  29.679  10.952
11247W        W83507   3.215  24.254   1.275
11248W        W83508  20.522   6.143   1.908
11249W        W83509  43.701  32.125   1.806
11250W        W83510  14.991  28.680   9.930
11251W        W83511  13.878  30.610  13.571
11252W        W83512  35.598  13.428  13.764
11253W        W83513  20.798  26.404  10.645
11254W        W83514  35.139  28.475   2.887
11255W        W83515  42.326   1.235   3.116
11256W        W83516  36.852   7.817   4.493
11257W        W83517  16.421  29.903   0.913
11258W        W83518   2.411  12.458   3.601
11259W        W83519  14.256   9.335  10.388
11260W        W83520  25.529  33.726   1.026
11261W        W83521   7.674  25.657   1.894
11262W        W83522   2.491  41.827  11.101
11263W        W83523  40.044   0.053   1.686
11264W        W83524  27.942  10.648   4.654
11265W        W83525  26.204  32.740  11.208
11266W        W83526  29.096  23.518  11.607
11267W        W83527  17.128   8.886  10.968
11268W        W83528  21.541  40.327  14.761
11269W        W83529   7.733  20.232   4.048
11270W        W83530  17.174   3.308   2.108
11271W        W83531  29.777  26.375  10.399
11272W        W83532  17.994  16.600   2.791
11273W        W83533  18.699   0.292   2.958
11274W        W83534  27.066  32.382   1.324
11275W        W83535  28.462  26.809  12.413
11276W        W83536  23.746  17.900  11.143
11277W        W83537   0.653  35.504   0.121
11278W        W83538   1.726  26.603   2.231
11279W        W83539   4.230  16.606   4.278
11280W        W83540  31.380  10.910  14.864
11281W        W83541  20.945  40.491   3.130
11282W        W83542  44.296  41.555   0.021
11283W        W83543  13.114  21.278  13.943
11284W        W83544  35.604  41.515   4.592
11285W        W83545  12.910   3.007  11.071
11286W        W83546  44.472   5.163   2.942
11287W        W83547  37.891  35.308   4.170
11288W        W83548   2.083  30.161  13.599
11289W        W83549  43.599  13.685   1.657
11290W        W83550   4.762  18.373  13.856
11291W        W83551  29.137   8.075   3.277
11292W        W83552  15.289   8.268  10.697
11293W        W83553  13.307  41.150   4.235
11294W        W83554  24.185  13.374  13.876
11295W        W83555  29.661  20.715  14.808
11296W        W83556  43.326  26.601   1.491
11297W        W83557  34.603  30.632   2.784
11298W        W83558  20.298  27.813  10.636
11299W        W83559  19.809   6.795  14.872
11300W        W83560  21.959  27.067  14.007
11301W        W83561  43.260  16.091  12.563
11302W        W83562  42.087   6.426  11.509
11303W        W83563  29.169   5.327   4.177
11304W        W83564  31.916  23.036   3.330
11305W        W83565  13.180   0.485  13.952
11306W        W83566  33.049  20.983   5.032
11307W        W83567   0.957  29.474   0.849
11308W        W83568  13.567   7.970   4.279
11309W        W83569  25.420  10.705  13.392
11310W        W83570  10.571  15.684  12.584
11311W        W83571  17.823   5.856  11.958
11312W        W83572  32.681  25.953   1.025
11313W        W83573  22.519  25.089  13.154
11314W        W83574  13.073  11.794  14.344
11315W        W83575  28.592  17.684  13.456
11316W        W83576   4.163  20.288   3.661
11317W        W83577   6.479   2.750   1.622
11318W        W83578  15.115  26.606   4.141
11319W        W83579  26.434  23.596  14.035
11320W        W83580  18.986  36.812   0.819
11321W        W83581  28.396   5.354   1.993
11322W        W83582   1.414  34.328   0.666
11323W        W83583  43.785  17.090  14.727
11324W        W83584   5.417  31.634   4.938
11325W        W83585  34.180   6.208   3.247
11326W        W83586  14.638  23.711  14.356
11327W        W83587  33.314  38.864  11.052
11328W        W83588  33.508  28.220  10.840
11329W        W83589  11.578  35.357   4.329
11330W        W83590   0.770  31.643  12.141
11331W        W83591  40.932  17.169  11.044
11332W        W83592  38.531  11.909   0.274
11333W        W83593   8.678  27.922  11.218
11334W        W83594  29.682  36.514   1.425
11335W        W83595  12.889  33.645   4.115
11336W        W83596  43.466   5.529   0.337
11337W        W83597  36.995   3.757   3.655
11338W        W83598  22.637  38.919   0.448
11339W        W83599  36.547  26.427  13.821
11340W        W83600   5.897  37.333   3.768
11341W        W83601  31.715  20.934   3.248
11342W        W83602  12.981  11.157  10.959
11343W        W83603  35.068  23.075   0.905
11344W        W83604  28.647  35.491   3.773
11345W        W83605  10.157  39.767  13.001
11346W        W83606  34.065  33.860  10.719
11347W        W83607  43.848  29.631  11.453
11348W        W83608  15.787  44.401   5.225
11349W        W83609  12.380   7.395   2.870
11350W        W83610  37.399  23.641  14.011
11351W        W83611  28.097  29.923   9.838
11352W        W83612   9.287  29.856  11.895
11353W        W83613  13.850  34.905  10.475
11354W        W83614  16.830  27.140   1.405
11355W        W83615   7.418   6.688   2.863
11356W        W83616  32.903   6.412   4.698
11357W        W83617  40.523  36.660  10.525
11358W        W83618  19.944  28.275   4.992
11359W        W83619  30.622   2.727  13.347
11360W        W83620  28.951  11.195   4.337
11361W        W83621  28.433  12.626   3.430
11362W        W83622  44.386   1.238  14.825
11363W        W83623  33.591  12.774   5.081
11364W        W83624  34.653  15.676  11.930
11365W        W83625  37.059  42.576   0.808
11366W        W83626  40.256   5.854   3.189
11367W        W83627  10.766  34.490   0.203
11368W        W83628   5.726  30.038   2.693
11369W        W83629  21.250   3.875  11.202
11370W        W83630  37.426  31.435   0.489
11371W        W83631  24.335   0.044  13.627
11372W        W83632   6.947   4.749  13.369
11373W        W83633  26.991  33.681   0.634
11374W        W83634  14.077  10.448   2.294
11375W        W83635  32.918  12.581   0.370
11376W        W83636  38.173  35.934   5.115
11377W        W83637  15.395  17.906  10.152
11378W        W83638  43.038  25.573   0.396
11379W        W83639  29.685   4.739   3.053
11380W        W83640  11.658  22.766  13.819
11381W        W83641  12.642  10.478  12.594
11382W        W83642  40.396  37.561   0.802
11383W        W83643  20.196  36.020   2.214
11384W        W83644   5.144   8.713  14.967
11385W        W83645   0.670   1.004   1.418
11386W        W83646  30.206   0.394  11.781
11387W        W83647   7.353  35.104   3.837
11388W        W83648  10.369  42.315  11.120
11389W        W83649  21.602  42.026  11.861
11390W        W83650  38.913   4.646   0.938
11391W        W83651  11.792  15.934  11.161
11392W        W83652  28.607   7.470   3.388
11393W        W83653  17.808   6.321  11.711
11394W        W83654   5.881   6.970   0.853
11395W        W83655  27.827  24.782   2.687
11396W        W83656  36.079  34.463   3.179
11397W        W83657  15.999  27.933  11.945
11398W        W83658  15.169  15.222  14.546
11399W        W83659  27.501   9.934  14.787
11400W        W83660  22.124   1.492  13.974
11401W        W83661  36.030  26.482   1.748
11402W        W83662  11.258   3.628   3.778
11403W        W83663  29.166  37.062   3.660
11404W        W83664  23.562  31.492  13.343
11405W        W83665  33.171  37.932  13.400
11406W        W83666  32.096  41.009  13.822
11407W        W83667  13.203  18.488   1.184
11408W        W83668  35.768  28.540  14.762
11409W        W83669  20.328  27.095   3.618
11410W        W83670  11.162   0.369   1.861
11411W        W83671  43.169  39.899   2.684
11412W        W83672   8.120  12.113  13.819
11413W        W83673  25.732   7.668   0.411
11414W        W83674  20.736  18.826   1.416
11415W        W83675  19.565   2.480  13.507
11416W        W83676  18.197   6.535  12.665
11417W        W83677  40.636  29.768   4.741
11418W        W83678  32.586  43.274  12.736
11419W        W83679  33.517  35.513   2.048
11420W        W83680   1.898   3.487   5.017
11421W        W83681  33.535   6.352   1.297
11422W        W83682  26.026  33.847  11.988
11423W        W83683  37.786  20.637  12.487
11424W        W83684  38.558  10.466   4.582
11425W        W83685  15.172  44.161   4.567
11426W        W83686  28.473  11.119  13.954
11427W        W83687  35.109  11.774  10.366
11428W        W83688  38.877  14.434   2.315
11429W        W83689   7.766  24.519  14.714
11430W        W83690  42.387  23.647  11.307
11431W        W83691  30.640  17.019  12.600
11432W        W83692  40.713  44.436   1.322
11433W        W83693  38.875  28.836   0.425
11434W        W83694  12.737   9.636  11.064
11435W        W83695  23.755  44.894  10.671
11436W        W83696  13.102  23.608   4.555
11437W        W83697  31.688  33.121   3.444
11438W        W83698  22.452   9.193   3.323
11439W        W83699   0.010   9.798  11.588
11440W        W83700  37.929   3.367  11.559
11441W        W83701  14.102  23.527  12.562
11442W        W83702  24.643   9.874  10.756
11443W        W83703  11.634  43.505   3.176
11444W        W83704  34.756   6.933   2.889
11445W        W83705   1.293  36.726   4.086
11446W        W83706  12.228   6.775  12.675
11447W        W83707  44.655  37.941  13.424
11448W        W83708   0.954   9.333   3.861
11449W        W83709  33.481  20.606   4.297
11450W        W83710   5.714   1.548   1.743
11451W        W83711   7.171  23.196   4.145
11452W        W83712   2.764   5.650   1.643
11453W        W83713  27.603  15.966  13.067
11454W        W83714  22.116   5.755   4.544
11455W        W83715  38.829   6.227   4.979
11456W        W83716   3.896  23.188   0.899
11457W        W83717  12.766   0.820  11.718
11458W        W83718  32.139  31.821   2.648
11459W        W83719  35.033   6.357  12.542
11460W        W83720  37.311  28.348   4.491
11461W        W83721  31.841  41.457   5.051
11462W        W83722  20.726  10.228   2.826
11463W        W83723  15.523  36.201  11.168
11464W        W83724  24.639  30.450  13.058
11465W        W83725  38.737  26.102  10.998
11466W        W83726  35.697   1.313  14.501
11467W        W83727  29.181  17.376   2.393
11468W        W83728  19.116   8.223  10.686
11469W        W83729   2.635   4.290   2.520
11470W        W83730   9.199  25.033   2.732
11471W        W83731  32.908   7.407  14.467
11472W        W83732  17.137  22.550  14.765
11473W        W83733  42.822  36.060  12.031
11474W        W83734  26.035  15.213  13.874
11475W        W83735  15.286  38.888  12.457
11476W        W83736  16.022   0.347  13.039
11477W        W83737  31.047   0.799  14.244
11478W        W83738  18.567  13.876   3.729
11479W        W83739  38.279  25.242   5.133
11480W        W83740  38.144   4.072  13.100
11481W        W83741  43.004  15.114  11.875
11482W        W83742   1.906   6.658  14.800
11483W        W83743   9.825  36.501  12.536
11484W        W83744   7.173  29.449   4.346
11485W        W83745  19.604   6.889   2.204
11486W        W83746   8.438  43.675  11.050
11487W        W83747  24.023  26.433  13.472
11488W        W83748  20.965  40.754  10.771
11489W        W83749   8.631  25.579   0.470
11490W        W83750  30.800  41.430   4.190
11491W        W83751   8.198  26.310   3.189
11492W        W83752   8.229  32.101  14.142
11493W        W83753  21.510  36.444  14.290
11494W        W83754  27.501  39.999   0.988
11495W        W83755   9.892  35.031  13.988
11496W        W83756   1.478  42.749  12.592
11497W        W83757  34.877  13.938   2.632
11498W        W83758  20.590  33.999  14.506
11499W        W83759  30.262  18.242  13.116
11500W        W83760  43.040  35.112  14.960
11501W        W83761  36.669   9.668  11.565
11502W        W83762  21.302  40.526  11.093
11503W        W83763  41.075  31.598  12.433
11504W        W83764  17.732   7.870   4.103
11505W        W83765  31.904  26.543   0.284
11506W        W83766  16.134   3.831   4.840
11507W        W83767  32.434  24.650   1.962
11508W        W83768  29.698   1.813   5.100
11509W        W83769  38.938  23.670  14.881
11510W        W83770   0.768  21.180  14.951
11511W        W83771  29.699  41.410  14.999
11512W        W83772  14.080   2.744  12.013
11513W        W83773  12.861  34.880   1.290
11514W        W83774  24.350  14.154  11.772
11515W        W83775  38.136  20.742   3.721
11516W        W83776   5.867  21.523   2.615
11517W        W83777  11.842  29.475   3.222
11518W        W83778  44.394  21.041  14.809
11519W        W83779  42.924  36.862   4.621
11520W        W83780  24.070   6.678  10.692
11521W        W83781  30.568  42.322  10.727
11522W        W83782   6.890  34.126  12.679
11523W        W83783  41.607  38.126  12.771
11524W        W83784  37.944  29.842   4.103
11525W        W83785  15.090  27.524   2.860
11526W        W83786   4.954  17.166  11.003
11527W        W83787  12.623   9.162  12.807
11528W        W83788  32.887  19.848   2.965
11529W        W83789  30.478  44.289   1.982
11530W        W83790  17.025  22.052  14.933
11531W        W83791  17.509  43.536   2.518
11532W        W83792  25.688  32.976  12.391
11533W        W83793  21.068   9.747   4.478
11534W        W83794  21.475   8.202  13.127
11535W        W83795  44.876  30.816  12.458
11536W        W83796  17.993  13.792  12.884
11537W        W83797   6.643  15.791  14.763
11538W        W83798   8.741  24.885   3.739
11539W        W83799  25.212  21.700   3.616
11540W        W83800  24.641  42.550   0.431
11541W        W83801  35.954  39.734  11.931
11542W        W83802  18.155  34.466   3.568
11543W        W83803  16.737  26.618  14.436
11544W        W83804   3.799   2.563  11.592
11545W        W83805   7.968   6.159   1.300
11546W        W83806  13.161   9.367  11.159
11547W        W83807  12.308  18.578  11.534
11548W        W83808  32.996  25.027   0.460
11549W        W83809  35.776   2.176   2.882
11550W        W83810  12.226  40.860   3.562
11551W        W83811   5.886  15.042   0.299
11552W        W83812  28.160   7.974  13.683
11553W        W83813  12.697  17.043   3.165
11554W        W83814  36.085  41.756  14.926
11555W        W83815  16.563   4.935   9.989
11556W        W83816  15.562   6.626   2.105
11557W        W83817  42.772  44.810  14.178
11558W        W83818  25.716  42.442   2.343
11559W        W83819  19.212   8.099   3.151
11560W        W83820  22.551   2.928  14.500
11561W        W83821  35.588  37.783  12.793
11562W        W83822   2.685  36.979   1.339
11563W        W83823  18.631  43.886   3.137
11564W        W83824  42.308  38.931   3.496
11565W        W83825  26.623  21.817  10.611
11566W        W83826  11.350  33.127   1.111
11567W        W83827  42.088  37.917  13.023
11568W        W83828  34.882  31.663   2.272
11569W        W83829  33.932  22.121   1.172
11570W        W83830  13.896  19.340   2.783
11571W        W83831  38.917  10.281  12.759
11572W        W83832  34.321  24.542  14.545
11573W        W83833  30.884  16.624  11.249
11574W        W83834  23.444  44.481  10.514
11575W        W83835  39.430  29.930  12.538
11576W        W83836   6.348  13.138   2.686
11577W        W83837  29.943  38.095  10.902
11578W        W83838  14.133  40.654   3.852
11579W        W83839  28.084  31.106  13.940
11580W        W83840  25.221  12.652  14.370
11581W        W83841  27.531  39.276   4.281
11582W        W83842  40.183  36.490   2.313
11583W        W83843  31.492  44.397  14.883
11584W        W83844  12.396   9.392   1.149
11585W        W83845  21.610  25.129   2.570
11586W        W83846  24.123   1.323  12.167
11587W        W83847  44.778  44.257   3.793
11588W        W83848  38.591  32.859  12.044
11589W        W83849  12.352  29.512  12.399
11590W        W83850  14.583  15.703   2.231
11591W        W83851  42.789  14.512   4.258
11592W        W83852  43.811   7.200  10.950
11593W        W83853   2.914   8.710  12.157
11594W        W83854  13.812  20.080  12.958
11595W        W83855   8.662   4.509  11.384
11596W        W83856  16.254  32.991   1.629
11597W        W83857  35.220  39.062   3.097
11598W        W83858  14.700  25.616   3.386
11599W        W83859   3.375  38.363  13.350
11600W        W83860  36.639  13.307  11.369
11601W        W83861   5.150  25.418   3.594
11602W        W83862  14.582  34.632   2.603
11603W        W83863  37.817  14.266   0.910
11604W        W83864   2.184  18.216  14.746
11605W        W83865   4.062  38.020   1.435
11606W        W83866  21.596  20.103  12.252
11607W        W83867  39.063  39.865   0.348
11608W        W83868  39.046  20.023  11.463
11609W        W83869  18.332  13.590   4.127
11610W        W83870   0.401  17.933  11.879
11611W        W83871  16.530  31.912   3.614
11612W        W83872  26.947   2.275  14.516
11613W        W83873  14.847  27.136  11.941
11614W        W83874  13.854   1.204   3.702
11615W        W83875   9.864   8.718  12.415
11616W        W83876  10.175   8.413   1.742
11617W        W83877  27.122   6.456  10.840
11618W        W83878  32.962  37.412  14.955
11619W        W83879  35.639   6.194   1.788
11620W        W83880  31.143  21.275  14.024
11621W        W83881   3.143   6.777  12.132
11622W        W83882  37.928  31.121   1.423
11623W        W83883  37.312  27.436  11.807
11624W        W83884  15.253  13.345  10.337
11625W        W83885   2.318  13.563  14.139
11626W        W83886  36.835  33.435   1.297
11627W        W83887  40.595  17.808  13.893
11628W        W83888   2.323  17.405  14.251
11629W        W83889  22.860  16.710   2.390
11630W        W83890   3.956  17.126  12.448
11631W        W83891  15.359  24.483   3.603
11632W        W83892   9.223  30.589   4.617
11633W        W83893  29.479   5.748  13.896
11634W        W83894  14.732   7.365   4.681
11635W        W83895  16.964  27.565   4.642
11636W        W83896  23.591  19.633  10.527
11637W        W83897  19.034  42.565  14.904
11638W        W83898  34.651   8.977  14.405
11639W        W83899  34.925   4.182  13.837
11640W        W83900   2.945  42.272  11.551
11641W        W83901  43.397  34.646  12.991
11642W        W83902  35.074   6.371  13.874
11643W        W83903  33.349  29.592  12.125
11644W        W83904  13.912  18.813  14.355
11645W        W83905   7.334  26.464   2.362
11646W        W83906   6.367   8.627  14.871
11647W        W83907  36.509  30.442  11.981
11648W        W83908  41.327  31.624  14.851
11649W        W83909  29.087  24.339  13.355
11650W        W83910  12.325  33.649   0.020
11651W        W83911  41.709  10.588   4.364
11652W        W83912  25.949  44.821  11.621
11653W        W83913  38.897  44.328   1.949
11654W        W83914  25.463  25.660  10.669
11655W        W83915  26.890  19.705   3.891
11656W        W83916  15.045  42.834   2.595
11657W        W83917   2.724  26.944   2.866
11658W        W83918  16.621   2.550  12.104
11659W        W83919  16.715  19.285  13.406
11660W        W83920   4.176  23.383  13.680
11661W        W83921  24.649  17.100  10.423
11662W        W83922  31.232   7.397  12.918
11663W        W83923  15.198  20.787  12.124
11664W        W83924  22.226  37.358  10.620
11665W        W83925   1.461  22.180   0.908
11666W        W83926  20.755  39.624  11.181
11667W        W83927   6.305   3.298  11.083
11668W        W83928  25.928  35.439   2.072
11669W        W83929  12.870  21.976   2.966
11670W        W83930  13.589  10.254   1.782
11671W        W83931   3.361  11.719   3.119
11672W        W83932   9.168   7.349  14.411
11673W        W83933  37.488   4.241   1.750
11674W        W83934  34.098  31.601   0.774
11675W        W83935  34.472  35.963  11.961
11676W        W83936   3.417  28.255   4.556
11677W        W83937  28.099  19.785   0.864
11678W        W83938  35.391   6.642   3.829
11679W        W83939  30.229  21.092   1.963
11680W        W83940   4.251   8.207   2.825
11681W        W83941  38.338   8.885   3.307
11682W        W83942  27.231  43.922   0.452
11683W        W83943  23.034  10.428  10.389
11684W        W83944  41.299  27.925   2.876
11685W        W83945   7.079  10.621   1.079
11686W        W83946   5.625  14.804  10.617
11687W        W83947  31.464  27.575  14.885
11688W        W83948  14.174  37.289   4.189
11689W        W83949  40.879  17.856   4.632
11690W        W83950  40.270  28.670  12.461
11691W        W83951  18.619   3.923   0.291
11692W        W83952  16.409   1.219   4.397
11693W        W83953   5.660  16.092   0.939
11694W        W83954  27.345  40.730  14.294
11695W        W83955  11.401  40.420   1.266
11696W        W83956  31.663  10.014   0.734
11697W        W83957  32.075  41.905  14.330
11698W        W83958  26.229  30.617  12.910
11699W        W83959  35.410  33.809  14.882
11700W        W83960   4.252  30.095   2.893
11701W        W83961   6.701  43.493  14.761
11702W        W83962  10.879  18.435   4.140
11703W        W83963  24.268  20.053   3.207
11704W        W83964   2.881  28.207   3.854
11705W        W83965  19.092   6.236  12.435
11706W        W83966   2.785  18.184   2.856
11707W        W83967  12.234   1.697   0.800
11708W        W83968   7.698  18.185   3.278
11709W        W83969  36.385   9.683   2.767
11710W        W83970  32.336   6.705   2.350
11711W        W83971  34.917  43.716  11.634
11712W        W83972  28.931  13.141   1.107
11713W        W83973  16.578   4.765   0.010
11714W        W83974  18.105  38.147   2.686
11715W        W83975  33.984  24.435  13.549
11716W        W83976   7.710  29.314   5.042
11717W        W83977  35.568   4.829  12.281
11718W        W83978  29.384  32.678  11.549
11719W        W83979   6.159  11.861   3.237
11720W        W83980  40.504  14.475  13.552
11721W        W83981   0.458  22.667  13.965
11722W        W83982  29.161  37.611  14.734
11723W        W83983   9.927  27.224  12.424
11724W        W83984  25.095  41.517   5.282
11725W        W83985  41.013  12.643   0.917
11726W        W83986  28.025   3.797  12.945
11727W        W83987  18.072  11.434  13.863
11728W        W83988  38.034  10.579  14.774
11729W        W83989  18.929  12.082   4.578
11730W        W83990  23.033   3.353   0.960
11731W        W83991  22.079  41.826   2.130
11732W        W83992   2.549   3.505   1.311
11733W        W83993   8.178   2.973   3.240
11734W        W83994   0.553  28.054   0.243
11735W        W83995  42.030  13.689   4.620
11736W        W83996   6.453   9.833   2.346
11737W        W83997  19.951  22.052   0.893
11738W        W83998  33.826   9.146   4.309
11739W        W83999   8.671  42.773   0.413
11740W        W84000   7.745   2.881  14.297
11741W        W84001  42.219   1.968  13.653
11742W        W84002  16.244  33.628  12.425
11743W        W84003   5.294  21.825  12.501
11744W        W84004  27.117  27.015  13.221
11745W        W84005  17.141  15.910   1.006
11746W        W84006   6.807  40.460  14.289
11747W        W84007  34.970   3.293   0.798
11748W        W84008  20.684  24.201   2.015
11749W        W84009  13.287  43.113  12.111
11750W        W84010  17.121  19.101   0.332
11751W        W84011  28.423  32.474  11.705
11752W        W84012   3.259   8.106   3.860
11753W        W84013   2.728  15.081  12.393
11754W        W84014  44.965  16.245  10.909
11755W        W84015  30.973  13.124  10.874
11756W        W84016  35.036  42.490   0.471
11757W        W84017   9.756  33.047   1.702
11758W        W84018  36.511   8.732   2.682
11759W        W84019  36.652  35.599   4.026
11760W        W84020  28.087  27.683  11.177
11761W        W84021  10.631  11.465  12.924
11762W        W84022  38.768   3.037  12.000
11763W        W84023  13.197   1.499  13.987
11764W        W84024   6.270  28.123  11.486
11765W        W84025  40.480  34.984   3.616
11766W        W84026   5.167  44.117   4.602
11767W        W84027  21.680   8.213  14.378
11768W        W84028  13.768  12.861  12.440
11769W        W84029  21.069  10.153  12.178
11770W        W84030  16.165  27.415  10.921
11771W        W84031   3.270  30.108  11.229
11772W        W84032  27.838   3.092  11.489
11773W        W84033  24.565  30.670   2.444
11774W        W84034  22.443  20.817   1.420
11775W        W84035  10.390  32.376   4.200
11776W        W84036  34.868  27.636  14.458
11777W        W84037  28.260  29.550  13.330
11778W        W84038  36.523   3.879  14.384
11779W        W84039  26.024  39.813   2.722
11780W        W84040  44.095  11.752   1.180
11781W        W84041  36.446  44.739   4.295
11782W        W84042   2.833  19.083  14.154
11783W        W84043  44.923  10.990  13.914
11784W        W84044  30.443   2.819   0.193
11785W        W84045  44.330   8.410  11.408
11786W        W84046   6.769  19.221   2.278
11787W        W84047  12.153  25.736   3.314
11788W        W84048   4.187   7.733  13.328
11789W        W84049  19.227  38.078   1.419
11790W        W84050   6.297  42.920  10.807
11791W        W84051   4.842  10.257   1.904
11792W        W84052  24.159  24.898   0.769
11793W        W84053   1.810  38.452  14.418
11794W        W84054  35.973   2.327   1.036
11795W        W84055  41.041  32.772  10.542
11796W        W84056  28.213   4.003   0.009
11797W        W84057   1.950  19.399  11.137
11798W        W84058  12.812  32.237   0.127
11799W        W84059  14.443  22.196  12.894
11800W        W84060  19.162   4.628  10.615
11801W        W84061  16.694  44.774   0.778
11802W        W84062  29.916  12.829   2.725
11803W        W84063  14.789   0.992   3.705
11804W        W84064  38.184  42.572  13.239
11805W        W84065   1.403   4.867   3.897
11806W        W84066   3.423  35.169  11.504
11807W        W84067  10.171  40.320   1.402
11808W        W84068  13.279  18.881  11.477
11809W        W84069  15.388   5.885  14.831
11810W        W84070  41.382  34.639   2.325
11811W        W84071  14.133  37.162   4.719
11812W        W84072  14.126  19.118   0.292
11813W        W84073  17.534   2.053   3.185
11814W        W84074  24.142  23.140  10.811
11815W        W84075  24.508  31.940  10.955
11816W        W84076   6.285  29.368   3.268
11817W        W84077  35.858  16.335  11.417
11818W        W84078  19.732  16.311   2.710
11819W        W84079  11.754   5.669   0.172
11820W        W84080  24.260  42.367   1.366
11821W        W84081  23.699   3.208   0.388
11822W        W84082  21.424  42.560  12.628
11823W        W84083  24.434  15.870   0.030
11824W        W84084   2.362  22.671  11.926
11825W        W84085  26.186   4.251  10.184
11826W        W84086  26.551  36.911  11.650
11827W        W84087  15.737  14.345   2.760
11828W        W84088  28.316  23.776   4.428
11829W        W84089  19.023   3.621   0.450
11830W        W84090  29.900  12.192   0.878
11831W        W84091  17.022  28.049  11.963
11832W        W84092  14.106  28.402   4.540
11833W        W84093  30.578  18.216  13.522
11834W        W84094   7.332   2.412   1.316
11835W        W84095  21.240   6.411   2.335
11836W        W84096   1.983   9.283   4.725
11837W        W84097   1.750  30.474  14.688
11838W        W84098   1.653  39.882  14.396
11839W        W84099  38.606   5.902  13.842
11840W        W84100  42.796  22.172  10.753
11841W        W84101  34.311  12.351   3.860
11842W        W84102  19.143  12.739  13.381
11843W        W84103   9.926  26.941   4.955
11844W        W84104  27.078  29.686  10.804
11845W        W84105  24.954  30.748   4.159
11846W        W84106   6.430   6.757   1.671
11847W        W84107   3.784  17.830   4.799
11848W        W84108  29.982  15.813  14.136
11849W        W84109  18.576   8.916   4.986
11850W        W84110  37.007   7.020  10.908
11851W        W84111  41.721   4.395   3.486
11852W        W84112  33.179  40.938   0.363
11853W        W84113   1.220  34.616  10.670
11854W        W84114  28.112  26.623   3.166
11855W        W84115   7.897  38.917   4.794
11856W        W84116  29.545  16.293  11.623
11857W        W84117  35.322  13.245   2.659
11858W        W84118  34.984  12.933  14.530
11859W        W84119  28.178  16.753  14.987
11860W        W84120   1.672  28.257  13.164
11861W        W84121   2.377   3.130   0.434
11862W        W84122   8.088  17.583  14.743
11863W        W84123   8.307  42.218   2.622
11864W        W84124  34.866  38.354   1.771
11865W        W84125  14.716   1.296   3.296
11866W        W84126  30.104   4.994   1.376
11867W        W84127   5.473  26.004   0.228
11868W        W84128  35.878  44.403   1.935
11869W        W84129  26.257   5.469  13.495
11870W        W84130  30.390  14.556   1.874
11871W        W84131  43.365  41.772   2.339
11872W        W84132  34.540   9.476  11.417
11873W        W84133  25.022  31.437  13.434
11874W        W84134   3.715   3.203  14.418
11875W        W84135   9.966  20.587   1.305
11876W        W84136  37.771  14.567  12.956
11877W        W84137  35.058  12.228  12.464
11878W        W84138  25.951  17.795  11.028
11879W        W84139  35.373  38.644   4.527
11880W        W84140  38.551  31.691   1.835
11881W        W84141   0.385  34.912   3.886
11882W        W84142  32.616  19.598   0.189
11883W        W84143   5.898  38.273   2.822
11884W        W84144   8.229  35.948   3.192
11885W        W84145  16.071  30.081  11.627
11886W        W84146   8.341  35.416   1.400
11887W        W84147  18.841  32.859   3.328
11888W        W84148   0.330  40.534   0.351
11889W        W84149   0.378  11.204   3.292
11890W        W84150   0.681  22.910   1.324
11891W        W84151  16.946   0.451   0.458
11892W        W84152   8.087  44.130   1.791
11893W        W84153   0.570   2.453  13.011
11894W        W84154  12.238   4.835   1.898
11895W        W84155   9.245  42.367   2.399
11896W        W84156  32.360   9.741   1.337
11897W        W84157  38.397  41.087   5.049
11898W        W84158   4.012  40.552   2.387
11899W        W84159  29.603   2.409   0.369
11900W        W84160  21.536  13.626  14.929
11901W        W84161  13.030  19.756   3.624
11902W        W84162  40.785  30.394  14.033
11903W        W84163   3.206  10.356   2.789
11904W        W84164  40.408  39.400   1.320
11905W        W84165  19.810  27.178  12.937
11906W        W84166  43.287  43.278   3.754
11907W        W84167   9.604  22.087  14.844
11908W        W84168  39.381  17.673  13.191
11909W        W84169  43.872  15.087   0.798
11910W        W84170  17.265  44.285  10.604
11911W        W84171  31.491  42.085   0.259
11912W        W84172   2.367  22.907  10.045
11913W        W84173  18.107  24.545   2.839
11914W        W84174  22.473  44.351   2.275
11915W        W84175  20.964  13.302   4.538
11916W        W84176   1.755  18.710   4.094
11917W        W84177  12.270  28.082  12.521
11918W        W84178  37.050  13.935   2.602
11919W        W84179  31.215  14.242  11.873
11920W        W84180   4.504  23.950  11.400
11921W        W84181   4.833  19.029   2.853
11922W        W84182   7.231  27.099  13.413
11923W        W84183  20.051  37.848  10.500
11924W        W84184   2.938   7.942   4.937
11925W        W84185  31.487  27.063  14.076
11926W        W84186   2.899   6.914  13.873
11927W        W84187  13.224  25.604  12.681
11928W        W84188  29.236  44.260  14.545
11929W        W84189  14.759  15.692   3.651
11930W        W84190  18.350  31.634  13.023
11931W        W84191  43.468   5.210   0.769
11932W        W84192  44.238  27.450  11.640
11933W        W84193  32.118  30.199  11.943
11934W        W84194  22.023  41.504   0.829
11935W        W84195   4.102  42.795   3.407
11936W        W84196  34.868   5.829  12.959
11937W        W84197  37.386   3.077   2.761
11938W        W84198   6.326  37.570  12.200
11939W        W84199  19.574  28.981  13.238
11940W        W84200  36.433  30.833  13.044
11941W        W84201   9.406  25.713  11.696
11942W        W84202  32.932   1.015   3.208
11943W        W84203  44.717  31.878  12.430
11944W        W84204  39.079  36.143   2.859
11945W        W84205  24.442  31.360  10.645
11946W        W84206   2.286  10.409   2.865
11947W        W84207   2.063  34.082  14.328
11948W        W84208   9.952  32.402  12.505
11949W        W84209  29.144  10.354   2.868
11950W        W84210   0.467   8.331  14.830
11951W        W84211  26.033  21.493   4.609
11952W        W84212  32.941  11.129  13.871
11953W        W84213  38.565  38.874   1.740
11954W        W84214  16.612  31.542  12.541
11955W        W84215  12.175  43.443  10.653
11956W        W84216  30.502  12.192  10.592
11957W        W84217  14.177  33.394  10.552
11958W        W84218  12.412   1.297  11.597
11959W        W84219  32.573   1.826  10.713
11960W        W84220  42.286  38.579   4.827
11961W        W84221  41.509  42.981  14.770
11962W        W84222  25.744  13.605   1.789
11963W        W84223   9.605  24.164  13.039
11964W        W84224  15.392   8.171   4.506
11965W        W84225  29.064   1.328  11.185
11966W        W84226  37.349  37.043  12.120
11967W        W84227  15.829  28.067   4.910
11968W        W84228  24.869   7.759  10.751
11969W        W84229  31.152  11.057  14.435
11970W        W84230   1.049  41.152  12.025
11971W        W84231   4.899  29.578   1.733
11972W        W84232  26.586   9.388  13.313
11973W        W84233  16.018  29.120  14.998
11974W        W84234  22.693  30.361   0.286
11975W        W84235   4.281  17.752  13.958
11976W        W84236  35.850   3.901  14.871
11977W        W84237  39.506   7.312   4.692
11978W        W84238  23.332  38.567   3.179
11979W        W84239  13.603  43.545   3.290
11980W        W84240  10.398  27.428   3.284
11981W        W84241  29.797  24.333   1.270
11982W        W84242  34.697  15.020   3.796
11983W        W84243  21.177  42.917   2.419
11984W        W84244  41.313  26.422  11.347
11985W        W84245  30.494   0.082   0.829
11986W        W84246  33.984  35.052  14.071
11987W        W84247   2.996  23.455  14.302
11988W        W84248  16.630  24.286  13.033
11989W        W84249  16.058  12.786   3.759
11990W        W84250  35.059   4.434  13.407
11991W        W84251  42.052  43.825  14.900
11992W        W84252  44.762  35.947   2.746
11993W        W84253   1.954   4.347   1.349
11994W        W84254  10.071  15.363   0.750
11995W        W84255  34.115  32.513   0.333
11996W        W84256  24.682  22.988   2.457
11997W        W84257  22.886  20.956   0.166
11998W        W84258   7.736  16.346   2.025
11999W        W84259  21.526  15.638   1.113
12000W        W84260  22.594  37.914   3.131
12001W        W84261  21.681  16.776   3.338
12002W        W84262   2.698  25.851   2.753
12003W        W84263  18.146  10.559  12.242
12004W        W84264  41.683  37.546  14.453
12005W        W84265  14.892  23.991   0.272
12006W        W84266  36.650  41.063   4.164
12007W        W84267  31.702  43.780  10.765
12008W        W84268  39.186   3.704  10.267
12009W        W84269  34.450   7.249   0.897
12010W        W84270  19.732   8.167   4.621
12011W        W84271   4.719  32.090  14.957
12012W        W84272   3.763   6.973   1.879
12013W        W84273  31.359  27.817  12.964
12014W        W84274  16.898   5.030   0.817
12015W        W84275  22.579  44.991   4.143
12016W        W84276  44.389  42.975  12.006
12017W        W84277  13.703  24.945   4.120
12018W        W84278  29.499   1.963  12.537
12019W        W84279  40.841   4.437   1.404
12020W        W84280  31.919  39.087  11.472
12021W        W84281  29.130  27.515   1.968
12022W        W84282  19.280  18.107   3.305
12023W        W84283  14.146  38.677   2.797
12024W        W84284   4.015  28.980   3.026
12025W        W84285  19.115   5.222   0.353
12026W        W84286  23.758  41.547  10.349
12027W        W84287  39.036  43.365  14.354
12028W        W84288   5.319  11.575  13.336
12029W        W84289  27.155   3.823   0.791
12030W        W84290  28.462  27.967   1.895
12031W        W84291  26.648   8.810  14.882
12032W        W84292   1.393  18.593   2.170
12033W        W84293  11.142  13.785  13.291
12034W        W84294   3.142  40.470   1.494
12035W        W84295  38.938  29.078   4.068
12036W        W84296  20.024  17.832  11.524
12037W        W84297  11.736   0.783  12.107
12038W        W84298  26.120   1.489   0.816
12039W        W84299   4.427  30.197  12.395
12040W        W84300  26.267  16.037  14.912
12041W        W84301   3.421   0.246  14.219
12042W        W84302  29.584  23.742   4.520
12043W        W84303  14.275  12.913   1.643
12044W        W84304   5.410  29.520   1.747
12045W        W84305  25.730  21.463   3.611
12046W        W84306  28.138  21.487   3.743
12047W        W84307  40.933   4.802   2.226
12048W        W84308  15.660  38.831   0.870
12049W        W84309  13.958  21.110   2.285
12050W        W84310  35.333   6.265   2.213
12051W        W84311  21.467  41.381  14.997
12052W        W84312  43.685  18.563  12.489
12053W        W84313  23.757  39.952  11.339
12054W        W84314   0.245  10.446   3.563
12055W        W84315  16.279  15.258   4.906
12056W        W84316  29.013   6.397   4.920
12057W        W84317  37.575  31.529   1.382
12058W        W84318  35.576  38.771   2.176
12059W        W84319  10.727  33.883  11.567
12060W        W84320  42.292  27.553  14.879
12061W        W84321  43.503  38.506   4.308
12062W        W84322  44.163  32.970   3.227
12063W        W84323  20.437   8.021   3.168
12064W        W84324   4.379  37.452   2.320
12065W        W84325  17.352  20.084   2.317
12066W        W84326  30.576  40.313  12.086
12067W        W84327  42.833  14.313  13.427
12068W        W84328   7.742   9.282  10.749
12069W        W84329   9.769  25.956   0.151
12070W        W84330  36.523  13.812  11.369
12071W        W84331  41.524   8.815   3.284
12072W        W84332  17.210  25.549  13.070
12073W        W84333   8.826  13.042   1.574
12074W        W84334  12.203  32.512  14.928
12075W        W84335  27.607  12.114   3.126
12076W        W84336   4.415  18.776   2.175
12077W        W84337  30.054  31.452   4.289
12078W        W84338  41.979   9.759  11.191
12079W        W84339  10.492  43.794   4.295
12080W        W84340  15.869   3.296   1.424
12081W        W84341  14.152  44.295   0.290
12082W        W84342  13.427  16.802   4.661
12083W        W84343  16.362  26.486  12.661
12084W        W84344  15.159   9.388  11.571
12085W        W84345  35.552  34.613   2.242
12086W        W84346  29.917  16.380   3.515
12087W        W84347  13.750   8.163  13.115
12088W        W84348  36.902  32.889  14.882
12089W        W84349   0.863  44.465  13.548
12090W        W84350   9.500  13.739   2.985
12091W        W84351  23.162  14.758  13.190
12092W        W84352  11.168  11.104   2.411
12093W        W84353  26.252   1.229  10.679
12094W        W84354   9.435  10.607  13.211
12095W        W84355  11.252  34.258  13.829
12096W        W84356  32.410  25.402  13.837
12097W        W84357  32.446  43.350   0.407
12098W        W84358  35.922  33.336   1.447
12099W        W84359  23.945  35.061  13.547
12100W        W84360  38.845   1.411   2.707
12101W        W84361  22.066  37.952   3.029
12102W        W84362  14.013  28.700  10.798
12103W        W84363  14.972  42.421  13.514
12104W        W84364  35.505  36.331   4.816
12105W        W84365  24.899  38.031   3.583
12106W        W84366  17.194   2.044  14.072
12107W        W84367  41.427  43.804   1.653
12108W        W84368  41.858  37.467  11.611
12109W        W84369  28.955  39.728   1.092
12110W        W84370  38.550  40.553   0.715
12111W        W84371  26.112  22.673  11.537
12112W        W84372  36.974  23.743  11.119
12113W        W84373   7.604   5.895  13.396
12114W        W84374  12.725  27.215  14.025
12115W        W84375  36.057  20.180   3.655
12116W        W84376  28.059  16.569   3.150
12117W        W84377  10.560  44.926   4.090
12118W        W84378  39.928  32.622  13.139
12119W        W84379  12.581  33.937   3.350
12120W        W84380  43.597  21.245   0.787
12121W        W84381  17.569  18.305   3.248
12122W        W84382   0.088  22.147   0.484
12123W        W84383  32.037   4.997   3.421
12124W        W84384  42.569   7.358   2.065
12125W        W84385  31.375  41.327  14.893
12126W        W84386  42.615  22.442  11.865
12127W        W84387  23.702  27.450   3.547
12128W        W84388  34.002   5.019  11.487
12129W        W84389   8.401  38.666  12.294
12130W        W84390  19.520  21.644  14.608
12131W        W84391  27.631   3.249   2.200
12132W        W84392  24.459  14.761  13.604
12133W        W84393  31.854  40.702  12.147
12134W        W84394  35.843  26.050   3.227
12135W        W84395  43.083   5.878  14.802
12136W        W84396   0.349  18.511   3.691
12137W        W84397   5.920  12.585  11.204
12138W        W84398  42.738  30.016   2.780
12139W        W84399   7.860   7.233   3.652
12140W        W84400  37.528  37.891  13.054
12141W        W84401  26.977  29.417   1.864
12142W        W84402  20.068  26.574   3.327
12143W        W84403   6.342  18.528   0.220
12144W        W84404  23.319  28.709  11.967
12145W        W84405  24.104  41.816   2.803
12146W        W84406   4.362  28.629  13.446
12147W        W84407  44.538  29.002  10.260
12148W        W84408   2.910  12.196  10.613
12149W        W84409  35.501   8.723  12.915
12150W        W84410  14.543  25.125   1.253
12151W        W84411  33.335   7.711  14.553
12152W        W84412   3.147   8.935  10.817
12153W        W84413  17.082  11.239   1.421
12154W        W84414  30.572   5.196   1.453
12155W        W84415   8.102  10.857  13.109
12156W        W84416  25.971  28.951   0.752
12157W        W84417  37.875  44.497  14.596
12158W        W84418   3.255  21.061  14.498
12159W        W84419  22.287  22.344   2.374
12160W        W84420  18.481  12.728  12.012
12161W        W84421  42.722  23.536   1.384
12162W        W84422  12.179  31.986   4.244
12163W        W84423  30.045  34.205   2.935
12164W        W84424  12.317  44.247   4.182
12165W        W84425  44.265  41.941   1.927
12166W        W84426  39.485  11.263  13.494
12167W        W84427   2.816   6.746  12.959
12168W        W84428  29.035  14.891  12.320
12169W        W84429  41.780   8.820   3.769
12170W        W84430  19.052  19.178   4.642
12171W        W84431  41.554  14.186   2.685
12172W        W84432  22.587  43.573   0.804
12173W        W84433   1.889  24.981  11.106
12174W        W84434  18.070   3.099   2.680
12175W        W84435  22.366  43.510   3.319
12176W        W84436  33.345  26.639  11.015
12177W        W84437  31.451  36.579  14.883
12178W        W84438  26.776  28.617   4.058
12179W        W84439   3.723   1.578   3.349
12180W        W84440  15.375  41.768  11.908
12181W        W84441  36.814   7.159  10.404
12182W        W84442  21.015  20.608   3.148
12183W        W84443  16.795  31.590   4.544
12184W        W84444  28.397   8.320  14.614
12185W        W84445  21.235  21.657   4.191
12186W        W84446   7.215  35.157  11.303
12187W        W84447  25.825   6.050   2.445
12188W        W84448  43.258   3.816  11.468
12189W        W84449   9.804  19.492   0.155
12190W        W84450  31.716  38.998   2.298
12191W        W84451  15.999  41.877  13.839
12192W        W84452  39.423   9.110   4.216
12193W        W84453   3.300   8.785   3.132
12194W        W84454  22.708   5.836  11.605
12195W        W84455  24.683  37.020  14.335
12196W        W84456  20.471  33.562   1.811
12197W        W84457  21.129  17.649  14.793
12198W        W84458  26.101  11.380  12.859
12199W        W84459  41.501   2.461   3.050
12200W        W84460  31.373  36.039   0.760
12201W        W84461  21.012  33.667   4.513
12202W        W84462  11.057  33.853  14.050
12203W        W84463  19.018  15.003  14.839
12204W        W84464  17.490   6.908  10.000
12205W        W84465  20.738  10.395  11.865
12206W        W84466  29.676   1.315  10.552
12207W        W84467   9.853  22.055   2.990
12208W        W84468  34.962  28.119  14.271
12209W        W84469  18.446  30.681   1.898
12210W        W84470  38.302   6.224  14.373
12211W        W84471  26.158  43.696   2.407
12212W        W84472  22.687  10.109  11.470
12213W        W84473  34.807   0.298   0.666
12214W        W84474   8.391  25.721  14.917
12215W        W84475  15.236  28.175  14.512
12216W        W84476  32.421  15.249   4.149
12217W        W84477  42.279   0.456   2.501
12218W        W84478  13.085  21.224  14.902
12219W        W84479  25.083  11.335  12.867
12220W        W84480  29.782  37.756   4.025
12221W        W84481  37.029   4.363  14.955
12222W        W84482  16.568  20.413   2.451
12223W        W84483   2.422   2.620  14.466
12224W        W84484   5.222   8.181  12.420
12225W        W84485  44.270  13.812   3.625
12226W        W84486  26.741  10.309   0.879
12227W        W84487   5.134  27.951   4.093
12228W        W84488  20.573  31.409   1.948
12229W        W84489  36.099   8.729  14.426
12230W        W84490  14.153  15.473  13.838
12231W        W84491  42.254  25.522  10.682
12232W        W84492   0.269   2.890  12.922
12233W        W84493  24.723   3.181  12.074
12234W        W84494  16.125  25.465   0.867
12235W        W84495  26.047   0.112  13.988
12236W        W84496  18.295  41.552  11.894
12237W        W84497  26.156  23.637  12.474
12238W        W84498  25.078  32.566   1.884
12239W        W84499  28.632   5.481  14.453
12240W        W84500  16.690   5.413   4.476
12241W        W84501  20.204   9.120  11.982
12242W        W84502  34.909   7.936   0.082
12243W        W84503  13.119  38.627  11.800
12244W        W84504  29.050   1.106  13.972
12245W        W84505  43.209  16.142   0.912
12246W        W84506  19.642  35.504   1.355
12247W        W84507  24.245  12.147   4.544
12248W        W84508  32.402   4.202   0.818
12249W        W84509  12.559   5.199   1.281
12250W        W84510  22.563  36.351   2.642
12251W        W84511  19.254   3.334  14.427
12252W        W84512  18.565  21.695   1.353
12253W        W84513  10.012  33.101  11.610
12254W        W84514  11.198  37.885  12.934
12255W        W84515  34.434  16.056  14.379
12256W        W84516   0.953  38.827   3.156
12257W        W84517  20.327  15.272  11.569
12258W        W84518   6.366   6.795  13.980
12259W        W84519  15.328  16.366  13.907
12260W        W84520  16.201  17.219   1.466
12261W        W84521   3.901   5.238   3.205
12262W        W84522  18.338  35.546  11.726
12263W        W84523  26.074  16.697  13.877
12264W        W84524  14.878  14.567  11.124
12265W        W84525  19.561  37.655  11.181
12266W        W84526  14.522  37.147  14.490
12267W        W84527  18.111  42.417  11.874
12268W        W84528  27.488  43.480   2.434
12269W        W84529  18.293  34.704  13.594
12270W        W84530  20.820  15.166  11.626
12271W        W84531  22.955  30.893  12.384
12272W        W84532  19.686  35.691   4.146
12273W        W84533  44.482  38.381   1.252
12274W        W84534  36.514   7.193   3.841
12275W        W84535  35.171  12.713  12.170
12276W        W84536  14.834  25.215   4.700
12277W        W84537  27.952   0.398  12.022
12278W        W84538  37.657  26.198  11.923
12279W        W84539  35.962   7.769  12.113
12280W        W84540  23.499  18.846   0.978
12281W        W84541   4.423   1.636  10.472
12282W        W84542  20.258   5.990  12.942
12283W        W84543   9.736  15.568  14.359
12284W        W84544  28.288   5.193  10.974
12285W        W84545   2.294  22.945   0.378
12286W        W84546  30.228   7.111   2.783
12287W        W84547   9.376  32.155  10.990
12288W        W84548  10.196  12.784   1.883
12289W        W84549  11.104  21.223  11.675
12290W        W84550   6.472  29.883   3.723
12291W        W84551  21.026  17.267  13.497
12292W        W84552  39.965  10.102  11.583
12293W        W84553   4.330  23.272   1.229
12294W        W84554  28.705  26.625   2.412
12295W        W84555   5.457  23.521  13.322
12296W        W84556  17.798   6.762  12.992
12297W        W84557   4.944  39.224   5.185
12298W        W84558  41.724  30.654   3.189
12299W        W84559  22.058  20.271   4.545
12300W        W84560   3.778  11.852   0.308
12301W        W84561   1.815  11.391   4.827
12302W        W84562  18.498   2.014   4.043
12303W        W84563  23.326  11.279   3.850
12304W        W84564  41.876  10.082  14.020
12305W        W84565  41.086  37.738  12.473
12306W        W84566   0.261  41.729  13.143
12307W        W84567  30.130   7.722   4.591
12308W        W84568   3.208  20.206  11.975
12309W        W84569   8.237  36.062   3.727
12310W        W84570   3.734   0.546  11.574
12311W        W84571   3.645  41.915  12.474
12312W        W84572  18.744  36.494   0.415
12313W        W84573  41.099  22.117   4.734
12314W        W84574   7.432   9.167   1.819
12315W        W84575  32.859  30.078  13.855
12316W        W84576  14.525   4.772  13.149
12317W        W84577   1.940  12.811  12.070
12318W        W84578  17.687  10.161  13.357
12319W        W84579   1.391   4.398   0.029
12320W        W84580  29.148   1.289  10.678
12321W        W84581  14.600  30.454   1.856
12322W        W84582   9.938   1.976  14.555
12323W        W84583   4.332  24.753  10.599
12324W        W84584  20.305  13.714  13.198
12325W        W84585  12.701  18.020   0.580
12326W        W84586  22.773  43.061   4.515
12327W        W84587  33.629  40.888   0.009
12328W        W84588  14.766   3.291   1.879
12329W        W84589  37.595  14.404   4.670
12330W        W84590  26.946  29.470  14.456
12331W        W84591  34.217   5.920   0.768
12332W        W84592   0.340   0.002   2.165
12333W        W84593  36.476  29.584   4.480
12334W        W84594  11.727  13.353  11.699
12335W        W84595  12.820  12.384  10.772
12336W        W84596   8.189  10.000  12.142
12337W        W84597  39.005  24.132   4.620
12338W        W84598  12.748  28.419  13.538
12339W        W84599  35.856  39.136  12.524
12340W        W84600  25.486  16.547   0.499
12341W        W84601   0.153  35.571   0.277
12342W        W84602  32.115  31.351   0.393
12343W        W84603  25.012  20.835   4.566
12344W        W84604  18.645   8.456   4.210
12345W        W84605  21.269   5.082   3.690
12346W        W84606  36.600  17.006   2.001
12347W        W84607  25.057  44.810   1.364
12348W        W84608   5.712  28.670   0.032
12349W        W84609  17.700  19.060  12.012
12350W        W84610   0.803  29.657  13.046
12351W        W84611   7.690  13.873   3.104
12352W        W84612  15.532  24.196   2.193
12353W        W84613   2.522  37.512  12.848
12354W        W84614  29.844   6.387   3.348
12355W        W84615  14.628  24.223  14.539
12356W        W84616   0.182  32.586   2.365
12357W        W84617  25.333  40.330   3.184
12358W        W84618  22.275   8.882  12.792
12359W        W84619  12.715  30.956   3.238
12360W        W84620   2.279  37.963  12.932
12361W        W84621  15.287  11.169  12.053
12362W        W84622   4.421  17.793  12.560
12363W        W84623  43.944  36.282  12.689
12364W        W84624   9.212  36.291   4.174
12365W        W84625   5.547  23.059  13.493
12366W        W84626  22.536  28.167   5.489
12367W        W84627  43.496   3.670  12.994
12368W        W84628   5.199  28.604   4.877
12369W        W84629  16.316  11.366   4.235
12370W        W84630  22.438  27.701  11.919
12371W        W84631  28.306  35.519  13.312
12372W        W84632  25.234  19.353  14.536
12373W        W84633  14.816   6.322   3.311
12374W        W84634  20.050  29.069  10.639
12375W        W84635  38.349  13.161  14.850
12376W        W84636   7.670  12.323   3.701
12377W        W84637  31.616  14.675   4.688
12378W        W84638   0.863  32.073   3.435
12379W        W84639  42.383   6.110   3.153
12380W        W84640  25.625   7.763  12.955
12381W        W84641  32.384  31.439  14.972
12382W        W84642   9.834  36.143  14.954
12383W        W84643   6.992  15.781  11.100
12384W        W84644  35.488  19.968   3.427
12385W        W84645  44.853  41.651   0.857
12386W        W84646  19.549   3.646   4.085
12387W        W84647   0.819   0.009   1.860
12388W        W84648   4.050   6.219  14.436
12389W        W84649  25.616  43.333   1.896
12390W        W84650   1.418  35.300  12.872
12391W        W84651  18.888  35.793   4.889
12392W        W84652  20.072  11.745   4.556
12393W        W84653   8.730  26.521   2.302
12394W        W84654  20.225  44.338   1.922
12395W        W84655  40.697  39.919  12.932
12396W        W84656  24.967  20.292   1.871
12397W        W84657  19.744  25.005   4.806
12398W        W84658  19.831  21.168   3.591
12399W        W84659  40.245  17.104   3.777
12400W        W84660  14.365  34.697  11.033
12401W        W84661  10.592  18.612   3.751
12402W        W84662  29.494   1.786   1.748
12403W        W84663  36.172  20.665   4.573
12404W        W84664  30.711  32.935   3.143
12405W        W84665  36.933  37.551  14.011
12406W        W84666   8.440   3.390   3.372
12407W        W84667  25.578  38.634   2.823
12408W        W84668  42.177   1.455  14.798
12409W        W84669  11.204  25.002  13.930
12410W        W84670  36.295  11.813  14.275
12411W        W84671   3.922  17.513   1.746
12412W        W84672  20.239   4.929  11.165
12413W        W84673  36.422  34.293   0.949
12414W        W84674   8.251  38.922  14.053
12415W        W84675   3.919  39.027  10.633
12416W        W84676  10.682   3.877  14.294
12417W        W84677  33.354  41.915  11.119
12418W        W84678  28.613  19.553  12.591
12419W        W84679  17.818  41.944  11.666
12420W        W84680  42.429  34.833   2.146
12421W        W84681   1.030   8.381  14.473
12422W        W84682  37.371  18.603   0.831
12423W        W84683  26.692  23.619  13.031
12424W        W84684  25.063  11.597  14.267
12425W        W84685  22.765  36.946  13.029
12426W        W84686  25.307   8.375   2.810
12427W        W84687  44.653  33.691  11.632
12428W        W84688   0.306  37.334   2.823
12429W        W84689  23.247   3.255  14.483
12430W        W84690  35.482  34.356  11.511
12431W        W84691  41.801   4.726   4.759
12432W        W84692  32.975  41.452  13.429
12433W        W84693  27.921  20.000   1.328
12434W        W84694  11.622   4.305  12.595
12435W        W84695  14.408  44.424  13.214
12436W        W84696  10.988  30.738   1.247
12437W        W84697   1.496  34.123  10.686
12438W        W84698  25.578  44.737   0.677
12439W        W84699  14.023   7.086   4.086
12440W        W84700  24.175  18.382   2.805
12441W        W84701   3.322  21.771   2.554
12442W        W84702  26.196  33.641  14.348
12443W        W84703  29.012  26.226   3.347
12444W        W84704   8.897   1.142   2.226
12445W        W84705  32.157  43.907   0.958
12446W        W84706  17.406  22.425   1.238
12447W        W84707   5.479  38.309   3.586
12448W        W84708  15.080  43.687  12.974
12449W        W84709  18.156  24.982   3.651
12450W        W84710  17.075  14.164   3.178
12451W        W84711   0.355   0.803  12.496
12452W        W84712  34.988  26.233  14.794
12453W        W84713  19.077   5.881  14.527
12454W        W84714  38.432  38.819  14.127
12455W        W84715   7.916  29.975   1.773
12456W        W84716  34.650  13.374  10.747
12457W        W84717  40.525  41.074   1.147
12458W        W84718  10.445   5.879   0.494
12459W        W84719  23.920   9.004   0.930
12460W        W84720  33.300  23.465   1.339
12461W        W84721  21.014  39.852   4.841
12462W        W84722  29.185  24.169   3.643
12463W        W84723   4.143  13.311   3.782
12464W        W84724  30.552  26.238   0.808
12465W        W84725  30.614  25.906  12.488
12466W        W84726  18.266  23.713   4.891
12467W        W84727  42.979  44.966   3.653
12468W        W84728  17.512   6.017   4.141
12469W        W84729  16.153  31.202   2.037
12470W        W84730  23.842  12.085  14.062
12471W        W84731   4.783  33.023   1.075
12472W        W84732  20.734  11.708  14.905
12473W        W84733  38.501  34.617  13.443
12474W        W84734  31.644  19.340  13.872
12475W        W84735   9.823  22.156   1.254
12476W        W84736  22.133  30.902   4.208
12477W        W84737  37.002  34.731   2.735
12478W        W84738  26.504  32.198   4.332
12479W        W84739   2.512  21.601  11.070
12480W        W84740   8.794  30.650  14.183
12481W        W84741  26.547  10.489  14.990
12482W        W84742   0.786  37.426  13.928
12483W        W84743  12.069  27.651  14.463
12484W        W84744   9.745  18.564   2.207
12485W        W84745   3.218  26.531   4.589
12486W        W84746   9.845  39.460   1.298
12487W        W84747  37.986  34.340   1.845
12488W        W84748  13.222  24.746   1.651
12489W        W84749  11.240  15.173  14.022
12490W        W84750  28.169  26.966  14.573
12491W        W84751  41.494  44.015   4.143
12492W        W84752  42.338   8.764   3.789
12493W        W84753  17.198  18.705   3.257
12494W        W84754   4.896   0.763  14.851
12495W        W84755  25.199  26.087  10.475
12496W        W84756  18.780   4.206  14.038
12497W        W84757  17.589  41.707  11.290
12498W        W84758  34.520  20.205  11.535
12499W        W84759  38.366  25.369   3.837
12500W        W84760   9.758   3.203   2.220
12501W        W84761  19.658  42.268   0.900
12502W        W84762  13.654  26.426   4.146
12503W        W84763  29.625  13.610  14.928
12504W        W84764  41.074  14.813   1.311
12505W        W84765  26.031  11.345  11.428
12506W        W84766  38.744  13.188   0.244
12507W        W84767   9.613  16.684  12.151
12508W        W84768   3.273   5.340  12.082
12509W        W84769  38.337  14.868  11.334
12510W        W84770  34.765   7.349  13.020
12511W        W84771  18.250   3.702  11.157
12512W        W84772   9.102  11.362   0.678
12513W        W84773  18.870  11.804   0.742
12514W        W84774   3.230  20.287   3.596
12515W        W84775  13.717  36.492   1.741
12516W        W84776  10.094   8.215  12.948
12517W        W84777  40.145  32.955  13.593
12518W        W84778  29.439   5.812  12.868
12519W        W84779  16.505   7.938   0.812
12520W        W84780  39.458   7.209   1.014
12521W        W84781  16.318  20.407   4.139
12522W        W84782  40.749  27.112  12.376
12523W        W84783  15.142  33.720   1.718
12524W        W84784  31.167  37.288   3.253
12525W        W84785  15.639  40.848  10.756
12526W        W84786  14.590  11.342   1.777
12527W        W84787   5.400  20.502   4.042
12528W        W84788  21.777   0.213  14.890
12529W        W84789  15.832  35.824  13.014
12530W        W84790  32.707  13.325   1.264
12531W        W84791  14.281  33.347  10.036
12532W        W84792  14.274  42.535  14.263
12533W        W84793   9.129  24.011   0.754
12534W        W84794  24.853  31.043  13.050
12535W        W84795  34.835  24.097   4.061
12536W        W84796   5.963  15.668  11.848
12537W        W84797  33.643   2.677   1.357
12538W        W84798   9.545  44.262  12.980
12539W        W84799  30.516   5.232  14.240
12540W        W84800  22.312  41.240   2.701
12541W        W84801  38.461   7.861   1.947
12542W        W84802  22.770  23.683  12.080
12543W        W84803  15.269   0.828   0.715
12544W        W84804  25.240  26.153  11.439
12545W        W84805   4.605  23.442  14.962
12546W        W84806  36.295  27.363   3.497
12547W        W84807  32.476  23.026   1.052
12548W        W84808  18.834  24.024  11.039
12549W        W84809  26.549  38.557   0.191
12550W        W84810  23.037  32.921  11.607
12551W        W84811  37.090  20.003   4.064
12552W        W84812  38.858  10.903   0.266
12553W        W84813   5.982  36.070  13.462
12554W        W84814  31.062  32.020  10.698
12555W        W84815  23.771  20.254  13.404
12556W        W84816  26.591  36.791  10.762
12557W        W84817   0.021  22.184   0.991
12558W        W84818   9.161   1.911  13.146
12559W        W84819  13.031  32.205  14.615
12560W        W84820  44.137  24.238   0.792
12561W        W84821  28.514  34.883   4.573
12562W        W84822   7.760  12.832  12.661
12563W        W84823  35.490  25.722  12.006
12564W        W84824  27.239  35.371   0.439
12565W        W84825  18.868  34.926  12.751
12566W        W84826  11.104  20.066   1.035
12567W        W84827  10.367  31.662   0.863
12568W        W84828  39.369  21.461  14.935
12569W        W84829  32.985  17.677   1.411
12570W        W84830  27.547  34.123  11.861
12571W        W84831  44.993   9.628  13.578
12572W        W84832   8.225  10.251   1.423
12573W        W84833  23.961  21.708  14.416
12574W        W84834  29.134   5.789   0.545
12575W        W84835  14.613  19.035  10.674
12576W        W84836  15.700   9.288   4.374
12577W        W84837  22.575  36.794   0.120
12578W        W84838  10.552  40.013   3.692
12579W        W84839   7.514  18.713   2.916
12580W        W84840  34.160  11.134   2.170
12581W        W84841  26.844  14.535   0.311
12582W        W84842  16.025  27.553  10.449
12583W        W84843  19.740   5.246   4.902
12584W        W84844  20.725  23.580  13.888
12585W        W84845  31.601  30.195   1.297
12586W        W84846  19.591  37.302   5.232
12587W        W84847  30.824  14.190   1.280
12588W        W84848  24.797  30.899  13.956
12589W        W84849  29.209  35.569  12.911
12590W        W84850  24.780  29.630  13.479
12591W        W84851   4.933   2.781   2.914
12592W        W84852  19.077  11.356  12.466
12593W        W84853  25.135   0.533   0.603
12594W        W84854  21.464  37.593   0.521
12595W        W84855  35.696  18.615   9.788
12596W        W84856  41.085  37.059   3.932
12597W        W84857  18.667  35.787  13.011
12598W        W84858   7.817  38.909  11.239
12599W        W84859   3.280  13.450   0.552
12600W        W84860  40.332   2.965   2.642
12601W        W84861   6.688  32.052   0.997
12602W        W84862  17.660  42.881  14.883
12603W        W84863  14.415   2.193  13.980
12604W        W84864  18.785  21.394  10.978
12605W        W84865   5.779  15.504   4.138
12606W        W84866  25.715  12.998   1.127
12607W        W84867  27.035  30.017   3.704
12608W        W84868  35.931  12.726   3.179
12609W        W84869  11.272  27.569  11.187
12610W        W84870  36.548  36.673   3.440
12611W        W84871  43.849  19.226  13.095
12612W        W84872  16.101  11.154   1.891
12613W        W84873  40.354  21.235  14.412
12614W        W84874  31.496  40.683   3.102
12615W        W84875  14.448  43.420   3.573
12616W        W84876  14.466  38.567   3.719
12617W        W84877  22.287  40.924   3.693
12618W        W84878   1.375  25.874   2.004
12619W        W84879  37.921  34.812  14.731
12620W        W84880   3.390  31.866   0.733
12621W        W84881  34.424  32.436   0.779
12622W        W84882  41.734  39.499   2.832
12623W        W84883  14.074  15.915  14.639
12624W        W84884  34.038  29.579   1.041
12625W        W84885  10.243  41.355   4.593
12626W        W84886  32.849   5.274  12.491
12627W        W84887  41.949  26.431   4.160
12628W        W84888  35.534  43.479  13.849
12629W        W84889  36.953  17.761   3.745
12630W        W84890  25.945  33.572   4.483
12631W        W84891  19.049   3.020  11.599
12632W        W84892   3.225  16.119  10.556
12633W        W84893  29.493  21.521  13.899
12634W        W84894  17.118  32.511   2.627
12635W        W84895  42.280  39.958  14.783
12636W        W84896  30.552   8.086  11.965
12637W        W84897  14.120   4.207  12.706
12638W        W84898   5.757   0.402  11.688
12639W        W84899   1.697  21.005  13.734
12640W        W84900   4.326  17.966  13.496
12641W        W84901  12.073  12.625  12.742
12642W        W84902  20.644   6.378   3.738
12643W        W84903  11.926  26.396  12.978
12644W        W84904  21.258  11.641  12.433
12645W        W84905   2.865  16.060   4.160
12646W        W84906  26.291  12.016   1.829
12647W        W84907  40.600   8.437  10.414
12648W        W84908   9.402  12.221  11.622
12649W        W84909   6.408  20.939   4.188
12650W        W84910   0.687  18.850  12.952
12651W        W84911   4.365  30.317   1.679
12652W        W84912  15.138   0.852   1.819
12653W        W84913  44.786  26.494   1.392
12654W        W84914  10.703  41.366  14.246
12655W        W84915   2.017  22.543  12.744
12656W        W84916  13.163   5.649  10.733
12657W        W84917  25.969  13.822   1.349
12658W        W84918  29.283  23.153  13.113
12659W        W84919  16.544  30.986  14.825
12660W        W84920  14.871   7.209   1.346
12661W        W84921   8.614  27.851   4.063
12662W        W84922  44.020  29.016  12.983
12663W        W84923  35.360  33.529  12.019
12664W        W84924  35.254  21.051  11.928
12665W        W84925  12.091   2.248   2.667
12666W        W84926  14.670  31.306  12.114
12667W        W84927  17.146  19.365   2.659
12668W        W84928  44.561  36.399   2.901
12669W        W84929  38.573  36.913   1.644
12670W        W84930  20.492  36.216   3.391
12671W        W84931  12.351   9.975  11.040
12672W        W84932  33.493   3.805   2.097
12673W        W84933  28.420  15.902  14.839
12674W        W84934  42.282  38.163  14.200
12675W        W84935  23.715  40.027  13.300
12676W        W84936  14.274  10.289   1.151
12677W        W84937   9.235  16.338   1.249
12678W        W84938   7.192  24.730   0.979
12679W        W84939  30.523  12.439   1.386
12680W        W84940   1.859  34.385   2.785
12681W        W84941   5.930  14.395  13.203
12682W        W84942  17.796  21.533  13.442
12683W        W84943  30.888  20.573  12.419
12684W        W84944  42.458  10.279   3.220
12685W        W84945  14.393   8.002  14.726
12686W        W84946  42.288  41.901   2.925
12687W        W84947   5.903   1.794   0.387
12688W        W84948   7.249  37.186   3.707
12689W        W84949   9.465  15.519  13.908
12690W        W84950  37.783  21.146  14.530
12691W        W84951   0.540   6.926   3.657
12692W        W84952  32.113  31.592   3.123
12693W        W84953  25.975  44.312  11.529
12694W        W84954  17.714  39.389  13.956
12695W        W84955  35.917   9.698   0.345
12696W        W84956  22.609  42.785  12.516
12697W        W84957   1.938  10.651   3.217
12698W        W84958  14.816  29.029  13.502
12699W        W84959  37.561  34.644   3.364
12700W        W84960   2.195  14.850   0.783
12701W        W84961  32.228  32.565  13.823
12702W        W84962  18.317  27.078  13.934
12703W        W84963   7.736  34.665   4.603
12704W        W84964  44.720  11.387   2.592
12705W        W84965  33.899  12.277   1.176
12706W        W84966  30.296  18.514   3.907
12707W        W84967  21.830   2.288  13.745
12708W        W84968  21.219  34.108   1.829
12709W        W84969   3.214  30.346  13.850
12710W        W84970   5.625   7.923  11.220
12711W        W84971  22.178  27.359  12.722
12712W        W84972   0.691  42.916   3.722
12713W        W84973  42.211  30.636  12.570
12714W        W84974  13.651  20.552  10.592
12715W        W84975  14.334   1.871   0.798
12716W        W84976  32.590  14.297   0.513
12717W        W84977  29.150   3.759  10.739
12718W        W84978   8.935   0.613  12.449
12719W        W84979  15.601  33.120  11.378
12720W        W84980   6.256  15.580   1.317
12721W        W84981  16.907  40.438   4.226
12722W        W84982  31.562  25.003  10.748
12723W        W84983  12.152   2.438   1.418
12724W        W84984   1.291  35.503  13.934
12725W        W84985   5.456  37.721  12.988
12726W        W84986  44.339  33.645   4.775
12727W        W84987  39.944  22.611  14.250
12728W        W84988  21.168  21.233  13.028
12729W        W84989  12.700  16.562   4.691
12730W        W84990  24.592   0.944   4.178
12731W        W84991  22.070  44.243  11.646
12732W        W84992  24.163   8.015   1.331
12733W        W84993   9.391  14.733  12.797
12734W        W84994  37.355  39.547   1.264
12735W        W84995  31.843   0.798   5.118
12736W        W84996   1.823  39.095   0.043
12737W        W84997  22.619  28.289   1.245
12738W        W84998  16.146  36.968   1.628
12739W        W84999   1.458  10.726   1.396
12740W        W85000  20.236   3.676   1.239
12741W        W85001  20.354  39.349  14.363
12742W        W85002   0.924  22.920  14.902
12743W        W85003  20.675  12.783  13.322
12744W        W85004  24.275  35.378  13.795
12745W        W85005  24.613  29.823   3.649
12746W        W85006  14.666  42.785  13.806
12747W        W85007  25.651  15.238  10.610
12748W        W85008  34.641   2.051   0.883
12749W        W85009   1.932  37.303   0.380
12750W        W85010   5.304  44.092  11.128
12751W        W85011  43.750  26.304  12.426
12752W        W85012  42.788  17.135  12.139
12753W        W85013  40.968  20.006   2.809
12754W        W85014   4.105   0.646   2.902
12755W        W85015  27.994  43.376   4.746
12756W        W85016  19.950  35.110  12.017
12757W        W85017  31.999  21.284   0.102
12758W        W85018  27.090  27.795   0.742
12759W        W85019  37.604  30.681   1.401
12760W        W85020   4.644   2.413  14.510
12761W        W85021  40.413   2.936  11.448
12762W        W85022  37.967  23.211  10.686
12763W        W85023  34.861   8.772   0.551
12764W        W85024   1.510   4.518  13.950
12765W        W85025  14.094  34.464  10.680
12766W        W85026  29.389   8.646  13.794
12767W        W85027  39.803  17.076  10.763
12768W        W85028   8.336  36.473  13.037
12769W        W85029  22.727   5.737   2.097
12770W        W85030   0.417  39.022  11.956
12771W        W85031  26.996   3.751  10.596
12772W        W85032  39.221  18.948   4.654
12773W        W85033  10.166   0.595   0.762
12774W        W85034   8.237   3.471  12.077
12775W        W85035  22.200  19.191   0.910
12776W        W85036   1.899  30.384  14.060
12777W        W85037   6.300  28.092   1.588
12778W        W85038  33.406  22.726  10.744
12779W        W85039  27.905  35.531   2.758
12780W        W85040  29.351  41.954  12.075
12781W        W85041  37.911  44.892   5.079
12782W        W85042   0.782  40.547  13.841
12783W        W85043   1.427  40.744  13.495
12784W        W85044  18.440   9.685  14.609
12785W        W85045   6.256  43.559   1.421
12786W        W85046  10.400  36.405   0.406
12787W        W85047  15.881   1.307   4.482
12788W        W85048   9.213   8.039  12.419
12789W        W85049  22.989   4.239  13.422
12790W        W85050  22.241  23.576   1.385
12791W        W85051  12.125  10.177   1.980
12792W        W85052  28.049   9.075   4.674
12793W        W85053  20.275  43.820  14.602
12794W        W85054  23.944  33.368   4.166
12795W        W85055   9.609  23.664  13.964
12796W        W85056   1.426   8.845   1.297
12797W        W85057  20.982  33.479  14.925
12798W        W85058  41.305  42.013   1.913
12799W        W85059  26.731  35.822  11.240
12800W        W85060  40.926  42.431  13.529
12801W        W85061  39.977  18.044  10.566
12802W        W85062  42.809  39.062   1.951
12803W        W85063   7.850  20.773  13.185
12804W        W85064  43.231  32.898  14.208
12805W        W85065  39.447  18.536  12.560
12806W        W85066  14.204  22.035  13.754
12807W        W85067  14.947   8.349  11.099
12808W        W85068  17.124  24.462  12.937
12809W        W85069  14.576  14.650   3.284
12810W        W85070  10.919  39.283  14.830
12811W        W85071   7.152  10.876  11.636
12812W        W85072  31.383  30.035  13.202
12813W        W85073  39.058  31.272   1.566
12814W        W85074   3.848  13.757  10.904
12815W        W85075  10.691  41.257  14.752
12816W        W85076  43.286  44.315   3.186
12817W        W85077  21.272   6.207  12.569
12818W        W85078   5.353   2.823  11.969
12819W        W85079  23.750   8.135   3.797
12820W        W85080  17.203  35.141   0.876
12821W        W85081   7.199  30.401   3.320
12822W        W85082  22.412   8.170  11.514
12823W        W85083  17.088   4.557   0.738
12824W        W85084  35.449  33.093   3.682
12825W        W85085  13.512  42.605   0.572
12826W        W85086  15.888   7.949  13.935
12827W        W85087  33.953  25.958   1.740
12828W        W85088  12.903  14.221  13.452
12829W        W85089   8.689  16.386   1.388
12830W        W85090  11.823  29.427   1.388
12831W        W85091  38.326   0.167  14.332
12832W        W85092  37.634  34.241   2.240
12833W        W85093  40.033  44.024   4.226
12834W        W85094  17.034  21.611  14.409
12835W        W85095   4.720  16.978  14.890
12836W        W85096  10.443  27.155  10.924
12837W        W85097  41.168   5.263  11.287
12838W        W85098   3.241   5.371  12.953
12839W        W85099  24.432  31.796   0.417
12840W        W85100  44.553  11.345   0.963
12841W        W85101  11.744   2.701  14.816
12842W        W85102   2.295   8.930  10.983
12843W        W85103  42.206  12.428  11.907
12844W        W85104  35.476   0.016  11.554
12845W        W85105  39.127  15.968   5.008
12846W        W85106  24.115  11.863  11.592
12847W        W85107  11.796  34.143   2.639
12848W        W85108   6.113   7.996  12.065
12849W        W85109  43.884  31.119   0.276
12850W        W85110  34.623  19.387   2.743
12851W        W85111  22.061  26.388  14.837
12852W        W85112   2.868  38.087  12.336
12853W        W85113   3.458   9.815  14.791
12854W        W85114   1.494  21.620   2.172
12855W        W85115  28.058  18.840   4.535
12856W        W85116  36.490  32.374   0.854
12857W        W85117  34.936  35.985   2.330
12858W        W85118  34.855  28.886   3.045
12859W        W85119  13.401  29.211  13.375
12860W        W85120  19.768  28.569  10.736
12861W        W85121  30.042  16.271   4.542
12862W        W85122  43.844  29.682   2.711
12863W        W85123  42.431  10.795   1.772
12864W        W85124   0.492  34.204   1.717
12865W        W85125  11.004  16.085   1.012
12866W        W85126  12.666   4.225   0.269
12867W        W85127   1.619   2.651  13.223
12868W        W85128  14.172  17.308  13.328
12869W        W85129  18.591  27.425   0.702
12870W        W85130  33.649  15.048  10.613
12871W        W85131  21.742  12.186  14.791
12872W        W85132  17.661  11.189  14.051
12873W        W85133  19.167  23.989  11.595
12874W        W85134  15.693   4.739  11.110
12875W        W85135  41.287   9.708  12.391
12876W        W85136  41.254   7.724  12.460
12877W        W85137  11.380  12.457  11.553
12878W        W85138  10.680  30.404   0.984
12879W        W85139  42.747  40.044  12.114
12880W        W85140   0.063  34.557  12.782
12881W        W85141  41.719  36.213  13.465
12882W        W85142  31.842  24.073  13.187
12883W        W85143  11.092  44.263  11.544
12884W        W85144  28.234   8.297  10.048
12885W        W85145  19.378  40.752  12.827
12886W        W85146  32.927   0.290  12.661
12887W        W85147  43.114  24.565   3.845
12888W        W85148  18.983  36.296   0.830
12889W        W85149  20.297   3.940  13.965
12890W        W85150  33.819  11.280   1.284
12891W        W85151  35.582  11.835   1.408
12892W        W85152  23.379  27.499   0.684
12893W        W85153  10.778  12.189  10.730
12894W        W85154   6.444  34.384   0.980
12895W        W85155  44.306  39.746   0.961
12896W        W85156  41.306   3.431   4.132
12897W        W85157   6.962  19.196  13.343
12898W        W85158  14.942   6.646  14.383
12899W        W85159  17.227  39.430  14.258
12900W        W85160  40.080  13.852   3.266
12901W        W85161  44.412  12.597  12.995
12902W        W85162  44.476  36.917   3.760
12903W        W85163   2.949  36.546  12.870
12904W        W85164  32.676  42.236  14.920
12905W        W85165  12.761  27.784  12.744
12906W        W85166   9.645  33.155   0.019
12907W        W85167   7.724  21.529   0.433
12908W        W85168  26.066  41.862  10.288
12909W        W85169  36.714   1.343  13.170
12910W        W85170  31.250  33.412  12.458
12911W        W85171  20.237  32.975   1.476
12912W        W85172  38.052  21.461  11.094
12913W        W85173  27.889  25.631  14.515
12914W        W85174  19.029   1.286  11.571
12915W        W85175   6.765  28.660  13.966
12916W        W85176   8.460   5.736  12.672
12917W        W85177   7.089   2.656  10.625
12918W        W85178  10.113  27.809  14.537
12919W        W85179  13.844  22.680   4.271
12920W        W85180   1.546   2.747   1.991
12921W        W85181  15.100   0.765  13.034
12922W        W85182  13.587  43.050   4.105
12923W        W85183  23.504  15.373  11.001
12924W        W85184   9.687  44.482   2.408
12925W        W85185  12.713   7.624  12.052
12926W        W85186  34.183  39.563   3.785
12927W        W85187  40.539  39.939   3.407
12928W        W85188  15.563   5.661   1.612
12929W        W85189  29.038  13.252   2.334
12930W        W85190  10.338   2.735  14.848
12931W        W85191  20.377  27.256  11.188
12932W        W85192  43.722  23.632  14.878
12933W        W85193  43.807  16.304  13.661
12934W        W85194  24.593  33.176   0.305
12935W        W85195   0.471  21.625   3.110
12936W        W85196  33.540  10.045  14.898
12937W        W85197  42.753  38.720   3.373
12938W        W85198  22.128  27.629  11.396
12939W        W85199  26.092  26.233   0.364
12940W        W85200  38.025  36.384   2.433
12941W        W85201   4.868  27.176   1.101
12942W        W85202  34.091  29.045   1.441
12943W        W85203  16.280  21.708   0.841
12944W        W85204   0.816  39.966   4.114
12945W        W85205  16.273   0.203  12.602
12946W        W85206  42.988  35.567   2.595
12947W        W85207   3.188  14.335  14.410
12948W        W85208  25.049  33.936   2.426
12949W        W85209  38.133  29.389   4.014
12950W        W85210  20.860  34.527   3.898
12951W        W85211  28.403  23.532  13.271
12952W        W85212  40.718   2.720   2.895
12953W        W85213  39.248   5.348  11.203
12954W        W85214  42.633  41.363  11.729
12955W        W85215   1.436  29.995  11.109
12956W        W85216  42.470  36.710  14.482
12957W        W85217  20.500  44.856   2.328
12958W        W85218  15.617   8.270  11.812
12959W        W85219  34.147  15.980  13.128
12960W        W85220  26.629   9.067  12.498
12961W        W85221  31.048   2.750  13.944
12962W        W85222  27.295  25.595   0.275
12963W        W85223  20.537  23.583   2.836
12964W        W85224   7.160  14.698   3.310
12965W        W85225  39.464  20.618   1.899
12966W        W85226  44.795  37.053   1.613
12967W        W85227  12.012   2.893  12.955
12968W        W85228  34.850  34.849   1.803
12969W        W85229   2.957  17.793  14.759
12970W        W85230  36.148  35.442  13.774
12971W        W85231  43.268   2.933  14.267
12972W        W85232  37.862  39.732  11.066
12973W        W85233   6.328  19.803  13.017
12974W        W85234  13.587  28.674   2.658
12975W        W85235  14.176  33.154  12.849
12976W        W85236  42.285  10.700   4.777
12977W        W85237  18.504  27.949  13.965
12978W        W85238  31.033  32.108   9.760
12979W        W85239   0.453  12.702  13.045
12980W        W85240  26.387   8.174  13.039
12981W        W85241  44.377   6.739   2.594
12982W        W85242  33.225  27.959  11.835
12983W        W85243  39.746  31.711   2.303
12984W        W85244   0.265  20.528   1.427
12985W        W85245  43.423  37.376   0.733
12986W        W85246   5.877  31.694   1.253
12987W        W85247  15.753  33.448   2.390
12988W        W85248   1.275  22.614   1.782
12989W        W85249  20.421  13.812   0.879
12990W        W85250  44.311  38.788  14.947
12991W        W85251  27.581  29.948   0.006
12992W        W85252  28.639  42.497  11.964
12993W        W85253   5.281  38.866  11.284
12994W        W85254  40.960   6.993  13.366
12995W        W85255   7.598   2.839   3.861
12996W        W85256  34.100  38.069   1.287
12997W        W85257   2.981   0.148  11.007
12998W        W85258  35.040  13.690   3.086
12999W        W85259   9.669  20.706   2.766
13000W        W85260  35.448  42.017   3.533
13001W        W85261  24.236  19.879   1.446
13002W        W85262  29.652  18.013   3.276
13003W        W85263  10.677  44.451  14.955
13004W        W85264  36.146  38.576   4.062
13005W        W85265   0.682  44.829  12.764
13006W        W85266  43.069   8.433  11.125
13007W        W85267   2.444  41.029  12.655
13008W        W85268  18.257  14.254  13.321
13009W        W85269   5.690  14.794  12.927
13010W        W85270   8.087  27.088   0.408
13011W        W85271  30.541  11.171   2.090
13012W        W85272  31.348  23.287   4.151
13013W        W85273  41.143   2.883  13.040
13014W        W85274   6.926  26.186   2.212
13015W        W85275  38.924   0.974   0.789
13016W        W85276  20.277  23.452   0.657
13017W        W85277  36.072  15.631  14.237
13018W        W85278  26.073  29.939   1.636
13019W        W85279  18.291  20.706  13.972
13020W        W85280  42.567  17.782   2.746
13021W        W85281  32.842  16.851  12.408
13022W        W85282  33.017  37.237   1.914
13023W        W85283  15.079  35.664  10.518
13024W        W85284  27.331  43.457  11.952
13025W        W85285  29.019  44.744  12.002
13026W        W85286  39.442  35.833   3.213
13027W        W85287   4.151  18.208   2.317
13028W        W85288  31.861  19.940   1.791
13029W        W85289  40.223   1.771  14.883
13030W        W85290  44.883  33.622   3.183
13031W        W85291  19.547   6.328   3.742
13032W        W85292  41.238   4.251   3.595
13033W        W85293   1.423  25.347   4.042
13034W        W85294  34.677  37.060   3.433
13035W        W85295  19.711  22.178   2.733
13036W        W85296  16.624  31.583  11.654
13037W        W85297  25.560  39.677  11.179
13038W        W85298  25.579  11.167  10.766
13039W        W85299  41.874  21.665   1.865
13040W        W85300  43.938   9.100  14.068
13041W        W85301  32.044  36.189  11.443
13042W        W85302  27.484  20.233  13.553
13043W        W85303  42.833  29.708  10.992
13044W        W85304   7.296  17.709   0.375
13045W        W85305  22.042  19.689  11.591
13046W        W85306  25.480  18.113   4.114
13047W        W85307  31.093   8.852  13.436
13048W        W85308  14.696  13.174   4.584
13049W        W85309  18.715  17.230   1.231
13050W        W85310  10.115  19.546  12.797
13051W        W85311   4.281  36.987   0.285
13052W        W85312  27.077  25.630  10.774
13053W        W85313  38.487   1.417   4.032
13054W        W85314  37.451  16.855  13.077
13055W        W85315  43.870  33.040   3.825
13056W        W85316   5.868  22.819   2.754
13057W        W85317  10.907  17.346  13.439
13058W        W85318  24.721  28.047   3.353
13059W        W85319  25.442   5.095   3.311
13060W        W85320  10.678   3.213   3.067
13061W        W85321  12.609   5.770  10.823
13062W        W85322  28.968  33.149  11.056
13063W        W85323  43.014  33.339   2.249
13064W        W85324  21.207  30.980  14.024
13065W        W85325  21.838  16.013   2.795
13066W        W85326  36.144  23.433   2.469
13067W        W85327  29.132  30.188   4.021
13068W        W85328  28.258   4.531   4.149
13069W        W85329   2.443  41.235  13.406
13070W        W85330   5.320  38.855   3.314
13071W        W85331   9.189  13.873   3.381
13072W        W85332  29.638  39.526   4.380
13073W        W85333  18.023  32.582  12.125
13074W        W85334  17.056  43.663  12.619
13075W        W85335  32.839  14.043   1.709
13076W        W85336  15.693  43.076  13.572
13077W        W85337  19.577  21.165  11.823
13078W        W85338  40.596  30.504  10.757
13079W        W85339   6.794  25.044   5.071
13080W        W85340  44.438  11.918   2.410
13081W        W85341  37.139  17.192   2.254
13082W        W85342  11.896  19.211   1.177
13083W        W85343  20.033  29.953   3.194
13084W        W85344   8.435  35.388  13.998
13085W        W85345  40.415  12.266  11.322
13086W        W85346  14.973  10.799   0.797
13087W        W85347   1.990  29.168   4.858
13088W        W85348  38.129  33.949  10.980
13089W        W85349   2.851  38.444   4.155
13090W        W85350  20.514  23.471  14.351
13091W        W85351  26.638  37.133  11.179
13092W        W85352   8.288  26.066  13.157
13093W        W85353  20.751  25.153  13.939
13094W        W85354  40.826   8.888  13.778
13095W        W85355  41.750  19.490   2.846
13096W        W85356  41.000  17.969  12.098
13097W        W85357  28.713  36.665  11.520
13098W        W85358   9.543  20.727   4.957
13099W        W85359   0.313  11.349  13.573
13100W        W85360  21.894  14.733   2.212
13101W        W85361  27.070   0.057   2.673
13102W        W85362  10.282  44.966   4.856
13103W        W85363  36.052   1.189  13.516
13104W        W85364   2.853   4.264  13.701
13105W        W85365   1.592  25.515  11.924
13106W        W85366  37.100  41.094   3.898
13107W        W85367   5.889  29.511   2.047
13108W        W85368  44.667  12.600  12.520
13109W        W85369  11.255  31.005   3.134
13110W        W85370  15.243  36.417  13.859
13111W        W85371  33.592  15.084  11.530
13112W        W85372  10.303  44.477   4.698
13113W        W85373  16.117  16.114  14.401
13114W        W85374  13.577  34.471  10.663
13115W        W85375  35.063  43.559  10.704
13116W        W85376  29.131  42.462   3.744
13117W        W85377   9.319  38.233   0.583
13118W        W85378   2.429  38.380   2.816
13119W        W85379  34.497  41.567  11.186
13120W        W85380  38.101  38.951  11.636
13121W        W85381  12.839  15.513   3.163
13122W        W85382  25.099  21.178  13.281
13123W        W85383   9.183  14.138  11.069
13124W        W85384  25.129  13.750  11.545
13125W        W85385  39.075  27.448  11.114
13126W        W85386  42.895  24.012   0.238
13127W        W85387  40.590  24.555  12.891
13128W        W85388   3.515  30.100  13.447
13129W        W85389   1.752  39.474   3.346
13130W        W85390  41.855  44.470  11.553
13131W        W85391  43.590  32.010   0.207
13132W        W85392  40.651  25.963   4.356
13133W        W85393  12.962   0.476  11.362
13134W        W85394  13.160  40.865   0.970
13135W        W85395  29.620   5.960   0.442
13136W        W85396  28.391  39.918  11.461
13137W        W85397  12.453   3.661   1.829
13138W        W85398  31.263  41.093  12.636
13139W        W85399  35.521   3.957   3.708
13140W        W85400   9.084  41.953   4.404
13141W        W85401  10.727  31.127   3.903
13142W        W85402  37.621  44.443   0.437
13143W        W85403  14.311   2.693  14.047
13144W        W85404  39.546  31.069   1.768
13145W        W85405  38.662  36.500   4.239
13146W        W85406  20.535  28.050   2.792
13147W        W85407  41.398  23.684  14.564
13148W        W85408  25.779  43.572  14.263
13149W        W85409  28.370  35.501  10.212
13150W        W85410  40.433  24.929   2.133
13151W        W85411  28.057  39.844   0.874
13152W        W85412  15.766   9.552  13.076
13153W        W85413   0.563  20.629   4.944
13154W        W85414  41.306  19.580  14.797
13155W        W85415  25.160   5.900   2.803
13156W        W85416   5.298  24.142  11.994
13157W        W85417   3.743  30.032  12.972
13158W        W85418  25.452  13.222  10.641
13159W        W85419  10.354  18.124   1.106
13160W        W85420  15.856   8.614  12.389
13161W        W85421  32.595  24.983  14.981
13162W        W85422  33.686  40.131   1.979
13163W        W85423  39.544  28.118  13.565
13164W        W85424  40.407  41.198  13.384
13165W        W85425  16.620  30.198   1.289
13166W        W85426  31.209   7.239  14.000
13167W        W85427  20.715   6.621   0.425
13168W        W85428  25.010  11.178  10.717
13169W        W85429  35.911  33.160   0.945
13170W        W85430   7.552   0.493   1.936
13171W        W85431  42.890  35.631   0.037
13172W        W85432  24.687  16.261   3.028
13173W        W85433  14.067  17.223  14.443
13174W        W85434  35.451  17.062   4.060
13175W        W85435  24.476  15.375   3.566
13176W        W85436  30.922  44.708  11.883
13177W        W85437   8.684  29.027  14.827
13178W        W85438  29.200  37.505  10.713
13179W        W85439  34.909  29.552  11.597
13180W        W85440  18.179  41.068  13.966
13181W        W85441  35.555  12.645   1.865
13182W        W85442  13.105  35.033  13.852
13183W        W85443  33.570  18.861  14.722
13184W        W85444  14.280  42.285   2.350
13185W        W85445  13.883   8.800   1.801
13186W        W85446  23.913  27.081   3.166
13187W        W85447  23.953  30.626   4.499
13188W        W85448  10.317  16.012  11.017
13189W        W85449  31.177   7.824   1.416
13190W        W85450  21.716  29.423  13.275
13191W        W85451   1.821  37.823  12.596
13192W        W85452  33.433  44.085  10.224
13193W        W85453  41.259  33.178   0.821
13194W        W85454  38.507  34.650   4.760
13195W        W85455  43.450  32.365  13.369
13196W        W85456  11.826  39.981   3.125
13197W        W85457  34.520  36.652   4.479
13198W        W85458  21.033  32.200   0.786
13199W        W85459  24.258   1.227   1.798
13200W        W85460  32.637   4.994  11.956
13201W        W85461  37.627   8.630   1.172
13202W        W85462   6.837   8.241  13.230
13203W        W85463  25.097  31.383   2.272
13204W        W85464  27.600   1.319   2.928
13205W        W85465  25.958  39.293   1.281
13206W        W85466  22.150   5.207   1.408
13207W        W85467   7.310  18.054   2.228
13208W        W85468  11.356  16.641   2.304
13209W        W85469  37.370   2.985  12.088
13210W        W85470  20.957  36.787  13.526
13211W        W85471  35.587  18.130  14.386
13212W        W85472  27.772  34.534  11.043
13213W        W85473  34.413  16.771  13.843
13214W        W85474  28.696   7.377   0.803
13215W        W85475   1.075  30.732  12.586
13216W        W85476  38.097  33.894  10.063
13217W        W85477  14.633  21.251   3.261
13218W        W85478  39.779   9.360   0.818
13219W        W85479  37.332   0.201   2.390
13220W        W85480  20.666  30.273   2.108
13221W        W85481  31.940   5.109   0.345
13222W        W85482   8.264  41.595  12.236
13223W        W85483  34.903   5.073   4.034
13224W        W85484  12.393  31.169   2.279
13225W        W85485  22.335  43.850   3.776
13226W        W85486  42.957  26.528  12.803
13227W        W85487  34.308  40.372  11.974
13228W        W85488   5.311  14.114  13.957
13229W        W85489  29.393  13.607   2.246
13230W        W85490  34.140  10.368   0.988
13231W        W85491   7.721  18.861   3.685
13232W        W85492  40.565   5.713  13.396
13233W        W85493   3.837  21.661  13.168
13234W        W85494  31.662  44.390  12.919
13235W        W85495  43.405  34.058   2.808
13236W        W85496  26.144  12.767  14.057
13237W        W85497  13.375  15.664   0.952
13238W        W85498  23.148   4.659  11.991
13239W        W85499   9.699  39.425   3.129
13240W        W85500  15.212  41.591   0.964
13241W        W85501  29.095  17.277  12.825
13242W        W85502  36.379   0.838  11.405
13243W        W85503  16.439   9.389   3.311
13244W        W85504  39.310  41.975  13.952
13245W        W85505   4.802  38.584   4.546
13246W        W85506   5.742  15.829  10.578
13247W        W85507  34.902  16.639  13.949
13248W        W85508  23.412  10.888  11.128
13249W        W85509  23.511  17.177   4.042
13250W        W85510  15.172  30.573   1.363
13251W        W85511  33.523  13.074   0.852
13252W        W85512  11.207  24.662  11.535
13253W        W85513  26.045  24.998  10.866
13254W        W85514  17.097  14.909   2.752
13255W        W85515  15.569  37.411   5.075
13256W        W85516  28.568  21.238  11.700
13257W        W85517  30.793  16.303  14.288
13258W        W85518  27.403  39.970   4.949
13259W        W85519  29.937  27.159   3.183
13260W        W85520  43.487  27.210   1.848
13261W        W85521   2.947  28.516   3.141
13262W        W85522  11.086  19.089  11.522
13263W        W85523  27.500  19.589  11.588
13264W        W85524  23.096  27.111   0.024
13265W        W85525   7.820  39.350  14.503
13266W        W85526  32.689  25.844  13.980
13267W        W85527  42.810  26.940  13.061
13268W        W85528   5.645  11.576   4.978
13269W        W85529  28.709  43.487  14.510
13270W        W85530  24.151  28.135   3.623
13271W        W85531  21.755  30.621   2.277
13272W        W85532  14.615  42.490  10.683
13273W        W85533  28.949  32.078  10.608
13274W        W85534  11.916   3.744  11.176
13275W        W85535  33.941  29.194  12.515
13276W        W85536  22.106  23.118   1.692
13277W        W85537  37.889   9.609  11.824
13278W        W85538   8.835  26.521   4.589
13279W        W85539   3.226  27.425   4.138
13280W        W85540  39.323  28.541  12.662
13281W        W85541  40.263  44.726   2.606
13282W        W85542   5.866  21.430  14.762
13283W        W85543  23.505  11.337   2.974
13284W        W85544  34.721  28.098  13.005
13285W        W85545  39.466  42.750   2.656
13286W        W85546   2.914  37.950   2.320
13287W        W85547  40.978   9.831  14.248
13288W        W85548   4.253   6.758  13.429
13289W        W85549  44.165  12.305   4.228
13290W        W85550  27.969  28.209  12.837
13291W        W85551  33.199  13.720   3.184
13292W        W85552  29.534  34.023  13.020
13293W        W85553   3.641   3.527  11.366
13294W        W85554  11.644  15.182  10.711
13295W        W85555  36.148   0.430  13.410
13296W        W85556  39.490   0.283   4.048
13297W        W85557   6.461  23.616   0.575
13298W        W85558  28.029  31.936   4.176
13299W        W85559  43.335  11.378  13.032
13300W        W85560  18.678  31.036   0.331
13301W        W85561  37.801  29.968   0.526
13302W        W85562  21.801  21.951   2.994
13303W        W85563  26.127  40.500   4.807
13304W        W85564   6.877  44.359  10.711
13305W        W85565  10.587  31.929  12.891
13306W        W85566  39.709  17.576   0.000
13307W        W85567  37.798  21.675   3.691
13308W        W85568  14.628  15.080  12.989
13309W        W85569  33.022  28.113  13.337
13310W        W85570  17.146   7.911  12.393
13311W        W85571  40.981  32.499   2.288
13312W        W85572  29.563   4.726  13.652
13313W        W85573  11.673  42.118  13.946
13314W        W85574   2.295  41.019   3.785
13315W        W85575  18.993   8.314  13.421
13316W        W85576   6.453   1.062   2.742
13317W        W85577  15.509  39.647   2.391
13318W        W85578   1.292  14.277  10.538
13319W        W85579  27.571  37.515  11.030
13320W        W85580  28.077  24.499  11.463
13321W        W85581  34.148   6.686  12.199
13322W        W85582  12.447  43.774   3.168
13323W        W85583  28.513  41.864  13.377
13324W        W85584  41.978   5.419   2.094
13325W        W85585  19.676  25.903   2.318
13326W        W85586  13.217  33.495   1.855
13327W        W85587   2.662  26.387  12.114
13328W        W85588   0.492  34.477   4.140
13329W        W85589  32.736  26.457  14.877
13330W        W85590  41.266   0.271  12.678
13331W        W85591  24.282  18.070  13.618
13332W        W85592  28.647  40.944  11.882
13333W        W85593  35.423  23.232  11.131
13334W        W85594  27.861  10.459  11.850
13335W        W85595   5.239  10.689   3.632
13336W        W85596  26.544  34.016  14.173
13337W        W85597   3.769  34.406  12.298
13338W        W85598  29.961   2.931   0.460
13339W        W85599  14.668  12.835   0.375
13340W        W85600  33.055  18.158   3.327
13341W        W85601  19.552   3.648   1.511
13342W        W85602  12.601   3.481  12.841
13343W        W85603   4.794  15.298   4.742
13344W        W85604  11.239  12.665  13.547
13345W        W85605  25.136  44.230  13.489
13346W        W85606  19.322  36.639  11.025
13347W        W85607  42.945  25.899  11.147
13348W        W85608  21.843  38.871  14.014
13349W        W85609  16.054   4.059   1.732
13350W        W85610  27.564   9.151  10.763
13351W        W85611  12.310   4.499   4.338
13352W        W85612  40.460  15.267   1.326
13353W        W85613   9.452  44.487   0.163
13354W        W85614  24.753   6.700   3.343
13355W        W85615  19.109  41.355  11.745
13356W        W85616  32.823   9.711   3.655
13357W        W85617  11.836  16.850   1.281
13358W        W85618  37.088   0.462   4.248
13359W        W85619  31.105   2.244   1.158
13360W        W85620  30.437  44.952   2.268
13361W        W85621  23.921   3.906   4.643
13362W        W85622  43.754  42.669   0.252
13363W        W85623  43.421  27.496  14.931
13364W        W85624  16.260  17.563  12.626
13365W        W85625   4.192  40.514  14.222
13366W        W85626  42.030  19.436  13.577
13367W        W85627  31.760  43.088   5.080
13368W        W85628  20.581  43.358   4.010
13369W        W85629  29.103  38.005  10.626
13370W        W85630   1.983  29.866   3.264
13371W        W85631  38.307   5.808  11.866
13372W        W85632  43.533   0.754   3.216
13373W        W85633  27.631  42.226   2.724
13374W        W85634  15.501  36.371   3.525
13375W        W85635   7.717   9.690   0.924
13376W        W85636  30.610  17.175  11.330
13377W        W85637  24.756  23.084   0.968
13378W        W85638   5.432   7.946   0.405
13379W        W85639  32.847  28.587  13.093
13380W        W85640  20.493  30.018   1.252
13381W        W85641  27.920  26.492  10.552
13382W        W85642  23.196  39.724  12.022
13383W        W85643   0.552  40.119  13.449
13384W        W85644  29.873  24.920   0.525
13385W        W85645  15.774  41.324   0.354
13386W        W85646  15.842   3.851  12.818
13387W        W85647  37.481  28.705   4.842
13388W        W85648   1.177  25.033  12.522
13389W        W85649   4.751  41.975   1.762
13390W        W85650  17.778  28.396   3.945
13391W        W85651  38.432  19.545   1.704
13392W        W85652  17.614   8.916  14.004
13393W        W85653  33.142  32.210  11.915
13394W        W85654  40.472  32.333   4.063
13395W        W85655  17.180   7.313  14.534
13396W        W85656  11.283  18.282  12.619
13397W        W85657   0.386  24.488  13.610
13398W        W85658  31.156  38.055   2.375
13399W        W85659  21.621  21.508  11.090
13400W        W85660   7.719  34.571  10.745
13401W        W85661  37.386  24.961   2.287
13402W        W85662  10.476   8.756   4.479
13403W        W85663  14.400  42.223   4.604
13404W        W85664  36.981   4.665   2.655
13405W        W85665  14.894  35.603  10.990
13406W        W85666  21.998  38.056  11.262
13407W        W85667  16.364  19.171   1.899
13408W        W85668  27.666   8.859   3.298
13409W        W85669  16.049  34.144   4.257
13410W        W85670  17.046  31.959  14.403
13411W        W85671   4.788  37.684   4.218
13412W        W85672  13.036  17.339  14.503
13413W        W85673  35.297   7.486   0.459
13414W        W85674  33.033  12.862  13.599
13415W        W85675  15.018  28.401   4.769
13416W        W85676  42.097   2.718  13.100
13417W        W85677  24.157  42.291   0.340
13418W        W85678  20.148  30.508  10.973
13419W        W85679  34.570  31.015  12.456
13420W        W85680  25.496  16.162  11.493
13421W        W85681  12.643  26.570  13.978
13422W        W85682  34.966  22.337   4.228
13423W        W85683  37.717  21.684  12.311
13424W        W85684   8.370  38.781  14.979
13425W        W85685   4.847  41.453   9.787
13426W        W85686  44.873  31.865   3.747
13427W        W85687   4.850  26.515  12.526
13428W        W85688  37.520  39.146  13.580
13429W        W85689   8.921  35.385  10.667
13430W        W85690  20.236  16.188  10.997
13431W        W85691  25.228  18.251  14.490
13432W        W85692  22.706  18.848   1.316
13433W        W85693  25.000  38.283  13.331
13434W        W85694  44.743  17.132   9.644
13435W        W85695  10.430  41.359   3.734
13436W        W85696  40.378  27.275   1.187
13437W        W85697  27.994  17.154   2.705
13438W        W85698  41.973  22.683   0.997
13439W        W85699  40.013  35.929   0.047
13440W        W85700  39.839  29.203   0.366
13441W        W85701   7.923   4.272  10.682
13442W        W85702   2.391  13.835   0.905
13443W        W85703   3.000   8.516   0.992
13444W        W85704  17.090   2.110  11.149
13445W        W85705   0.530   7.284  10.813
13446W        W85706   7.761   9.260   4.772
13447W        W85707  43.568  39.794  13.574
13448W        W85708  32.128   8.169  12.605
13449W        W85709   0.527  14.233   3.654
13450W        W85710  39.979  27.006   2.911
13451W        W85711  34.791  38.949  10.690
13452W        W85712   5.809   8.729   4.538
13453W        W85713  43.411  41.351   3.579
13454W        W85714  11.417  30.681   1.605
13455W        W85715  26.476  24.084  13.877
13456W        W85716  28.489   9.163  12.008
13457W        W85717  17.022   4.962  10.237
13458W        W85718  21.552  29.430  12.420
13459W        W85719  17.389  38.354   0.740
13460W        W85720  29.119  23.256   1.286
13461W        W85721  31.589  20.354  14.944
13462W        W85722  25.188  16.285  13.368
13463W        W85723  21.115  29.756  14.514
13464W        W85724  31.462   1.384   3.206
13465W        W85725  12.205   2.704  14.558
13466W        W85726  19.827  25.266  10.628
13467W        W85727  24.186  16.688  12.547
13468W        W85728  15.503   1.799   2.868
13469W        W85729  37.121   1.345  12.312
13470W        W85730  40.897   1.517   1.349
13471W        W85731  26.427  39.200   2.183
13472W        W85732   3.343  24.520  12.865
13473W        W85733  11.249  20.200  13.589
13474W        W85734  14.673  11.239   1.257
13475W        W85735  19.336  19.689  13.827
13476W        W85736  13.713  17.646   1.678
13477W        W85737  24.151  43.962  14.983
13478W        W85738   8.247   4.250  11.641
13479W        W85739  19.076   1.415   1.681
13480W        W85740  27.126  36.041  12.335
13481W        W85741   7.770  20.343  11.859
13482W        W85742  20.025  22.914  13.891
13483W        W85743  12.769  18.087   1.863
13484W        W85744  24.898   0.784  14.078
13485W        W85745  14.479  16.247  12.461
13486W        W85746   7.379   0.505   1.071
13487W        W85747  28.521  38.225  14.802
13488W        W85748  41.290  23.260  12.992
13489W        W85749  29.096  14.676   2.332
13490W        W85750  14.765   9.972   0.474
13491W        W85751  19.357  34.428  14.091
13492W        W85752  34.722  32.581  12.644
13493W        W85753  26.752   2.447  14.971
13494W        W85754  35.590  28.532  12.029
13495W        W85755  35.074   9.692  10.705
13496W        W85756   5.150  34.409  11.145
13497W        W85757  16.853  12.854  13.021
13498W        W85758   8.416  24.162   1.261
13499W        W85759  42.340  32.478   0.355
13500W        W85760  15.978  36.553  14.520
13501W        W85761   9.754  37.582  10.744
13502W        W85762  38.725  29.467  13.109
13503W        W85763  26.660  40.922   4.115
13504W        W85764  17.695  22.499   3.325
13505W        W85765  18.162  12.585   3.240
13506W        W85766  22.863  30.440   5.112
13507W        W85767  12.628  30.978  14.356
13508W        W85768  13.983   7.720  10.716
13509W        W85769  19.125  35.228  11.220
13510W        W85770  33.819  40.954  12.398
13511W        W85771  37.423  29.107  11.901
13512W        W85772  44.594  14.366   1.900
13513W        W85773  17.395  26.585  10.077
13514W        W85774  22.530  37.613  13.819
13515W        W85775   2.715  17.230   2.729
13516W        W85776  37.522  27.694   3.440
13517W        W85777   1.202  27.085   0.035
13518W        W85778  18.323   1.379  11.115
13519W        W85779   3.820  41.768   2.737
13520W        W85780   6.157  41.450  13.410
13521W        W85781  13.825  42.429   0.188
13522W        W85782  44.030  24.584   1.447
13523W        W85783   3.601  22.264   9.863
13524W        W85784  23.628  35.310   2.634
13525W        W85785  39.935  37.278   0.767
13526W        W85786  38.538  11.841   1.224
13527W        W85787   4.166  24.785  11.082
13528W        W85788  19.872  38.559   3.015
13529W        W85789  13.296  25.759  13.866
13530W        W85790  42.792  12.427  11.129
13531W        W85791  10.473  33.114  11.308
13532W        W85792  17.795  26.747  10.389
13533W        W85793  29.699  10.292  10.760
13534W        W85794  43.193   5.661   0.770
13535W        W85795  27.981  40.227   9.721
13536W        W85796   3.388  38.355   1.467
13537W        W85797   6.314  42.915   3.811
13538W        W85798  11.855  25.255   2.188
13539W        W85799  13.076  34.773   4.158
13540W        W85800  31.468  15.999   1.901
13541W        W85801   7.574  22.129  10.646
13542W        W85802  42.858  28.709  13.820
13543W        W85803  25.447  14.643   4.022
13544W        W85804   9.966  13.824  14.616
13545W        W85805  13.129  31.288   1.820
13546W        W85806  30.895   7.139   4.437
13547W        W85807  15.543  42.718  12.873
13548W        W85808  37.832  19.498   2.884
13549W        W85809  11.102  44.789   2.736
13550W        W85810   6.312  14.369   0.828
13551W        W85811  39.066  42.259   4.266
13552W        W85812  41.835   1.789  12.994
13553W        W85813  14.715   6.183  13.731
13554W        W85814  20.461   9.246   3.138
13555W        W85815  16.426   7.376   4.111
13556W        W85816  30.000   0.696   3.715
13557W        W85817  41.043  19.093  13.822
13558W        W85818  11.945   9.136   4.317
13559W        W85819  23.268  18.185   5.327
13560W        W85820  12.278  11.714   2.777
13561W        W85821  44.269  26.386   1.348
13562W        W85822  22.604  19.110   2.759
13563W        W85823  15.700  31.403   1.873
13564W        W85824  18.446   8.354   3.755
13565W        W85825  39.901  44.397  13.573
13566W        W85826   4.922  16.643  13.439
13567W        W85827   7.062  41.167   3.436
13568W        W85828  15.242  12.081  14.907
13569W        W85829  44.966  17.530   3.885
13570W        W85830  20.304  33.978   0.879
13571W        W85831  37.420   8.688   2.866
13572W        W85832  38.568  39.892   2.829
13573W        W85833   8.817  15.847   9.937
13574W        W85834  17.689  22.539  13.415
13575W        W85835  26.058   9.292   3.536
13576W        W85836  38.128   4.739  11.686
13577W        W85837   2.746  22.738   0.955
13578W        W85838  33.617   0.080  11.594
13579W        W85839  14.104  40.993  11.630
13580W        W85840  16.101  19.051   3.327
13581W        W85841  38.710  28.639   4.348
13582W        W85842  34.859  40.372   0.921
13583W        W85843   5.780  30.020  12.516
13584W        W85844  17.757  18.088   4.166
13585W        W85845  31.472  18.074   4.181
13586W        W85846  38.379  17.347  13.052
13587W        W85847  38.978  41.747  11.088
13588W        W85848  13.740  27.860   0.295
13589W        W85849  44.669  19.865  11.937
13590W        W85850  28.172   0.400   4.000
13591W        W85851   9.929  23.183   1.191
13592W        W85852  34.386   0.319   0.349
13593W        W85853  28.977   2.347  10.678
13594W        W85854  17.783  25.998   2.414
13595W        W85855  31.639  17.248  14.686
13596W        W85856   9.318  26.669   2.593
13597W        W85857  34.395  29.802   4.092
13598W        W85858  21.240   8.222   2.389
13599W        W85859  26.813  31.964   2.823
13600W        W85860  40.139  22.766   2.680
13601W        W85861  39.818  25.666  10.647
13602W        W85862  42.721  36.094   1.355
13603W        W85863  30.589   5.657   2.829
13604W        W85864  34.603   9.702   0.987
13605W        W85865  17.616  43.983   2.775
13606W        W85866  16.594  29.319  12.009
13607W        W85867  13.338   2.359  11.094
13608W        W85868   6.414   3.345  13.274
13609W        W85869  21.951   1.371   4.113
13610W        W85870  35.612  18.614   5.107
13611W        W85871  37.910  14.390  12.497
13612W        W85872  20.436   9.719   1.865
13613W        W85873  17.041  11.761  10.699
13614W        W85874  12.381  16.237   5.073
13615W        W85875  29.016  17.116   2.804
13616W        W85876  16.109   8.480   3.746
13617W        W85877  37.993  37.538  14.975
13618W        W85878  44.313  13.809   0.264
13619W        W85879   9.429  29.004   0.316
13620W        W85880  30.188   8.082   3.265
13621W        W85881   1.460  27.282   3.808
13622W        W85882  43.368  18.806  13.004
13623W        W85883  14.143  16.309   3.559
13624W        W85884  14.933  34.474  12.967
13625W        W85885  10.303  44.807   0.046
13626W        W85886  15.833  19.721   3.206
13627W        W85887   3.403  10.592   4.999
13628W        W85888  12.205  41.247   2.211
13629W        W85889  32.861   2.041  11.105
13630W        W85890  23.128   5.213   3.998
13631W        W85891  12.355  25.689  12.486
13632W        W85892  23.077  30.897   4.231
13633W        W85893  11.778  24.115   3.040
13634W        W85894  40.482  19.405   0.706
13635W        W85895  29.507  41.578   4.523
13636W        W85896   1.855  10.685   4.749
13637W        W85897  27.601  43.566  13.021
13638W        W85898   2.747  27.458   1.199
13639W        W85899  24.586  36.509   3.684
13640W        W85900  21.067  30.238  13.471
13641W        W85901   4.228  42.599  11.197
13642W        W85902  19.143  17.195  13.455
13643W        W85903  16.561  33.903  12.727
13644W        W85904   0.758  22.662  10.201
13645W        W85905  43.014  27.786  14.768
13646W        W85906  34.453  36.801   2.569
13647W        W85907  35.099  22.022  12.141
13648W        W85908  27.347  15.059  13.319
13649W        W85909  17.161  19.528  13.365
13650W        W85910  42.231  16.403   0.717
13651W        W85911  38.984   5.001   4.560
13652W        W85912  30.072  29.810   9.768
13653W        W85913   2.671  13.723  12.429
13654W        W85914   3.492  22.069   0.762
13655W        W85915  30.123  27.930  11.946
13656W        W85916  35.807  40.678   2.792
13657W        W85917   2.901  20.646  10.751
13658W        W85918   1.228  30.138   3.027
13659W        W85919   0.291  15.765  11.505
13660W        W85920  13.699  40.997   3.923
13661W        W85921   2.802  15.805  12.269
13662W        W85922  10.346   6.587   4.842
13663W        W85923   5.941  30.370   0.762
13664W        W85924  44.264  12.417   2.413
13665W        W85925  31.665  15.280  11.007
13666W        W85926   5.600  18.654   0.791
13667W        W85927  33.207  12.660  12.227
13668W        W85928  35.889   7.445   1.696
13669W        W85929  13.540  37.790  12.658
13670W        W85930  10.834  18.455  11.125
13671W        W85931  28.202   9.348  11.322
13672W        W85932   4.947   3.258   3.563
13673W        W85933  38.290  26.441   1.778
13674W        W85934  18.359   9.391   2.320
13675W        W85935  31.366  29.577  11.879
13676W        W85936  25.040  43.100  12.489
13677W        W85937  37.063  33.834   2.864
13678W        W85938  21.349  26.971   3.294
13679W        W85939  18.755  29.406  12.515
13680W        W85940   4.256  15.021  13.837
13681W        W85941  20.792  42.965  14.304
13682W        W85942   5.656  15.904   0.006
13683W        W85943   6.943  35.522  14.954
13684W        W85944  19.224  38.122  14.798
13685W        W85945  43.291   0.057  14.569
13686W        W85946  35.959  41.893  12.432
13687W        W85947  19.852  40.755   0.745
13688W        W85948  18.577  33.508   3.652
13689W        W85949  19.737  40.980  12.019
13690W        W85950  13.412  41.341   0.971
13691W        W85951  16.612  28.358   9.968
13692W        W85952  27.931  39.905   4.212
13693W        W85953   4.631   5.811   2.354
13694W        W85954  38.327  14.495   3.846
13695W        W85955   7.869  25.391   3.558
13696W        W85956  34.531  32.594   3.602
13697W        W85957  30.462  43.368  11.447
13698W        W85958   3.595  35.488  11.115
13699W        W85959   1.317   1.710  13.019
13700W        W85960   3.424  25.693   3.221
13701W        W85961   2.401  10.661   2.378
13702W        W85962  32.778  18.739   2.264
13703W        W85963  43.766  41.609   3.839
13704W        W85964  20.066  23.813  10.238
13705W        W85965   9.269  12.427   3.239
13706W        W85966  15.977  31.677   4.196
13707W        W85967   5.995  39.605  13.789
13708W        W85968  42.394  25.017  12.922
13709W        W85969   8.788  17.306   1.267
13710W        W85970  40.620  35.004   2.741
13711W        W85971  19.575  25.375   2.351
13712W        W85972  23.525  34.026  12.865
13713W        W85973   8.077  44.514   5.042
13714W        W85974  42.446  36.649   3.501
13715W        W85975  35.882  22.023  10.505
13716W        W85976  13.150  19.782   1.756
13717W        W85977  43.785   7.798  11.141
13718W        W85978  42.235  10.707   1.256
13719W        W85979  30.448  32.523  14.817
13720W        W85980  11.028   6.095   1.834
13721W        W85981  18.575  39.538  11.975
13722W        W85982  14.264  44.822   3.646
13723W        W85983  37.801  25.970  11.425
13724W        W85984  24.890   0.969   0.532
13725W        W85985  38.566  22.275   4.617
13726W        W85986  42.378   8.296  12.397
13727W        W85987  44.925  15.343   4.960
13728W        W85988  35.965  37.419   0.382
13729W        W85989  43.960  27.964   1.049
13730W        W85990  14.362  41.733   4.755
13731W        W85991   3.206  43.690   2.313
13732W        W85992  28.078  28.202   2.185
13733W        W85993  30.740  34.898  14.828
13734W        W85994   4.315   1.814   1.363
13735W        W85995   8.031   6.794   1.826
13736W        W85996  28.884  21.627   4.215
13737W        W85997  11.220   0.496  12.139
13738W        W85998  36.408  28.126   0.513
13739W        W85999   9.128  33.018   0.001
13740W        W86000  42.365   1.191   1.704
13741W        W86001  40.166  31.683  13.001
13742W        W86002  16.225   3.879  14.717
13743W        W86003  37.044  32.047  11.718
13744W        W86004  15.787  24.649   2.193
13745W        W86005  32.623  13.330  11.139
13746W        W86006   0.197   3.323   0.813
13747W        W86007  39.292  14.834  11.151
13748W        W86008  26.672   8.135   0.249
13749W        W86009  16.803  35.800  13.787
13750W        W86010  17.594  17.718   0.051
13751W        W86011  20.593   5.331   1.465
13752W        W86012  33.341  35.057   1.836
13753W        W86013  21.728  32.488  13.598
13754W        W86014   3.123  36.281   4.094
13755W        W86015  27.042  11.258   3.722
13756W        W86016  14.250  42.980  14.554
13757W        W86017  38.410  18.674   2.623
13758W        W86018   5.521  22.539  11.991
13759W        W86019  38.037  14.650   4.612
13760W        W86020  14.361   3.424   2.737
13761W        W86021  23.046  21.800   2.624
13762W        W86022   2.463  14.664  14.964
13763W        W86023   4.460  17.378   3.770
13764W        W86024  28.734   7.979  12.407
13765W        W86025  14.128  22.503  12.585
13766W        W86026  18.006  21.458   0.248
13767W        W86027  44.786  34.425  13.742
13768W        W86028   3.663  18.327   0.036
13769W        W86029  25.021  26.579   3.464
13770W        W86030  28.970  20.009   3.716
13771W        W86031  34.166  39.882   2.780
13772W        W86032  18.238  37.073  11.756
13773W        W86033   9.756   9.388   4.586
13774W        W86034  15.824  43.360   2.242
13775W        W86035  31.037  15.756  11.538
13776W        W86036  24.927  42.438   4.262
13777W        W86037  39.303  42.481  12.507
13778W        W86038  44.995  24.049   3.191
13779W        W86039   4.349  39.551  11.616
13780W        W86040  39.519  23.790  13.444
13781W        W86041   6.099  25.793   5.161
13782W        W86042  10.177   7.769   2.990
13783W        W86043  11.643  21.609   2.823
13784W        W86044  21.184  41.964   0.137
13785W        W86045  14.282   7.252  11.384
13786W        W86046  15.188  43.354   2.695
13787W        W86047  21.474  31.536   1.728
13788W        W86048  36.797  27.012  13.311
13789W        W86049  40.789  41.387   4.874
13790W        W86050  32.950   0.714   2.786
13791W        W86051  22.975  23.315  11.789
13792W        W86052   8.537  21.027  14.495
13793W        W86053  43.574  31.858  13.352
13794W        W86054  29.924  17.734  12.438
13795W        W86055  36.443  39.946   1.866
13796W        W86056  19.841  19.814   1.750
13797W        W86057  38.396  41.013  11.161
13798W        W86058   2.181  25.052   3.724
13799W        W86059  36.606  29.935   2.746
13800W        W86060  38.076  24.068   2.824
13801W        W86061  39.847  31.605   4.518
13802W        W86062  32.967  16.015  11.704
13803W        W86063  20.007  39.959   2.184
13804W        W86064  15.744  23.230   1.233
13805W        W86065  43.228   5.696  13.110
13806W        W86066  21.255   2.977   0.193
13807W        W86067   2.857   8.268  11.881
13808W        W86068  20.252   7.609  11.167
13809W        W86069   5.885  38.062  12.969
13810W        W86070  28.076  21.695   1.617
13811W        W86071  38.839  17.431   4.606
13812W        W86072  43.883  32.463  13.101
13813W        W86073   2.518  32.073  11.077
13814W        W86074  14.360  31.437   3.833
13815W        W86075  44.691  33.535   3.656
13816W        W86076  19.480  43.589   0.398
13817W        W86077  15.470  34.544  13.195
13818W        W86078   0.265  23.096  13.124
13819W        W86079  44.823  18.295  13.072
13820W        W86080  16.145  34.151  12.540
13821W        W86081   6.840  35.013   3.608
13822W        W86082  10.113   0.916  13.174
13823W        W86083  42.780  15.159  10.898
13824W        W86084  32.483  30.207  10.982
13825W        W86085  14.649   2.003   1.961
13826W        W86086  44.885  28.201   2.258
13827W        W86087  25.064   1.983  12.966
13828W        W86088  24.229  16.814   3.609
13829W        W86089   1.593  34.553  14.672
13830W        W86090  39.000  19.503  11.358
13831W        W86091  22.371   9.457  12.035
13832W        W86092  23.898  23.711  11.614
13833W        W86093  16.209   2.656   1.479
13834W        W86094  30.112   7.177   0.797
13835W        W86095  24.256   5.135   3.655
13836W        W86096  40.975  24.302  10.787
13837W        W86097  13.565  23.571   4.366
13838W        W86098   6.264  26.434   2.899
13839W        W86099   8.417  14.792  14.429
13840W        W86100  23.488  10.331  12.292
13841W        W86101   7.341  33.420   4.588
13842W        W86102  12.566  20.396  11.250
13843W        W86103  16.926  34.004  11.893
13844W        W86104  10.692  12.965   2.001
13845W        W86105  38.485  11.697  10.732
13846W        W86106  10.377  41.723  13.085
13847W        W86107   6.426  25.031  14.447
13848W        W86108  31.101  29.528  11.449
13849W        W86109  21.577  10.187   9.801
13850W        W86110  41.110  14.424  13.749
13851W        W86111   9.174  14.185  13.596
13852W        W86112  24.311  13.496   2.024
13853W        W86113  43.776  12.085   4.505
13854W        W86114  28.667  37.162  13.161
13855W        W86115  42.595  23.002  13.377
13856W        W86116  44.706  29.007  11.153
13857W        W86117  33.148  43.042  12.317
13858W        W86118  10.100   9.271   4.955
13859W        W86119  41.747  23.169   0.402
13860W        W86120   0.162  31.188   4.216
13861W        W86121  33.155  21.544  11.280
13862W        W86122  12.344  14.948   1.554
13863W        W86123  26.046  33.370  13.896
13864W        W86124  42.149  10.377  13.682
13865W        W86125  35.991  40.440  13.091
13866W        W86126  21.687  32.524   1.977
13867W        W86127  24.012  25.569  10.657
13868W        W86128   2.234   0.618   4.258
13869W        W86129  28.645   2.968  13.183
13870W        W86130  39.317  25.123   0.120
13871W        W86131   6.759  29.462  14.483
13872W        W86132  19.954  44.439   1.487
13873W        W86133  21.732  17.907   4.246
13874W        W86134  40.204  28.154  14.531
13875W        W86135   6.326  29.140  11.538
13876W        W86136  10.322  35.519  14.222
13877W        W86137  19.148  28.228  14.281
13878W        W86138  37.030  36.568   0.793
13879W        W86139  29.803   0.310  14.374
13880W        W86140   9.738  16.623  14.514
13881W        W86141   7.278  24.061  13.470
13882W        W86142  11.094  10.671   2.692
13883W        W86143  34.918   6.314   4.545
13884W        W86144  32.811  25.015  13.656
13885W        W86145  27.882  28.525   2.971
13886W        W86146  29.534  28.703  14.884
13887W        W86147   5.269  17.957  13.423
13888W        W86148  15.784   7.780  12.983
13889W        W86149   0.701   4.363   0.273
13890W        W86150  10.158  33.043   2.466
13891W        W86151  40.418   9.383   4.170
13892W        W86152  39.197  24.586   1.858
13893W        W86153  15.977  17.163   0.373
13894W        W86154  44.584  30.563   4.686
13895W        W86155   2.275  35.981   5.383
13896W        W86156  42.800  21.948  13.108
13897W        W86157  20.536  21.638  14.754
13898W        W86158  44.518  34.527  12.040
13899W        W86159   3.359  28.648   2.632
13900W        W86160  29.111  31.501   0.430
13901W        W86161   6.847  11.181  12.252
13902W        W86162   8.838  20.750   2.246
13903W        W86163  15.077  30.408  12.553
13904W        W86164  39.998  26.963  14.913
13905W        W86165  30.865  26.706  13.034
13906W        W86166  43.132  14.882  13.566
13907W        W86167  14.944  13.344  11.756
13908W        W86168  17.101   2.738  12.194
13909W        W86169   1.156  18.961  11.965
13910W        W86170  13.880  40.320   2.199
13911W        W86171  11.629  20.907  13.529
13912W        W86172  16.937  17.556   2.702
13913W        W86173  36.526  36.893   1.979
13914W        W86174   4.297  16.841   3.789
13915W        W86175  14.259  31.442   4.395
13916W        W86176  31.049  12.273  12.109
13917W        W86177   8.929  41.765   1.860
13918W        W86178  33.313  12.840   3.261
13919W        W86179   6.446  10.419   1.875
13920W        W86180  11.233   0.708   2.240
13921W        W86181   2.366  12.840   4.070
13922W        W86182  26.047  18.843   0.841
13923W        W86183  24.308  13.826  10.903
13924W        W86184  10.290  19.193   2.304
13925W        W86185  10.174  42.494   4.113
13926W        W86186  35.405  39.499  13.307
13927W        W86187  38.248  23.198   2.821
13928W        W86188  24.667  28.186   2.833
13929W        W86189  33.484  31.335  11.861
13930W        W86190  14.802  40.793  14.794
13931W        W86191  10.128  12.389  14.865
13932W        W86192   4.464  16.189   1.464
13933W        W86193  16.335  13.572   0.763
13934W        W86194  41.381   6.800  13.577
13935W        W86195  11.256  42.548   1.037
13936W        W86196  17.526  34.968  11.538
13937W        W86197  28.606   5.511   0.696
13938W        W86198  13.199   6.431  13.407
13939W        W86199  43.429  39.603  14.447
13940W        W86200  42.053  34.206   0.572
13941W        W86201  32.399  19.122  14.464
13942W        W86202  29.937  11.429   2.017
13943W        W86203  42.806  23.744  14.793
13944W        W86204   8.833  20.870   1.740
13945W        W86205  11.693   1.734  10.594
13946W        W86206  23.224   6.425  14.787
13947W        W86207  37.867  40.450   0.083
13948W        W86208  35.152  16.100   3.264
13949W        W86209  12.736  23.958   4.547
13950W        W86210  13.669  15.055   3.146
13951W        W86211   4.209  30.019   0.241
13952W        W86212  37.868  11.634   4.593
13953W        W86213  42.780  18.586   3.158
13954W        W86214   2.525  22.282   1.026
13955W        W86215   0.422  28.650   2.866
13956W        W86216   6.824  28.954  11.600
13957W        W86217   0.862   4.669   3.277
13958W        W86218  20.118  33.441  10.694
13959W        W86219  14.338  27.915   3.626
13960W        W86220  19.634  19.202   1.343
13961W        W86221  41.785  44.506  12.540
13962W        W86222  41.927  12.804   1.888
13963W        W86223  34.035  41.097   4.213
13964W        W86224  26.409  21.634  12.933
13965W        W86225  25.733   8.696  11.448
13966W        W86226  16.617   8.172  12.045
13967W        W86227  31.559   7.776  12.431
13968W        W86228  37.966  40.415   2.337
13969W        W86229   5.718  15.975  13.602
13970W        W86230   7.944  35.821   1.790
13971W        W86231  21.277  33.396  14.488
13972W        W86232  28.850   6.807  14.733
13973W        W86233   4.116  28.915  13.101
13974W        W86234  32.138  23.858  11.027
13975W        W86235  12.655  34.142  13.110
13976W        W86236   2.672  29.772   1.674
13977W        W86237   1.577  31.580  13.492
13978W        W86238  26.484  20.535   0.468
13979W        W86239  40.152  11.385  13.870
13980W        W86240  30.991  36.816  12.881
13981W        W86241   3.250  21.122  11.139
13982W        W86242  20.727  20.187   2.932
13983W        W86243   5.275  41.209   4.635
13984W        W86244   9.726   4.350   4.567
13985W        W86245  12.907  18.038  10.660
13986W        W86246  26.166  16.653   2.615
13987W        W86247  43.854  38.148  10.755
13988W        W86248   1.738  42.736  11.078
13989W        W86249  10.201  16.132  13.603
13990W        W86250  24.298  35.735   3.801
13991W        W86251   9.994   3.919  11.508
13992W        W86252  15.334  22.564  14.860
13993W        W86253  37.131  11.350   2.256
13994W        W86254  36.377  29.530   3.548
13995W        W86255   7.104  35.104   1.286
13996W        W86256  17.305   9.736  12.276
13997W        W86257  42.896  36.140  14.864
13998W        W86258   8.382  11.177   3.918
13999W        W86259  27.214   7.930  11.982
14000W        W86260  29.142  36.990  10.739
14001W        W86261  16.408  14.541  12.681
14002W        W86262  27.776  40.997  13.966
14003W        W86263   8.235  21.997  13.811
14004W        W86264   6.358  33.683  14.288
14005W        W86265  32.510   9.581  12.513
14006W        W86266  12.841  27.348  13.372
14007W        W86267  28.687  31.164   3.156
14008W        W86268  33.476   0.589  11.651
14009W        W86269  37.587   0.777  10.996
14010W        W86270  27.186  15.352   2.323
14011W        W86271  31.450   9.893  14.863
14012W        W86272   7.355  24.103   4.127
14013W        W86273  27.377  35.546   2.816
14014W        W86274  27.863  12.438   2.763
14015W        W86275  40.179  15.733  14.753
14016W        W86276  10.840  20.081   0.220
14017W        W86277  41.196  24.102  11.216
14018W        W86278   7.487  26.773  11.404
14019W        W86279  38.119   6.262  11.675
14020W        W86280  10.080  20.745   4.746
14021W        W86281  40.806  43.728  14.515
14022W        W86282  15.124  40.453   4.527
14023W        W86283  41.816  37.854   0.464
14024W        W86284  18.345  10.521   5.010
14025W        W86285  40.447   1.646   0.764
14026W        W86286  13.843   4.030  14.585
14027W        W86287   6.978  17.894  14.976
14028W        W86288  17.336  39.921   2.853
14029W        W86289  26.138  13.234   4.625
14030W        W86290  22.630  28.760   1.468
14031W        W86291  21.556  19.599  14.063
14032W        W86292  21.196  14.664   0.431
14033W        W86293   1.964  32.533   2.835
14034W        W86294  21.973   9.568  11.168
14035W        W86295   5.766  10.149   0.960
14036W        W86296  43.362   1.954   2.227
14037W        W86297  25.753   2.554   2.605
14038W        W86298  26.686   9.749  12.983
14039W        W86299  27.694  13.092  14.318
14040W        W86300  27.620  24.807   4.027
14041W        W86301  12.576  11.440  11.086
14042W        W86302   4.319  13.782  14.880
14043W        W86303  10.315  10.838   3.591
14044W        W86304  43.213   0.933   3.606
14045W        W86305  36.412   2.353   0.257
14046W        W86306  40.352  39.374   2.299
14047W        W86307  18.745  30.933  13.638
14048W        W86308  28.081  30.121   4.615
14049W        W86309  44.941  36.953  14.727
14050W        W86310   2.809  36.665   1.900
14051W        W86311   1.786   7.171  12.059
14052W        W86312  25.985  13.786  13.190
14053W        W86313  40.387  26.914   2.118
14054W        W86314  10.243   3.697   4.067
14055W        W86315  37.572  19.057  10.562
14056W        W86316  41.021   2.352   3.240
14057W        W86317  40.068  36.798  12.517
14058W        W86318   2.449   5.833  11.949
14059W        W86319   2.793   8.211   4.080
14060W        W86320   2.794  39.419   4.406
14061W        W86321  13.846  26.082  11.517
14062W        W86322  39.868  15.576  13.373
14063W        W86323  34.637  38.564   0.913
14064W        W86324  44.502  18.628  11.207
14065W        W86325  42.972   4.090   3.667
14066W        W86326  24.528   5.236  14.834
14067W        W86327  15.294  13.290  14.244
14068W        W86328  38.517  37.033   0.704
14069W        W86329  24.535  26.483  13.420
14070W        W86330  25.357  26.352   2.768
14071W        W86331  41.593  43.735  11.229
14072W        W86332   7.800   3.718  12.226
14073W        W86333  38.488  30.946   1.274
14074W        W86334  25.194   0.015   2.738
14075W        W86335  31.445  27.952   0.839
14076W        W86336  20.798  23.140  11.679
14077W        W86337  42.087  25.061   0.836
14078W        W86338  29.954  37.091  13.541
14079W        W86339  38.518  17.376  11.113
14080W        W86340  16.424  30.775   4.045
14081W        W86341  27.251  22.485  13.945
14082W        W86342  38.531   8.899  11.056
14083W        W86343  29.671  35.103   4.941
14084W        W86344   8.998   5.748   3.156
14085W        W86345  12.839  12.831   2.214
14086W        W86346   2.717   5.982   0.683
14087W        W86347  13.350   0.977   4.002
14088W        W86348   6.356  39.492   4.798
14089W        W86349   0.810  33.397  11.197
14090W        W86350  38.113  12.421  14.729
14091W        W86351  33.978  15.271  13.848
14092W        W86352  41.298  34.577   0.941
14093W        W86353  34.796  21.813  12.845
14094W        W86354  15.381  17.555  13.412
14095W        W86355  42.974  39.318  14.320
14096W        W86356  15.577  36.342   4.041
14097W        W86357   4.364   0.093  10.509
14098W        W86358  31.489  16.520  14.226
14099W        W86359  19.692  21.952   4.810
14100W        W86360  20.228   0.045   1.335
14101W        W86361  10.602  12.735  13.843
14102W        W86362   9.853  24.615  13.991
14103W        W86363  22.217  34.291   4.217
14104W        W86364  33.390  39.924   2.342
14105W        W86365   1.464  23.665  11.408
14106W        W86366  20.550  44.577  12.615
14107W        W86367   9.157   3.987  14.357
14108W        W86368   1.209   9.129   2.090
14109W        W86369   8.331  16.389  12.025
14110W        W86370   8.588  36.639   5.243
14111W        W86371   7.063   2.305   2.897
14112W        W86372  26.634  29.196  10.623
14113W        W86373  37.501  44.945  10.611
14114W        W86374  25.783  19.427   2.940
14115W        W86375  37.011  39.433  14.311
14116W        W86376  15.303  23.082   0.976
14117W        W86377  21.714  32.400   1.483
14118W        W86378  13.873  23.388  13.942
14119W        W86379  32.459   9.234  11.683
14120W        W86380   7.214  27.884   1.923
14121W        W86381  10.994  38.571  12.085
14122W        W86382  37.529  43.890  14.804
14123W        W86383  14.364   8.480  14.915
14124W        W86384  21.534   1.072   2.782
14125W        W86385  44.220   1.491  13.378
14126W        W86386  22.613  34.427  14.918
14127W        W86387  32.127   7.373   3.779
14128W        W86388  23.736  17.398  13.886
14129W        W86389  15.693  11.636  12.535
14130W        W86390   0.148  25.153   1.791
14131W        W86391  38.359  25.792  14.895
14132W        W86392   5.426  32.559   0.091
14133W        W86393  34.498  31.002  13.895
14134W        W86394  29.780  29.104  10.628
14135W        W86395  14.415  19.667  12.477
14136W        W86396  39.408  22.276   4.133
14137W        W86397  32.683  37.988   2.174
14138W        W86398   4.453  26.968   5.346
14139W        W86399  25.120  13.113  12.458
14140W        W86400  37.581  42.523   2.830
14141W        W86401  20.965  20.076  14.355
14142W        W86402  43.505  32.018   4.261
14143W        W86403  27.101  23.201  14.459
14144W        W86404   1.985  19.050  11.831
14145W        W86405  17.634  34.169   2.245
14146W        W86406   9.628  40.311  12.464
14147W        W86407  42.055   4.892  11.590
14148W        W86408  27.458  23.321  13.405
14149W        W86409  21.158   6.255  14.970
14150W        W86410  15.148  42.723  14.962
14151W        W86411  19.149  18.267   0.923
14152W        W86412  25.590   8.416  10.705
14153W        W86413   7.479  25.644  13.401
14154W        W86414  18.371  14.340   3.661
14155W        W86415  14.197  33.404  13.431
14156W        W86416  24.739  21.481  12.457
14157W        W86417  38.940  34.279  12.453
14158W        W86418  31.945   4.102   2.029
14159W        W86419  24.869  35.360   0.605
14160W        W86420  40.988  31.424  11.917
14161W        W86421  24.058  18.052  11.530
14162W        W86422   6.233   8.175  10.401
14163W        W86423  26.214  42.293  11.457
14164W        W86424  29.750  35.525   0.434
14165W        W86425  18.586  31.932  13.421
14166W        W86426  11.130   3.158   1.458
14167W        W86427  42.020  11.934  11.863
14168W        W86428  29.468  11.210   0.328
14169W        W86429   3.719  20.654  11.574
14170W        W86430  39.959  42.546  11.548
14171W        W86431   5.731  27.961   3.334
14172W        W86432  22.099   0.171   1.250
14173W        W86433  18.360   8.320   2.805
14174W        W86434  31.187  34.701   4.064
14175W        W86435  22.314   3.378  14.327
14176W        W86436  34.873  37.363   3.036
14177W        W86437  13.611  34.125   0.937
14178W        W86438  16.319   5.845  11.924
14179W        W86439  11.415  26.664   0.485
14180W        W86440  42.234   4.261  13.571
14181W        W86441  22.011  28.448  10.179
14182W        W86442  30.106  22.645   3.043
14183W        W86443  26.547  30.176   1.864
14184W        W86444   5.712  28.684  12.126
14185W        W86445  20.269   8.249  13.892
14186W        W86446  42.950  38.590  14.963
14187W        W86447  31.085  21.955   2.627
14188W        W86448  44.501  22.516   4.097
14189W        W86449  12.202   3.693  10.715
14190W        W86450  25.102   6.751   2.616
14191W        W86451  24.040  18.261  12.584
14192W        W86452  38.525  15.051  12.633
14193W        W86453  38.650  26.614   4.204
14194W        W86454  21.812   7.867   1.922
14195W        W86455  23.565   4.460   0.990
14196W        W86456  31.440  20.487   3.284
14197W        W86457  38.501  42.550   3.320
14198W        W86458  34.990  16.488  12.034
14199W        W86459  30.723   1.781  14.280
14200W        W86460  37.499  41.482  11.473
14201W        W86461  11.675  30.613  13.328
14202W        W86462  40.913  32.917  14.330
14203W        W86463  33.558   0.286   3.558
14204W        W86464  36.633  20.826   2.586
14205W        W86465  33.798  25.682   0.590
14206W        W86466  30.687  34.752   2.417
14207W        W86467  33.178  22.978   4.614
14208W        W86468   4.063  36.864  13.817
14209W        W86469  32.617   6.977  14.403
14210W        W86470  15.244  28.036   2.813
14211W        W86471  13.337  28.116  13.236
14212W        W86472  30.539   3.578  14.818
14213W        W86473  30.276  11.246  13.462
14214W        W86474  31.930  39.054  10.473
14215W        W86475  29.647   2.415   3.705
14216W        W86476   2.541  23.958  10.842
14217W        W86477  19.100   5.176   3.878
14218W        W86478   5.119  22.951   3.742
14219W        W86479  33.950   6.736  10.743
14220W        W86480  11.569   4.028  13.477
14221W        W86481  17.020  25.110   0.850
14222W        W86482  29.712  26.462  14.952
14223W        W86483   4.180  29.386   1.359
14224W        W86484  14.886  17.686  13.498
14225W        W86485  37.924   4.347  11.436
14226W        W86486   7.863   0.299   0.864
14227W        W86487   5.840  29.060  11.696
14228W        W86488  23.890   9.462  10.520
14229W        W86489   9.320  43.732   1.960
14230W        W86490   4.824  24.259  12.132
14231W        W86491  26.482  35.070   2.805
14232W        W86492  33.834  22.838   3.177
14233W        W86493  37.891  18.594  12.556
14234W        W86494  17.166  22.231   2.076
14235W        W86495  40.497  15.116   3.339
14236W        W86496  44.001  36.135   0.803
14237W        W86497   3.898  40.023  13.109
14238W        W86498  43.418  41.737   1.744
14239W        W86499  34.789  22.270   3.313
14240W        W86500   6.215  22.052  14.337
14241W        W86501  18.504  41.637  13.606
14242W        W86502   3.951  12.596   2.675
14243W        W86503   5.854  30.655   3.298
14244W        W86504  20.877  14.667   3.004
14245W        W86505  15.853  27.629   2.218
14246W        W86506  28.066  22.200  11.059
14247W        W86507  10.466  28.220   4.183
14248W        W86508   9.032  32.440  13.879
14249W        W86509  10.508   4.958  12.824
14250W        W86510  17.819  32.164  11.886
14251W        W86511   6.323  34.200  14.182
14252W        W86512   7.739  20.079   3.127
14253W        W86513  43.247  34.144   0.940
14254W        W86514  43.091  24.208  13.029
14255W        W86515  27.386  36.277   4.579
14256W        W86516  31.678  27.262   2.767
14257W        W86517  32.948  19.659   1.544
14258W        W86518  18.750  44.781   3.149
14259W        W86519  22.647   8.491   4.653
14260W        W86520  17.198  36.875  14.541
14261W        W86521  40.568  21.648  14.724
14262W        W86522  17.215  40.337  11.066
14263W        W86523  36.430  22.741  12.504
14264W        W86524   1.819   1.713   2.823
14265W        W86525  44.467  37.448   2.650
14266W        W86526   5.431  21.575   4.405
14267W        W86527  15.760  37.539  14.970
14268W        W86528  30.619  42.116  14.397
14269W        W86529   5.888  14.453   2.661
14270W        W86530  10.643  36.009  10.841
14271W        W86531  43.651   1.784  13.338
14272W        W86532   1.948   3.215  14.834
14273W        W86533   8.731  44.429   0.842
14274W        W86534  43.126  19.716   2.355
14275W        W86535  43.518  37.985  11.158
14276W        W86536   9.645  18.738  13.768
14277W        W86537  25.184  34.961  11.723
14278W        W86538  33.492  17.475   0.335
14279W        W86539  43.289  14.116  13.996
14280W        W86540  33.099  10.677  13.696
14281W        W86541  13.974  25.415   4.866
14282W        W86542  29.147  17.327  12.290
14283W        W86543  10.676  28.435  10.477
14284W        W86544   0.924  43.066   0.760
14285W        W86545  42.925  13.842  12.564
14286W        W86546  32.469  41.984   3.134
14287W        W86547  29.499  22.886   0.734
14288W        W86548  25.781   5.800   4.578
14289W        W86549  11.175  11.343  14.626
14290W        W86550  22.085  43.194   1.395
14291W        W86551  24.203  26.428  11.938
14292W        W86552  43.954   4.134  13.479
14293W        W86553  34.583  26.120  13.364
14294W        W86554  42.999  43.759  13.774
14295W        W86555  34.463  40.592   4.933
14296W        W86556   9.672  39.499   3.660
14297W        W86557  40.335  31.074   2.288
14298W        W86558  21.281  38.454   0.442
14299W        W86559  32.646  36.343   1.941
14300W        W86560  28.994  43.270  12.724
14301W        W86561   1.379  32.981  10.708
14302W        W86562  27.980  18.651  11.513
14303W        W86563  32.428  36.080  12.517
14304W        W86564   3.042   7.209  11.530
14305W        W86565  25.471  36.795   4.540
14306W        W86566  22.744  44.793   2.243
14307W        W86567  27.227  24.621   3.276
14308W        W86568  19.485   8.903  12.007
14309W        W86569  10.872   7.187   1.728
14310W        W86570  39.730   3.808   0.788
14311W        W86571  13.841   3.636   1.456
14312W        W86572  43.327  37.356   3.689
14313W        W86573  34.517   4.174   3.648
14314W        W86574  32.731  14.927   3.882
14315W        W86575  39.923  15.778  12.480
14316W        W86576  17.203  22.430   3.478
14317W        W86577  16.345   6.823   1.234
14318W        W86578  36.706  13.693  12.382
14319W        W86579  13.286  16.555   0.684
14320W        W86580  29.499  32.749  13.093
14321W        W86581  44.999  34.752   4.187
14322W        W86582  15.297  20.012  14.603
14323W        W86583   9.746  11.756  11.578
14324W        W86584  37.907  42.012   1.946
14325W        W86585  14.964  23.212  11.181
14326W        W86586  41.541  43.446   3.265
14327W        W86587  17.659  42.974   1.183
14328W        W86588  39.385   0.682  14.785
14329W        W86589  14.266  17.294   1.152
14330W        W86590   3.007  23.182   0.853
14331W        W86591   9.432  13.198   3.748
14332W        W86592  44.329   0.515  14.303
14333W        W86593  26.431  42.306  14.217
14334W        W86594   5.308  17.825   4.115
14335W        W86595  38.021  29.330   4.501
14336W        W86596  33.375   4.282   4.033
14337W        W86597  33.408  43.399  13.346
14338W        W86598  39.950  36.342   4.245
14339W        W86599  31.813  19.433   1.729
14340W        W86600  40.826  29.920  13.878
14341W        W86601  30.622  29.563  14.216
14342W        W86602  17.524  20.733  13.457
14343W        W86603   5.239   0.396   0.914
14344W        W86604   3.911  43.613  13.924
14345W        W86605  23.159  28.605  12.877
14346W        W86606  28.417  10.408  11.063
14347W        W86607   4.395  23.649   0.872
14348W        W86608  16.976  34.858   4.198
14349W        W86609  41.878   0.365  14.909
14350W        W86610  40.891  27.948   1.189
14351W        W86611  39.953   3.261   0.030
14352W        W86612  28.323   0.201  14.455
14353W        W86613  15.236  28.715   1.720
14354W        W86614  15.371  28.083   4.185
14355W        W86615  34.804  24.951   2.629
14356W        W86616  14.272  34.751   4.036
14357W        W86617   2.941   8.955   0.204
14358W        W86618  25.411  42.035  12.531
14359W        W86619  20.543  33.602   1.284
14360W        W86620  29.541  20.168   4.874
14361W        W86621  11.745   2.117   1.457
14362W        W86622  16.623  13.137   2.810
14363W        W86623  33.966   1.288   1.654
14364W        W86624  27.465  13.543   1.399
14365W        W86625  23.993  33.416   0.247
14366W        W86626  42.766  29.692  12.863
14367W        W86627  11.575  43.991  14.757
14368W        W86628   4.043   5.327  12.527
14369W        W86629  11.057  18.230  11.615
14370W        W86630   3.811   3.040   0.338
14371W        W86631  12.380  15.675  11.523
14372W        W86632  41.534  22.228   4.466
14373W        W86633  10.601  32.136  14.381
14374W        W86634  19.029   0.886   4.203
14375W        W86635  30.443   4.758   4.932
14376W        W86636   7.095   8.844   3.274
14377W        W86637  36.081   0.309   1.443
14378W        W86638  16.744  14.063   1.698
14379W        W86639  31.910  20.653  14.316
14380W        W86640  27.389  16.453  12.917
14381W        W86641  41.369   0.508   0.868
14382W        W86642  19.699  43.419   2.860
14383W        W86643  21.031  36.050  14.007
14384W        W86644   1.750  27.107   1.861
14385W        W86645   6.313  20.142   3.745
14386W        W86646   9.438  26.834  12.728
14387W        W86647  12.116  28.420  10.582
14388W        W86648   4.759  24.447  11.625
14389W        W86649  39.907   1.032   1.249
14390W        W86650  29.593  29.407  12.443
14391W        W86651   3.313  22.298   3.233
14392W        W86652   0.776  17.301  13.403
14393W        W86653  10.417   8.801   2.189
14394W        W86654  13.775  14.878  12.554
14395W        W86655  22.710  30.988  13.037
14396W        W86656   0.875  11.974  14.808
14397W        W86657  25.533  42.068   2.684
14398W        W86658  21.997  26.733  10.158
14399W        W86659  16.835  30.385  12.034
14400W        W86660  27.783  40.916   5.087
14401W        W86661  16.815  29.847  13.772
14402W        W86662   9.413  22.297  11.099
14403W        W86663   5.438  43.385  12.812
14404W        W86664  26.007  31.463   2.430
14405W        W86665  26.395  11.968  12.367
14406W        W86666  30.850   0.779   0.367
14407W        W86667  40.935  39.489   3.785
14408W        W86668   0.555  14.695   4.409
14409W        W86669  35.105  40.579   0.477
14410W        W86670  38.858  32.844  13.859
14411W        W86671  44.855  21.148  10.244
14412W        W86672  18.165  26.745   2.172
14413W        W86673  44.025  27.473   4.540
14414W        W86674  38.551  28.177   4.170
14415W        W86675  40.465  28.778   0.849
14416W        W86676  29.429   6.308   1.356
14417W        W86677  38.375  18.867  11.909
14418W        W86678  38.066  32.464   2.903
14419W        W86679  37.960   1.933  13.807
14420W        W86680  42.716  32.067  11.036
14421W        W86681  13.267  38.000   2.154
14422W        W86682   3.283  26.663  13.024
14423W        W86683  38.421   7.972   0.873
14424W        W86684   7.174  15.543  10.694
14425W        W86685  15.212  16.707   5.276
14426W        W86686   6.869  37.262  10.683
14427W        W86687  12.109  13.225  13.483
14428W        W86688   6.314  22.752   0.770
14429W        W86689  44.794  32.801   2.630
14430W        W86690  35.108   3.922  13.424
14431W        W86691   7.484   6.348   1.356
14432W        W86692  18.586  24.051  14.733
14433W        W86693  31.640   6.112  13.331
14434W        W86694  31.970  21.028  11.749
14435W        W86695  14.341  31.657   0.016
14436W        W86696  20.026  35.397   3.460
14437W        W86697  17.156  24.255   3.109
14438W        W86698  40.292  22.533  13.263
14439W        W86699  44.386  17.818   2.295
14440W        W86700  23.422  19.265  11.190
14441W        W86701  30.010  18.787  11.245
14442W        W86702  18.146  23.627   3.890
14443W        W86703  41.579  21.600   1.415
14444W        W86704  18.649   6.680  14.321
14445W        W86705   4.495  42.832   0.738
14446W        W86706   6.040  32.850  11.649
14447W        W86707  29.417  36.968  13.882
14448W        W86708  14.034   0.185   4.598
14449W        W86709  11.658   9.873   2.188
14450W        W86710  41.229  15.632  12.921
14451W        W86711  39.410  29.990   0.369
14452W        W86712  14.738  29.636   9.847
14453W        W86713  16.177  11.671   1.159
14454W        W86714  27.189  26.226  14.029
14455W        W86715   3.845  28.730   4.650
14456W        W86716  11.762  40.629  13.800
14457W        W86717  25.600   0.493  10.696
14458W        W86718  36.816  17.841  14.958
14459W        W86719  38.843  40.034  12.468
14460W        W86720   4.027  29.178  10.334
14461W        W86721  18.112  24.531  12.058
14462W        W86722  39.371  30.519   3.197
14463W        W86723  26.997  22.911   2.345
14464W        W86724  14.002   7.212  10.512
14465W        W86725  29.471  17.560  12.615
14466W        W86726  14.449  38.202  11.875
14467W        W86727  35.946  17.223   3.879
14468W        W86728  30.781  16.315   0.322
14469W        W86729   3.885  15.602   1.425
14470W        W86730  31.037  40.932  14.029
14471W        W86731  11.347  32.571   1.831
14472W        W86732  34.269  34.915   0.108
14473W        W86733   2.310   7.148  14.001
14474W        W86734  43.524  39.120   0.517
14475W        W86735  36.066  34.099   1.259
14476W        W86736  41.940   9.114   3.280
14477W        W86737  31.807  33.953   3.262
14478W        W86738  30.781  30.441  10.066
14479W        W86739  11.237  42.983  12.947
14480W        W86740  38.532  19.393  12.787
14481W        W86741  11.572  34.064  12.861
14482W        W86742  20.267  41.990   0.276
14483W        W86743  43.802  19.750  12.257
14484W        W86744  27.635  43.869   4.649
14485W        W86745   6.526  25.277  10.913
14486W        W86746  37.016  23.122   2.437
14487W        W86747   6.248  27.200  11.260
14488W        W86748  12.005  36.723   3.473
14489W        W86749  26.674   3.154   0.421
14490W        W86750  24.914  35.464   2.306
14491W        W86751  17.330  41.843  14.930
14492W        W86752  32.447  14.774  13.389
14493W        W86753  15.364   3.003   3.859
14494W        W86754  21.106  15.082  13.821
14495W        W86755  27.926  17.263  12.647
14496W        W86756  39.896  24.672  13.499
14497W        W86757  21.140  21.610   9.876
14498W        W86758   0.799  15.202  14.920
14499W        W86759  39.523  11.888  11.539
14500W        W86760  41.485  10.802  10.481
14501W        W86761  35.914  34.419  12.759
14502W        W86762  37.295  10.221   0.389
14503W        W86763  44.043   2.037   0.276
14504W        W86764  26.978  42.241   1.489
14505W        W86765  37.034  28.659   2.606
14506W        W86766  21.621  32.376  12.440
14507W        W86767  43.399  10.642   3.781
14508W        W86768  32.591  43.877   3.680
14509W        W86769  37.128  20.645   5.724
14510W        W86770   1.988  25.167   3.246
14511W        W86771  23.667  16.306   4.216
14512W        W86772  44.945  10.887  12.900
14513W        W86773  11.094  34.559  14.280
14514W        W86774  40.885  36.017  14.991
14515W        W86775  39.222  43.963   9.980
14516W        W86776  39.452  43.104   4.655
14517W        W86777  41.210   8.357   4.792
14518W        W86778   0.967  26.122   2.227
14519W        W86779  25.476  33.167  14.917
14520W        W86780  13.093   2.525  10.663
14521W        W86781  21.442  35.974  10.661
14522W        W86782  19.927  30.468  10.516
14523W        W86783  31.616  34.355  11.573
14524W        W86784  34.008  36.633  12.349
14525W        W86785  26.952   6.483  12.399
14526W        W86786  34.511  23.665  12.525
14527W        W86787  37.070  19.091  14.472
14528W        W86788  35.027  40.844  11.427
14529W        W86789  14.362  20.024   3.758
14530W        W86790  29.534  26.536   0.860
14531W        W86791  28.486  36.134  12.517
14532W        W86792  44.313  13.109   3.251
14533W        W86793  37.572  30.891  14.730
14534W        W86794  24.503   6.149   0.197
14535W        W86795   7.629  35.885  12.878
14536W        W86796   5.183  37.951   2.369
14537W        W86797  30.544  14.799   2.660
14538W        W86798  37.110  10.205  11.053
14539W        W86799   0.403  35.440   4.627
14540W        W86800  14.886  13.274  14.894
14541W        W86801   5.166  34.279  12.540
14542W        W86802  32.125   7.299  11.249
14543W        W86803  28.724  31.993  11.564
14544W        W86804  41.870  41.467   0.062
14545W        W86805  19.247   1.463  14.471
14546W        W86806  42.214   1.653   0.621
14547W        W86807  22.799   3.707   2.793
14548W        W86808   5.922  11.285   0.719
14549W        W86809  33.868  30.390   0.508
14550W        W86810  40.798   8.879  12.037
14551W        W86811   1.716   8.838   2.225
14552W        W86812  24.544  37.829   3.157
14553W        W86813  13.585  20.729   4.336
14554W        W86814  24.911   8.809   3.602
14555W        W86815  23.246  21.508  11.608
14556W        W86816   3.884   8.240   2.261
14557W        W86817  44.960  37.151   1.096
14558W        W86818  10.674  36.487   1.845
14559W        W86819   3.195  11.854  11.784
14560W        W86820   7.231   0.253   1.506
14561W        W86821  36.840   3.629  10.602
14562W        W86822  43.655  37.857  13.371
14563W        W86823   2.132   1.828   5.073
14564W        W86824  42.756  39.516  11.202
14565W        W86825  32.996  16.133   1.517
14566W        W86826  26.640  44.497   2.345
14567W        W86827  37.137  18.645   0.274
14568W        W86828  44.069  44.645   0.342
14569W        W86829   3.848  33.531  14.274
14570W        W86830   7.901  19.031   4.145
14571W        W86831  39.307  32.477   3.174
14572W        W86832  43.320  14.522  11.084
14573W        W86833  32.965   4.206   3.729
14574W        W86834   3.715  17.711  11.144
14575W        W86835  15.004  26.234  12.523
14576W        W86836  37.937  31.536   0.255
14577W        W86837  19.495  27.174  10.890
14578W        W86838   2.594   7.574   5.073
14579W        W86839   9.695   0.843  12.179
14580W        W86840  13.907  37.588   4.501
14581W        W86841  35.819  25.676   2.694
14582W        W86842  31.024   6.621  12.931
14583W        W86843  15.614  42.553   0.923
14584W        W86844  16.102   0.801   4.446
14585W        W86845   9.844  20.142   2.361
14586W        W86846   8.314  10.842   0.395
14587W        W86847  19.287   8.840   4.732
14588W        W86848  34.422  14.042  12.426
14589W        W86849   0.965  39.622   2.716
14590W        W86850  33.150  22.637  11.997
14591W        W86851  31.157  23.150   2.818
14592W        W86852  32.866   0.643   4.494
14593W        W86853  22.354  28.994   4.809
14594W        W86854   3.526  19.826  12.133
14595W        W86855   6.610  23.216  10.370
14596W        W86856  23.315  17.066   0.717
14597W        W86857  17.757  32.155   0.738
14598W        W86858  22.259  18.668   4.675
14599W        W86859   4.278  31.850   3.969
14600W        W86860   2.476   4.292   4.664
14601W        W86861  26.592  15.997   3.192
14602W        W86862  38.994  20.317   2.717
14603W        W86863  29.634  25.685  13.332
14604W        W86864  32.161   1.208   1.190
14605W        W86865  43.797  11.100  14.773
14606W        W86866   4.057   1.357  14.944
14607W        W86867  32.013  16.160  10.937
14608W        W86868   9.927   9.701  14.339
14609W        W86869  11.329   7.328   1.476
14610W        W86870  26.616  17.702  14.648
14611W        W86871   6.137   8.812   0.734
14612W        W86872   2.966  11.263  12.926
14613W        W86873  11.736   5.847   4.151
14614W        W86874   3.803  43.844   0.182
14615W        W86875  31.178  32.179   2.884
14616W        W86876   6.409  18.049  10.721
14617W        W86877   6.644  42.996   2.338
14618W        W86878  17.872  32.584   2.750
14619W        W86879  22.226  37.523   3.325
14620W        W86880  12.890  36.693  13.153
14621W        W86881   7.799   3.023   2.909
14622W        W86882  22.940   9.980   2.655
14623W        W86883   8.228  11.664  13.607
14624W        W86884  17.654  43.428   0.046
14625W        W86885  43.254  20.065  13.883
14626W        W86886  34.761  22.261  14.763
14627W        W86887  14.906  20.099  13.026
14628W        W86888  15.950  27.484   4.432
14629W        W86889   1.303   1.854   0.785
14630W        W86890   8.534  19.593   1.444
14631W        W86891   6.287  11.248  14.736
14632W        W86892  22.190  27.080   4.204
14633W        W86893  34.250  10.697   2.430
14634W        W86894  20.639  23.871   2.412
14635W        W86895  31.685  21.208  13.264
14636W        W86896  21.995  37.617   3.801
14637W        W86897  40.806  27.003   1.337
14638W        W86898  25.710  38.372   2.379
14639W        W86899  40.952   4.035   1.101
14640W        W86900  30.633  24.047   3.916
14641W        W86901  16.693   9.944   1.239
14642W        W86902  37.927  40.767   3.270
14643W        W86903   5.659  26.006  13.992
14644W        W86904  33.049  42.298   2.834
14645W        W86905  20.812  44.962   3.764
14646W        W86906  19.445  31.795   2.869
14647W        W86907   7.986   8.379   0.412
14648W        W86908  27.048  32.677   0.894
14649W        W86909  27.652  29.580  14.050
14650W        W86910   2.929   1.182  11.160
14651W        W86911  11.085  29.097   2.317
14652W        W86912   4.412  39.912   3.071
14653W        W86913  24.211  31.253   1.099
14654W        W86914   5.443   3.672  10.722
14655W        W86915   4.435  27.721   0.276
14656W        W86916   5.397  23.221   2.174
14657W        W86917  26.722  22.121  11.064
14658W        W86918   2.675   0.967   4.148
14659W        W86919  16.308  30.160  12.525
14660W        W86920   5.415  32.828  14.446
14661W        W86921  20.241  25.443  10.358
14662W        W86922  24.742  43.970  13.268
14663W        W86923  39.025  32.312   4.862
14664W        W86924  33.481  32.275   3.214
14665W        W86925  32.905  41.777   2.850
14666W        W86926  11.186  30.224   4.703
14667W        W86927   7.929   3.754   2.342
14668W        W86928   5.802   9.753  14.664
14669W        W86929   4.422  12.208   4.567
14670W        W86930  29.599  10.150   0.363
14671W        W86931  39.970  36.874  10.503
14672W        W86932  18.941  13.077   3.621
14673W        W86933  36.485  26.574  14.792
14674W        W86934  17.158   0.341   2.431
14675W        W86935  22.776  29.798  10.201
14676W        W86936  41.018  41.112   0.305
14677W        W86937  19.238   8.341   4.638
14678W        W86938   2.457  43.824  11.481
14679W        W86939  26.000   9.796   3.416
14680W        W86940  32.207  29.540   3.192
14681W        W86941  17.239   5.870   2.867
14682W        W86942  16.052  25.906   2.566
14683W        W86943  18.564  32.489   4.466
14684W        W86944  35.439  11.426   4.568
14685W        W86945  34.372   7.988   2.766
14686W        W86946   9.722  42.288   4.316
14687W        W86947  15.239  21.770   1.879
14688W        W86948  15.633  33.435  14.468
14689W        W86949  36.559  40.822  14.681
14690W        W86950   1.795  13.609  12.481
14691W        W86951  43.106  24.549   1.420
14692W        W86952  31.741  12.797  11.119
14693W        W86953  39.530  12.479  10.659
14694W        W86954  27.106   3.844  11.645
14695W        W86955  39.544   8.578   4.223
14696W        W86956  16.853   6.790  13.876
14697W        W86957  41.910  30.696  14.504
14698W        W86958  18.210  26.382  12.675
14699W        W86959  24.990  21.347   4.600
14700W        W86960   4.619  31.052   4.596
14701W        W86961  30.431   3.857  13.888
14702W        W86962   6.371  18.047   4.522
14703W        W86963  40.906   2.866   1.005
14704W        W86964  33.417   7.284   5.071
14705W        W86965   5.795  29.212   0.285
14706W        W86966  35.045  22.148   1.470
14707W        W86967  36.914  12.728   2.308
14708W        W86968  43.543  44.273  14.383
14709W        W86969   7.372   7.319   0.137
14710W        W86970  32.151   3.349  12.879
14711W        W86971  40.758  32.818   2.888
14712W        W86972  36.287  41.612  12.112
14713W        W86973   8.531   6.348  13.935
14714W        W86974  21.935  29.701   1.709
14715W        W86975   3.880  44.315  14.555
14716W        W86976  44.052  23.643   4.312
14717W        W86977  11.367  15.101  13.517
14718W        W86978  27.811   3.751   2.109
14719W        W86979  16.366  24.552   3.558
14720W        W86980  34.458  24.600   2.359
14721W        W86981  44.228  23.147   2.813
14722W        W86982  32.356  10.335   4.225
14723W        W86983  15.707  16.710   0.362
14724W        W86984  16.098   1.936  12.605
14725W        W86985  40.311  15.643   0.314
14726W        W86986  33.565  13.911   4.025
14727W        W86987  15.699  12.823   2.170
14728W        W86988  33.023  29.071  13.244
14729W        W86989  26.737  41.722  12.941
14730W        W86990  38.505  12.722   1.283
14731W        W86991  13.252   6.970   1.717
14732W        W86992  38.911  15.798  10.522
14733W        W86993  16.152  44.850  12.961
14734W        W86994  14.115  39.973   2.582
14735W        W86995  31.390  17.533  14.336
14736W        W86996  26.386  42.324  13.704
14737W        W86997  30.214   6.325   1.084
14738W        W86998  20.967  39.542  13.283
14739W        W86999   2.495   0.127   4.291
14740W        W87000   0.104  16.351  12.886
14741W        W87001   1.881  21.532   1.250
14742W        W87002  20.850  39.286  14.340
14743W        W87003   0.416  23.117   3.361
14744W        W87004  23.921  29.539  11.926
14745W        W87005  34.328  34.391   1.815
14746W        W87006  13.672  19.064   0.036
14747W        W87007   5.764  19.791   0.410
14748W        W87008  10.939  18.740  14.896
14749W        W87009  11.474  41.634   2.717
14750W        W87010  15.226  31.141  12.867
14751W        W87011  25.455  22.047  11.680
14752W        W87012   6.735  15.097  12.213
14753W        W87013  10.320   5.718   3.626
14754W        W87014  11.369  23.036   0.452
14755W        W87015   3.455  15.475   1.163
14756W        W87016  42.067   8.469  14.737
14757W        W87017  28.192  31.997  11.645
14758W        W87018   5.592  44.562   3.667
14759W        W87019   0.562  31.513   1.736
14760W        W87020  25.234  18.638   3.139
14761W        W87021  22.493  41.846  10.778
14762W        W87022  35.099  19.324   0.323
14763W        W87023  35.979   3.832   0.756
14764W        W87024  13.117   2.739   4.595
14765W        W87025  24.777  19.042   2.247
14766W        W87026   1.468  36.999   0.457
14767W        W87027  20.745  28.167   1.391
14768W        W87028  25.036  11.376   4.009
14769W        W87029  31.128  32.129   3.661
14770W        W87030  11.323  34.792  10.385
14771W        W87031  10.875   6.140   0.781
14772W        W87032  17.203  30.272  11.641
14773W        W87033   9.301  31.630   4.796
14774W        W87034   4.997  44.951   4.135
14775W        W87035  44.189  14.856  11.514
14776W        W87036  31.037  38.471  14.514
14777W        W87037   3.974  13.039  11.942
14778W        W87038  16.800  35.933   3.652
14779W        W87039  15.575  11.772  10.724
14780W        W87040   3.204  31.535  14.003
14781W        W87041  42.598  39.868   0.459
14782W        W87042  40.072  11.146  12.475
14783W        W87043  25.572   9.939  11.031
14784W        W87044   3.946  18.083  12.073
14785W        W87045   7.366  18.566  12.953
14786W        W87046  37.261  30.263   4.443
14787W        W87047  40.848  22.526  13.332
14788W        W87048  31.757   8.546  14.303
14789W        W87049  25.009   7.023   3.679
14790W        W87050  42.074  35.004   1.752
14791W        W87051  15.823  15.223   0.868
14792W        W87052  11.719   6.636   0.805
14793W        W87053   5.198  20.034  11.987
14794W        W87054  27.496  15.767   2.386
14795W        W87055  20.335  44.011   3.743
14796W        W87056  27.613  36.908   0.557
14797W        W87057  12.172  15.094   0.585
14798W        W87058   8.686  18.234   3.563
14799W        W87059  42.601  33.419   1.467
14800W        W87060  24.497  26.500   2.244
14801W        W87061  29.674   9.754   1.961
14802W        W87062  17.103   9.818  11.391
14803W        W87063   8.186  12.417   1.293
14804W        W87064  14.185   5.792   4.107
14805W        W87065  32.618   6.689   4.316
14806W        W87066  33.888  37.280   3.705
14807W        W87067  18.478  28.893   3.358
14808W        W87068   4.014  23.547  14.362
14809W        W87069  18.979  10.466   3.251
14810W        W87070  32.956   6.193   2.742
14811W        W87071  12.716  16.680   4.079
14812W        W87072  33.165   4.394  14.954
14813W        W87073  28.115  31.729  13.372
14814W        W87074  37.850  16.667   4.378
14815W        W87075  17.988  38.744   4.147
14816W        W87076  31.643  13.582   0.282
14817W        W87077  42.422  24.146  10.416
14818W        W87078  37.944  24.110   0.855
14819W        W87079  19.128   5.649   5.496
14820W        W87080   3.289   6.601  13.421
14821W        W87081  32.783  21.721  14.924
14822W        W87082  36.531   2.693  11.566
14823W        W87083  36.612  29.613   4.006
14824W        W87084  28.524  15.139   4.109
14825W        W87085  41.391  42.368  10.718
14826W        W87086  26.399   9.297   2.659
14827W        W87087  35.592  10.192   0.939
14828W        W87088  16.009   9.390   2.352
14829W        W87089  29.019  32.869   0.827
14830W        W87090  35.032   1.409   4.540
14831W        W87091  23.646   9.812  13.956
14832W        W87092  20.892  29.991  13.997
14833W        W87093  12.659  43.755   1.344
14834W        W87094  22.213  16.184   1.386
14835W        W87095  25.840  23.910   9.966
14836W        W87096  25.582  17.117  13.363
14837W        W87097   2.027  34.138  10.736
14838W        W87098  28.856  16.906   3.259
14839W        W87099  37.899   9.119  14.922
14840W        W87100  34.494  42.460  13.390
14841W        W87101  16.759   7.485   0.851
14842W        W87102  35.807  38.837  10.054
14843W        W87103  10.748  21.490  12.497
14844W        W87104   8.744  27.914  12.774
14845W        W87105  36.515  40.850   1.232
14846W        W87106  34.912  22.535   0.259
14847W        W87107   2.365  43.961   0.670
14848W        W87108  16.560  34.122  12.235
14849W        W87109  26.799  15.161   1.365
14850W        W87110   8.262  11.706   4.113
14851W        W87111  30.214  28.556  12.324
14852W        W87112  19.696  30.683   1.361
14853W        W87113  20.161  13.202  13.639
14854W        W87114  35.357  35.305   2.604
14855W        W87115  38.386  10.226  10.632
14856W        W87116   0.601  34.769  14.901
14857W        W87117  42.416  33.401  12.498
14858W        W87118  17.199  21.478  10.908
14859W        W87119  35.332  25.475  13.868
14860W        W87120  20.088  15.679  12.562
14861W        W87121  38.911  10.872  11.540
14862W        W87122  44.350  22.273  12.428
14863W        W87123   9.218  34.337  14.808
14864W        W87124  15.536  19.766  10.355
14865W        W87125  17.212   1.810   2.775
14866W        W87126  22.702  10.578  13.514
14867W        W87127  30.175  10.245   2.809
14868W        W87128  24.669   7.630   2.809
14869W        W87129  38.451  42.687  14.426
14870W        W87130  14.871  41.390  14.540
14871W        W87131  36.848  30.038   0.382
14872W        W87132  19.306  10.385  14.223
14873W        W87133   4.994  14.368   1.182
14874W        W87134  44.049  29.992  11.144
14875W        W87135  12.641  42.966  11.391
14876W        W87136   4.452  30.989   2.841
14877W        W87137  17.825  23.416  11.550
14878W        W87138  30.158  29.665  14.611
14879W        W87139  22.652   1.855  10.053
14880W        W87140   1.661  25.006   5.037
14881W        W87141  13.380  32.581   0.767
14882W        W87142  14.121  23.403   2.833
14883W        W87143  33.534  21.746   3.493
14884W        W87144  12.399  14.249  12.573
14885W        W87145  15.658   7.205  10.242
14886W        W87146  12.472  40.951  12.334
14887W        W87147   5.710  21.083  11.706
14888W        W87148  32.988  12.117   1.313
14889W        W87149  12.005  39.909  14.698
14890W        W87150  36.491  12.291  11.619
14891W        W87151  25.534  17.887   4.576
14892W        W87152  40.362  32.550   4.519
14893W        W87153  14.592  16.880  13.926
14894W        W87154  39.459  30.475   0.524
14895W        W87155  14.699  15.359  13.955
14896W        W87156  19.614  23.017   4.628
14897W        W87157  40.233  37.161  11.319
14898W        W87158  30.362  27.774  14.408
14899W        W87159  19.598  13.109  14.723
14900W        W87160  32.896  39.626   3.166
14901W        W87161   0.371   2.786   1.667
14902W        W87162   2.957   5.355  13.935
14903W        W87163   8.261  44.307  13.784
14904W        W87164  32.057  22.934   0.778
14905W        W87165   9.647  26.035  11.378
14906W        W87166  12.444  15.052  12.040
14907W        W87167  20.298  22.604   2.182
14908W        W87168   5.497  15.789   1.809
14909W        W87169   9.357  26.405   1.379
14910W        W87170  12.178  37.011  11.071
14911W        W87171  39.254   7.241   4.243
14912W        W87172  23.907  30.050  14.925
14913W        W87173  15.224  19.757  12.084
14914W        W87174  42.913   4.116   2.687
14915W        W87175  17.186  37.489  12.495
14916W        W87176  25.691  28.640  12.464
14917W        W87177  40.524  32.319   0.850
14918W        W87178  36.057  26.854  10.454
14919W        W87179  20.555  25.753   2.330
14920W        W87180  32.534  39.116   4.573
14921W        W87181   9.837   2.053  12.629
14922W        W87182  11.436  24.544   2.453
14923W        W87183   4.303  44.171  12.501
14924W        W87184  37.209  28.101   4.045
14925W        W87185   2.400  34.955   0.783
14926W        W87186  37.069  25.106  14.773
14927W        W87187  31.991  24.188  10.608
14928W        W87188  40.129   6.598   2.341
14929W        W87189  23.834  22.165  11.124
14930W        W87190  35.365  38.109  13.569
14931W        W87191  18.100   4.371  12.281
14932W        W87192  12.783  38.071   3.852
14933W        W87193  13.775  23.990   0.809
14934W        W87194   2.502   9.667  14.349
14935W        W87195  23.011  22.705  10.970
14936W        W87196  15.582   6.150  11.105
14937W        W87197  23.202  20.468   2.440
14938W        W87198  20.081  29.067  13.312
14939W        W87199   9.215  44.454   1.428
14940W        W87200  15.821  23.591  14.979
14941W        W87201   1.520  18.260  13.941
14942W        W87202  41.723   5.172   5.003
14943W        W87203  10.172  42.768  11.182
14944W        W87204  20.340  28.840   0.253
14945W        W87205  10.383  22.705   1.258
14946W        W87206  18.495   1.680   5.090
14947W        W87207  42.453  27.085   3.823
14948W        W87208  44.216  40.523   9.959
14949W        W87209  25.018  28.523  14.208
14950W        W87210  30.110  41.438   1.909
14951W        W87211  39.942   5.358  10.702
14952W        W87212   8.790  21.990  13.302
14953W        W87213  29.957   9.285  11.142
14954W        W87214  32.103  31.083  11.533
14955W        W87215  33.862  26.661  11.067
14956W        W87216  34.550  25.346  12.969
14957W        W87217   2.051   9.921  14.368
14958W        W87218  35.066  42.265   2.815
14959W        W87219  13.319  27.877   2.285
14960W        W87220  31.055  29.680   0.757
14961W        W87221  22.999  31.227   0.372
14962W        W87222  22.695  31.111   3.435
14963W        W87223  10.713  41.710   2.452
14964W        W87224  32.890  28.754  14.579
14965W        W87225   2.556  21.376  12.365
14966W        W87226  37.468  32.616  12.643
14967W        W87227  42.548  25.276  13.832
14968W        W87228  21.244  32.330   0.339
14969W        W87229  14.064  19.294   4.924
14970W        W87230  25.541  19.051   0.483
14971W        W87231   0.539  44.775   3.216
14972W        W87232  12.283  38.251  11.562
14973W        W87233  41.556  39.998  13.486
14974W        W87234  37.176  35.444  11.957
14975W        W87235  28.679  42.808  10.624
14976W        W87236  41.516  27.213  14.042
14977W        W87237  43.477  43.603  14.797
14978W        W87238  35.459   6.400  12.156
14979W        W87239  33.292  19.660  13.329
14980W        W87240   9.665  20.783  11.418
14981W        W87241  22.649  42.929  11.121
14982W        W87242  31.420  39.017   4.591
14983W        W87243  43.362  13.955   3.678
14984W        W87244  44.020  21.148   1.692
14985W        W87245   8.898   1.024   4.569
14986W        W87246  37.060  35.869   3.901
14987W        W87247   1.280  10.245  14.461
14988W        W87248  14.228  41.138   3.675
14989W        W87249  11.420  32.540  13.486
14990W        W87250  19.442   2.226  11.750
14991W        W87251  20.949  39.925   2.530
14992W        W87252  11.379  15.717   0.321
14993W        W87253  20.207   5.467  12.932
14994W        W87254  40.083   1.727  12.735
14995W        W87255  10.002  11.734   4.569
14996W        W87256  21.569  15.577  11.461
14997W        W87257  25.647  15.307   1.230
14998W        W87258  27.113  37.123   3.212
14999W        W87259  41.538  27.554  12.625
15000W        W87260  29.577   7.682  14.783
15001W        W87261  22.681   2.586  14.890
15002W        W87262  33.404   0.173  12.922
15003W        W87263  13.957  10.918   4.184
15004W        W87264  21.847  37.332   5.092
15005W        W87265  30.849  32.764  13.916
15006W        W87266  33.792  33.941   4.559
15007W        W87267  36.048  22.807  11.545
15008W        W87268  36.433   2.683   0.828
15009W        W87269  38.858  14.740  14.472
15010W        W87270  18.519  19.065   0.279
15011W        W87271   3.607  42.956  14.380
15012W        W87272  17.345  30.540  12.059
15013W        W87273  14.773  35.689  14.910
15014W        W87274  40.418  28.559   0.356
15015W        W87275  34.860   5.186  11.745
15016W        W87276  15.360  43.237   3.568
15017W        W87277  11.609  30.647   5.208
15018W        W87278  18.524  14.415   0.955
15019W        W87279  35.369  27.144   4.299
15020W        W87280  13.762  44.515  14.849
15021W        W87281   0.257  41.328   0.800
15022W        W87282  25.953  36.879   2.425
15023W        W87283   6.332  43.868  14.830
15024W        W87284  21.048   4.690  14.020
15025W        W87285  21.613  32.968  13.380
15026W        W87286   6.923  23.333  13.956
15027W        W87287  17.082   9.096  13.849
15028W        W87288  11.691  33.195  12.939
15029W        W87289  44.805  25.665  11.814
15030W        W87290  12.249   4.955   2.406
15031W        W87291  17.294  33.336  11.155
15032W        W87292  33.661  23.718   2.295
15033W        W87293   5.707  33.439  10.477
15034W        W87294  38.596   4.853  13.009
15035W        W87295   4.825  44.701   3.189
15036W        W87296   9.416   7.654  10.669
15037W        W87297   7.125  30.845   2.731
15038W        W87298  10.027  18.812   2.558
15039W        W87299  36.118  18.732  11.499
15040W        W87300  20.958  27.571   0.687
15041W        W87301  28.125  14.251   4.726
15042W        W87302  44.950   2.217   2.123
15043W        W87303  26.228  31.924   2.315
15044W        W87304   4.436   6.511  11.127
15045W        W87305  14.065  27.506   3.761
15046W        W87306  36.577   8.138   0.758
15047W        W87307  36.013  18.108  14.839
15048W        W87308   6.681  12.111  13.286
15049W        W87309   4.998   9.236  11.804
15050W        W87310  29.443  39.830   1.749
15051W        W87311  42.494  12.367  14.864
15052W        W87312   4.254  10.595  13.924
15053W        W87313   2.607  14.568  12.641
15054W        W87314  34.021  24.490   1.820
15055W        W87315  26.368  35.078  13.331
15056W        W87316  26.942  26.066  13.050
15057W        W87317  44.559  10.948   4.311
15058W        W87318  13.346  39.044  11.237
15059W        W87319  26.140  27.028  12.449
15060W        W87320  23.821   1.748  12.835
15061W        W87321  13.452  22.034   3.752
15062W        W87322  20.122  18.828   3.103
15063W        W87323  32.850  33.295   0.815
15064W        W87324  43.011   2.275  12.628
15065W        W87325  22.441  43.276   0.099
15066W        W87326  14.965  12.336  10.413
15067W        W87327  11.899  30.582   3.181
15068W        W87328  25.677  28.716  11.581
15069W        W87329   8.852  13.186   2.671
15070W        W87330   2.063  17.529  13.347
15071W        W87331  37.557  34.598   3.918
15072W        W87332   4.326   3.452   4.128
15073W        W87333  36.784  15.675   3.121
15074W        W87334  39.577  16.350  13.440
15075W        W87335  34.018   8.233   4.509
15076W        W87336  30.001  35.365  14.998
15077W        W87337   4.792  13.601  14.664
15078W        W87338  36.768  24.758  11.115
15079W        W87339  30.946  32.506   3.360
15080W        W87340  16.146   3.707  13.696
15081W        W87341  16.727  22.155  10.292
15082W        W87342  40.293  17.616  12.969
15083W        W87343  16.386  27.144  11.797
15084W        W87344  28.601   7.631   1.226
15085W        W87345  23.062  17.582  10.867
15086W        W87346  20.204  26.676   2.414
15087W        W87347   0.492  43.095  13.548
15088W        W87348   0.063  32.207   4.062
15089W        W87349  19.929  36.980  10.778
15090W        W87350  21.920  43.575   3.670
15091W        W87351  15.570  31.617  12.431
15092W        W87352  44.002  35.046   1.879
15093W        W87353  35.060  29.142   1.895
15094W        W87354  25.381  32.538  14.960
15095W        W87355  40.629  32.594  11.008
15096W        W87356  10.565   1.340  12.483
15097W        W87357  25.716  31.315  14.468
15098W        W87358  29.911  31.980   0.338
15099W        W87359  20.528  42.793  13.370
15100W        W87360  20.084  40.088  14.898
15101W        W87361   0.494   2.337   4.713
15102W        W87362   7.250   6.304  14.119
15103W        W87363  37.921  27.466   0.312
15104W        W87364  24.207   0.225  13.155
15105W        W87365   2.347  39.589   2.260
15106W        W87366  17.007  32.985   2.942
15107W        W87367  13.321   1.689   3.287
15108W        W87368  39.532  23.003   3.317
15109W        W87369  25.175  15.157  14.782
15110W        W87370  38.042  29.668  11.332
15111W        W87371  24.639  34.073  14.088
15112W        W87372   2.407  38.613  12.880
15113W        W87373  16.979  19.689  12.911
15114W        W87374  41.886   9.123  10.719
15115W        W87375   5.354  13.964  11.760
15116W        W87376  22.125   9.889  12.480
15117W        W87377  34.203  18.341  11.588
15118W        W87378  20.107   6.205  13.387
15119W        W87379  13.145  19.509   4.048
15120W        W87380  32.636  27.001   1.865
15121W        W87381  14.987  30.541   2.408
15122W        W87382  31.151  25.494   3.351
15123W        W87383   8.902  33.794  14.389
15124W        W87384  24.227  37.480   3.829
15125W        W87385  22.657  27.259   1.387
15126W        W87386  23.753  26.658  13.929
15127W        W87387  10.535  30.542   1.462
15128W        W87388  11.530  34.454  12.488
15129W        W87389   9.679  22.682   3.733
15130W        W87390  33.807  30.975   0.037
15131W        W87391  24.152  34.763   2.232
15132W        W87392   2.434  41.842  12.013
15133W        W87393  23.686   3.201  13.822
15134W        W87394  34.080  20.542  14.374
15135W        W87395  29.865  41.410   0.662
15136W        W87396  15.608   0.882   0.300
15137W        W87397  29.903  17.522   0.755
15138W        W87398   3.990  13.879  14.435
15139W        W87399  42.020  11.862  12.788
15140W        W87400   6.349  26.688  14.986
15141W        W87401   8.874  20.115  12.462
15142W        W87402  27.205  38.094   2.416
15143W        W87403   9.326  10.403   9.738
15144W        W87404   0.713  30.691  11.628
15145W        W87405  38.579   6.974   2.228
15146W        W87406  28.748  11.203  14.934
15147W        W87407  16.164  24.172  12.831
15148W        W87408  24.206  30.156   3.574
15149W        W87409  35.296  38.903  10.549
15150W        W87410  22.890  28.459  10.397
15151W        W87411   7.328   6.103   4.596
15152W        W87412  26.571   2.296   1.235
15153W        W87413  35.098   3.870  14.332
15154W        W87414   4.117  12.466  14.592
15155W        W87415  37.032   6.709  10.474
15156W        W87416  33.444  44.033  13.882
15157W        W87417  37.156  12.834  12.178
15158W        W87418  13.711  14.401   9.839
15159W        W87419  12.486  34.539  13.415
15160W        W87420  11.752   0.304   3.218
15161W        W87421  31.934  21.189  10.602
15162W        W87422  26.268   2.464   1.669
15163W        W87423  22.829  22.209  11.076
15164W        W87424   7.710  24.609  11.918
15165W        W87425   7.134  36.341   1.827
15166W        W87426  26.346  33.861   1.158
15167W        W87427  35.357   0.645   1.813
15168W        W87428  37.580  43.025  14.833
15169W        W87429  41.356  24.091   0.389
15170W        W87430   6.982  21.211  11.411
15171W        W87431   4.398  15.320  12.102
15172W        W87432  19.476  36.919  11.458
15173W        W87433  33.986  35.702   1.949
15174W        W87434  15.409  32.587  12.940
15175W        W87435  18.124  30.687   4.068
15176W        W87436  41.120  39.503  14.611
15177W        W87437  15.054  39.284   0.629
15178W        W87438   8.602  12.899   0.561
15179W        W87439  34.531   4.979  14.754
15180W        W87440  28.504  24.162   2.641
15181W        W87441  37.879  42.448  10.762
15182W        W87442  32.729  13.637   3.392
15183W        W87443  22.049  34.888  10.847
15184W        W87444  24.984  38.117   1.173
15185W        W87445   7.386  43.217   4.681
15186W        W87446   4.300   6.157   1.199
15187W        W87447  31.875  31.530  14.921
15188W        W87448  11.192   8.634   4.145
15189W        W87449  33.209   1.876  12.844
15190W        W87450  22.688   8.681   1.384
15191W        W87451  35.935  19.973  11.643
15192W        W87452   5.230  12.641  10.619
15193W        W87453  28.884  13.717   3.171
15194W        W87454  15.771   0.282   4.237
15195W        W87455  27.030   7.934  11.108
15196W        W87456  19.507  24.430  10.938
15197W        W87457   6.868  22.600   3.788
15198W        W87458  39.156   3.315   2.975
15199W        W87459  30.658  12.165  11.643
15200W        W87460  44.822  37.066   2.752
15201W        W87461   3.294  42.669  13.117
15202W        W87462  34.472   3.920  13.886
15203W        W87463  25.100  33.207   3.570
15204W        W87464  33.953  31.504   1.278
15205W        W87465   6.294  13.620   0.230
15206W        W87466  29.605  32.113   9.720
15207W        W87467  22.517  39.321  11.334
15208W        W87468  40.849  24.805  10.759
15209W        W87469  38.430  35.586   1.816
15210W        W87470  37.498   9.424   0.070
15211W        W87471  43.477  36.557  12.207
15212W        W87472   0.830   3.650   4.066
15213W        W87473  12.212  11.925   1.297
15214W        W87474  24.709  14.703  12.083
15215W        W87475   0.827  34.930   4.164
15216W        W87476  16.891  21.824  13.495
15217W        W87477  20.029   7.835  12.858
15218W        W87478  23.460  21.186   0.812
15219W        W87479   9.837   7.433   4.500
15220W        W87480  16.302  19.395   2.729
15221W        W87481  42.958  43.391   1.460
15222W        W87482  13.740  42.856   3.659
15223W        W87483  14.822  32.581   3.355
15224W        W87484  44.658  26.171   3.372
15225W        W87485  37.527  35.587   0.213
15226W        W87486   9.957  37.539  13.599
15227W        W87487   6.428  12.672   1.211
15228W        W87488   9.661   9.756   3.032
15229W        W87489  19.085  31.874  13.518
15230W        W87490  38.521  11.199  12.519
15231W        W87491   1.238  34.142  13.617
15232W        W87492  25.120   8.051  13.570
15233W        W87493  12.811   5.167   0.371
15234W        W87494   1.602  41.529   0.370
15235W        W87495  24.071  40.793   4.852
15236W        W87496   6.214  24.136   2.678
15237W        W87497  24.789  21.526  11.485
15238W        W87498   7.928  21.729   2.830
15239W        W87499   7.908  32.499  14.833
15240W        W87500   4.797  41.497   1.959
15241W        W87501  12.280  35.519   1.879
15242W        W87502  39.825  39.552  11.461
15243W        W87503   7.943  41.709  14.900
15244W        W87504  24.261  42.952  12.920
15245W        W87505  12.810  17.564   3.191
15246W        W87506  31.138  44.219  13.517
15247W        W87507  33.927  44.495  12.071
15248W        W87508  14.039  14.323   2.492
15249W        W87509   1.665  33.177  14.768
15250W        W87510  27.642  32.430   0.807
15251W        W87511  38.813   6.486   2.062
15252W        W87512  31.539   9.724  11.156
15253W        W87513  24.999   9.083  12.514
15254W        W87514   7.466  15.437  11.619
15255W        W87515  44.073  27.563  10.401
15256W        W87516  15.899  41.386   1.288
15257W        W87517  40.591  26.169   1.775
15258W        W87518  36.631  17.030   1.492
15259W        W87519  19.524   8.221   1.835
15260W        W87520  22.664  34.409   2.734
15261W        W87521   6.819   5.659   4.333
15262W        W87522  21.168  42.963   4.285
15263W        W87523  27.886  41.500  10.782
15264W        W87524  20.963   6.399  13.465
15265W        W87525  20.159  24.079   2.349
15266W        W87526  36.164  35.419  12.918
15267W        W87527  21.064  38.594   3.743
15268W        W87528   5.354  44.042  14.950
15269W        W87529  11.399  10.186  11.897
15270W        W87530   4.008  23.409  12.481
15271W        W87531  40.538  25.660  13.147
15272W        W87532   1.834   8.254   4.405
15273W        W87533  11.671  27.873   1.357
15274W        W87534  32.431  11.762   0.402
15275W        W87535  27.586  35.098  13.000
15276W        W87536  20.067  42.070  10.753
15277W        W87537   1.839   8.827  10.766
15278W        W87538  36.326  27.437  13.621
15279W        W87539   2.825  44.391   2.057
15280W        W87540   0.837  38.314   4.653
15281W        W87541  41.567  34.414  11.893
15282W        W87542  16.491  44.749  11.981
15283W        W87543  37.947  43.775   4.338
15284W        W87544  40.526  17.670   1.234
15285W        W87545  22.016   9.652   3.636
15286W        W87546  20.293  36.055   4.693
15287W        W87547   1.451  15.587   0.246
15288W        W87548  11.339  41.810  14.218
15289W        W87549   2.648  19.465   5.001
15290W        W87550   8.245  19.580  12.055
15291W        W87551  17.017  32.503  14.949
15292W        W87552   1.824  14.369   3.826
15293W        W87553  40.839  27.205  12.867
15294W        W87554  22.867  14.291   3.080
15295W        W87555  34.157  24.723   0.459
15296W        W87556  22.496   7.258  11.826
15297W        W87557  25.588  28.712   1.826
15298W        W87558  33.989   6.797   3.213
15299W        W87559  17.310  32.004  10.101
15300W        W87560   6.596  28.140   0.032
15301W        W87561   2.510  14.265   1.778
15302W        W87562  40.729  12.412  12.598
15303W        W87563  11.140  10.712  12.880
15304W        W87564   0.592   7.465  14.533
15305W        W87565   7.421   2.490  13.458
15306W        W87566   2.241   1.478   3.508
15307W        W87567   0.383  14.776  13.510
15308W        W87568  37.452  18.345   3.532
15309W        W87569  37.136  30.861   3.744
15310W        W87570  19.877  40.978   1.239
15311W        W87571  39.345   7.175  13.631
15312W        W87572  38.947  24.147  10.440
15313W        W87573  27.494  40.731  12.451
15314W        W87574  25.697  14.517  11.887
15315W        W87575  34.964  34.637  13.355
15316W        W87576  23.693   0.792   1.957
15317W        W87577  44.905   6.742  13.299
15318W        W87578  34.769  14.223   4.398
15319W        W87579  12.866  28.568  14.459
15320W        W87580  27.544  35.634   2.290
15321W        W87581  11.754  28.529  11.502
15322W        W87582  20.137  20.228  11.157
15323W        W87583   4.550  40.318   3.821
15324W        W87584  17.741  30.629   2.509
15325W        W87585  15.671  41.425  12.910
15326W        W87586   1.426  13.118  12.125
15327W        W87587  15.105  28.994   1.035
15328W        W87588  13.053  16.946   3.780
15329W        W87589  34.565  21.625  10.176
15330W        W87590  13.597  40.203  11.776
15331W        W87591   7.819  13.958  12.958
15332W        W87592  13.164   8.236   4.416
15333W        W87593  12.276   1.511   0.296
15334W        W87594  29.118  22.256   0.986
15335W        W87595   6.920  43.911   2.161
15336W        W87596  40.319  34.854   1.316
15337W        W87597  29.916  36.563  13.449
15338W        W87598  31.036  42.646  14.697
15339W        W87599   6.251  23.272  13.945
15340W        W87600   6.857   4.250   0.104
15341W        W87601  14.128  24.399   0.789
15342W        W87602  26.855  40.459  14.343
15343W        W87603  26.959  12.221  11.530
15344W        W87604  28.904  36.379   0.354
15345W        W87605   0.227  38.457  12.645
15346W        W87606   5.818   9.197  10.452
15347W        W87607  24.047   7.029   4.634
15348W        W87608   3.091  41.367  12.851
15349W        W87609  15.274  12.290  10.827
15350W        W87610  42.339  27.931  11.417
15351W        W87611   7.269  30.852  14.943
15352W        W87612  14.735   7.168   9.987
15353W        W87613   3.652  32.681   4.610
15354W        W87614  23.631  22.049   0.687
15355W        W87615   5.398  25.658  10.405
15356W        W87616  20.299  37.891   3.697
15357W        W87617  36.669  28.097   1.411
15358W        W87618  29.304  44.663  14.213
15359W        W87619  42.797  37.453  12.057
15360W        W87620   6.472  13.089   0.241
15361W        W87621  31.376  31.115   3.285
15362W        W87622  14.463  25.580   4.609
15363W        W87623   2.204  29.861   1.937
15364W        W87624  33.008  24.113   3.673
15365W        W87625  15.394  18.189  11.937
15366W        W87626   5.696  33.945  10.593
15367W        W87627  15.647  28.811  11.793
15368W        W87628  28.947   4.088  14.310
15369W        W87629  23.533  34.587   0.866
15370W        W87630  19.299  25.223  11.592
15371W        W87631   2.455  23.229   3.670
15372W        W87632  12.676   6.901  12.463
15373W        W87633  11.334  16.880   1.363
15374W        W87634  40.915  41.839  12.939
15375W        W87635   4.935  13.349  12.353
15376W        W87636  11.863  33.483  14.825
15377W        W87637  27.531  36.804   1.479
15378W        W87638   3.213  43.843   0.286
15379W        W87639  11.711  10.218  10.368
15380W        W87640  39.757  38.935  13.831
15381W        W87641  36.411  27.890   3.447
15382W        W87642  22.131  35.360  11.685
15383W        W87643  20.212  42.630   2.956
15384W        W87644  33.570  29.704  14.349
15385W        W87645  10.812   9.217   3.644
15386W        W87646  22.586  20.403   1.730
15387W        W87647  29.003   5.893   2.932
15388W        W87648  26.289  15.188   1.269
15389W        W87649  34.254  15.156   2.217
15390W        W87650  13.410  44.894   2.414
15391W        W87651  43.476  13.820   0.666
15392W        W87652   1.281  12.760  14.432
15393W        W87653  33.656  40.328  13.332
15394W        W87654   1.881   8.391  14.478
15395W        W87655  27.085  15.603   1.364
15396W        W87656   7.150  36.965   2.463
15397W        W87657  31.663  11.192   0.183
15398W        W87658  40.798  32.704   4.236
15399W        W87659   0.514  31.404   3.903
15400W        W87660  32.075   1.750  14.965
15401W        W87661   4.920  43.450   0.964
15402W        W87662   1.689  33.852  12.514
15403W        W87663   9.356  25.215   0.988
15404W        W87664  35.937  15.711  12.308
15405W        W87665   3.267  12.743   1.203
15406W        W87666  36.382  43.892   2.111
15407W        W87667   3.282  31.692   1.731
15408W        W87668  17.250  39.307   4.112
15409W        W87669   7.653  39.411  12.040
15410W        W87670  32.266  18.637   2.234
15411W        W87671  28.553  39.305  10.780
15412W        W87672  32.477   5.109  12.833
15413W        W87673  15.435   3.337  11.291
15414W        W87674   6.847  29.488   3.692
15415W        W87675   8.619  24.681  11.564
15416W        W87676  25.076  18.456  13.611
15417W        W87677  42.751  41.638  12.144
15418W        W87678  22.452   5.153  13.999
15419W        W87679  26.487  15.309   0.387
15420W        W87680   8.151   8.378   1.307
15421W        W87681  29.861  42.009   3.638
15422W        W87682  36.485  41.936  13.732
15423W        W87683  17.844  39.495   1.229
15424W        W87684   2.046  14.711   4.171
15425W        W87685  10.295  19.104   4.271
15426W        W87686  30.755  26.675  10.117
15427W        W87687  23.456   0.061  14.389
15428W        W87688  12.715   6.254   3.662
15429W        W87689  19.492  22.062   3.285
15430W        W87690   1.852  43.255  10.852
15431W        W87691  26.229  18.589  12.656
15432W        W87692  32.841  34.636  13.385
15433W        W87693  38.846  15.171   4.419
15434W        W87694   5.469   5.384  11.695
15435W        W87695  13.718  40.863   0.915
15436W        W87696  30.411  27.977  11.529
15437W        W87697  35.511  21.717  14.400
15438W        W87698  38.321  21.012   4.385
15439W        W87699   1.046   6.321   4.293
15440W        W87700  18.200  38.925  10.586
15441W        W87701  26.713   7.682   1.220
15442W        W87702   0.867  15.807  13.195
15443W        W87703   9.668  31.493  12.101
15444W        W87704  16.815   1.730   0.424
15445W        W87705  14.625  10.760  11.521
15446W        W87706  20.425   2.581   3.333
15447W        W87707  24.078   3.499  12.626
15448W        W87708  39.398  15.318  13.421
15449W        W87709  37.086  32.668  13.951
15450W        W87710  13.185  28.401   4.017
15451W        W87711   4.298  12.625  12.434
15452W        W87712  33.719  18.057  11.577
15453W        W87713  44.365   1.290   2.884
15454W        W87714  42.706   6.445  13.359
15455W        W87715  10.857  17.923   4.171
15456W        W87716  38.596  30.048   0.892
15457W        W87717   7.257  42.890  14.303
15458W        W87718   7.237   3.875  14.979
15459W        W87719  36.347   6.983  13.969
15460W        W87720   7.412  15.725   4.214
15461W        W87721  42.488  28.981   3.317
15462W        W87722   1.976  24.144   1.998
15463W        W87723  18.608   0.009   3.995
15464W        W87724   3.499  38.832  14.016
15465W        W87725  44.454  23.278   2.356
15466W        W87726  15.287  32.665   0.451
15467W        W87727  11.186  44.995   4.841
15468W        W87728  17.150  17.751  12.477
15469W        W87729  42.954  15.777  14.868
15470W        W87730  31.526   5.989  14.218
15471W        W87731  35.363  37.035   4.758
15472W        W87732  27.046  39.456   4.160
15473W        W87733  10.691  43.760  13.882
15474W        W87734  35.833  19.453   4.136
15475W        W87735   6.812  15.596  12.063
15476W        W87736   2.719  32.510  10.440
15477W        W87737  13.652  14.977   3.652
15478W        W87738  12.069  44.827   3.159
15479W        W87739  41.552   2.577  14.313
15480W        W87740  21.972   3.519  12.545
15481W        W87741  10.572  24.144  11.959
15482W        W87742   9.411   9.351   3.264
15483W        W87743  25.720  24.278   2.739
15484W        W87744  26.526  15.740   3.645
15485W        W87745  26.325  34.868   1.278
15486W        W87746  40.070  32.543   3.631
15487W        W87747  42.784   0.151  11.066
15488W        W87748   9.599  25.590  14.323
15489W        W87749  17.641   1.906   4.558
15490W        W87750   5.760  10.258  10.612
15491W        W87751  27.163  32.863  11.624
15492W        W87752  12.634  38.571   0.944
15493W        W87753   8.863  21.439   3.889
15494W        W87754  41.050  43.574  12.932
15495W        W87755   4.167  26.189  11.208
15496W        W87756  34.471  25.979  14.608
15497W        W87757   0.287  31.119  12.645
15498W        W87758  24.604   4.425   3.246
15499W        W87759  15.952  37.312  10.593
15500W        W87760  23.669  16.610   2.805
15501W        W87761   6.141  44.877  14.537
15502W        W87762   3.453   7.672   0.862
15503W        W87763  19.644   2.288   1.510
15504W        W87764  19.359  24.757  13.282
15505W        W87765   6.689  39.559  11.200
15506W        W87766  40.480  26.114   2.674
15507W        W87767  32.635  41.191   2.387
15508W        W87768  32.917  36.174  12.603
15509W        W87769  14.301   2.993   1.448
15510W        W87770  19.120  44.882  14.010
15511W        W87771  34.392  39.144  12.753
15512W        W87772  23.806  13.373  11.523
15513W        W87773  44.339   7.208   2.844
15514W        W87774  24.702  30.466   4.614
15515W        W87775   7.962  17.324  11.685
15516W        W87776  36.867  32.109   2.586
15517W        W87777   2.173  38.016   1.769
15518W        W87778  40.833   6.699   4.681
15519W        W87779  38.080  43.547  11.521
15520W        W87780   4.544  28.681  14.029
15521W        W87781  36.436  22.696   2.757
15522W        W87782   3.812   8.135  11.817
15523W        W87783  29.553  14.316   0.467
15524W        W87784  34.670  33.646  10.733
15525W        W87785  27.873  23.696   0.866
15526W        W87786  30.307  24.611   1.415
15527W        W87787  29.925  31.010  11.958
15528W        W87788  44.760   4.388  12.912
15529W        W87789  33.121  43.864   4.433
15530W        W87790  32.056  17.564  14.784
15531W        W87791  30.701  11.694  10.482
15532W        W87792  31.357   5.688  13.289
15533W        W87793  27.250  42.499   3.653
15534W        W87794  23.149   2.277  12.601
15535W        W87795  12.663   2.204   1.368
15536W        W87796  18.594  29.110   4.628
15537W        W87797  42.442  38.613  14.376
15538W        W87798  39.439   0.924   4.706
15539W        W87799  35.324  38.119  12.443
15540W        W87800  12.320   2.765   1.816
15541W        W87801   2.249  15.051  12.593
15542W        W87802  25.185  15.281   4.697
15543W        W87803   0.616   8.690  14.456
15544W        W87804  40.074   6.856   4.547
15545W        W87805   1.163  28.167   4.978
15546W        W87806  15.365  19.060   2.900
15547W        W87807  20.089  33.628  11.996
15548W        W87808   0.328  25.825  14.851
15549W        W87809  42.952  38.304  13.077
15550W        W87810  31.147   5.266  13.040
15551W        W87811  43.516  17.837  12.999
15552W        W87812   9.696  33.653  14.522
15553W        W87813  11.560  19.224  11.621
15554W        W87814   5.345  30.523  12.125
15555W        W87815  40.338  29.069   0.406
15556W        W87816   8.617  12.056  11.129
15557W        W87817  27.311  25.631  11.975
15558W        W87818  19.552  31.185  11.146
15559W        W87819  36.310   4.662  14.958
15560W        W87820  34.798  11.064   0.193
15561W        W87821   6.446  35.887  13.520
15562W        W87822  42.425  15.136   0.373
15563W        W87823  32.233  21.549   3.716
15564W        W87824  10.683   9.918  12.852
15565W        W87825  26.881   6.555   5.053
15566W        W87826  13.537  43.154   2.767
15567W        W87827   1.747  34.531  11.961
15568W        W87828   1.060  43.743  11.176
15569W        W87829   4.351  36.428  13.089
15570W        W87830  17.567  39.764  14.986
15571W        W87831  36.136  20.472  13.423
15572W        W87832  14.250  24.575  14.430
15573W        W87833  40.793   9.514   2.622
15574W        W87834  41.748  22.229  14.320
15575W        W87835  20.820   2.279   1.961
15576W        W87836  11.385  36.453  13.115
15577W        W87837  20.033   3.417  12.359
15578W        W87838   0.254  18.545  10.942
15579W        W87839   8.735   9.252  11.689
15580W        W87840  25.172  22.616   1.438
15581W        W87841  30.822  29.971  12.508
15582W        W87842   8.889   3.967   1.693
15583W        W87843  37.598  29.569  10.749
15584W        W87844   2.365  36.440   2.059
15585W        W87845  29.476  12.921  12.876
15586W        W87846  37.192  27.420   0.852
15587W        W87847   9.210  17.303  11.147
15588W        W87848  30.687   4.402   4.583
15589W        W87849  11.345  27.674  11.676
15590W        W87850  24.010   3.753  14.396
15591W        W87851  18.859  35.876   2.802
15592W        W87852  26.237  39.373  11.734
15593W        W87853  33.887  15.516   2.257
15594W        W87854  34.379   3.504  13.033
15595W        W87855  39.381  34.131   2.415
15596W        W87856  38.485  29.497   2.556
15597W        W87857  16.652  23.244  11.189
15598W        W87858  32.648  10.102   0.049
15599W        W87859  30.221   0.541  12.260
15600W        W87860  21.541  21.493   0.006
15601W        W87861  30.106  36.433   3.295
15602W        W87862  19.512   4.941  14.454
15603W        W87863  37.917  25.623   3.821
15604W        W87864  32.813  35.773   1.399
15605W        W87865  14.176  32.169  11.149
15606W        W87866  10.942  23.288   3.211
15607W        W87867  30.222  12.809   4.437
15608W        W87868  20.719  35.384  11.594
15609W        W87869   4.480  29.998   4.387
15610W        W87870  34.356  10.365   1.463
15611W        W87871   9.974  24.761  11.176
15612W        W87872  15.589  24.546   3.128
15613W        W87873  32.901   5.614   1.620
15614W        W87874  22.246  32.460   0.874
15615W        W87875   7.215  19.823   0.737
15616W        W87876   1.823  35.871  12.504
15617W        W87877  14.779  38.078  14.101
15618W        W87878  34.016  27.939  10.540
15619W        W87879  15.889  33.105   3.354
15620W        W87880  42.119   3.457   2.480
15621W        W87881  29.869  22.561  10.911
15622W        W87882   2.927   6.267   1.292
15623W        W87883  11.283  27.025   1.368
15624W        W87884   8.635  38.473  13.534
15625W        W87885   0.967   6.373   2.866
15626W        W87886   5.948  17.125   0.346
15627W        W87887  10.354  37.372   0.351
15628W        W87888  42.054  38.441   4.319
15629W        W87889  38.340  21.834  14.764
15630W        W87890   6.436  10.605  10.047
15631W        W87891  31.979  32.552  14.957
15632W        W87892  28.783  22.108  12.175
15633W        W87893  28.209   2.932  11.156
15634W        W87894  17.597   9.282  11.502
15635W        W87895  35.545  42.237  14.224
15636W        W87896  16.087  12.853  13.876
15637W        W87897   1.210  31.340   4.833
15638W        W87898  11.341  25.164  11.542
15639W        W87899  43.760  24.512   2.405
15640W        W87900  20.554  22.644   1.204
15641W        W87901  17.077   8.833  14.296
15642W        W87902   8.330   5.007  12.013
15643W        W87903  42.935   1.415  10.643
15644W        W87904   4.181  35.123  13.099
15645W        W87905  36.942  11.674  11.842
15646W        W87906   6.613   7.696  11.070
15647W        W87907   8.367  33.459   3.532
15648W        W87908   7.183   1.928   2.145
15649W        W87909   7.419   1.901  12.342
15650W        W87910   2.491  15.988   1.267
15651W        W87911   0.903  18.047   4.559
15652W        W87912  36.031   5.157  12.873
15653W        W87913  28.071  40.063  14.014
15654W        W87914  44.173  22.736  14.580
15655W        W87915  37.118  23.335  10.599
15656W        W87916   6.940  32.967   4.067
15657W        W87917  22.467  26.793   3.899
15658W        W87918   8.802  30.901   1.286
15659W        W87919  16.656  41.571  11.757
15660W        W87920   7.512   2.949   0.290
15661W        W87921   7.139  28.323  10.278
15662W        W87922  25.018  34.510  10.965
15663W        W87923  19.418  37.499   0.410
15664W        W87924  37.018  43.315   3.686
15665W        W87925  44.999  42.206   2.604
15666W        W87926  29.389  30.712  14.992
15667W        W87927   4.023  11.735  10.753
15668W        W87928  16.667   8.880   4.892
15669W        W87929  26.692  33.034  11.520
15670W        W87930  22.154   7.924  13.893
15671W        W87931  32.745   1.044   3.716
15672W        W87932  10.776  24.543  11.277
15673W        W87933  20.870  30.067   0.315
15674W        W87934  34.857  20.700  11.968
15675W        W87935   3.036   1.226  14.820
15676W        W87936  20.513  39.781   3.443
15677W        W87937   7.240   6.676  10.397
15678W        W87938   9.996  18.566   1.105
15679W        W87939  24.221  43.428  11.448
15680W        W87940  23.955  31.166   4.503
15681W        W87941  15.539  39.820  11.955
15682W        W87942  11.554  18.091   2.398
15683W        W87943  37.467  31.400   2.783
15684W        W87944  16.053  30.809  11.912
15685W        W87945  20.978  40.551   1.770
15686W        W87946  33.886  39.455   2.908
15687W        W87947   5.518   5.778  12.004
15688W        W87948   7.418   5.825  10.618
15689W        W87949  37.880  20.070  13.043
15690W        W87950  33.079  44.408  14.580
15691W        W87951  34.044  27.011  11.809
15692W        W87952   2.309  10.918   2.823
15693W        W87953  38.767  44.283   4.541
15694W        W87954   7.739  12.118   1.319
15695W        W87955   0.885  15.144   4.564
15696W        W87956   0.459  43.845  14.944
15697W        W87957   1.977  39.796  13.376
15698W        W87958   3.145  33.560  10.741
15699W        W87959  33.837  34.563   2.714
15700W        W87960  23.002  37.384   2.713
15701W        W87961   4.949  20.596   2.021
15702W        W87962  10.351  39.403  13.956
15703W        W87963   0.847  36.535   3.869
15704W        W87964  10.774  24.127  10.967
15705W        W87965  32.453  39.716  10.684
15706W        W87966  24.543  40.438  13.859
15707W        W87967  38.059  16.624  11.981
15708W        W87968  28.224  22.168   0.292
15709W        W87969   2.431   0.071   2.689
15710W        W87970  43.516  31.368  12.601
15711W        W87971   3.836  28.644  13.491
15712W        W87972  16.287   0.547   1.824
15713W        W87973   3.420   6.905   3.170
15714W        W87974   6.181  20.170   0.909
15715W        W87975  42.531   4.872  14.416
15716W        W87976  29.170   7.222   2.699
15717W        W87977  20.336  20.671  13.280
15718W        W87978  10.048  23.092   2.426
15719W        W87979  35.360  17.310  13.348
15720W        W87980  33.392   0.429  10.335
15721W        W87981  33.494  12.173   4.952
15722W        W87982  29.984  26.109   1.472
15723W        W87983  12.826  18.714  14.989
15724W        W87984  17.331  25.002  14.975
15725W        W87985  36.267  31.604  14.817
15726W        W87986  22.673  43.672   2.745
15727W        W87987  30.172  27.390   3.689
15728W        W87988  18.055  20.221  13.914
15729W        W87989  20.003  13.582   2.937
15730W        W87990  26.000  21.513  12.480
15731W        W87991  37.505  37.850   4.536
15732W        W87992  28.995   7.732   3.634
15733W        W87993  22.931  23.292   4.519
15734W        W87994  11.200  24.487   0.106
15735W        W87995  19.487   8.085  14.388
15736W        W87996  42.747  36.509   0.505
15737W        W87997  42.175  34.847   2.600
15738W        W87998  15.322   1.802  10.742
15739W        W87999  44.501  19.799   3.733
15740W        W88000   9.258  20.927   1.389
15741W        W88001   3.691  25.695   3.788
15742W        W88002  27.587  39.073  13.376
15743W        W88003  20.790  12.730   2.207
15744W        W88004  14.827  36.919   1.893
15745W        W88005  17.217  24.969   3.697
15746W        W88006  33.100  17.326  12.771
15747W        W88007  14.363  14.992  13.779
15748W        W88008  36.557  17.842  12.060
15749W        W88009  40.794  44.790   0.709
15750W        W88010  34.176  39.428  11.071
15751W        W88011  29.731  25.574  14.896
15752W        W88012   8.255  12.738  12.526
15753W        W88013  25.201  39.610   3.597
15754W        W88014   7.323   1.239   0.474
15755W        W88015   8.297   3.516   1.219
15756W        W88016   6.805  31.968   0.474
15757W        W88017   6.706   9.784  13.183
15758W        W88018  13.188   7.685   4.100
15759W        W88019  32.868  41.553   3.752
15760W        W88020  39.783  17.526   3.183
15761W        W88021  44.523   7.859  12.934
15762W        W88022  18.635  17.014  11.146
15763W        W88023  40.048   1.754  14.395
15764W        W88024   1.620  17.741  14.142
15765W        W88025  18.497  36.525  14.521
15766W        W88026  17.548  23.733   0.799
15767W        W88027  12.387  11.716   3.272
15768W        W88028  40.876  43.869   0.896
15769W        W88029  17.168  42.238   0.956
15770W        W88030   9.120   0.358  14.764
15771W        W88031  22.088  32.400   2.278
15772W        W88032  39.049  32.575   3.894
15773W        W88033  44.019  11.813   4.139
15774W        W88034  26.716  29.672  14.041
15775W        W88035   5.967   6.856   2.611
15776W        W88036  23.298  29.313   3.126
15777W        W88037  22.249  42.592  11.171
15778W        W88038  34.612   2.265   0.395
15779W        W88039   3.444  40.814  13.438
15780W        W88040  10.210   9.354  14.097
15781W        W88041   5.083  35.334  11.052
15782W        W88042  42.436  24.202   4.918
15783W        W88043  31.846   9.707   1.216
15784W        W88044  23.005   6.820   5.069
15785W        W88045  43.328   9.180  12.027
15786W        W88046  17.745  19.562   3.638
15787W        W88047  32.642   5.354   2.293
15788W        W88048   7.278  35.293  13.414
15789W        W88049  25.850  12.448   3.622
15790W        W88050  22.505  25.078   0.970
15791W        W88051  22.754  29.206  12.397
15792W        W88052   9.230  16.575  14.442
15793W        W88053  18.219  30.633   0.330
15794W        W88054   3.228   8.892  14.769
15795W        W88055  17.089  32.996   3.756
15796W        W88056  20.290   0.915  13.103
15797W        W88057  38.872   6.338   5.484
15798W        W88058  23.259  44.786   2.298
15799W        W88059  14.979   1.116  13.410
15800W        W88060   9.756  10.557  12.241
15801W        W88061  32.088  42.744  14.214
15802W        W88062  15.592  18.211   2.860
15803W        W88063  35.002  41.854  12.311
15804W        W88064  44.432  28.033  12.320
15805W        W88065  41.471   7.704   4.134
15806W        W88066  30.130  19.707   1.180
15807W        W88067  30.864  16.793   4.108
15808W        W88068  22.647  27.497  14.433
15809W        W88069  24.051  42.230   0.905
15810W        W88070   1.226  24.280  14.290
15811W        W88071  32.653  35.186   0.890
15812W        W88072  35.274  33.941  11.234
15813W        W88073  27.671   8.394   0.927
15814W        W88074  31.490  30.277  12.359
15815W        W88075   2.877  44.897  14.148
15816W        W88076  26.734   5.366  11.413
15817W        W88077  13.849  44.999  10.553
15818W        W88078  14.016   3.491  12.584
15819W        W88079  14.127  30.492   2.148
15820W        W88080  33.142  41.457   3.278
15821W        W88081  30.542  16.530   4.427
15822W        W88082  16.277  16.220   1.390
15823W        W88083  44.239  16.841  14.047
15824W        W88084  22.681   7.707  11.652
15825W        W88085  20.245  37.111   2.449
15826W        W88086   1.293  21.039  12.973
15827W        W88087  43.252  12.099   1.151
15828W        W88088  20.202  37.601   0.030
15829W        W88089   9.103  18.842   4.639
15830W        W88090  23.182  29.180   2.120
15831W        W88091   4.198  39.988   1.851
15832W        W88092  17.305  28.496   3.742
15833W        W88093  39.338   0.927   3.450
15834W        W88094  43.533  24.748  11.701
15835W        W88095  33.978  19.661   3.150
15836W        W88096  32.021  38.422  14.860
15837W        W88097  36.916  11.743   0.875
15838W        W88098  31.644   1.013   1.006
15839W        W88099  26.611  26.091   0.254
15840W        W88100  14.291  12.845  12.399
15841W        W88101  27.142  37.090   0.485
15842W        W88102  21.073   8.634   3.654
15843W        W88103   9.202  32.210  11.891
15844W        W88104  12.067  17.882   1.108
15845W        W88105  38.117  36.443   3.373
15846W        W88106  38.067  34.818  10.880
15847W        W88107  26.139  21.060  10.771
15848W        W88108   9.342  21.953   1.268
15849W        W88109   3.695  24.185   4.832
15850W        W88110  14.860   8.086  13.951
15851W        W88111   4.662   0.492  11.169
15852W        W88112   1.694  14.676   1.293
15853W        W88113  39.259  20.369  12.753
15854W        W88114   7.998  28.137  11.908
15855W        W88115  42.058  13.368   4.169
15856W        W88116   7.767   8.788   2.648
15857W        W88117   9.920  25.766   2.766
15858W        W88118  36.983  32.705   1.911
15859W        W88119  40.790   9.400  12.014
15860W        W88120  29.800  10.799   4.814
15861W        W88121   1.712  11.242   3.413
15862W        W88122  21.136  37.814  12.873
15863W        W88123  14.689   6.117  11.000
15864W        W88124   0.275  33.582   4.320
15865W        W88125   4.444  23.427   4.085
15866W        W88126   6.059  29.104  10.235
15867W        W88127  24.252  38.840   2.873
15868W        W88128  37.443  43.024   0.339
15869W        W88129  22.092  10.129   3.074
15870W        W88130  17.111  17.202   4.258
15871W        W88131   1.860   8.290   3.882
15872W        W88132  30.543  15.815  14.072
15873W        W88133   9.694  22.040  13.931
15874W        W88134  18.766   0.224   3.447
15875W        W88135   9.678  22.825  14.406
15876W        W88136  32.176   8.297   3.259
15877W        W88137  24.220   4.929   4.680
15878W        W88138  37.014  36.617   2.143
15879W        W88139   7.341  10.854  13.530
15880W        W88140  13.572   7.399   0.342
15881W        W88141  15.735  10.178   1.650
15882W        W88142  30.567  16.780  13.597
15883W        W88143  37.641  21.980   0.224
15884W        W88144   8.600  19.782   2.702
15885W        W88145  34.893   6.749  14.895
15886W        W88146  43.819  21.328   3.233
15887W        W88147  23.721  28.551   2.489
15888W        W88148   9.510  28.194  11.194
15889W        W88149  10.100  31.201  14.395
15890W        W88150  32.708  15.237  14.334
15891W        W88151   3.832   1.645   1.455
15892W        W88152  31.268  43.076   4.949
15893W        W88153  10.639  13.888  13.098
15894W        W88154  12.917  22.540  13.398
15895W        W88155  41.881  18.167  13.807
15896W        W88156  12.203  11.064   0.977
15897W        W88157  44.914  24.161  10.643
15898W        W88158  14.182   4.026  10.946
15899W        W88159   7.362  13.398   2.200
15900W        W88160  35.054  15.150  13.939
15901W        W88161  30.148  26.054   4.585
15902W        W88162  21.068   5.332  11.061
15903W        W88163  33.093  42.157  10.750
15904W        W88164  39.327  26.970  14.320
15905W        W88165  39.405  41.608   0.793
15906W        W88166  39.680  22.885   1.390
15907W        W88167  36.942  10.418  12.614
15908W        W88168  39.138  34.874   3.765
15909W        W88169   1.457  19.459  13.052
15910W        W88170  37.990  21.216   1.661
15911W        W88171  40.893  21.717  12.007
15912W        W88172  44.766  18.439   2.838
15913W        W88173   4.921   3.932   1.465
15914W        W88174   7.755  42.296   2.174
15915W        W88175  30.345  18.074  12.330
15916W        W88176   2.252  10.367  14.886
15917W        W88177  20.490  12.276   4.689
15918W        W88178  22.983  44.432  11.387
15919W        W88179  20.556  20.243   4.209
15920W        W88180  43.249  14.516   1.792
15921W        W88181  38.329  20.479   4.151
15922W        W88182  31.172  39.232   1.458
15923W        W88183  37.827  36.308   2.935
15924W        W88184   4.812  33.075   2.654
15925W        W88185  35.598  38.529  13.377
15926W        W88186   6.770  44.788   4.560
15927W        W88187   0.331  13.081  10.712
15928W        W88188  36.853  40.391  11.918
15929W        W88189  32.489  30.426  13.023
15930W        W88190  26.673  44.774   1.899
15931W        W88191  34.413  22.118   1.352
15932W        W88192  32.433  29.761   2.358
15933W        W88193  37.888  22.540  13.980
15934W        W88194   0.361   8.164   4.115
15935W        W88195  17.969  22.736   2.939
15936W        W88196   0.257  22.959   2.824
15937W        W88197  35.383   3.782   0.220
15938W        W88198  13.373  18.661   0.180
15939W        W88199  30.961  25.201  13.347
15940W        W88200  11.965  27.098  10.222
15941W        W88201   2.371  35.708  13.329
15942W        W88202  21.580  28.961   3.259
15943W        W88203  20.253  38.596  13.878
15944W        W88204  39.169  29.806   2.774
15945W        W88205   5.991  33.408  13.989
15946W        W88206   5.493   5.077   0.328
15947W        W88207   4.134  35.471  13.497
15948W        W88208   9.570  10.315   1.413
15949W        W88209  27.573   4.642  14.930
15950W        W88210  43.315  41.313   2.584
15951W        W88211  17.206  25.856   0.410
15952W        W88212  17.538  37.894  12.449
15953W        W88213  43.930   5.470  10.436
15954W        W88214  21.214  30.671  11.605
15955W        W88215  36.302  23.999  10.657
15956W        W88216  26.039  38.626   4.594
15957W        W88217  29.091  11.805  13.777
15958W        W88218   5.693  10.176   3.199
15959W        W88219  14.536  20.280   4.198
15960W        W88220   4.756   9.110  13.322
15961W        W88221   9.371  30.847  13.921
15962W        W88222  44.847  24.759  12.867
15963W        W88223   1.411  39.896  14.925
15964W        W88224   0.386  25.143  11.501
15965W        W88225  13.889  14.520   3.744
15966W        W88226  42.863   0.805  14.433
15967W        W88227  17.737  44.240   1.839
15968W        W88228  35.421  28.061   2.806
15969W        W88229  32.256  20.691  12.020
15970W        W88230  41.357  19.236   3.642
15971W        W88231   1.874   9.009   3.750
15972W        W88232  36.422  17.626   4.651
15973W        W88233   4.653  24.131   1.362
15974W        W88234  29.675  28.092  10.987
15975W        W88235  17.693   6.377  12.664
15976W        W88236  26.063  19.539   1.977
15977W        W88237  18.557  26.674  12.892
15978W        W88238  42.910  42.538   0.385
15979W        W88239  34.390   4.483   3.273
15980W        W88240   2.803  24.809  13.078
15981W        W88241  29.137  44.973   2.745
15982W        W88242  30.740  12.327   2.713
15983W        W88243  11.239  41.841  12.199
15984W        W88244  44.791  43.314  11.580
15985W        W88245  22.531   4.313   1.894
15986W        W88246  16.640  36.282  12.554
15987W        W88247  39.092  37.616  11.087
15988W        W88248  24.452  12.508  10.462
15989W        W88249  40.135  36.568  14.359
15990W        W88250   8.579  22.227  14.783
15991W        W88251  40.062  31.435   0.274
15992W        W88252  38.253  14.534  13.709
15993W        W88253  14.154  44.724  12.152
15994W        W88254   2.517  33.044   3.092
15995W        W88255  25.290   8.445  11.186
15996W        W88256   5.520  26.945   2.228
15997W        W88257  24.040  22.223   0.940
15998W        W88258  17.764  21.693  13.935
15999W        W88259  17.621  31.549  13.450
16000W        W88260  32.660  42.960   1.761
16001W        W88261   2.007   7.839  13.204
16002W        W88262   0.345  15.287  10.634
16003W        W88263   0.444  16.971   4.441
16004W        W88264   5.924   9.709   0.662
16005W        W88265  32.074  43.426   1.687
16006W        W88266  10.761   1.689   0.823
16007W        W88267  42.848  12.892  10.875
16008W        W88268  19.972   8.232   9.817
16009W        W88269  37.946  19.552  11.930
16010W        W88270   1.020  27.569   3.937
16011W        W88271  44.423  19.566   4.535
16012W        W88272  29.012  33.647  14.777
16013W        W88273  35.896   7.645  13.082
16014W        W88274  30.303   3.727   4.994
16015W        W88275  16.510  16.344   4.084
16016W        W88276  28.616  44.424   2.165
16017W        W88277  28.165  19.709  10.720
16018W        W88278  26.038   7.763   3.185
16019W        W88279  15.162  26.948  12.906
16020W        W88280  34.015   0.601  10.496
16021W        W88281  37.556  10.282  12.301
16022W        W88282  15.582  20.304  11.527
16023W        W88283  38.589  12.360  13.759
16024W        W88284  29.816   3.304   4.157
16025W        W88285  25.165   0.241  13.503
16026W        W88286  44.779   5.936   3.425
16027W        W88287  28.593  27.530   1.175
16028W        W88288  32.150  43.598  10.575
16029W        W88289  23.621  44.294  13.837
16030W        W88290  44.766  18.753   0.481
16031W        W88291   6.020   2.371   3.637
16032W        W88292  31.002   4.501  12.179
16033W        W88293   8.390  27.771   5.613
16034W        W88294  11.713  15.553  14.300
16035W        W88295   2.149   5.641  11.084
16036W        W88296  24.043  10.761  13.289
16037W        W88297  14.170  13.401  11.002
16038W        W88298  33.359  27.549   3.166
16039W        W88299   8.772  26.052   0.012
16040W        W88300  27.945   8.291  12.084
16041W        W88301   8.230  19.835   1.093
16042W        W88302  21.620  33.100   4.358
16043W        W88303  27.550  28.615  14.320
16044W        W88304  41.086  44.404  13.915
16045W        W88305   6.144  10.235   4.558
16046W        W88306  25.671  16.523  14.273
16047W        W88307  30.998  35.152   1.823
16048W        W88308  13.848  23.630  13.093
16049W        W88309  39.652   0.249   0.586
16050W        W88310   8.291  37.593  11.613
16051W        W88311  37.967  39.925   4.677
16052W        W88312  22.690  35.467   4.336
16053W        W88313  13.794   9.494  13.631
16054W        W88314  23.577  40.631  14.506
16055W        W88315  23.861  16.660  13.397
16056W        W88316  38.018  35.802   4.242
16057W        W88317  12.702   7.112  12.935
16058W        W88318   8.806  25.073   0.485
16059W        W88319  15.961   3.775   4.346
16060W        W88320  41.893  19.685   1.894
16061W        W88321  37.795  25.005  13.594
16062W        W88322  26.310  21.724   2.241
16063W        W88323  34.036  20.021  12.729
16064W        W88324  31.945  15.180   4.407
16065W        W88325  23.135  35.370  10.782
16066W        W88326  26.416   3.442   4.101
16067W        W88327  16.777  14.376   4.109
16068W        W88328   1.375  41.452  10.591
16069W        W88329  26.866  43.793  13.473
16070W        W88330   5.559   1.386  14.881
16071W        W88331  25.142   2.469  13.130
16072W        W88332  13.031  25.634  11.754
16073W        W88333  40.047  43.859  14.977
16074W        W88334  26.112  18.734  14.069
16075W        W88335   7.435  26.711   0.884
16076W        W88336   7.288  19.103  11.060
16077W        W88337  26.291  14.130   3.168
16078W        W88338  16.758  35.324  13.040
16079W        W88339   1.996  11.349   0.050
16080W        W88340  14.766  19.481   4.583
16081W        W88341  12.901  21.413   3.646
16082W        W88342  31.398  30.698   4.007
16083W        W88343  17.179  34.343   4.876
16084W        W88344  42.590   9.607   3.807
16085W        W88345   6.175  28.326   3.416
16086W        W88346  28.028  39.341  13.360
16087W        W88347  25.697  27.626   0.404
16088W        W88348  32.519   4.029  12.020
16089W        W88349  25.224  23.105   1.202
16090W        W88350   3.211   1.705  14.880
16091W        W88351  29.417  27.768   4.201
16092W        W88352  14.144  30.208   1.709
16093W        W88353  28.045  42.812  11.842
16094W        W88354  20.208  35.783  14.087
16095W        W88355  19.613  42.785   2.300
16096W        W88356   1.946   5.491  11.621
16097W        W88357  36.431  44.277   0.795
16098W        W88358  37.458  14.785  13.993
16099W        W88359  25.103  12.111  12.480
16100W        W88360  38.072   1.777   2.725
16101W        W88361   7.678  12.721   0.498
16102W        W88362   3.831   2.856   2.718
16103W        W88363  22.744  31.997  12.912
16104W        W88364  11.663   6.705  12.483
16105W        W88365  35.878  24.978  10.592
16106W        W88366  16.835  20.824  10.660
16107W        W88367  30.778  18.414   3.761
16108W        W88368  38.434  32.877   2.829
16109W        W88369   9.247  19.224  12.387
16110W        W88370  42.536  23.450  13.646
16111W        W88371   3.780  14.638  13.960
16112W        W88372  12.820  30.466  14.347
16113W        W88373  27.464  35.781   4.463
16114W        W88374  32.045  26.384  13.929
16115W        W88375  26.168  12.771   3.914
16116W        W88376   7.332  32.997  11.988
16117W        W88377   3.629  24.644  12.088
16118W        W88378  23.065  19.317   2.885
16119W        W88379  18.942  31.385  13.522
16120W        W88380   4.774  43.232   4.626
16121W        W88381  28.185  32.699  10.523
16122W        W88382  28.154  20.139   3.597
16123W        W88383  27.514  29.858  11.995
16124W        W88384  30.896  31.300   3.146
16125W        W88385  17.795  17.312   0.269
16126W        W88386  37.624   8.895   0.325
16127W        W88387  44.316  37.052   1.852
16128W        W88388  18.152  16.762   2.256
16129W        W88389  31.669  15.078  14.380
16130W        W88390   8.868  24.170   0.283
16131W        W88391  28.560  32.367  14.985
16132W        W88392  21.455  18.506  13.407
16133W        W88393  11.742  38.932   1.380
16134W        W88394   6.863   8.474   3.010
16135W        W88395  26.477  23.963  11.106
16136W        W88396   1.434  30.475  11.381
16137W        W88397  11.031  29.628  13.908
16138W        W88398  18.529  37.328  13.856
16139W        W88399  33.122  22.977   2.630
16140W        W88400  31.563  25.285   2.410
16141W        W88401   5.340  37.497   3.077
16142W        W88402  33.631  30.773   1.141
16143W        W88403  11.674  32.691  13.031
16144W        W88404  34.398   6.315   3.702
16145W        W88405  16.617  22.289  12.869
16146W        W88406  33.874   0.820  10.935
16147W        W88407  39.496   4.699  13.943
16148W        W88408  15.405  14.508   4.221
16149W        W88409   8.815  12.214   2.490
16150W        W88410  27.376  40.087   0.095
16151W        W88411   5.188  25.004   3.199
16152W        W88412  29.785   6.988   0.453
16153W        W88413  37.233  13.383   3.785
16154W        W88414  30.386   6.442   1.603
16155W        W88415   3.677  28.510  12.204
16156W        W88416  18.545  15.918   1.805
16157W        W88417  12.798  27.421   0.824
16158W        W88418  18.807  30.916  12.457
16159W        W88419   2.335  37.313  11.624
16160W        W88420  41.819  10.592  12.575
16161W        W88421  34.900  25.727  14.752
16162W        W88422  17.683  28.951   2.918
16163W        W88423  28.879  18.942   4.177
16164W        W88424  19.694  13.139  12.323
16165W        W88425  20.676  14.123  11.096
16166W        W88426   1.495  30.561  11.865
16167W        W88427  26.986   8.582  11.856
16168W        W88428  32.470  11.730   2.919
16169W        W88429  22.985   0.968  12.285
16170W        W88430   4.757  30.885  13.521
16171W        W88431  14.078   4.981  14.900
16172W        W88432  31.042  31.179   9.868
16173W        W88433  25.728   9.193   3.165
16174W        W88434  21.668   0.834  13.325
16175W        W88435   0.707  36.581  11.943
16176W        W88436   9.715  20.678   4.404
16177W        W88437  38.013   5.919  12.457
16178W        W88438  27.120   2.175  12.471
16179W        W88439   6.369  10.593  13.465
16180W        W88440  37.454  41.419  14.861
16181W        W88441  24.192   3.227  14.487
16182W        W88442   2.743  13.668  13.836
16183W        W88443  44.660  12.063  13.345
16184W        W88444  31.847  41.418   4.154
16185W        W88445  33.156  36.432  12.220
16186W        W88446  33.435  31.539  12.489
16187W        W88447  30.004  40.393   4.652
16188W        W88448   0.809  28.635   0.279
16189W        W88449   2.728  41.802  11.560
16190W        W88450  24.131  42.697   4.055
16191W        W88451  25.236  34.663   1.927
16192W        W88452  24.688  44.844   2.811
16193W        W88453  44.533   7.225   2.372
16194W        W88454  15.782  22.153   4.697
16195W        W88455  20.342  11.865  11.425
16196W        W88456   1.280  44.277   3.247
16197W        W88457  28.865  39.758  11.338
16198W        W88458  28.733  31.020  14.758
16199W        W88459  44.790  35.862  13.048
16200W        W88460  14.181  32.863  13.300
16201W        W88461   5.364  43.489  14.880
16202W        W88462  19.633   6.866  12.775
16203W        W88463  15.229  44.503  12.050
16204W        W88464  20.443  27.349   3.172
16205W        W88465  40.523  41.030   3.408
16206W        W88466  35.159  44.069   5.199
16207W        W88467  27.544  31.920   0.963
16208W        W88468   0.387   8.388   4.576
16209W        W88469   0.409  24.757   2.976
16210W        W88470  41.097   2.354  14.241
16211W        W88471  14.833   2.693  14.957
16212W        W88472   1.929  43.639   4.478
16213W        W88473  10.865  40.112   4.545
16214W        W88474  26.996  40.607   2.204
16215W        W88475   4.772  28.140  10.659
16216W        W88476  17.550  40.000   0.452
16217W        W88477  10.956   6.913  13.249
16218W        W88478   9.729  36.966  10.970
16219W        W88479  16.134  20.703  11.062
16220W        W88480  33.550   4.319  13.630
16221W        W88481  33.824  14.168  12.913
16222W        W88482  28.362  15.382  14.787
16223W        W88483  11.206   0.302   2.680
16224W        W88484  19.431  19.295  12.520
16225W        W88485  31.371  21.034   0.413
16226W        W88486   4.468  42.179   2.125
16227W        W88487  30.303  43.493   3.098
16228W        W88488   8.262  17.068   3.262
16229W        W88489  42.040  37.135  14.442
16230W        W88490  42.379  23.490  14.972
16231W        W88491  31.569  42.039  14.359
16232W        W88492  33.428  33.990   2.089
16233W        W88493  21.658  17.081   1.367
16234W        W88494  34.616  12.597   4.187
16235W        W88495  31.191  21.095   3.141
16236W        W88496  14.293  16.748  14.371
16237W        W88497  17.580   7.931  14.886
16238W        W88498  33.039  15.267   2.256
16239W        W88499   7.323   1.842   4.634
16240W        W88500  16.793   0.614   1.639
16241W        W88501  28.651  34.051   3.562
16242W        W88502  18.063  30.022  12.978
16243W        W88503  14.111  31.069   4.051
16244W        W88504  16.761  15.664   4.520
16245W        W88505  20.891  34.419   0.836
16246W        W88506  39.204  23.195   2.801
16247W        W88507  29.394   2.225   0.836
16248W        W88508  36.573  12.601   2.677
16249W        W88509  29.904  13.182   0.774
16250W        W88510  23.614  44.194   0.459
16251W        W88511  19.494  36.050   0.371
16252W        W88512  20.197  38.382   4.633
16253W        W88513  13.123  37.513  14.307
16254W        W88514  26.565  31.598  12.902
16255W        W88515   7.211  41.529  14.214
16256W        W88516   9.962   0.328   2.334
16257W        W88517   1.777  35.981   1.471
16258W        W88518  23.165  16.864   2.798
16259W        W88519  15.472   8.645   2.702
16260W        W88520  31.911  14.729  10.522
16261W        W88521  34.121  16.735   2.711
16262W        W88522  43.815  12.125  13.879
16263W        W88523  17.882  22.663  13.918
16264W        W88524  19.129   2.280   1.387
16265W        W88525  41.090  43.403   1.751
16266W        W88526  43.668   4.141  10.740
16267W        W88527  14.221  10.863  14.762
16268W        W88528  16.811  42.018  11.529
16269W        W88529  26.009  12.069  14.354
16270W        W88530   2.189  37.963  10.488
16271W        W88531  43.974   0.437   0.540
16272W        W88532  23.705  27.006  10.665
16273W        W88533  10.218   7.682   3.484
16274W        W88534   8.962  10.163  14.449
16275W        W88535  30.506   8.754   1.692
16276W        W88536   0.344  15.626   1.413
16277W        W88537  11.968  19.702  13.057
16278W        W88538   9.147  11.711   1.418
16279W        W88539  40.778  22.388  11.413
16280W        W88540  43.485  40.090   4.116
16281W        W88541   2.899   7.223  12.343
16282W        W88542   5.725  36.934  13.650
16283W        W88543   9.748  27.231  14.136
16284W        W88544   7.989  10.866   3.765
16285W        W88545  41.045  35.943  13.009
16286W        W88546  20.048  26.361  14.822
16287W        W88547   1.499  20.540  13.876
16288W        W88548  22.778  19.067   4.203
16289W        W88549  24.802  40.925  13.654
16290W        W88550  29.507  41.518   2.753
16291W        W88551  15.242   3.358  14.738
16292W        W88552  38.852   9.368  11.339
16293W        W88553  34.297  41.271  10.789
16294W        W88554  41.711  11.143   3.297
16295W        W88555  33.073  38.368  12.465
16296W        W88556  26.703  20.193  14.723
16297W        W88557   0.729   0.994   4.045
16298W        W88558   3.806  30.486  13.241
16299W        W88559   4.143  22.164  14.828
16300W        W88560  24.233  39.352  13.311
16301W        W88561  36.923  41.155  12.487
16302W        W88562  25.721  44.852   2.593
16303W        W88563  24.950  18.438   1.449
16304W        W88564  43.522   9.895  11.633
16305W        W88565  39.080  10.670  14.266
16306W        W88566   3.754  41.932   0.694
16307W        W88567  15.601  36.635  13.351
16308W        W88568  20.758  15.586   3.174
16309W        W88569  34.946   4.618   4.245
16310W        W88570   7.686  42.043   1.297
16311W        W88571   8.236  21.204   1.170
16312W        W88572  12.384  22.924  14.316
16313W        W88573  43.195  11.094  10.671
16314W        W88574  19.628  16.808  11.002
16315W        W88575  32.947  29.996   0.229
16316W        W88576  33.528  17.224   4.610
16317W        W88577   5.585  16.813  10.935
16318W        W88578   0.892   8.169   4.220
16319W        W88579   4.430  39.489  13.478
16320W        W88580  21.660  21.491  13.979
16321W        W88581  37.062  19.102  10.688
16322W        W88582  23.105   5.414  11.441
16323W        W88583  36.679  43.696  13.062
16324W        W88584  15.443  22.670   2.755
16325W        W88585  21.728  27.048  12.372
16326W        W88586  30.593  21.196   2.780
16327W        W88587  20.249   7.472   0.063
16328W        W88588  10.703  22.213  14.031
16329W        W88589  13.140   9.820   2.827
16330W        W88590  15.576  12.851  14.336
16331W        W88591   9.770  34.415  12.816
16332W        W88592  12.289  13.402   3.617
16333W        W88593   8.210  18.370   0.409
16334W        W88594  41.984  31.809  12.541
16335W        W88595  28.065  32.593   3.834
16336W        W88596  37.820  32.111   5.104
16337W        W88597  18.328  36.022  11.957
16338W        W88598   6.373   0.679   3.080
16339W        W88599  40.860   2.688  13.926
16340W        W88600  30.570  13.603  12.371
16341W        W88601  10.582  33.384  13.417
16342W        W88602   4.059   7.249   3.945
16343W        W88603   3.478  42.600   2.838
16344W        W88604  12.739  23.634   0.771
16345W        W88605  36.422  22.650   4.230
16346W        W88606  21.329  39.342  14.500
16347W        W88607  15.086  24.455   2.236
16348W        W88608  44.695  30.093   1.061
16349W        W88609  12.889  40.863  11.134
16350W        W88610   0.923  15.376  12.915
16351W        W88611  18.253   9.929   1.502
16352W        W88612  40.572  37.964   3.759
16353W        W88613  10.190  18.271   3.714
16354W        W88614  43.080  22.520  12.619
16355W        W88615  33.975   3.799  10.927
16356W        W88616   7.946  40.806   1.316
16357W        W88617  37.853  30.009   2.384
16358W        W88618  27.668   4.023   4.606
16359W        W88619  30.366  32.417   0.837
16360W        W88620  29.583  31.071   2.748
16361W        W88621  17.515  31.214  12.114
16362W        W88622  38.836  26.005  14.867
16363W        W88623  18.016  28.506  12.520
16364W        W88624  23.904  21.694  13.524
16365W        W88625  39.399  14.127  14.804
16366W        W88626  32.932  20.508  14.515
16367W        W88627  15.495  28.690   3.713
16368W        W88628   4.505  38.794  13.797
16369W        W88629   0.905  43.014  11.607
16370W        W88630  21.475  17.647   4.644
16371W        W88631  35.838   3.161   2.632
16372W        W88632  24.517  14.610   4.058
16373W        W88633   8.460  18.860   2.556
16374W        W88634   3.291  24.081  13.244
16375W        W88635  36.837  40.428   1.093
16376W        W88636  38.145  33.844   1.897
16377W        W88637  32.463  25.504  10.786
16378W        W88638  29.761  18.513   3.281
16379W        W88639   5.317   9.047   2.900
16380W        W88640   9.753  32.030  10.664
16381W        W88641  25.899   4.170   4.251
16382W        W88642  35.411  32.404   4.903
16383W        W88643  19.367   1.800   3.842
16384W        W88644  38.775   4.988  14.481
16385W        W88645  32.069  25.005   2.293
16386W        W88646  20.393  24.020  12.030
16387W        W88647   0.596  26.554  14.510
16388W        W88648  30.375   9.254  13.099
16389W        W88649   3.728  33.563   3.837
16390W        W88650  35.556   6.004   0.688
16391W        W88651  20.712  30.238  14.833
16392W        W88652  21.303  34.919  12.386
16393W        W88653  12.138  23.355  11.170
16394W        W88654   9.707  24.673   4.684
16395W        W88655  41.348  32.390   4.820
16396W        W88656  26.457  19.663  11.138
16397W        W88657  30.693   5.701   1.336
16398W        W88658   9.200  27.926  13.024
16399W        W88659   8.272  18.053  12.968
16400W        W88660  31.193  26.242  13.964
16401W        W88661  32.894  43.575  10.980
16402W        W88662  22.456   2.126   2.847
16403W        W88663  35.531  38.560   0.325
16404W        W88664   2.535  19.446  10.297
16405W        W88665  36.962  36.366  11.848
16406W        W88666  13.183   3.087   5.057
16407W        W88667  32.931  34.962  10.662
16408W        W88668  31.119  16.664  13.415
16409W        W88669  14.334  31.866  10.445
16410W        W88670  40.903  36.493  13.078
16411W        W88671  41.555  36.540  12.611
16412W        W88672  39.881   0.477  10.409
16413W        W88673  26.720  24.437  12.837
16414W        W88674  12.438  43.374   3.622
16415W        W88675  35.936  32.420  10.623
16416W        W88676  26.157  27.032   4.357
16417W        W88677  34.065  22.609   4.851
16418W        W88678  15.105  44.159   1.333
16419W        W88679  33.015  16.691   0.469
16420W        W88680  28.128  40.068   3.784
16421W        W88681  24.484  22.541  14.241
16422W        W88682  25.553  23.187   3.958
16423W        W88683  38.827  41.434   1.829
16424W        W88684  30.222  39.897   2.747
16425W        W88685   0.422  28.109   2.144
16426W        W88686  34.499  19.002   2.390
16427W        W88687  25.081  20.044  13.986
16428W        W88688  16.666  41.464   4.779
16429W        W88689  22.650  25.341   3.568
16430W        W88690  18.713  31.588  10.742
16431W        W88691  40.251  21.368  13.906
16432W        W88692  18.836   0.808  11.592
16433W        W88693  22.821  42.741  10.644
16434W        W88694  34.106  24.296  10.917
16435W        W88695  11.590   3.185  13.858
16436W        W88696  30.089   2.389  10.671
16437W        W88697   2.191   3.886  14.202
16438W        W88698  28.751  21.888   0.935
16439W        W88699   2.414   2.606   0.369
16440W        W88700  44.492   6.413   4.201
16441W        W88701  34.579  20.173  14.399
16442W        W88702  19.042  30.065  12.010
16443W        W88703  36.047  28.947  14.599
16444W        W88704  40.405   5.214   0.918
16445W        W88705  31.314  24.558   3.624
16446W        W88706  38.054  22.463  14.483
16447W        W88707  42.481   9.655  11.374
16448W        W88708  23.637   4.307  14.552
16449W        W88709   9.726  16.380  13.574
16450W        W88710  12.784  41.711  10.783
16451W        W88711   3.207  34.067   3.703
16452W        W88712  29.391  14.621  10.415
16453W        W88713  14.813  34.143  13.472
16454W        W88714  23.261  13.333   0.856
16455W        W88715   0.956  13.602  13.972
16456W        W88716  26.255  37.566   1.174
16457W        W88717  30.605  10.766   4.446
16458W        W88718  31.269  22.804   4.273
16459W        W88719   6.120  34.959  12.803
16460W        W88720  18.593  43.365  14.461
16461W        W88721  24.915  23.564   1.891
16462W        W88722   7.259   1.858   0.607
16463W        W88723  30.180  18.582   1.921
16464W        W88724  10.914  23.641  14.874
16465W        W88725  42.411  34.328  10.453
16466W        W88726  28.416  21.107  12.161
16467W        W88727  16.512  30.724   1.305
16468W        W88728  15.928  36.535   2.802
16469W        W88729   3.076  40.295   0.246
16470W        W88730   1.087  22.146   3.258
16471W        W88731  19.216  11.237   2.829
16472W        W88732  29.483  21.146   3.670
16473W        W88733  23.385   7.200   1.194
16474W        W88734   6.407  23.998   1.286
16475W        W88735  19.244   5.508   9.793
16476W        W88736   9.220  37.475   2.505
16477W        W88737  13.060  35.752  14.569
16478W        W88738   0.686  37.399  14.776
16479W        W88739  37.355  19.110   9.850
16480W        W88740  41.861  33.619  12.482
16481W        W88741   7.272  15.786   0.991
16482W        W88742   1.514  42.925   4.103
16483W        W88743  15.608  41.751   4.128
16484W        W88744  29.141  17.902   3.145
16485W        W88745  35.391  36.757  11.287
16486W        W88746  39.359  11.595  10.019
16487W        W88747  25.525  41.525  12.425
16488W        W88748   2.903  28.808   1.262
16489W        W88749   4.284   0.234   0.403
16490W        W88750   7.777  31.554  11.987
16491W        W88751  34.904  29.150   0.978
16492W        W88752   0.346  17.676   1.840
16493W        W88753  41.392   1.189   3.674
16494W        W88754  21.427  39.701  12.455
16495W        W88755  13.276  23.444  14.378
16496W        W88756   1.451   0.459  14.509
16497W        W88757  28.736  43.888   4.693
16498W        W88758   5.786   8.852  13.289
16499W        W88759  28.128  12.764   3.049
16500W        W88760  36.438  19.099  11.301
16501W        W88761   1.936   5.213  14.122
16502W        W88762   3.540  37.542  13.758
16503W        W88763  14.837  11.143   2.188
16504W        W88764  21.215  14.259   4.296
16505W        W88765   9.750   3.778   3.989
16506W        W88766   8.803  16.461   4.273
16507W        W88767  25.202  15.600   1.382
16508W        W88768  17.535  34.410   1.198
16509W        W88769  11.042  12.721  11.910
16510W        W88770  31.143   5.713  14.447
16511W        W88771  27.115  14.364  11.905
16512W        W88772   5.622  28.083   5.481
16513W        W88773  17.790   2.438   4.246
16514W        W88774  11.133  21.248  12.202
16515W        W88775  44.895  23.246  14.410
16516W        W88776   3.373  12.960  14.701
16517W        W88777  16.734  17.615  14.846
16518W        W88778  38.807   0.316   3.781
16519W        W88779  23.732   9.661   0.302
16520W        W88780  38.626  36.439   3.302
16521W        W88781  15.304  19.111  10.746
16522W        W88782  20.105  41.514   2.387
16523W        W88783  34.207  28.625  13.894
16524W        W88784   4.888  40.841   2.637
16525W        W88785  26.517  29.693  10.613
16526W        W88786  20.647  22.946   3.719
16527W        W88787   6.016   2.417  13.330
16528W        W88788  42.351  10.868  13.843
16529W        W88789  43.614  24.153   2.730
16530W        W88790  37.653  32.602  13.135
16531W        W88791  22.820  28.626  11.970
16532W        W88792  28.697  15.346  13.903
16533W        W88793  15.430   4.309   2.744
16534W        W88794  19.555  38.986  12.830
16535W        W88795  18.587  18.322   3.582
16536W        W88796  23.516  39.536   2.187
16537W        W88797  43.242  32.393   1.390
16538W        W88798  18.308  26.601   0.575
16539W        W88799  40.560  24.455   1.296
16540W        W88800  12.157  33.741  12.680
16541W        W88801   4.146   1.867   3.468
16542W        W88802  25.231  39.533   0.871
16543W        W88803  22.452  29.925   3.042
16544W        W88804  24.807  44.592   2.334
16545W        W88805   9.999  21.150  12.867
16546W        W88806  21.325  38.860  10.693
16547W        W88807   9.610  36.084  11.997
16548W        W88808  19.707   1.783   1.214
16549W        W88809  18.291  35.735  10.724
16550W        W88810  37.315  24.612   1.314
16551W        W88811  10.346   1.329  13.363
16552W        W88812   1.492  22.295   4.049
16553W        W88813  39.677  39.481  13.171
16554W        W88814   6.190  32.309  14.107
16555W        W88815  32.084  43.858   2.869
16556W        W88816  11.361  24.653  10.688
16557W        W88817  29.116   9.181  11.764
16558W        W88818  41.712  21.159   4.540
16559W        W88819   7.396  31.642   1.273
16560W        W88820  31.907  35.508  13.831
16561W        W88821  18.801  17.765  14.855
16562W        W88822  32.990  38.874   4.714
16563W        W88823  20.293  20.948   3.678
16564W        W88824  10.753   6.955   2.916
16565W        W88825  18.728  24.481   0.006
16566W        W88826  15.061  26.455  13.013
16567W        W88827  31.440  42.903  11.756
16568W        W88828   2.534   7.349  11.495
16569W        W88829  40.989  21.067   0.715
16570W        W88830  20.366  41.457   4.694
16571W        W88831  29.514  29.158  10.139
16572W        W88832   3.720  25.384  14.470
16573W        W88833   7.351  37.159  13.217
16574W        W88834  36.409  38.537  12.301
16575W        W88835  38.089  23.157  13.485
16576W        W88836   2.774  21.460   3.879
16577W        W88837   1.355  32.396  13.849
16578W        W88838  30.609   9.069  12.091
16579W        W88839  24.699  40.810   4.174
16580W        W88840  42.760   5.379  13.947
16581W        W88841  19.108  42.419   3.751
16582W        W88842  32.328  30.822   2.347
16583W        W88843  40.632  35.336  11.871
16584W        W88844  36.028  12.185  10.762
16585W        W88845  12.854   5.738  11.811
16586W        W88846   1.159   3.368  13.450
16587W        W88847  30.507   4.698   0.103
16588W        W88848  39.828  15.769   4.540
16589W        W88849  32.128  19.110   1.466
16590W        W88850   8.058  17.616   4.071
16591W        W88851   7.711  25.447   4.618
16592W        W88852  13.948  13.667  11.958
16593W        W88853  41.268   6.150   3.246
16594W        W88854   5.919   8.360  14.417
16595W        W88855  36.983   1.561  11.123
16596W        W88856   1.317   5.267   1.595
16597W        W88857  12.897  44.457  14.267
16598W        W88858  21.010  23.194  10.541
16599W        W88859  18.248  40.885   3.048
16600W        W88860   0.712  17.162   0.940
16601W        W88861   2.246   7.653  12.320
16602W        W88862   1.977  12.304  14.024
16603W        W88863  38.602   5.820   4.663
16604W        W88864  12.886  19.655  13.568
16605W        W88865  38.421  21.670  13.931
16606W        W88866  25.397  30.869  11.208
16607W        W88867  25.803  17.629   4.213
16608W        W88868  33.818  39.577   3.413
16609W        W88869   7.815   1.034   3.181
16610W        W88870  42.514  27.021  11.013
16611W        W88871  10.531  24.943   4.854
16612W        W88872   5.126   6.335  11.547
16613W        W88873  15.620   6.974  14.010
16614W        W88874  25.015  18.903  13.372
16615W        W88875   9.897  38.528  14.865
16616W        W88876  25.098  42.351   5.732
16617W        W88877  21.206  27.264   1.712
16618W        W88878  34.554  44.880  14.269
16619W        W88879  33.452  36.194   3.990
16620W        W88880   3.311  27.256  13.880
16621W        W88881  35.986   0.507  10.638
16622W        W88882  20.275  29.514   2.396
16623W        W88883  40.375  25.022  12.875
16624W        W88884   7.765  23.155   3.272
16625W        W88885  12.088  10.359  12.589
16626W        W88886   6.777  14.017   2.730
16627W        W88887  18.804   8.371   0.789
16628W        W88888  32.832  14.172   4.382
16629W        W88889  36.592   6.531  10.275
16630W        W88890  21.534  30.462  13.464
16631W        W88891  40.689  28.491  10.467
16632W        W88892  15.351  23.445  14.843
16633W        W88893  13.274   3.746   4.538
16634W        W88894  14.634  44.225   2.961
16635W        W88895  36.176   8.342   1.726
16636W        W88896  21.945  13.173   2.400
16637W        W88897  15.315  34.647  11.777
16638W        W88898  15.348  37.385  14.027
16639W        W88899   2.352  11.700  12.632
16640W        W88900  41.954  21.775   2.898
16641W        W88901  22.753  33.096  12.020
16642W        W88902  23.976  31.550   0.277
16643W        W88903  25.999  19.854   3.828
16644W        W88904  20.598  13.293   2.318
16645W        W88905  23.958  13.588   0.837
16646W        W88906  32.529   0.726  13.143
16647W        W88907  18.972  16.817  12.915
16648W        W88908  13.470   3.969   0.723
16649W        W88909  39.585  44.269   0.734
16650W        W88910  35.366  19.492   3.650
16651W        W88911   9.427   2.783  10.997
16652W        W88912   3.893  41.455  11.890
16653W        W88913  31.517  26.736   2.199
16654W        W88914  38.947  36.335  10.862
16655W        W88915  25.101  22.783  11.770
16656W        W88916   2.427  27.964   5.148
16657W        W88917  44.447   7.428  11.528
16658W        W88918  12.260  22.468  14.564
16659W        W88919   4.425   0.922  12.229
16660W        W88920  20.745  20.181   2.426
16661W        W88921  26.373  31.644   2.793
16662W        W88922   1.304  17.075   4.395
16663W        W88923   2.535  16.819  11.502
16664W        W88924  34.629  41.404   1.354
16665W        W88925  15.624  20.516   1.873
16666W        W88926  11.546  33.364   3.011
16667W        W88927  27.845   7.680   4.368
16668W        W88928   6.210   2.457  13.828
16669W        W88929  19.663   3.390   2.672
16670W        W88930  27.213  18.571   1.690
16671W        W88931  28.620  35.022  11.082
16672W        W88932  41.850   5.127  13.799
16673W        W88933  27.094   3.230   1.278
16674W        W88934  44.843  17.264  13.016
16675W        W88935  31.894  25.105   5.094
16676W        W88936  36.445  26.180   4.981
16677W        W88937  21.045  19.102   2.298
16678W        W88938  36.000   9.063   4.058
16679W        W88939  25.337  19.189   4.875
16680W        W88940  35.630  11.588  12.410
16681W        W88941  41.018  12.310   3.719
16682W        W88942  25.211  35.380   1.503
16683W        W88943  27.197   0.896  13.951
16684W        W88944  41.750   9.364   3.686
16685W        W88945  12.112  28.880   1.797
16686W        W88946  15.589   4.354  12.921
16687W        W88947  11.901  24.039   0.504
16688W        W88948   3.867  40.834   2.802
16689W        W88949   0.441  15.712   0.018
16690W        W88950  15.676  15.793  14.051
16691W        W88951  30.565  37.327  12.493
16692W        W88952   8.111   1.510  12.131
16693W        W88953   2.026  16.598  12.668
16694W        W88954  17.549  23.574  13.163
16695W        W88955  33.110  10.082  10.612
16696W        W88956  30.543   2.709   2.721
16697W        W88957  19.750   4.502  13.048
16698W        W88958  43.845  35.514  12.077
16699W        W88959  15.653  25.769   2.902
16700W        W88960  42.915  14.850   2.602
16701W        W88961  26.482  13.692  12.990
16702W        W88962  10.585  41.336  11.226
16703W        W88963  42.949   6.136   3.819
16704W        W88964  19.130  38.523   1.179
16705W        W88965   9.286  17.031  11.594
16706W        W88966  23.089  29.200  11.081
16707W        W88967  43.811  13.250   4.948
16708W        W88968  24.759  26.210   3.212
16709W        W88969  21.066  24.207  11.561
16710W        W88970  24.777  33.940  11.142
16711W        W88971  13.411  43.603  12.008
16712W        W88972  21.501  31.504   1.215
16713W        W88973   1.089  34.917  11.495
16714W        W88974  10.938  12.979   0.089
16715W        W88975  43.427  14.661   2.612
16716W        W88976  18.114   5.618  11.610
16717W        W88977  10.669  40.490  14.386
16718W        W88978  43.097  43.927  11.917
16719W        W88979  44.955  16.876   1.311
16720W        W88980  35.447  34.228  12.543
16721W        W88981  41.109  22.696  11.988
16722W        W88982  19.519  11.357   4.118
16723W        W88983  35.509   1.006   4.921
16724W        W88984  41.286  39.391  11.153
16725W        W88985   8.804  40.267  12.106
16726W        W88986  27.126   1.607   2.792
16727W        W88987  37.470   3.945   3.802
16728W        W88988  30.326   7.174  14.332
16729W        W88989   0.461  31.638  14.575
16730W        W88990  21.362   4.287  14.759
16731W        W88991  32.597   0.989  14.327
16732W        W88992  19.744  32.145   1.718
16733W        W88993   2.866  35.403  14.041
16734W        W88994  27.207  40.418  14.720
16735W        W88995  19.708  35.876   2.198
16736W        W88996  26.165   3.775   2.784
16737W        W88997  29.491   8.129   3.668
16738W        W88998  40.079  23.093   3.189
16739W        W88999  32.810  35.878  14.911
16740W        W89000   9.549  13.860  14.939
16741W        W89001  28.525  32.660   0.993
16742W        W89002   6.440  19.743   0.892
16743W        W89003  16.192  44.865   3.537
16744W        W89004   3.384  19.756   4.621
16745W        W89005  33.974  22.518  14.814
16746W        W89006  12.722  21.109   2.296
16747W        W89007  13.349  18.398  13.867
16748W        W89008   0.212  27.062  11.165
16749W        W89009  11.090   8.771   0.545
16750W        W89010  30.131   7.388  12.478
16751W        W89011  16.780  11.252  12.961
16752W        W89012  11.269   9.927   1.416
16753W        W89013  28.950  44.369   4.606
16754W        W89014  43.263  21.284   1.839
16755W        W89015  42.949  23.919  12.632
16756W        W89016   9.361   8.258   4.286
16757W        W89017  25.288  41.888   1.948
16758W        W89018   1.077  12.411  13.540
16759W        W89019  28.960   9.802  12.424
16760W        W89020  12.593  44.171   0.255
16761W        W89021  28.261  13.046   1.719
16762W        W89022   1.354   1.058   0.367
16763W        W89023  28.575  20.996  11.251
16764W        W89024  29.132  19.433  11.563
16765W        W89025   1.716  15.621   0.896
16766W        W89026   0.418   7.180   0.328
16767W        W89027  25.178   3.715  12.093
16768W        W89028  28.941  26.776  14.530
16769W        W89029  18.246  40.273   2.149
16770W        W89030   5.044  23.239   3.305
16771W        W89031  42.287  41.923   3.737
16772W        W89032  23.435  41.302  11.974
16773W        W89033   1.620  28.550  14.977
16774W        W89034  25.965  36.938   4.465
16775W        W89035  21.756  40.349   2.923
16776W        W89036  28.258   3.900   2.449
16777W        W89037  38.464   2.763   2.632
16778W        W89038  25.280  26.586  11.068
16779W        W89039  35.818  41.941  12.982
16780W        W89040  26.337   2.472   3.696
16781W        W89041   9.444   0.367   1.358
16782W        W89042  39.518  38.915  12.094
16783W        W89043   5.744  25.169   2.690
16784W        W89044  39.314   9.877  10.604
16785W        W89045  35.972   9.266   3.120
16786W        W89046  36.693  10.521  11.067
16787W        W89047  36.592  34.072   4.120
16788W        W89048  10.412  14.077   0.989
16789W        W89049   9.872  31.679  14.222
16790W        W89050  41.529  37.008  11.100
16791W        W89051  16.822  12.066  11.037
16792W        W89052  27.641   9.911   2.775
16793W        W89053   0.438  33.252   4.685
16794W        W89054  25.928  17.647   0.035
16795W        W89055   5.339  33.450   0.277
16796W        W89056  26.291  25.734   0.425
16797W        W89057   0.809  10.799  10.244
16798W        W89058  26.646  26.900   3.209
16799W        W89059  36.338  20.187   1.910
16800W        W89060   8.201  44.836  14.009
16801W        W89061  18.267  29.606  12.538
16802W        W89062  37.799   3.085  14.357
16803W        W89063  35.579   2.242  12.129
16804W        W89064  20.936  36.103   3.679
16805W        W89065  36.708  19.420  14.714
16806W        W89066   1.064   4.830  13.066
16807W        W89067  21.701  21.879   3.493
16808W        W89068  11.236  24.536   4.165
16809W        W89069  44.925   1.151  14.855
16810W        W89070  16.577   2.510  13.495
16811W        W89071  27.015  32.547  14.984
16812W        W89072  11.548  37.962   3.217
16813W        W89073   9.823  44.395   0.528
16814W        W89074   0.286  12.339   2.794
16815W        W89075   7.994  37.964   0.849
16816W        W89076   7.843   5.231  14.501
16817W        W89077  24.076  12.606  14.911
16818W        W89078  42.899  28.581   0.910
16819W        W89079   3.610  19.578  11.231
16820W        W89080  38.884  21.725   2.773
16821W        W89081  44.991  40.388  10.991
16822W        W89082  35.323  37.463  14.685
16823W        W89083  29.730   3.760   2.913
16824W        W89084  27.974  18.074   2.305
16825W        W89085  26.707  11.387   1.036
16826W        W89086  31.168   1.860   3.448
16827W        W89087  33.322  35.794  14.862
16828W        W89088  31.986   9.533  12.504
16829W        W89089   1.678  14.703  13.542
16830W        W89090  24.001  41.473   4.545
16831W        W89091  43.921  22.999  11.182
16832W        W89092  24.599  34.510  13.571
16833W        W89093  19.653  35.631  10.638
16834W        W89094  15.001   4.982   0.852
16835W        W89095  12.780   6.983   0.846
16836W        W89096  39.609  28.506   0.773
16837W        W89097  40.392  42.803  11.573
16838W        W89098  44.134  18.670   2.681
16839W        W89099  40.044  17.272   2.758
16840W        W89100   1.169  15.740   2.127
16841W        W89101  23.268  15.624  14.397
16842W        W89102  27.000  10.414  11.408
16843W        W89103  39.029   5.249  11.667
16844W        W89104  40.635  21.818   1.582
16845W        W89105   6.592  29.991   2.748
16846W        W89106   6.311  30.425   4.580
16847W        W89107   9.806  13.344  13.306
16848W        W89108  39.836   1.598   3.100
16849W        W89109  34.605   0.510   2.744
16850W        W89110  15.702  39.962  13.751
16851W        W89111  26.591  26.003   3.920
16852W        W89112  14.319  33.861   4.188
16853W        W89113  24.232   7.764  13.314
16854W        W89114  13.789  39.232  12.759
16855W        W89115  43.988  40.392  13.457
16856W        W89116  34.233   0.840  12.491
16857W        W89117  43.799  25.048  11.351
16858W        W89118  10.109  12.789   1.328
16859W        W89119   8.622  41.772   2.298
16860W        W89120  28.080  14.656   1.743
16861W        W89121  36.825  40.056  13.861
16862W        W89122  36.881  13.594   2.959
16863W        W89123  24.549  29.396   1.081
16864W        W89124  26.990  27.136  13.687
16865W        W89125   0.510   0.895  13.422
16866W        W89126  15.013  30.343   2.883
16867W        W89127  36.886  18.612   2.194
16868W        W89128  43.096  36.805  11.393
16869W        W89129  25.634  33.923  13.646
16870W        W89130   8.206  28.840  14.883
16871W        W89131   0.925  31.453  14.310
16872W        W89132  31.851   6.988   4.581
16873W        W89133  36.853  11.085  14.018
16874W        W89134  16.310  21.217   3.547
16875W        W89135  14.275   4.201  14.328
16876W        W89136  13.054  12.889   4.119
16877W        W89137  20.590  44.302  14.410
16878W        W89138  12.366  15.734  12.868
16879W        W89139   1.835  16.795  10.681
16880W        W89140  29.170  43.347  13.219
16881W        W89141   4.199   3.389  14.392
16882W        W89142  30.628  27.880   4.511
16883W        W89143   2.917  31.552   4.304
16884W        W89144  32.223  43.890   1.863
16885W        W89145  44.738  28.672  13.930
16886W        W89146   8.134  24.001  11.148
16887W        W89147  18.628  27.750  11.142
16888W        W89148  22.060   6.163  11.221
16889W        W89149  19.085  26.218  11.657
16890W        W89150   0.537  41.381  12.879
16891W        W89151   4.497  36.889  13.189
16892W        W89152   6.333  17.514   5.124
16893W        W89153   8.991  17.661   2.231
16894W        W89154  16.867   9.137   3.515
16895W        W89155  29.721   5.596  14.415
16896W        W89156  12.739  26.494   3.576
16897W        W89157  42.858  35.183   0.434
16898W        W89158  11.185   7.790  13.356
16899W        W89159  19.329  19.586  12.944
16900W        W89160  15.526  17.707   4.578
16901W        W89161  36.902  13.033  11.746
16902W        W89162  35.333  24.361  12.351
16903W        W89163  20.064  19.801  13.288
16904W        W89164   2.853  33.165  12.940
16905W        W89165  43.015  11.107   1.134
16906W        W89166  37.999  39.498  12.137
16907W        W89167  26.558  35.557  13.103
16908W        W89168  22.712  43.489  13.304
16909W        W89169  18.619  10.157  13.423
16910W        W89170  14.515  41.819  11.041
16911W        W89171  36.422  25.989   4.515
16912W        W89172  41.541  28.242   4.670
16913W        W89173   7.251   9.885  11.721
16914W        W89174  38.870  42.539  13.239
16915W        W89175   6.552   3.326  11.542
16916W        W89176  38.040  36.893  13.211
16917W        W89177   6.122  14.755   1.807
16918W        W89178  15.135  24.684   0.343
16919W        W89179  16.495  10.455  11.531
16920W        W89180  19.475  42.365  11.092
16921W        W89181  29.662  41.056  12.492
16922W        W89182  17.360  18.168   4.589
16923W        W89183   1.029   6.834   0.959
16924W        W89184  29.060   6.889  12.772
16925W        W89185  40.053  22.087   4.837
16926W        W89186  29.924  41.520  11.597
16927W        W89187  44.463  33.987   4.387
16928W        W89188  19.966   2.880  11.489
16929W        W89189   2.834  13.781   3.100
16930W        W89190  44.411  42.686  13.371
16931W        W89191   3.855  27.633  12.068
16932W        W89192  36.835   1.756  12.443
16933W        W89193  25.894  31.869   2.726
16934W        W89194  41.634  32.116  12.323
16935W        W89195  14.541  14.381   2.407
16936W        W89196  36.688  23.632  10.708
16937W        W89197  27.523  21.908  14.475
16938W        W89198  28.362  15.598   3.878
16939W        W89199  18.070  43.604   0.334
16940W        W89200   8.357  37.093  11.069
16941W        W89201  13.820   6.676   4.315
16942W        W89202   2.192  27.597   0.313
16943W        W89203  16.045  43.030   2.725
16944W        W89204  14.842  24.057  10.698
16945W        W89205  28.630  11.785   1.020
16946W        W89206  32.142   3.770   1.574
16947W        W89207   8.823  41.608  11.557
16948W        W89208  34.037  38.420  12.438
16949W        W89209   4.901  25.592   4.229
16950W        W89210   2.230  13.777  12.100
16951W        W89211  21.067   2.074  14.799
16952W        W89212  14.095  14.239   4.185
16953W        W89213  30.913  29.056  12.571
16954W        W89214   1.952  22.486   3.265
16955W        W89215  13.433   8.586  10.859
16956W        W89216  35.790  34.558  11.154
16957W        W89217   6.405  18.013   1.416
16958W        W89218  34.892   8.447  12.061
16959W        W89219  30.109  10.364  14.764
16960W        W89220  35.537   1.204  13.534
16961W        W89221  39.825  10.794   3.336
16962W        W89222  22.778  41.215  12.502
16963W        W89223  42.916  43.883   0.163
16964W        W89224  40.703  42.488  12.446
16965W        W89225  21.596  19.334   3.612
16966W        W89226   8.229  20.043   3.299
16967W        W89227   8.430  28.573  13.388
16968W        W89228  41.631  32.398   2.728
16969W        W89229  33.957  15.635   1.301
16970W        W89230  29.407  14.130   3.907
16971W        W89231  14.545  27.565   1.489
16972W        W89232  38.861  41.877   0.341
16973W        W89233  12.585  27.616  14.334
16974W        W89234  30.100  24.245   4.245
16975W        W89235   5.677  23.224  10.488
16976W        W89236   2.005  11.604  11.863
16977W        W89237  44.556  36.024   3.225
16978W        W89238  13.760  29.495  11.500
16979W        W89239  28.015  10.616  12.684
16980W        W89240  11.908  18.779  12.821
16981W        W89241  29.266   2.868   1.808
16982W        W89242  43.863  18.661  14.355
16983W        W89243   4.011  17.222  11.095
16984W        W89244  19.453  43.976   4.644
16985W        W89245   2.239  40.319  11.123
16986W        W89246  21.072  40.277   3.569
16987W        W89247   3.516  26.635  14.863
16988W        W89248   2.287  17.721  11.369
16989W        W89249  24.084  19.592   0.041
16990W        W89250  28.152  12.193  11.593
16991W        W89251  30.679   5.343   3.245
16992W        W89252   9.610   0.706  14.005
16993W        W89253  38.161   8.932  12.521
16994W        W89254   4.118  41.867   3.793
16995W        W89255  29.543   0.298   0.909
16996W        W89256  17.027   6.329  12.052
16997W        W89257  33.121  11.734  14.480
16998W        W89258   5.158  35.632  13.437
16999W        W89259  15.786  31.733   3.494
17000W        W89260  42.221  23.045   2.763
17001W        W89261  40.932   2.336   0.974
17002W        W89262  44.250   2.992  14.456
17003W        W89263  44.801   5.729   1.215
17004W        W89264  38.592  30.024  11.983
17005W        W89265   0.554  44.044  13.612
17006W        W89266   0.709  18.145  13.582
17007W        W89267  11.163  44.510   4.648
17008W        W89268  26.766   6.813   4.618
17009W        W89269  39.011  24.253   3.718
17010W        W89270   2.678   3.892  14.062
17011W        W89271  24.496  39.466  11.082
17012W        W89272   9.192  27.730   2.684
17013W        W89273  35.412   6.172   2.715
17014W        W89274  13.871  43.254  11.110
17015W        W89275  29.948  12.470  11.260
17016W        W89276  24.951  39.432  10.704
17017W        W89277   4.969  37.542  13.824
17018W        W89278   4.319   8.244  12.491
17019W        W89279  38.460   8.258  13.601
17020W        W89280  36.553   9.467   0.915
17021W        W89281  15.017   1.893  14.823
17022W        W89282  25.558  14.787  12.867
17023W        W89283  26.930  22.146  14.846
17024W        W89284  35.977   8.770   1.915
17025W        W89285  32.017   3.965   3.421
17026W        W89286  39.541   9.799   1.896
17027W        W89287  41.842  19.775  11.117
17028W        W89288  33.049  32.492   4.591
17029W        W89289   8.383   0.920  10.767
17030W        W89290  37.389  24.458   2.319
17031W        W89291  19.185  32.949  14.918
17032W        W89292  22.651   5.195  12.859
17033W        W89293  26.159  44.233   2.449
17034W        W89294  22.686  44.467  11.894
17035W        W89295  45.000  16.673   3.253
17036W        W89296  17.464  12.276  11.543
17037W        W89297  27.676  18.241   0.468
17038W        W89298  38.726  25.571  12.605
17039W        W89299  37.323  30.660   0.948
17040W        W89300  10.738  32.098   3.855
17041W        W89301  38.361   4.986   2.135
17042W        W89302  40.740  21.897  11.558
17043W        W89303  16.539  34.100   4.426
17044W        W89304  13.284  12.238   2.631
17045W        W89305  23.393  22.748  10.610
17046W        W89306  42.553   3.917   1.294
17047W        W89307  44.510  40.610   1.891
17048W        W89308  39.384   6.809  11.637
17049W        W89309  39.457  30.382   2.190
17050W        W89310  42.535   7.403   4.158
17051W        W89311  19.230  14.222  13.361
17052W        W89312  17.697   8.966  14.828
17053W        W89313   2.302  37.001  13.615
17054W        W89314  11.148  36.415   0.922
17055W        W89315  41.564  21.072  13.608
17056W        W89316  13.903  13.560  14.338
17057W        W89317  33.559  18.570  10.080
17058W        W89318  17.237  17.750  14.695
17059W        W89319  38.806  29.985  13.734
17060W        W89320   9.422  19.399   1.308
17061W        W89321  27.500   6.998   2.994
17062W        W89322  13.806  21.493  13.431
17063W        W89323  32.388  34.458  11.138
17064W        W89324  27.102  40.241   3.072
17065W        W89325  42.248  28.777   0.197
17066W        W89326  43.584  13.290  13.589
17067W        W89327  25.164  33.728   3.427
17068W        W89328   6.468   5.886   1.821
17069W        W89329  15.991  15.793  12.111
17070W        W89330   4.009  31.069  11.684
17071W        W89331  33.100  16.839   3.695
17072W        W89332  13.526   5.814  11.065
17073W        W89333   3.568  17.307   1.433
17074W        W89334  22.094  42.824   3.862
17075W        W89335  31.030   6.484  14.989
17076W        W89336  33.647  44.980   1.777
17077W        W89337  17.803  12.295  13.819
17078W        W89338  37.470  41.031  11.189
17079W        W89339  33.722  15.077  14.259
17080W        W89340  21.421   5.377  11.477
17081W        W89341  17.679  43.700   1.773
17082W        W89342  27.063  25.621   1.412
17083W        W89343  41.107  40.496  11.500
17084W        W89344  24.656  16.190   2.483
17085W        W89345  37.503  33.579   3.110
17086W        W89346   1.533  11.667  11.695
17087W        W89347  18.619  17.725   3.598
17088W        W89348  33.320  34.372  11.934
17089W        W89349  24.409  33.419  14.327
17090W        W89350  14.421   7.287   3.150
17091W        W89351   4.728  43.529  13.953
17092W        W89352  31.331  10.170  13.860
17093W        W89353  28.539  14.504   2.896
17094W        W89354  12.765  31.585   2.040
17095W        W89355  18.833  16.702   0.368
17096W        W89356   5.485  33.470  14.002
17097W        W89357   3.834   8.324  12.294
17098W        W89358  39.310  30.465   1.235
17099W        W89359  15.872   1.229  11.986
17100W        W89360  30.120  23.560  10.584
17101W        W89361   5.426  34.133  13.416
17102W        W89362  12.941  32.447  12.559
17103W        W89363  21.131  20.395   2.677
17104W        W89364  27.007  43.757  14.666
17105W        W89365  24.497  24.197  12.971
17106W        W89366  19.620  42.568   3.443
17107W        W89367  27.338  44.025  11.505
17108W        W89368  31.053  11.842   1.817
17109W        W89369  44.365  12.585  10.463
17110W        W89370  38.898  10.642  14.777
17111W        W89371  31.234  11.923   1.346
17112W        W89372  13.839  44.273  14.367
17113W        W89373  43.555   1.266   0.441
17114W        W89374  42.523  17.331   3.760
17115W        W89375  19.680  41.881  12.477
17116W        W89376  36.425  17.581   0.759
17117W        W89377  40.430  14.372  14.496
17118W        W89378  27.945   2.955   4.981
17119W        W89379  30.510  32.069   9.807
17120W        W89380  10.613  14.071  13.909
17121W        W89381  12.947  18.524  10.838
17122W        W89382  10.324  24.836   3.994
17123W        W89383   5.671  42.288  13.522
17124W        W89384  24.324  42.758  11.135
17125W        W89385  30.073  36.260  14.941
17126W        W89386  21.579  40.677   4.186
17127W        W89387  24.678  10.613   1.230
17128W        W89388  33.492   5.187  11.579
17129W        W89389  14.145  11.785   0.195
17130W        W89390  41.032  13.069   0.604
17131W        W89391  31.830  26.140  12.500
17132W        W89392  17.199  27.221  14.060
17133W        W89393  23.180  33.104   4.678
17134W        W89394  27.244  34.148  11.246
17135W        W89395   6.822  32.123   3.536
17136W        W89396  35.064  43.305  12.567
17137W        W89397  34.476  21.464  14.992
17138W        W89398  30.940  35.200  12.967
17139W        W89399  42.318  18.105   4.383
17140W        W89400  37.454   7.325   2.738
17141W        W89401   7.334  12.088   1.834
17142W        W89402  23.787   2.250  11.117
17143W        W89403   5.415   0.012  11.039
17144W        W89404   9.289  43.744   3.361
17145W        W89405  19.733  15.845  11.985
17146W        W89406   1.995  24.096   2.506
17147W        W89407   1.213  21.710   0.813
17148W        W89408   9.713  33.008  13.110
17149W        W89409  33.421   8.860  13.651
17150W        W89410   4.456  42.856   2.684
17151W        W89411  44.305  25.230  14.460
17152W        W89412  22.252   3.724  11.234
17153W        W89413  39.793  24.128   0.228
17154W        W89414  42.464  35.285  13.793
17155W        W89415  31.864   2.272  12.063
17156W        W89416  11.073  25.257  12.388
17157W        W89417  34.061  43.298  12.452
17158W        W89418  35.488  44.533   0.917
17159W        W89419  17.627  22.954   0.382
17160W        W89420  24.507   2.948  13.392
17161W        W89421   4.865  20.557  10.815
17162W        W89422  17.170   1.809   2.228
17163W        W89423  29.920  40.078   1.232
17164W        W89424   2.271  18.812   4.856
17165W        W89425  36.836  26.098  13.127
17166W        W89426  29.377  42.642   4.412
17167W        W89427   5.469  40.389   2.150
17168W        W89428  35.622   0.328   3.185
17169W        W89429   6.416  44.459  10.478
17170W        W89430  42.282  30.651   2.258
17171W        W89431  41.491  33.395  14.842
17172W        W89432   7.246  13.094   0.826
17173W        W89433  15.849  10.837  12.219
17174W        W89434  10.193  20.448  11.645
17175W        W89435  37.375  39.137   3.880
17176W        W89436   8.864  33.904   3.189
17177W        W89437  29.772  31.944  12.494
17178W        W89438   3.036  13.270   2.246
17179W        W89439  22.271  27.947   4.274
17180W        W89440  15.590  11.164   1.415
17181W        W89441   4.148  21.667   3.166
17182W        W89442   8.262   2.248   2.818
17183W        W89443  29.517  38.728  10.433
17184W        W89444  24.763  15.908   1.510
17185W        W89445  31.682  31.987  12.557
17186W        W89446  31.442   4.634   3.332
17187W        W89447  40.417  30.934  10.923
17188W        W89448  26.534  22.702   2.224
17189W        W89449   2.411  35.175   0.258
17190W        W89450  39.294  43.815   2.785
17191W        W89451  38.850  15.402   2.437
17192W        W89452  24.902  26.053   3.740
17193W        W89453  32.513   5.220  10.452
17194W        W89454  40.252   3.817  11.691
17195W        W89455   9.724  16.829   4.742
17196W        W89456  10.950  21.631   4.883
17197W        W89457   5.391  32.080   4.689
17198W        W89458  36.580  12.186  14.078
17199W        W89459  19.099   1.469   3.537
17200W        W89460  14.712  36.903  12.159
17201W        W89461   0.388  14.370   0.179
17202W        W89462  26.656   0.855   4.668
17203W        W89463  29.306  40.551  12.805
17204W        W89464  25.452  19.534  11.932
17205W        W89465  27.041  37.563   4.219
17206W        W89466  26.713  36.047  13.078
17207W        W89467   7.868  40.402   4.569
17208W        W89468  14.359  25.678  11.064
17209W        W89469  32.624  32.606  13.370
17210W        W89470  32.965  16.189  14.307
17211W        W89471   2.748  38.338  11.569
17212W        W89472  38.880  21.320  12.038
17213W        W89473  35.870  12.307   1.293
17214W        W89474   1.355  22.992  14.084
17215W        W89475   6.330   4.235  10.752
17216W        W89476  22.022  26.508   3.091
17217W        W89477  15.775  13.709  13.843
17218W        W89478  31.430  20.127   2.841
17219W        W89479   4.923  21.271  13.495
17220W        W89480  19.492  37.867   3.288
17221W        W89481   1.773  38.440  11.859
17222W        W89482  11.146  17.136   2.333
17223W        W89483  29.677   6.816   3.126
17224W        W89484  26.435  40.293  12.857
17225W        W89485  13.108  35.305   1.455
17226W        W89486  26.676  22.250   3.074
17227W        W89487   7.494  13.891   4.337
17228W        W89488   3.651   8.911   0.726
17229W        W89489  15.120   2.301  14.524
17230W        W89490  15.353  11.430   0.401
17231W        W89491  15.148  44.783  10.762
17232W        W89492   5.972   1.468   3.581
17233W        W89493   6.860  31.162  11.179
17234W        W89494  41.191   4.313  13.418
17235W        W89495  29.505   6.627  11.680
17236W        W89496  10.299   8.106   4.229
17237W        W89497  21.062  20.794   0.906
17238W        W89498  24.150  36.228   3.686
17239W        W89499  34.854  28.634  13.049
17240W        W89500  38.317   3.970   4.185
17241W        W89501  32.086  31.537  11.828
17242W        W89502  25.479  34.108   3.224
17243W        W89503  18.291  11.083  12.906
17244W        W89504  28.457  26.647  12.927
17245W        W89505  27.918  43.742   2.304
17246W        W89506  44.979  42.688   2.433
17247W        W89507  41.377  29.200  14.005
17248W        W89508  40.372  32.608   2.150
17249W        W89509  25.874  36.173  12.526
17250W        W89510   7.127  36.887   4.123
17251W        W89511  28.045  31.153   4.595
17252W        W89512  27.701  30.089   4.266
17253W        W89513  23.690  15.342  11.468
17254W        W89514  39.047   3.207  11.073
17255W        W89515  25.502  16.270  12.944
17256W        W89516  39.097   2.408  12.501
17257W        W89517  19.758   3.484   0.713
17258W        W89518  13.190  41.158   1.416
17259W        W89519  38.813  41.266  11.091
17260W        W89520  42.658  13.722  11.411
17261W        W89521  32.173  25.137  12.054
17262W        W89522  34.017   9.674   4.252
17263W        W89523   3.743  26.905   1.807
17264W        W89524  28.572   3.778   0.300
17265W        W89525   5.746  43.324  14.175
17266W        W89526  31.891  44.329  12.476
17267W        W89527  18.280  15.778   3.744
17268W        W89528  33.499  20.156  13.346
17269W        W89529  33.396  34.503  14.284
17270W        W89530  11.687  30.632  12.367
17271W        W89531   8.745  15.904   4.163
17272W        W89532  41.317  28.691  13.785
17273W        W89533  39.557  37.441   0.389
17274W        W89534  25.202  26.730   1.362
17275W        W89535  35.731  21.354   4.817
17276W        W89536  25.014  41.280   1.510
17277W        W89537  19.918  30.606   0.885
17278W        W89538   1.213  18.589   1.112
17279W        W89539   2.821  33.636   2.127
17280W        W89540   3.316  29.475  13.522
17281W        W89541  42.994   6.183   1.324
17282W        W89542   1.473  20.234  13.475
17283W        W89543   9.133   4.916  13.154
17284W        W89544  17.241  33.221  13.033
17285W        W89545  35.880  20.082  13.143
17286W        W89546   0.847   2.275  12.465
17287W        W89547  38.544  22.931   4.095
17288W        W89548  28.871  29.952   3.082
17289W        W89549  41.409  20.181  11.225
17290W        W89550  41.810  42.295  11.474
17291W        W89551   1.757  15.091   0.907
17292W        W89552  14.569  42.277  13.839
17293W        W89553  19.756  14.307  13.147
17294W        W89554  36.350  14.924   3.278
17295W        W89555  36.429  10.655  10.645
17296W        W89556   3.755  26.496  13.801
17297W        W89557  31.533   0.792   3.335
17298W        W89558  21.725  30.230  11.971
17299W        W89559   4.940  33.175  12.456
17300W        W89560  12.724  27.617   2.593
17301W        W89561  10.346   8.953  13.737
17302W        W89562  22.960  25.125  12.123
17303W        W89563  26.536   8.882   4.226
17304W        W89564  13.684  23.031   2.619
17305W        W89565   9.979  10.041   2.713
17306W        W89566  18.159  28.558   3.632
17307W        W89567  19.392  16.794  13.199
17308W        W89568   0.848  10.270   4.894
17309W        W89569  39.922  28.022  12.192
17310W        W89570  20.206  19.525   5.464
17311W        W89571   8.345   9.696   4.262
17312W        W89572   4.702  34.969   1.176
17313W        W89573   6.412  17.553  10.059
17314W        W89574   5.843  33.242   1.826
17315W        W89575  17.820   4.881   3.342
17316W        W89576  23.461  34.858   0.410
17317W        W89577  13.193  26.675   3.379
17318W        W89578  16.814  25.513   2.270
17319W        W89579  34.578  44.315  11.049
17320W        W89580  26.951  13.787  13.275
17321W        W89581  33.903  37.785  10.772
17322W        W89582  27.211  19.241  13.334
17323W        W89583   6.841  41.700   1.759
17324W        W89584   8.738  39.549   4.649
17325W        W89585  15.864  16.704  11.375
17326W        W89586  35.518  13.785   4.893
17327W        W89587  12.221  12.898   3.732
17328W        W89588  41.251   5.488  12.945
17329W        W89589  27.452  22.368   4.806
17330W        W89590  37.918  16.180   4.577
17331W        W89591  44.266  29.259   5.002
17332W        W89592   3.997  17.536  10.681
17333W        W89593  33.610  27.518   2.705
17334W        W89594   3.751  22.155  11.956
17335W        W89595  22.960  30.022  13.327
17336W        W89596  28.529  37.999   0.524
17337W        W89597  41.133  33.894   3.680
17338W        W89598  37.454  36.086   1.527
17339W        W89599  11.672  20.494   4.312
17340W        W89600  27.768  30.424   0.843
17341W        W89601  15.012  20.449  13.826
17342W        W89602  24.785  26.378  10.172
17343W        W89603  35.183  30.433  12.204
17344W        W89604  44.878  29.355   2.822
17345W        W89605  38.208  38.733   3.374
17346W        W89606   6.510  38.319  14.044
17347W        W89607  16.348  29.266   4.123
17348W        W89608   3.710  38.558  12.996
17349W        W89609   7.768  39.116  10.770
17350W        W89610   3.945  21.824   0.154
17351W        W89611  29.119  41.416  11.188
17352W        W89612  32.952  10.414   1.937
17353W        W89613   5.258   5.436   4.729
17354W        W89614   9.328  37.880  14.267
17355W        W89615  24.279  42.099   2.386
17356W        W89616  12.035  38.147   3.272
17357W        W89617  30.618  35.769  14.291
17358W        W89618   6.473  14.775  12.559
17359W        W89619  27.258  17.447  11.042
17360W        W89620   3.224   0.381  12.934
17361W        W89621   2.219  33.500  12.074
17362W        W89622  32.574   7.887  13.296
17363W        W89623   1.589  29.805   1.169
17364W        W89624   2.833  14.342   0.294
17365W        W89625  14.031  19.315  12.541
17366W        W89626  32.992  12.434   3.086
17367W        W89627  17.546  19.115   3.298
17368W        W89628   0.005  32.409   0.684
17369W        W89629  38.108   7.934  10.358
17370W        W89630   6.983  22.929   4.937
17371W        W89631   6.847  32.570   2.338
17372W        W89632  21.534  44.836   1.906
17373W        W89633  23.873   6.221  10.804
17374W        W89634  29.606   6.954  11.178
17375W        W89635  11.303   2.478   0.748
17376W        W89636   3.852   2.347   2.662
17377W        W89637   9.246  10.682  13.678
17378W        W89638  32.683   4.297  12.863
17379W        W89639  34.561  42.221   2.167
17380W        W89640  24.073  18.655   4.253
17381W        W89641   2.643   3.914  11.985
17382W        W89642  41.086   4.878   1.307
17383W        W89643  22.848   3.793  12.527
17384W        W89644   2.377   2.920  14.945
17385W        W89645  21.612  10.973   2.231
17386W        W89646  15.998  16.580  10.844
17387W        W89647  11.191  35.737   3.254
17388W        W89648  27.692  10.675   1.700
17389W        W89649   6.279   8.736  12.450
17390W        W89650  34.968  18.717  13.067
17391W        W89651   2.874   0.611   3.754
17392W        W89652   3.834  16.210   3.278
17393W        W89653   9.486   0.130   3.126
17394W        W89654  14.873  40.359   4.092
17395W        W89655  12.958  36.873  11.543
17396W        W89656  36.067  33.096   0.303
17397W        W89657  38.901  42.957   4.831
17398W        W89658  26.240   4.599  13.908
17399W        W89659   5.886  15.148  11.957
17400W        W89660  13.646   6.239  10.251
17401W        W89661  14.320  21.267   1.956
17402W        W89662  27.551   0.328   2.827
17403W        W89663  22.807  15.991   4.212
17404W        W89664  13.324   2.025   2.177
17405W        W89665   3.323  32.364   0.813
17406W        W89666  17.357  33.521   1.772
17407W        W89667  39.897  35.503   3.519
17408W        W89668   5.887   9.435   1.633
17409W        W89669  32.890  26.340   2.363
17410W        W89670  30.921  14.172  11.461
17411W        W89671  10.095  39.280   0.469
17412W        W89672  38.904  39.539   4.014
17413W        W89673  13.415  41.873   3.742
17414W        W89674  29.027   6.669   1.271
17415W        W89675   0.783  43.385  12.596
17416W        W89676  29.066  41.238  12.013
17417W        W89677   8.273   0.544  13.068
17418W        W89678   0.860  12.877   0.740
17419W        W89679  15.531   3.700  11.656
17420W        W89680  34.299   9.788  14.313
17421W        W89681  29.640  24.748  13.840
17422W        W89682  32.479  18.960   3.321
17423W        W89683   2.827   2.270  12.902
17424W        W89684  17.862  32.120  14.810
17425W        W89685  12.819   8.927  11.540
17426W        W89686  42.830  15.167  11.401
17427W        W89687   1.395  19.353   4.492
17428W        W89688  34.133  34.349   2.325
17429W        W89689  31.041  38.580  10.864
17430W        W89690   6.451  35.352  13.016
17431W        W89691  18.194  22.138   4.528
17432W        W89692  26.497  17.073  13.534
17433W        W89693  27.692  41.852   4.278
17434W        W89694   7.704  24.680  10.508
17435W        W89695  34.806   3.911   4.937
17436W        W89696  39.418  20.981  14.774
17437W        W89697  25.187  28.077  11.529
17438W        W89698  17.622  25.730  12.333
17439W        W89699   5.655  24.689   3.237
17440W        W89700  26.442  20.280   2.681
17441W        W89701  22.558  34.265  12.449
17442W        W89702  18.093  15.036  12.325
17443W        W89703  29.525   5.773  10.558
17444W        W89704  24.174  13.123  12.548
17445W        W89705  43.731  34.561   3.646
17446W        W89706  29.905  39.377   1.430
17447W        W89707  43.604  35.699   2.506
17448W        W89708  37.881  38.239  12.182
17449W        W89709  38.965  39.384   0.210
17450W        W89710   8.405  41.968  14.655
17451W        W89711  24.487  39.577  13.823
17452W        W89712  13.671   7.316   3.666
17453W        W89713  31.667  21.242   4.254
17454W        W89714  15.260   2.939   2.992
17455W        W89715  24.242  32.854   0.506
17456W        W89716  10.402  21.501  13.590
17457W        W89717   0.486   0.672  13.880
17458W        W89718   5.312   6.768  14.813
17459W        W89719  37.971   8.303  13.466
17460W        W89720   9.652  35.670  14.900
17461W        W89721   1.359  36.849  11.759
17462W        W89722  30.379  39.502  14.344
17463W        W89723  33.547  10.405   4.060
17464W        W89724  12.854  42.774  14.005
17465W        W89725  26.737  26.946  11.969
17466W        W89726  13.085   2.731  14.439
17467W        W89727  15.367  25.716   4.209
17468W        W89728   0.715  11.265  10.999
17469W        W89729  19.183   4.291   1.853
17470W        W89730  30.191  15.195   2.354
17471W        W89731   8.609  15.161  10.753
17472W        W89732  16.089  38.238  11.518
17473W        W89733  29.135  29.874   0.813
17474W        W89734  20.131  16.597   9.970
17475W        W89735  14.669  18.277  11.422
17476W        W89736  23.179  27.204   2.334
17477W        W89737  21.623  19.285  12.969
17478W        W89738  19.512  11.823  11.127
17479W        W89739  29.385  15.126   2.862
17480W        W89740  38.222  10.998  14.044
17481W        W89741  31.443   0.406  13.010
17482W        W89742  27.140   8.356   0.976
17483W        W89743  13.029  23.486   2.167
17484W        W89744  31.792  20.698  13.318
17485W        W89745  40.148   2.264   1.414
17486W        W89746  20.994   9.232  13.857
17487W        W89747   7.275  11.203  11.985
17488W        W89748  11.337  17.039   4.213
17489W        W89749   9.950  14.585  11.969
17490W        W89750  15.914   5.910  14.714
17491W        W89751  22.916   2.218   2.453
17492W        W89752  42.197  35.806   2.246
17493W        W89753  11.797  37.177   1.008
17494W        W89754   7.404  42.260  12.880
17495W        W89755  22.613  27.161   2.813
17496W        W89756   4.127  17.764   3.700
17497W        W89757   7.732  20.735   1.286
17498W        W89758  43.242  40.840   1.904
17499W        W89759  44.067  19.524  11.221
17500W        W89760  37.618  30.270  13.257
17501W        W89761  12.634   4.722   4.683
17502W        W89762  31.410   9.627   2.222
17503W        W89763  19.121  23.977  12.485
17504W        W89764  38.278  44.628  12.647
17505W        W89765  25.312  26.050   1.619
17506W        W89766  37.887  36.448   1.713
17507W        W89767  32.342  24.543   0.041
17508W        W89768   7.505  37.241   4.165
17509W        W89769  33.586  27.243  12.496
17510W        W89770  34.587   9.097   4.129
17511W        W89771  13.577  30.625  12.676
17512W        W89772  44.291   0.629   1.513
17513W        W89773  35.334   2.698  11.160
17514W        W89774  18.609  15.550  12.918
17515W        W89775   6.312  22.599  10.685
17516W        W89776  10.288  36.015   1.748
17517W        W89777  42.861   8.897  14.911
17518W        W89778  15.424   8.737   1.832
17519W        W89779  23.565  25.158   1.482
17520W        W89780   3.875  14.287  10.777
17521W        W89781  15.105  25.454   2.198
17522W        W89782   5.502   4.928   0.864
17523W        W89783  40.558  33.013   1.178
17524W        W89784   5.709   8.730  11.250
17525W        W89785  11.469  25.979  11.033
17526W        W89786  30.407  27.480  13.080
17527W        W89787  33.890  17.299   1.895
17528W        W89788  34.008  39.848   0.790
17529W        W89789  36.455  16.327   2.885
17530W        W89790  44.006  30.223  13.580
17531W        W89791   0.995  38.146   2.806
17532W        W89792  19.914  18.509   1.682
17533W        W89793  44.238  11.329   2.362
17534W        W89794   0.848  14.949   4.087
17535W        W89795  14.804  29.583   0.961
17536W        W89796  19.688   7.798   4.984
17537W        W89797  12.938  14.973   3.174
17538W        W89798  24.439  25.970  14.220
17539W        W89799  10.644  26.980   3.369
17540W        W89800  14.552   2.845   2.369
17541W        W89801   0.155  38.261   0.919
17542W        W89802  36.476   2.040   1.236
17543W        W89803  25.630  31.819   4.587
17544W        W89804   1.845  29.101   3.852
17545W        W89805  44.399   2.711  13.957
17546W        W89806  13.728  24.949   4.641
17547W        W89807   6.899   6.980   0.803
17548W        W89808   2.982  33.014   3.298
17549W        W89809  36.395  14.809   2.789
17550W        W89810   7.224   8.971  14.830
17551W        W89811   9.918   6.396   4.593
17552W        W89812  23.106  27.585  13.146
17553W        W89813   0.237   4.375  11.582
17554W        W89814  11.358  32.418   2.343
17555W        W89815   3.509  40.369   2.364
17556W        W89816  33.304  11.157   1.330
17557W        W89817  30.838   0.343  10.153
17558W        W89818  29.450  39.741  13.423
17559W        W89819  38.509   0.492  11.205
17560W        W89820   6.525  18.679  11.551
17561W        W89821  35.537  22.978   4.594
17562W        W89822   7.991   9.783  12.569
17563W        W89823  38.853  10.347   5.029
17564W        W89824  26.454   2.260  12.797
17565W        W89825  11.674  30.446  13.810
17566W        W89826   5.883  29.174  12.198
17567W        W89827  44.440  42.946   4.121
17568W        W89828  15.666  26.962  11.478
17569W        W89829  21.678   5.958   1.482
17570W        W89830  23.205  35.009   1.018
17571W        W89831  16.351  32.629   4.127
17572W        W89832  11.296  36.425   2.295
17573W        W89833  28.402  41.359   4.103
17574W        W89834  23.739  19.981   4.995
17575W        W89835  29.527  22.468   4.425
17576W        W89836  21.091  16.944   0.216
17577W        W89837  37.937  39.874  14.526
17578W        W89838  24.166  13.618   1.322
17579W        W89839   9.726  15.889   1.259
17580W        W89840  37.418  31.326   3.721
17581W        W89841  19.079  34.526   0.068
17582W        W89842  37.814  14.815  11.234
17583W        W89843  34.919   1.391   3.635
17584W        W89844  40.536  20.591   2.238
17585W        W89845   7.099  27.576  14.396
17586W        W89846  31.525  34.115   1.408
17587W        W89847  27.732   4.836  13.721
17588W        W89848   4.976  25.188  11.069
17589W        W89849   9.110  34.688  12.664
17590W        W89850  20.676   8.096   0.192
17591W        W89851  41.892  39.819   4.616
17592W        W89852   3.222  10.165   0.116
17593W        W89853  19.718  33.026   1.368
17594W        W89854  15.698  25.416   4.565
17595W        W89855  33.447  11.733   4.592
17596W        W89856   4.149  13.266   4.682
17597W        W89857   9.305  10.075   2.762
17598W        W89858  17.628  35.481   4.600
17599W        W89859   9.838  26.607   1.342
17600W        W89860  27.985   4.900  14.737
17601W        W89861  41.408  39.983   2.388
17602W        W89862  38.589  27.921   1.861
17603W        W89863   5.889  37.752   2.852
17604W        W89864  10.123  10.049  10.164
17605W        W89865  41.972  41.964  14.954
17606W        W89866  39.442   4.786   0.836
17607W        W89867   2.942   4.382   1.438
17608W        W89868  44.583   2.385   0.968
17609W        W89869  23.633  19.344   0.245
17610W        W89870  29.071   9.367   4.689
17611W        W89871  13.048  20.616  12.806
17612W        W89872  44.252   6.987  11.188
17613W        W89873  13.242  22.690   1.871
17614W        W89874  13.206  27.659  13.591
17615W        W89875  18.604  19.955   3.176
17616W        W89876  35.341  24.490   1.355
17617W        W89877  12.183  26.524  14.335
17618W        W89878  43.862  23.689   2.899
17619W        W89879  37.847  12.848   4.050
17620W        W89880  27.414  30.645  11.608
17621W        W89881  42.666  32.038  14.003
17622W        W89882  18.104   5.492  13.976
17623W        W89883  26.982   7.260   0.308
17624W        W89884  24.542   9.109  12.986
17625W        W89885  16.064  21.142  13.753
17626W        W89886  23.791  12.268  12.704
17627W        W89887  14.964  24.108   1.300
17628W        W89888   9.787   9.817   4.239
17629W        W89889  21.757  12.887   2.026
17630W        W89890  14.740  38.764  11.038
17631W        W89891  13.914  12.902   2.437
17632W        W89892  25.491   8.785   2.547
17633W        W89893  24.201  44.885   0.466
17634W        W89894  33.899   0.831  14.136
17635W        W89895  17.836  28.203   1.323
17636W        W89896  23.495   0.916  12.214
17637W        W89897  42.391  15.505   0.748
17638W        W89898   8.215  21.289  11.891
17639W        W89899  19.288   8.459  11.132
17640W        W89900   7.362  16.226   1.274
17641W        W89901  41.777  10.186   0.886
17642W        W89902   8.154  19.821   1.772
17643W        W89903  24.416  30.113  14.886
17644W        W89904  35.402  19.441  14.821
17645W        W89905  23.451  24.092   1.327
17646W        W89906   9.521  22.988   3.341
17647W        W89907  42.465  17.121   4.240
17648W        W89908  30.248  25.876   3.744
17649W        W89909  18.547  18.080  10.080
17650W        W89910  21.617  13.134  14.888
17651W        W89911  24.997  36.587  13.841
17652W        W89912  41.617  22.644  12.017
17653W        W89913  32.058  44.170  10.811
17654W        W89914  13.651  27.000   4.174
17655W        W89915  10.416  22.504   5.126
17656W        W89916   0.984  18.746   2.472
17657W        W89917  17.343  39.861  12.497
17658W        W89918  18.847  23.194   1.925
17659W        W89919  12.555  36.137   2.839
17660W        W89920   6.973  22.227   1.829
17661W        W89921  20.249   0.138  14.888
17662W        W89922  24.278  39.897  14.512
17663W        W89923   0.761  11.053   2.954
17664W        W89924  35.135  11.378   2.253
17665W        W89925   4.880   9.826   1.475
17666W        W89926  41.436  17.735  12.217
17667W        W89927  36.106  17.970   0.923
17668W        W89928  32.885  23.681  12.911
17669W        W89929   6.564  14.398   0.025
17670W        W89930  26.123  28.046   2.728
17671W        W89931  18.029   6.735  11.512
17672W        W89932  23.136  31.958  10.670
17673W        W89933   0.998  29.701   3.220
17674W        W89934  39.826  23.141  12.615
17675W        W89935  29.584   6.452  10.340
17676W        W89936  23.952  36.286   0.405
17677W        W89937  13.152  43.078   2.387
17678W        W89938  23.022  14.757   3.238
17679W        W89939  43.020   3.828   0.063
17680W        W89940  40.187  33.090  14.870
17681W        W89941   6.855  43.984  14.836
17682W        W89942  32.092  14.255   3.174
17683W        W89943  20.244  26.225   1.502
17684W        W89944  44.421  13.908   5.022
17685W        W89945  20.707   6.941   3.799
17686W        W89946  35.558  28.418   1.476
17687W        W89947  24.748  38.029  14.228
17688W        W89948  12.268  30.874  12.766
17689W        W89949  37.514  34.073   0.441
17690W        W89950  35.327  29.092   4.195
17691W        W89951  37.566  43.209   2.234
17692W        W89952  18.251  26.947  11.992
17693W        W89953   6.681   2.935  10.714
17694W        W89954  35.140  14.661   3.988
17695W        W89955   3.922  32.260  12.981
17696W        W89956   4.043  30.915  13.059
17697W        W89957  26.268  40.561   3.347
17698W        W89958  28.590  36.877  13.562
17699W        W89959  40.806  44.355   4.566
17700W        W89960  24.152   5.477  11.384
17701W        W89961  12.241  40.822  11.557
17702W        W89962   3.967  25.858  14.550
17703W        W89963  24.319  13.372  11.424
17704W        W89964  30.576  17.385  12.956
17705W        W89965  40.336  35.550  11.526
17706W        W89966  19.905  31.603   2.722
17707W        W89967   6.474  17.519   1.252
17708W        W89968  29.142  25.474   1.902
17709W        W89969  44.795  12.983  11.176
17710W        W89970  36.630  29.535   2.106
17711W        W89971  20.720  24.773  13.327
17712W        W89972  27.678  23.593   0.042
17713W        W89973  22.384   6.291   4.558
17714W        W89974  15.111   2.792  11.519
17715W        W89975  11.796  29.617  14.316
17716W        W89976  20.815  31.015   4.369
17717W        W89977  37.993  38.546  13.395
17718W        W89978  21.193  34.744  11.107
17719W        W89979  30.649  43.748   0.704
17720W        W89980   3.798  34.106   2.738
17721W        W89981  34.154  35.380   3.235
17722W        W89982  23.388  18.672   5.473
17723W        W89983  39.310  38.518   2.083
17724W        W89984  13.279  32.931  13.379
17725W        W89985   7.128   7.966   1.383
17726W        W89986  14.317  13.404   1.447
17727W        W89987  40.661  32.519   1.306
17728W        W89988  10.571  12.707   4.735
17729W        W89989  14.336   5.541  13.759
17730W        W89990   7.635  38.328   1.000
17731W        W89991  38.382   4.990  13.482
17732W        W89992   0.951  25.994   0.350
17733W        W89993   4.900  13.884  13.712
17734W        W89994  44.448  40.095   4.020
17735W        W89995  37.770   5.355   0.251
17736W        W89996   2.548  40.522  12.846
17737W        W89997  43.318  13.141   4.754
17738W        W89998   5.450  38.381   2.545
17739W        W89999   8.349  29.038  11.944
17740W        W90000   8.400  40.051   0.733
17741W        W90001   6.637  33.620  14.777
17742W        W90002  37.704  17.570  14.971
17743W        W90003  38.544  34.606  12.519
17744W        W90004  27.648  38.139   0.952
17745W        W90005  10.683  32.945  13.091
17746W        W90006   3.939  33.374   9.668
17747W        W90007  21.119   8.119   3.589
17748W        W90008  12.562  17.662  14.854
17749W        W90009  38.924  15.729   3.571
17750W        W90010  27.216   1.455   1.623
17751W        W90011  31.027  15.194  13.491
17752W        W90012  17.540  19.501  10.689
17753W        W90013  22.666   1.303   0.900
17754W        W90014  19.297  33.984  11.827
17755W        W90015  11.462  22.736   4.078
17756W        W90016   4.684  17.627   0.306
17757W        W90017  41.192  12.285  11.996
17758W        W90018  43.379  31.633   0.975
17759W        W90019   3.499  12.303   2.759
17760W        W90020  13.769   6.287  13.294
17761W        W90021  32.660  20.502  10.434
17762W        W90022   8.447  24.033  14.842
17763W        W90023  38.194   4.796   4.352
17764W        W90024  28.728   4.950  11.062
17765W        W90025  30.737   1.664  10.852
17766W        W90026   4.417  10.130   1.365
17767W        W90027  18.561   8.873   3.858
17768W        W90028  21.604  10.772  12.069
17769W        W90029  35.535   9.806   4.541
17770W        W90030  39.450  40.280  10.774
17771W        W90031  33.557  13.749   4.527
17772W        W90032  35.058  25.928  13.516
17773W        W90033  37.117   8.921   4.679
17774W        W90034  32.215   2.873   4.323
17775W        W90035  29.523  26.010  14.729
17776W        W90036  26.006  28.599  14.437
17777W        W90037  40.294  33.939  14.508
17778W        W90038   9.053  12.577   1.222
17779W        W90039  19.502   6.317   1.570
17780W        W90040  15.067  34.996  14.215
17781W        W90041   5.221  23.967   0.529
17782W        W90042  41.187  15.539  12.097
17783W        W90043  40.355  31.216  12.887
17784W        W90044  28.103  29.756  13.787
17785W        W90045  29.693  30.176   2.777
17786W        W90046  35.118   0.888  11.275
17787W        W90047  24.168  36.097   2.394
17788W        W90048  32.622  15.789  14.318
17789W        W90049  23.848   7.233  11.444
17790W        W90050  38.101  28.165   3.914
17791W        W90051   3.089  28.758  14.342
17792W        W90052  28.449  37.620  12.421
17793W        W90053  36.855  25.949  11.737
17794W        W90054  21.708   4.930  11.523
17795W        W90055  43.269  41.397   0.142
17796W        W90056  35.829  26.457   0.831
17797W        W90057  23.158  15.205  14.076
17798W        W90058  12.900   5.571   4.885
17799W        W90059  22.166  13.171  10.473
17800W        W90060   2.912  25.752  10.626
17801W        W90061  28.730  28.029   0.002
17802W        W90062  32.127  16.631   0.338
17803W        W90063  20.173  40.456   3.564
17804W        W90064  11.887  35.279  11.961
17805W        W90065   4.928  21.085  14.051
17806W        W90066   5.701  34.135   0.424
17807W        W90067  18.030  14.062  10.656
17808W        W90068  42.985  25.377  11.207
17809W        W90069  27.531   0.288   1.926
17810W        W90070  20.115  33.889   4.059
17811W        W90071  22.996   4.678   4.065
17812W        W90072  27.901   5.365   2.816
17813W        W90073  23.136  36.337   1.950
17814W        W90074  18.809  26.913  13.860
17815W        W90075   1.844   4.826   4.170
17816W        W90076   2.734   2.615   4.200
17817W        W90077   7.503  23.046  13.427
17818W        W90078  29.800  33.406  12.094
17819W        W90079   9.249  42.375   0.458
17820W        W90080  11.709   4.221  11.034
17821W        W90081  11.375   1.682  11.161
17822W        W90082  34.711  19.312  12.939
17823W        W90083  13.173   1.466   0.390
17824W        W90084  17.528  37.946   1.855
17825W        W90085  40.746   9.099  10.535
17826W        W90086  40.111  32.041  12.381
17827W        W90087  33.710  29.568   1.943
17828W        W90088   5.380  25.685   4.052
17829W        W90089  36.534  20.820  13.365
17830W        W90090  35.790  30.076   3.183
17831W        W90091  21.569  33.637  14.142
17832W        W90092  25.434  31.692  13.254
17833W        W90093  24.071  33.403   5.059
17834W        W90094   4.701  35.907   3.661
17835W        W90095   7.783   5.841  11.976
17836W        W90096  30.027  39.616  11.275
17837W        W90097  34.866  38.758   3.636
17838W        W90098  10.087  10.309   1.376
17839W        W90099  15.750  25.152  13.787
17840W        W90100  23.972  13.208  11.999
17841W        W90101  22.268  26.998   5.080
17842W        W90102  20.552  27.613   3.607
17843W        W90103  18.241  13.619   1.915
17844W        W90104  10.907  18.829   2.741
17845W        W90105  36.370  38.176  11.950
17846W        W90106  18.709  17.749  10.443
17847W        W90107  36.656  27.869  14.703
17848W        W90108  32.112  40.343   2.739
17849W        W90109   3.564  33.893  12.932
17850W        W90110  31.001  40.850   2.940
17851W        W90111  27.228   0.098   3.618
17852W        W90112  30.445   6.754  12.125
17853W        W90113   9.933   7.754   1.479
17854W        W90114  40.700   8.181  13.825
17855W        W90115  38.881  16.759   3.700
17856W        W90116  24.720  19.683   5.071
17857W        W90117  22.745  18.949  13.866
17858W        W90118  10.192  15.041  11.943
17859W        W90119   9.600   1.231  11.091
17860W        W90120  35.857  28.918  13.391
17861W        W90121   3.467  43.392  13.048
17862W        W90122  38.292  28.197   0.693
17863W        W90123  35.013   6.109  13.422
17864W        W90124  16.347  11.592   2.653
17865W        W90125  38.611  25.429   4.295
17866W        W90126  12.427  28.073   2.441
17867W        W90127  42.944   6.188   3.312
17868W        W90128  13.150  28.635  10.209
17869W        W90129  44.513  40.942   2.314
17870W        W90130   2.344  20.806  11.479
17871W        W90131  44.096  30.559   4.506
17872W        W90132  31.445  25.303   4.280
17873W        W90133  43.503  16.559  12.572
17874W        W90134  35.110  12.565  11.679
17875W        W90135   8.817   3.495  10.247
17876W        W90136  27.436  36.029   2.619
17877W        W90137  14.080  29.894  10.466
17878W        W90138  30.996   7.803  14.458
17879W        W90139  17.115   8.563   3.653
17880W        W90140  40.485   0.390   1.425
17881W        W90141  28.806  33.016   0.300
17882W        W90142  43.552  24.794   3.746
17883W        W90143   7.233   1.462   0.931
17884W        W90144  12.219  13.816   2.851
17885W        W90145  32.009  17.716   3.142
17886W        W90146  24.727  41.932   2.151
17887W        W90147   3.310  33.602   4.146
17888W        W90148  38.879  17.538   3.203
17889W        W90149   1.317  24.939  14.949
17890W        W90150  39.875  25.710  14.260
17891W        W90151  43.076  11.286  11.495
17892W        W90152   0.949  27.677   0.987
17893W        W90153  28.170  41.924  10.631
17894W        W90154   2.371  15.519  12.307
17895W        W90155  29.604  27.564   1.779
17896W        W90156  31.057   9.796   2.909
17897W        W90157  10.241   5.257  10.660
17898W        W90158   0.231  35.529  14.262
17899W        W90159  32.198  40.285   0.673
17900W        W90160  29.306  19.595  11.125
17901W        W90161  40.133   1.966   2.811
17902W        W90162   9.221  37.827   0.234
17903W        W90163  31.081   0.557  12.661
17904W        W90164  37.577  21.751   3.220
17905W        W90165   8.427  24.857  14.702
17906W        W90166  27.678  39.579  12.931
17907W        W90167  32.009  37.476   0.899
17908W        W90168  22.198   7.960  13.027
17909W        W90169  44.383  13.756   2.682
17910W        W90170  15.261  18.251   2.438
17911W        W90171  22.942  26.127   2.660
17912W        W90172  22.055   7.901   3.179
17913W        W90173  30.908  34.409   3.673
17914W        W90174  25.595   0.254   0.664
17915W        W90175  15.806  16.526   3.230
17916W        W90176  12.239  19.006  14.038
17917W        W90177  18.618  44.735  13.994
17918W        W90178   9.784  13.973   4.046
17919W        W90179  37.355  23.034  12.464
17920W        W90180   2.857   7.719  11.615
17921W        W90181  24.462  21.808  14.995
17922W        W90182  23.224  38.804  13.756
17923W        W90183  37.017   0.762   1.620
17924W        W90184  41.521  18.285  14.605
17925W        W90185  26.077   7.851  13.836
17926W        W90186  43.281   2.704   3.829
17927W        W90187  12.792  19.767  10.653
17928W        W90188  11.049   7.731  13.870
17929W        W90189  21.505  16.045  12.403
17930W        W90190  22.581  15.344  13.437
17931W        W90191  25.543  25.604   2.076
17932W        W90192   4.233  37.923  11.622
17933W        W90193  18.272  20.491   3.748
17934W        W90194  20.329  35.771   3.186
17935W        W90195   6.210  34.964  14.875
17936W        W90196  17.333  14.266  13.315
17937W        W90197   4.447  42.406  12.846
17938W        W90198  23.178   5.159  11.891
17939W        W90199  29.121  26.804  13.120
17940W        W90200  14.140  31.059  12.779
17941W        W90201  36.367  42.085  11.874
17942W        W90202  40.576  44.981  14.431
17943W        W90203   2.437  42.880   1.450
17944W        W90204  36.660  31.950  14.862
17945W        W90205  15.292   2.435  13.012
17946W        W90206  17.841  26.236  11.358
17947W        W90207  18.085  44.970   4.002
17948W        W90208  10.261  34.410  11.944
17949W        W90209   2.323  26.552  12.509
17950W        W90210  14.245  33.595  12.590
17951W        W90211  29.661  13.585   1.207
17952W        W90212  14.591  40.479   1.901
17953W        W90213  17.642  20.460   4.110
17954W        W90214  30.352   1.920  10.592
17955W        W90215  38.828  16.073  10.963
17956W        W90216  35.854   7.241  12.122
17957W        W90217  26.125  10.330  11.990
17958W        W90218   6.781  12.324  10.851
17959W        W90219  24.303  38.874  13.474
17960W        W90220  12.817  27.077   4.572
17961W        W90221  38.813  13.794  10.628
17962W        W90222  30.267   9.620   4.951
17963W        W90223  10.284   5.402  13.539
17964W        W90224  25.487  11.335  14.439
17965W        W90225  17.552  38.507  13.946
17966W        W90226  20.245  10.836   2.144
17967W        W90227   7.284  24.956   2.211
17968W        W90228  25.937  15.049   4.149
17969W        W90229  19.869  41.424  12.261
17970W        W90230   8.134   4.223  14.991
17971W        W90231  34.479  27.431   4.163
17972W        W90232  32.662  30.493   1.371
17973W        W90233   9.953  12.531   0.891
17974W        W90234  32.443  43.929  12.919
17975W        W90235  36.277  39.126   0.276
17976W        W90236  38.463  22.687  14.737
17977W        W90237  37.902  41.532  10.707
17978W        W90238  16.819  16.735   4.229
17979W        W90239  15.077  35.530   3.722
17980W        W90240  11.801  17.062  12.351
17981W        W90241  15.207  29.012   4.071
17982W        W90242  30.106  23.276  14.550
17983W        W90243   6.397  20.746  11.243
17984W        W90244  29.125  28.439  12.164
17985W        W90245  35.550  43.511   2.912
17986W        W90246  23.947   2.401   0.463
17987W        W90247  33.880   8.654  13.889
17988W        W90248  24.112  39.227   1.248
17989W        W90249  19.200  28.930   2.579
17990W        W90250  23.244  20.621   0.446
17991W        W90251  31.124  43.454  12.962
17992W        W90252  19.526  17.144   4.077
17993W        W90253  41.393  16.606   1.951
17994W        W90254   0.517   4.170   1.784
17995W        W90255  29.304  33.151  12.831
17996W        W90256   4.640   4.308  13.462
17997W        W90257  11.684  38.305   2.839
17998W        W90258  41.465   0.991  12.388
17999W        W90259  12.400  39.560   3.887
18000W        W90260   8.413  42.824   3.361
18001W        W90261  19.210  23.271   1.538
18002W        W90262   5.365  31.093   4.380
18003W        W90263  22.650  20.598  12.948
18004W        W90264   8.240  39.852  12.508
18005W        W90265  24.286   2.425   2.888
18006W        W90266  13.385  24.561  12.991
18007W        W90267  33.584  38.277  12.224
18008W        W90268  18.266  38.498  12.861
18009W        W90269  44.977   3.001   0.470
18010W        W90270  16.862  35.376  14.069
18011W        W90271  18.012   0.834   3.246
18012W        W90272  42.894   0.516  13.529
18013W        W90273   9.339  36.669  12.458
18014W        W90274  14.954  17.016   4.254
18015W        W90275  39.875  27.697   1.291
18016W        W90276   4.924   3.679  14.658
18017W        W90277   6.645   2.173  11.635
18018W        W90278  34.493   1.416  10.834
18019W        W90279  24.229  20.505  11.051
18020W        W90280   6.397  17.100   4.625
18021W        W90281  43.060  17.581  12.982
18022W        W90282  13.668  35.810  11.086
18023W        W90283  38.607  38.781  11.622
18024W        W90284  33.571  40.605  10.646
18025W        W90285  16.223  16.708   0.396
18026W        W90286  29.958   5.915  14.069
18027W        W90287  23.630  28.562  10.971
18028W        W90288  34.483  27.232  11.336
18029W        W90289  18.767  38.286  13.918
18030W        W90290   5.223   9.646  13.574
18031W        W90291   6.780  15.262   0.516
18032W        W90292   0.299  43.021  12.013
18033W        W90293  22.338  20.153  13.830
18034W        W90294  30.212  35.122  13.237
18035W        W90295  15.606  15.666   2.197
18036W        W90296   8.214  26.519  13.386
18037W        W90297  21.708  17.506   2.764
18038W        W90298   8.282  38.190  12.480
18039W        W90299   5.911  39.551   2.324
18040W        W90300  24.971   2.239   3.663
18041W        W90301  42.778  37.580  13.534
18042W        W90302  22.568  17.647   2.293
18043W        W90303  39.373  12.796  11.262
18044W        W90304   3.947  29.684   1.014
18045W        W90305  13.847  22.231  11.217
18046W        W90306  34.410  35.333  12.558
18047W        W90307  30.844  40.891   4.775
18048W        W90308  11.043  41.513  10.989
18049W        W90309  33.053  15.681   1.288
18050W        W90310  35.417   0.861  11.683
18051W        W90311  19.634  31.601  12.454
18052W        W90312  23.966  20.063  12.627
18053W        W90313  22.247  37.116  11.633
18054W        W90314  24.099  25.806  12.606
18055W        W90315  35.515   8.398   3.139
18056W        W90316  24.500   9.773  14.888
18057W        W90317  30.607  35.590  11.710
18058W        W90318  26.989  32.477   4.205
18059W        W90319  14.726  43.374  14.620
18060W        W90320  37.890  38.271  12.972
18061W        W90321  25.044   4.829   2.154
18062W        W90322  15.369  24.164  10.552
18063W        W90323  23.997  38.487  12.419
18064W        W90324   3.834  35.168   1.256
18065W        W90325  37.457  16.051   2.382
18066W        W90326  39.554   3.752   3.627
18067W        W90327   4.490   8.720   2.151
18068W        W90328   4.381  11.314   0.034
18069W        W90329  18.149  43.083   1.355
18070W        W90330  31.951   0.261   0.806
18071W        W90331  25.277   0.862  12.347
18072W        W90332   7.293  18.881   3.369
18073W        W90333  31.067  19.732   2.365
18074W        W90334   0.489   6.336  12.899
18075W        W90335  32.666  17.634   2.443
18076W        W90336   3.209  17.090  12.203
18077W        W90337  30.448  29.981  11.083
18078W        W90338  13.270  41.973   4.509
18079W        W90339  42.953  38.290   3.578
18080W        W90340   0.743  24.162  12.638
18081W        W90341  19.245   7.575   1.452
18082W        W90342   9.754  39.613   0.788
18083W        W90343   5.841  17.366   3.755
18084W        W90344  25.685   6.224   0.700
18085W        W90345  24.271  24.172   2.599
18086W        W90346  23.051  13.239  11.419
18087W        W90347   1.478  16.556   1.831
18088W        W90348   9.882  39.887  12.534
18089W        W90349   5.160  24.813  11.387
18090W        W90350  31.028  26.941   2.816
18091W        W90351  15.813  34.031  10.454
18092W        W90352   9.367  36.350   1.316
18093W        W90353  33.174   3.792   4.629
18094W        W90354  36.386   5.202  13.480
18095W        W90355  19.768  21.667  11.690
18096W        W90356  43.933   8.357  13.160
18097W        W90357  37.556  27.507  14.878
18098W        W90358  41.748   8.363   4.724
18099W        W90359  39.790  13.264   2.339
18100W        W90360  43.303  15.330  13.341
18101W        W90361  28.568   5.891   3.258
18102W        W90362  40.314  12.730  14.860
18103W        W90363  30.783  19.154  12.308
18104W        W90364  32.912  33.096  11.690
18105W        W90365  40.053  18.596   1.495
18106W        W90366  33.710  24.707  13.156
18107W        W90367  41.025   0.042  11.624
18108W        W90368  32.674  22.183  13.553
18109W        W90369  16.009  29.420   2.343
18110W        W90370  38.407  22.050  12.746
18111W        W90371  23.801  15.554  10.574
18112W        W90372  38.367  43.783  14.793
18113W        W90373  13.878  27.600   9.813
18114W        W90374  22.482  24.606  14.850
18115W        W90375  25.388   8.799   4.096
18116W        W90376  31.509  20.760   1.788
18117W        W90377  15.163  36.966  12.446
18118W        W90378  41.795  18.073   4.213
18119W        W90379  26.935  16.061   3.594
18120W        W90380  16.061  14.657  11.793
18121W        W90381  45.000  41.265  13.738
18122W        W90382  34.011  38.121  11.990
18123W        W90383  10.249  38.420   0.283
18124W        W90384   0.901  41.970  11.610
18125W        W90385   9.624  24.353  14.387
18126W        W90386  27.007   7.170  14.724
18127W        W90387  39.467  13.170   0.894
18128W        W90388  27.979  31.924   0.685
18129W        W90389  17.704  31.383   1.182
18130W        W90390  36.616  36.595  14.015
18131W        W90391   3.851  30.093   4.573
18132W        W90392   3.370  43.581   4.841
18133W        W90393   0.648  26.939  13.221
18134W        W90394  26.274   2.825  13.843
18135W        W90395  36.074  14.688   4.210
18136W        W90396   7.422  22.692  14.354
18137W        W90397   3.892  26.351  12.282
18138W        W90398   2.422  39.923  11.676
18139W        W90399  23.688  33.904  13.779
18140W        W90400  34.822  33.995   0.899
18141W        W90401  21.461  36.524   4.885
18142W        W90402  36.614  18.861  12.013
18143W        W90403   9.928   8.520  11.573
18144W        W90404  34.493  36.996  12.556
18145W        W90405  32.762  18.131  12.902
18146W        W90406  20.674   0.773   4.286
18147W        W90407   7.428  35.963   4.778
18148W        W90408   5.438  25.257   1.862
18149W        W90409  35.254   3.509  11.546
18150W        W90410   8.621  27.823   1.806
18151W        W90411  43.030   3.591   2.664
18152W        W90412   8.856  34.305  14.423
18153W        W90413   9.405  36.227  11.531
18154W        W90414  31.076  14.569  14.751
18155W        W90415  23.050  14.363  13.500
18156W        W90416  39.059  11.698   2.080
18157W        W90417  17.055  19.653   2.263
18158W        W90418  32.931  12.421  11.862
18159W        W90419   4.902   0.525  14.383
18160W        W90420  12.783  16.215   3.784
18161W        W90421  21.443   1.473   4.110
18162W        W90422  43.052  17.896  13.781
18163W        W90423  12.843  14.577  12.903
18164W        W90424  42.540  29.509   2.677
18165W        W90425  23.291  25.545   5.242
18166W        W90426  33.083  33.916   1.685
18167W        W90427  39.552  24.423  12.123
18168W        W90428  34.854   8.149   2.330
18169W        W90429  31.161  42.479   3.831
18170W        W90430   1.746   7.678  12.178
18171W        W90431  34.876  31.184   4.661
18172W        W90432  37.614  10.371   0.919
18173W        W90433  10.288  39.788   0.490
18174W        W90434  32.369  21.685   2.290
18175W        W90435   7.197   1.250  10.727
18176W        W90436  30.479  32.946  10.552
18177W        W90437   8.199  40.147  12.107
18178W        W90438  36.941  38.340  11.069
18179W        W90439   4.663   0.386   4.874
18180W        W90440   5.512   0.669  14.058
18181W        W90441   6.649   5.859  11.126
18182W        W90442  20.195   2.483  11.004
18183W        W90443  13.245  21.082   4.541
18184W        W90444  22.391  16.518   2.323
18185W        W90445  16.056  27.761  14.327
18186W        W90446   1.682  10.805  14.442
18187W        W90447  34.662  39.107   0.539
18188W        W90448  21.703  12.179   3.059
18189W        W90449   5.925   6.373   2.318
18190W        W90450  32.564   7.474  11.865
18191W        W90451  43.101  18.714   1.376
18192W        W90452  22.931   7.715   0.793
18193W        W90453  31.887  21.157   3.756
18194W        W90454   1.810  39.709   0.218
18195W        W90455  41.818  15.059  14.764
18196W        W90456  32.082  40.829   1.993
18197W        W90457  21.620  16.330  10.402
18198W        W90458  43.553   3.143  12.107
18199W        W90459  36.660  15.007  12.451
18200W        W90460   5.828   9.222   0.776
18201W        W90461   8.122  41.312   1.432
18202W        W90462  44.431  19.100   1.230
18203W        W90463   6.337  37.925   2.290
18204W        W90464  18.802  37.312  14.783
18205W        W90465   5.226  11.207  11.298
18206W        W90466   6.781   3.599  13.636
18207W        W90467   8.693   2.899   0.888
18208W        W90468   1.945  44.760   2.858
18209W        W90469  17.010   3.762  14.286
18210W        W90470   3.287   1.350  13.371
18211W        W90471  37.437  16.704   4.068
18212W        W90472  34.412  39.058  11.783
18213W        W90473   6.317  18.944   2.272
18214W        W90474  24.801  29.178  14.754
18215W        W90475  34.058  13.951   4.798
18216W        W90476   9.886  39.908   3.218
18217W        W90477  32.974   5.346   0.807
18218W        W90478  36.538   3.191  13.305
18219W        W90479  20.250  36.574   0.247
18220W        W90480  34.451  35.453  11.149
18221W        W90481  36.004  39.206  14.837
18222W        W90482   6.971  20.332   2.750
18223W        W90483  28.914  18.010  11.927
18224W        W90484  39.762  21.081   1.236
18225W        W90485  40.392   1.338  12.957
18226W        W90486  25.969  30.981   2.602
18227W        W90487  42.405   2.856  14.896
18228W        W90488  29.954   9.366   3.497
18229W        W90489  32.875  39.287  12.437
18230W        W90490   3.997  43.359  12.895
18231W        W90491  34.981   9.325  14.868
18232W        W90492  16.689  27.403  11.485
18233W        W90493  21.266  24.146  10.566
18234W        W90494  33.587   2.900   3.566
18235W        W90495  22.754  20.154  11.372
18236W        W90496   9.284  36.042  14.395
18237W        W90497  31.003  16.606   2.716
18238W        W90498  10.180  30.672  10.638
18239W        W90499   0.320  25.595  12.916
18240W        W90500  30.576  21.862   0.992
18241W        W90501  28.648  20.650   4.132
18242W        W90502   5.039  35.487   3.687
18243W        W90503  43.934  10.676  14.033
18244W        W90504  35.481  43.658   1.973
18245W        W90505   2.843  11.158   1.687
18246W        W90506  31.719  37.825   2.134
18247W        W90507   2.354   7.403  14.870
18248W        W90508  12.681  38.020  10.660
18249W        W90509  14.870  11.690   1.987
18250W        W90510   8.327  29.514  13.365
18251W        W90511  14.710  29.665  12.930
18252W        W90512   8.958   3.664   0.407
18253W        W90513  22.247   0.656  14.904
18254W        W90514   6.731  20.591   1.838
18255W        W90515   7.911  34.991  12.707
18256W        W90516   1.259  30.455   3.847
18257W        W90517  40.717  38.825   3.336
18258W        W90518  43.818  39.699   3.223
18259W        W90519  31.499  15.645  10.649
18260W        W90520  43.454   8.411  12.452
18261W        W90521   4.652  33.189  13.723
18262W        W90522   1.468   2.027   1.527
18263W        W90523   6.978  26.149   4.509
18264W        W90524  23.216  10.553  13.457
18265W        W90525  36.642   5.427  10.363
18266W        W90526  19.765  12.131   0.768
18267W        W90527  29.042  16.281   4.530
18268W        W90528   7.702  43.426  11.533
18269W        W90529   5.962   2.020  12.398
18270W        W90530  38.135  16.365   0.198
18271W        W90531  36.437   8.957  13.126
18272W        W90532  13.174  34.090   0.629
18273W        W90533  14.624   0.975   1.960
18274W        W90534   8.717  14.165   2.660
18275W        W90535   9.686  43.266  10.714
18276W        W90536  37.259   1.382  11.532
18277W        W90537  30.877   2.993   2.435
18278W        W90538  26.188  33.917   1.664
18279W        W90539  11.517  20.479  13.227
18280W        W90540  30.430  26.549   1.662
18281W        W90541  28.997  20.120  13.478
18282W        W90542   9.824  32.173  14.086
18283W        W90543  18.946  14.599   1.673
18284W        W90544  10.323  30.852   2.778
18285W        W90545   4.439  28.591  10.636
18286W        W90546   1.323  35.830   3.620
18287W        W90547  11.292   8.149  14.012
18288W        W90548  15.778  30.586  11.524
18289W        W90549  15.588  16.234  14.365
18290W        W90550  16.832  29.556  11.578
18291W        W90551  44.929  38.954  12.143
18292W        W90552  28.018  21.066   0.360
18293W        W90553   6.674  23.470  11.156
18294W        W90554  35.629  11.368   2.338
18295W        W90555  37.654   1.419  12.294
18296W        W90556  36.976  36.607  12.782
18297W        W90557  23.266  10.752   1.838
18298W        W90558  12.621  25.396   1.909
18299W        W90559  38.597  20.262  14.080
18300W        W90560  19.039  29.336   2.157
18301W        W90561  12.834  14.658  11.936
18302W        W90562  44.207  42.350  14.541
18303W        W90563   3.201   5.413   2.378
18304W        W90564  36.998  27.229  14.939
18305W        W90565  39.076  36.534  13.447
18306W        W90566   0.012   4.353  14.260
18307W        W90567   3.913  22.517  12.353
18308W        W90568  27.725  16.684   2.667
18309W        W90569  18.191  36.583   1.334
18310W        W90570   5.895  11.271  12.420
18311W        W90571  39.274  22.107   1.389
18312W        W90572   3.703  38.467  11.103
18313W        W90573  32.340  21.191  12.120
18314W        W90574  22.439   0.721  14.391
18315W        W90575  29.708  44.119   2.849
18316W        W90576  27.075   5.441  14.954
18317W        W90577  32.291  36.805  12.000
18318W        W90578  38.920  30.151   0.214
18319W        W90579  14.916  22.579   2.292
18320W        W90580  21.138   8.116  13.513
18321W        W90581  12.436  10.234   0.826
18322W        W90582  43.283   3.969   2.302
18323W        W90583  38.384  42.885  11.543
18324W        W90584  19.161  26.682   0.964
18325W        W90585  37.041  19.857  13.996
18326W        W90586  24.071  44.440  14.700
18327W        W90587  10.160  38.461   2.351
18328W        W90588  28.961  43.576   2.758
18329W        W90589  41.820  36.987   2.673
18330W        W90590  34.418  32.311   1.803
18331W        W90591  39.795  22.225  12.574
18332W        W90592  10.608   7.301   4.260
18333W        W90593  10.867   5.416  11.428
18334W        W90594  29.641  16.223   1.831
18335W        W90595   3.712   5.112  10.192
18336W        W90596  38.371  26.547   3.239
18337W        W90597  30.174  10.279   1.360
18338W        W90598  13.226   0.678   0.811
18339W        W90599  22.059   9.230   2.908
18340W        W90600   4.866  11.141  14.929
18341W        W90601  23.654  33.413   2.689
18342W        W90602  22.458  37.522   0.303
18343W        W90603   6.912  14.518   2.803
18344W        W90604   6.360   1.348  10.402
18345W        W90605  15.332  18.372   3.807
18346W        W90606  21.810  15.424   0.349
18347W        W90607  43.125  14.145   3.274
18348W        W90608  33.202  20.915  10.646
18349W        W90609  23.697  20.628  11.478
18350W        W90610   6.712  12.227   1.434
18351W        W90611  23.792  37.500   4.067
18352W        W90612   5.375  11.200   4.589
18353W        W90613  39.969  30.251   2.316
18354W        W90614   2.777  13.570  12.924
18355W        W90615  20.617  26.770   1.295
18356W        W90616  42.731  30.663  13.256
18357W        W90617  20.985  36.106  11.994
18358W        W90618  12.899  17.194   1.372
18359W        W90619  13.374  22.566  11.124
18360W        W90620   4.462  38.671  10.726
18361W        W90621  18.554  15.253   4.670
18362W        W90622   2.317  31.808   0.881
18363W        W90623  17.292   6.728  11.795
18364W        W90624  24.482   7.679   1.888
18365W        W90625   8.134  12.945   1.319
18366W        W90626   7.862  36.088  12.419
18367W        W90627  38.475  38.943  12.089
18368W        W90628   0.712  12.592  10.675
18369W        W90629  11.153  41.312   4.787
18370W        W90630  23.464   6.000  11.702
18371W        W90631  14.792  26.802   5.057
18372W        W90632  32.612  17.373   1.214
18373W        W90633  27.863  39.916   0.016
18374W        W90634  11.381  25.032   2.252
18375W        W90635  26.189  31.999  14.488
18376W        W90636  19.306  38.544   2.704
18377W        W90637  13.306  15.090  12.482
18378W        W90638  32.541  19.684  10.838
18379W        W90639  12.268   9.132   0.171
18380W        W90640  27.929  18.447   3.767
18381W        W90641  34.623  36.857  11.630
18382W        W90642  36.571  29.515   0.302
18383W        W90643  20.816  34.998   4.118
18384W        W90644  27.414  20.164  14.082
18385W        W90645   8.370   5.452  13.824
18386W        W90646   4.689  40.316   1.406
18387W        W90647  11.261  14.364   1.473
18388W        W90648  37.394   9.691  13.072
18389W        W90649  37.522  11.870   1.302
18390W        W90650   9.693  31.112  11.770
18391W        W90651   5.094  28.069  10.278
18392W        W90652  22.222  33.047  11.986
18393W        W90653  23.060   2.836  13.446
18394W        W90654   9.922  14.267  14.866
18395W        W90655  36.177  15.677  11.862
18396W        W90656   2.686   9.617   2.743
18397W        W90657   7.927   2.522   1.086
18398W        W90658  14.611  16.670   0.399
18399W        W90659  28.373  41.348   1.284
18400W        W90660   7.878   0.838  12.894
18401W        W90661   2.534  15.636   5.219
18402W        W90662  12.635  25.183  14.221
18403W        W90663   4.290   9.740   4.211
18404W        W90664  36.465  21.030   0.236
18405W        W90665  37.044  25.921  14.507
18406W        W90666   5.348  39.515  14.959
18407W        W90667  19.031  34.037  13.813
18408W        W90668  31.506  26.772   2.731
18409W        W90669   4.403  37.843   1.097
18410W        W90670  29.008  42.762  14.959
18411W        W90671  12.151  26.053   2.908
18412W        W90672  25.581  36.553  14.437
18413W        W90673  19.552  26.929   3.221
18414W        W90674   9.424  35.541  14.434
18415W        W90675  39.432   6.374   4.351
18416W        W90676  17.543  19.673  11.579
18417W        W90677  31.468  31.941   0.310
18418W        W90678  14.306  29.590  12.212
18419W        W90679  21.088   4.803   2.805
18420W        W90680   0.077  40.448   3.289
18421W        W90681   9.395   9.424   1.891
18422W        W90682  43.046  39.599  14.763
18423W        W90683   3.260  26.713   1.742
18424W        W90684  11.714  20.028  13.393
18425W        W90685   9.862   4.665   4.165
18426W        W90686   7.123  17.937  14.110
18427W        W90687  20.461  21.243   5.065
18428W        W90688   5.697  16.971  13.771
18429W        W90689  12.812  43.131  11.856
18430W        W90690   9.007  10.374  13.060
18431W        W90691  21.041  14.196   1.456
18432W        W90692  10.897  32.525  13.446
18433W        W90693  21.184   6.456  12.999
18434W        W90694  19.592  33.002  12.643
18435W        W90695  44.390  39.452   9.954
18436W        W90696  25.902  20.648  14.720
18437W        W90697  20.526  12.836  12.435
18438W        W90698  31.825  21.222  12.230
18439W        W90699  18.830  37.758  13.945
18440W        W90700  41.601  16.537  12.038
18441W        W90701  20.671  14.303  13.520
18442W        W90702  34.602  36.422  13.954
18443W        W90703   4.813  14.183   1.634
18444W        W90704  15.629  41.758  12.497
18445W        W90705  24.694  12.240   1.549
18446W        W90706  36.990   1.185  14.940
18447W        W90707   4.415  41.943   0.853
18448W        W90708  25.101   3.765  14.887
18449W        W90709  21.574   2.955   1.410
18450W        W90710  39.603  23.343  11.146
18451W        W90711  12.138  19.687   4.178
18452W        W90712  23.072   0.300   0.288
18453W        W90713   9.253  26.699   1.796
18454W        W90714  23.895  16.708   2.342
18455W        W90715  31.399  32.324   0.682
18456W        W90716  41.507  21.554  11.248
18457W        W90717  41.216  19.675  12.064
18458W        W90718  16.262  43.240   4.728
18459W        W90719  30.452   6.358   2.111
18460W        W90720  19.803  22.057  14.427
18461W        W90721  29.877   0.382  13.008
18462W        W90722  17.561  24.696  13.770
18463W        W90723  31.912   2.636  14.942
18464W        W90724  14.641   3.245  12.897
18465W        W90725  32.516  19.801   1.262
18466W        W90726  17.107  12.314   4.378
18467W        W90727  39.523  23.038   0.726
18468W        W90728   4.274  30.957  14.941
18469W        W90729  24.152  33.361  14.768
18470W        W90730   5.971  28.368  12.556
18471W        W90731  33.873  28.595  14.376
18472W        W90732  26.544  31.220   1.807
18473W        W90733  39.859   5.206  12.890
18474W        W90734  12.552  41.281  11.973
18475W        W90735  36.356  26.284   4.115
18476W        W90736  35.989  38.348   0.422
18477W        W90737  11.374  11.724   4.064
18478W        W90738  31.517   0.729  11.655
18479W        W90739  42.372  22.673   4.036
18480W        W90740   5.289  29.153   4.172
18481W        W90741  14.177  38.637   1.833
18482W        W90742  14.804  24.467  13.614
18483W        W90743  26.214   6.356   3.359
18484W        W90744   3.474  34.083   4.140
18485W        W90745   3.446  40.020  11.643
18486W        W90746  38.195   6.107   4.236
18487W        W90747  12.668  16.754   0.044
18488W        W90748   2.416  12.947  13.372
18489W        W90749   9.320  22.674  12.747
18490W        W90750  24.332   3.935  12.542
18491W        W90751  41.383  24.632  10.765
18492W        W90752  32.876   3.503  11.215
18493W        W90753   5.802   6.975  14.971
18494W        W90754  24.105   1.716   1.792
18495W        W90755  35.473  19.953  14.902
18496W        W90756  13.114   3.244  14.582
18497W        W90757  34.490  43.060   4.916
18498W        W90758   0.932  36.056   4.655
18499W        W90759  42.888  39.435   0.385
18500W        W90760  17.359  25.335   0.425
18501W        W90761   0.062   7.358  14.434
18502W        W90762  41.489  33.628   1.615
18503W        W90763   3.266  11.815   1.313
18504W        W90764  42.968  37.874   3.236
18505W        W90765  12.359  20.022   3.830
18506W        W90766  37.061  28.833   4.532
18507W        W90767   0.778  26.224   4.664
18508W        W90768  12.443  15.107   3.267
18509W        W90769  17.302  24.390   1.266
18510W        W90770   6.029  39.356  13.310
18511W        W90771  24.345  33.117   1.372
18512W        W90772  28.116  22.753   3.009
18513W        W90773  25.703  36.811   3.277
18514W        W90774  30.645  19.836   0.995
18515W        W90775  17.715   3.407   2.954
18516W        W90776   7.138  20.126  14.033
18517W        W90777   8.438  41.862   1.649
18518W        W90778  35.577   1.483   0.828
18519W        W90779  39.833  37.301  13.931
18520W        W90780  37.942  15.655   4.699
18521W        W90781   7.613   7.148  12.417
18522W        W90782  38.360  35.972   2.641
18523W        W90783   4.256  15.305  14.962
18524W        W90784  19.678   0.815  14.395
18525W        W90785  22.329  17.132   1.682
18526W        W90786  13.608  12.121   2.192
18527W        W90787  36.331  21.783   3.970
18528W        W90788  34.093   4.681  14.788
18529W        W90789  36.138  39.427  14.024
18530W        W90790  41.026  34.357   2.075
18531W        W90791  11.769  43.906   4.849
18532W        W90792   7.163  29.189   0.757
18533W        W90793  41.590  24.471  11.221
18534W        W90794  28.077  11.032   3.656
18535W        W90795  34.761   5.681   2.110
18536W        W90796  39.673   3.389   5.022
18537W        W90797  43.791  41.573   1.270
18538W        W90798  18.514  42.024  13.271
18539W        W90799  13.290  37.348  12.466
18540W        W90800  44.182  31.121   3.559
18541W        W90801  21.980  28.216   3.407
18542W        W90802  22.757  10.431   0.899
18543W        W90803   2.038   2.635  14.117
18544W        W90804   6.393  25.774  13.147
18545W        W90805  25.097  31.882  11.128
18546W        W90806   9.210  19.816  12.034
18547W        W90807  38.759  26.201   1.731
18548W        W90808  11.216  35.552  12.878
18549W        W90809   4.785   7.589  14.353
18550W        W90810  33.823  14.837   2.320
18551W        W90811  37.526  40.203   2.073
18552W        W90812  38.925  32.021  14.318
18553W        W90813  30.087  42.395   0.725
18554W        W90814   5.155  41.660   2.722
18555W        W90815  16.615  18.339  13.504
18556W        W90816   8.649  18.037   4.606
18557W        W90817  21.143  12.663  10.253
18558W        W90818   3.959  29.963  10.400
18559W        W90819  39.951   8.878  10.767
18560W        W90820  37.253   8.620  11.957
18561W        W90821  38.261  13.687  12.635
18562W        W90822   3.882   2.024  11.586
18563W        W90823  43.836   1.440  11.186
18564W        W90824  20.785  16.186  14.903
18565W        W90825   9.416  13.693   0.423
18566W        W90826  31.604  33.277   0.444
18567W        W90827   0.203  10.641   2.753
18568W        W90828  28.745  31.581  11.919
18569W        W90829  19.436  43.513  10.912
18570W        W90830  11.895  29.341  12.618
18571W        W90831  22.029  40.444  13.887
18572W        W90832  39.975  13.772  12.977
18573W        W90833  10.584   4.960   4.604
18574W        W90834  21.512  42.459   2.225
18575W        W90835   8.124   3.401  10.774
18576W        W90836  35.934  21.979  12.443
18577W        W90837  37.430  12.798   0.357
18578W        W90838  37.199   6.404   0.865
18579W        W90839  41.987  40.912   4.212
18580W        W90840  16.587   9.354   0.008
18581W        W90841  41.880   2.307   1.157
18582W        W90842  22.113   0.931   1.922
18583W        W90843  29.581   8.660   0.197
18584W        W90844   4.890  36.126  10.619
18585W        W90845  17.605   9.788  14.585
18586W        W90846   4.274  12.720  13.876
18587W        W90847  11.315  33.989   1.746
18588W        W90848   0.850  22.993  13.286
18589W        W90849  37.162   4.917   4.190
18590W        W90850   0.019  26.109  12.454
18591W        W90851  43.389  44.083  11.550
18592W        W90852   4.354  37.617  12.008
18593W        W90853  18.556  12.902  13.937
18594W        W90854  28.192   0.794   2.321
18595W        W90855  44.740   9.363  12.481
18596W        W90856   5.251  18.569   0.389
18597W        W90857  18.979   2.320   0.345
18598W        W90858  34.069   0.820   4.153
18599W        W90859   8.713   1.008  14.319
18600W        W90860   5.698  32.425  13.925
18601W        W90861  21.787  25.603  13.427
18602W        W90862   2.413  38.996   2.019
18603W        W90863   1.455  27.144   0.493
18604W        W90864  18.097  19.860   1.452
18605W        W90865  34.420  21.006  13.254
18606W        W90866  13.112  13.785  13.248
18607W        W90867   8.635   6.902  13.148
18608W        W90868  16.731  28.417   3.152
18609W        W90869   3.203  14.132  11.525
18610W        W90870  13.952  23.698  10.767
18611W        W90871  37.967   0.178  10.547
18612W        W90872  29.650  33.565  11.599
18613W        W90873  44.010   1.846   0.752
18614W        W90874  31.389  18.613  13.308
18615W        W90875  42.819  26.628   1.406
18616W        W90876  38.489  21.406  14.995
18617W        W90877   9.331  43.913  14.032
18618W        W90878  23.850  36.513   3.309
18619W        W90879  14.117  42.702   1.440
18620W        W90880  13.897  26.864   2.828
18621W        W90881  36.774   3.201  14.087
18622W        W90882  43.102  11.197  11.993
18623W        W90883  26.636  41.397   2.369
18624W        W90884  26.244  16.571   1.062
18625W        W90885  12.239  42.001   0.983
18626W        W90886   8.693  39.511   0.545
18627W        W90887   8.188  19.164  11.540
18628W        W90888  38.824  10.697  13.375
18629W        W90889   6.836  20.748   2.343
18630W        W90890  36.142   5.634   1.130
18631W        W90891  18.848  44.750   4.616
18632W        W90892   9.737  41.398   4.728
18633W        W90893   8.838  25.710   4.114
18634W        W90894  28.306  33.356   1.941
18635W        W90895   6.363  33.192  14.437
18636W        W90896  17.575   1.932  14.476
18637W        W90897  28.034  37.586  10.589
18638W        W90898  26.700  33.880   0.197
18639W        W90899   3.239  29.436   0.944
18640W        W90900  39.942  27.547  11.391
18641W        W90901  17.067  24.969  14.519
18642W        W90902  40.038  21.164  14.849
18643W        W90903  22.990  43.947  13.406
18644W        W90904  39.590  14.865  12.993
18645W        W90905  35.321  29.714   4.123
18646W        W90906  42.806   5.226   1.556
18647W        W90907  19.636   6.624   0.344
18648W        W90908  27.108  37.449   1.760
18649W        W90909  14.649  13.922   0.251
18650W        W90910  42.404  16.965  11.143
18651W        W90911  42.684  26.539   2.414
18652W        W90912  15.103  13.555  13.287
18653W        W90913  31.446   4.846  13.114
18654W        W90914  19.161  27.610   3.553
18655W        W90915  25.119  18.535   3.680
18656W        W90916  18.267   5.287  13.285
18657W        W90917  17.135  31.989   2.776
18658W        W90918   4.459  30.547   2.125
18659W        W90919   9.253   6.288   1.737
18660W        W90920  34.077  25.032  11.387
18661W        W90921  19.295  41.129  13.170
18662W        W90922  11.655   8.695   3.929
18663W        W90923  11.887  12.419  11.554
18664W        W90924   8.882  22.578   0.057
18665W        W90925   9.483  39.815   4.021
18666W        W90926  32.113  18.128  10.703
18667W        W90927  10.069  16.407   0.695
18668W        W90928  20.566  43.902   0.966
18669W        W90929  32.744   6.326   2.269
18670W        W90930  10.759   0.666  10.649
18671W        W90931  31.346   0.851  10.805
18672W        W90932  14.696  20.553   4.604
18673W        W90933  44.827  35.805  14.020
18674W        W90934   5.308  26.010   5.558
18675W        W90935  41.156  19.319   2.412
18676W        W90936  18.598   7.212  11.996
18677W        W90937  36.199  29.503   4.900
18678W        W90938  11.596  36.878   2.192
18679W        W90939  33.318  35.982  11.946
18680W        W90940  13.167  31.658   0.633
18681W        W90941  31.053  15.016  11.152
18682W        W90942  32.096  33.200   4.734
18683W        W90943  24.195  18.623   0.317
18684W        W90944  24.249   0.720   5.218
18685W        W90945   7.273  44.279  14.220
18686W        W90946  42.869  32.627  12.205
18687W        W90947  23.107  10.898  10.701
18688W        W90948  20.266  29.480  13.033
18689W        W90949   3.383  12.830  11.177
18690W        W90950  24.029  24.446   0.986
18691W        W90951  15.119   2.026   4.144
18692W        W90952  25.580  32.062  12.871
18693W        W90953  14.521  23.157  12.069
18694W        W90954  14.535  42.449  11.671
18695W        W90955   5.608   6.799   1.266
18696W        W90956  37.401  29.300   1.174
18697W        W90957  33.832   5.389  10.649
18698W        W90958  42.764   1.445  13.148
18699W        W90959  12.386  24.228   4.247
18700W        W90960  24.814   3.886   2.317
18701W        W90961  33.328  27.688  13.399
18702W        W90962   2.581   6.408   1.680
18703W        W90963  29.574   1.012   3.726
18704W        W90964  11.349  24.755   3.149
18705W        W90965  16.701  32.313   0.333
18706W        W90966  17.871  24.215   0.772
18707W        W90967   4.831   5.751  11.229
18708W        W90968  36.585   1.381  12.214
18709W        W90969  11.665  12.838   4.228
18710W        W90970  38.501   0.490   1.243
18711W        W90971  25.025   7.573   2.382
18712W        W90972  20.127   2.907  12.393
18713W        W90973   4.375  32.889  10.761
18714W        W90974  19.841  14.417   4.192
18715W        W90975  12.636  25.931   1.781
18716W        W90976  11.149  37.932  11.929
18717W        W90977  10.254  26.075  14.983
18718W        W90978   1.923  21.977   0.443
18719W        W90979  33.355  19.324  12.089
18720W        W90980  15.358   3.428  10.805
18721W        W90981  42.892  36.828  12.514
18722W        W90982   8.815   7.398  13.162
18723W        W90983  13.302  29.523  13.804
18724W        W90984   7.177  10.876   0.022
18725W        W90985  17.926  29.421  14.458
18726W        W90986   3.875   8.452   0.833
18727W        W90987  39.389   2.656   1.646
18728W        W90988  13.175  26.015   4.045
18729W        W90989  18.641  19.844  12.454
18730W        W90990  25.680  18.690  12.602
18731W        W90991  18.318  28.239   4.570
18732W        W90992  19.877  43.819  11.273
18733W        W90993  33.722   3.377   0.167
18734W        W90994  20.450  20.112  11.571
18735W        W90995  14.671   6.685  13.127
18736W        W90996  32.940   4.264   4.637
18737W        W90997   5.023  42.999   0.698
18738W        W90998  22.990  12.545  12.448
18739W        W90999   6.672  30.015   0.941
18740W        W91000   3.416  14.782   2.532
18741W        W91001  35.991  40.468  11.575
18742W        W91002  38.384  44.963  11.750
18743W        W91003  41.510  28.935  12.624
18744W        W91004  23.938  35.197   4.456
18745W        W91005  12.765   6.185   0.377
18746W        W91006  33.487  16.956  14.498
18747W        W91007   8.787  44.458  10.262
18748W        W91008  25.794   1.173   3.772
18749W        W91009  32.929  19.551  11.919
18750W        W91010  10.294  34.166   3.879
18751W        W91011  38.078  13.377  11.011
18752W        W91012  42.072  35.311   2.800
18753W        W91013  22.461  32.375  11.564
18754W        W91014  30.451   0.851  11.892
18755W        W91015   7.678   0.774   0.731
18756W        W91016  36.996  38.150  11.535
18757W        W91017  32.812  41.525  12.918
18758W        W91018  11.152   3.363  13.541
18759W        W91019  38.868  15.721  14.295
18760W        W91020   3.878  31.429  13.389
18761W        W91021  22.201  35.656   4.341
18762W        W91022  30.350  36.275  13.511
18763W        W91023  36.329   3.883   1.400
18764W        W91024  38.282  27.482  11.608
18765W        W91025  29.003  24.989  14.560
18766W        W91026   5.142  26.063  12.517
18767W        W91027   6.437  16.060   1.170
18768W        W91028   4.289  27.176  12.866
18769W        W91029  31.347  19.774  13.016
18770W        W91030  10.039  17.672   1.294
18771W        W91031  14.069  41.425   1.907
18772W        W91032  23.738  21.326  10.611
18773W        W91033   7.212  44.133  13.101
18774W        W91034  16.731  41.380  13.537
18775W        W91035  42.449   1.037  14.637
18776W        W91036  22.714  21.022   3.212
18777W        W91037  34.905  18.569  14.851
18778W        W91038  35.703   1.881  12.592
18779W        W91039  43.383   7.264  13.807
18780W        W91040  28.737  18.016  11.443
18781W        W91041  14.639   0.915  12.123
18782W        W91042  27.281  33.351   0.377
18783W        W91043  18.822  30.605  14.493
18784W        W91044  24.388  23.035  14.334
18785W        W91045  10.292   1.832  10.588
18786W        W91046   5.924   9.845   3.705
18787W        W91047   0.534   5.286   0.230
18788W        W91048  36.436  39.544   2.222
18789W        W91049  32.042  44.479   4.663
18790W        W91050  18.621  42.600   3.855
18791W        W91051   7.771  11.543   4.071
18792W        W91052  35.241  41.440  12.475
18793W        W91053   3.057   8.188  14.062
18794W        W91054  31.503  35.668  13.025
18795W        W91055  37.345  43.963   3.589
18796W        W91056  36.014  21.259  11.699
18797W        W91057  25.254   7.070  13.747
18798W        W91058  19.736  43.745  12.945
18799W        W91059   8.651  16.793  12.081
18800W        W91060  17.209  25.068  11.174
18801W        W91061  25.091  40.271   1.377
18802W        W91062  12.145  23.196  13.626
18803W        W91063  15.553  41.815   0.364
18804W        W91064  16.433  41.146  10.483
18805W        W91065  37.005  18.867   1.731
18806W        W91066  38.553  32.337  12.005
18807W        W91067   7.759  29.088  14.782
18808W        W91068  31.257   1.729  10.840
18809W        W91069  38.940  44.340  13.790
18810W        W91070  18.745  28.936   2.277
18811W        W91071  34.472  29.071   4.914
18812W        W91072  13.322  39.015   0.689
18813W        W91073   9.419  31.446   4.304
18814W        W91074  38.742  10.869   3.297
18815W        W91075   0.303   4.003   1.361
18816W        W91076  36.645  32.943   2.334
18817W        W91077  20.763   2.929  11.830
18818W        W91078  14.372  10.646  12.810
18819W        W91079  31.140   4.421   1.878
18820W        W91080  40.693   1.910   0.016
18821W        W91081  22.468   5.389  12.387
18822W        W91082  20.921   1.300  11.163
18823W        W91083   9.196  32.662   4.444
18824W        W91084  31.601  25.257  14.496
18825W        W91085  33.186  44.808  12.644
18826W        W91086   4.649  14.829   0.431
18827W        W91087  14.040   4.630  13.051
18828W        W91088  39.024  36.829   0.755
18829W        W91089  20.179  12.167   4.279
18830W        W91090  30.089  33.875   4.941
18831W        W91091   8.913  43.028  11.476
18832W        W91092  42.273  34.444   4.834
18833W        W91093   7.681  24.635  14.033
18834W        W91094   9.185   8.568  13.298
18835W        W91095  30.891  32.252  13.126
18836W        W91096  35.401   8.653   3.575
18837W        W91097  17.776  34.150   3.688
18838W        W91098  25.711  22.986  11.502
18839W        W91099   5.226  21.772   1.471
18840W        W91100  20.156  21.596  10.676
18841W        W91101  21.780   0.440  10.896
18842W        W91102  11.894  31.905   2.265
18843W        W91103   3.396  17.564   3.016
18844W        W91104  23.526  24.873   0.611
18845W        W91105   0.412  36.793   3.747
18846W        W91106   0.437  28.615  11.893
18847W        W91107   2.084   6.196  11.996
18848W        W91108   5.725  34.303  11.621
18849W        W91109  15.767   4.830   3.578
18850W        W91110  14.045  34.046   2.302
18851W        W91111  24.771  10.963   3.875
18852W        W91112  30.521   8.209  10.537
18853W        W91113  19.338  41.789  11.492
18854W        W91114  10.398  38.429  13.991
18855W        W91115  22.605  29.640  13.258
18856W        W91116  34.505   5.495  13.081
18857W        W91117  42.075  34.359  11.998
18858W        W91118  44.718  42.872   0.272
18859W        W91119  22.259  34.920  13.092
18860W        W91120  12.312  18.456   2.715
18861W        W91121  15.110  32.778  13.349
18862W        W91122   0.498   5.477   2.197
18863W        W91123  44.428   7.801  10.669
18864W        W91124  20.562   9.585  14.966
18865W        W91125  42.824   3.488  12.486
18866W        W91126  13.271  11.598   3.306
18867W        W91127  19.526  12.238   0.325
18868W        W91128  44.364   4.435  11.148
18869W        W91129  33.668   0.200  10.715
18870W        W91130   0.259  16.096   4.298
18871W        W91131  33.459  18.130  13.512
18872W        W91132  10.534   6.156   1.747
18873W        W91133  12.615   1.275  10.413
18874W        W91134  35.190  24.463   0.575
18875W        W91135  14.191   5.949  14.692
18876W        W91136  22.408  28.227   0.393
18877W        W91137  23.173  17.626   4.103
18878W        W91138   6.802   2.502  12.014
18879W        W91139   2.882   6.165   3.360
18880W        W91140  26.925  37.612  13.804
18881W        W91141  40.057  12.768   5.097
18882W        W91142   2.124  23.498   2.440
18883W        W91143  10.540   3.432  14.500
18884W        W91144  13.863  20.264  10.995
18885W        W91145   7.429   8.570  11.540
18886W        W91146  19.259  39.865  12.003
18887W        W91147   8.362  43.555   4.570
18888W        W91148  30.200  43.933   2.849
18889W        W91149  32.632  20.310  13.830
18890W        W91150  23.457  28.531   4.103
18891W        W91151  40.492  10.665  14.826
18892W        W91152   3.990   4.873   0.832
18893W        W91153  16.463  21.856   0.300
18894W        W91154  30.879  26.604  11.025
18895W        W91155  26.841  39.844   4.918
18896W        W91156   9.659  23.992   4.215
18897W        W91157   8.297   2.198   1.960
18898W        W91158  37.075   3.515   0.009
18899W        W91159  26.549   3.234  12.859
18900W        W91160   4.237  14.732   1.606
18901W        W91161  21.137  22.642  10.508
18902W        W91162  44.209  27.675   0.300
18903W        W91163  25.631  21.227   1.289
18904W        W91164  13.585   7.392   1.713
18905W        W91165  15.244  10.247   4.205
18906W        W91166  28.037  11.961  14.907
18907W        W91167  15.854  20.780  11.516
18908W        W91168  26.522  39.062  14.197
18909W        W91169  43.695  14.692   4.317
18910W        W91170  22.245   8.796  13.776
18911W        W91171  13.708  29.238  14.957
18912W        W91172  25.230  19.819   1.002
18913W        W91173  24.147  39.497   4.241
18914W        W91174   1.577  39.333  13.299
18915W        W91175  13.859  31.491   1.724
18916W        W91176  10.196  19.737  14.496
18917W        W91177  12.585  18.508   0.412
18918W        W91178   2.329  17.839   4.025
18919W        W91179   6.003  27.072  14.388
18920W        W91180   7.238  11.704  10.732
18921W        W91181  29.354   8.816  10.784
18922W        W91182  38.311   6.459   2.219
18923W        W91183  21.902  42.963  14.314
18924W        W91184  39.572  35.248  14.899
18925W        W91185  41.916  10.349   4.853
18926W        W91186   9.082  23.697  11.535
18927W        W91187   1.368  34.930  14.379
18928W        W91188   0.704   3.265   2.903
18929W        W91189   3.001  32.563  14.754
18930W        W91190  34.937  36.398   0.327
18931W        W91191  43.705  12.334  10.946
18932W        W91192  11.091  39.594  14.453
18933W        W91193  13.143  15.298   4.344
18934W        W91194  43.431  31.903   1.403
18935W        W91195  43.275  44.303  11.095
18936W        W91196   3.681  20.527   1.323
18937W        W91197  17.137  28.668   2.745
18938W        W91198  10.424   8.732  12.288
18939W        W91199  40.251  10.834   2.365
18940W        W91200  18.026  22.165  14.855
18941W        W91201   8.644  11.125  12.962
18942W        W91202   8.575  12.453   4.648
18943W        W91203  19.445  38.846   4.285
18944W        W91204  26.697  22.046  12.795
18945W        W91205  29.923  32.552   3.065
18946W        W91206   9.374  17.281  12.076
18947W        W91207  36.119  18.093  14.332
18948W        W91208   3.447  26.484  10.783
18949W        W91209   6.911  33.394  12.880
18950W        W91210   1.264  23.126  10.704
18951W        W91211  28.506  40.988   2.972
18952W        W91212  17.483  36.435   3.687
18953W        W91213   1.969  38.050   1.267
18954W        W91214  13.116  18.578  12.061
18955W        W91215  11.956  41.320   0.823
18956W        W91216  12.672  33.971   1.314
18957W        W91217  38.326  44.510  14.905
18958W        W91218  11.665  18.361  12.991
18959W        W91219  15.088  41.922   3.175
18960W        W91220  12.339  40.531   1.090
18961W        W91221  36.507  13.148   1.004
18962W        W91222  27.048   4.781  10.791
18963W        W91223  12.853  33.450  13.922
18964W        W91224  11.031  34.010  12.972
18965W        W91225  29.489  38.299  12.364
18966W        W91226  25.471   2.368  11.566
18967W        W91227  42.611   4.775   3.065
18968W        W91228  37.414  26.502  10.800
18969W        W91229  38.598  15.191   2.860
18970W        W91230   6.828   4.930  13.862
18971W        W91231   0.522  23.984   4.605
18972W        W91232  27.890   7.249  12.922
18973W        W91233   0.426  12.110   3.254
18974W        W91234  36.622  35.558  14.742
18975W        W91235  31.438  40.223   1.758
18976W        W91236  16.796  29.920  14.955
18977W        W91237  17.997   7.433   2.740
18978W        W91238  40.812  36.860   2.895
18979W        W91239  43.768  33.515  13.645
18980W        W91240  21.054  15.585   4.672
18981W        W91241  11.136  28.959  11.038
18982W        W91242  17.678   9.099   3.499
18983W        W91243  34.397   7.864  13.436
18984W        W91244  44.500  18.259   3.585
18985W        W91245  32.627  14.295  11.978
18986W        W91246   0.907   2.831  10.564
18987W        W91247  32.541  28.701  14.942
18988W        W91248  42.544  42.643   3.111
18989W        W91249  19.244  19.753   0.834
18990W        W91250  12.378   5.198  12.371
18991W        W91251  19.091  18.256   2.800
18992W        W91252  17.689  18.291  10.569
18993W        W91253  30.659  30.615  14.894
18994W        W91254  29.918  16.361  12.023
18995W        W91255  31.511  24.122   0.067
18996W        W91256  16.326  32.712   3.325
18997W        W91257  30.750  44.734   1.917
18998W        W91258  25.108  12.643   1.741
18999W        W91259  22.022  27.314  14.947
19000W        W91260  11.812  16.617   4.674
19001W        W91261  40.327   6.426   0.424
19002W        W91262  24.447   9.779  11.218
19003W        W91263  14.572  15.286  10.734
19004W        W91264  35.426   3.413   0.563
19005W        W91265  20.940  26.058  11.468
19006W        W91266  40.289   5.284   4.327
19007W        W91267  36.893  19.079  12.964
19008W        W91268  25.724  14.821   2.773
19009W        W91269  18.268  17.357   1.564
19010W        W91270  23.996  10.165   4.543
19011W        W91271  24.561  17.088  10.937
19012W        W91272  12.113  13.393   3.111
19013W        W91273  36.581   2.301   3.219
19014W        W91274  23.275  38.000  13.544
19015W        W91275  27.127  42.543  12.824
19016W        W91276  41.380   6.181  11.685
19017W        W91277   6.249  33.950   4.612
19018W        W91278  18.204  26.556  11.182
19019W        W91279  27.644  13.370   0.934
19020W        W91280   0.737  42.757   4.425
19021W        W91281  32.060  20.161  14.467
19022W        W91282  11.207  11.948   1.364
19023W        W91283  41.838  20.837  12.673
19024W        W91284  28.891  39.677   0.566
19025W        W91285  21.749  12.344   2.021
19026W        W91286   0.599  40.113  12.504
19027W        W91287  25.620  15.606   0.152
19028W        W91288  10.271  12.962   5.207
19029W        W91289   2.912   0.847   2.878
19030W        W91290  34.575  24.973  10.547
19031W        W91291  28.558  25.839  10.810
19032W        W91292  15.012   2.887  14.517
19033W        W91293  26.532  32.830   0.259
19034W        W91294  41.852   3.700   3.816
19035W        W91295   4.932  27.582  14.969
19036W        W91296   7.922   5.709   1.715
19037W        W91297  38.475  26.777   2.747
19038W        W91298  22.289  44.720   1.396
19039W        W91299  34.592  12.409  13.077
19040W        W91300  10.101  23.094  14.508
19041W        W91301  20.040   1.851  11.119
19042W        W91302  40.274  39.340  11.081
19043W        W91303  11.913   2.393   3.841
19044W        W91304  42.989  41.303  14.442
19045W        W91305  22.999  44.326   2.237
19046W        W91306  26.760  37.124  14.554
19047W        W91307  30.961   3.400  14.455
19048W        W91308  11.676  13.749  11.379
19049W        W91309  10.165  33.077  13.360
19050W        W91310  14.585   1.489   1.930
19051W        W91311  30.242  18.710   3.382
19052W        W91312  16.369  30.245   4.084
19053W        W91313  22.153  44.448   0.477
19054W        W91314  41.002  11.911   2.098
19055W        W91315  20.309  43.435   2.258
19056W        W91316  40.752  33.680  13.354
19057W        W91317  20.550  23.446   0.222
19058W        W91318   3.440  18.806  14.790
19059W        W91319  31.549  32.399   4.666
19060W        W91320  21.332  43.193  10.719
19061W        W91321   8.141   2.757   4.680
19062W        W91322   5.341   4.355   4.348
19063W        W91323  25.711  24.612   0.445
19064W        W91324  44.955  35.687   3.231
19065W        W91325  41.389  16.650   2.500
19066W        W91326   8.851  13.757  11.129
19067W        W91327   3.197  33.369  11.216
19068W        W91328  25.484   2.707   1.009
19069W        W91329  11.607  35.815   4.594
19070W        W91330  44.326  13.336   1.169
19071W        W91331  16.516  24.977  14.579
19072W        W91332  11.218  16.390   1.391
19073W        W91333  28.938  18.256   1.493
19074W        W91334  13.011  27.069   1.795
19075W        W91335   0.718   9.270   1.273
19076W        W91336  13.580  14.313   4.992
19077W        W91337  14.324  17.667   5.575
19078W        W91338  20.210  29.500   0.098
19079W        W91339  11.172  43.927   2.640
19080W        W91340  15.133  35.303   2.805
19081W        W91341  26.433  34.558   3.554
19082W        W91342  32.597  22.958  10.393
19083W        W91343  41.705   4.234  11.067
19084W        W91344  32.844  26.750   0.289
19085W        W91345  33.979  23.492   1.890
19086W        W91346  19.788  43.524   2.318
19087W        W91347   4.963   7.785  12.661
19088W        W91348  22.522  21.244  14.934
19089W        W91349  31.277   2.321   3.684
19090W        W91350  40.116  39.594  12.871
19091W        W91351  15.244  23.495   4.550
19092W        W91352   2.438   2.369   2.888
19093W        W91353   7.135   4.994   1.429
19094W        W91354  35.058  25.061   0.821
19095W        W91355  18.152  16.715   3.314
19096W        W91356   8.177  24.108  12.524
19097W        W91357  25.198   2.882  12.796
19098W        W91358  12.748  10.955  11.398
19099W        W91359  41.341  24.995   3.636
19100W        W91360  35.676  34.451  10.661
19101W        W91361  23.461  26.541  10.743
19102W        W91362   8.771  17.141  13.825
19103W        W91363  25.887  23.828   1.878
19104W        W91364  28.155   1.954  14.332
19105W        W91365  11.166  24.197   1.143
19106W        W91366  16.612  16.898  12.396
19107W        W91367  41.602   6.807   2.413
19108W        W91368   4.228   0.601   4.706
19109W        W91369  24.489  42.620   4.467
19110W        W91370  30.984  13.569   2.960
19111W        W91371  31.814   8.777   3.188
19112W        W91372  38.972  21.020   3.195
19113W        W91373   1.288  14.950   3.237
19114W        W91374  16.442  25.023  10.716
19115W        W91375  18.662  26.411  11.409
19116W        W91376  22.612  15.765   0.676
19117W        W91377  34.791   8.656  11.611
19118W        W91378  26.540   1.889  11.073
19119W        W91379  23.824  42.513  14.430
19120W        W91380  12.162  27.180  13.546
19121W        W91381   0.188  24.157  11.962
19122W        W91382  16.769  13.298   4.248
19123W        W91383  42.321  14.128  10.670
19124W        W91384  26.822   9.378  10.635
19125W        W91385   6.254  24.619  12.463
19126W        W91386  26.038   5.832   0.655
19127W        W91387  20.292   1.801  11.608
19128W        W91388  24.061  37.948  11.676
19129W        W91389  23.014  33.511  11.097
19130W        W91390  11.130  44.030  13.917
19131W        W91391   4.207  27.071   4.082
19132W        W91392  20.978  25.183   0.521
19133W        W91393  17.143   5.731  12.477
19134W        W91394  26.730  40.518  11.037
19135W        W91395   9.624   8.640   2.882
19136W        W91396   1.993   2.592   2.278
19137W        W91397  16.360   9.295  14.410
19138W        W91398  25.787   9.261  12.153
19139W        W91399  19.974  19.604   1.290
19140W        W91400  39.446  34.545   4.607
19141W        W91401   0.020  40.278  13.447
19142W        W91402   6.163  13.615   2.390
19143W        W91403  22.624  42.035  12.876
19144W        W91404   5.698   6.043  10.663
19145W        W91405  13.631  27.070  12.528
19146W        W91406  31.075  22.292  12.608
19147W        W91407   2.266  25.796  14.843
19148W        W91408   9.377  34.635  12.230
19149W        W91409   7.267  12.909  12.480
19150W        W91410  21.176  37.867  13.398
19151W        W91411  14.319  40.940  12.898
19152W        W91412  17.892   7.737   0.251
19153W        W91413   0.719  15.361  13.989
19154W        W91414   7.680  28.749   4.120
19155W        W91415  16.374  14.189  10.093
19156W        W91416   0.452  21.200   4.591
19157W        W91417  20.561  44.382   4.559
19158W        W91418  12.317  26.241  12.466
19159W        W91419  15.148  37.852  13.829
19160W        W91420  33.435  24.517  14.909
19161W        W91421   4.903   3.117  11.284
19162W        W91422   9.918  34.190   2.595
19163W        W91423  26.132  22.501   2.479
19164W        W91424  44.603  11.684   1.322
19165W        W91425  29.722  27.001   0.699
19166W        W91426  10.484  36.498  10.750
19167W        W91427  22.264  41.914   3.171
19168W        W91428  34.624  36.111  14.574
19169W        W91429  28.421  28.417   4.595
19170W        W91430  16.641   9.645   2.719
19171W        W91431  25.868   1.743   0.346
19172W        W91432  19.694  13.317  13.293
19173W        W91433  13.160   9.990   2.340
19174W        W91434   1.889  43.966  11.499
19175W        W91435  25.245  26.933  12.740
19176W        W91436   0.283  32.353  14.037
19177W        W91437   9.557  43.275   4.254
19178W        W91438  41.053  40.066  10.649
19179W        W91439  14.493   3.688   2.155
19180W        W91440  22.579   2.081  14.782
19181W        W91441   9.421   7.882  12.944
19182W        W91442   3.981   3.829  12.361
19183W        W91443  26.212  17.317   4.177
19184W        W91444   3.334  22.628   4.625
19185W        W91445  33.219  26.401   0.071
19186W        W91446  33.302  36.464  11.729
19187W        W91447  44.398  26.648   1.786
19188W        W91448  25.509  44.527  11.608
19189W        W91449   4.833  14.796  11.222
19190W        W91450  29.049  25.199  11.455
19191W        W91451  16.580  13.322  14.654
19192W        W91452  10.348  21.744  14.499
19193W        W91453  42.856  32.373   4.704
19194W        W91454  34.730  38.983  14.538
19195W        W91455  29.098  36.100  12.942
19196W        W91456  40.614  23.002   1.677
19197W        W91457  13.443   9.801   1.299
19198W        W91458  32.412  30.716   0.950
19199W        W91459  22.735  24.890  14.492
19200W        W91460  18.553  24.059   3.208
19201W        W91461  39.866  15.680   3.642
19202W        W91462  17.618  39.451   0.431
19203W        W91463   8.323   1.051  13.002
19204W        W91464  14.218   5.744   0.777
19205W        W91465  17.133  36.496   1.164
19206W        W91466  32.986  19.973   0.687
19207W        W91467  22.954   1.423   1.330
19208W        W91468   9.879  27.557  13.287
19209W        W91469  27.660  18.592  13.003
19210W        W91470  14.695  27.177   2.225
19211W        W91471  31.534   5.318   0.907
19212W        W91472  41.380  28.054   1.289
19213W        W91473   4.468  14.836  14.257
19214W        W91474  37.881  26.660  10.634
19215W        W91475  43.882  22.650   4.600
19216W        W91476   3.876  15.714  13.544
19217W        W91477  24.293  13.152   0.818
19218W        W91478   9.714  39.985  10.678
19219W        W91479   3.878  14.093   2.691
19220W        W91480  37.082  39.581   2.741
19221W        W91481   3.959  20.456  14.965
19222W        W91482  11.411  42.944  10.616
19223W        W91483  35.867   4.438  14.799
19224W        W91484  31.775  33.028   4.331
19225W        W91485  43.956  15.061  13.024
19226W        W91486   2.737  39.813   3.144
19227W        W91487  38.801  21.129  10.738
19228W        W91488   4.503  30.375   0.503
19229W        W91489  10.816  36.922  12.545
19230W        W91490   4.779  35.468   2.269
19231W        W91491   4.971  37.091  14.073
19232W        W91492   3.479  43.817   3.632
19233W        W91493  12.974  37.071   3.631
19234W        W91494  22.215  26.831   0.054
19235W        W91495  22.833  13.857   1.783
19236W        W91496  38.951  10.784  10.985
19237W        W91497  16.676   2.229  10.673
19238W        W91498  22.726  31.057  13.955
19239W        W91499  20.184  35.602  10.516
19240W        W91500  38.597  32.702   3.563
19241W        W91501   7.751  38.602  10.838
19242W        W91502  35.135  15.391   0.833
19243W        W91503  28.545  20.058  10.810
19244W        W91504  44.295  44.090   2.632
19245W        W91505  12.318  26.680  12.822
19246W        W91506   6.514  15.662  13.924
19247W        W91507  32.670   9.717  13.837
19248W        W91508  16.569  24.174   2.358
19249W        W91509  41.458  11.381   2.827
19250W        W91510  38.677   5.318   4.940
19251W        W91511  14.134   3.201  12.979
19252W        W91512  38.483  23.278  11.974
19253W        W91513  37.960  37.241   5.037
19254W        W91514  33.567   4.364  14.628
19255W        W91515   4.184  22.933  12.476
19256W        W91516  22.379   4.026   2.751
19257W        W91517   3.885  24.278  11.138
19258W        W91518   6.484   3.424  12.776
19259W        W91519  36.989  29.167  12.156
19260W        W91520  41.543  10.720   3.826
19261W        W91521  22.414  25.178   3.130
19262W        W91522  25.706  43.197  12.997
19263W        W91523   3.204   8.290   1.445
19264W        W91524  28.140  40.579   1.281
19265W        W91525  40.553   0.491   3.345
19266W        W91526  13.838  33.893  12.617
19267W        W91527  44.961   3.810   4.383
19268W        W91528  24.322   8.321   4.109
19269W        W91529  28.809  32.153  11.092
19270W        W91530  28.223  18.121  10.734
19271W        W91531  30.200  33.374  12.481
19272W        W91532   9.319   9.369  14.548
19273W        W91533  16.277  20.556  14.993
19274W        W91534   0.244  23.008  12.605
19275W        W91535   5.909  40.437   0.879
19276W        W91536  12.890  25.150   1.514
19277W        W91537   4.466  17.777  10.653
19278W        W91538  12.867   6.121  12.144
19279W        W91539   9.644  13.536   0.883
19280W        W91540  28.362  10.607   0.337
19281W        W91541   6.691  19.271   1.390
19282W        W91542  36.362  18.590   2.263
19283W        W91543  28.627  17.516  12.658
19284W        W91544  20.637  22.423   4.631
19285W        W91545   6.783  44.186  12.017
19286W        W91546  10.716  27.661  11.949
19287W        W91547  40.025  26.447  13.611
19288W        W91548  19.823  42.074  13.712
19289W        W91549  27.066  34.309   4.196
19290W        W91550   6.275   9.908   4.119
19291W        W91551   7.774   9.264   3.789
19292W        W91552  26.658  44.258   1.877
19293W        W91553  30.187  13.332  12.606
19294W        W91554  31.172  20.304  14.637
19295W        W91555  37.245  21.699   3.773
19296W        W91556  14.334  32.514   0.990
19297W        W91557  27.966  40.719   4.626
19298W        W91558  38.842  19.473   2.916
19299W        W91559  18.109   8.635  14.803
19300W        W91560  32.132   8.913  14.228
19301W        W91561   3.914  20.751  12.069
19302W        W91562   1.106  39.289   0.873
19303W        W91563  13.237  16.543  12.110
19304W        W91564  21.300  13.825  13.536
19305W        W91565   8.963  11.186  12.512
19306W        W91566  32.818  30.663   2.248
19307W        W91567  41.820  38.312   4.784
19308W        W91568  31.532   0.243  12.515
19309W        W91569  42.728  19.671   1.405
19310W        W91570  22.603  31.817   5.065
19311W        W91571  40.738  13.716  14.846
19312W        W91572   8.646   3.897  14.360
19313W        W91573  14.080  31.095  13.766
19314W        W91574   1.669  36.150  12.915
19315W        W91575  21.553  41.226   0.747
19316W        W91576   5.705  22.069   4.936
19317W        W91577  26.162  29.916   3.167
19318W        W91578  39.284  33.413   0.869
19319W        W91579  29.037  25.274  13.867
19320W        W91580  42.570  23.409   2.197
19321W        W91581  34.848   1.266   2.159
19322W        W91582  13.720  28.622  14.103
19323W        W91583  37.397   9.089   2.067
19324W        W91584  12.366  39.125  13.295
19325W        W91585  24.020  20.092   1.870
19326W        W91586  26.541  15.825   0.529
19327W        W91587   6.455   3.828  11.669
19328W        W91588  14.661  28.938  11.524
19329W        W91589  24.280   4.793  14.031
19330W        W91590   7.087  43.210   0.909
19331W        W91591  39.285  43.806  13.109
19332W        W91592   4.047  24.882   1.581
19333W        W91593   5.444   4.312   0.045
19334W        W91594  36.300  17.607  14.727
19335W        W91595  39.886  33.001   3.884
19336W        W91596  43.912  34.706   2.309
19337W        W91597  11.922  38.653  14.017
19338W        W91598  33.137  34.904   3.861
19339W        W91599  31.266  32.393  13.846
19340W        W91600   0.543  10.441   0.986
19341W        W91601  42.436  23.256   4.638
19342W        W91602  38.469  43.358   2.419
19343W        W91603   2.170  14.535   0.387
19344W        W91604  28.947  37.989   0.064
19345W        W91605  38.464  36.081  12.395
19346W        W91606  20.514  15.860  12.797
19347W        W91607  11.548  28.167   1.861
19348W        W91608  14.255   4.952   0.410
19349W        W91609  11.788  18.684   3.410
19350W        W91610  22.810  21.037   1.122
19351W        W91611  10.149  18.163  11.170
19352W        W91612  16.326  34.295  11.080
19353W        W91613   9.704  42.268  14.858
19354W        W91614  33.883  32.639  14.845
19355W        W91615  35.572  43.002   2.833
19356W        W91616   7.168  26.416  14.791
19357W        W91617  11.339  14.879  10.403
19358W        W91618   5.190   7.860   3.539
19359W        W91619  38.285  21.347   2.127
19360W        W91620  15.348   6.225   4.753
19361W        W91621  31.914  22.354  14.974
19362W        W91622  23.054  24.962   4.575
19363W        W91623  24.927  20.431   3.240
19364W        W91624  23.651  35.121   3.122
19365W        W91625  33.059  25.658   2.897
19366W        W91626  29.978  31.851  14.490
19367W        W91627  27.935   4.249   0.903
19368W        W91628  37.476  28.607   1.771
19369W        W91629  33.481  14.716   2.743
19370W        W91630  25.316  36.349   4.309
19371W        W91631   3.717  28.463   3.708
19372W        W91632  24.499  29.939  11.559
19373W        W91633  39.644   3.411   2.701
19374W        W91634  15.071  35.162  10.714
19375W        W91635  23.552  26.426  14.348
19376W        W91636  43.267  34.537  10.357
19377W        W91637  17.801   4.820  10.563
19378W        W91638  24.784  11.211  13.736
19379W        W91639  37.972  40.378  11.623
19380W        W91640  30.210  42.696  10.777
19381W        W91641   9.421  29.089   3.151
19382W        W91642  17.773  26.272  12.920
19383W        W91643   7.692   8.234   4.541
19384W        W91644  15.829  18.636   3.711
19385W        W91645  18.439   3.680   4.643
19386W        W91646  14.123  14.967   0.029
19387W        W91647  42.757   3.400   1.682
19388W        W91648  37.852  13.242  11.808
19389W        W91649   8.864  13.905   4.407
19390W        W91650  40.849  41.971   4.008
19391W        W91651   9.886  10.651  14.440
19392W        W91652  22.127   6.687  14.315
19393W        W91653   2.659  31.730   1.288
19394W        W91654  26.618   2.749   4.917
19395W        W91655  39.808  35.317  12.435
19396W        W91656   7.528  18.630  11.780
19397W        W91657  28.580  27.205  10.714
19398W        W91658  11.754  28.967   3.223
19399W        W91659  22.044   5.185   3.258
19400W        W91660  19.133  26.572   1.875
19401W        W91661   8.266  38.440  10.515
19402W        W91662  23.615  27.948   0.750
19403W        W91663  11.194  23.691   1.838
19404W        W91664  11.377  26.084   4.526
19405W        W91665  25.574  38.226  11.586
19406W        W91666  44.848   2.376   3.441
19407W        W91667  28.204   9.626   1.934
19408W        W91668  40.997   0.024  14.745
19409W        W91669  35.572  31.476   0.468
19410W        W91670   6.960  28.192  12.086
19411W        W91671  37.817   1.710  13.369
19412W        W91672  27.335  30.075  12.463
19413W        W91673  22.255  43.303  14.453
19414W        W91674  30.529  18.147  14.473
19415W        W91675  21.013   0.204  13.775
19416W        W91676  42.448  20.054  13.732
19417W        W91677  24.186  21.921   3.310
19418W        W91678  38.261  44.476  11.634
19419W        W91679  31.427  19.176   0.799
19420W        W91680  44.500   5.210   3.803
19421W        W91681   9.188  28.601  11.207
19422W        W91682   1.762   1.446   3.267
19423W        W91683   0.967  42.975  13.397
19424W        W91684  36.957  44.458   4.745
19425W        W91685  31.437  13.893  12.437
19426W        W91686  26.246  30.419   0.725
19427W        W91687  26.527  17.223  11.589
19428W        W91688   0.996  10.810   1.176
19429W        W91689  34.036   3.316  12.330
19430W        W91690   4.140  32.342   2.877
19431W        W91691   8.372   8.871  11.663
19432W        W91692  12.787  40.662  12.586
19433W        W91693  33.075  13.248  13.964
19434W        W91694  41.776  34.586  12.441
19435W        W91695  20.747  29.673  12.352
19436W        W91696   6.365  17.559  12.244
19437W        W91697  23.159   5.938  11.300
19438W        W91698  34.142  38.371   0.404
19439W        W91699  33.832  35.970  13.865
19440W        W91700  43.018  28.516   1.817
19441W        W91701  34.308  37.108   2.177
19442W        W91702   1.030   3.654   2.633
19443W        W91703  16.502  16.735  10.697
19444W        W91704  42.933   6.699  13.778
19445W        W91705   1.716   4.795  13.319
19446W        W91706   9.346  41.033  13.388
19447W        W91707  42.274  20.993   1.841
19448W        W91708  39.529  38.004  12.082
19449W        W91709  40.558  42.400   2.690
19450W        W91710  35.960   8.621   3.418
19451W        W91711   7.912   1.490   0.503
19452W        W91712  40.515  43.781   3.914
19453W        W91713  11.703  17.980  12.630
19454W        W91714  14.158  31.491  14.108
19455W        W91715  25.923  28.603   3.494
19456W        W91716  21.537  34.346  11.118
19457W        W91717  22.772  21.221   2.267
19458W        W91718  12.874  17.563   2.676
19459W        W91719   8.303  21.612   1.893
19460W        W91720  38.019  32.435  13.446
19461W        W91721  37.485  29.760   1.443
19462W        W91722  15.773  15.197   4.798
19463W        W91723  32.500   4.254   3.964
19464W        W91724  33.130  42.170  11.746
19465W        W91725  28.192  19.116  11.449
19466W        W91726  10.435  11.156  12.538
19467W        W91727   2.436  10.270  12.018
19468W        W91728   3.424  22.771   1.395
19469W        W91729  11.349  33.872  12.365
19470W        W91730   4.290  25.689  11.167
19471W        W91731  16.274   1.667  11.178
19472W        W91732  25.548  24.499   3.204
19473W        W91733  32.142  35.498   1.733
19474W        W91734   5.777   6.438  14.986
19475W        W91735   1.666  21.682   1.695
19476W        W91736  14.536   4.514  13.976
19477W        W91737  14.798  32.652   0.714
19478W        W91738  27.776   8.059   4.692
19479W        W91739  26.566  19.011  12.430
19480W        W91740  19.669  42.475   2.939
19481W        W91741  11.273   7.805  12.846
19482W        W91742  17.075  23.055  13.897
19483W        W91743  42.109  36.011  13.209
19484W        W91744  40.666  36.932  11.661
19485W        W91745   4.790   6.773  13.477
19486W        W91746  15.838  21.737  14.970
19487W        W91747  11.710  34.941  12.557
19488W        W91748  20.423   8.757  13.873
19489W        W91749   9.422  27.284  12.501
19490W        W91750  23.510  35.399   3.699
19491W        W91751  43.876  41.996  13.925
19492W        W91752  29.913  36.022   3.026
19493W        W91753  10.158   2.387   4.196
19494W        W91754  36.330   6.768   2.627
19495W        W91755  29.964  39.436  14.040
19496W        W91756  31.324  11.917   2.274
19497W        W91757  10.077   1.479  14.278
19498W        W91758   3.232  37.944  13.658
19499W        W91759  26.911  30.996   3.749
19500W        W91760  30.662  11.060  14.254
19501W        W91761  13.194   7.438  12.053
19502W        W91762  19.332  31.617  12.891
19503W        W91763  25.131  28.142   1.773
19504W        W91764  34.694  21.678  11.963
19505W        W91765  37.525   0.725  14.321
19506W        W91766  37.460  44.385  14.908
19507W        W91767  28.258  24.161  13.432
19508W        W91768  31.630  31.067  12.858
19509W        W91769  35.694  29.134  12.433
19510W        W91770   6.209  12.578   2.687
19511W        W91771  41.990  38.091   0.907
19512W        W91772  40.990  14.189  14.453
19513W        W91773  36.070  16.301   4.419
19514W        W91774  16.678  20.816  13.246
19515W        W91775  29.412   0.322   2.255
19516W        W91776  17.965  43.563   1.351
19517W        W91777   8.307  18.061  14.205
19518W        W91778   4.244  12.613  11.571
19519W        W91779  34.945  34.847   3.258
19520W        W91780  43.743  25.718   3.394
19521W        W91781  22.744  40.895  14.082
19522W        W91782   0.438  24.986   2.172
19523W        W91783  13.211  11.211  10.494
19524W        W91784  31.021   2.673   0.866
19525W        W91785  13.116  33.550  12.538
19526W        W91786  30.950  27.831   2.895
19527W        W91787  19.443  42.319  12.296
19528W        W91788  31.938  28.310  12.881
19529W        W91789  42.046   1.073   4.085
19530W        W91790  41.778  31.378  13.067
19531W        W91791  17.121  42.195   2.623
19532W        W91792  35.971   9.747  13.762
19533W        W91793  10.360  15.278  12.359
19534W        W91794   6.946   1.191   1.268
19535W        W91795   5.361  33.416  12.657
19536W        W91796  26.097  37.640  13.665
19537W        W91797  19.300   5.151   5.602
19538W        W91798  44.737   7.187   3.721
19539W        W91799  11.556  43.925   0.332
19540W        W91800  42.752  15.039   4.276
19541W        W91801  10.153  43.551  13.379
19542W        W91802   9.890  35.137   0.734
19543W        W91803  23.732  25.163   2.380
19544W        W91804  30.492  16.656   2.864
19545W        W91805  43.015  40.304  11.758
19546W        W91806  28.181  26.590   2.631
19547W        W91807  29.414  25.205  13.368
19548W        W91808   0.060   8.311   2.482
19549W        W91809  39.341  33.688   0.388
19550W        W91810  33.941  11.459   2.870
19551W        W91811  41.092  21.677  14.312
19552W        W91812  13.690  16.296  12.072
19553W        W91813  41.156  18.325  11.776
19554W        W91814  13.362  32.385  14.975
19555W        W91815  19.914  42.068   1.816
19556W        W91816  16.685   4.895  14.138
19557W        W91817  25.908  19.300   0.234
19558W        W91818  30.116   5.869   4.160
19559W        W91819   1.520   0.241   2.968
19560W        W91820   3.471  35.990   2.453
19561W        W91821  38.873  30.183   4.003
19562W        W91822  19.102  43.770  13.384
19563W        W91823  37.860   2.017   2.215
19564W        W91824  30.631   0.221   0.323
19565W        W91825  26.083  16.782  13.341
19566W        W91826  32.147  15.135   4.866
19567W        W91827  40.221  11.996  11.984
19568W        W91828  35.925  33.436  13.366
19569W        W91829  19.725   2.684  11.065
19570W        W91830   0.298   2.263  12.602
19571W        W91831  33.363  31.467  13.533
19572W        W91832   9.799  38.311   3.711
19573W        W91833  32.075   2.942  11.696
19574W        W91834  35.496  14.686  12.824
19575W        W91835  20.256  14.070   3.027
19576W        W91836  19.997  12.750   1.693
19577W        W91837  24.352  12.824  13.007
19578W        W91838   7.262  16.310  13.318
19579W        W91839   0.291   0.888   2.854
19580W        W91840  34.284  44.844   1.313
19581W        W91841   7.248  17.234   0.753
19582W        W91842  33.026  11.104  12.937
19583W        W91843  33.056   3.410  13.836
19584W        W91844  10.166  36.939  12.101
19585W        W91845  21.020   2.223  10.255
19586W        W91846  27.008   6.177   9.919
19587W        W91847  39.979  33.026   0.889
19588W        W91848  21.918  39.823  10.681
19589W        W91849   5.699  16.672   1.644
19590W        W91850  25.532  21.442   0.458
19591W        W91851  35.172   9.208   5.129
19592W        W91852  34.491  37.389  14.788
19593W        W91853  38.437  17.245   1.418
19594W        W91854  41.582  44.011  14.779
19595W        W91855  11.245   0.034   1.468
19596W        W91856  17.249  14.623   0.086
19597W        W91857  12.321   6.844  13.187
19598W        W91858  15.315  10.911   0.416
19599W        W91859  35.297  24.107  10.408
19600W        W91860  43.057   5.168  13.069
19601W        W91861  18.267  44.916  10.726
19602W        W91862  21.806  15.822   0.703
19603W        W91863  15.017  40.557  14.002
19604W        W91864  17.563   8.346  13.049
19605W        W91865  24.979  43.500   4.818
19606W        W91866  34.223  33.410   4.034
19607W        W91867  18.983   3.546  11.606
19608W        W91868  14.706  38.075  14.589
19609W        W91869   3.570  44.252  13.230
19610W        W91870  43.859  41.223   4.209
19611W        W91871   3.388  31.549   0.327
19612W        W91872  25.529  42.949  13.418
19613W        W91873   8.618  10.702   0.775
19614W        W91874  28.456  28.440   1.686
19615W        W91875  24.189  40.294  10.634
19616W        W91876  31.518   0.458   1.256
19617W        W91877  26.668  25.035  14.282
19618W        W91878  44.843  23.467  11.156
19619W        W91879  43.421  16.122   0.442
19620W        W91880  28.431  17.413  13.869
19621W        W91881  36.518   6.859   0.453
19622W        W91882   8.951  26.778   4.154
19623W        W91883  42.535  21.568  13.355
19624W        W91884  42.240  23.134   4.172
19625W        W91885  22.244  14.312  11.027
19626W        W91886  13.431  27.577   5.242
19627W        W91887  35.522  28.738   0.181
19628W        W91888  29.880  15.622   2.373
19629W        W91889  35.434   9.685  11.094
19630W        W91890  44.329  30.615  10.395
19631W        W91891  15.482  41.128  13.565
19632W        W91892  37.931  28.469   0.449
19633W        W91893   1.874  34.220  13.833
19634W        W91894  15.834  42.861  14.497
19635W        W91895   3.772  22.589   3.271
19636W        W91896  32.950   0.825  12.797
19637W        W91897   9.687  10.579   3.675
19638W        W91898   3.067  28.060   3.363
19639W        W91899  12.127  13.308  10.435
19640W        W91900   6.442  12.612  14.987
19641W        W91901  14.289  17.163  10.285
19642W        W91902   7.069   7.427   0.531
19643W        W91903  33.688  38.624   0.427
19644W        W91904  17.609  19.196   2.774
19645W        W91905  30.906  31.979   1.824
19646W        W91906  27.517  11.957  14.783
19647W        W91907   9.399   2.315  13.411
19648W        W91908  25.433  14.629   0.490
19649W        W91909   0.981  32.594   0.864
19650W        W91910  27.172  19.148   4.910
19651W        W91911  19.697  21.625   4.401
19652W        W91912  32.986  28.880   1.743
19653W        W91913  36.964  35.506   3.301
19654W        W91914  37.262  44.282  11.992
19655W        W91915  13.221  19.851  10.030
19656W        W91916  27.652  42.498  12.204
19657W        W91917  29.571  40.786   4.059
19658W        W91918   9.135   2.877   4.651
19659W        W91919  13.840  18.028   4.145
19660W        W91920  19.809  26.644  10.710
19661W        W91921   8.260  32.242   1.235
19662W        W91922  20.772  26.100   5.424
19663W        W91923  32.616  12.780  12.043
19664W        W91924  16.182  44.704  13.487
19665W        W91925  15.810  13.146   3.456
19666W        W91926  43.431  25.163  11.035
19667W        W91927  40.511  23.718   2.709
19668W        W91928   7.725   4.344   4.530
19669W        W91929   0.213   2.777   4.781
19670W        W91930  38.287  44.927   2.928
19671W        W91931  34.416  20.242  12.994
19672W        W91932  37.993  16.181  11.400
19673W        W91933  12.342  38.160   1.053
19674W        W91934  13.464  35.869  13.407
19675W        W91935  17.728  30.795  12.970
19676W        W91936  24.252  10.686   1.538
19677W        W91937  37.688   4.831   4.229
19678W        W91938  36.833  24.245  11.103
19679W        W91939  35.339  17.674  14.299
19680W        W91940  23.092  26.875  10.908
19681W        W91941   6.469  14.399  11.970
19682W        W91942  12.281  20.817  13.197
19683W        W91943  14.950  43.000   0.363
19684W        W91944  10.251  22.084  11.744
19685W        W91945   1.398   5.422  10.632
19686W        W91946   3.450  23.062   2.146
19687W        W91947   4.221  44.462  13.801
19688W        W91948   3.423  31.652  13.525
19689W        W91949  41.059  39.860  11.128
19690W        W91950   1.507  23.087   4.774
19691W        W91951  35.791  11.816  11.093
19692W        W91952   2.571  37.836   4.932
19693W        W91953  42.537   3.148  11.345
19694W        W91954  32.268  39.033   5.016
19695W        W91955   1.907  12.305  11.118
19696W        W91956  24.816  18.000   2.349
19697W        W91957  40.792  10.406  11.065
19698W        W91958  37.291   6.225   2.491
19699W        W91959  39.343   3.897  13.426
19700W        W91960  13.544  14.261   2.651
19701W        W91961  41.931   6.574  10.336
19702W        W91962  13.368   9.773   1.832
19703W        W91963  39.116  42.523   2.332
19704W        W91964  44.445  30.359  13.299
19705W        W91965   1.443  16.787   3.033
19706W        W91966  16.700   2.014  14.288
19707W        W91967  37.577   9.326  14.565
19708W        W91968  31.199   2.986  14.681
19709W        W91969   5.274  43.794  11.562
19710W        W91970  29.123  27.284   1.482
19711W        W91971  11.802   4.781  13.053
19712W        W91972  19.646  24.429  11.455
19713W        W91973  38.628  35.334  12.869
19714W        W91974  32.992  38.546  10.765
19715W        W91975  26.588  30.115   2.943
19716W        W91976   6.425  40.510  10.956
19717W        W91977  17.204  24.575  11.361
19718W        W91978  22.195   4.812   4.529
19719W        W91979  18.940  21.192   4.115
19720W        W91980  18.044  44.637  12.543
19721W        W91981   7.230  25.677   4.559
19722W        W91982  17.746  14.650   2.655
19723W        W91983  31.120  25.540   2.290
19724W        W91984  23.231  42.439  10.659
19725W        W91985  19.743  20.346  14.881
19726W        W91986  35.982  24.838   3.060
19727W        W91987  37.449  12.729  10.814
19728W        W91988  40.065  16.125   0.456
19729W        W91989  40.139  37.478  14.332
19730W        W91990  20.918  42.299  14.856
19731W        W91991  27.924   7.814   3.866
19732W        W91992  20.049  11.679   3.662
19733W        W91993  18.665  15.636  11.455
19734W        W91994   8.228  11.674  12.453
19735W        W91995  35.819  13.261   2.791
19736W        W91996  26.758  37.234  12.007
19737W        W91997   4.538  34.402  13.516
19738W        W91998  27.924  41.326   0.435
19739W        W91999  14.367  17.743  13.517
19740W        W92000  40.833  33.879   1.923
19741W        W92001  42.410  40.584   3.253
19742W        W92002  37.897  33.830   3.326
19743W        W92003  44.886   5.765  11.720
19744W        W92004  10.065   5.516   3.218
19745W        W92005   0.336   0.533   3.246
19746W        W92006  15.672  24.517   1.712
19747W        W92007   4.117  14.457  11.709
19748W        W92008   9.796  21.472  12.543
19749W        W92009  14.669  20.647   1.985
19750W        W92010   1.345  21.190   0.903
19751W        W92011  10.220  15.818  14.446
19752W        W92012  20.798  11.899  10.484
19753W        W92013  44.506  22.449   1.823
19754W        W92014   5.364  40.442   0.249
19755W        W92015  15.809  44.071   3.714
19756W        W92016  33.024  23.756  11.976
19757W        W92017  26.679  31.476   1.380
19758W        W92018   8.256  34.504  11.377
19759W        W92019   3.602  28.171  13.326
19760W        W92020  39.803  12.790  10.994
19761W        W92021  25.535  44.032  11.554
19762W        W92022  37.094  15.708   4.156
19763W        W92023  25.604  21.578  12.146
19764W        W92024  23.489  30.392   4.580
19765W        W92025  34.458  27.013  10.661
19766W        W92026  29.272  27.088   2.838
19767W        W92027   4.932  15.759  13.486
19768W        W92028  32.154  14.320   3.696
19769W        W92029  27.185  34.378  12.749
19770W        W92030  24.938  40.787   3.215
19771W        W92031   7.350  32.119  14.366
19772W        W92032  18.489  33.479  11.957
19773W        W92033  21.627  16.642  10.822
19774W        W92034  43.182  36.855   1.405
19775W        W92035  39.759  38.430  14.047
19776W        W92036  27.469  37.515   3.251
19777W        W92037  42.832  43.484   2.904
19778W        W92038  12.411   7.321   1.038
19779W        W92039  12.879  20.003  12.120
19780W        W92040  12.395  29.104   0.824
19781W        W92041  32.609  22.331  10.382
19782W        W92042   4.854  11.772   0.332
19783W        W92043   6.749  27.243   4.275
19784W        W92044  23.536   8.602   2.321
19785W        W92045  16.569   6.760  13.404
19786W        W92046  43.023  13.966  11.699
19787W        W92047  30.383  16.225  10.516
19788W        W92048  18.840  20.910   2.434
19789W        W92049  15.330  32.612   3.411
19790W        W92050  44.854   6.236  11.496
19791W        W92051  41.004   2.823  12.051
19792W        W92052  39.815  36.385  14.956
19793W        W92053  41.909  43.586   1.501
19794W        W92054  10.636  16.534  13.798
19795W        W92055   5.940  20.791   1.358
19796W        W92056   2.010  24.656   1.805
19797W        W92057   2.062   2.228  14.546
19798W        W92058   0.883   1.541   1.278
19799W        W92059  10.126  16.571   2.813
19800W        W92060  39.901  27.422  13.385
19801W        W92061   6.293  31.963  11.862
19802W        W92062  24.258   2.421  10.597
19803W        W92063   3.454  13.701  11.251
19804W        W92064  13.307  29.917   2.221
19805W        W92065  28.666  35.674   1.257
19806W        W92066  13.140  42.316  12.311
19807W        W92067  19.864  10.625   1.818
19808W        W92068  39.064  20.703  10.689
19809W        W92069  33.170   6.255   0.947
19810W        W92070   0.751  25.428  13.912
19811W        W92071  24.766   8.371  12.046
19812W        W92072   4.333  39.273  11.171
19813W        W92073  10.555  34.948  12.630
19814W        W92074  20.230  26.918   1.950
19815W        W92075  25.192  28.112   2.724
19816W        W92076  23.952  35.444   3.439
19817W        W92077  33.540  30.942   2.153
19818W        W92078  44.335  27.372  13.439
19819W        W92079   7.986  23.417  13.006
19820W        W92080  12.057  23.523  11.655
19821W        W92081   6.173   9.328   2.368
19822W        W92082  44.983   9.813  10.700
19823W        W92083  17.372  18.299   0.919
19824W        W92084  38.935  24.551   2.334
19825W        W92085  37.958  16.833  12.434
19826W        W92086   8.256  22.264  12.480
19827W        W92087   8.283  43.050   1.033
19828W        W92088  31.856  26.232   1.056
19829W        W92089  17.726  35.287  14.298
19830W        W92090  37.575   8.362  11.661
19831W        W92091   3.851   4.341   4.860
19832W        W92092  34.574  37.275  11.984
19833W        W92093  16.305  25.572   2.202
19834W        W92094  44.649  20.751   4.567
19835W        W92095  11.252   2.371  13.568
19836W        W92096   0.934  40.491  13.346
19837W        W92097  35.526  14.810  12.331
19838W        W92098  44.556  16.539   1.021
19839W        W92099  10.327  23.012  10.604
19840W        W92100   2.703  20.249   0.841
19841W        W92101  23.705  19.046   4.118
19842W        W92102   1.298  44.423  11.596
19843W        W92103   0.467  21.893  14.428
19844W        W92104   2.055  11.101  13.320
19845W        W92105  41.112  43.304  14.608
19846W        W92106  35.150  13.602   0.399
19847W        W92107  38.379   8.948   0.759
19848W        W92108  33.467  31.629   1.371
19849W        W92109  37.158   8.890  14.348
19850W        W92110  39.810   0.364   3.626
19851W        W92111  40.833  35.467  12.854
19852W        W92112  10.234  21.316   1.357
19853W        W92113  40.290   4.328  11.039
19854W        W92114  18.978  14.225   2.523
19855W        W92115  16.021  35.023  12.523
19856W        W92116  24.181   6.263   4.155
19857W        W92117  13.818  30.012  12.889
19858W        W92118   7.210  22.579   1.250
19859W        W92119  29.644  37.846  13.902
19860W        W92120  36.952   4.148  11.140
19861W        W92121  19.112  14.901   1.278
19862W        W92122  29.059  35.400  10.867
19863W        W92123  38.339  39.975   1.313
19864W        W92124   1.955  44.009  10.980
19865W        W92125  31.930   0.475   1.791
19866W        W92126   0.358   4.303   0.658
19867W        W92127  33.325   6.736  10.014
19868W        W92128  41.602  11.266   4.563
19869W        W92129  32.494  26.044  13.499
19870W        W92130   2.338  38.579   3.306
19871W        W92131  39.665  23.738   4.223
19872W        W92132   9.152  41.535   1.286
19873W        W92133   0.382   9.412   4.620
19874W        W92134   8.188  25.065  12.386
19875W        W92135  34.962  43.444   1.250
19876W        W92136   4.978  31.118   0.862
19877W        W92137  28.936  12.713  11.372
19878W        W92138   3.531   7.795  12.088
19879W        W92139  44.484   4.290   4.321
19880W        W92140   2.435  14.706  12.163
19881W        W92141  19.762   8.217  13.972
19882W        W92142   9.644   2.156   3.342
19883W        W92143  10.179  14.217   2.464
19884W        W92144  10.177  31.105   0.817
19885W        W92145   4.669  26.280   1.079
19886W        W92146  36.997  41.559   2.189
19887W        W92147  37.235  38.810   4.709
19888W        W92148  14.215  29.390   3.064
19889W        W92149  39.288  13.609  14.921
19890W        W92150  41.261  41.016   1.577
19891W        W92151  40.770   3.311  13.638
19892W        W92152   5.129  16.636  10.734
19893W        W92153   7.082  24.930   2.714
19894W        W92154  37.505  40.086   4.901
19895W        W92155   6.886  28.413   3.704
19896W        W92156   4.505  43.587  11.929
19897W        W92157  15.742  25.048   1.766
19898W        W92158  35.022  19.718   1.475
19899W        W92159  26.199  28.150   1.184
19900W        W92160   6.112  16.633  12.636
19901W        W92161  33.483  30.334  13.992
19902W        W92162  33.984  37.601  14.939
19903W        W92163   4.334  14.147   3.909
19904W        W92164  37.373  24.724   4.515
19905W        W92165  22.528  37.892   1.718
19906W        W92166  42.295  41.327   4.298
19907W        W92167  40.349  31.675  12.011
19908W        W92168  17.724  29.438  11.679
19909W        W92169  44.992  38.484   4.005
19910W        W92170  22.574  22.604  12.203
19911W        W92171  40.006   8.068   1.393
19912W        W92172  29.790  36.694   1.917
19913W        W92173  35.987  42.289  14.920
19914W        W92174  27.509  26.491  14.858
19915W        W92175  27.528  24.720   4.537
19916W        W92176   7.820  19.540  12.360
19917W        W92177  32.700   3.300  14.816
19918W        W92178  12.772  36.840  11.061
19919W        W92179  26.948  20.999   4.507
19920W        W92180  15.406  42.071  13.536
19921W        W92181  24.450  31.371  14.463
19922W        W92182  20.616  18.512  13.644
19923W        W92183  32.185  40.890   4.427
19924W        W92184  24.295   5.736   2.744
19925W        W92185   8.359  27.963  14.567
19926W        W92186   5.879  18.079  11.035
19927W        W92187  17.746  44.029   1.326
19928W        W92188  30.988  40.670  12.614
19929W        W92189  40.921  42.400  11.009
19930W        W92190  43.936  33.897   3.192
19931W        W92191  14.680  42.693   4.193
19932W        W92192  36.026   7.228   4.080
19933W        W92193   2.532   5.127   2.678
19934W        W92194  29.557  15.137  12.425
19935W        W92195   4.051  38.968  12.114
19936W        W92196  24.863  25.439   2.840
19937W        W92197  29.637  19.273   0.015
19938W        W92198  15.326  29.601  11.569
19939W        W92199  31.782  14.154   1.681
19940W        W92200  13.287  37.934   1.633
19941W        W92201  19.374   4.713   3.569
19942W        W92202  37.655  26.899  11.045
19943W        W92203  15.292  19.626   0.743
19944W        W92204  10.399  15.650  13.979
19945W        W92205   3.387  25.393   1.940
19946W        W92206  33.370  10.382   3.229
19947W        W92207   3.470  20.302  13.325
19948W        W92208  12.424  32.478   0.404
19949W        W92209   5.699   8.306   2.277
19950W        W92210  38.479  16.378  11.183
19951W        W92211   7.949   9.167  11.743
19952W        W92212  43.000  10.578   0.218
19953W        W92213  21.133   4.268  13.723
19954W        W92214   1.290  16.064  13.314
19955W        W92215  17.075  38.463  11.481
19956W        W92216  16.840  27.372   2.396
19957W        W92217   9.421   4.237  12.374
19958W        W92218  15.153   5.447  13.424
19959W        W92219   0.035  24.544   1.140
19960W        W92220  19.243   9.802   2.333
19961W        W92221  34.543  18.482   2.435
19962W        W92222  19.206   5.805  11.868
19963W        W92223   1.804   3.882  10.761
19964W        W92224   7.577  37.468  11.057
19965W        W92225   9.902  10.853  11.520
19966W        W92226  24.982  26.532  10.628
19967W        W92227  37.001  27.764   1.211
19968W        W92228  44.563  24.523   1.342
19969W        W92229  30.531  30.058  14.325
19970W        W92230  24.805   9.543   1.855
19971W        W92231  31.123  12.644   2.562
19972W        W92232   6.758   1.799   2.417
19973W        W92233  42.860   8.304  11.587
19974W        W92234  21.607   1.309  13.932
19975W        W92235  29.218   3.770   0.847
19976W        W92236  27.585  43.599  13.956
19977W        W92237  23.528  15.125  11.909
19978W        W92238  37.470  36.522   0.494
19979W        W92239  35.967  22.924  14.347
19980W        W92240  21.955   6.180  13.415
19981W        W92241  18.922   5.067   9.815
19982W        W92242   0.819   7.408   4.525
19983W        W92243  19.004  33.039  11.191
19984W        W92244  42.737  31.072  10.964
19985W        W92245   4.857  33.992   1.649
19986W        W92246  35.164  22.161   2.946
19987W        W92247  38.339  19.074  13.157
19988W        W92248  10.075  23.031   4.144
19989W        W92249   3.336  21.578  14.493
19990W        W92250  43.769  21.070   3.666
19991W        W92251   4.423  27.467  11.340
19992W        W92252  40.679  31.636  12.837
19993W        W92253  11.202   4.005  13.914
19994W        W92254  30.151  28.161   3.206
19995W        W92255  44.762  15.821  10.699
19996W        W92256  12.670  15.503   1.707
19997W        W92257   9.856  36.064  13.897
19998W        W92258  40.974  19.552  11.049
19999W        W92259   3.346  43.217   2.222
20000W        W92260  19.289   5.697   3.660
20001W        W92261  42.163  16.823   2.700
20002W        W92262  19.966   2.223   1.128
20003W        W92263  11.195   5.337   1.030
20004W        W92264  37.334  25.544  14.767
20005W        W92265  41.488   3.766  12.658
20006W        W92266  26.042  17.198   0.316
20007W        W92267  13.765  32.515  14.651
20008W        W92268  24.204  12.311  13.015
20009W        W92269  22.697  28.655   3.733
20010W        W92270  38.318   1.245   2.655
20011W        W92271   6.774  42.870   3.636
20012W        W92272   6.764  41.745  12.141
20013W        W92273  29.025  40.600   1.485
20014W        W92274  19.099  43.294  11.255
20015W        W92275  39.898   9.856  11.129
20016W        W92276   4.222  31.402   0.195
20017W        W92277  16.326  14.310   0.362
20018W        W92278  35.401  31.952   0.536
20019W        W92279  23.590  43.844  11.153
20020W        W92280   6.876  33.482   2.482
20021W        W92281  25.096  23.260   0.164
20022W        W92282  13.710  38.399   2.758
20023W        W92283  35.831  41.388   4.147
20024W        W92284  11.193   9.730  11.719
20025W        W92285  36.513  36.964   3.916
20026W        W92286   5.466  11.857  13.742
20027W        W92287  33.896  26.588   3.032
20028W        W92288   7.024  16.128  14.796
20029W        W92289  24.651  12.343  12.701
20030W        W92290  32.613  16.577   0.173
20031W        W92291  37.437  25.396  13.437
20032W        W92292  43.348  21.771  13.013
20033W        W92293  18.869  24.256   0.441
20034W        W92294  25.000   3.329   1.536
20035W        W92295  27.568   0.735  13.021
20036W        W92296  20.283   6.087  13.837
20037W        W92297   8.396  20.662   4.648
20038W        W92298   0.415  12.534  14.388
20039W        W92299  22.580  43.045   1.696
20040W        W92300  19.325   2.851   4.065
20041W        W92301  11.250   8.735  10.639
20042W        W92302  33.323  12.148  12.071
20043W        W92303  24.694  19.093   4.300
20044W        W92304  14.133  11.141   1.837
20045W        W92305   0.218  39.945  11.469
20046W        W92306  15.245  37.316   1.466
20047W        W92307  22.146  10.423   0.036
20048W        W92308   2.763  21.997  11.741
20049W        W92309  31.960  33.563  13.850
20050W        W92310  23.192  13.339  10.484
20051W        W92311  41.452   4.360  13.873
20052W        W92312  20.678  19.834  11.940
20053W        W92313   3.363  16.126  13.069
20054W        W92314  16.072  24.427  13.881
20055W        W92315  21.555  17.092  14.390
20056W        W92316  33.253  28.578  11.156
20057W        W92317  40.570  19.094   4.590
20058W        W92318  42.355  16.552   2.293
20059W        W92319  17.809  18.657  11.222
20060W        W92320  27.436  37.239  13.269
20061W        W92321  21.890  15.704  12.300
20062W        W92322   5.234  15.319   0.909
20063W        W92323  32.554   3.512  13.942
20064W        W92324  32.975  32.182   4.190
20065W        W92325   2.941  23.866  13.964
20066W        W92326   9.109  38.347  14.354
20067W        W92327  19.230  31.587  13.918
20068W        W92328  30.458   8.376  11.109
20069W        W92329   2.726  30.948   4.135
20070W        W92330   0.861  37.460  11.187
20071W        W92331   6.850   0.057   4.135
20072W        W92332  18.632   1.218   1.334
20073W        W92333  17.328  38.118  14.180
20074W        W92334  35.076  21.214   1.282
20075W        W92335  15.211  37.533  12.099
20076W        W92336  13.856  43.321  12.825
20077W        W92337   3.548  30.955  11.132
20078W        W92338  44.520  40.487  10.827
20079W        W92339   0.721  18.229   3.162
20080W        W92340  43.377  10.593  10.451
20081W        W92341  23.770  29.288  10.701
20082W        W92342  36.993   3.276   3.859
20083W        W92343   7.289   2.206  10.742
20084W        W92344  24.642  28.342   1.920
20085W        W92345  34.055  27.287  14.840
20086W        W92346  17.331  17.675   4.383
20087W        W92347   3.688  43.924  10.863
20088W        W92348   2.972   7.116  13.368
20089W        W92349  20.587  44.908   4.433
20090W        W92350  17.851  15.394   2.273
20091W        W92351  20.286   7.573  12.482
20092W        W92352  44.300  29.866  12.415
20093W        W92353  18.552  33.451   4.539
20094W        W92354  43.797  10.588   4.718
20095W        W92355  20.868  35.589   1.902
20096W        W92356   7.671   6.954   2.191
20097W        W92357   9.637   2.972   4.578
20098W        W92358  22.669  44.676  11.052
20099W        W92359   7.837  39.282   2.241
20100W        W92360  10.163   9.711   4.636
20101W        W92361  27.224  13.178  14.533
20102W        W92362  25.642   3.196  12.810
20103W        W92363  39.086  23.869   2.958
20104W        W92364  42.031  21.493  12.069
20105W        W92365  41.876   9.640   1.380
20106W        W92366  10.100  41.307  11.999
20107W        W92367  13.176  43.914   2.181
20108W        W92368  11.282   3.459  14.903
20109W        W92369   4.702  19.423   4.660
20110W        W92370  31.591  30.097  11.860
20111W        W92371  15.296  21.782   3.606
20112W        W92372  20.909  33.608  12.353
20113W        W92373  44.709  22.102   2.685
20114W        W92374  20.497  17.246   4.225
20115W        W92375  43.441  31.638   1.838
20116W        W92376  43.692  31.293   2.273
20117W        W92377  30.721  26.437  14.853
20118W        W92378  35.110  38.449  11.527
20119W        W92379  16.590  44.006   4.553
20120W        W92380  15.162  43.058  14.566
20121W        W92381   7.811  33.889  11.198
20122W        W92382  12.623  12.181  11.202
20123W        W92383  38.765  42.805  14.014
20124W        W92384  15.086  15.049   0.027
20125W        W92385  36.864  41.315  13.361
20126W        W92386   3.811  11.593   3.371
20127W        W92387  35.034  24.182  11.255
20128W        W92388  23.492  25.631   5.734
20129W        W92389  26.476  31.542   4.189
20130W        W92390  17.180  19.037   2.248
20131W        W92391  34.399  28.840  11.622
20132W        W92392  17.285   0.129  11.277
20133W        W92393  36.514  11.834   1.242
20134W        W92394  16.747   7.295   2.251
20135W        W92395  26.587  26.906  11.069
20136W        W92396  35.371  30.427   1.886
20137W        W92397  24.085  43.047  12.414
20138W        W92398  29.470  43.659   2.837
20139W        W92399  43.895   7.416   0.332
20140W        W92400  42.739  27.521   0.302
20141W        W92401  19.817  34.967  14.889
20142W        W92402  37.258  11.580  13.024
20143W        W92403  37.833  18.989   4.701
20144W        W92404  36.926  29.040  14.420
20145W        W92405   7.213  24.710  13.147
20146W        W92406  26.855  23.084   2.815
20147W        W92407  43.739  10.275   0.192
20148W        W92408  44.795   3.032  13.855
20149W        W92409  24.294  36.521   4.110
20150W        W92410  31.285  18.707   0.016
20151W        W92411  35.321  40.338   0.019
20152W        W92412  41.346   1.030   0.808
20153W        W92413   8.858  44.786  11.253
20154W        W92414  33.266  30.203   2.683
20155W        W92415  43.873  21.985  11.157
20156W        W92416  35.011   7.399  13.905
20157W        W92417   9.813   1.328  11.536
20158W        W92418  15.069  19.653   4.132
20159W        W92419  29.571  15.551   4.385
20160W        W92420  43.873   2.241  11.529
20161W        W92421  17.156  41.028   1.088
20162W        W92422  31.345  33.441   3.683
20163W        W92423  33.323  32.678   2.363
20164W        W92424   2.888  23.635  10.656
20165W        W92425  44.483  36.184   2.375
20166W        W92426  41.375  28.953   0.419
20167W        W92427   1.218  29.576   3.719
20168W        W92428  16.073  35.800  13.547
20169W        W92429  42.674  35.842  14.435
20170W        W92430  38.028  13.623   2.249
20171W        W92431   4.157  28.579  12.020
20172W        W92432  37.588  17.654  13.379
20173W        W92433  34.125  27.478   4.540
20174W        W92434  29.010  31.867   1.759
20175W        W92435  21.238  10.907   1.895
20176W        W92436  15.582  27.095  12.418
20177W        W92437  27.532  14.124   5.189
20178W        W92438  10.333  25.328   3.148
20179W        W92439  27.999  30.611  10.648
20180W        W92440   0.466  29.073   0.244
20181W        W92441  14.529  17.866  12.692
20182W        W92442   7.934  21.585   3.859
20183W        W92443  27.452  41.618  11.015
20184W        W92444  17.711  23.199   1.659
20185W        W92445  14.803   8.122  13.110
20186W        W92446  21.518  34.997   0.361
20187W        W92447  27.542   2.272   2.481
20188W        W92448   9.915  34.937   2.204
20189W        W92449   9.170   0.447  11.229
20190W        W92450   0.854  35.603  11.619
20191W        W92451  44.773  34.232  12.456
20192W        W92452   0.073  19.242  13.984
20193W        W92453  43.952  24.530   2.884
20194W        W92454   6.856  21.730   0.010
20195W        W92455  18.657   9.172   5.452
20196W        W92456  38.631  14.630  10.376
20197W        W92457  14.029  31.964   3.178
20198W        W92458  15.133  41.525  14.977
20199W        W92459  42.909  18.312   2.207
20200W        W92460  15.250  32.578   0.957
20201W        W92461  13.374   9.049   4.135
20202W        W92462  38.558  20.536   1.839
20203W        W92463  13.706  22.118  14.264
20204W        W92464  41.112  34.066  14.879
20205W        W92465  31.944  17.860  11.113
20206W        W92466  25.289  28.416   2.301
20207W        W92467  40.822  35.510  13.780
20208W        W92468  27.417   3.132   5.031
20209W        W92469  22.173  37.058   2.711
20210W        W92470  27.647  16.737  11.678
20211W        W92471  36.568  34.740  10.532
20212W        W92472  32.357  34.015   4.430
20213W        W92473   2.260  34.647   3.680
20214W        W92474  28.652  27.111  12.972
20215W        W92475  36.649  26.358  12.673
20216W        W92476  11.810   3.205   4.401
20217W        W92477  32.170  21.201   3.309
20218W        W92478  23.603   4.956   1.785
20219W        W92479  40.898  18.127   2.431
20220W        W92480  22.401  20.979   0.382
20221W        W92481  11.615  32.009  13.405
20222W        W92482  11.361  27.111   4.602
20223W        W92483  41.919  22.467   4.189
20224W        W92484  26.659  14.525  12.053
20225W        W92485  40.970  27.272  11.098
20226W        W92486  37.182  42.742   3.262
20227W        W92487  25.066  28.651   1.899
20228W        W92488  21.257  42.835   1.434
20229W        W92489  30.907  20.634  11.543
20230W        W92490  21.644   4.947   2.218
20231W        W92491   6.966   6.755   1.651
20232W        W92492  35.130  38.587  12.850
20233W        W92493  37.124   8.763   0.325
20234W        W92494   4.263  12.347   0.900
20235W        W92495  37.855   8.746   4.042
20236W        W92496  29.140   5.729  11.517
20237W        W92497  40.924  44.538  11.654
20238W        W92498  24.528  17.028  12.380
20239W        W92499   6.148  35.527  11.231
20240W        W92500  17.053   8.122  12.897
20241W        W92501  30.115  36.987  10.772
20242W        W92502  19.292  16.482   0.330
20243W        W92503  42.913  10.819   0.658
20244W        W92504  31.337  37.745  12.469
20245W        W92505  16.704   6.832  14.927
20246W        W92506  21.351  28.446  13.398
20247W        W92507   1.759  36.125   3.586
20248W        W92508  11.495  24.288   4.903
20249W        W92509  34.475  18.873  13.049
20250W        W92510  17.492  31.701   5.109
20251W        W92511  33.900  11.851   0.878
20252W        W92512  14.692  33.581  13.521
20253W        W92513   7.476  27.909  10.184
20254W        W92514  27.727  10.799   2.218
20255W        W92515  40.611  33.086  11.878
20256W        W92516  41.830   8.010  14.530
20257W        W92517   9.367  42.529  11.055
20258W        W92518  35.996  15.576  13.749
20259W        W92519   9.318  37.741  11.601
20260W        W92520  33.668  15.625   1.785
20261W        W92521  39.474  13.198  12.506
20262W        W92522  22.508  27.486  10.469
20263W        W92523   7.614  23.160   0.071
20264W        W92524  41.981  26.255   3.271
20265W        W92525  43.461  31.885  14.240
20266W        W92526  14.715  17.358   0.880
20267W        W92527  14.279  41.065   3.160
20268W        W92528  21.030  25.566   0.051
20269W        W92529  35.409  43.980  13.775
20270W        W92530  22.663   0.248   4.577
20271W        W92531  40.903  25.191  12.186
20272W        W92532   9.689  20.778   1.708
20273W        W92533  16.223   2.251   3.264
20274W        W92534  20.840  31.589   2.350
20275W        W92535  28.347   9.329  14.473
20276W        W92536  13.458  24.826  13.449
20277W        W92537  15.279   5.223  11.134
20278W        W92538   5.479   5.206  14.806
20279W        W92539  23.399  35.344  11.215
20280W        W92540  43.471  19.075   1.447
20281W        W92541  29.667  35.530   4.645
20282W        W92542  29.102  23.070   4.415
20283W        W92543   5.841  29.012  13.768
20284W        W92544   1.870  25.478   3.739
20285W        W92545  43.753   0.408  13.034
20286W        W92546  22.168  40.354   2.564
20287W        W92547  11.176  20.272   3.305
20288W        W92548  37.890  23.527  13.812
20289W        W92549  42.887  41.708  10.706
20290W        W92550  21.702  44.469   4.062
20291W        W92551   7.144  26.104  13.365
20292W        W92552  35.988  10.599   4.350
20293W        W92553  33.793  26.952   4.509
20294W        W92554   1.904  13.704   4.228
20295W        W92555  17.815  42.252   2.950
20296W        W92556  21.951  37.439  11.035
20297W        W92557  20.705   9.758   4.114
20298W        W92558  42.856  37.892  11.761
20299W        W92559  13.721  32.256  12.851
20300W        W92560   9.110  15.252   3.847
20301W        W92561  24.746  22.963  13.370
20302W        W92562  19.750   4.295  14.428
20303W        W92563  11.386  14.312  11.604
20304W        W92564  17.184   9.357  11.185
20305W        W92565  19.569   2.837   4.629
20306W        W92566  19.019   4.724  14.480
20307W        W92567  40.897   9.650   1.638
20308W        W92568  42.504  35.260   1.831
20309W        W92569  18.781   9.197  10.264
20310W        W92570  18.272  26.590  10.668
20311W        W92571  26.061  17.938  12.635
20312W        W92572  18.845  16.291   1.594
20313W        W92573  27.127  39.388   1.857
20314W        W92574   1.308  27.487  11.469
20315W        W92575  28.482  14.403  14.942
20316W        W92576  14.139   2.866   1.907
20317W        W92577   4.326  26.422  12.556
20318W        W92578  28.586   0.371  11.650
20319W        W92579  38.992  26.645   3.669
20320W        W92580  27.326  26.375   2.807
20321W        W92581  37.621  22.752  14.396
20322W        W92582  34.420  28.949  13.045
20323W        W92583  41.809  42.304   4.521
20324W        W92584  29.645   9.319  13.572
20325W        W92585  19.386  10.252  12.556
20326W        W92586   2.580  44.688  11.082
20327W        W92587  38.775  27.283  11.520
20328W        W92588  23.497  31.718   4.075
20329W        W92589  13.673  19.867   1.847
20330W        W92590   5.052  32.364   1.452
20331W        W92591  40.792   7.317   0.178
20332W        W92592  31.969  37.800   4.550
20333W        W92593  20.790  39.016   3.797
20334W        W92594  33.201  24.540   0.380
20335W        W92595  40.494  17.853   2.568
20336W        W92596  18.267  43.970   1.199
20337W        W92597  19.115  43.606  10.517
20338W        W92598  21.266  17.110  13.914
20339W        W92599  43.467  22.170  14.397
20340W        W92600  10.212  13.308  12.864
20341W        W92601  44.715  20.093  13.967
20342W        W92602  25.083  36.095  12.126
20343W        W92603  26.089  26.703   2.361
20344W        W92604  10.759  21.283  10.997
20345W        W92605   6.417  35.487  14.969
20346W        W92606   1.886  20.498  14.472
20347W        W92607  22.441  12.271   0.287
20348W        W92608  23.147  39.697  10.257
20349W        W92609  11.602   6.099  11.123
20350W        W92610  11.265   5.949   2.326
20351W        W92611  39.507  14.799  13.515
20352W        W92612  20.363  35.584   1.955
20353W        W92613  16.029  36.929  13.323
20354W        W92614   8.778   2.945  11.454
20355W        W92615  43.398  25.304   3.778
20356W        W92616  16.339  29.626  11.665
20357W        W92617   3.091  10.639  11.826
20358W        W92618  37.335  18.767   4.614
20359W        W92619  16.157  38.968  12.007
20360W        W92620  28.528  15.382   1.683
20361W        W92621   8.519  17.278  13.194
20362W        W92622  26.880  26.780  14.328
20363W        W92623  36.607   8.913   0.277
20364W        W92624  19.467  22.073   2.250
20365W        W92625  14.418   1.809   3.249
20366W        W92626  23.291  27.991   4.130
20367W        W92627  39.645  28.121  14.554
20368W        W92628   5.912  26.919   0.849
20369W        W92629  39.210  13.246  13.014
20370W        W92630  23.737   0.883   3.407
20371W        W92631  31.135  20.893  11.139
20372W        W92632  37.428   3.251  11.649
20373W        W92633  33.187   3.879  12.574
20374W        W92634  36.092  35.640   2.784
20375W        W92635  36.447  37.628  13.851
20376W        W92636   6.871  26.474  13.027
20377W        W92637  10.817  18.153   3.683
20378W        W92638  36.588  13.583  14.823
20379W        W92639  37.005  16.970  10.876
20380W        W92640  39.009  20.209  10.611
20381W        W92641  41.492  16.831   3.390
20382W        W92642  25.603  23.259   0.379
20383W        W92643   3.989  24.994  12.193
20384W        W92644  17.541  11.154  12.490
20385W        W92645  35.480   2.806  12.111
20386W        W92646  37.476  15.919  10.539
20387W        W92647  23.712  39.553   1.249
20388W        W92648   7.880  17.508   1.198
20389W        W92649  31.594  40.724   1.842
20390W        W92650  35.973  24.913   0.813
20391W        W92651  34.110   5.187  14.975
20392W        W92652  34.588   4.880   4.493
20393W        W92653  23.950  19.839  13.110
20394W        W92654  35.392   4.460  13.796
20395W        W92655  14.825  18.796   3.191
20396W        W92656  23.889  10.359  10.659
20397W        W92657   7.639  22.540  11.161
20398W        W92658   9.905  12.398  13.316
20399W        W92659  25.683   3.884   2.659
20400W        W92660  36.092  13.165  14.302
20401W        W92661  42.352  10.283   0.949
20402W        W92662  11.583  30.895   0.340
20403W        W92663  43.954  39.367  12.435
20404W        W92664  38.155  31.409  11.058
20405W        W92665  13.230  18.869   2.394
20406W        W92666  35.048  14.203   2.197
20407W        W92667  41.990   0.311   0.930
20408W        W92668  16.873  16.949   0.934
20409W        W92669  37.566  15.362   2.885
20410W        W92670  34.470  27.453   3.149
20411W        W92671  29.056  23.680  11.097
20412W        W92672  21.519   6.636  12.453
20413W        W92673  13.021  23.177  11.170
20414W        W92674  12.154  15.828  11.950
20415W        W92675   5.842  21.666   4.052
20416W        W92676  14.548  31.881   2.363
20417W        W92677  10.460  30.005   0.745
20418W        W92678  37.574  21.486   2.382
20419W        W92679  24.572  29.922  13.038
20420W        W92680  40.856  33.115   3.790
20421W        W92681   6.126  35.631   1.594
20422W        W92682  19.260   3.374   0.852
20423W        W92683   2.837   8.349   0.516
20424W        W92684  23.080  22.735  12.357
20425W        W92685   8.386   1.182  11.236
20426W        W92686  29.239   8.274   4.656
20427W        W92687  27.370  19.669   0.352
20428W        W92688  13.702  33.875   1.410
20429W        W92689  20.679  19.022   0.948
20430W        W92690  15.238  27.460   2.304
20431W        W92691  18.995  12.307  14.322
20432W        W92692   1.813  39.056   1.364
20433W        W92693  23.230  21.259   1.370
20434W        W92694   9.811  33.590   1.825
20435W        W92695  30.464  37.610  14.804
20436W        W92696  27.018  41.458  12.420
20437W        W92697  17.598  12.659  10.611
20438W        W92698  13.845  23.564   4.789
20439W        W92699  37.570  15.229  11.046
20440W        W92700  31.511  25.274   4.785
20441W        W92701   5.160  16.987  13.119
20442W        W92702  25.033  38.341  11.450
20443W        W92703   7.664  34.995   5.008
20444W        W92704  40.657  27.042  13.897
20445W        W92705   2.691  31.003   3.099
20446W        W92706  12.132  13.789  14.692
20447W        W92707  35.637  25.025  13.898
20448W        W92708  10.210  41.379  14.393
20449W        W92709  34.603  17.513  14.330
20450W        W92710  36.055   2.607   4.093
20451W        W92711  22.527  29.164   1.011
20452W        W92712  23.594  19.032   5.147
20453W        W92713  37.818  39.005   0.486
20454W        W92714  39.069   5.895  14.042
20455W        W92715   8.311  16.577  11.522
20456W        W92716  21.809  27.038  11.856
20457W        W92717  35.540  23.535  12.121
20458W        W92718  23.603  20.709   0.049
20459W        W92719  17.258  32.552   3.137
20460W        W92720  19.663  20.480   1.038
20461W        W92721  43.592  14.820  10.741
20462W        W92722   5.866  35.314   2.782
20463W        W92723  40.968   7.741  13.747
20464W        W92724  24.586   7.965   0.044
20465W        W92725  31.820  39.118   4.248
20466W        W92726   0.903  35.457  13.589
20467W        W92727  11.160  42.719  12.478
20468W        W92728  36.498  39.560   0.943
20469W        W92729  36.508   1.423   4.086
20470W        W92730  12.224  24.227  13.722
20471W        W92731  35.029  43.802   3.876
20472W        W92732  41.873  18.717   4.791
20473W        W92733  21.024  38.415   1.885
20474W        W92734  16.837  19.483   1.025
20475W        W92735  18.778  35.603  11.003
20476W        W92736  21.014  12.356   4.579
20477W        W92737   1.916  16.520  14.371
20478W        W92738  26.989  15.545   0.468
20479W        W92739  42.460  37.029  12.114
20480W        W92740  36.342  23.675  13.973
20481W        W92741  38.142  29.600   0.390
20482W        W92742  26.688  36.410  13.432
20483W        W92743  44.813  17.679  10.699
20484W        W92744   4.820  23.750   3.505
20485W        W92745  38.466  34.356   2.831
20486W        W92746  12.805  10.874   3.378
20487W        W92747  42.141  40.087  13.398
20488W        W92748  34.074   0.273  13.370
20489W        W92749  16.901   8.422  11.159
20490W        W92750  15.387  33.515  13.966
20491W        W92751   4.361  33.031   1.443
20492W        W92752  34.993  44.343   4.170
20493W        W92753  35.776  18.355   1.043
20494W        W92754  23.200   3.319  12.324
20495W        W92755  27.393  28.187  10.541
20496W        W92756  21.152  28.454  12.415
20497W        W92757   1.925  31.042   4.623
20498W        W92758  33.744  33.642   4.147
20499W        W92759  15.245  13.570   2.368
20500W        W92760  13.332  21.677   1.864
20501W        W92761  33.696   3.332  11.930
20502W        W92762  30.107  27.414   2.763
20503W        W92763  36.480   8.744  10.309
20504W        W92764  34.034  31.943   0.348
20505W        W92765  36.410   2.987  13.756
20506W        W92766  27.695  31.495   1.674
20507W        W92767  13.748  24.037   4.625
20508W        W92768  44.234  33.752  14.570
20509W        W92769  27.788  19.023  14.595
20510W        W92770  14.777   3.905  14.802
20511W        W92771  21.251  20.147   3.113
20512W        W92772  24.638   4.075  13.121
20513W        W92773   1.424  28.062   0.008
20514W        W92774  34.323  42.869   1.262
20515W        W92775  11.405  25.921   1.431
20516W        W92776  35.568  30.063   3.636
20517W        W92777  33.543  24.802   0.761
20518W        W92778  34.005  41.536   0.504
20519W        W92779  41.895  11.141  10.606
20520W        W92780  26.249  27.966  12.849
20521W        W92781  21.324  42.872  10.262
20522W        W92782  36.513   8.142  11.554
20523W        W92783  36.165  41.242   3.693
20524W        W92784  35.148  16.572  12.534
20525W        W92785  16.719  33.337  13.967
20526W        W92786  32.213  44.298  14.402
20527W        W92787  23.755  22.984   2.231
20528W        W92788  32.429  19.064  12.194
20529W        W92789  16.304  44.338  13.848
20530W        W92790  42.210  29.024  12.963
20531W        W92791  26.944  20.508  11.518
20532W        W92792  41.111   5.845  12.020
20533W        W92793  36.178  29.671  12.167
20534W        W92794  43.926  26.402   1.944
20535W        W92795  43.473  15.335  12.032
20536W        W92796  41.872  37.360  13.995
20537W        W92797  11.059  23.803  12.561
20538W        W92798  44.870  44.931   1.416
20539W        W92799  34.109  19.734  14.988
20540W        W92800  15.189   2.699   3.450
20541W        W92801  38.524  40.330  13.805
20542W        W92802   3.472   6.720   3.851
20543W        W92803  21.510  40.008   3.377
20544W        W92804  27.060  36.560   3.182
20545W        W92805  42.232  33.376  11.176
20546W        W92806  36.675   5.968   3.181
20547W        W92807   5.294  25.509  11.969
20548W        W92808  33.865  30.225  13.034
20549W        W92809  11.519  19.751  11.126
20550W        W92810   7.741  42.097  13.846
20551W        W92811   7.326   1.779  14.155
20552W        W92812   2.223  22.727   0.864
20553W        W92813  30.227  42.160  11.087
20554W        W92814  23.576  19.331   1.260
20555W        W92815  37.401  20.646   0.384
20556W        W92816  22.126  14.218   0.574
20557W        W92817  31.983  26.561   1.794
20558W        W92818  38.921  43.258   2.957
20559W        W92819  34.898  40.126  11.058
20560W        W92820   0.993   9.817   1.352
20561W        W92821  40.458  24.242   5.081
20562W        W92822  21.322  34.071   4.399
20563W        W92823  32.917  14.699  10.791
20564W        W92824  36.841   8.430  12.567
20565W        W92825  36.429  12.634   3.557
20566W        W92826  25.879  37.956  11.024
20567W        W92827  12.885  23.231  14.999
20568W        W92828  44.226  31.802   4.998
20569W        W92829  23.555  10.703  11.949
20570W        W92830   6.899  32.929   0.201
20571W        W92831  41.372  18.033   4.705
20572W        W92832   4.440  32.277   3.716
20573W        W92833   3.438  30.739   2.023
20574W        W92834   0.337  40.029   0.415
20575W        W92835  15.079  17.922   3.870
20576W        W92836  33.515   2.741  12.891
20577W        W92837  14.820  33.464  14.970
20578W        W92838  10.369   9.930   0.453
20579W        W92839  21.754   8.936  13.849
20580W        W92840   5.036  39.455  13.479
20581W        W92841  20.331  33.042  13.565
20582W        W92842  10.392  13.761   2.232
20583W        W92843   6.810  39.255   4.093
20584W        W92844  17.828  41.296   2.843
20585W        W92845   4.879  24.925  12.938
20586W        W92846  28.237  19.222  10.599
20587W        W92847  43.107  16.132   3.421
20588W        W92848  20.138   3.885   4.731
20589W        W92849  12.415  36.766  10.684
20590W        W92850  22.136  42.756   1.642
20591W        W92851   6.165   2.782  10.662
20592W        W92852  27.519  38.402   2.690
20593W        W92853  33.292  20.444   9.475
20594W        W92854  28.476   6.490  14.833
20595W        W92855  21.721   8.811   2.989
20596W        W92856  27.395  38.877  10.485
20597W        W92857  21.588  25.241  14.386
20598W        W92858   1.333  13.285   4.361
20599W        W92859  17.837  14.105   0.554
20600W        W92860  30.607  33.216   1.448
20601W        W92861   1.885   3.170  13.940
20602W        W92862  43.683  20.654  13.544
20603W        W92863  31.617  21.969  11.794
20604W        W92864  41.857   4.701   4.241
20605W        W92865  36.270  26.910  11.076
20606W        W92866  26.168  21.163  12.836
20607W        W92867  24.743  10.642  14.242
20608W        W92868  34.402  28.778   3.896
20609W        W92869  23.047  17.667   4.600
20610W        W92870  19.510  11.137  10.732
20611W        W92871  13.233  39.048  14.693
20612W        W92872  38.586  21.535  14.415
20613W        W92873   6.416   4.177   3.339
20614W        W92874  41.369  21.009   2.802
20615W        W92875  26.201  16.785   4.091
20616W        W92876  34.847  23.609  14.310
20617W        W92877  27.078  31.364  12.901
20618W        W92878  14.125  28.637   4.099
20619W        W92879  13.164  29.969   1.294
20620W        W92880   1.714  11.280   0.905
20621W        W92881  42.462  13.127  12.392
20622W        W92882   8.163   9.896   1.801
20623W        W92883  19.960  14.630  13.505
20624W        W92884  16.342  12.183  14.922
20625W        W92885  17.603   4.420   3.243
20626W        W92886  41.867  37.547   1.794
20627W        W92887  30.362  44.190  12.550
20628W        W92888  11.296  13.693   0.215
20629W        W92889  32.207  11.115   4.632
20630W        W92890  27.608  20.310   2.366
20631W        W92891  31.517  17.252   3.157
20632W        W92892   9.777  35.879  13.382
20633W        W92893  26.955  33.183   0.803
20634W        W92894  16.823  25.183   2.766
20635W        W92895  15.639   5.209   0.363
20636W        W92896  29.877  26.310  12.867
20637W        W92897  28.967   1.894   4.699
20638W        W92898  25.027  22.346   2.362
20639W        W92899  23.670  33.304  13.866
20640W        W92900  15.338   6.972   4.283
20641W        W92901  31.423  32.913   4.729
20642W        W92902   9.099  19.995   4.773
20643W        W92903   0.747  18.204  13.079
20644W        W92904  23.665  35.179  12.451
20645W        W92905  35.886   8.228  14.507
20646W        W92906   6.665  19.759   2.793
20647W        W92907  11.280  35.658   3.760
20648W        W92908  17.806  31.466   3.727
20649W        W92909  18.160  25.588  14.953
20650W        W92910  35.328  17.160   1.689
20651W        W92911  42.858  31.315   4.049
20652W        W92912  11.821   9.707  13.266
20653W        W92913  23.184   7.806   4.758
20654W        W92914  31.206  32.513  10.675
20655W        W92915  28.025  38.803  12.549
20656W        W92916  38.412  21.206  12.241
20657W        W92917  13.723  29.136   2.375
20658W        W92918   5.594  41.518  10.712
20659W        W92919   6.658  21.227  14.835
20660W        W92920  22.760  10.099  10.060
20661W        W92921   3.582  32.148  14.403
20662W        W92922  30.348  26.605   2.281
20663W        W92923  30.977  26.999   4.605
20664W        W92924  27.464  16.745  14.313
20665W        W92925  25.333  25.549   3.243
20666W        W92926  15.068  27.867  10.251
20667W        W92927  42.506  43.920  12.112
20668W        W92928  10.567   4.778   0.845
20669W        W92929  30.141  38.127   1.036
20670W        W92930  17.680   6.864   1.344
20671W        W92931  37.528  17.741   3.048
20672W        W92932  37.319  16.337  13.008
20673W        W92933  30.436  24.468  14.763
20674W        W92934  26.537  15.126  10.407
20675W        W92935  14.103  37.893  12.398
20676W        W92936  24.553  36.311  13.949
20677W        W92937  24.673   3.289   1.959
20678W        W92938  10.372  35.587   3.732
20679W        W92939   9.022   2.839  14.831
20680W        W92940   1.765  19.340   0.710
20681W        W92941  24.556  40.936  13.136
20682W        W92942  40.306  18.795   3.752
20683W        W92943  11.843  22.064   1.951
20684W        W92944  18.900  34.880  10.883
20685W        W92945  11.323  29.382  14.289
20686W        W92946  17.128  34.220  13.006
20687W        W92947  27.888  33.567  13.405
20688W        W92948  31.990  34.374  13.000
20689W        W92949  14.351  42.556   0.994
20690W        W92950  31.002  30.022  11.128
20691W        W92951  19.122   3.746   3.139
20692W        W92952  15.905  14.305   3.779
20693W        W92953   5.339  12.863  11.929
20694W        W92954  22.993  30.748  11.121
20695W        W92955   3.231  35.341   0.917
20696W        W92956   0.937  18.182   0.317
20697W        W92957  11.168   4.637  10.494
20698W        W92958   3.927  10.672   4.754
20699W        W92959   9.723   9.992  10.534
20700W        W92960   1.996  22.315   2.733
20701W        W92961  22.332  44.856  11.899
20702W        W92962   8.897   3.675   4.062
20703W        W92963   4.115  26.220   1.026
20704W        W92964   1.925  28.021   0.159
20705W        W92965  34.392  16.119   3.706
20706W        W92966  17.433  13.045   4.951
20707W        W92967   2.302   4.573  10.720
20708W        W92968  22.561  29.897  12.823
20709W        W92969  37.826  18.091   0.756
20710W        W92970  42.557  35.938  11.094
20711W        W92971  19.761  26.618   0.209
20712W        W92972  16.141  27.483   3.333
20713W        W92973   5.386  25.565  14.071
20714W        W92974   1.683  37.423   0.820
20715W        W92975   9.142   6.253  12.501
20716W        W92976  33.791  24.580   3.628
20717W        W92977  18.238  39.526  14.890
20718W        W92978   5.706   5.246  10.994
20719W        W92979   7.040   7.543  10.808
20720W        W92980   4.924  29.086   2.582
20721W        W92981  43.179  22.646   4.710
20722W        W92982   9.179  11.232   1.174
20723W        W92983  23.126  35.443   3.373
20724W        W92984  30.365  42.108  13.846
20725W        W92985  35.804  31.904  12.554
20726W        W92986  39.109  11.110   4.425
20727W        W92987   0.354  28.685   3.725
20728W        W92988  36.328   9.686   1.320
20729W        W92989  43.033  23.824   1.894
20730W        W92990   4.654  36.862  11.626
20731W        W92991  11.133  24.968   2.725
20732W        W92992  30.541  28.549  14.094
20733W        W92993  10.192  22.028   4.279
20734W        W92994  28.381  28.028   0.377
20735W        W92995  31.258   8.682  14.378
20736W        W92996  14.246  42.458   0.498
20737W        W92997  23.172  41.536   3.587
20738W        W92998   3.840  27.947  10.340
20739W        W92999  24.551  17.432   2.007
20740W        W93000  34.982  37.530   2.266
20741W        W93001  29.997  10.094  13.930
20742W        W93002  44.860   9.147  13.803
20743W        W93003   2.917  26.423  12.562
20744W        W93004  19.652   0.708  12.037
20745W        W93005  14.730  26.596   2.854
20746W        W93006  30.040  28.218  10.594
20747W        W93007  31.902  30.244   2.911
20748W        W93008  18.552   5.396   3.141
20749W        W93009  39.591  19.318   3.312
20750W        W93010  40.853   3.823  11.904
20751W        W93011  35.010  21.653  14.270
20752W        W93012   5.417   6.017   2.870
20753W        W93013  26.054  39.190  13.941
20754W        W93014  41.338  30.593  12.753
20755W        W93015  37.565  22.268  13.049
20756W        W93016   5.709   8.761  10.166
20757W        W93017  43.480  21.144  11.600
20758W        W93018  30.492  33.453  13.591
20759W        W93019  19.281  11.107  12.894
20760W        W93020  14.084   2.906  13.413
20761W        W93021  16.029  35.054  14.656
20762W        W93022  42.480  35.619   2.640
20763W        W93023  21.111   6.747  10.983
20764W        W93024  36.398  20.106  13.123
20765W        W93025  25.422  35.009  14.392
20766W        W93026  10.879  44.735   1.718
20767W        W93027  28.992   8.826  10.412
20768W        W93028  37.662  35.612  11.980
20769W        W93029   2.481  36.469   1.553
20770W        W93030  19.710  19.085   3.401
20771W        W93031  42.906  29.404  12.454
20772W        W93032  41.290  13.704   0.519
20773W        W93033  44.400  23.708  14.037
20774W        W93034   7.852  43.580   2.343
20775W        W93035   4.246  15.376   0.895
20776W        W93036  31.227  33.395  10.682
20777W        W93037  34.123   5.356  11.073
20778W        W93038  25.745  39.025  13.515
20779W        W93039   9.906  21.204  11.548
20780W        W93040   5.249  16.345   0.465
20781W        W93041  26.861  27.141   0.373
20782W        W93042  25.822  39.677  13.971
20783W        W93043  15.181   7.254   2.417
20784W        W93044  18.572  37.562   3.665
20785W        W93045  27.428  33.608  10.597
20786W        W93046  15.435  36.416   3.016
20787W        W93047  34.349  23.751  11.652
20788W        W93048   0.728  23.497   4.607
20789W        W93049   8.749  10.323  11.742
20790W        W93050  21.034  16.328  12.473
20791W        W93051  26.461  37.652  11.988
20792W        W93052  41.029  15.164   4.822
20793W        W93053  12.282  43.904  14.458
20794W        W93054  31.760  14.095   0.229
20795W        W93055   6.012  24.301   3.282
20796W        W93056  26.308  26.748   3.556
20797W        W93057   0.981  27.092  11.498
20798W        W93058  19.739  33.944  12.195
20799W        W93059  22.319  16.451   0.107
20800W        W93060  10.229   0.942   1.706
20801W        W93061  36.411   0.851   4.810
20802W        W93062  20.083  41.870  12.060
20803W        W93063  26.851  29.710  11.659
20804W        W93064  19.823  27.743  14.822
20805W        W93065  32.731  17.177   0.734
20806W        W93066  28.998  34.213   2.415
20807W        W93067  10.197  35.659  12.417
20808W        W93068  29.544  25.721  12.429
20809W        W93069   7.750   2.323  14.955
20810W        W93070  35.481  13.689   1.922
20811W        W93071  36.149  17.251   3.395
20812W        W93072  19.274  16.246   2.947
20813W        W93073  37.801  15.251   2.394
20814W        W93074  33.324   1.554  12.457
20815W        W93075  33.027  15.673  10.561
20816W        W93076   3.694  37.001  13.039
20817W        W93077  23.677  25.964  11.433
20818W        W93078  33.030  33.798   0.744
20819W        W93079  32.403  39.793   3.258
20820W        W93080  43.067  32.490   3.587
20821W        W93081   6.383  44.113   0.654
20822W        W93082  26.624  36.354   4.455
20823W        W93083  30.175  43.780   0.942
20824W        W93084  32.658  19.644   5.324
20825W        W93085  10.177  34.870  10.673
20826W        W93086  10.868   7.711  14.386
20827W        W93087  22.626  32.527  13.938
20828W        W93088  16.719  42.537  13.316
20829W        W93089  41.737  36.251   0.525
20830W        W93090   6.974   3.257   2.336
20831W        W93091  19.255  40.977   0.862
20832W        W93092  37.737  14.684   0.450
20833W        W93093  28.362   0.898  12.452
20834W        W93094  40.759  17.825  11.655
20835W        W93095   1.988  43.220   2.780
20836W        W93096  39.254  36.161  11.234
20837W        W93097  41.976  41.563   3.561
20838W        W93098   0.747  43.314  12.042
20839W        W93099  18.830  20.171  14.388
20840W        W93100  17.530   2.319   1.658
20841W        W93101  26.603  24.699  11.571
20842W        W93102  27.743  17.082   1.410
20843W        W93103  13.526  12.372  12.471
20844W        W93104  22.403  39.100  10.240
20845W        W93105  10.961  20.173   2.873
20846W        W93106  20.482  26.835   3.135
20847W        W93107   1.175  39.941  11.642
20848W        W93108   1.124  40.943  10.726
20849W        W93109   8.831  12.124   0.417
20850W        W93110  21.005  10.185   0.993
20851W        W93111  26.596  25.734  11.535
20852W        W93112  26.600  43.981   2.313
20853W        W93113  34.955  33.840   3.106
20854W        W93114  21.318   1.720   2.926
20855W        W93115  40.157  30.153   3.287
20856W        W93116  24.243  12.243   1.216
20857W        W93117  25.242  24.426  14.373
20858W        W93118  32.193  23.428   0.887
20859W        W93119  26.330  39.588  14.128
20860W        W93120  36.183  43.821  13.011
20861W        W93121  24.086  39.330   0.248
20862W        W93122   5.476   2.349   3.692
20863W        W93123   0.665  18.490  14.260
20864W        W93124   7.332   4.953  13.994
20865W        W93125   9.724  41.113   2.412
20866W        W93126  36.353   5.927  11.606
20867W        W93127   9.318  12.318   0.334
20868W        W93128  41.798   2.887  10.689
20869W        W93129  24.181  10.173   2.369
20870W        W93130  28.751  13.011  11.004
20871W        W93131  39.719  43.282  10.589
20872W        W93132  39.364   9.420   5.091
20873W        W93133  16.552   6.335   1.301
20874W        W93134   7.085  22.746  13.499
20875W        W93135   2.144  10.277   4.580
20876W        W93136  13.282  27.462  14.552
20877W        W93137  22.846  39.385   4.350
20878W        W93138   0.338  44.450   2.091
20879W        W93139  20.792  38.274  12.083
20880W        W93140  10.528  43.398  12.964
20881W        W93141  39.880   2.371  11.952
20882W        W93142   1.799  12.607  14.404
20883W        W93143  44.125  11.113  12.617
20884W        W93144  12.262  37.134   1.272
20885W        W93145  28.657   8.431  10.330
20886W        W93146   8.883  39.837   3.224
20887W        W93147  35.415  17.714   0.379
20888W        W93148  11.641  42.016   3.813
20889W        W93149  36.158  25.731   5.017
20890W        W93150  26.640  17.656   0.817
20891W        W93151  35.063   1.178  14.114
20892W        W93152   4.317  28.318   3.594
20893W        W93153   2.245   0.690  13.028
20894W        W93154  20.934  41.291   1.452
20895W        W93155  35.402   4.209   3.209
20896W        W93156  39.569  25.314  14.191
20897W        W93157  17.588  40.365   3.848
20898W        W93158  28.393  12.145  13.344
20899W        W93159   3.768   5.738   3.182
20900W        W93160  26.006  28.034   4.588
20901W        W93161  22.480  38.670  12.729
20902W        W93162   7.909  17.579   2.183
20903W        W93163   7.880   8.262   1.904
20904W        W93164  13.370   1.443   4.720
20905W        W93165  21.225   4.234  14.244
20906W        W93166  13.749  25.506   1.504
20907W        W93167  22.209  21.569  11.437
20908W        W93168  23.612  31.663   1.049
20909W        W93169  43.235  36.434   0.693
20910W        W93170  22.726  18.104  12.914
20911W        W93171  31.527  12.073   1.818
20912W        W93172  26.921  32.776  13.950
20913W        W93173   2.974  26.287  10.685
20914W        W93174  20.081  11.099   1.734
20915W        W93175  37.563  24.726   0.426
20916W        W93176  27.735  43.377  11.622
20917W        W93177  20.167  20.748  14.766
20918W        W93178  40.011  25.476  11.595
20919W        W93179   7.733  36.997   1.366
20920W        W93180  33.130  31.061  14.064
20921W        W93181  27.145   6.337  12.893
20922W        W93182  41.734  42.316  13.071
20923W        W93183   1.358  38.992  10.582
20924W        W93184  30.506  33.838   3.450
20925W        W93185  36.539  30.419   3.338
20926W        W93186  39.496  18.650   0.766
20927W        W93187   2.652  11.186   3.583
20928W        W93188   6.209  42.392  11.953
20929W        W93189  34.530   1.968   2.862
20930W        W93190  11.221  33.716   3.768
20931W        W93191  22.576  11.083  13.560
20932W        W93192  16.118  19.806  11.961
20933W        W93193  32.100  12.398   3.418
20934W        W93194  36.977   9.633  10.225
20935W        W93195  30.670   2.364   0.326
20936W        W93196  23.538   8.481  10.620
20937W        W93197  13.124  18.223   4.746
20938W        W93198  30.586  16.998   5.139
20939W        W93199  31.927  12.731  14.395
20940W        W93200  36.127  21.444  12.950
20941W        W93201  24.837  22.645   3.856
20942W        W93202  23.677  40.463   4.877
20943W        W93203  19.199  42.375   2.705
20944W        W93204  16.201   4.719   3.244
20945W        W93205  43.802   1.341  13.129
20946W        W93206   8.097  38.551   0.968
20947W        W93207  19.481  14.333   2.438
20948W        W93208  43.850  11.569  14.303
20949W        W93209  42.025  20.289  11.191
20950W        W93210   8.859  43.302   2.308
20951W        W93211  28.583   4.399  12.313
20952W        W93212  17.096  12.701   1.235
20953W        W93213   5.265  43.495   1.358
20954W        W93214   1.987  35.754   2.371
20955W        W93215  15.826  12.407   3.454
20956W        W93216  28.134  38.087  10.741
20957W        W93217   0.352   4.949  12.110
20958W        W93218  30.469  10.232   1.795
20959W        W93219   1.435  31.828  14.843
20960W        W93220  22.399  14.626  14.761
20961W        W93221  27.538  12.923  11.937
20962W        W93222  38.448  19.487   1.192
20963W        W93223  19.804   7.305  14.864
20964W        W93224  32.845   9.356  12.117
20965W        W93225  27.447   8.311  13.325
20966W        W93226   4.620   8.629   0.768
20967W        W93227  24.550  37.151  11.604
20968W        W93228  23.991  21.480  11.075
20969W        W93229  13.553  30.475   9.928
20970W        W93230  27.080  21.510   0.359
20971W        W93231  34.975  42.269   0.957
20972W        W93232  42.040  24.104   2.669
20973W        W93233  23.924  13.485   4.739
20974W        W93234  27.027  14.842  11.729
20975W        W93235   8.779  35.356  13.636
20976W        W93236  15.429  22.982  11.153
20977W        W93237   6.949  28.721   0.170
20978W        W93238   2.610   2.050  11.309
20979W        W93239  21.745  44.774   0.515
20980W        W93240  44.461  36.959   0.493
20981W        W93241  41.354   6.639   4.149
20982W        W93242   0.762   5.761   3.585
20983W        W93243  16.697   0.595   3.637
20984W        W93244  24.146  24.682   1.924
20985W        W93245  20.406  37.978   2.308
20986W        W93246   2.353  44.550   3.338
20987W        W93247  34.847   6.077  10.654
20988W        W93248   6.953  25.219   4.606
20989W        W93249  24.156  35.020   3.197
20990W        W93250  33.252  37.668  14.497
20991W        W93251  11.601  11.582  10.480
20992W        W93252  21.526  40.890  12.397
20993W        W93253  28.188  39.967   0.393
20994W        W93254  31.707   7.931  13.404
20995W        W93255  39.963   9.099  11.627
20996W        W93256  12.180  20.225   0.296
20997W        W93257  20.023  15.138   3.620
20998W        W93258  17.858  14.710  11.509
20999W        W93259  43.150  20.031   3.190
21000W        W93260   1.272  12.853   0.369
21001W        W93261  24.804  16.656  11.094
21002W        W93262  37.012   9.634  11.992
21003W        W93263  20.111  26.101   4.141
21004W        W93264  15.013  22.452   0.251
21005W        W93265  43.058  27.046   0.821
21006W        W93266  31.961  18.810  12.075
21007W        W93267  23.601  20.195  11.253
21008W        W93268  17.091   5.362  10.618
21009W        W93269  10.296   6.945  12.317
21010W        W93270  15.090  22.290   1.895
21011W        W93271  41.712  39.091  13.878
21012W        W93272  37.996  31.103   4.597
21013W        W93273  32.299  33.197   2.935
21014W        W93274  22.195   3.008   2.812
21015W        W93275  21.521  39.535   0.451
21016W        W93276   0.766  28.883  14.821
21017W        W93277   3.127  18.640   0.800
21018W        W93278   5.799  43.057  11.546
21019W        W93279  14.154  39.315  10.516
21020W        W93280  32.054   5.432   4.543
21021W        W93281  26.342  11.650   2.649
21022W        W93282   8.688  17.735  12.981
21023W        W93283  25.454  19.040   2.775
21024W        W93284  33.469  10.372  14.492
21025W        W93285  44.307  30.196   1.381
21026W        W93286  25.609   0.938   4.222
21027W        W93287  24.007  15.062  12.146
21028W        W93288  21.160   4.209   1.187
21029W        W93289   1.378  16.542  13.132
21030W        W93290  22.637   4.423   2.931
21031W        W93291  24.578  18.622   4.125
21032W        W93292  37.931  14.705  10.742
21033W        W93293   6.401  32.299   0.409
21034W        W93294  24.913  27.370   0.854
21035W        W93295  41.577  25.448  12.946
21036W        W93296  40.443  33.689  11.646
21037W        W93297  14.404  27.982  12.377
21038W        W93298   0.374   6.380   1.653
21039W        W93299   8.256  29.015   2.343
21040W        W93300  18.857   0.890  13.867
21041W        W93301  40.552   9.585   4.645
21042W        W93302  10.162  21.479  14.900
21043W        W93303  18.331  18.666  11.026
21044W        W93304  16.862   4.514  13.599
21045W        W93305  37.717  21.760  11.321
21046W        W93306   0.458  17.985  14.003
21047W        W93307   6.200  25.505  10.618
21048W        W93308  34.326  32.475  13.977
21049W        W93309  30.965  15.149  14.060
21050W        W93310  34.718  28.625  13.933
21051W        W93311   3.384   2.497   2.403
21052W        W93312  20.278   6.378   5.551
21053W        W93313  23.097   5.910   0.929
21054W        W93314  44.515  42.960  12.889
21055W        W93315  42.930  22.056   2.223
21056W        W93316  34.685  21.064   0.966
21057W        W93317  28.041  12.595  11.282
21058W        W93318  11.479  21.081   4.962
21059W        W93319  39.512  35.564   4.635
21060W        W93320  36.277   0.037  11.353
21061W        W93321  14.688   4.227   1.420
21062W        W93322  18.754  41.415  12.119
21063W        W93323  43.317  34.678  14.848
21064W        W93324   9.784  19.731  12.037
21065W        W93325  13.606   8.458  12.658
21066W        W93326   4.370   0.010   0.869
21067W        W93327   6.945  44.048   3.246
21068W        W93328   8.684  16.958   4.495
21069W        W93329   0.456  11.564  13.118
21070W        W93330   5.700  34.896  10.480
21071W        W93331  28.301  40.908   4.988
21072W        W93332  17.399  44.721  10.382
21073W        W93333   5.348  33.050   1.834
21074W        W93334  28.430   2.872   4.820
21075W        W93335  16.730  34.425   4.094
21076W        W93336  10.838  42.465  12.072
21077W        W93337   5.979   4.336   3.108
21078W        W93338   5.762  40.940  10.757
21079W        W93339  19.521   2.919   2.841
21080W        W93340  30.469  40.634  12.501
21081W        W93341  39.888  28.642   4.114
21082W        W93342  44.691  12.717   2.264
21083W        W93343   5.792  41.897  14.723
21084W        W93344  18.585  32.901  12.893
21085W        W93345  37.389   9.696   4.419
21086W        W93346  42.847  26.625   4.273
21087W        W93347   8.425  18.670   3.059
21088W        W93348  20.262  34.978  13.329
21089W        W93349  43.062  31.762  11.237
21090W        W93350  24.482  19.917  14.328
21091W        W93351  35.946  16.865  14.048
21092W        W93352   2.301   8.152  12.532
21093W        W93353   5.235  29.945  11.629
21094W        W93354  22.122   0.713   1.193
21095W        W93355  44.298  29.565   4.522
21096W        W93356  36.916  21.210  12.484
21097W        W93357  43.302  42.578  14.978
21098W        W93358  37.329   4.775  14.763
21099W        W93359  18.022   0.756   0.985
21100W        W93360  29.731  26.799   4.130
21101W        W93361   6.678  16.069   3.370
21102W        W93362  37.871  22.218  10.463
21103W        W93363  29.348   7.207  13.066
21104W        W93364  37.948  28.393  11.916
21105W        W93365  26.460  40.997   4.632
21106W        W93366  43.954  13.116  11.615
21107W        W93367  30.128  27.375   1.903
21108W        W93368  22.270  43.779  12.450
21109W        W93369  29.910  27.101  14.294
21110W        W93370  28.045  11.164   4.570
21111W        W93371  14.769  18.847   4.451
21112W        W93372  40.820  30.081  14.428
21113W        W93373  31.258  38.466   4.550
21114W        W93374  27.546  25.891   1.485
21115W        W93375  11.439   7.648   4.335
21116W        W93376  25.038  19.187   0.427
21117W        W93377  29.616  36.133   1.059
21118W        W93378  44.363  13.612  10.651
21119W        W93379   1.992   3.554  12.972
21120W        W93380  37.379  22.052  11.594
21121W        W93381  27.384  22.280   1.501
21122W        W93382  21.404  29.198  11.977
21123W        W93383   9.676  44.236   3.241
21124W        W93384  41.418  33.038  13.517
21125W        W93385  17.070  18.211  14.498
21126W        W93386  40.068  35.380   3.006
21127W        W93387  19.972  20.119  14.489
21128W        W93388   7.234  40.486   4.948
21129W        W93389  10.242  11.617  14.501
21130W        W93390  14.303  27.520  12.554
21131W        W93391  32.546  22.019   1.925
21132W        W93392  14.748  14.840   2.588
21133W        W93393  29.027   3.647  12.488
21134W        W93394   4.693  12.377  11.164
21135W        W93395   8.250  34.833   1.896
21136W        W93396  42.044  42.276   4.044
21137W        W93397  12.397  11.238   3.039
21138W        W93398  34.354   1.292   2.331
21139W        W93399   6.432  29.012  14.484
21140W        W93400  38.429  33.721   2.449
21141W        W93401  34.174  30.592  14.956
21142W        W93402  39.840   4.283  12.875
21143W        W93403  15.745  33.878   1.307
21144W        W93404   2.792  39.875   4.132
21145W        W93405  30.659   1.858   1.073
21146W        W93406  25.975  18.189   4.639
21147W        W93407  36.358  39.195  11.785
21148W        W93408  25.664  34.869  11.522
21149W        W93409  21.687  26.664  10.593
21150W        W93410  35.802  27.086   1.363
21151W        W93411  36.415   6.842  11.678
21152W        W93412  28.041  44.812   3.187
21153W        W93413  31.645  20.187  12.816
21154W        W93414   8.236  28.658   3.590
21155W        W93415  28.888   5.041  14.379
21156W        W93416  15.788  32.048   3.085
21157W        W93417  26.890  11.320  11.275
21158W        W93418  38.392  25.950  12.605
21159W        W93419  39.288  17.708  11.142
21160W        W93420  15.168  26.142   3.931
21161W        W93421  32.536   5.944   1.434
21162W        W93422  31.633  39.951  14.437
21163W        W93423   1.310  12.363   4.105
21164W        W93424  44.796  41.492   1.360
21165W        W93425   1.976   0.728   3.812
21166W        W93426  42.453   5.376   4.345
21167W        W93427  27.359  28.495   4.909
21168W        W93428  38.486  16.073  13.390
21169W        W93429  30.281  16.735  11.925
21170W        W93430  37.787  32.512   3.337
21171W        W93431  17.037   2.945   0.271
21172W        W93432  34.179  25.015  13.130
21173W        W93433  21.985  23.310   0.980
21174W        W93434  44.750  32.741  11.049
21175W        W93435  30.075   3.171   3.390
21176W        W93436  41.069   4.712   3.874
21177W        W93437  21.159   7.617   3.473
21178W        W93438  43.534  11.952  10.125
21179W        W93439  28.099  17.098   3.225
21180W        W93440  17.494   0.239  12.926
21181W        W93441  25.213  38.897   3.665
21182W        W93442  43.483  28.963   1.250
21183W        W93443  21.028  39.816   3.401
21184W        W93444  22.642  25.123  11.670
21185W        W93445   0.668  19.999  13.919
21186W        W93446  37.944  19.069   4.159
21187W        W93447  24.219  22.825   4.589
21188W        W93448  27.043   8.277  12.379
21189W        W93449  30.322  39.926   0.846
21190W        W93450  19.153  37.181  10.124
21191W        W93451   0.398  15.920   2.826
21192W        W93452  34.764  28.248  11.196
21193W        W93453  30.214  22.731  12.068
21194W        W93454  33.669  19.210   1.495
21195W        W93455  24.553  11.117  14.373
21196W        W93456  41.541   0.840   4.044
21197W        W93457  16.204  37.106   3.821
21198W        W93458   7.703   1.501   3.647
21199W        W93459  32.060  12.113  13.017
21200W        W93460  15.372  44.096  11.138
21201W        W93461  22.432  28.166   3.719
21202W        W93462  17.741  35.030  13.864
21203W        W93463  40.851   1.019   2.168
21204W        W93464   4.540  39.075  10.089
21205W        W93465   6.299  32.671  12.674
21206W        W93466  23.296  36.969   0.340
21207W        W93467  18.187  19.167  12.154
21208W        W93468  28.525  39.501   0.895
21209W        W93469  44.744  30.573  14.299
21210W        W93470  38.071  22.175   0.466
21211W        W93471  12.543  29.285  13.883
21212W        W93472   8.477  33.847  12.110
21213W        W93473  30.240  30.688   0.513
21214W        W93474   0.042  12.637   0.238
21215W        W93475   3.827   1.859   4.315
21216W        W93476   2.711  43.930  13.005
21217W        W93477  14.133  27.036   3.269
21218W        W93478  32.597   2.725  11.222
21219W        W93479  18.096  28.841   0.523
21220W        W93480  33.686  13.823   3.099
21221W        W93481  28.033  37.536   0.206
21222W        W93482   3.217  24.593   0.444
21223W        W93483  28.185  39.454   1.741
21224W        W93484   4.139  33.380   3.596
21225W        W93485  19.234  22.014   2.827
21226W        W93486  18.042  41.491  11.447
21227W        W93487  18.366  36.995  12.235
21228W        W93488   3.410  24.964   2.232
21229W        W93489  23.262  44.372  13.197
21230W        W93490  13.960   3.684   2.329
21231W        W93491  29.977  22.118  14.637
21232W        W93492  35.850  22.486  14.052
21233W        W93493  37.397  37.098   1.365
21234W        W93494  41.796  27.740   3.139
21235W        W93495  41.447  37.986   3.448
21236W        W93496  13.253  30.686   3.202
21237W        W93497  34.457  23.158  12.346
21238W        W93498  21.149  17.637  13.860
21239W        W93499  44.739  34.522  10.987
21240W        W93500   3.931  12.215  11.590
21241W        W93501  29.937  23.641  14.238
21242W        W93502  18.509  44.727  14.507
21243W        W93503   3.252  19.257   2.745
21244W        W93504  27.979  20.208  12.512
21245W        W93505  36.554  44.958   3.815
21246W        W93506  25.545  16.866   4.562
21247W        W93507   9.191  41.820   0.369
21248W        W93508   1.140  28.647  10.762
21249W        W93509  36.056   4.401   3.315
21250W        W93510  15.045   6.514   3.762
21251W        W93511  30.824   7.632   2.222
21252W        W93512  17.589   9.603   2.185
21253W        W93513  38.812  14.344   1.104
21254W        W93514   3.426  15.088  10.621
21255W        W93515  27.482   9.466  12.714
21256W        W93516  16.620  34.143   2.766
21257W        W93517  15.839  22.644  14.764
21258W        W93518   6.242  23.842   4.529
21259W        W93519  29.171  27.856  12.881
21260W        W93520  14.076  32.119   2.311
21261W        W93521  40.495  37.414  12.845
21262W        W93522  40.829   0.813  13.846
21263W        W93523  18.870  32.147   1.391
21264W        W93524  37.541  13.100  11.415
21265W        W93525  18.703  14.159   0.050
21266W        W93526   0.770  16.180   4.355
21267W        W93527  20.753   5.837   2.350
21268W        W93528  40.297  14.223   3.559
21269W        W93529  23.651  40.910   5.160
21270W        W93530   0.797   9.401   0.382
21271W        W93531  36.171  34.973  14.404
21272W        W93532   4.877   0.352  12.649
21273W        W93533   8.379   7.940  11.639
21274W        W93534  39.022  28.102   4.717
21275W        W93535  24.536  44.509   0.985
21276W        W93536   2.276  13.380  11.698
21277W        W93537  42.550  20.671  14.246
21278W        W93538   1.520  24.025   3.368
21279W        W93539  16.131  16.811  14.074
21280W        W93540  22.136  28.467   1.471
21281W        W93541  14.067  22.216   4.351
21282W        W93542  13.301  14.285  11.181
21283W        W93543  43.833  36.164  12.153
21284W        W93544  21.602   0.369   4.578
21285W        W93545  19.635   6.921  10.561
21286W        W93546  17.618  40.045  11.150
21287W        W93547  28.609  18.795  11.378
21288W        W93548   8.683  26.212   4.120
21289W        W93549  37.551  17.203   1.427
21290W        W93550  21.249  30.359   2.223
21291W        W93551  17.295  40.551   0.923
21292W        W93552  33.383   0.454   2.645
21293W        W93553  25.847  14.055  12.039
21294W        W93554   2.645   9.265  11.649
21295W        W93555  10.972  28.117   4.191
21296W        W93556  15.389  44.971   4.068
21297W        W93557  22.733  27.072  12.682
21298W        W93558  33.063   9.795  14.840
21299W        W93559   8.571  42.870  10.045
21300W        W93560  18.145  15.996   0.312
21301W        W93561  24.064   4.416   3.070
21302W        W93562  27.245   4.914   0.245
21303W        W93563  23.951  41.438  13.716
21304W        W93564   3.113  34.272   1.009
21305W        W93565  18.077   9.918  11.127
21306W        W93566   1.305  11.176   4.219
21307W        W93567  36.495  34.884   4.494
21308W        W93568  42.983   3.829   4.522
21309W        W93569  22.732  37.835  11.058
21310W        W93570  22.281  30.696   0.366
21311W        W93571  25.063  42.430  14.482
21312W        W93572  34.942  14.975  10.745
21313W        W93573  40.427   6.355   4.598
21314W        W93574  43.465   6.788  13.609
21315W        W93575  35.192  33.813  12.995
21316W        W93576  34.079  25.932  12.631
21317W        W93577  10.171  23.904   4.151
21318W        W93578  27.149  12.831  14.134
21319W        W93579   1.679  32.367   3.697
21320W        W93580  18.317   8.117  11.127
21321W        W93581   3.676  25.949   0.906
21322W        W93582  12.843   1.963   4.085
21323W        W93583  25.714  22.141   2.705
21324W        W93584  44.141  20.085  12.996
21325W        W93585  18.759   2.062   3.034
21326W        W93586  29.551  29.449  11.435
21327W        W93587  13.274  37.617   0.430
21328W        W93588   4.135  18.600  14.338
21329W        W93589  15.247  36.959   1.059
21330W        W93590  15.571  14.525   5.036
21331W        W93591  15.065  26.274  14.840
21332W        W93592  31.376  34.585  11.981
21333W        W93593  25.065  16.678   4.520
21334W        W93594  19.727  18.624  11.167
21335W        W93595   7.191  39.940  13.055
21336W        W93596  25.480  40.533  11.375
21337W        W93597  19.653  20.691   2.800
21338W        W93598  24.032  30.233  13.909
21339W        W93599  41.013  24.919  14.042
21340W        W93600  39.895  33.280  10.738
21341W        W93601   8.976  29.127   4.131
21342W        W93602  38.988   3.271  14.000
21343W        W93603  21.656  12.536  10.259
21344W        W93604   5.255  34.538   1.906
21345W        W93605  20.468  20.115  14.454
21346W        W93606   6.185  22.480  13.428
21347W        W93607  37.880  42.343   4.034
21348W        W93608  18.583  42.250  10.631
21349W        W93609  10.286  28.205   2.438
21350W        W93610  19.634   3.863  13.511
21351W        W93611   2.527   4.419  12.766
21352W        W93612   2.202   3.486   4.071
21353W        W93613  13.306  35.846   0.035
21354W        W93614  19.110  37.850   2.934
21355W        W93615  42.366  38.426   0.764
21356W        W93616  37.371  33.058  10.693
21357W        W93617  11.147  21.632  13.071
21358W        W93618  21.481  33.505   2.744
21359W        W93619  17.614  34.509   4.628
21360W        W93620  15.279  10.789   1.764
21361W        W93621  15.189  44.013  14.286
21362W        W93622  21.612  41.550  13.254
21363W        W93623  22.478  36.353   1.593
21364W        W93624  14.292  13.147  10.576
21365W        W93625  29.858  29.514  13.811
21366W        W93626  23.209  10.729   0.830
21367W        W93627  41.440  10.284  11.645
21368W        W93628  29.646  42.476   3.733
21369W        W93629  19.561  19.979   3.146
21370W        W93630  18.005  11.818  11.956
21371W        W93631   9.789  11.260   0.135
21372W        W93632   7.248  17.853  12.484
21373W        W93633   0.792  40.579  12.344
21374W        W93634  14.885   6.257  10.561
21375W        W93635  43.796  38.239   2.742
21376W        W93636  32.427   8.781   0.265
21377W        W93637  22.685   8.646  12.501
21378W        W93638  23.119  24.788  11.382
21379W        W93639  20.569  27.077   5.069
21380W        W93640  23.813  44.283  11.025
21381W        W93641  19.662  39.563   1.904
21382W        W93642   8.249  17.223   2.361
21383W        W93643  14.128   1.186   1.806
21384W        W93644  31.906  44.824   3.302
21385W        W93645  33.842  10.719  12.010
21386W        W93646  27.686   7.121   0.922
21387W        W93647   4.711   5.665  11.719
21388W        W93648  39.552  35.341   3.149
21389W        W93649  29.142   6.696  11.337
21390W        W93650  28.621  21.537   1.766
21391W        W93651  19.025  17.776   0.544
21392W        W93652  27.858  33.964  14.959
21393W        W93653  34.892  38.986  12.535
21394W        W93654  12.548  24.641   3.491
21395W        W93655  17.257  21.293   5.003
21396W        W93656  24.454  44.408   4.595
21397W        W93657   3.328  30.931  14.974
21398W        W93658  22.941  25.410  13.180
21399W        W93659  24.954  13.184  10.768
21400W        W93660   8.934  10.182   2.207
21401W        W93661  10.334   2.413   3.681
21402W        W93662  43.292  41.996  10.516
21403W        W93663  14.103  25.580  13.210
21404W        W93664  37.423   1.657   1.480
21405W        W93665  25.324  13.222   3.030
21406W        W93666   2.825  13.887  13.358
21407W        W93667  12.316   7.367  14.074
21408W        W93668  25.257  20.122   2.306
21409W        W93669  35.706  42.341  12.673
21410W        W93670  13.394   0.584   1.703
21411W        W93671  15.519  40.155   2.395
21412W        W93672  30.489  38.028   3.101
21413W        W93673  18.718  39.827   3.302
21414W        W93674  37.336   8.629   2.354
21415W        W93675  38.330  18.374  13.851
21416W        W93676  26.047   3.479  14.890
21417W        W93677  42.801  42.660   1.187
21418W        W93678   6.269  13.189  11.527
21419W        W93679  11.119  35.458  11.556
21420W        W93680  15.265  36.091  12.422
21421W        W93681  42.234  40.914  11.037
21422W        W93682  30.615   6.436   4.098
21423W        W93683  13.048  28.083   3.084
21424W        W93684   3.999   6.686   0.067
21425W        W93685  16.861  22.218   0.392
21426W        W93686   5.731   2.664  13.885
21427W        W93687  28.664  19.768  14.549
21428W        W93688  40.618  34.859   1.748
21429W        W93689  32.566  25.440  11.619
21430W        W93690  25.627   1.814  13.252
21431W        W93691  32.624  39.410   3.969
21432W        W93692  16.618  30.432  14.753
21433W        W93693  15.869  17.538  13.256
21434W        W93694   1.167   0.814  14.138
21435W        W93695  28.076  17.481   0.501
21436W        W93696   9.621  12.057  11.193
21437W        W93697  20.936   5.243   4.077
21438W        W93698  11.873  11.394  13.919
21439W        W93699  27.433   5.850   3.395
21440W        W93700  36.365  11.806   2.325
21441W        W93701  12.783   4.885  14.530
21442W        W93702   5.654  15.598   0.801
21443W        W93703  26.591  43.995  14.907
21444W        W93704  42.705  21.497   0.333
21445W        W93705  37.433  26.011  11.036
21446W        W93706   1.316  30.784   1.243
21447W        W93707  22.657  15.667  10.687
21448W        W93708  36.427  42.947  12.533
21449W        W93709  22.498  26.376   2.557
21450W        W93710  29.799  29.504  10.955
21451W        W93711  14.233  31.443  12.421
21452W        W93712  16.588   3.286   0.107
21453W        W93713  38.602  21.305   2.560
21454W        W93714  10.732   7.899   1.230
21455W        W93715  14.559  28.393   4.244
21456W        W93716  34.261  10.425   2.882
21457W        W93717  21.240   5.432  10.590
21458W        W93718  29.592  22.226  13.820
21459W        W93719   0.753  19.675  13.516
21460W        W93720  15.618  42.380   2.673
21461W        W93721  10.099   7.934   0.730
21462W        W93722  22.787  15.213  11.522
21463W        W93723   0.720  37.672   2.813
21464W        W93724   6.713  14.139  13.660
21465W        W93725  28.876   4.687   3.344
21466W        W93726  17.177  39.003   4.547
21467W        W93727  40.815   1.647   4.166
21468W        W93728  25.279  10.592  11.542
21469W        W93729  34.674   5.426  10.998
21470W        W93730  20.280  25.793   4.533
21471W        W93731  10.704  40.563   4.869
21472W        W93732  40.612  44.875  10.742
21473W        W93733   2.286  26.638  10.665
21474W        W93734   0.395  10.860  13.740
21475W        W93735  31.173  32.582  14.316
21476W        W93736  13.413  31.619  11.397
21477W        W93737  36.274  13.253   4.226
21478W        W93738  10.835  22.673  12.180
21479W        W93739  40.562  31.394  11.613
21480W        W93740   8.742  28.237   4.989
21481W        W93741   9.601  11.279  11.546
21482W        W93742  24.063  22.424   3.255
21483W        W93743  23.011  32.129  13.983
21484W        W93744  31.408  12.715  14.141
21485W        W93745  22.777  34.517  14.332
21486W        W93746  16.806   0.888  10.374
21487W        W93747  10.668  37.513   0.761
21488W        W93748  38.325   4.704   3.191
21489W        W93749  23.748  34.296  11.581
21490W        W93750  32.408   3.294  13.450
21491W        W93751  41.301   6.686   3.246
21492W        W93752   2.020  44.918  14.221
21493W        W93753   6.166  30.492   1.256
21494W        W93754  27.082  23.702  13.353
21495W        W93755   0.648  27.578   1.391
21496W        W93756  16.351  36.169   3.655
21497W        W93757   1.966  13.182  13.404
21498W        W93758  28.598  30.097   4.034
21499W        W93759  20.658  18.135   2.888
21500W        W93760  16.570  10.315   4.772
21501W        W93761  27.707  13.357  11.757
21502W        W93762  25.699  16.003   4.130
21503W        W93763   6.246  29.453  10.552
21504W        W93764  26.230   2.303  11.077
21505W        W93765  44.769  37.318  13.815
21506W        W93766   3.667  13.459   4.677
21507W        W93767   6.680  44.850   2.626
21508W        W93768  39.333  37.846   3.329
21509W        W93769   7.810   1.813  14.874
21510W        W93770   4.300  11.519  10.328
21511W        W93771  33.477   9.546   4.215
21512W        W93772  11.927  36.097   1.345
21513W        W93773  30.876   2.898  12.084
21514W        W93774  38.517  33.104   4.326
21515W        W93775  16.233  31.334   1.156
21516W        W93776  42.040  15.371   2.764
21517W        W93777  35.082  21.493   2.163
21518W        W93778  21.828  41.872  12.296
21519W        W93779  24.746  15.403  11.601
21520W        W93780  23.948  36.945  14.979
21521W        W93781   7.386  31.340   3.632
21522W        W93782  30.211   0.249  13.483
21523W        W93783  37.974  35.516  11.518
21524W        W93784  20.617  44.961  11.851
21525W        W93785  17.278  17.173  13.759
21526W        W93786  13.631   5.761  10.532
21527W        W93787  38.364  15.173  13.114
21528W        W93788  33.404  16.704  13.795
21529W        W93789   7.318  23.579   2.881
21530W        W93790  12.191  39.555   4.890
21531W        W93791  33.882  37.258   0.915
21532W        W93792  24.075  33.404  10.569
21533W        W93793   2.012  34.639   3.219
21534W        W93794  41.485   7.845   2.626
21535W        W93795  20.769  42.457   3.967
21536W        W93796  23.299  14.289   2.342
21537W        W93797   3.669  17.822   0.225
21538W        W93798  35.344  41.952  11.051
21539W        W93799  36.716  20.036   1.613
21540W        W93800  43.702  32.313  12.530
21541W        W93801   6.347   3.718  10.780
21542W        W93802   4.182  37.087  14.773
21543W        W93803  23.996  18.630  14.503
21544W        W93804  10.706  30.395   0.464
21545W        W93805  20.064  24.610   2.453
21546W        W93806  10.670  44.555   1.264
21547W        W93807  35.929  32.320   4.172
21548W        W93808  40.842  19.576  10.554
21549W        W93809  32.119  22.188  10.522
21550W        W93810  16.737  10.258  11.958
21551W        W93811  22.571   4.274  10.045
21552W        W93812   5.844  37.332   0.462
21553W        W93813   1.680  25.054   1.869
21554W        W93814  36.900  11.870   3.383
21555W        W93815  33.180  13.129   4.990
21556W        W93816  26.320  41.797   9.840
21557W        W93817  39.509   4.420   2.651
21558W        W93818  26.517  40.876  14.367
21559W        W93819   2.894  23.009   3.567
21560W        W93820  31.605  14.528  13.816
21561W        W93821  14.078   4.950  11.076
21562W        W93822  34.645  14.602  13.419
21563W        W93823  41.145  28.106   1.749
21564W        W93824  34.999   1.699  12.792
21565W        W93825   7.649  26.156  13.441
21566W        W93826  10.517  43.751  12.095
21567W        W93827   6.732  16.098  13.312
21568W        W93828  22.737  13.762  12.440
21569W        W93829  30.222  39.427   0.656
21570W        W93830  25.467   0.985  14.781
21571W        W93831  23.623  39.303   2.663
21572W        W93832  27.368  33.532  13.369
21573W        W93833  12.208  26.614   4.724
21574W        W93834   8.693  21.139  11.750
21575W        W93835  44.851  15.395  10.405
21576W        W93836  16.076   3.541   1.847
21577W        W93837  43.869   5.415  14.454
21578W        W93838  21.601  20.836   3.795
21579W        W93839  10.615   6.380   4.136
21580W        W93840  29.427  39.492   1.281
21581W        W93841  25.047   5.730   3.341
21582W        W93842  31.031   8.186  10.369
21583W        W93843  33.592   5.495  11.993
21584W        W93844   5.828  42.164  12.885
21585W        W93845  23.453  37.855   2.802
21586W        W93846  15.709  14.877   2.633
21587W        W93847  21.162   8.875   0.008
21588W        W93848   8.959  38.279   3.291
21589W        W93849   0.561  40.996  12.543
21590W        W93850   9.671   0.230   1.800
21591W        W93851  32.044   7.630  12.630
21592W        W93852   9.143  13.775  10.687
21593W        W93853  29.570  34.072   4.253
21594W        W93854  23.375  26.587   0.858
21595W        W93855   0.019   7.744   0.875
21596W        W93856  33.812   9.296   1.936
21597W        W93857  34.553  25.135   2.212
21598W        W93858  29.127  15.405  12.417
21599W        W93859  17.106  22.174  13.041
21600W        W93860  14.184  14.717  12.310
21601W        W93861  40.324   8.889   1.516
21602W        W93862  31.932  10.386   1.920
21603W        W93863  32.037  36.862   0.901
21604W        W93864  29.960   8.122   2.764
21605W        W93865   3.731  35.143  10.697
21606W        W93866   3.809  44.058   2.277
21607W        W93867   6.458   1.495   3.428
21608W        W93868  43.470   2.522  11.676
21609W        W93869  24.135  25.159   9.908
21610W        W93870  34.177  34.160  13.415
21611W        W93871   1.216  15.079  11.154
21612W        W93872  43.068  40.922   3.996
21613W        W93873  16.073  25.867   1.225
21614W        W93874  30.461   2.042  13.925
21615W        W93875  16.687  18.585   3.154
21616W        W93876  19.936  10.656   1.271
21617W        W93877   5.289  31.009   1.324
21618W        W93878  18.580   5.795   5.494
21619W        W93879  36.855  21.851   0.694
21620W        W93880  41.099  17.159   3.478
21621W        W93881   1.898  31.214  14.815
21622W        W93882  15.054  18.299  11.075
21623W        W93883  37.827  22.723  13.338
21624W        W93884  33.790  36.396  13.555
21625W        W93885   8.884  40.458  10.784
21626W        W93886  16.797   3.369  13.971
21627W        W93887   5.538  17.844   1.292
21628W        W93888   9.178  39.316  13.413
21629W        W93889   1.739  35.302  14.481
21630W        W93890  44.739  29.140  14.843
21631W        W93891  31.141  24.693  10.712
21632W        W93892   2.949  11.925   3.432
21633W        W93893  12.202  39.999   4.592
21634W        W93894  41.377  16.742   4.402
21635W        W93895   3.221  23.111   4.421
21636W        W93896  17.936   4.819   2.289
21637W        W93897  30.569  18.920   3.737
21638W        W93898   3.932  19.512  12.077
21639W        W93899  16.266  38.174  14.926
21640W        W93900  15.136  16.062  13.455
21641W        W93901  13.167  26.419   4.382
21642W        W93902  22.215  15.847   0.363
21643W        W93903  18.332  29.032   5.097
21644W        W93904  20.526  39.875   2.222
21645W        W93905  33.590  18.004   2.438
21646W        W93906   2.934  38.992  14.708
21647W        W93907  25.184  38.846  11.534
21648W        W93908   2.447  27.636   0.796
21649W        W93909  23.968  23.415   2.019
21650W        W93910  17.546  34.166   1.683
21651W        W93911  24.270  42.194  13.416
21652W        W93912   4.237   6.999  11.225
21653W        W93913  33.597   7.853  12.639
21654W        W93914  37.325  28.101   3.170
21655W        W93915   8.920  11.691   1.873
21656W        W93916   0.217   0.231  13.898
21657W        W93917  20.492   4.758  14.794
21658W        W93918  40.933   6.603   1.572
21659W        W93919   0.653  13.529  10.725
21660W        W93920   6.471  16.566   3.646
21661W        W93921  11.201  26.746  14.051
21662W        W93922   9.807  32.622   4.168
21663W        W93923  37.391  39.266   0.799
21664W        W93924  12.758  24.644   1.362
21665W        W93925  28.357  42.956  11.009
21666W        W93926   8.893   2.444  11.586
21667W        W93927  35.312   8.888  14.060
21668W        W93928  42.835   4.962  14.911
21669W        W93929  28.378   6.292   2.310
21670W        W93930  35.479  43.783   3.354
21671W        W93931  17.215   2.713  14.827
21672W        W93932  21.625  28.463  11.110
21673W        W93933  15.158  26.944   2.255
21674W        W93934  20.317  39.966  13.930
21675W        W93935  40.760   0.724   1.726
21676W        W93936   6.949   8.352   0.579
21677W        W93937  37.341  11.078  12.931
21678W        W93938   3.354  15.769   2.797
21679W        W93939   5.534   2.548   0.873
21680W        W93940  17.286   6.313  10.459
21681W        W93941  41.967  12.104   1.603
21682W        W93942  18.212  10.346  11.578
21683W        W93943  10.108  32.894   3.813
21684W        W93944   1.947  44.460   3.949
21685W        W93945   2.375  13.420  14.613
21686W        W93946  30.197  17.212   3.549
21687W        W93947  36.983  41.497  12.876
21688W        W93948  26.107  41.322   3.670
21689W        W93949  15.017  36.543   3.328
21690W        W93950  30.722  36.560   1.505
21691W        W93951   6.158  16.171  10.929
21692W        W93952  43.354   3.481   3.333
21693W        W93953  14.350  21.133  11.306
21694W        W93954  22.030   2.630   4.053
21695W        W93955  19.530  22.009  14.010
21696W        W93956   6.210   0.471  11.227
21697W        W93957  30.360  17.646   0.942
21698W        W93958  16.332  41.319   0.305
21699W        W93959  37.741  37.978  11.314
21700W        W93960  10.777  42.804   1.032
21701W        W93961  10.220   3.910  13.456
21702W        W93962  28.688   8.819   3.339
21703W        W93963  40.348   9.806  11.384
21704W        W93964   8.560  13.108  12.372
21705W        W93965   4.950  37.423  11.422
21706W        W93966  37.997   7.537  10.056
21707W        W93967   3.036  10.681   0.846
21708W        W93968   9.075  28.656   2.785
21709W        W93969   8.413   1.326   1.404
21710W        W93970   4.593   8.356   4.262
21711W        W93971  17.862  13.694   0.860
21712W        W93972  31.126  30.459  13.300
21713W        W93973  22.160  30.154   1.799
21714W        W93974  31.380  34.638  11.206
21715W        W93975  44.715  44.620  13.465
21716W        W93976  27.415  24.723  13.290
21717W        W93977  14.243   1.618   2.758
21718W        W93978  40.178  18.475  11.467
21719W        W93979  10.586  32.814  10.902
21720W        W93980  11.773   1.252   3.668
21721W        W93981  19.700  16.765   0.246
21722W        W93982  11.839  41.708  12.895
21723W        W93983  42.345  39.015   4.556
21724W        W93984   3.785   0.781   2.496
21725W        W93985   2.368   1.665   1.656
21726W        W93986  27.952  27.433   4.273
21727W        W93987   8.402  14.726   3.633
21728W        W93988  23.257  26.771  14.085
21729W        W93989  10.181  34.168  12.600
21730W        W93990   6.002  21.942  14.822
21731W        W93991  31.404   8.243   1.912
21732W        W93992  23.456   4.762  11.063
21733W        W93993  32.418   0.833  12.629
21734W        W93994  23.402  23.677  10.822
21735W        W93995  14.907  39.510   1.689
21736W        W93996  32.982  18.224   0.764
21737W        W93997   9.144  32.628   1.029
21738W        W93998  11.953  18.093   2.741
21739W        W93999  30.047  26.657   0.923
21740W        W94000  30.522  23.986  14.922
21741W        W94001  21.515  38.388   1.707
21742W        W94002  38.967  18.565  14.346
21743W        W94003  15.054  43.767  13.849
21744W        W94004  42.290  17.642   3.190
21745W        W94005  17.311  40.522   4.566
21746W        W94006   2.464   3.619  12.667
21747W        W94007   5.328  34.620  11.604
21748W        W94008  12.548  12.157  12.088
21749W        W94009  44.091   9.098   2.125
21750W        W94010  43.312  37.090   4.916
21751W        W94011  39.979   4.845  13.798
21752W        W94012   2.255  11.957   3.606
21753W        W94013   7.965  33.833  12.068
21754W        W94014  33.999  18.797   5.502
21755W        W94015  13.323   3.414   4.133
21756W        W94016  35.167  14.604  13.224
21757W        W94017  12.406   8.290  10.736
21758W        W94018  42.250  42.223  11.765
21759W        W94019  13.336  37.646  14.794
21760W        W94020   1.315  18.132  13.060
21761W        W94021  14.308  37.653   3.262
21762W        W94022  40.672  16.092   4.731
21763W        W94023  10.149   4.463   2.161
21764W        W94024  20.650  13.295  11.465
21765W        W94025  35.805  41.276   0.818
21766W        W94026  21.775  12.043  12.991
21767W        W94027  14.244  11.699  12.963
21768W        W94028  21.537   3.849   4.231
21769W        W94029  36.834  27.194   4.117
21770W        W94030  30.536  37.604  12.940
21771W        W94031  15.600   9.349   3.653
21772W        W94032  27.100  12.264  12.069
21773W        W94033  14.330  27.053  11.860
21774W        W94034   5.915  23.474  11.702
21775W        W94035  38.301  15.238   0.865
21776W        W94036  21.080  41.911  10.650
21777W        W94037   0.243   7.416   1.709
21778W        W94038  43.951  22.224  13.479
21779W        W94039  18.602   5.992   0.872
21780W        W94040  38.449  16.753   1.620
21781W        W94041  14.688  29.318  12.547
21782W        W94042   7.278  20.330   0.857
21783W        W94043  10.933  33.111  12.065
21784W        W94044  34.920  28.733  11.044
21785W        W94045  43.837   8.435   0.473
21786W        W94046   5.657  14.838  14.879
21787W        W94047  33.993  42.559  13.497
21788W        W94048  14.588  37.073   4.487
21789W        W94049   1.750  28.035  11.184
21790W        W94050  16.727  21.638  13.965
21791W        W94051  39.961  33.623  11.993
21792W        W94052  35.135   9.030   3.354
21793W        W94053  12.422   7.097   4.090
21794W        W94054  33.390  41.914   3.071
21795W        W94055  13.579   5.695   1.421
21796W        W94056  15.185  28.770   3.194
21797W        W94057   5.903  18.104   4.294
21798W        W94058   3.065   0.943  10.672
21799W        W94059  39.034   4.366   0.064
21800W        W94060  21.269   0.883   0.758
21801W        W94061  35.897  20.488   0.423
21802W        W94062  34.613  16.640   0.960
21803W        W94063  20.743  38.466   4.692
21804W        W94064   8.706  11.703  11.529
21805W        W94065   1.228  25.273   0.371
21806W        W94066  37.670  14.353  11.024
21807W        W94067  32.858  25.989   1.950
21808W        W94068  22.329  18.082   4.997
21809W        W94069   4.541   5.770  12.191
21810W        W94070  38.000  14.940   0.042
21811W        W94071  39.591  36.444  13.568
21812W        W94072   0.073  44.114   0.917
21813W        W94073  14.271  16.733  10.548
21814W        W94074  21.131   1.606   2.465
21815W        W94075  38.107   5.750   2.425
21816W        W94076  21.817   4.719   4.187
21817W        W94077  42.866  35.004  14.031
21818W        W94078  17.159  21.659   2.230
21819W        W94079   0.874  33.872  13.921
21820W        W94080   8.896  23.331   1.364
21821W        W94081  38.614  22.561   1.661
21822W        W94082  26.950  22.632   1.888
21823W        W94083  11.615  18.854  13.265
21824W        W94084  20.642  39.118  11.229
21825W        W94085  30.947  41.046   0.014
21826W        W94086  21.501  28.088  13.783
21827W        W94087  35.502  39.585  11.628
21828W        W94088  36.698  43.487   1.436
21829W        W94089  19.365  44.947  14.478
21830W        W94090  40.864  36.296  10.753
21831W        W94091  37.608  39.123  12.091
21832W        W94092  33.523  17.141  13.454
21833W        W94093   2.789  42.856   3.710
21834W        W94094   5.753  17.064  14.843
21835W        W94095   9.263   5.435   1.272
21836W        W94096  21.197  30.421   1.343
21837W        W94097  12.554  14.827   0.815
21838W        W94098  18.115  25.024  12.159
21839W        W94099  40.362  36.621   2.793
21840W        W94100  30.370  32.368   5.077
21841W        W94101  42.564  18.608   4.336
21842W        W94102  38.016  28.508   2.923
21843W        W94103  37.348  20.203   0.670
21844W        W94104   0.269   3.212  10.851
21845W        W94105  26.263  40.730  11.076
21846W        W94106  23.802  21.523   0.554
21847W        W94107   2.815  13.697  14.856
21848W        W94108   0.043  12.136   1.312
21849W        W94109  18.726  11.826   4.143
21850W        W94110  22.544  19.563   0.055
21851W        W94111   4.631  28.991  13.144
21852W        W94112  23.541   9.764   1.441
21853W        W94113   0.433  42.301  13.868
21854W        W94114  41.322  29.522  10.650
21855W        W94115  19.798   2.399   1.989
21856W        W94116  38.419  23.272   4.461
21857W        W94117  11.577   9.851  12.839
21858W        W94118   3.104  12.288   2.409
21859W        W94119  17.169   6.016  13.359
21860W        W94120  23.209  19.744  12.497
21861W        W94121  23.662  28.313   3.672
21862W        W94122  42.258  17.968  11.144
21863W        W94123  20.478   6.526  13.559
21864W        W94124  17.913  35.318   4.203
21865W        W94125  41.078  36.314  12.632
21866W        W94126  35.532  19.772   1.615
21867W        W94127  41.570   1.792  11.954
21868W        W94128  36.133  29.506  11.650
21869W        W94129   2.416   3.819  10.984
21870W        W94130  14.711  12.808  14.758
21871W        W94131  18.072  16.091   1.705
21872W        W94132  39.425  39.415   0.440
21873W        W94133  33.717  26.486   0.127
21874W        W94134   6.115  35.889  14.785
21875W        W94135  34.701  20.542  13.314
21876W        W94136  22.546  11.250   2.362
21877W        W94137  32.664  24.164  12.109
21878W        W94138  29.384  44.517   2.783
21879W        W94139  12.377  23.301  14.672
21880W        W94140  35.938  31.427   3.906
21881W        W94141  30.844  29.612  11.910
21882W        W94142  22.261  42.534   0.238
21883W        W94143  25.652  18.841  13.864
21884W        W94144   7.824  26.407  11.160
21885W        W94145  12.284   2.682   4.074
21886W        W94146  34.792  34.774  13.854
21887W        W94147  10.594  35.943   0.260
21888W        W94148   5.237   4.721  11.534
21889W        W94149  39.086   0.975   5.078
21890W        W94150   3.889  38.474   3.911
21891W        W94151  10.272  31.402   3.968
21892W        W94152  28.566   5.797   2.249
21893W        W94153   0.605  24.205  14.041
21894W        W94154  26.668  18.735   3.157
21895W        W94155  37.794  23.889   0.395
21896W        W94156  32.110  28.340   4.884
21897W        W94157  38.966  37.384   1.805
21898W        W94158  36.073  13.708  12.089
21899W        W94159  15.174   9.433  13.139
21900W        W94160   2.477  25.125   4.713
21901W        W94161   0.946  26.404  10.705
21902W        W94162  32.130   1.331  11.151
21903W        W94163  19.678   2.243  12.911
21904W        W94164  12.332  24.958  14.568
21905W        W94165  14.815  23.420  13.354
21906W        W94166  14.241  28.304   2.332
21907W        W94167   4.269  16.096  13.865
21908W        W94168  10.770   5.914  13.081
21909W        W94169  10.690  30.890   1.833
21910W        W94170   3.446  16.463   3.460
21911W        W94171  38.856  16.814   4.735
21912W        W94172   0.320   3.605  11.197
21913W        W94173  27.259  41.077  13.889
21914W        W94174  40.227  26.361  10.122
21915W        W94175  14.290   7.294  13.768
21916W        W94176  17.146  22.521   3.990
21917W        W94177  38.302   9.619  12.971
21918W        W94178  42.909  43.397   4.698
21919W        W94179   2.949  13.573   2.655
21920W        W94180   5.075   5.484  12.025
21921W        W94181  42.319   3.991  12.159
21922W        W94182  18.771  16.146   0.656
21923W        W94183  38.765   5.034   3.234
21924W        W94184  43.285  44.242   2.325
21925W        W94185  33.455   5.434  14.911
21926W        W94186  37.844  24.052   4.207
21927W        W94187  20.888   5.529   1.044
21928W        W94188  39.433  36.180  10.753
21929W        W94189  32.424   3.533  10.973
21930W        W94190   0.028  18.880   2.788
21931W        W94191  43.342  12.677   1.792
21932W        W94192  39.845   5.296  12.024
21933W        W94193  29.897  18.693  11.734
21934W        W94194  20.524   3.798   4.312
21935W        W94195  28.003  25.128  14.751
21936W        W94196  38.194   2.185   0.938
21937W        W94197  42.628  38.539  10.994
21938W        W94198  25.847   4.790   1.205
21939W        W94199  28.680   3.892   2.817
21940W        W94200  26.954  15.354  11.867
21941W        W94201   0.583   6.467   9.966
21942W        W94202  39.369  11.399   1.277
21943W        W94203  30.600  10.551  12.865
21944W        W94204  25.033  44.612   0.271
21945W        W94205  37.810  33.924  12.569
21946W        W94206  20.259  43.678  10.655
21947W        W94207   8.972  11.835  13.164
21948W        W94208  10.358  33.432  14.302
21949W        W94209  36.523  41.905   0.723
21950W        W94210  21.053  24.744  11.357
21951W        W94211  20.275  26.000  13.443
21952W        W94212  17.783  15.950  11.255
21953W        W94213  23.106  42.743  12.913
21954W        W94214  26.952  42.290  13.291
21955W        W94215  18.564   1.528   3.900
21956W        W94216  41.947  39.004   2.855
21957W        W94217  35.151  21.294  14.847
21958W        W94218  26.202   9.250   4.060
21959W        W94219  34.032  36.869   4.449
21960W        W94220  29.698  43.827   1.702
21961W        W94221  40.318  19.177   4.148
21962W        W94222  31.946   5.220   1.239
21963W        W94223   4.691  14.586   2.378
21964W        W94224   3.787  14.723   0.904
21965W        W94225  27.996  13.708  13.544
21966W        W94226  44.419   2.842   1.690
21967W        W94227  30.460  16.114  12.891
21968W        W94228   8.608  43.508  10.599
21969W        W94229  10.597   7.415   2.697
21970W        W94230   0.927   3.713   2.135
21971W        W94231  27.417  44.016  10.624
21972W        W94232  38.928  21.196  14.805
21973W        W94233  22.715   4.349   0.859
21974W        W94234  17.141  15.895   2.884
21975W        W94235   4.423  16.714   0.534
21976W        W94236  35.600  34.269  13.421
21977W        W94237  43.901  19.383  13.586
21978W        W94238   4.337  15.511   3.317
21979W        W94239  39.404  26.447   3.922
21980W        W94240  33.665  29.285   1.257
21981W        W94241  14.325   6.923   1.766
21982W        W94242  43.014  14.060   1.953
21983W        W94243  19.705  35.503  13.160
21984W        W94244   7.910  27.037  14.554
21985W        W94245  16.372  27.586   2.177
21986W        W94246  43.967  44.042   3.848
21987W        W94247  12.527  41.811   3.201
21988W        W94248  27.458  12.905  14.993
21989W        W94249  32.868  42.046   2.362
21990W        W94250  29.561  30.166   5.104
21991W        W94251  29.774   2.907   1.680
21992W        W94252  24.098  40.898  10.724
21993W        W94253   7.613   1.470   2.735
21994W        W94254  39.289  38.327  13.817
21995W        W94255  41.452  28.029  12.368
21996W        W94256  25.094  29.105   0.986
21997W        W94257  35.533  37.430   2.229
21998W        W94258  17.678   0.834   4.841
21999W        W94259  15.687  40.918  14.047
22000W        W94260  32.709  40.383  11.047
22001W        W94261   3.386  13.638   4.293
22002W        W94262   4.829  42.467   4.239
22003W        W94263  32.137  16.055   3.370
22004W        W94264   8.214  42.977   2.910
22005W        W94265  34.362  29.144  14.843
22006W        W94266  10.854  13.830  14.978
22007W        W94267  43.008   9.463   1.917
22008W        W94268   8.272   0.866   1.711
22009W        W94269  28.704  31.285   2.299
22010W        W94270  37.754  10.194   9.812
22011W        W94271  37.614   0.288   0.939
22012W        W94272  40.092  17.772  12.130
22013W        W94273  19.652  43.002   3.188
22014W        W94274  19.777  16.369   4.011
22015W        W94275  24.609  41.808  12.128
22016W        W94276   3.489   8.619   2.267
22017W        W94277  25.052  43.147  14.864
22018W        W94278  25.668  41.528  10.173
22019W        W94279   6.675  42.966  11.577
22020W        W94280  18.776  41.500   1.972
22021W        W94281   6.256  28.413  10.654
22022W        W94282   5.251   8.844  13.175
22023W        W94283  28.827  27.104   3.744
22024W        W94284  16.257   3.914   2.216
22025W        W94285   5.415  44.370   2.739
22026W        W94286  18.714  22.270  12.544
22027W        W94287  36.545  23.706   1.931
22028W        W94288  23.024  41.731  12.967
22029W        W94289  14.131  35.997  11.111
22030W        W94290  40.520  19.059   3.346
22031W        W94291  38.101  36.939   1.858
22032W        W94292  29.914  10.242   1.881
22033W        W94293   7.780  26.695  10.267
22034W        W94294   8.447  34.087  12.571
22035W        W94295   7.715  33.156  10.716
22036W        W94296  27.194  18.928  14.801
22037W        W94297  16.769  39.200   4.822
22038W        W94298   3.002   7.322   1.417
22039W        W94299  27.430  28.716  10.632
22040W        W94300  27.682  31.475  14.253
22041W        W94301  25.114  14.165   3.663
22042W        W94302  12.915  37.162   5.210
22043W        W94303   3.234  38.223   4.427
22044W        W94304  36.572  23.597   0.420
22045W        W94305  23.290   7.369  12.307
22046W        W94306  22.290  26.065  13.039
22047W        W94307  33.824   6.957   3.682
22048W        W94308   5.669  41.273  11.990
22049W        W94309  16.260  13.983  11.947
22050W        W94310  26.501  41.887  11.599
22051W        W94311  26.625  21.007   0.714
22052W        W94312  24.542  17.140   2.804
22053W        W94313   1.417  24.160   4.225
22054W        W94314  34.030  11.651   0.420
22055W        W94315   3.239  35.602   2.839
22056W        W94316  20.830  38.382   3.343
22057W        W94317  44.832  10.856  12.010
22058W        W94318  41.019  38.858   1.787
22059W        W94319  41.427   9.350   3.250
22060W        W94320  14.191  24.789   4.822
22061W        W94321  41.921   7.910   4.856
22062W        W94322   1.455  11.295  14.477
22063W        W94323  20.537   8.924   4.424
22064W        W94324  31.479  30.999   0.657
22065W        W94325  13.648  16.228  10.990
22066W        W94326  13.578  35.450  13.796
22067W        W94327  19.580  11.870  11.915
22068W        W94328   7.658  31.854   3.950
22069W        W94329  32.061  10.806  10.770
22070W        W94330   1.224  43.292   1.145
22071W        W94331   9.248  33.558   2.276
22072W        W94332  30.924  38.798  12.570
22073W        W94333  11.274  37.448  13.185
22074W        W94334  22.400  28.959  14.430
22075W        W94335  31.019   0.723   4.314
22076W        W94336  37.397  27.940  12.503
22077W        W94337   8.397  17.051  11.710
22078W        W94338  19.067  40.985   3.593
22079W        W94339   0.003  33.714   1.759
22080W        W94340   1.470   7.874  14.816
22081W        W94341  41.653  36.941  11.582
22082W        W94342  35.695  14.324  11.602
22083W        W94343  34.621  35.839   0.797
22084W        W94344  25.200   0.171   1.718
22085W        W94345   2.378   6.889  14.876
22086W        W94346   5.652   5.884   1.314
22087W        W94347  16.675  24.884   4.527
22088W        W94348   0.928  27.964  12.578
22089W        W94349  33.535  25.474   2.873
22090W        W94350  42.916  28.330   2.316
22091W        W94351   5.389  13.670   0.760
22092W        W94352  25.737  36.373   2.326
22093W        W94353   1.701  12.853   4.477
22094W        W94354   5.169   8.110   1.211
22095W        W94355  27.959  36.498   1.747
22096W        W94356  42.345  23.199   1.311
22097W        W94357  17.234  32.170   4.159
22098W        W94358  21.561  32.429   4.653
22099W        W94359   1.712  22.065   2.334
22100W        W94360  10.443  31.011   1.278
22101W        W94361  25.641  36.654   2.792
22102W        W94362  28.231  33.147  13.343
22103W        W94363   3.398   9.372  10.666
22104W        W94364   0.003  27.172   2.201
22105W        W94365  21.032  12.594  11.935
22106W        W94366  19.170  25.679   2.208
22107W        W94367  20.261   2.745  11.899
22108W        W94368  41.327  25.571   1.750
22109W        W94369  24.904   8.299   1.469
22110W        W94370  13.493   2.237   2.882
22111W        W94371  32.682  30.215  11.841
22112W        W94372  42.731   0.681  11.179
22113W        W94373  43.942  26.009  11.579
22114W        W94374  14.774  21.506   1.923
22115W        W94375   8.863  22.663  10.670
22116W        W94376  15.887  38.997  11.584
22117W        W94377  13.933  38.993  11.383
22118W        W94378   1.897   4.561   1.803
22119W        W94379  24.583  17.283  14.956
22120W        W94380   8.263  34.864  14.770
22121W        W94381  27.394  28.976  13.489
22122W        W94382  43.628   3.111  13.458
22123W        W94383  43.964  39.411   4.070
22124W        W94384   6.199  16.204   4.242
22125W        W94385   7.011  36.471  12.414
22126W        W94386  21.626  21.571   1.750
22127W        W94387   4.144   0.809  13.686
22128W        W94388  38.081  17.340   0.374
22129W        W94389   1.048  21.691   2.412
22130W        W94390  43.594  15.142   1.915
22131W        W94391  43.759  40.112   2.895
22132W        W94392  24.096   7.391  12.395
22133W        W94393  19.907   0.969  12.409
22134W        W94394   5.488  14.093  13.094
22135W        W94395  22.342  36.086  11.569
22136W        W94396  39.513  42.527   4.288
22137W        W94397  36.890   4.614  12.015
22138W        W94398  16.768  28.765  11.185
22139W        W94399   6.184  23.667   2.338
22140W        W94400  17.690  20.166  12.545
22141W        W94401  22.067  16.319  10.664
22142W        W94402  29.764  17.332   1.209
22143W        W94403  15.242  38.802  14.043
22144W        W94404   2.196  14.164   4.742
22145W        W94405  15.668  10.383  14.835
22146W        W94406   7.079  39.032   3.589
22147W        W94407  36.926  24.113   0.493
22148W        W94408  24.662  15.601  12.059
22149W        W94409  26.976  17.774  12.509
22150W        W94410  37.646  12.010   4.221
22151W        W94411  19.515  19.224   3.875
22152W        W94412   6.643  14.068  11.464
22153W        W94413  34.460  18.698   1.047
22154W        W94414  34.502   3.493  14.912
22155W        W94415   0.822   3.315  10.733
22156W        W94416  24.539   5.286  11.670
22157W        W94417  32.699  44.481  12.955
22158W        W94418   7.494  38.229  13.987
22159W        W94419   7.791  18.101  11.265
22160W        W94420   1.423  16.321  14.289
22161W        W94421  12.831  43.376  13.393
22162W        W94422  42.555  24.027   1.904
22163W        W94423  18.961   0.598   3.768
22164W        W94424  29.180  39.887  13.861
22165W        W94425   9.194  26.707   0.946
22166W        W94426  22.178  24.859   4.700
22167W        W94427   3.807  36.835   0.498
22168W        W94428  42.335  19.806  14.615
22169W        W94429  28.664  16.621  11.591
22170W        W94430  18.652  31.193   1.259
22171W        W94431   3.652  31.301  13.845
22172W        W94432  27.955   3.264  12.868
22173W        W94433   7.792   2.684  12.088
22174W        W94434  39.051  26.727   2.466
22175W        W94435  21.285  36.382   4.185
22176W        W94436  17.620  27.578  12.439
22177W        W94437  23.894  33.300  14.340
22178W        W94438  21.248  16.477  13.147
22179W        W94439  28.098  31.569  12.869
22180W        W94440   4.801  21.578   1.698
22181W        W94441   7.304  36.989   4.596
22182W        W94442  22.508   9.661  13.945
22183W        W94443  28.915  39.931   3.171
22184W        W94444  23.105  23.505   2.995
22185W        W94445   9.734  36.440  13.509
22186W        W94446  18.809  21.663  10.526
22187W        W94447   3.371  25.638   1.220
22188W        W94448  12.296  24.712  10.568
22189W        W94449  13.528  22.702   3.422
22190W        W94450  30.116  11.915  11.159
22191W        W94451  27.380  37.446  10.560
22192W        W94452   2.887  25.080   4.287
22193W        W94453  28.418  34.034   0.028
22194W        W94454  40.490  44.883   1.516
22195W        W94455  34.094   6.416   0.833
22196W        W94456  22.022  23.197   2.212
22197W        W94457  33.384   6.850  12.380
22198W        W94458  22.499  26.760  10.998
22199W        W94459  44.764  29.668  14.751
22200W        W94460  30.494  38.112  11.634
22201W        W94461  24.781  35.403  13.731
22202W        W94462  19.697  19.970   0.977
22203W        W94463  35.643   5.584  14.700
22204W        W94464  21.012  18.840   0.593
22205W        W94465  43.302  16.945  14.078
22206W        W94466  43.752  31.131   3.829
22207W        W94467  16.733  32.942  12.934
22208W        W94468   6.655  17.676   4.745
22209W        W94469   3.237  23.078  13.852
22210W        W94470  25.134  16.133   2.228
22211W        W94471   2.206  30.932   1.021
22212W        W94472   2.701   0.531  11.506
22213W        W94473  27.331   9.167  14.523
22214W        W94474  40.981  25.548   0.430
22215W        W94475  12.750   1.475   4.758
22216W        W94476  13.657  37.296   4.832
22217W        W94477  28.100   5.387   0.501
22218W        W94478  18.588   1.606  14.334
22219W        W94479   7.428  34.970   2.192
22220W        W94480  10.102   4.852  14.243
22221W        W94481  34.136  27.700   3.460
22222W        W94482  10.968  28.618   4.050
22223W        W94483  40.954  35.055  11.580
22224W        W94484  18.056  25.252  13.537
22225W        W94485  22.198  22.859   0.837
22226W        W94486  27.925  29.982  11.131
22227W        W94487   9.279   3.339   3.511
22228W        W94488   2.917   4.402  14.199
22229W        W94489  19.687  38.509   1.996
22230W        W94490  24.897  24.523  13.553
22231W        W94491  39.405  44.763  11.042
22232W        W94492  12.110  36.833   0.765
22233W        W94493  18.739   7.810  13.326
22234W        W94494   2.313  29.523   0.203
22235W        W94495  15.313  34.860  13.777
22236W        W94496  44.134  21.688   0.743
22237W        W94497  12.051   8.648  10.636
22238W        W94498  43.723  38.562   0.903
22239W        W94499  23.547  11.574   3.470
22240W        W94500  14.526  15.598   1.333
22241W        W94501  21.428  32.784   0.268
22242W        W94502  38.327  20.033   2.402
22243W        W94503   5.653   2.793  11.532
22244W        W94504  14.313  25.526   2.139
22245W        W94505   5.831  11.562   2.897
22246W        W94506   0.824   3.070   0.338
22247W        W94507   6.380  36.311  13.155
22248W        W94508  21.658   8.132   4.597
22249W        W94509  42.737  11.629   4.872
22250W        W94510   2.925  13.056   2.726
22251W        W94511   4.938   6.869   4.257
22252W        W94512  38.233  26.140  11.181
22253W        W94513   4.989   6.448   4.587
22254W        W94514  19.495   2.467   1.040
22255W        W94515  24.941  10.308  10.692
22256W        W94516  43.787  25.672  13.736
22257W        W94517   8.203  44.743   3.980
22258W        W94518  44.973  17.272   4.598
22259W        W94519   5.245  32.549  12.601
22260W        W94520  18.840  14.235   3.990
22261W        W94521   1.451   7.443  12.910
22262W        W94522   5.438  34.482   4.127
22263W        W94523  32.546  28.415  11.552
22264W        W94524  38.293  14.627  12.844
22265W        W94525  31.431   4.862   4.636
22266W        W94526   3.343  14.954  11.126
22267W        W94527  38.950  40.884  14.415
22268W        W94528   8.627   3.380  14.934
22269W        W94529  33.515  20.436   1.927
22270W        W94530   4.813   7.726  11.653
22271W        W94531  38.937  28.479   2.861
22272W        W94532  36.069  16.010   0.206
22273W        W94533  42.500  31.575  12.597
22274W        W94534  11.139  10.155  12.720
22275W        W94535  41.919   9.302  12.104
22276W        W94536  19.535  14.775   2.933
22277W        W94537   5.403  32.094   3.319
22278W        W94538   3.761   6.798  13.277
22279W        W94539   6.285  31.213   0.083
22280W        W94540   0.406  35.069   0.295
22281W        W94541  10.596  40.825  11.245
22282W        W94542  13.718   7.259   2.700
22283W        W94543   3.979  16.121  14.938
22284W        W94544  12.651  31.503  11.897
22285W        W94545  26.309  40.594   4.321
22286W        W94546  21.782  20.583  11.991
22287W        W94547   1.019  34.271  12.450
22288W        W94548   2.200  23.979  14.476
22289W        W94549  40.345  42.197  14.368
22290W        W94550   9.728  19.740  14.251
22291W        W94551   5.717  42.016   2.185
22292W        W94552  34.334  13.349  13.159
22293W        W94553  41.770  20.009  11.561
22294W        W94554  39.039  25.098   1.849
22295W        W94555  26.035   4.962   0.757
22296W        W94556   1.768   1.495   4.228
22297W        W94557  26.930  42.759  13.486
22298W        W94558  43.288  24.680  13.014
22299W        W94559  12.582  14.546   1.774
22300W        W94560  40.222  42.320   0.812
22301W        W94561   7.918   8.595  13.664
22302W        W94562  29.584   7.769  10.652
22303W        W94563  12.568  10.843   1.352
22304W        W94564   0.824  11.223  13.232
22305W        W94565  26.253   3.687  13.849
22306W        W94566   5.886  32.076   3.097
22307W        W94567  43.086  25.693   1.323
22308W        W94568  26.584  11.153  12.949
22309W        W94569  11.716   7.664   1.423
22310W        W94570  32.719  26.563   1.164
22311W        W94571  13.669  31.341  13.982
22312W        W94572  11.640   9.447   1.772
22313W        W94573  28.650  33.614   1.014
22314W        W94574  14.403  29.688   5.019
22315W        W94575  22.781  43.182   2.747
22316W        W94576  20.726   1.155  13.526
22317W        W94577   3.435   3.671  14.406
22318W        W94578  20.788  41.845  13.981
22319W        W94579  23.081   4.470   4.556
22320W        W94580   9.374  32.628  13.317
22321W        W94581  30.942  26.307   1.591
22322W        W94582  26.947  27.085   2.409
22323W        W94583  19.262  11.200  13.787
22324W        W94584  41.757  11.910   0.330
22325W        W94585  27.017  23.070  10.659
22326W        W94586  26.636  12.878  14.274
22327W        W94587  19.793  29.716   2.384
22328W        W94588  37.178  26.051   2.812
22329W        W94589  26.117   9.091   4.542
22330W        W94590  16.742  38.255   4.604
22331W        W94591  20.105  17.148   2.378
22332W        W94592   9.363   5.436  12.379
22333W        W94593   8.554   2.724  12.467
22334W        W94594  41.223  13.541  11.903
22335W        W94595   9.907  42.297   1.227
22336W        W94596  41.435  28.434   0.138
22337W        W94597  31.645  12.282   0.839
22338W        W94598  39.438  26.934   3.722
22339W        W94599  20.113  23.402   1.140
22340W        W94600   4.385   9.623   1.479
22341W        W94601  34.438  29.895   1.182
22342W        W94602  18.718  38.359   4.701
22343W        W94603  20.243  33.908  14.893
22344W        W94604  44.807  25.333  14.270
22345W        W94605  15.844   0.951  10.690
22346W        W94606  44.542  18.344   0.689
22347W        W94607   0.009  39.852   4.687
22348W        W94608  44.943  23.068   2.254
22349W        W94609  31.802  16.255   0.680
22350W        W94610   2.339  31.005   0.034
22351W        W94611  22.908   7.349  14.933
22352W        W94612  13.246  38.650  13.375
22353W        W94613   7.407   0.782  11.622
22354W        W94614  12.880   4.630  12.381
22355W        W94615  32.524   3.690   4.099
22356W        W94616  42.881  39.128  14.941
22357W        W94617   6.025   3.297   2.189
22358W        W94618  29.410  10.718   2.587
22359W        W94619   3.726  10.390  12.422
22360W        W94620  21.338  27.518  11.037
22361W        W94621  30.291  44.158  10.769
22362W        W94622  41.676  16.305  11.605
22363W        W94623  27.762  21.217  12.599
22364W        W94624  23.460  21.061   4.558
22365W        W94625  13.736  17.585  12.660
22366W        W94626   3.130  14.300  13.517
22367W        W94627  12.300  16.569   0.938
22368W        W94628  14.000  40.547  11.109
22369W        W94629  10.816  18.947   4.065
22370W        W94630  27.685  34.940  13.498
22371W        W94631  16.560  38.011   2.743
22372W        W94632  29.596  15.622  12.630
22373W        W94633  18.718   9.674   1.522
22374W        W94634  35.288  24.440  11.646
22375W        W94635  44.358  21.472  12.753
22376W        W94636  37.048  18.106  13.228
22377W        W94637  38.727   4.915   9.853
22378W        W94638  13.164  30.012  14.525
22379W        W94639  33.575  29.445  11.708
22380W        W94640  35.040  36.882  13.476
22381W        W94641  21.008  40.038  12.411
22382W        W94642  13.572  17.045   2.374
22383W        W94643   3.732  13.715   3.113
22384W        W94644  16.081  32.023   0.774
22385W        W94645   9.920  19.038   0.837
22386W        W94646   6.652  23.104  14.749
22387W        W94647  14.808  42.557   2.217
22388W        W94648  21.156  15.588  14.081
22389W        W94649  36.939  28.388  13.910
22390W        W94650   9.251  29.038  10.954
22391W        W94651  18.659  23.591   4.191
22392W        W94652  20.101   1.541   1.854
22393W        W94653  32.835   5.193   1.293
22394W        W94654  17.473  42.319  14.866
22395W        W94655  17.255  11.423  13.810
22396W        W94656  17.313  15.754  12.041
22397W        W94657  12.406  30.392   3.854
22398W        W94658  34.075  18.555  11.125
22399W        W94659  31.013  18.002   1.262
22400W        W94660  31.237  13.618   4.221
22401W        W94661  32.240  30.593  14.766
22402W        W94662   8.308  39.263   4.700
22403W        W94663  32.445  28.549   3.491
22404W        W94664  15.345  26.780  13.378
22405W        W94665  38.690   4.688  11.154
22406W        W94666  31.089  35.569   0.855
22407W        W94667   0.066  16.800   4.758
22408W        W94668  26.466  34.848   0.194
22409W        W94669  10.734  23.716  12.177
22410W        W94670   2.091  19.620   5.037
22411W        W94671  36.774  27.395  11.839
22412W        W94672  24.235  22.450  10.259
22413W        W94673  25.539  23.024   2.956
22414W        W94674   8.071  26.050   2.752
22415W        W94675  35.842   5.523   2.748
22416W        W94676  20.440   5.329   0.972
22417W        W94677  14.463   3.733  12.833
22418W        W94678   8.163  11.184   1.850
22419W        W94679  43.181  28.218   4.214
22420W        W94680  17.090  44.829   1.092
22421W        W94681  23.187   3.221  10.742
22422W        W94682  18.755  37.219  12.870
22423W        W94683   6.847   2.665   1.267
22424W        W94684  14.824  12.762   4.171
22425W        W94685  33.719  17.988  14.507
22426W        W94686  21.197   2.693  13.054
22427W        W94687  23.488  20.596   3.288
22428W        W94688  18.533   1.250  11.580
22429W        W94689  42.024  33.404  13.852
22430W        W94690  39.964  43.787   3.352
22431W        W94691  13.721  41.287   3.161
22432W        W94692   8.900  34.093  12.331
22433W        W94693  24.782  34.461   1.718
22434W        W94694  19.999  30.364   3.523
22435W        W94695  40.060  19.269  13.796
22436W        W94696   6.443  22.526  14.372
22437W        W94697  11.550   6.779  13.885
22438W        W94698  22.371  11.890  11.393
22439W        W94699  13.171  34.158   2.331
22440W        W94700  41.738   7.298   3.731
22441W        W94701  31.855  31.425  10.489
22442W        W94702  27.139  29.855  13.799
22443W        W94703   6.967  21.716   3.905
22444W        W94704  11.444  37.025  11.480
22445W        W94705  32.392  35.660  13.905
22446W        W94706  38.994   1.750   1.766
22447W        W94707   7.384  21.535   4.717
22448W        W94708  35.636  19.627   2.133
22449W        W94709  34.147  11.140  12.926
22450W        W94710  41.613   3.943   3.252
22451W        W94711  39.211  37.061   3.668
22452W        W94712  15.760  33.327   4.228
22453W        W94713  23.943  33.892   2.461
22454W        W94714   0.293   3.284   4.694
22455W        W94715  14.331  38.792  13.934
22456W        W94716  16.086  42.811  13.279
22457W        W94717  22.756  31.362   2.618
22458W        W94718  40.794  17.337  11.527
22459W        W94719  16.255   4.782  12.944
22460W        W94720  37.132   1.839   0.354
22461W        W94721   2.099  29.462  12.404
22462W        W94722   9.885  25.212  14.570
22463W        W94723  15.714  36.630  13.867
22464W        W94724  17.319   5.878  12.014
22465W        W94725  11.294  20.156  14.090
22466W        W94726   2.970  41.878  12.882
22467W        W94727   9.125  37.093  13.403
22468W        W94728  10.320  12.108  13.507
22469W        W94729  26.250  17.107   3.335
22470W        W94730  13.302  11.719   1.272
22471W        W94731  20.367  37.449   4.522
22472W        W94732  32.415  14.006   0.892
22473W        W94733  14.724  37.645  13.403
22474W        W94734  39.781  39.542  10.494
22475W        W94735  38.984  20.770  13.002
22476W        W94736   8.865  37.269  10.811
22477W        W94737  13.184  31.879   0.044
22478W        W94738  38.529   9.430   9.890
22479W        W94739  40.778  24.937   3.003
22480W        W94740   6.223  28.042  14.699
22481W        W94741  40.744  17.252   2.506
22482W        W94742   3.219   6.908   0.189
22483W        W94743   1.652  35.004  13.493
22484W        W94744  40.927   5.648  11.570
22485W        W94745  42.432  14.056   4.629
22486W        W94746   9.682  37.687   3.363
22487W        W94747  27.530  44.338  12.443
22488W        W94748   3.716  24.557   2.109
22489W        W94749  12.417  26.191   3.332
22490W        W94750  10.063  44.995  12.067
22491W        W94751  42.111  27.907   0.851
22492W        W94752  39.896  27.188   1.347
22493W        W94753  18.780   9.753   0.231
22494W        W94754  34.326  14.156   0.807
22495W        W94755  33.727  16.413   4.207
22496W        W94756  33.105  34.870   4.956
22497W        W94757   2.286  34.386   4.197
22498W        W94758  12.312   6.206  14.575
22499W        W94759   1.047  11.226   1.968
22500W        W94760  38.577  14.750   3.225
22501W        W94761   9.380  43.993   4.977
22502W        W94762  30.081   1.533   4.061
22503W        W94763  41.345  22.547   4.902
22504W        W94764  44.277  41.540   3.674
22505W        W94765   7.099  12.614   2.701
22506W        W94766  39.608   7.652  13.590
22507W        W94767  35.019  39.892  14.158
22508W        W94768  10.591  27.418   0.333
22509W        W94769  35.534   8.288  11.649
22510W        W94770   5.608  36.524   1.856
22511W        W94771  21.384  42.086  12.411
22512W        W94772   1.706   3.856   1.251
22513W        W94773  12.287   5.666   4.170
22514W        W94774  14.325  37.528  11.667
22515W        W94775  23.741  40.934   2.262
22516W        W94776  35.092   8.353   4.654
22517W        W94777  16.856   7.774   0.425
22518W        W94778  34.338   1.777   0.391
22519W        W94779  12.819  29.402  11.527
22520W        W94780  15.666  11.773   1.298
22521W        W94781  31.751  42.561   1.380
22522W        W94782  17.654  44.742  12.863
22523W        W94783  43.920  18.778   4.093
22524W        W94784  32.945  42.503   0.369
22525W        W94785  28.900  29.875  13.938
22526W        W94786   5.480  33.696  11.767
22527W        W94787   4.724  22.035   4.623
22528W        W94788  24.592   7.233  11.079
22529W        W94789  13.860  14.685   5.193
22530W        W94790   5.496  26.644   2.661
22531W        W94791  18.654   5.103  14.521
22532W        W94792   1.708  35.564  14.923
22533W        W94793  44.089  36.492   2.784
22534W        W94794  42.832  16.406   4.026
22535W        W94795  12.664  24.375  10.697
22536W        W94796  19.786   6.471  13.089
22537W        W94797   7.231  13.736  14.895
22538W        W94798  19.198   8.505  10.228
22539W        W94799  38.144  21.618  11.562
22540W        W94800  41.601  43.317   1.819
22541W        W94801  37.804  30.387  12.648
22542W        W94802   0.505  34.544  13.094
22543W        W94803  13.466  41.791  11.193
22544W        W94804  38.302   2.258   3.549
22545W        W94805  39.898   6.862   0.496
22546W        W94806  14.677  39.652  11.651
22547W        W94807  28.588  40.324   1.381
22548W        W94808  17.879  18.753  10.738
22549W        W94809  25.229  13.199   2.484
22550W        W94810  40.498   5.054  11.861
22551W        W94811   8.113  21.536   0.796
22552W        W94812  20.150   8.524  10.214
22553W        W94813  23.564  29.051  11.140
22554W        W94814  43.286  19.518   3.194
22555W        W94815  23.656   2.734   3.362
22556W        W94816  17.251  37.439  10.269
22557W        W94817  20.140  42.420   1.026
22558W        W94818  12.160  24.244   0.917
22559W        W94819   6.338  25.191  13.950
22560W        W94820   6.762  17.247   1.644
22561W        W94821   3.962  17.594   0.817
22562W        W94822  20.763   7.338  12.559
22563W        W94823  31.814   4.794  13.487
22564W        W94824   0.461  16.950   3.265
22565W        W94825   5.951   8.827   0.214
22566W        W94826  43.040  33.162  10.093
22567W        W94827   7.157  23.957   2.579
22568W        W94828  19.598  21.664   1.015
22569W        W94829  13.136  32.707   4.209
22570W        W94830  29.602  25.080   2.313
22571W        W94831   3.947  41.113   0.322
22572W        W94832   0.555  25.466   1.262
22573W        W94833  26.999  10.405  14.041
22574W        W94834  21.922  24.047   2.890
22575W        W94835  40.079   0.901  14.398
22576W        W94836  13.183  21.792   2.366
22577W        W94837  37.582  23.428   0.366
22578W        W94838  20.258  34.930   3.448
22579W        W94839  31.075   2.946  13.249
22580W        W94840  22.027   4.419   4.827
22581W        W94841  19.141   8.989  14.279
22582W        W94842  36.283  41.354   0.985
22583W        W94843  38.493  28.147  11.217
22584W        W94844  39.603  34.894  14.001
22585W        W94845  38.220  41.810  12.826
22586W        W94846  17.671   3.572  11.884
22587W        W94847  15.760  13.768  14.917
22588W        W94848  22.099  27.115   2.713
22589W        W94849  43.198  42.352  11.759
22590W        W94850  35.145  18.756  11.685
22591W        W94851   2.778  10.859   1.250
22592W        W94852  40.360  30.971   0.422
22593W        W94853  20.249  20.684   4.164
22594W        W94854   3.534  29.111   2.921
22595W        W94855  29.569  11.137  14.397
22596W        W94856  37.604  13.803   0.974
22597W        W94857  15.311  39.250   1.485
22598W        W94858  10.410   1.257  14.596
22599W        W94859  28.640   8.167  13.679
22600W        W94860  25.923  13.158   4.139
22601W        W94861  43.994  28.636  14.347
22602W        W94862  38.353  37.060   3.617
22603W        W94863  30.593  23.756   4.335
22604W        W94864  10.882  12.663  10.533
22605W        W94865  35.399  17.602  12.504
22606W        W94866  37.890  24.079  14.490
22607W        W94867  23.774  36.812   0.460
22608W        W94868  13.646  18.066   2.859
22609W        W94869  39.415  19.001  11.566
22610W        W94870  29.032  17.677   0.330
22611W        W94871  41.872  19.339   1.309
22612W        W94872  22.642  29.941  14.926
22613W        W94873  37.018  22.933   4.108
22614W        W94874   8.688  44.077  13.953
22615W        W94875   8.083   5.834  13.570
22616W        W94876  25.100  27.634   3.620
22617W        W94877  29.955  32.643   5.222
22618W        W94878  33.503  37.584   4.132
22619W        W94879  19.007  10.266   1.277
22620W        W94880  23.095  35.853  12.457
22621W        W94881   7.591  26.377   4.107
22622W        W94882   1.184  40.600   4.905
22623W        W94883   5.938  27.185   4.375
22624W        W94884  44.345  28.607  12.400
22625W        W94885  29.975   2.747  14.970
22626W        W94886  13.199  41.092   2.334
22627W        W94887  17.230  44.196  11.504
22628W        W94888   3.323  15.997  12.160
22629W        W94889  13.380  11.220   1.365
22630W        W94890   9.003  14.259  10.127
22631W        W94891  44.352  28.148   2.375
22632W        W94892  22.221  12.517  11.986
22633W        W94893  13.393   7.803   2.176
22634W        W94894   1.577  24.897   2.733
22635W        W94895   9.081  12.781   9.871
22636W        W94896  28.062  42.545  12.492
22637W        W94897  36.864  34.427  14.794
22638W        W94898  44.897   9.644   2.323
22639W        W94899  39.458  27.160   4.750
22640W        W94900   5.376  21.755  11.158
22641W        W94901  36.924  31.026  13.877
22642W        W94902  24.021  39.418  12.316
22643W        W94903  39.777   9.026   2.241
22644W        W94904   9.827  37.361   1.296
22645W        W94905  18.552  19.075   1.153
22646W        W94906   8.636  43.450  11.492
22647W        W94907  11.393  37.136  14.066
22648W        W94908  44.262  25.832   3.273
22649W        W94909  42.249  42.913  10.760
22650W        W94910  17.997  29.077  13.935
22651W        W94911  26.867  15.208  11.371
22652W        W94912  17.202   5.253   3.065
22653W        W94913  34.537  21.482   1.955
22654W        W94914  18.031  41.923  13.432
22655W        W94915  32.110   7.117  13.471
22656W        W94916  21.224  24.661  10.435
22657W        W94917  27.767  25.291   3.885
22658W        W94918  24.967  42.220  11.745
22659W        W94919  16.792   4.333  11.458
22660W        W94920   1.484  20.384  12.579
22661W        W94921  17.287   0.254   5.139
22662W        W94922   6.390  14.693   2.724
22663W        W94923  23.266   1.106  12.713
22664W        W94924   6.890   6.760  12.584
22665W        W94925   5.706  18.748  14.384
22666W        W94926  15.453  40.039   4.562
22667W        W94927  24.620  33.307   4.938
22668W        W94928  22.081  28.423   5.500
22669W        W94929  19.044  14.552   2.945
22670W        W94930  40.597  15.159   2.435
22671W        W94931  24.572  39.487   1.317
22672W        W94932  16.533  17.784  10.775
22673W        W94933  35.643  43.943   1.283
22674W        W94934  24.703  44.516  13.528
22675W        W94935   7.915  10.819   4.653
22676W        W94936  10.458  24.450  12.924
22677W        W94937  41.940  20.202  12.000
22678W        W94938  24.314  27.501  12.201
22679W        W94939  36.667   7.769  12.533
22680W        W94940  37.130  44.759  14.917
22681W        W94941  32.557   4.494  13.860
22682W        W94942  43.027   6.850  13.297
22683W        W94943  23.182  35.886   4.553
22684W        W94944  12.265  44.933  12.159
22685W        W94945  38.981   4.526  14.573
22686W        W94946  13.829  23.092   4.575
22687W        W94947  40.017  42.842  11.967
22688W        W94948   7.865  34.086   2.308
22689W        W94949  15.994  39.837   2.362
22690W        W94950  26.737  18.203   4.318
22691W        W94951   7.670   6.703   3.724
22692W        W94952   1.933  22.837   4.640
22693W        W94953  21.134  17.103  10.746
22694W        W94954  24.110  11.621   1.811
22695W        W94955  11.104   3.724  11.607
22696W        W94956  42.981  18.025   0.937
22697W        W94957  23.686  37.676  11.445
22698W        W94958  20.838  43.176   5.096
22699W        W94959  24.431  33.668  13.342
22700W        W94960  27.177   8.704  12.860
22701W        W94961  23.279  19.873  14.687
22702W        W94962   9.720   0.076   3.754
22703W        W94963   7.465   3.269   4.101
22704W        W94964  18.155  10.931   4.144
22705W        W94965   1.888   1.748  10.611
22706W        W94966  25.487  29.214   1.832
22707W        W94967   7.307   4.282   0.424
22708W        W94968  38.598  20.636  14.451
22709W        W94969   4.637  34.786  14.904
22710W        W94970  36.382  26.392   3.176
22711W        W94971  29.928  28.051   0.846
22712W        W94972  27.477  37.143   2.390
22713W        W94973  25.098  12.611  12.475
22714W        W94974   7.782  11.591   1.242
22715W        W94975  25.882  25.221  13.036
22716W        W94976  18.159   8.913   4.646
22717W        W94977  24.259  41.453   3.146
22718W        W94978   5.405  11.373   3.117
22719W        W94979  25.488   4.673  13.283
22720W        W94980  35.674  24.694   0.421
22721W        W94981  36.552  14.307   1.385
22722W        W94982  40.090   1.237  14.850
22723W        W94983   9.177  20.530   2.573
22724W        W94984  10.237  10.705  12.971
22725W        W94985  34.730  36.409  11.146
22726W        W94986  26.230  20.714   4.101
22727W        W94987  44.091  22.155  10.736
22728W        W94988  18.066  22.476  11.258
22729W        W94989   5.670  17.031  13.262
22730W        W94990  16.048   3.800  11.434
22731W        W94991  38.832  17.795  12.566
22732W        W94992  15.205  27.246   3.888
22733W        W94993   9.816  44.870   0.262
22734W        W94994  21.208   5.798   0.731
22735W        W94995  14.724  11.302  14.254
22736W        W94996  25.440  43.027  14.503
22737W        W94997  44.178  21.539  14.803
22738W        W94998  31.159  19.153   4.763
22739W        W94999  15.104  24.550  10.761
22740W        W95000  17.525  12.762  13.864
22741W        W95001   9.341   5.386  13.967
22742W        W95002  25.726   1.538  12.320
22743W        W95003  22.231   8.389   1.390
22744W        W95004  30.183  19.975   1.915
22745W        W95005  17.176   1.555  13.913
22746W        W95006  29.875  19.294   0.497
22747W        W95007  22.154   2.208   4.296
22748W        W95008  12.123  32.999   4.524
22749W        W95009  33.431  39.274  10.751
22750W        W95010  27.055  30.362  13.895
22751W        W95011  30.195  21.971   2.815
22752W        W95012   2.766  23.176   0.387
22753W        W95013  22.980   4.668   2.645
22754W        W95014  20.584  41.948  12.060
22755W        W95015  15.752  38.572   1.504
22756W        W95016  13.304  18.879  13.503
22757W        W95017   4.241  37.166   2.749
22758W        W95018   7.312  36.386   4.193
22759W        W95019  14.706  12.213   1.271
22760W        W95020  38.752   7.334   1.423
22761W        W95021  11.911  38.410  13.072
22762W        W95022  10.809   9.706  13.323
22763W        W95023   6.151  42.803   2.212
22764W        W95024   2.181  40.109  12.995
22765W        W95025  40.164  27.534  12.942
22766W        W95026  29.952  33.225   2.844
22767W        W95027  15.679  17.172  11.487
22768W        W95028  13.700  24.595  14.052
22769W        W95029  29.431  25.184  14.784
22770W        W95030  13.616  34.505   2.754
22771W        W95031  24.664  29.934   2.318
22772W        W95032  33.849  14.156   4.375
22773W        W95033  30.390  14.136   1.575
22774W        W95034   9.709  36.816   3.637
22775W        W95035  25.198  10.221  13.451
22776W        W95036  21.731  15.237  14.269
22777W        W95037   7.738  10.075  13.406
22778W        W95038  10.454  37.582  13.487
22779W        W95039   0.281  40.786  12.083
22780W        W95040  30.048  36.503   0.399
22781W        W95041  16.425  25.485   1.314
22782W        W95042  29.139   8.008  14.584
22783W        W95043  17.844   8.724   0.255
22784W        W95044  43.787   2.374  12.051
22785W        W95045  27.183  42.095   5.540
22786W        W95046  37.569   6.480  13.538
22787W        W95047  38.462  44.418  10.649
22788W        W95048   0.710  18.556   0.946
22789W        W95049  43.284  38.929  10.762
22790W        W95050   9.188  12.620  13.421
22791W        W95051  22.118  36.132   4.210
22792W        W95052  20.661  38.439   2.251
22793W        W95053   3.860  31.975  13.572
22794W        W95054  20.135  14.227   0.848
22795W        W95055  39.627   2.240   1.458
22796W        W95056  24.551   9.761   3.757
22797W        W95057  35.777  22.193   0.663
22798W        W95058  22.926  38.470  12.452
22799W        W95059   5.898   8.118  12.951
22800W        W95060   5.949   9.168  11.458
22801W        W95061   6.547  44.188   1.956
22802W        W95062  34.457  42.320   3.837
22803W        W95063  13.730  27.792   2.972
22804W        W95064   6.739  43.558   0.762
22805W        W95065  24.687  39.844   0.939
22806W        W95066  27.131   8.727   2.656
22807W        W95067   7.231   7.663   0.973
22808W        W95068  34.594  35.143   1.437
22809W        W95069  38.769  19.702   2.453
22810W        W95070  40.485  16.825   2.338
22811W        W95071  40.319  25.210  13.358
22812W        W95072  35.894  30.107  12.982
22813W        W95073  13.825  15.601   4.144
22814W        W95074  36.852  23.220   3.686
22815W        W95075  29.393  41.795  11.584
22816W        W95076  17.659   2.173   0.265
22817W        W95077  21.143  12.859  13.116
22818W        W95078   8.640   7.491   4.182
22819W        W95079  31.420  11.130   2.252
22820W        W95080  23.691   0.795  12.688
22821W        W95081  30.414  30.052  12.797
22822W        W95082   1.450  18.960  12.427
22823W        W95083  38.268   1.019  12.869
22824W        W95084   0.358  19.506  12.534
22825W        W95085  13.600   4.367  13.846
22826W        W95086  41.891  20.099   2.650
22827W        W95087   7.883  43.902  14.409
22828W        W95088   6.762  10.858  10.409
22829W        W95089  16.191  12.554  12.430
22830W        W95090  36.647  32.048   4.193
22831W        W95091  31.543  35.097   3.134
22832W        W95092  23.657  26.848  13.470
22833W        W95093  10.845   9.390   1.280
22834W        W95094   5.147   8.471  10.605
22835W        W95095  10.630  39.400   3.271
22836W        W95096  39.791  20.649  14.844
22837W        W95097  14.303  31.150   0.688
22838W        W95098  15.888  33.500  14.003
22839W        W95099  18.662  11.329   3.828
22840W        W95100   9.513   4.287  11.140
22841W        W95101  26.198  37.793   2.234
22842W        W95102  35.906  21.703   0.779
22843W        W95103  39.485  19.738  11.446
22844W        W95104  16.851  17.218   0.204
22845W        W95105  23.851  23.044   4.906
22846W        W95106  36.347  13.655  10.384
22847W        W95107  29.133   9.586   0.259
22848W        W95108   6.460  26.869  14.480
22849W        W95109  11.393   1.388  13.427
22850W        W95110  30.502  25.411  12.425
22851W        W95111  15.707  34.167   2.681
22852W        W95112   0.868   5.837   2.136
22853W        W95113  15.404  41.429  11.520
22854W        W95114  23.162  23.180  10.776
22855W        W95115  40.416  21.509  12.042
22856W        W95116   7.386  26.129  10.577
22857W        W95117  24.184  24.616  13.038
22858W        W95118  42.472  27.291  12.180
22859W        W95119  21.094  39.936  10.269
22860W        W95120   4.726  43.772   4.666
22861W        W95121  13.708  29.553   4.247
22862W        W95122  31.674  13.401   1.242
22863W        W95123  44.657  28.976   1.376
22864W        W95124  13.224   6.690   0.681
22865W        W95125   2.084  23.195  11.015
22866W        W95126  13.579  12.133   0.344
22867W        W95127  30.028   1.380  12.600
22868W        W95128   0.939  39.064   1.310
22869W        W95129   3.395  21.687   2.052
22870W        W95130  15.222   6.686   2.765
22871W        W95131  35.605  25.041   4.267
22872W        W95132   1.880  34.492  13.359
22873W        W95133  25.004  23.718  14.917
22874W        W95134   3.233  29.199  11.516
22875W        W95135  23.343  41.334   4.525
22876W        W95136  43.722   6.830  12.010
22877W        W95137   5.450  23.663   4.141
22878W        W95138   0.920  20.656  13.153
22879W        W95139  39.621  40.128   3.801
22880W        W95140   5.153  35.428  14.504
22881W        W95141   5.463   3.836  13.614
22882W        W95142  12.799  13.668   3.659
22883W        W95143  27.149   5.175   4.184
22884W        W95144  40.378  24.694  11.520
22885W        W95145  29.262  24.539  14.502
22886W        W95146  20.025  33.616   3.634
22887W        W95147   0.800  26.469   2.846
22888W        W95148   6.438  11.930  14.018
22889W        W95149   5.827  36.824   0.942
22890W        W95150  44.402  25.600  13.510
22891W        W95151  18.090  37.790  13.413
22892W        W95152  38.022  28.561   0.942
22893W        W95153   0.902  29.135  10.751
22894W        W95154   0.501   9.231  13.065
22895W        W95155  10.756  38.449   4.905
22896W        W95156  39.631  33.253  12.138
22897W        W95157   3.044  15.058   2.771
22898W        W95158  20.781  11.897   4.484
22899W        W95159  28.940  20.259   1.320
22900W        W95160  21.314  38.339  10.708
22901W        W95161  26.598  22.613   2.730
22902W        W95162  16.992   1.707  13.431
22903W        W95163  24.081  31.099   0.578
22904W        W95164  38.019   1.517   4.228
22905W        W95165  24.455  28.523   4.264
22906W        W95166   5.806  32.956  14.917
22907W        W95167  29.010   4.745   4.875
22908W        W95168  29.587  19.788  14.979
22909W        W95169  11.545  41.360  11.963
22910W        W95170  29.032  14.424   3.701
22911W        W95171  19.490   9.614  13.322
22912W        W95172  21.766  41.569   0.394
22913W        W95173  41.858   4.876   0.665
22914W        W95174   6.140  35.624  14.335
22915W        W95175  37.344   3.773  11.517
22916W        W95176  29.851  20.756   2.156
22917W        W95177  28.917  11.327  13.807
22918W        W95178  16.242  11.548  14.280
22919W        W95179  20.603  16.549   2.227
22920W        W95180  38.285  41.967   2.789
22921W        W95181  16.244  12.610  13.413
22922W        W95182   9.118   0.872  13.989
22923W        W95183   6.839  22.787   4.269
22924W        W95184  14.703  10.391   1.659
22925W        W95185  39.139  29.558  11.154
22926W        W95186   3.840   1.974  10.761
22927W        W95187  16.369  19.497   3.237
22928W        W95188  19.072  25.160   2.184
22929W        W95189   0.940  22.539  12.880
22930W        W95190  25.236  40.145   3.672
22931W        W95191  21.718  24.102  14.938
22932W        W95192   8.675  14.743  14.916
22933W        W95193  26.704  33.540  14.323
22934W        W95194  34.006  22.992   0.735
22935W        W95195  44.379  14.956  13.388
22936W        W95196   0.276  44.364   3.828
22937W        W95197   7.425  31.969  13.474
22938W        W95198  24.994  29.064   2.591
22939W        W95199  26.498  33.723   4.712
22940W        W95200   8.497   9.866   4.718
22941W        W95201  29.661  39.075   0.387
22942W        W95202  20.962   9.807   2.705
22943W        W95203  35.940  27.567  12.548
22944W        W95204  21.133   7.285  13.489
22945W        W95205  12.582  23.174  12.060
22946W        W95206  28.498  20.593  13.933
22947W        W95207   5.764  29.531  10.720
22948W        W95208  19.487  10.768   3.682
22949W        W95209  25.712  23.196  13.600
22950W        W95210  35.968  15.451   5.235
22951W        W95211  24.982   1.443  12.177
22952W        W95212  24.240  21.164   2.858
22953W        W95213  42.386  10.225   0.036
22954W        W95214  25.717  10.217  13.478
22955W        W95215  28.070  10.598   0.914
22956W        W95216   0.160  29.990  12.034
22957W        W95217   7.401  33.787  13.514
22958W        W95218  39.933   9.340   2.650
22959W        W95219  39.481  26.958   1.590
22960W        W95220  33.199  16.632   1.468
22961W        W95221  28.639  30.775   2.202
22962W        W95222  37.709   1.156  11.333
22963W        W95223  41.032   8.652  12.456
22964W        W95224  16.970  31.213   3.300
22965W        W95225  37.950  36.601   0.759
22966W        W95226  15.293  17.244   4.572
22967W        W95227  11.878  38.883   4.107
22968W        W95228  23.581  23.174   1.752
22969W        W95229  27.232  12.076   2.789
22970W        W95230  30.854   9.679   1.226
22971W        W95231  30.243  17.580   1.999
22972W        W95232  40.904   1.828   0.939
22973W        W95233  10.896  36.015  14.838
22974W        W95234  22.991  30.077   1.022
22975W        W95235  31.082  28.710   1.703
22976W        W95236  16.709  33.442   3.889
22977W        W95237   8.335  34.225   4.248
22978W        W95238  40.978   3.980   0.302
22979W        W95239  38.422  29.995  10.640
22980W        W95240  21.246  41.796  11.533
22981W        W95241   4.319  19.735  14.846
22982W        W95242  26.881  12.272   3.750
22983W        W95243  18.451  24.209   2.671
22984W        W95244  34.542   4.912  10.790
22985W        W95245  19.197  37.703  13.457
22986W        W95246   1.357  34.030   3.890
22987W        W95247   7.463  44.371   2.792
22988W        W95248  34.041  39.466  12.418
22989W        W95249  17.812  11.927  10.961
22990W        W95250  24.966  44.399  13.946
22991W        W95251  42.416  29.717   4.683
22992W        W95252  24.713  32.694   0.483
22993W        W95253  36.633   7.608   2.766
22994W        W95254  24.700  10.770  10.691
22995W        W95255  14.433  45.000   0.832
22996W        W95256   7.723  25.566   0.672
22997W        W95257  13.619  32.850   3.532
22998W        W95258  34.505  17.150  14.691
22999W        W95259  23.134  31.445  10.652
23000W        W95260  29.156   6.875   3.103
23001W        W95261  25.399  38.029   1.939
23002W        W95262  40.766  43.385  11.076
23003W        W95263  28.916   9.914   2.985
23004W        W95264  42.919  41.929  13.083
23005W        W95265  35.492   9.365  13.954
23006W        W95266  33.005  30.255  10.315
23007W        W95267   9.638  29.999  13.473
23008W        W95268  28.219  34.712  10.032
23009W        W95269  37.632   5.677   1.370
23010W        W95270  44.368  31.053  11.587
23011W        W95271  44.614  41.455   4.041
23012W        W95272  16.787  13.638   2.832
23013W        W95273  40.550  10.342  13.424
23014W        W95274  18.310  26.791  10.188
23015W        W95275  25.558  19.578   4.570
23016W        W95276  10.683   4.260   0.693
23017W        W95277  41.129  41.261  13.937
23018W        W95278  28.227  31.138  14.880
23019W        W95279   6.735   0.976  14.531
23020W        W95280   6.224   2.760   3.917
23021W        W95281   3.551  16.899  11.578
23022W        W95282  27.726  27.002   2.001
23023W        W95283  31.681  31.143   4.174
23024W        W95284  43.503  10.100   1.517
23025W        W95285   3.564  21.032  13.870
23026W        W95286  41.738  28.659   3.460
23027W        W95287  15.767  29.452   3.321
23028W        W95288  31.604  19.542   2.614
23029W        W95289  44.393  43.821  14.729
23030W        W95290   0.465   6.413  12.149
23031W        W95291   5.178   9.190   1.373
23032W        W95292   9.618  21.607  10.766
23033W        W95293   0.508  23.734  11.842
23034W        W95294   6.353  32.617   2.208
23035W        W95295   7.367  17.049  10.612
23036W        W95296  21.004  27.579   9.809
23037W        W95297   8.291  39.233  14.727
23038W        W95298  10.044  39.693   4.216
23039W        W95299  30.538  38.795  12.201
23040W        W95300  11.729   8.713  14.984
23041W        W95301  42.195  42.408   1.743
23042W        W95302   0.177  20.811  11.043
23043W        W95303  20.685  32.631   1.916
23044W        W95304  41.607   4.703   1.515
23045W        W95305  33.574   8.829  11.145
23046W        W95306  41.391   2.473  13.397
23047W        W95307  26.171   7.270  12.584
23048W        W95308  20.492  26.691   0.746
23049W        W95309  28.636  15.355   0.686
23050W        W95310  32.065  34.632   1.276
23051W        W95311  12.927  30.282   5.031
23052W        W95312  25.624   2.310   0.064
23053W        W95313  19.443  19.011   4.352
23054W        W95314   2.335  36.480  12.002
23055W        W95315  17.323  29.552  11.149
23056W        W95316  24.666  43.513  13.010
23057W        W95317  29.400   4.643   4.545
23058W        W95318  35.966  23.000  12.485
23059W        W95319  38.336   7.028   1.335
23060W        W95320   5.429   3.420  13.920
23061W        W95321  36.964  26.451   1.855
23062W        W95322  40.711  10.380   4.114
23063W        W95323  13.387  10.093  14.789
23064W        W95324  16.839  30.477   3.982
23065W        W95325  22.548  13.907   1.315
23066W        W95326  41.707  28.905   1.746
23067W        W95327  11.181  28.135   0.448
23068W        W95328  41.047  14.729  10.386
23069W        W95329  31.119  29.484  14.883
23070W        W95330  30.482   9.948  14.988
23071W        W95331  13.775   0.887   2.954
23072W        W95332  30.528  32.798   2.340
23073W        W95333   0.501  17.108  13.799
23074W        W95334  40.376  34.781  13.446
23075W        W95335  23.014  24.968   0.769
23076W        W95336  23.059  39.276   3.623
23077W        W95337  16.641  42.514  14.775
23078W        W95338  38.584  31.849  13.974
23079W        W95339  41.828  44.947  13.891
23080W        W95340   2.906   7.069   3.224
23081W        W95341  30.911  37.535   4.154
23082W        W95342   3.508  13.324  13.759
23083W        W95343  34.649  12.372  11.639
23084W        W95344  35.706  22.096  13.381
23085W        W95345  23.211  40.813  12.870
23086W        W95346  22.227   1.688  14.921
23087W        W95347   1.502  23.569  14.858
23088W        W95348  44.013  21.718  13.577
23089W        W95349  28.466  42.798   2.387
23090W        W95350  22.244  40.273   1.686
23091W        W95351  42.890  10.483   3.645
23092W        W95352  11.926  33.023  11.040
23093W        W95353  42.606  38.686   0.350
23094W        W95354  40.771   8.258   1.986
23095W        W95355  19.738  10.732  14.885
23096W        W95356  41.952  23.519  12.983
23097W        W95357  30.588  19.609  14.399
23098W        W95358  40.944  37.629  12.983
23099W        W95359  43.211  20.234  11.187
23100W        W95360  12.565  35.574   4.544
23101W        W95361  34.459  38.065  11.717
23102W        W95362  17.188  36.408   0.267
23103W        W95363  15.953  12.066   0.890
23104W        W95364  26.039  16.490  14.795
23105W        W95365  20.161  27.818   4.874
23106W        W95366  43.825  25.904  12.972
23107W        W95367  43.746  29.496   4.610
23108W        W95368  31.557   5.309   4.357
23109W        W95369  36.103  42.986   0.772
23110W        W95370  32.049  30.759  12.991
23111W        W95371  22.514   1.306   3.108
23112W        W95372  28.742  39.508   3.461
23113W        W95373  13.703  25.584  11.117
23114W        W95374  25.140   5.388  11.402
23115W        W95375  31.497  37.206   4.193
23116W        W95376   4.954  17.266   3.665
23117W        W95377   9.982  42.863   3.754
23118W        W95378  23.670  13.744  13.525
23119W        W95379  17.261   3.717   4.669
23120W        W95380  10.881  33.417   0.218
23121W        W95381   5.311   8.186   2.716
23122W        W95382  12.629  34.097  14.881
23123W        W95383  23.765  23.212  10.472
23124W        W95384  11.747  37.305   1.930
23125W        W95385  30.663  19.085   4.605
23126W        W95386  24.904  28.100   9.534
23127W        W95387  10.334  39.287   1.355
23128W        W95388  19.725  38.428   1.462
23129W        W95389   9.343  32.472  11.451
23130W        W95390   2.931  21.473   2.266
23131W        W95391  14.760  15.555  14.447
23132W        W95392  17.418   8.291  12.556
23133W        W95393   6.281  12.892  14.044
23134W        W95394  35.215   0.852   3.874
23135W        W95395  35.018  42.811  12.651
23136W        W95396  44.977  14.284   2.283
23137W        W95397   6.161   3.752   1.851
23138W        W95398   5.218  29.982  14.942
23139W        W95399  15.756   3.728  10.092
23140W        W95400  38.912   8.184   0.808
23141W        W95401   7.741  35.751   0.312
23142W        W95402  11.809  16.736   3.641
23143W        W95403  15.065  28.341   2.445
23144W        W95404  36.545  15.554   0.911
23145W        W95405  34.285  13.129  14.367
23146W        W95406  15.226  27.617   9.834
23147W        W95407  33.207  35.908   0.786
23148W        W95408  36.086  41.163   1.424
23149W        W95409   1.702  40.473  13.865
23150W        W95410  12.602  13.552   3.192
23151W        W95411  16.243  13.279   3.693
23152W        W95412  19.484  15.218   3.609
23153W        W95413  31.502   6.830  13.862
23154W        W95414  27.184  31.014   4.208
23155W        W95415  13.812  20.037  11.872
23156W        W95416   0.482  31.593  12.581
23157W        W95417   3.637  24.480   4.399
23158W        W95418   9.080  33.526   0.781
23159W        W95419  43.434  43.989  12.972
23160W        W95420  32.694  44.227  11.634
23161W        W95421  23.914  17.368  14.940
23162W        W95422  19.497  41.272  13.627
23163W        W95423   6.867  42.278  10.908
23164W        W95424  14.396   5.241   2.616
23165W        W95425  24.151   5.468  12.580
23166W        W95426  39.746  20.093   0.445
23167W        W95427  38.259  24.387   1.851
23168W        W95428  22.677  19.582   0.577
23169W        W95429  30.910  11.244   4.433
23170W        W95430  37.613  37.485   2.297
23171W        W95431  23.472  19.804  13.342
23172W        W95432  29.674  13.653  12.495
23173W        W95433   8.044  12.578  11.576
23174W        W95434   8.248  22.646   4.396
23175W        W95435  22.074  19.027  13.139
23176W        W95436  31.675  23.054  13.047
23177W        W95437  18.184  31.544  14.680
23178W        W95438  19.821  40.335   2.514
23179W        W95439   2.382  14.065   0.414
23180W        W95440  32.708   0.255   1.303
23181W        W95441  36.630  32.426  13.859
23182W        W95442  37.573  23.507  11.644
23183W        W95443  37.780  14.320  14.540
23184W        W95444   7.925  34.453   1.777
23185W        W95445  16.605  14.697   2.770
23186W        W95446  21.922   9.189  12.096
23187W        W95447  17.499  15.325   3.784
23188W        W95448  25.278  41.161  13.697
23189W        W95449  11.060  24.539  14.579
23190W        W95450  21.113  35.950   2.719
23191W        W95451  16.341  15.033   2.320
23192W        W95452   4.212  23.024   1.803
23193W        W95453  32.104   7.250  11.748
23194W        W95454  22.116  28.969  10.086
23195W        W95455  43.332  35.386  10.908
23196W        W95456  44.739  22.726  12.392
23197W        W95457   1.937  16.329  10.937
23198W        W95458  35.622  12.284   2.263
23199W        W95459   3.167  32.078  11.582
23200W        W95460  28.903  17.734  13.041
23201W        W95461  23.328  13.622   1.706
23202W        W95462  28.966   4.743   4.302
23203W        W95463  21.969  16.780  10.438
23204W        W95464  39.627  12.283   3.690
23205W        W95465   1.556  26.954   3.221
23206W        W95466   3.472  14.812  14.375
23207W        W95467  24.816   6.215  11.611
23208W        W95468  28.137  30.130  11.569
23209W        W95469  14.883  25.394   0.950
23210W        W95470  20.574  26.612  12.561
23211W        W95471   5.838  33.838  11.420
23212W        W95472  43.625  24.051  12.095
23213W        W95473  24.959  35.867  11.666
23214W        W95474  19.600  40.511  11.410
23215W        W95475  22.931  41.940  14.889
23216W        W95476   3.207  32.311  11.129
23217W        W95477  15.274  19.644   2.205
23218W        W95478  38.479  11.735  12.458
23219W        W95479   6.217  21.202   3.791
23220W        W95480  24.569  28.551  12.507
23221W        W95481  39.751   7.868   2.800
23222W        W95482  24.101  44.431   2.766
23223W        W95483  35.061   3.347  14.239
23224W        W95484  22.248  37.104   0.631
23225W        W95485  22.988  15.135  11.993
23226W        W95486  21.457  16.194   0.519
23227W        W95487  17.651  27.934   0.865
23228W        W95488   6.657  39.921   2.842
23229W        W95489  10.803   9.098   3.147
23230W        W95490  27.896  38.991  14.545
23231W        W95491  10.664  18.152   1.959
23232W        W95492  27.737  17.265  11.011
23233W        W95493  39.632  26.159  14.499
23234W        W95494   4.094  26.126  10.302
23235W        W95495  30.713  37.646  10.926
23236W        W95496  17.244  41.504  10.614
23237W        W95497  13.646  32.626  13.213
23238W        W95498  42.861  22.435  10.163
23239W        W95499  16.667  17.387  11.575
23240W        W95500  43.196  26.381  12.380
23241W        W95501  12.274   4.699  14.545
23242W        W95502  10.652  39.715  14.735
23243W        W95503   6.334  32.930   4.074
23244W        W95504  23.121  17.367   2.688
23245W        W95505  32.289  10.504   0.095
23246W        W95506   3.957  44.638  11.342
23247W        W95507   4.616  41.889   4.662
23248W        W95508  19.222  35.506   2.728
23249W        W95509  15.520  37.421  14.512
23250W        W95510  27.191   4.710  12.376
23251W        W95511   2.414   2.274   4.977
23252W        W95512  40.275  26.995   0.780
23253W        W95513  11.915   5.088  11.076
23254W        W95514  30.433  25.725   0.876
23255W        W95515  24.585   7.816  14.550
23256W        W95516  25.536   7.220  13.343
23257W        W95517   0.983  33.313   2.906
23258W        W95518  37.277   1.356   3.059
23259W        W95519   9.906  28.353   3.242
23260W        W95520   7.752  34.070   1.056
23261W        W95521  34.113  12.949  13.410
23262W        W95522  26.974   6.155  13.793
23263W        W95523  18.233  42.008   3.150
23264W        W95524  31.844  39.597  11.611
23265W        W95525  11.208  26.179   2.589
23266W        W95526   2.671  13.668   4.785
23267W        W95527  39.585  32.125  13.790
23268W        W95528  24.199  13.928   2.732
23269W        W95529  21.632  28.652  13.767
23270W        W95530  34.718  40.144   3.719
23271W        W95531  18.608  27.194   0.245
23272W        W95532  30.909  31.334  11.298
23273W        W95533  22.521  28.888   3.271
23274W        W95534   8.606  41.140  13.008
23275W        W95535  20.202  33.941  10.770
23276W        W95536  34.665   2.877  11.593
23277W        W95537  33.892  34.346  12.875
23278W        W95538  12.159  43.781  13.874
23279W        W95539  30.888  44.999   3.365
23280W        W95540  12.062  22.056  12.388
23281W        W95541   8.695   0.025   2.688
23282W        W95542   4.916  14.993  14.477
23283W        W95543   8.755  14.390  14.500
23284W        W95544  43.368  17.559   4.607
23285W        W95545  35.151   5.790   2.428
23286W        W95546  30.482   8.833   1.181
23287W        W95547  33.082   3.404   0.955
23288W        W95548  40.598  26.642  12.576
23289W        W95549  13.982  17.919   4.879
23290W        W95550  32.941   1.861   4.401
23291W        W95551  34.505  25.148  12.511
23292W        W95552  37.916  43.830  13.988
23293W        W95553  11.555  15.204  12.952
23294W        W95554  25.959  36.010   2.693
23295W        W95555   2.806  29.672   1.082
23296W        W95556   8.298  18.895  11.108
23297W        W95557  29.213  40.375   4.212
23298W        W95558  37.276   9.186   4.276
23299W        W95559  11.578  33.472  11.627
23300W        W95560  22.535  16.401   3.351
23301W        W95561   0.796  36.561  13.334
23302W        W95562   3.508   7.419  11.615
23303W        W95563  14.589  25.548  13.381
23304W        W95564  23.372  21.250  13.347
23305W        W95565   2.438   2.275  13.225
23306W        W95566   4.678  26.674  10.703
23307W        W95567  14.901   6.262   1.006
23308W        W95568  17.704  39.156  12.982
23309W        W95569  44.234  30.786   3.161
23310W        W95570  16.020  11.828  12.976
23311W        W95571  25.978  36.674  12.523
23312W        W95572   6.335   2.294   4.096
23313W        W95573  29.598   6.589   3.904
23314W        W95574  14.124   0.076   2.733
23315W        W95575   7.360  29.207  10.825
23316W        W95576   4.910  25.463  13.856
23317W        W95577  23.118  31.115   3.764
23318W        W95578  18.803   7.176   4.921
23319W        W95579  43.294  19.608  14.095
23320W        W95580   9.901  28.064   2.780
23321W        W95581  34.096  34.546   3.167
23322W        W95582  19.276  32.821   4.099
23323W        W95583   2.335  44.907   4.780
23324W        W95584  15.839  15.641   4.071
23325W        W95585  15.691  26.050  11.363
23326W        W95586  28.222   9.654  11.998
23327W        W95587  42.798  20.354  11.978
23328W        W95588  13.684  17.084  12.714
23329W        W95589  18.146   9.038  13.820
23330W        W95590  16.491   0.561  12.947
23331W        W95591  23.978  28.568  13.936
23332W        W95592  29.993  13.099  10.730
23333W        W95593   0.849  31.139   3.609
23334W        W95594  11.928  24.024  11.626
23335W        W95595  31.323   0.695   3.850
23336W        W95596  37.527  16.798  14.466
23337W        W95597  25.992  14.091   1.805
23338W        W95598   5.491   6.668  13.927
23339W        W95599  44.038  30.631   0.624
23340W        W95600  40.485  17.476   2.920
23341W        W95601  22.524  44.681   2.693
23342W        W95602  16.686   5.821   3.586
23343W        W95603  36.197  39.339  13.263
23344W        W95604   5.905  42.016  11.543
23345W        W95605   7.284  34.660   4.890
23346W        W95606  36.350   2.429   2.353
23347W        W95607  37.459  21.242   4.172
23348W        W95608  35.962  17.872  11.005
23349W        W95609   1.882  17.134  14.136
23350W        W95610  30.481   2.741   2.219
23351W        W95611  23.746  28.117  11.230
23352W        W95612   0.423   6.796   2.324
23353W        W95613  37.093  12.650   0.783
23354W        W95614  24.274  38.295   3.811
23355W        W95615  21.009  38.304  14.320
23356W        W95616  20.393  30.273   0.281
23357W        W95617  32.979  35.428   0.116
23358W        W95618  18.377  30.396   0.842
23359W        W95619  11.173  27.080  12.639
23360W        W95620  19.538  43.931   3.169
23361W        W95621   3.229  44.744   3.811
23362W        W95622   0.976  33.623  13.470
23363W        W95623  34.429  29.169   2.968
23364W        W95624  11.260   9.567  14.966
23365W        W95625  16.442  44.986  14.869
23366W        W95626  43.774  19.072   2.393
23367W        W95627  38.497  14.105  13.852
23368W        W95628  42.093  19.082  14.914
23369W        W95629  26.479  36.630   0.034
23370W        W95630   9.665  12.612   0.078
23371W        W95631  19.946  24.385   1.513
23372W        W95632   2.437  34.189  10.423
23373W        W95633  28.198  38.332  12.608
23374W        W95634  35.627  26.534  13.978
23375W        W95635  43.822   8.248  14.095
23376W        W95636  39.330  37.705  12.441
23377W        W95637  15.019   0.370   0.886
23378W        W95638   7.241   5.831   2.371
23379W        W95639  21.044   7.836   0.855
23380W        W95640  36.478  32.650  13.389
23381W        W95641  28.828  18.558  10.710
23382W        W95642  36.820  43.801  10.595
23383W        W95643  21.063  31.633   4.516
23384W        W95644  37.099  14.105   1.740
23385W        W95645  14.782   9.273  11.882
23386W        W95646  22.583  27.900   2.206
23387W        W95647  19.151  33.311   0.724
23388W        W95648  36.582  21.417   3.212
23389W        W95649  35.805  18.743   4.624
23390W        W95650   3.849   7.467   1.951
23391W        W95651  38.212   9.159  13.926
23392W        W95652  44.824   5.209  14.247
23393W        W95653  39.978  13.100   4.356
23394W        W95654  44.720  25.594   2.176
23395W        W95655  13.343  36.338  10.678
23396W        W95656  16.380  17.745  13.092
23397W        W95657   3.293  12.422   1.941
23398W        W95658  43.601   0.348   0.898
23399W        W95659  17.995  44.395   2.414
23400W        W95660  34.229  15.253   3.650
23401W        W95661  28.460  35.787   2.787
23402W        W95662  27.885   8.757  11.859
23403W        W95663   4.790   6.057  10.633
23404W        W95664  36.996  36.324  13.216
23405W        W95665  17.245  33.915  14.399
23406W        W95666  21.096  22.675   4.613
23407W        W95667   3.296  37.856  13.150
23408W        W95668  35.200  43.361  14.689
23409W        W95669  14.847  40.368  12.184
23410W        W95670  22.549  35.378   1.132
23411W        W95671  39.036   5.293   2.233
23412W        W95672  20.773   8.906  13.491
23413W        W95673   4.921   9.273   4.681
23414W        W95674  16.796  20.452  14.900
23415W        W95675   1.837  40.991  11.190
23416W        W95676  35.488  17.552  11.543
23417W        W95677  39.384  35.039  13.553
23418W        W95678  23.676   0.323  13.058
23419W        W95679  27.104  20.243  11.106
23420W        W95680   5.470  13.635   1.274
23421W        W95681  34.504  19.153  13.540
23422W        W95682  29.493  29.027  11.069
23423W        W95683  21.720  39.738   0.915
23424W        W95684   9.273  36.959  12.025
23425W        W95685   0.234  42.825   0.277
23426W        W95686   1.844   8.721   3.157
23427W        W95687  17.771  18.627  11.717
23428W        W95688  38.561   4.456  14.862
23429W        W95689   3.786  31.442  11.390
23430W        W95690  44.382  37.560   3.138
23431W        W95691  42.062   4.715   3.718
23432W        W95692  36.161  16.733   2.748
23433W        W95693   4.189  11.709   4.641
23434W        W95694  32.185  14.108  10.953
23435W        W95695  31.522  43.211   3.775
23436W        W95696  29.934  42.251  13.513
23437W        W95697  40.383  32.872  13.143
23438W        W95698  21.763  13.357   2.853
23439W        W95699  34.418  39.485   4.540
23440W        W95700  13.327  29.681   2.908
23441W        W95701  17.674  41.457  14.548
23442W        W95702  44.564  33.306  11.172
23443W        W95703  37.419  22.572   1.480
23444W        W95704  27.648  12.052  13.938
23445W        W95705  33.258   1.490   2.277
23446W        W95706  36.615  15.567   4.022
23447W        W95707   3.390  40.311  13.539
23448W        W95708  17.846  14.370   3.659
23449W        W95709  22.109  10.783  14.342
23450W        W95710  22.535  35.609   3.868
23451W        W95711  21.619  27.533  11.480
23452W        W95712  15.993   2.892  12.507
23453W        W95713   6.226  29.501  14.422
23454W        W95714  44.487  33.777   1.968
23455W        W95715  21.175  17.118   3.803
23456W        W95716  15.259  38.498  11.665
23457W        W95717  13.150  35.711  12.346
23458W        W95718  18.677  18.220  10.670
23459W        W95719  14.419  36.809   1.154
23460W        W95720  13.629   5.486   2.311
23461W        W95721  27.624   2.870  14.369
23462W        W95722  19.828  12.172   3.650
23463W        W95723  27.749  18.067  12.122
23464W        W95724  21.198  14.291  13.350
23465W        W95725  31.936  28.695   3.391
23466W        W95726  37.900  18.609  12.039
23467W        W95727   7.486   9.737  14.123
23468W        W95728   2.034  16.345  13.134
23469W        W95729  32.095  35.200  13.416
23470W        W95730  22.476  40.805   1.464
23471W        W95731  12.399  16.248  12.472
23472W        W95732  19.554   4.649  14.872
23473W        W95733  29.945  28.672  11.499
23474W        W95734  14.723  41.952  10.593
23475W        W95735  26.611  20.168  12.516
23476W        W95736   4.355  27.011   0.229
23477W        W95737   0.296  41.431   1.300
23478W        W95738  42.945  28.884  12.443
23479W        W95739  14.165  40.869   1.259
23480W        W95740   7.203  26.361   4.925
23481W        W95741  26.549   3.726  12.995
23482W        W95742  23.266   4.953  13.935
23483W        W95743  11.497  44.385   3.659
23484W        W95744  33.742   5.298   0.353
23485W        W95745  38.831   0.256  14.286
23486W        W95746  14.500  16.226  14.307
23487W        W95747  24.523  42.775  12.372
23488W        W95748  18.321  43.650   0.800
23489W        W95749   1.807  40.448   2.066
23490W        W95750  18.270  40.444   0.043
23491W        W95751  30.489   6.618   2.757
23492W        W95752  44.367  21.695   1.219
23493W        W95753  17.632  28.391  11.622
23494W        W95754  15.612  23.474   1.669
23495W        W95755   5.349  15.130  13.566
23496W        W95756  24.642  38.565  10.621
23497W        W95757  43.130  36.377   1.210
23498W        W95758  40.277   2.720  10.511
23499W        W95759  18.133  34.525   3.060
23500W        W95760  23.722  11.298  11.192
23501W        W95761  29.782  17.842   1.956
23502W        W95762  43.553  19.113   0.916
23503W        W95763  17.532   6.485  11.286
23504W        W95764   6.200  38.801  12.516
23505W        W95765  22.178  27.278  12.192
23506W        W95766  17.419   5.482   3.928
23507W        W95767  41.381  16.080  10.671
23508W        W95768  18.169  38.402   2.245
23509W        W95769  44.510   7.804  13.852
23510W        W95770  27.142  39.593   0.846
23511W        W95771  39.973  15.391   1.568
23512W        W95772  37.615  32.559   4.378
23513W        W95773  13.177   6.177   0.736
23514W        W95774  10.855  21.253   0.660
23515W        W95775  23.787  42.914   2.877
23516W        W95776  33.562  21.253   1.319
23517W        W95777  27.019  32.077   1.843
23518W        W95778  44.777  29.242   4.144
23519W        W95779  26.619  36.389  14.391
23520W        W95780  44.063  16.105   2.595
23521W        W95781  29.650  21.232  14.780
23522W        W95782   1.216  38.924  14.994
23523W        W95783  41.407  39.263   3.730
23524W        W95784  44.828  21.637  14.409
23525W        W95785   1.571  43.702  11.146
23526W        W95786  27.944  41.947   2.369
23527W        W95787   7.253  41.391   2.576
23528W        W95788  31.569   5.242  13.477
23529W        W95789  15.298  44.775   3.583
23530W        W95790  32.568  10.584  11.569
23531W        W95791   7.202  42.774   4.443
23532W        W95792  41.189  30.206   3.720
23533W        W95793  34.128  26.765  13.980
23534W        W95794   2.268  22.160   4.993
23535W        W95795  30.633  10.650  11.179
23536W        W95796  30.952  33.303  13.843
23537W        W95797  33.343   1.528   0.416
23538W        W95798  15.371  24.734  11.204
23539W        W95799  28.714  15.048  13.479
23540W        W95800   0.808  14.099   4.264
23541W        W95801  37.795  20.202  14.523
23542W        W95802   1.434  27.776   3.716
23543W        W95803  15.755  33.213   1.932
23544W        W95804  22.021  32.899   2.156
23545W        W95805  10.731  12.570  14.362
23546W        W95806   2.028  15.380  11.268
23547W        W95807  38.590  28.982  13.805
23548W        W95808   7.172  13.255  14.703
23549W        W95809  27.611  11.557   1.560
23550W        W95810  11.635  32.185   1.955
23551W        W95811  17.367  20.620   2.317
23552W        W95812  36.589  32.550   4.694
23553W        W95813  31.342  12.917   2.166
23554W        W95814   6.847  24.205   3.359
23555W        W95815  13.604  42.941  13.329
23556W        W95816  39.320  12.803   4.598
23557W        W95817  26.469  28.722   3.648
23558W        W95818   4.130  40.785  13.786
23559W        W95819  28.503  11.752   3.880
23560W        W95820  12.355  27.586   5.177
23561W        W95821  44.412  11.048  11.198
23562W        W95822   1.980  38.327   2.136
23563W        W95823  20.684  17.138   0.471
23564W        W95824   4.274  33.436  12.009
23565W        W95825  20.525  34.555  12.421
23566W        W95826   0.629  25.749   2.313
23567W        W95827  30.988  29.390   2.737
23568W        W95828  23.210  15.272   3.151
23569W        W95829   1.972  25.015   4.615
23570W        W95830   6.298  14.863  12.092
23571W        W95831   5.705  43.383   3.156
23572W        W95832  35.541  12.129  14.387
23573W        W95833  30.882  38.866   0.852
23574W        W95834  19.474  33.993   2.333
23575W        W95835  34.892   4.315  11.250
23576W        W95836  10.809  42.834   0.012
23577W        W95837  21.353  24.705   5.212
23578W        W95838   2.221  16.744  13.412
23579W        W95839  39.822   6.208   2.203
23580W        W95840  34.900  24.734   2.156
23581W        W95841  39.941  12.618   4.126
23582W        W95842  31.038  39.360   2.761
23583W        W95843  19.337  16.120   4.196
23584W        W95844  35.351   7.090  14.865
23585W        W95845  11.878  37.301   4.108
23586W        W95846   4.376  22.116   0.288
23587W        W95847   6.349  34.005   3.735
23588W        W95848  30.406   4.748  13.018
23589W        W95849  38.381  34.130   4.643
23590W        W95850   7.794  17.640   1.685
23591W        W95851  14.218  32.498  11.561
23592W        W95852  22.570  35.052   4.054
23593W        W95853  44.613  37.505   1.120
23594W        W95854  23.309  35.929  14.810
23595W        W95855  28.819  28.942  13.439
23596W        W95856  25.328  29.453  14.533
23597W        W95857  38.780   6.938   0.295
23598W        W95858  37.501   6.773  12.684
23599W        W95859  41.994  12.898   0.483
23600W        W95860  28.460  41.659  14.460
23601W        W95861   4.888  18.817   2.382
23602W        W95862  19.179  13.876   3.302
23603W        W95863  19.443  22.738   2.502
23604W        W95864   2.658  38.266   0.948
23605W        W95865  43.507  12.113  14.864
23606W        W95866  42.728  16.313   0.001
23607W        W95867  19.461  12.135   4.605
23608W        W95868  13.691  22.581   2.944
23609W        W95869  34.607  41.686  12.015
23610W        W95870  23.938  37.251  11.120
23611W        W95871   1.986  32.982  11.384
23612W        W95872  39.509   1.051   2.945
23613W        W95873  28.297  15.159  11.633
23614W        W95874  18.730  12.866  14.466
23615W        W95875   0.656   5.689  14.063
23616W        W95876  12.783  11.597   2.883
23617W        W95877  33.956  21.538  12.570
23618W        W95878   9.304  29.979  11.408
23619W        W95879  41.305  15.677   2.439
23620W        W95880  33.654  22.326  10.536
23621W        W95881   1.998  26.601   4.682
23622W        W95882  28.402   3.165   1.755
23623W        W95883  11.590  36.808  12.745
23624W        W95884  43.667  36.881  10.526
23625W        W95885  10.845  39.044   1.280
23626W        W95886  29.101  32.600  12.827
23627W        W95887   0.953  43.568   0.799
23628W        W95888  11.442  24.463  13.380
23629W        W95889  17.134   1.385   3.695
23630W        W95890   6.910   9.767  11.320
23631W        W95891  41.574  42.636   3.167
23632W        W95892   3.370  25.975  10.801
23633W        W95893  22.296  39.891   3.366
23634W        W95894  28.197  22.962   0.420
23635W        W95895  10.286  24.659  12.479
23636W        W95896  40.979  30.274  14.884
23637W        W95897  21.509  32.515  14.067
23638W        W95898  32.479   1.553   2.813
23639W        W95899  11.771  28.084  11.217
23640W        W95900  42.438   2.509   3.314
23641W        W95901  22.014   2.291   0.523
23642W        W95902  36.578   9.828  13.516
23643W        W95903  29.640   1.758   0.753
23644W        W95904  15.680  19.073   0.508
23645W        W95905  10.105  26.233   2.897
23646W        W95906  29.374   1.558  13.893
23647W        W95907  11.135   6.985   2.195
23648W        W95908  15.724  33.691  14.908
23649W        W95909  40.062  26.147   2.981
23650W        W95910  16.121  14.894   1.815
23651W        W95911   2.351   3.460  11.968
23652W        W95912   6.623   4.560  12.157
23653W        W95913  20.941  15.254   2.783
23654W        W95914  31.396   1.771   4.613
23655W        W95915  44.698   9.662  11.204
23656W        W95916  40.274   8.725  12.902
23657W        W95917  41.080  29.991   4.932
23658W        W95918  19.173   9.863  12.020
23659W        W95919  40.424  23.567  10.677
23660W        W95920  36.057   0.580   1.945
23661W        W95921  37.331  43.802  10.765
23662W        W95922  34.328  14.097   4.172
23663W        W95923  34.673  36.158   4.511
23664W        W95924  38.845   3.772   1.207
23665W        W95925  39.023  34.853   2.344
23666W        W95926   0.186  38.622   1.816
23667W        W95927  37.813  43.460  14.677
23668W        W95928  30.553  17.624   2.405
23669W        W95929  11.295   2.586  12.389
23670W        W95930   3.374  11.262   3.420
23671W        W95931  17.786  20.660  13.899
23672W        W95932  40.660  18.325  11.650
23673W        W95933   8.157  15.363   3.899
23674W        W95934  17.023   5.881   0.524
23675W        W95935  12.273   1.823  11.693
23676W        W95936   1.704  33.881   2.645
23677W        W95937  24.387  25.174  13.865
23678W        W95938  36.635  29.971   3.631
23679W        W95939   3.630  25.903  12.569
23680W        W95940  31.903  17.543  12.405
23681W        W95941  31.422  15.601   0.204
23682W        W95942  29.401  17.383  10.591
23683W        W95943  21.434  36.948  13.360
23684W        W95944  21.462   9.948  11.922
23685W        W95945   2.824  21.155  11.945
23686W        W95946  19.755  20.833   1.946
23687W        W95947  25.090  32.912  14.699
23688W        W95948  19.507  20.680  12.041
23689W        W95949   0.784  43.723   2.251
23690W        W95950   9.153  38.016  14.746
23691W        W95951  25.780  33.320  11.472
23692W        W95952  10.250   8.911  11.438
23693W        W95953  21.678  35.448   0.790
23694W        W95954  30.310  32.619  10.952
23695W        W95955  36.501  21.299   1.257
23696W        W95956  14.704  11.464   5.089
23697W        W95957   9.179  10.863  14.154
23698W        W95958   4.314  23.889  14.976
23699W        W95959  42.797  42.305   4.755
23700W        W95960  22.137  34.550   2.739
23701W        W95961  12.532   3.239  13.297
23702W        W95962  40.718  20.684   4.207
23703W        W95963  21.747  20.019  10.860
23704W        W95964  14.384  34.223  12.004
23705W        W95965   0.936  15.493   0.333
23706W        W95966  28.245   1.759   5.025
23707W        W95967   4.842  10.905  14.453
23708W        W95968  44.895  21.754   0.258
23709W        W95969  30.537   9.146  12.602
23710W        W95970  39.498  40.502   2.168
23711W        W95971  15.020   1.960   2.772
23712W        W95972  16.246  26.354  13.561
23713W        W95973  41.434  28.111  10.648
23714W        W95974  31.128  32.587  11.670
23715W        W95975  19.702  37.324   1.395
23716W        W95976  37.327  32.483  11.628
23717W        W95977   9.713  19.826  14.744
23718W        W95978  31.414  27.013   3.197
23719W        W95979  42.496  38.068   3.155
23720W        W95980   9.598   3.295  10.915
23721W        W95981  36.618  34.816   5.000
23722W        W95982  26.724  18.481   2.393
23723W        W95983   0.867  15.823  13.718
23724W        W95984  13.703  32.030   4.040
23725W        W95985  41.799  27.181   0.778
23726W        W95986  24.766  21.134   2.794
23727W        W95987  38.487  18.132   1.961
23728W        W95988  31.911  20.545  11.571
23729W        W95989  19.315  11.702  13.446
23730W        W95990  32.460   6.916   0.770
23731W        W95991  43.554  41.868   4.246
23732W        W95992  39.636  16.222   0.750
23733W        W95993  13.663  20.639  12.974
23734W        W95994  15.446  43.738  11.539
23735W        W95995   7.760   4.690  12.738
23736W        W95996  16.248  13.095   1.355
23737W        W95997  24.971  11.604  11.591
23738W        W95998  21.085  31.001   3.184
23739W        W95999  22.514  42.290   4.715
23740W        W96000  22.924  32.179   1.897
23741W        W96001   4.340  37.729   0.599
23742W        W96002  43.250   6.988   3.651
23743W        W96003  38.116  42.915  10.701
23744W        W96004  44.613  20.435   1.705
23745W        W96005   2.064  34.450  14.908
23746W        W96006  29.788   4.236   1.689
23747W        W96007  44.337   6.881  13.987
23748W        W96008  16.869  34.473  12.477
23749W        W96009   3.343  20.766   2.648
23750W        W96010  31.158   9.764   4.762
23751W        W96011   2.859   2.992  11.586
23752W        W96012  37.472  16.124  12.525
23753W        W96013  12.269   5.775   1.956
23754W        W96014  39.856   8.941  13.862
23755W        W96015  33.056  32.592   3.302
23756W        W96016  40.925  35.080  14.715
23757W        W96017  35.965  34.790   4.554
23758W        W96018   8.204  43.361  12.762
23759W        W96019  20.789  40.108  14.058
23760W        W96020   4.849  33.574   2.817
23761W        W96021   3.257  13.249  11.417
23762W        W96022  18.502  35.956  11.459
23763W        W96023  16.022   4.702   2.746
23764W        W96024  12.081  21.990  14.810
23765W        W96025   1.624  11.998   3.250
23766W        W96026   5.365   6.898   4.593
23767W        W96027  23.836  30.539   1.711
23768W        W96028   8.175  25.312  14.692
23769W        W96029  30.535   3.905   2.382
23770W        W96030   2.484  28.454   4.186
23771W        W96031   5.933   7.628   3.188
23772W        W96032   0.776  19.296  12.747
23773W        W96033  22.749  39.946  10.048
23774W        W96034   0.880   5.242   2.425
23775W        W96035  10.690   3.795   3.785
23776W        W96036  22.214  20.764   2.566
23777W        W96037  27.528  21.568  11.031
23778W        W96038  24.280  12.717   0.413
23779W        W96039  40.681  14.456  11.128
23780W        W96040  21.947   9.965  14.930
23781W        W96041  19.174   9.524  10.202
23782W        W96042   4.314  14.545  10.722
23783W        W96043  11.727   7.686  12.628
23784W        W96044   0.775  44.299  11.968
23785W        W96045  35.727   3.638  11.393
23786W        W96046  38.991  25.195   3.290
23787W        W96047  28.344  19.096  13.323
23788W        W96048   0.645  25.404   2.693
23789W        W96049   0.380  34.037  13.833
23790W        W96050   3.898  20.061   1.449
23791W        W96051  43.347  35.072  14.525
23792W        W96052  36.374   2.152  13.296
23793W        W96053  17.069  25.898  11.178
23794W        W96054  30.193  36.322   4.180
23795W        W96055  26.141  34.650   2.706
23796W        W96056  28.532  22.726   3.687
23797W        W96057  12.069  30.572   0.632
23798W        W96058  41.974   4.922   2.246
23799W        W96059   6.135  23.925   0.841
23800W        W96060  35.374  15.660   3.418
23801W        W96061  22.933  33.970   2.888
23802W        W96062  28.151   5.811  13.365
23803W        W96063  19.710  31.546   4.114
23804W        W96064  28.871  30.482   2.622
23805W        W96065  17.703  14.420   3.138
23806W        W96066  35.338   7.454   4.605
23807W        W96067  35.415  34.572   4.584
23808W        W96068  20.833  29.477   2.395
23809W        W96069  22.157  27.843   5.699
23810W        W96070  18.667  34.940   0.780
23811W        W96071  42.982  36.392   4.412
23812W        W96072   9.669  40.523  14.276
23813W        W96073   2.288  19.840   3.772
23814W        W96074  38.923  42.877  14.494
23815W        W96075   1.065  10.550  11.696
23816W        W96076   5.624  20.301  13.290
23817W        W96077   9.687  22.494   3.230
23818W        W96078   1.921   2.233   4.758
23819W        W96079  18.225  28.358  13.797
23820W        W96080  17.785   1.889   2.762
23821W        W96081  18.668  15.225   2.115
23822W        W96082   5.294  17.113  10.607
23823W        W96083  40.973  22.031  13.446
23824W        W96084  21.672  35.616  13.061
23825W        W96085   9.235  37.408  14.436
23826W        W96086  22.828   2.886   1.760
23827W        W96087  29.031  37.183   1.524
23828W        W96088  39.523  35.729  11.048
23829W        W96089  43.558  37.882   2.398
23830W        W96090  10.175  13.041  11.144
23831W        W96091  38.615  31.030  14.553
23832W        W96092   9.636  35.423   2.123
23833W        W96093   9.234   6.448   1.250
23834W        W96094  39.423  40.337   1.644
23835W        W96095  43.904  15.846  10.664
23836W        W96096  21.167  19.413  10.364
23837W        W96097  28.438  43.493   2.528
23838W        W96098   1.853  29.315  11.522
23839W        W96099  43.876  11.944  13.402
23840W        W96100  12.716  43.038  14.437
23841W        W96101  23.948   8.733  11.957
23842W        W96102  27.995  38.455   1.204
23843W        W96103  19.655   0.649   3.194
23844W        W96104  36.420  24.245   1.287
23845W        W96105  16.809  33.594   2.596
23846W        W96106  32.467  29.096  10.779
23847W        W96107  38.593  12.374  14.317
23848W        W96108   1.696  15.689  14.083
23849W        W96109   0.267  18.725   0.705
23850W        W96110  13.691  12.801  13.756
23851W        W96111   2.357   8.536   3.045
23852W        W96112  21.516   1.443  12.915
23853W        W96113  40.339  19.058  12.702
23854W        W96114  14.035   6.627   3.656
23855W        W96115  38.523  14.267   0.201
23856W        W96116  15.390  13.383  13.688
23857W        W96117  10.071  15.665  13.353
23858W        W96118  15.038  23.496   0.762
23859W        W96119  29.928  41.820  13.831
23860W        W96120   1.430   7.723   1.744
23861W        W96121  38.837  19.130  13.129
23862W        W96122   0.868  37.018  11.670
23863W        W96123   1.480  34.583  13.731
23864W        W96124  35.312  15.140   4.072
23865W        W96125   3.905  26.034   4.650
23866W        W96126  33.051  40.814  13.860
23867W        W96127  43.794   6.785   4.609
23868W        W96128  35.389  19.230  11.866
23869W        W96129  21.324  22.263   2.761
23870W        W96130  39.815  12.640  12.494
23871W        W96131  38.588  32.416   0.314
23872W        W96132  31.125  44.952  11.480
23873W        W96133  31.400   3.698   2.326
23874W        W96134  33.499  34.891  14.608
23875W        W96135  30.585   7.980   4.466
23876W        W96136   2.716  33.895  12.495
23877W        W96137   9.342   7.714  13.876
23878W        W96138  21.743  35.560  13.976
23879W        W96139  18.101  13.048  12.987
23880W        W96140  24.578  18.072   2.816
23881W        W96141  44.241   5.931  11.160
23882W        W96142  44.777  32.471   2.102
23883W        W96143  20.290  34.145   4.498
23884W        W96144  34.400  28.012  10.888
23885W        W96145  28.050  39.886   2.017
23886W        W96146  11.274   4.874   2.328
23887W        W96147  35.190  38.991  14.791
23888W        W96148  30.717  31.435  12.981
23889W        W96149  27.873  25.774   2.888
23890W        W96150  19.934  39.710  12.435
23891W        W96151   2.693  38.999  11.921
23892W        W96152   8.818  29.532  13.546
23893W        W96153   9.514  15.111   3.090
23894W        W96154  35.301  31.387  11.870
23895W        W96155  19.260  37.194  13.589
23896W        W96156  26.901  31.916   4.155
23897W        W96157  14.563  43.679  12.970
23898W        W96158  28.140  44.057   3.765
23899W        W96159  24.706   9.083   3.193
23900W        W96160  26.049  15.304   3.715
23901W        W96161  11.098  12.165   4.046
23902W        W96162  38.657  29.674   2.097
23903W        W96163  36.073  18.379   5.083
23904W        W96164  43.441  26.161  11.461
23905W        W96165   9.475  33.896   0.500
23906W        W96166  28.829  34.488  14.331
23907W        W96167   1.883   0.226   3.776
23908W        W96168  30.002  44.702   0.420
23909W        W96169  44.439  16.574   1.908
23910W        W96170  13.208  26.603   0.785
23911W        W96171  42.768  41.104  12.195
23912W        W96172  40.232  20.570   4.159
23913W        W96173  34.875  42.968   2.008
23914W        W96174  41.804   1.863  13.944
23915W        W96175  19.801  36.360  12.590
23916W        W96176  37.879   8.602  14.857
23917W        W96177  22.839   9.363  13.665
23918W        W96178  19.087   7.692  10.672
23919W        W96179   0.567  43.855  12.222
23920W        W96180  25.914  10.178   1.778
23921W        W96181   7.848  22.311  13.755
23922W        W96182  44.534  41.960   2.788
23923W        W96183  20.087  16.003  13.064
23924W        W96184  39.895  16.123  14.975
23925W        W96185  28.148  16.841   3.721
23926W        W96186   3.955   8.958   0.283
23927W        W96187  32.544  41.730   0.717
23928W        W96188   5.198  40.290  14.325
23929W        W96189   0.866  16.151   2.937
23930W        W96190  41.558  25.041   4.995
23931W        W96191  20.670  11.176  12.977
23932W        W96192  26.625  19.693  11.657
23933W        W96193  34.971  27.083  10.530
23934W        W96194  20.090  16.119   4.790
23935W        W96195   6.794  39.094  12.832
23936W        W96196  13.938   9.197  10.769
23937W        W96197  27.507  12.650   4.624
23938W        W96198  33.464  18.701   0.225
23939W        W96199  41.884  17.715  10.929
23940W        W96200  30.333   3.300  11.033
23941W        W96201  28.039  41.786  11.945
23942W        W96202  32.792  42.787   3.012
23943W        W96203   0.987  22.247   4.164
23944W        W96204  39.811  41.535   3.704
23945W        W96205  18.450  14.671   1.827
23946W        W96206  34.707  43.085   0.987
23947W        W96207  11.455   6.701  11.963
23948W        W96208  13.634  37.888  12.173
23949W        W96209  24.069  27.167   5.060
23950W        W96210  26.609  25.366   3.440
23951W        W96211  36.095   0.573   3.290
23952W        W96212  10.181  20.622   2.618
23953W        W96213   5.118  20.633   2.541
23954W        W96214  37.329   5.813   3.661
23955W        W96215  40.424  40.846  10.589
23956W        W96216  17.203  22.202   3.013
23957W        W96217  39.028  12.732   2.354
23958W        W96218   5.870   2.258  14.189
23959W        W96219   8.394   5.919   1.439
23960W        W96220  22.902  22.829  11.882
23961W        W96221  13.029  24.183   1.342
23962W        W96222  31.680  15.625   3.651
23963W        W96223  17.285  19.532  11.134
23964W        W96224   4.673  37.857  12.550
23965W        W96225  29.546  17.754   4.669
23966W        W96226  39.484   4.206  14.830
23967W        W96227  20.675  24.530   1.591
23968W        W96228  16.407  23.231   2.299
23969W        W96229  27.769  27.462   1.731
23970W        W96230   2.752  18.956  13.649
23971W        W96231  22.236   7.809   0.217
23972W        W96232   3.733  20.116  13.767
23973W        W96233   8.108  13.764  10.636
23974W        W96234  32.447  35.097  12.511
23975W        W96235   1.761  19.940  10.799
23976W        W96236  44.865  29.870   2.801
23977W        W96237   4.296  37.831  12.951
23978W        W96238  37.335  41.762   1.725
23979W        W96239   6.165   5.735   3.237
23980W        W96240  16.171  43.392  10.430
23981W        W96241  36.844  29.321   3.681
23982W        W96242  12.356   5.320   1.760
23983W        W96243   1.040  23.639   4.198
23984W        W96244  21.781  12.592  12.976
23985W        W96245  23.604  29.490   4.955
23986W        W96246  37.249  22.877  11.094
23987W        W96247  20.088   0.504   1.665
23988W        W96248  15.823   2.984  13.092
23989W        W96249  43.392  24.056  10.628
23990W        W96250  18.567   8.192   2.325
23991W        W96251  19.181  34.597  13.047
23992W        W96252  14.621   7.621  13.984
23993W        W96253  24.958  14.704  13.444
23994W        W96254   5.925   6.326  12.801
23995W        W96255   8.451  11.855  11.991
23996W        W96256  16.469  15.392  10.326
23997W        W96257  31.089   6.204  11.223
23998W        W96258  31.081  27.529   2.158
23999W        W96259   9.128  21.111   4.191
24000W        W96260  21.814   7.192   3.740
24001W        W96261  37.347   5.255  12.345
24002W        W96262   1.002  31.589  12.591
24003W        W96263   2.925   9.072   1.827
24004W        W96264  12.386  27.387   2.903
24005W        W96265  37.881  35.781  11.068
24006W        W96266  11.434  38.107   0.806
24007W        W96267  12.818  16.112  13.871
24008W        W96268  16.198  14.885  13.905
24009W        W96269  39.970  30.007  14.956
24010W        W96270  43.348  43.479  12.986
24011W        W96271  40.999  26.155   3.339
24012W        W96272  34.842  37.056  14.984
24013W        W96273  15.620   5.670  13.539
24014W        W96274  17.264   8.879   3.265
24015W        W96275  33.564  12.277   1.972
24016W        W96276  19.728  33.727  10.935
24017W        W96277  26.288  38.328   1.344
24018W        W96278  38.146   9.610   2.280
24019W        W96279  15.711  38.309   3.251
24020W        W96280  13.255  20.662   2.866
24021W        W96281  23.780  14.405   2.229
24022W        W96282  38.602  42.083   1.355
24023W        W96283  42.364  22.759  12.759
24024W        W96284   6.398  10.492  10.577
24025W        W96285  39.251  29.501  12.232
24026W        W96286  10.941  15.148   3.440
24027W        W96287  18.138  37.313  12.552
24028W        W96288  14.247  19.482  11.504
24029W        W96289   7.858  11.758   0.327
24030W        W96290   2.755  13.324   1.787
24031W        W96291  33.041  30.130   1.236
24032W        W96292  18.054   5.332   3.248
24033W        W96293  31.555   9.196  11.251
24034W        W96294  12.886  31.996  10.819
24035W        W96295  39.417  17.053   1.881
24036W        W96296  43.510  44.790   3.177
24037W        W96297  24.341  14.295  10.101
24038W        W96298   2.522  20.124  13.769
24039W        W96299  30.238  16.334   0.349
24040W        W96300  12.450  21.733  12.651
24041W        W96301  43.786   1.304  13.625
24042W        W96302  23.845   0.450   0.745
24043W        W96303  34.042  16.382  11.985
24044W        W96304  35.461  22.179  14.152
24045W        W96305  32.944  25.973   3.291
24046W        W96306  44.800  31.893   2.907
24047W        W96307   4.316  25.943  13.437
24048W        W96308  18.342  16.266   2.582
24049W        W96309   6.910  43.010   4.804
24050W        W96310   1.960  25.997  11.209
24051W        W96311  16.298  36.571   1.935
24052W        W96312  16.595  42.009   1.706
24053W        W96313  38.921  39.080  14.793
24054W        W96314  39.567  28.983   0.976
24055W        W96315  14.807  27.712  13.601
24056W        W96316  19.826   3.911   2.651
24057W        W96317  41.477  14.702   3.874
24058W        W96318   3.652  13.441  13.266
24059W        W96319   4.189   4.380  12.390
24060W        W96320   0.429  42.473   3.614
24061W        W96321  12.700  26.426  14.987
24062W        W96322  12.076   7.729   1.056
24063W        W96323  32.474   0.520   2.849
24064W        W96324  13.204  23.944  12.543
24065W        W96325  34.390  11.660   0.815
24066W        W96326   8.457  43.499  14.738
24067W        W96327  24.598  32.094  14.846
24068W        W96328  17.064  13.025   2.558
24069W        W96329   3.067  40.345   4.831
24070W        W96330  20.624  39.964  13.032
24071W        W96331  22.760  26.264   1.332
24072W        W96332  10.849  41.046   0.230
24073W        W96333  16.365  40.988   0.705
24074W        W96334  10.779  16.110  12.035
24075W        W96335  23.755   3.769  11.151
24076W        W96336  39.234  13.860  13.596
24077W        W96337  23.069   1.709   2.317
24078W        W96338  11.349  15.268  14.998
24079W        W96339  23.988  31.087  14.494
24080W        W96340   5.267  38.395   3.098
24081W        W96341  21.489   5.189   2.776
24082W        W96342  10.529   6.796  12.922
24083W        W96343  32.685  18.254  14.348
24084W        W96344  19.600  40.236  14.998
24085W        W96345   1.877  29.573   4.530
24086W        W96346  34.837   3.900  10.942
24087W        W96347  29.801  15.666   4.913
24088W        W96348  19.666  28.990   1.841
24089W        W96349  30.134  39.822   0.331
24090W        W96350  28.711  32.366   2.852
24091W        W96351   0.174  44.952  13.456
24092W        W96352   6.229   9.569  12.102
24093W        W96353  43.043  25.040   0.483
24094W        W96354  21.444   7.742  11.984
24095W        W96355  34.589  26.206   1.020
24096W        W96356  27.001  39.060  12.453
24097W        W96357  30.379  34.312   2.456
24098W        W96358  18.729  41.899  12.784
24099W        W96359   6.758  37.916  14.888
24100W        W96360  35.320  29.506  14.728
24101W        W96361  32.945  33.178   2.264
24102W        W96362   2.987  24.265   1.800
24103W        W96363  19.837  21.152  14.431
24104W        W96364  27.871   0.315  12.867
24105W        W96365  31.997   4.372  10.620
24106W        W96366  31.892   5.480   1.691
24107W        W96367  14.679   2.842  12.573
24108W        W96368  24.458  14.960   1.353
24109W        W96369  34.923  24.131  10.024
24110W        W96370  40.072   8.345   0.895
24111W        W96371  27.126  38.953   4.149
24112W        W96372  10.376  30.921  14.049
24113W        W96373  42.267   1.857   1.119
24114W        W96374  29.456   2.060  13.776
24115W        W96375  28.064  23.484  11.569
24116W        W96376   4.172  17.699   0.359
24117W        W96377  39.336   4.845  10.489
24118W        W96378  43.950  43.883   3.368
24119W        W96379   3.276  41.579   2.374
24120W        W96380  37.365  23.416   4.584
24121W        W96381  44.342  18.772  14.510
24122W        W96382  16.977   7.218   2.737
24123W        W96383   8.770   1.803  12.831
24124W        W96384   5.392  28.857  10.529
24125W        W96385  42.483   0.252  13.419
24126W        W96386  36.128  20.742   2.698
24127W        W96387  35.323  28.768  12.474
24128W        W96388   7.401  14.542  11.864
24129W        W96389   9.053   2.139   0.531
24130W        W96390  17.044  31.667   4.104
24131W        W96391  30.068  44.607  11.490
24132W        W96392  37.853  40.249  11.132
24133W        W96393  33.713   8.646   0.878
24134W        W96394  37.005  11.673  11.330
24135W        W96395   1.119  34.671  14.846
24136W        W96396   2.000  18.032  13.908
24137W        W96397  18.052  41.738   2.654
24138W        W96398  17.821  13.279   0.308
24139W        W96399  33.531   3.360   0.674
24140W        W96400  18.777   8.721   1.202
24141W        W96401   3.233  35.044  14.088
24142W        W96402  31.278  31.442   0.949
24143W        W96403   8.243  23.354   3.080
24144W        W96404  33.467  37.088  13.978
24145W        W96405  19.895  43.963   1.751
24146W        W96406   1.133  25.186   2.737
24147W        W96407  32.404   7.238   1.252
24148W        W96408  36.561  31.116   4.508
24149W        W96409  35.022  30.687   4.632
24150W        W96410  15.107  28.825   2.240
24151W        W96411   4.323  15.949  10.829
24152W        W96412  33.528  29.409  14.810
24153W        W96413  40.060  16.482   2.320
24154W        W96414  17.342  25.386   1.345
24155W        W96415   1.939   6.031  12.833
24156W        W96416  25.249   6.456   0.861
24157W        W96417  16.019  40.567  13.708
24158W        W96418  43.898  17.745   0.998
24159W        W96419  34.869  21.209  10.122
24160W        W96420  44.558  44.216   0.920
24161W        W96421   9.833  37.939   4.906
24162W        W96422  30.203   3.384  13.943
24163W        W96423  32.387  21.626  11.691
24164W        W96424  38.586   9.510  13.840
24165W        W96425   1.195   6.883  12.206
24166W        W96426  14.369  33.376   2.859
24167W        W96427  27.916  29.162  12.635
24168W        W96428  10.656  10.031   3.190
24169W        W96429  11.604  12.529  12.002
24170W        W96430  11.631  32.781   4.617
24171W        W96431  38.828  31.467  14.939
24172W        W96432  11.698  11.896  13.302
24173W        W96433  15.675  26.196   4.162
24174W        W96434  32.366  31.110  12.004
24175W        W96435  42.520   2.649  11.411
24176W        W96436  13.282  42.513  13.281
24177W        W96437  25.055  23.181  10.985
24178W        W96438   5.247  28.114   5.076
24179W        W96439   8.953  16.255  12.821
24180W        W96440  24.772   4.843  11.578
24181W        W96441   0.735   7.897  10.805
24182W        W96442  18.499  43.879   4.670
24183W        W96443  30.442  35.847   2.175
24184W        W96444  25.649  20.248  10.714
24185W        W96445  38.360  37.819   1.670
24186W        W96446  33.691  41.523   1.361
24187W        W96447   0.724   9.082  12.550
24188W        W96448   0.080   8.801   1.262
24189W        W96449   2.981  42.411  12.800
24190W        W96450  29.917  31.102   0.542
24191W        W96451  43.223   6.668  10.673
24192W        W96452   6.955  30.650  13.879
24193W        W96453  10.262   1.852   0.909
24194W        W96454   9.575   6.244   2.138
24195W        W96455   9.731  44.408   4.305
24196W        W96456   7.860  26.316  10.643
24197W        W96457   5.486  44.531   0.280
24198W        W96458  36.110  44.777  12.175
24199W        W96459  10.420  31.539  11.590
24200W        W96460  25.724  15.018  13.374
24201W        W96461  29.967  33.984   2.441
24202W        W96462  20.600  35.167   1.730
24203W        W96463  26.263  26.946  10.658
24204W        W96464   7.901   4.759   1.658
24205W        W96465  25.445  30.226  14.838
24206W        W96466  38.214   6.640   1.013
24207W        W96467  39.989  36.295   0.447
24208W        W96468  18.991  12.230   3.211
24209W        W96469  14.124  15.728   2.819
24210W        W96470  39.146  12.185   3.560
24211W        W96471  15.690  28.993  12.264
24212W        W96472  24.506  17.602   3.020
24213W        W96473   0.251  34.114   1.267
24214W        W96474  43.312  35.528   3.938
24215W        W96475  27.426  22.199   2.966
24216W        W96476  11.756  21.545  14.303
24217W        W96477  39.806  13.526   1.827
24218W        W96478   1.275   5.532  12.306
24219W        W96479  14.997  29.179   1.899
24220W        W96480   2.201  41.567  12.609
24221W        W96481  23.614  42.874  12.283
24222W        W96482  26.629   6.996   4.155
24223W        W96483   6.637   4.833   1.368
24224W        W96484  11.210  30.889   2.074
24225W        W96485  27.984  35.972  13.376
24226W        W96486  36.231  10.152  10.635
24227W        W96487  25.582  15.088   1.932
24228W        W96488   4.080  22.290  13.923
24229W        W96489  34.275  28.438  11.224
24230W        W96490   5.714  30.749  11.859
24231W        W96491  27.987  12.698   4.831
24232W        W96492  25.180  35.173  12.208
24233W        W96493  37.947  38.468   3.748
24234W        W96494   5.810   9.323   3.646
24235W        W96495  28.372  43.237  13.586
24236W        W96496  40.620   4.065  10.714
24237W        W96497   7.697  11.563  12.805
24238W        W96498   2.218   1.249  10.778
24239W        W96499   7.194   0.725   0.359
24240W        W96500  44.677  33.306   1.844
24241W        W96501   2.665  35.832  12.887
24242W        W96502  16.814  24.643   1.276
24243W        W96503  32.944   7.900   3.993
24244W        W96504  27.066  16.546   3.730
24245W        W96505  24.538  12.478  11.837
24246W        W96506   2.776  18.534   0.372
24247W        W96507   2.791   3.503  11.680
24248W        W96508  36.001  38.447   2.358
24249W        W96509  40.356   4.370   0.334
24250W        W96510  27.148  13.159   0.893
24251W        W96511   2.649  25.349   2.561
24252W        W96512   7.789  15.722   0.436
24253W        W96513   7.645   9.626   3.031
24254W        W96514   8.287   1.721  12.576
24255W        W96515  19.015  42.321  12.586
24256W        W96516  38.981   4.070  14.352
24257W        W96517  19.139  35.621  12.312
24258W        W96518  11.944  12.569   4.571
24259W        W96519  15.665  30.327   3.130
24260W        W96520  37.948  20.937   3.270
24261W        W96521  11.416  21.576  13.517
24262W        W96522  13.080  42.511  10.452
24263W        W96523  30.865  10.329  13.705
24264W        W96524  42.874  24.071   1.435
24265W        W96525  29.026  31.496  10.093
24266W        W96526  17.103  41.415  14.780
24267W        W96527  41.393   4.684   9.881
24268W        W96528  31.261   2.900  11.727
24269W        W96529  41.378  43.314  13.237
24270W        W96530  34.448  16.187   0.774
24271W        W96531   0.930  39.344   1.782
24272W        W96532   1.582   2.016  14.461
24273W        W96533   5.774  30.951  13.636
24274W        W96534  37.578  41.038   4.082
24275W        W96535   5.332  21.570   3.408
24276W        W96536  30.621  18.284  12.767
24277W        W96537  16.152  37.919   4.917
24278W        W96538  23.148  37.133  10.725
24279W        W96539  19.251   2.418  10.774
24280W        W96540  23.001  29.027   0.351
24281W        W96541  16.760  34.582   4.585
24282W        W96542  42.998  34.987   0.919
24283W        W96543  14.705  33.616  10.178
24284W        W96544   6.843  37.818  10.613
24285W        W96545  15.817  25.536   1.513
24286W        W96546  15.157  33.647  14.463
24287W        W96547   5.891   2.278   2.241
24288W        W96548  44.782  33.872  12.090
24289W        W96549  16.169  34.722  13.730
24290W        W96550  39.761  42.648  12.379
24291W        W96551   5.678  33.737   1.753
24292W        W96552   4.894  25.601  12.352
24293W        W96553  39.587  26.099  12.525
24294W        W96554  27.159   2.010  14.913
24295W        W96555  15.998  20.749   3.161
24296W        W96556  19.072  23.621   2.928
24297W        W96557   2.783   8.133  14.530
24298W        W96558  23.547  12.610   4.857
24299W        W96559  20.387   3.764  10.651
24300W        W96560  19.543  43.815  12.470
24301W        W96561  18.319   6.408   0.729
24302W        W96562  13.058  18.277   0.299
24303W        W96563  19.023  23.070  12.510
24304W        W96564  39.721  10.142   4.101
24305W        W96565  32.861  40.051   2.350
24306W        W96566   7.372  41.545  10.627
24307W        W96567  36.879  22.723  13.444
24308W        W96568   3.836  15.683   0.871
24309W        W96569   7.729  11.909  12.454
24310W        W96570  12.220  10.819   2.192
24311W        W96571  29.665   1.752  14.278
24312W        W96572   1.974  22.108   1.865
24313W        W96573   8.755  26.783   1.857
24314W        W96574  15.460   3.121  14.335
24315W        W96575  34.423  17.107   1.168
24316W        W96576  44.989  32.170   3.297
24317W        W96577   6.784  25.466  12.357
24318W        W96578  20.588   9.937  12.010
24319W        W96579  23.648   1.887   0.520
24320W        W96580  13.695  32.897   3.022
24321W        W96581  15.899  14.681  10.502
24322W        W96582  19.769  20.211   4.409
24323W        W96583  29.197  33.976   4.846
24324W        W96584   7.361   0.618   2.691
24325W        W96585  30.860  14.675  12.123
24326W        W96586  19.186  26.431   2.893
24327W        W96587  41.907  25.675   2.629
24328W        W96588  30.459   0.412   3.714
24329W        W96589  26.132  39.557   0.882
24330W        W96590  26.908  21.645  12.532
24331W        W96591  16.645  30.563   4.451
24332W        W96592  17.643  33.916   1.216
24333W        W96593  14.310  35.988  14.899
24334W        W96594   7.600   3.202  13.929
24335W        W96595  25.562  42.977  12.549
24336W        W96596   3.844  39.016  14.804
24337W        W96597  25.253  29.969   2.162
24338W        W96598  16.694  18.831   0.407
24339W        W96599  29.511  11.746   2.006
24340W        W96600  37.377  14.099   2.195
24341W        W96601  40.005   2.832   0.501
24342W        W96602  36.153  14.245  11.375
24343W        W96603  10.747  12.082   3.669
24344W        W96604  27.328   0.830   0.323
24345W        W96605  37.885   3.872  11.649
24346W        W96606  17.778  30.074  13.416
24347W        W96607   8.362  32.986   3.280
24348W        W96608   8.560  15.803  11.269
24349W        W96609   6.235  19.502   4.076
24350W        W96610  17.147  17.104  11.563
24351W        W96611  37.099  24.771  12.879
24352W        W96612  22.867  25.444   0.986
24353W        W96613   6.362  41.824   1.023
24354W        W96614  17.769  37.483   4.091
24355W        W96615  11.270  14.155   0.524
24356W        W96616  27.226  35.761  14.231
24357W        W96617  10.742  11.895   0.224
24358W        W96618   3.664  31.407  10.880
24359W        W96619  14.185  40.037   3.658
24360W        W96620  22.731  25.368  10.136
24361W        W96621  37.325   8.849   0.804
24362W        W96622   3.626  23.580   2.133
24363W        W96623  35.179  31.512   4.385
24364W        W96624  16.841  20.992   0.730
24365W        W96625  36.906  38.550  13.038
24366W        W96626  41.546  30.593   3.689
24367W        W96627  26.638  28.992  11.930
24368W        W96628   7.213  23.946  11.606
24369W        W96629   7.245  24.904  10.646
24370W        W96630  40.287  36.335  11.946
24371W        W96631  10.707  19.235   0.493
24372W        W96632   2.665  40.862  10.673
24373W        W96633  18.635  10.641  14.997
24374W        W96634  30.508   5.820   3.349
24375W        W96635  22.507  26.424  12.433
24376W        W96636  44.040   4.308  12.401
24377W        W96637  44.672  27.584  12.469
24378W        W96638   7.930   9.178   0.906
24379W        W96639  33.655  21.593  14.423
24380W        W96640  14.705  43.505  12.500
24381W        W96641   0.087  25.444  11.146
24382W        W96642  18.232   1.025   0.062
24383W        W96643  41.480  20.702   4.522
24384W        W96644  24.158  22.487   4.179
24385W        W96645  17.153   5.899   3.800
24386W        W96646  14.884   4.551   4.571
24387W        W96647   7.363  43.313   3.678
24388W        W96648  14.115  10.294  13.482
24389W        W96649   4.795  23.268  14.462
24390W        W96650  16.790  38.039  11.494
24391W        W96651   3.100   6.801   4.648
24392W        W96652   8.455  32.635  11.466
24393W        W96653  37.855  22.280   2.337
24394W        W96654  34.510  39.423  10.657
24395W        W96655   4.937  17.171  11.961
24396W        W96656  37.507  27.875  12.010
24397W        W96657  17.634  10.420   1.777
24398W        W96658  27.467  19.692  13.437
24399W        W96659   6.779  19.121   0.525
24400W        W96660   2.496   4.973  12.038
24401W        W96661  42.067  23.243  11.334
24402W        W96662  36.073  21.999  12.929
24403W        W96663  20.598  17.069  14.966
24404W        W96664  13.427  18.504  10.564
24405W        W96665  42.388   5.267  11.884
24406W        W96666  18.099  14.678  13.015
24407W        W96667  44.030  38.923   3.285
24408W        W96668  30.558  14.616   1.387
24409W        W96669  23.185  24.519   1.490
24410W        W96670  40.862  25.067  11.310
24411W        W96671  26.738  33.048   4.126
24412W        W96672  16.440  29.334   0.345
24413W        W96673   2.824  23.697   0.373
24414W        W96674  18.364  36.824   3.251
24415W        W96675  36.053  29.314   2.723
24416W        W96676   0.517   6.263   4.292
24417W        W96677  18.906  36.055  13.512
24418W        W96678  17.674  22.334   2.802
24419W        W96679  40.800  24.687  12.236
24420W        W96680  16.683  28.504  13.459
24421W        W96681  20.770  17.329  12.511
24422W        W96682  37.879  12.900  11.092
24423W        W96683  15.608  21.673  14.014
24424W        W96684  37.006  22.759   0.718
24425W        W96685  32.356  11.830   2.125
24426W        W96686   6.891  34.315  13.150
24427W        W96687  37.573  42.859  10.660
24428W        W96688  27.023  31.501   4.906
24429W        W96689  16.199  13.129  13.336
24430W        W96690  35.945  40.506   1.957
24431W        W96691   2.888  44.591  14.971
24432W        W96692  24.238  27.954   1.845
24433W        W96693  41.486  12.742  13.772
24434W        W96694  20.124  42.692   4.294
24435W        W96695  15.122  11.879  10.072
24436W        W96696  34.640   8.826   1.661
24437W        W96697  10.186  29.456  13.930
24438W        W96698  30.154   8.850  12.793
24439W        W96699  20.612  33.829   4.808
24440W        W96700  10.395   0.908  12.255
24441W        W96701  11.406   5.197   4.499
24442W        W96702  20.835  28.944   0.355
24443W        W96703   6.641  41.287   0.412
24444W        W96704  14.806   2.317   1.581
24445W        W96705  21.589  28.590   1.619
24446W        W96706  12.768  31.209  10.532
24447W        W96707  34.547  30.422  11.678
24448W        W96708  21.523  21.202   4.197
24449W        W96709  29.963  23.133  14.019
24450W        W96710  35.460  31.454   0.973
24451W        W96711   2.386  24.610  12.319
24452W        W96712  44.807  21.569   2.455
24453W        W96713  22.457  25.629   9.746
24454W        W96714  38.484  10.949  12.046
24455W        W96715   9.561  19.124   0.478
24456W        W96716   1.396  14.112  13.981
24457W        W96717  26.036  16.917  11.053
24458W        W96718  16.958  14.512   2.448
24459W        W96719   0.988   9.229  13.294
24460W        W96720   6.921  19.674   3.241
24461W        W96721  30.150  30.940  12.412
24462W        W96722  20.661  22.963   2.061
24463W        W96723  13.121  15.163   5.376
24464W        W96724  13.806  12.402  14.967
24465W        W96725  43.399  24.247   0.255
24466W        W96726   4.148  38.191   0.788
24467W        W96727  31.659   3.812   3.759
24468W        W96728  42.450  32.932   1.385
24469W        W96729   0.255  20.556   2.309
24470W        W96730   9.122   9.875  11.196
24471W        W96731  42.688  25.808   1.764
24472W        W96732  32.418  24.625  12.050
24473W        W96733  42.241   9.257   3.688
24474W        W96734  16.803  19.842   3.315
24475W        W96735  25.086  23.670  12.330
24476W        W96736   7.172  44.893   0.533
24477W        W96737   9.590  21.216  11.145
24478W        W96738  10.032  19.502  11.077
24479W        W96739  17.135  33.059  13.865
24480W        W96740  25.670  27.253  12.626
24481W        W96741  33.982  25.972  14.454
24482W        W96742  16.177  21.695   1.736
24483W        W96743   8.699  16.001   0.856
24484W        W96744  28.365  41.819  13.916
24485W        W96745   0.299   6.388  14.946
24486W        W96746  24.650  37.543   0.896
24487W        W96747  37.099   1.246   1.275
24488W        W96748  27.874  21.630  12.856
24489W        W96749  39.419  35.657  12.474
24490W        W96750   1.851  31.263   0.333
24491W        W96751   6.343   8.330  13.087
24492W        W96752  23.053  31.204   4.669
24493W        W96753   6.921  41.439   4.600
24494W        W96754   4.638  31.660  11.113
24495W        W96755  16.392   7.290   0.006
24496W        W96756  28.860  41.598   1.204
24497W        W96757   3.267  18.031   2.810
24498W        W96758  38.783  38.206   4.172
24499W        W96759   1.072  43.960  13.673
24500W        W96760  36.818  13.083  10.822
24501W        W96761   2.789   8.887   2.284
24502W        W96762   5.739   2.284   3.213
24503W        W96763   4.797   1.443  13.486
24504W        W96764  15.336   6.786   0.244
24505W        W96765   5.765  13.356  11.594
24506W        W96766  34.360  19.529  11.167
24507W        W96767  29.131   5.011  13.907
24508W        W96768  38.791   9.758  14.362
24509W        W96769  42.730   2.646  13.088
24510W        W96770  11.100   3.647  10.717
24511W        W96771   7.175  20.199  14.932
24512W        W96772  41.032  37.803  11.300
24513W        W96773  26.946   5.141  13.929
24514W        W96774  43.356  38.572  12.832
24515W        W96775  18.265  18.737   3.700
24516W        W96776  32.482  43.524   4.557
24517W        W96777  22.234   9.832   2.212
24518W        W96778  24.083  43.730  11.055
24519W        W96779  18.564   8.855   0.755
24520W        W96780  33.655  19.157   0.972
24521W        W96781  12.315  30.477   1.631
24522W        W96782  42.696  16.148  11.395
24523W        W96783  18.098   6.395   4.677
24524W        W96784  16.141  15.120  12.572
24525W        W96785  35.516  31.215  14.671
24526W        W96786  29.974  29.022   0.776
24527W        W96787  26.824   7.231  13.876
24528W        W96788  22.498  20.543   5.034
24529W        W96789   0.575  41.712  10.525
24530W        W96790  42.217  10.664   0.290
24531W        W96791  34.822  33.378   3.313
24532W        W96792  15.059  29.016   2.724
24533W        W96793  33.265  32.135   0.201
24534W        W96794   8.614  33.225   0.627
24535W        W96795  14.664  17.558   3.179
24536W        W96796  23.937  38.764   1.862
24537W        W96797   1.398  27.670   2.808
24538W        W96798  22.721  33.667   4.359
24539W        W96799   7.948  24.576   3.101
24540W        W96800  21.423   9.829  12.429
24541W        W96801  44.943   1.862   0.249
24542W        W96802   9.283   1.921  12.063
24543W        W96803  16.515  37.045  13.098
24544W        W96804  21.259  40.032  13.829
24545W        W96805  41.935  34.326  14.294
24546W        W96806  31.424   3.017   0.137
24547W        W96807  42.050  17.359   3.563
24548W        W96808  11.275   4.497  14.808
24549W        W96809   9.464  24.667  13.089
24550W        W96810   0.929   9.324  11.070
24551W        W96811  29.450  28.924   0.795
24552W        W96812  19.536  20.292   3.964
24553W        W96813  30.044  28.100   4.156
24554W        W96814   1.318  43.415  12.043
24555W        W96815  39.653  43.297  13.904
24556W        W96816  16.500  41.903  12.727
24557W        W96817  41.280  11.522   4.227
24558W        W96818   0.772  26.470  13.496
24559W        W96819  42.773  41.453   0.994
24560W        W96820  41.956   2.139   4.280
24561W        W96821  21.082   8.191  14.010
24562W        W96822   5.939  20.224   2.753
24563W        W96823   7.182  24.636  14.913
24564W        W96824  29.888   1.931  10.833
24565W        W96825  10.846  42.393   0.267
24566W        W96826  34.290   2.368  14.991
24567W        W96827  31.122  43.834  11.508
24568W        W96828  17.055  41.884  14.014
24569W        W96829  19.708  17.251   0.379
24570W        W96830   4.401  32.028  11.413
24571W        W96831  26.828  41.967  14.260
24572W        W96832  21.406  38.774   0.880
24573W        W96833  24.094  14.549  12.437
24574W        W96834  19.068  13.378   4.488
24575W        W96835  13.596  44.139  13.918
24576W        W96836  16.516  30.011   2.732
24577W        W96837  19.485  21.469   4.878
24578W        W96838  20.051  17.596   3.074
24579W        W96839  23.264  30.487  13.321
24580W        W96840  17.949   0.542  12.395
24581W        W96841  39.513  27.783   4.178
24582W        W96842   2.312  19.271  13.714
24583W        W96843  43.342   3.446  12.549
24584W        W96844  16.581  40.052   4.130
24585W        W96845   4.140  36.875  12.825
24586W        W96846  30.585  29.436   2.224
24587W        W96847   9.400   3.530   3.050
24588W        W96848  29.949   1.442  13.943
24589W        W96849  44.372  38.647   4.626
24590W        W96850  18.092  28.176  11.529
24591W        W96851  15.350  23.262   3.349
24592W        W96852  35.003  41.902   3.259
24593W        W96853  33.641  25.682  12.533
24594W        W96854  16.664  32.594   0.776
24595W        W96855  29.336  35.876  13.396
24596W        W96856  34.860  38.094   2.296
24597W        W96857  27.067   1.032   0.744
24598W        W96858   0.877   2.162  14.762
24599W        W96859  21.593   6.458   1.367
24600W        W96860  42.497  30.151  12.085
24601W        W96861  27.511   2.329   0.522
24602W        W96862  44.778  26.314   4.527
24603W        W96863   9.214  16.701  12.925
24604W        W96864  20.098  31.041   2.202
24605W        W96865  30.598  36.135   0.192
24606W        W96866  22.147  42.087  11.137
24607W        W96867  32.873   6.602   0.682
24608W        W96868  26.279   7.029  13.805
24609W        W96869   0.003  10.277   4.519
24610W        W96870  37.413  29.496  13.660
24611W        W96871  15.135   5.838  13.769
24612W        W96872  10.439  20.555  11.201
24613W        W96873  37.751  32.057   2.681
24614W        W96874   4.470  11.751  12.083
24615W        W96875  21.973  20.141   2.353
24616W        W96876  32.425  27.287  13.697
24617W        W96877   4.824  12.348  12.426
24618W        W96878  31.854  39.800  11.096
24619W        W96879  20.627  33.158  11.887
24620W        W96880  31.333  22.541  13.475
24621W        W96881  41.338  30.428   5.069
24622W        W96882  39.488  19.263  13.878
24623W        W96883  12.174   8.291  14.022
24624W        W96884   9.934  13.977   0.834
24625W        W96885  21.003   9.233  11.214
24626W        W96886  31.446  38.473  11.735
24627W        W96887  33.933  10.396  12.515
24628W        W96888  19.757  27.939   4.065
24629W        W96889  40.859  12.583   4.545
24630W        W96890  25.160  33.544  14.781
24631W        W96891   4.857  36.614  10.390
24632W        W96892  29.953  42.319  10.567
24633W        W96893  29.684  33.385   2.199
24634W        W96894  16.059  11.124  13.328
24635W        W96895  19.742   5.372  13.108
24636W        W96896  12.769  10.640   2.927
24637W        W96897   6.455  20.671   4.625
24638W        W96898  16.928  14.068   3.653
24639W        W96899  26.113  16.640   3.594
24640W        W96900   4.760  40.215  13.489
24641W        W96901  15.981   2.519  12.932
24642W        W96902   2.447  35.934   1.706
24643W        W96903  44.176  15.024   4.274
24644W        W96904  21.114  32.023   2.235
24645W        W96905  32.501   5.822   2.809
24646W        W96906  35.002  14.089   0.442
24647W        W96907  38.847  36.322  12.112
24648W        W96908  27.576   6.243   0.699
24649W        W96909  43.899  27.098   1.278
24650W        W96910   9.822  10.365  12.977
24651W        W96911  16.580   5.160   0.366
24652W        W96912   9.882   5.873   2.856
24653W        W96913  25.453  17.603   2.914
24654W        W96914   6.230  14.324   3.565
24655W        W96915   8.391  35.070   4.471
24656W        W96916  12.353   6.664   3.252
24657W        W96917  16.588  31.519  14.810
24658W        W96918  21.119  11.014  14.260
24659W        W96919   8.877  19.590  12.520
24660W        W96920  31.846   6.568   2.139
24661W        W96921  37.777  25.591  12.489
24662W        W96922  11.196  35.177   0.223
24663W        W96923  19.611  27.574   0.268
24664W        W96924  27.512  28.203  11.434
24665W        W96925   4.483  20.656   0.730
24666W        W96926  25.549  30.766   0.426
24667W        W96927  42.555  40.831   1.307
24668W        W96928  30.982   0.570   2.487
24669W        W96929  37.975   9.795   1.817
24670W        W96930  13.504  43.314   4.533
24671W        W96931  34.456   6.815  10.884
24672W        W96932  22.154   0.313  14.538
24673W        W96933  20.043  29.051  11.937
24674W        W96934  21.230  27.071  13.551
24675W        W96935  28.408   4.247   0.456
24676W        W96936  11.076   9.856   4.909
24677W        W96937  31.845   4.267  11.139
24678W        W96938  31.459  33.930  14.057
24679W        W96939  25.887   8.115   1.351
24680W        W96940  17.467  26.057  14.977
24681W        W96941   1.637  32.135  14.235
24682W        W96942  12.072  27.115  12.651
24683W        W96943  41.810  20.938   0.377
24684W        W96944  35.913  13.861  12.559
24685W        W96945   1.238  23.910   3.795
24686W        W96946   8.975  15.901   3.158
24687W        W96947   8.676  28.852   3.814
24688W        W96948  15.847  35.921   2.356
24689W        W96949  11.910  21.754   2.401
24690W        W96950  26.286  13.555   5.074
24691W        W96951  13.859  41.760   4.562
24692W        W96952  42.377  22.123   2.158
24693W        W96953  27.039  40.345   4.978
24694W        W96954  32.468   1.949   0.748
24695W        W96955  25.060  27.923   0.223
24696W        W96956  40.988  29.285  11.049
24697W        W96957   3.735   5.267  11.048
24698W        W96958  44.473  36.370   3.811
24699W        W96959  37.692  26.047   2.862
24700W        W96960  21.568  24.918  11.529
24701W        W96961  31.171  13.277   3.834
24702W        W96962   6.280  16.140   0.467
24703W        W96963  40.435  13.003  12.157
24704W        W96964  19.218  24.040  10.661
24705W        W96965   4.473  25.201  11.151
24706W        W96966  15.037  44.805  12.499
24707W        W96967  43.036  24.513  13.462
24708W        W96968  27.364  39.238   3.764
24709W        W96969   2.838  39.460  12.982
24710W        W96970  33.415  43.304   2.621
24711W        W96971  24.144   2.100  10.180
24712W        W96972  10.055  31.501   3.508
24713W        W96973   8.885   7.802  11.319
24714W        W96974  27.413  25.732  14.240
24715W        W96975  10.886  19.385  13.533
24716W        W96976   2.483  17.582  10.531
24717W        W96977  14.031  29.030  13.939
24718W        W96978  38.945  37.803  12.054
24719W        W96979  21.891  36.003  14.293
24720W        W96980  40.834  26.120  11.869
24721W        W96981  36.073  18.634  13.221
24722W        W96982  32.499  40.947   2.854
24723W        W96983   4.776   8.204  13.455
24724W        W96984   7.602  19.680  10.292
24725W        W96985  27.967  18.247   0.921
24726W        W96986  18.734  17.349   1.750
24727W        W96987  13.675  26.738  14.867
24728W        W96988  18.653  29.251  14.463
24729W        W96989  22.262  19.538  14.595
24730W        W96990  41.454  30.950  14.547
24731W        W96991   0.892  17.396   3.703
24732W        W96992   4.440  29.524   4.147
24733W        W96993  29.115  30.917   3.370
24734W        W96994  31.643   3.801  11.209
24735W        W96995   6.969  29.001  14.332
24736W        W96996  21.222  25.337  14.025
24737W        W96997  13.901  22.823   3.783
24738W        W96998  35.440  16.692   1.428
24739W        W96999   1.395  19.085   1.934
24740W        W97000  17.601  25.075  13.391
24741W        W97001   5.228  25.813   5.088
24742W        W97002   2.804  26.261   3.561
24743W        W97003  28.686  36.339  10.682
24744W        W97004   2.625  44.238   1.614
24745W        W97005  28.945  14.154   4.135
24746W        W97006   3.883  28.982  13.919
24747W        W97007  28.572   5.860  12.477
24748W        W97008  13.740  19.181  13.541
24749W        W97009   5.459   3.228   3.629
24750W        W97010  18.365   7.359   5.143
24751W        W97011  21.529  20.534   0.911
24752W        W97012   3.890   5.903  13.002
24753W        W97013  22.742  22.588   2.062
24754W        W97014  13.825   6.211   4.564
24755W        W97015  10.607  39.811  12.213
24756W        W97016   5.354  34.047   3.830
24757W        W97017  28.427  14.621   2.131
24758W        W97018  15.492   0.918   3.197
24759W        W97019  41.874  37.938  11.857
24760W        W97020   1.810  38.270  10.892
24761W        W97021  12.779  11.906  12.486
24762W        W97022  11.373  26.160  12.462
24763W        W97023  26.203  21.332   1.933
24764W        W97024  15.083  33.072   0.785
24765W        W97025  18.533  23.198  10.601
24766W        W97026  21.739   2.485   4.519
24767W        W97027  34.163  33.321   2.263
24768W        W97028  32.015   4.603   0.472
24769W        W97029  38.225  21.273   0.409
24770W        W97030  38.084  38.087  14.921
24771W        W97031  39.437  32.142   0.113
24772W        W97032  25.616  43.818   1.689
24773W        W97033  12.805  12.784   3.603
24774W        W97034  39.487  42.806   1.799
24775W        W97035  36.479  31.452   4.098
24776W        W97036  22.049   5.265   2.344
24777W        W97037  29.714  44.248   0.408
24778W        W97038  10.213  29.673   0.434
24779W        W97039  18.984  18.732   1.844
24780W        W97040  19.767  35.577   0.376
24781W        W97041  25.684   1.875  14.793
24782W        W97042  23.717  27.380  13.530
24783W        W97043  38.068  18.583  13.064
24784W        W97044  24.615  31.113   4.276
24785W        W97045  23.029  34.633   0.694
24786W        W97046  41.812  35.298  12.917
24787W        W97047  17.359   3.197   1.135
24788W        W97048  24.322  20.035  13.458
24789W        W97049  12.530  39.807   0.573
24790W        W97050  36.714  15.328  14.864
24791W        W97051   1.161  27.028  13.301
24792W        W97052   4.904   3.482  13.848
24793W        W97053  42.347  17.964   4.893
24794W        W97054  24.132  43.959  10.583
24795W        W97055  27.430  16.710   0.378
24796W        W97056  28.596  40.340  11.641
24797W        W97057  33.927   3.952   4.197
24798W        W97058  19.547  11.091  12.447
24799W        W97059  24.612   8.859   0.211
24800W        W97060   0.812  10.875  12.836
24801W        W97061  43.003  16.631  13.309
24802W        W97062   6.692  41.888   4.462
24803W        W97063  37.971  19.708  14.440
24804W        W97064   3.987  39.506  14.497
24805W        W97065  20.588  18.538  13.145
24806W        W97066  34.197  27.540  11.034
24807W        W97067   1.984  14.465  14.491
24808W        W97068  26.550  37.365   4.412
24809W        W97069  42.985  35.896  12.541
24810W        W97070  38.649  19.160  14.604
24811W        W97071  27.548  41.923  11.497
24812W        W97072  29.015  34.841  14.703
24813W        W97073  39.803  30.440   4.857
24814W        W97074  29.121  37.359   4.980
24815W        W97075  16.849  40.015  11.609
24816W        W97076  41.238   4.206  12.865
24817W        W97077  33.338  28.934  14.871
24818W        W97078  31.072   0.700   1.187
24819W        W97079  17.168  14.085   4.491
24820W        W97080  31.322  10.739   2.800
24821W        W97081  27.920  28.387  11.687
24822W        W97082  26.598  40.461   3.735
24823W        W97083  16.679   0.289  13.970
24824W        W97084  36.977  13.159   2.002
24825W        W97085  21.143  17.646   3.796
24826W        W97086  31.500  11.591  12.880
24827W        W97087  12.982  41.991   4.073
24828W        W97088  13.724   3.903  12.654
24829W        W97089  20.344  29.894  12.099
24830W        W97090   9.789  35.921  14.460
24831W        W97091  16.883   9.334   4.777
24832W        W97092   5.526   8.413  13.145
24833W        W97093  32.440  37.462   2.587
24834W        W97094  29.643  19.635   3.190
24835W        W97095  24.167  17.070   1.829
24836W        W97096  30.988  34.615   1.856
24837W        W97097  11.861   0.534   0.992
24838W        W97098  34.986   4.773  11.036
24839W        W97099   5.648   9.054   4.102
24840W        W97100  10.930  44.116  12.626
24841W        W97101  27.602   9.876   0.771
24842W        W97102  11.758  32.794   0.260
24843W        W97103  35.616  32.361  12.995
24844W        W97104  14.630  30.883  14.427
24845W        W97105  25.521  32.957   0.538
24846W        W97106  25.201  16.754   2.677
24847W        W97107  16.573  19.080  12.415
24848W        W97108  30.508  15.350   0.345
24849W        W97109  26.784  32.524  11.650
24850W        W97110  36.691  41.996   0.211
24851W        W97111  43.436  13.639   1.161
24852W        W97112  24.788  20.401   0.926
24853W        W97113  16.414   1.178  11.108
24854W        W97114  42.091  30.945   0.957
24855W        W97115   7.197  42.266  12.405
24856W        W97116  22.958   6.126   3.727
24857W        W97117  11.006  32.993  14.929
24858W        W97118  39.306  34.691   1.574
24859W        W97119  30.645   0.516  13.374
24860W        W97120  21.612  38.970   4.410
24861W        W97121  24.061  13.705   4.270
24862W        W97122   9.667  21.512  13.039
24863W        W97123  22.822  29.882   0.432
24864W        W97124  34.374  37.786  12.151
24865W        W97125  16.876   2.012  12.990
24866W        W97126   7.375  39.524   0.275
24867W        W97127  25.118  30.155  12.275
24868W        W97128  14.368  43.833   0.363
24869W        W97129  37.374  25.590   2.765
24870W        W97130  22.760  42.434   3.907
24871W        W97131  23.953  40.876   1.368
24872W        W97132  30.639  21.083   4.595
24873W        W97133  43.694  20.324  13.935
24874W        W97134  42.026  18.076  14.783
24875W        W97135  13.317  31.405   4.639
24876W        W97136  21.068  28.548   2.075
24877W        W97137  34.099  17.963  14.892
24878W        W97138   8.820  43.270  13.995
24879W        W97139  28.628  14.929  14.845
24880W        W97140  11.356  29.485  10.393
24881W        W97141  13.309  33.378  10.622
24882W        W97142  17.572  28.648   1.407
24883W        W97143  37.584   6.681   3.307
24884W        W97144   8.887   4.442  14.411
24885W        W97145  35.047   6.493   0.324
24886W        W97146  41.804  21.176  11.482
24887W        W97147  19.353   6.197  13.064
24888W        W97148  35.459   4.941   1.662
24889W        W97149  14.714  23.068   4.546
24890W        W97150   2.270  28.721  14.209
24891W        W97151  38.677  39.338  12.889
24892W        W97152   7.622  44.056  12.406
24893W        W97153   5.125  40.436   3.224
24894W        W97154   9.208  27.486   0.357
24895W        W97155  26.720  18.639   3.670
24896W        W97156  18.260  42.230   2.643
24897W        W97157  40.387  36.618   0.405
24898W        W97158  11.346  31.708  11.541
24899W        W97159   1.935  33.064   0.726
24900W        W97160  38.093  28.219  10.902
24901W        W97161  23.109  35.686  13.391
24902W        W97162  18.965   5.682  13.474
24903W        W97163   4.793  42.372  12.025
24904W        W97164  38.453  24.217   0.710
24905W        W97165  44.832  40.937  14.504
24906W        W97166  34.123  21.783   4.240
24907W        W97167  39.107  37.201   4.145
24908W        W97168  15.158  28.721  14.502
24909W        W97169   3.382  23.584  13.936
24910W        W97170   3.614   6.662  12.288
24911W        W97171  40.275  17.986  11.559
24912W        W97172  19.228  40.478   0.755
24913W        W97173   2.831  14.774   0.843
24914W        W97174  32.562  37.259   4.233
24915W        W97175  23.559  17.731   1.418
24916W        W97176   3.795  39.118  12.568
24917W        W97177  28.122  13.506   1.914
24918W        W97178  17.607  11.747   2.191
24919W        W97179  43.085  44.145   1.840
24920W        W97180  28.072  32.706  14.447
24921W        W97181   9.842  16.420   1.319
24922W        W97182  14.291  22.233   1.046
24923W        W97183  43.833  12.770   4.134
24924W        W97184   1.220  13.837   1.841
24925W        W97185   1.219   1.463   3.232
24926W        W97186  11.764  37.486  10.833
24927W        W97187  19.318  19.028   2.119
24928W        W97188   2.792   7.363   3.646
24929W        W97189  25.709  14.562   1.850
24930W        W97190  20.441  33.839  12.952
24931W        W97191  18.109  44.530   4.832
24932W        W97192  37.059  19.019  13.479
24933W        W97193  25.472   4.437   4.127
24934W        W97194  44.358  14.230   1.010
24935W        W97195   0.253  43.503  13.354
24936W        W97196  37.839  22.205   3.168
24937W        W97197   2.403  24.114   5.043
24938W        W97198   4.943  22.667   1.454
24939W        W97199  12.161  15.039   1.088
24940W        W97200   9.010  18.748  14.386
24941W        W97201  30.616  21.194   0.421
24942W        W97202  41.174   5.251   4.071
24943W        W97203  26.708  14.800   1.899
24944W        W97204  24.624  37.576   0.382
24945W        W97205  34.649  23.245  12.828
24946W        W97206  17.888  34.960   4.571
24947W        W97207   5.713  26.565   4.701
24948W        W97208  22.645  14.292   0.339
24949W        W97209  19.642  12.218  14.836
24950W        W97210  15.563  13.696   4.668
24951W        W97211  37.218  28.825  14.803
24952W        W97212  12.775  21.746  11.683
24953W        W97213  33.452  38.549   1.763
24954W        W97214   2.992   9.750  11.620
24955W        W97215  11.727  13.895  14.984
24956W        W97216  28.545   5.000   4.124
24957W        W97217   1.417  20.351  14.352
24958W        W97218   5.809  33.074   3.219
24959W        W97219  19.098   8.137   2.642
24960W        W97220  14.879  10.410   4.593
24961W        W97221  44.846   1.876  10.655
24962W        W97222   8.399  21.406   3.688
24963W        W97223  14.900  18.217  13.821
24964W        W97224  20.446  17.503   4.669
24965W        W97225   6.400  38.594  10.816
24966W        W97226  32.119  41.395   4.617
24967W        W97227  41.505  11.265   3.794
24968W        W97228  24.090  36.381  11.534
24969W        W97229  35.702   3.466   3.588
24970W        W97230  28.871  19.513   3.746
24971W        W97231  22.160  19.522   4.867
24972W        W97232  15.099  14.194   5.119
24973W        W97233  16.153  17.608   1.108
24974W        W97234  35.601  19.470   0.305
24975W        W97235  39.395  41.926   0.346
24976W        W97236   4.821  23.457  13.970
24977W        W97237   8.878  20.407  12.880
24978W        W97238  34.198  31.662  11.491
24979W        W97239  22.695  35.184  13.881
24980W        W97240  26.970  17.713   2.117
24981W        W97241  22.082  25.068   4.229
24982W        W97242   9.933   8.587  13.849
24983W        W97243  44.289  21.110  13.931
24984W        W97244  31.925  44.769  13.145
24985W        W97245   7.672  18.568   4.112
24986W        W97246  34.359   4.437  13.876
24987W        W97247   3.263   0.382   1.856
24988W        W97248  19.793  24.628  12.528
24989W        W97249  22.052  17.241  13.446
24990W        W97250  14.745  22.297   1.301
24991W        W97251  39.299  20.743   2.749
24992W        W97252   8.504  21.093   0.251
24993W        W97253  24.220  38.915  14.393
24994W        W97254  33.993  17.748   2.204
24995W        W97255  33.602  31.114  13.865
24996W        W97256  28.684  28.890   4.672
24997W        W97257  13.372  22.213  11.991
24998W        W97258  40.512   1.303  10.562
24999W        W97259  31.485  14.644   2.763
25000W        W97260  27.453  29.147   0.839
25001W        W97261  36.870  42.773   2.847
25002W        W97262   1.708  13.841   3.236
25003W        W97263  12.838  16.304  14.923
25004W        W97264  36.555   5.818  10.769
25005W        W97265  28.096  17.760  14.420
25006W        W97266  20.701   3.411   4.980
25007W        W97267  43.814  15.565  11.704
25008W        W97268   3.209  23.097  12.307
25009W        W97269  26.723  11.105  12.114
25010W        W97270  16.126  24.168  11.215
25011W        W97271  35.047  32.538   3.531
25012W        W97272   7.377   2.470  11.182
25013W        W97273   3.346  12.726   3.786
25014W        W97274   1.427  41.798   1.926
25015W        W97275   0.251  21.344   2.623
25016W        W97276   9.219  37.152  12.511
25017W        W97277   9.751  23.949  13.495
25018W        W97278   9.163  10.884  12.868
25019W        W97279   1.983   8.607  11.219
25020W        W97280   9.629  40.211  13.369
25021W        W97281   2.256  22.948   1.783
25022W        W97282  14.043   0.188   0.572
25023W        W97283   2.833  40.420  14.201
25024W        W97284  15.337  19.672  13.733
25025W        W97285  26.942   5.285   0.441
25026W        W97286  24.950   0.475  12.114
25027W        W97287  38.456  23.482  14.816
25028W        W97288  28.756   9.079   2.647
25029W        W97289  18.544  13.311   4.587
25030W        W97290  18.191  27.530  14.234
25031W        W97291  43.004  23.166   3.182
25032W        W97292   7.222  17.594   3.719
25033W        W97293  17.047  34.154  14.819
25034W        W97294  41.647  34.111   0.869
25035W        W97295  18.257  27.660   2.314
25036W        W97296  10.191  38.787   1.362
25037W        W97297  44.372  13.473   2.200
25038W        W97298  32.645  41.191   0.365
25039W        W97299   6.923  21.523  14.484
25040W        W97300  44.984   3.676   4.919
25041W        W97301  30.141  37.600   0.914
25042W        W97302   6.770   1.195   3.699
25043W        W97303   2.730  25.082   0.980
25044W        W97304  24.057  17.226   4.069
25045W        W97305  38.431  17.787   3.179
25046W        W97306  35.927  20.799  11.434
25047W        W97307  22.978   6.449  12.979
25048W        W97308  19.763  35.524  13.978
25049W        W97309   4.393  43.495  11.087
25050W        W97310  44.350  39.445   2.271
25051W        W97311   0.796  39.767   0.418
25052W        W97312  35.576   2.626  11.624
25053W        W97313  24.973  33.513  13.485
25054W        W97314  25.137  10.813  11.989
25055W        W97315  41.909  14.336   0.255
25056W        W97316  24.189  23.009   4.104
25057W        W97317  10.147  32.251  13.672
25058W        W97318  18.785  32.006  14.776
25059W        W97319  19.717  26.635  13.892
25060W        W97320  10.250  38.063  11.386
25061W        W97321   0.810   2.330  10.453
25062W        W97322  14.125  38.514   0.776
25063W        W97323  30.896  10.083  12.362
25064W        W97324  28.698  25.245  14.243
25065W        W97325   5.373  12.304   2.361
25066W        W97326   4.666  34.668   2.873
25067W        W97327  17.503   3.773  11.383
25068W        W97328  29.486  36.315  12.399
25069W        W97329  27.569  11.585  13.512
25070W        W97330  35.341   3.426   5.037
25071W        W97331  13.722  24.047   3.570
25072W        W97332  23.641  41.087   0.417
25073W        W97333  30.713  17.169  14.824
25074W        W97334  13.536  31.495  10.933
25075W        W97335   8.401  13.781   4.716
25076W        W97336  18.135   3.855   1.911
25077W        W97337  12.677   9.342  13.773
25078W        W97338  15.706  44.848   3.223
25079W        W97339  41.285   2.975  10.743
25080W        W97340  20.217  13.530   4.190
25081W        W97341  44.406   1.343   1.010
25082W        W97342  13.749   3.840  13.603
25083W        W97343  34.977  43.062  10.770
25084W        W97344  25.499   4.621   2.351
25085W        W97345  14.222   6.299  13.872
25086W        W97346  18.727  33.812   0.695
25087W        W97347   8.133  26.313   1.390
25088W        W97348  34.494   3.152   3.578
25089W        W97349  10.253   3.314   3.329
25090W        W97350  19.250  12.192   2.772
25091W        W97351  18.731  38.356   2.357
25092W        W97352  29.537   6.932  13.507
25093W        W97353  39.714  19.151  11.157
25094W        W97354  29.167  41.992   1.061
25095W        W97355  20.106   8.875   0.234
25096W        W97356  12.616  22.150   1.225
25097W        W97357   5.193  30.634   4.196
25098W        W97358   9.940   3.589   0.390
25099W        W97359  23.620  40.055  10.839
25100W        W97360  31.629  12.642   2.686
25101W        W97361  10.224  37.352  13.070
25102W        W97362   8.153  15.671   1.396
25103W        W97363  20.722  41.763   3.170
25104W        W97364   6.478   6.524  11.938
25105W        W97365  20.233  22.996   1.418
25106W        W97366  39.823  12.353   1.340
25107W        W97367   9.313  39.071  14.769
25108W        W97368  20.018  35.113  10.588
25109W        W97369   1.544   7.627   0.772
25110W        W97370  21.988  23.827  13.455
25111W        W97371  37.439  38.109   1.211
25112W        W97372   2.001  25.708   3.176
25113W        W97373  42.323   0.347  11.267
25114W        W97374  30.968   3.930   1.569
25115W        W97375   5.296   3.904   4.621
25116W        W97376  26.530   0.548   4.233
25117W        W97377  43.803  22.603   1.426
25118W        W97378   6.593  28.199  10.210
25119W        W97379  30.145  32.596  11.976
25120W        W97380   6.802  20.095   0.916
25121W        W97381  20.586  26.614  14.587
25122W        W97382   4.616  19.652   4.176
25123W        W97383   8.223  11.921  14.564
25124W        W97384  28.190  42.571  14.405
25125W        W97385  32.881  36.760   1.704
25126W        W97386  22.790  15.303   1.711
25127W        W97387  42.334   8.305   1.529
25128W        W97388  44.801  25.617  10.746
25129W        W97389  41.623  30.852  13.645
25130W        W97390  18.592  42.764  13.729
25131W        W97391  16.925  24.944  11.639
25132W        W97392   0.364  42.571  11.462
25133W        W97393  21.970  39.692   0.207
25134W        W97394  24.624   2.799  10.556
25135W        W97395  15.318   9.435  14.429
25136W        W97396   9.179  40.804   0.668
25137W        W97397   7.155  25.104  14.688
25138W        W97398   6.462  43.828   2.352
25139W        W97399   6.399  12.351   0.781
25140W        W97400   7.677  24.021  10.645
25141W        W97401  23.485  15.691   2.530
25142W        W97402   9.775  29.896   3.137
25143W        W97403   9.845  43.144  11.913
25144W        W97404  36.965  17.817   1.829
25145W        W97405   1.733  33.988  13.386
25146W        W97406  36.442  32.802   1.862
25147W        W97407  31.373  31.119   1.674
25148W        W97408  24.053   8.923   1.453
25149W        W97409   4.457  18.733  14.756
25150W        W97410   2.193  26.568  10.143
25151W        W97411  12.883  39.929   1.643
25152W        W97412   0.282  21.325   0.167
25153W        W97413  39.990   6.690   1.403
25154W        W97414  10.634  19.887  10.732
25155W        W97415  20.550   0.837   4.935
25156W        W97416  44.015  31.929  11.954
25157W        W97417  22.032  22.493  13.348
25158W        W97418   0.272  33.942   2.150
25159W        W97419   2.676  42.317  11.096
25160W        W97420  30.638  38.637   1.273
25161W        W97421  32.924   5.442  13.595
25162W        W97422   4.251   3.635   2.786
25163W        W97423  40.500   1.948   2.437
25164W        W97424  36.636  43.696  14.755
25165W        W97425   6.727   3.758   0.011
25166W        W97426  13.647  11.355  12.541
25167W        W97427   6.905   8.039  13.803
25168W        W97428  34.935  19.914  12.384
25169W        W97429  13.953  28.911  12.120
25170W        W97430  41.519   2.343   1.542
25171W        W97431  31.488   0.224   3.688
25172W        W97432  37.028  12.733  10.485
25173W        W97433  24.003  15.405   3.811
25174W        W97434  24.065  12.331  12.104
25175W        W97435   5.912  12.820  10.736
25176W        W97436  19.320   2.011   4.651
25177W        W97437  16.010  14.669  12.316
25178W        W97438  39.937  20.220  13.268
25179W        W97439  14.667  26.561   3.372
25180W        W97440  22.184  38.004  13.105
25181W        W97441  32.112  17.392  11.160
25182W        W97442  22.757  13.316  14.051
25183W        W97443  15.679  27.656  10.856
25184W        W97444   2.979  21.941  14.588
25185W        W97445  24.547   0.338  14.906
25186W        W97446  28.569  32.689   4.124
25187W        W97447  17.773  35.105   2.138
25188W        W97448  19.311  35.306  14.051
25189W        W97449   9.612  18.592   0.761
25190W        W97450  21.711  18.833   3.560
25191W        W97451  42.317  42.938  12.476
25192W        W97452  15.021  16.906   4.844
25193W        W97453  17.923  33.241  10.538
25194W        W97454   2.062  27.429   4.482
25195W        W97455  41.334   1.549   0.889
25196W        W97456   7.212  10.864   3.239
25197W        W97457  43.459  22.212  11.363
25198W        W97458  16.415  13.677   4.230
25199W        W97459  26.940  22.386   2.382
25200W        W97460  24.594   7.852   4.772
25201W        W97461  12.143  35.672   0.427
25202W        W97462   8.305  33.795  14.830
25203W        W97463   0.996  13.711   0.430
25204W        W97464  21.623  43.431   1.307
25205W        W97465  31.733   2.878  12.631
25206W        W97466  25.109  39.915   5.168
25207W        W97467   1.044  24.595   0.232
25208W        W97468  15.999  34.076   3.750
25209W        W97469  26.927  43.196   3.242
25210W        W97470  30.212   9.624  11.428
25211W        W97471  40.415   9.384   1.391
25212W        W97472   6.155  41.895   3.768
25213W        W97473  29.940  37.581  12.698
25214W        W97474  33.124   4.186   2.857
25215W        W97475   7.930  11.350  13.965
25216W        W97476  40.425  33.023   4.755
25217W        W97477  43.354  18.310  12.818
25218W        W97478  23.554  41.604   1.923
25219W        W97479  31.723  13.042  13.858
25220W        W97480  14.282   6.474   1.428
25221W        W97481   1.290  35.473   4.611
25222W        W97482  16.716  24.129   2.851
25223W        W97483  34.120  19.238   2.728
25224W        W97484  31.177  32.025  12.510
25225W        W97485  37.964   8.397   4.870
25226W        W97486  16.878  16.396  13.922
25227W        W97487  21.538  26.227   2.763
25228W        W97488  22.616  25.939   0.911
25229W        W97489  27.922  15.787  14.543
25230W        W97490  39.537   9.304  14.145
25231W        W97491   5.039   0.898   4.273
25232W        W97492  43.956  38.365   4.890
25233W        W97493  43.138   2.427   2.273
25234W        W97494  12.954  21.047  10.368
25235W        W97495  18.441  24.586  13.029
25236W        W97496  41.075  22.742   1.699
25237W        W97497  40.304  28.280  11.452
25238W        W97498  11.189  23.172   1.368
25239W        W97499  28.318  32.099   0.336
25240W        W97500   6.459  41.451  11.001
25241W        W97501  14.614   1.317  12.534
25242W        W97502  14.594  19.029  13.386
25243W        W97503   7.634  42.542  12.485
25244W        W97504  10.756  32.544  14.995
25245W        W97505  13.626   5.418  13.069
25246W        W97506   4.866  41.111   1.133
25247W        W97507  33.654   6.494  11.543
25248W        W97508   6.745   1.235  12.716
25249W        W97509  27.001   5.992  12.533
25250W        W97510  27.876  40.381   0.321
25251W        W97511  32.382  23.783  12.805
25252W        W97512  38.392   7.364  13.230
25253W        W97513  17.864  11.413   1.791
25254W        W97514  36.939   3.608  11.113
25255W        W97515  37.454  29.117   1.648
25256W        W97516  15.664  11.783   2.246
25257W        W97517   7.692  33.395   0.516
25258W        W97518  20.570  10.897   4.552
25259W        W97519  10.381  35.436  11.978
25260W        W97520  40.030   8.682   4.191
25261W        W97521  20.957   1.035  14.447
25262W        W97522  31.941   6.468   4.697
25263W        W97523   8.166  11.342  12.890
25264W        W97524  19.211  12.851   4.388
25265W        W97525  35.471  16.307  12.238
25266W        W97526  24.250  43.317   2.149
25267W        W97527  41.679   5.204   4.105
25268W        W97528   6.699  37.355  11.450
25269W        W97529  10.147  15.812  12.330
25270W        W97530  18.573  44.339   3.391
25271W        W97531  13.147   0.559   4.933
25272W        W97532   5.723  31.514  12.415
25273W        W97533  44.813  20.432   2.665
25274W        W97534   5.698  34.893  11.919
25275W        W97535  11.722  38.531   0.952
25276W        W97536   4.960  25.995   1.444
25277W        W97537   0.362  36.824   2.828
25278W        W97538   1.531  14.252   1.716
25279W        W97539  37.108   4.408  14.434
25280W        W97540  31.169  40.394  10.931
25281W        W97541  27.868  11.154   1.794
25282W        W97542  36.272   2.159   2.796
25283W        W97543  44.378  38.601   3.510
25284W        W97544  16.064   8.178   0.963
25285W        W97545  34.515  12.235   4.684
25286W        W97546  21.164  44.929   2.242
25287W        W97547   5.943   3.848  12.469
25288W        W97548  25.938  14.833   1.397
25289W        W97549  14.351  30.936  12.325
25290W        W97550  25.986   2.374  13.797
25291W        W97551   8.747  42.437   1.252
25292W        W97552  24.430  27.029  12.405
25293W        W97553   4.003   7.816  12.313
25294W        W97554  33.228  33.672   4.144
25295W        W97555  14.747  37.361  11.905
25296W        W97556  20.063  33.081   4.488
25297W        W97557  40.350  36.834  12.054
25298W        W97558  22.458  37.754  12.216
25299W        W97559   4.377  38.008   4.095
25300W        W97560   2.739   5.409  12.161
25301W        W97561  11.638  39.574   3.405
25302W        W97562  22.942  32.516   0.349
25303W        W97563  22.183  23.646   2.435
25304W        W97564  31.635  37.479  11.087
25305W        W97565  33.195   4.687   3.731
25306W        W97566   8.002  37.556   2.606
25307W        W97567  18.538   7.356  13.121
25308W        W97568   3.817   6.854  10.442
25309W        W97569   0.263  17.735   2.348
25310W        W97570  44.500  29.179  14.391
25311W        W97571   5.949  14.071  14.412
25312W        W97572   4.351  14.814  12.014
25313W        W97573  32.926  34.118  12.588
25314W        W97574  16.831  11.383   3.279
25315W        W97575   3.878  18.008  13.746
25316W        W97576  27.080  36.758  14.328
25317W        W97577  25.769  37.667   1.874
25318W        W97578  13.543  16.262  11.565
25319W        W97579  11.264  16.594   0.904
25320W        W97580  25.245   9.335  11.170
25321W        W97581  14.604   5.709   0.424
25322W        W97582  24.113  15.299  12.584
25323W        W97583  44.819   1.582  13.421
25324W        W97584  14.301  42.061   0.849
25325W        W97585  25.646   3.415  13.781
25326W        W97586  22.627  31.552   3.126
25327W        W97587  31.607  30.950   5.253
25328W        W97588  10.908  14.950   0.503
25329W        W97589   7.894  30.567   1.804
25330W        W97590  13.232  33.446   3.650
25331W        W97591   0.056  10.640   1.284
25332W        W97592  29.610   8.716   1.758
25333W        W97593  27.618  31.382  11.079
25334W        W97594   2.018  12.404   4.491
25335W        W97595  34.343  18.864   0.392
25336W        W97596  16.423  24.472  12.466
25337W        W97597  22.158  32.040  11.862
25338W        W97598  31.590  38.407   1.493
25339W        W97599  14.332  12.170  13.451
25340W        W97600  44.452  17.574  11.084
25341W        W97601  38.589  37.337   3.229
25342W        W97602  28.826  35.521   1.944
25343W        W97603  18.103  33.684   0.077
25344W        W97604  17.661  34.467   3.294
25345W        W97605  16.211  38.443   2.795
25346W        W97606  39.892  31.426  12.062
25347W        W97607   8.842  10.997  13.805
25348W        W97608  42.472   1.404   4.106
25349W        W97609   5.041  34.521  13.484
25350W        W97610  11.976  36.195   3.909
25351W        W97611  36.580  33.190  12.366
25352W        W97612   8.716  29.395  13.031
25353W        W97613  18.625  29.436  11.564
25354W        W97614  33.576  20.640  11.484
25355W        W97615   9.437  20.383  11.178
25356W        W97616  21.041  23.737   2.800
25357W        W97617  38.094  18.176  10.876
25358W        W97618  38.449   0.803  10.377
25359W        W97619  19.932   5.675  12.330
25360W        W97620  19.447  13.749  13.482
25361W        W97621  32.446  25.475  12.973
25362W        W97622  10.579  18.008   5.063
25363W        W97623  42.840   9.273   0.898
25364W        W97624  13.323  28.017  14.709
25365W        W97625  17.599   8.769  10.738
25366W        W97626  31.827  29.164   3.099
25367W        W97627   9.643   7.089  14.493
25368W        W97628   5.047  38.966  11.874
25369W        W97629  42.780   8.840  13.784
25370W        W97630  24.651  33.464  14.858
25371W        W97631   8.472  21.619   2.804
25372W        W97632   8.684  41.977  10.660
25373W        W97633   9.871  42.328  12.028
25374W        W97634  18.687  22.474  14.272
25375W        W97635  37.072  29.537   0.350
25376W        W97636   9.341  44.923  11.402
25377W        W97637  41.402  39.141  10.665
25378W        W97638  35.993   9.034  14.813
25379W        W97639  32.869  37.868  12.500
25380W        W97640  29.510  12.641   2.174
25381W        W97641   9.925   1.397  14.768
25382W        W97642  31.619  35.533   1.620
25383W        W97643   3.674  26.372   1.811
25384W        W97644  22.559  13.287  13.575
25385W        W97645  26.617   1.810   4.919
25386W        W97646  28.882  25.234  13.384
25387W        W97647  30.972  29.974  14.993
25388W        W97648  41.130  34.859   1.878
25389W        W97649  26.590  43.926   4.668
25390W        W97650  32.876  40.379   4.250
25391W        W97651  34.863  11.163   1.189
25392W        W97652   8.970  33.530  12.956
25393W        W97653  26.095  42.158   3.248
25394W        W97654  28.082  31.419   4.132
25395W        W97655  35.766  20.648   5.561
25396W        W97656  23.064  18.304   1.780
25397W        W97657  37.960   4.554  13.038
25398W        W97658  36.815  33.191   1.801
25399W        W97659   0.642  18.025   0.748
25400W        W97660  43.562   9.200   3.248
25401W        W97661   7.979  25.755  13.456
25402W        W97662  35.004  14.306  11.432
25403W        W97663   2.693  29.113   3.269
25404W        W97664  23.773   5.315   0.734
25405W        W97665  31.962  17.579   1.151
25406W        W97666  38.428  36.318  12.884
25407W        W97667  13.961   3.412  13.417
25408W        W97668   2.239   4.491   0.313
25409W        W97669  26.209   3.212   2.179
25410W        W97670  26.552  13.981   4.932
25411W        W97671  33.476  36.834  13.533
25412W        W97672  15.628  27.615  14.953
25413W        W97673  26.405  21.830  12.424
25414W        W97674  41.820  22.918   2.415
25415W        W97675  27.889  13.631   2.898
25416W        W97676  37.925   5.238  11.683
25417W        W97677  25.654   6.218  13.478
25418W        W97678   0.797  43.821  10.737
25419W        W97679  10.437  38.902  13.243
25420W        W97680   3.944  38.510  10.661
25421W        W97681   5.276  40.620  11.544
25422W        W97682  37.639   7.323  10.346
25423W        W97683  12.659  19.506  11.965
25424W        W97684   4.315  41.533  13.165
25425W        W97685  20.719  34.075  12.564
25426W        W97686   0.119   4.970  11.234
25427W        W97687  41.936  39.056  10.930
25428W        W97688  40.808  13.150   4.304
25429W        W97689   9.806  37.590  11.730
25430W        W97690  35.080  26.674  12.963
25431W        W97691   9.650   3.691   3.499
25432W        W97692  11.666  15.083   4.149
25433W        W97693   2.987  15.383  12.071
25434W        W97694   2.262  29.901   4.585
25435W        W97695  44.873  12.217  14.735
25436W        W97696  32.427  41.470   2.778
25437W        W97697  39.111  21.852  11.114
25438W        W97698  43.881  11.849   1.666
25439W        W97699  12.179  44.423   1.332
25440W        W97700  31.120  16.321   4.077
25441W        W97701  23.053  32.965  10.595
25442W        W97702  32.860  41.819   1.143
25443W        W97703   9.063  19.724  10.690
25444W        W97704   8.927  39.402  12.699
25445W        W97705  34.881   4.524  12.612
25446W        W97706  25.309  44.323  11.183
25447W        W97707  40.811  31.464   2.220
25448W        W97708  43.754   1.672  12.400
25449W        W97709  30.567  21.734  12.863
25450W        W97710  17.123  43.520   2.132
25451W        W97711  26.474  11.859   0.969
25452W        W97712  21.080  40.780   3.638
25453W        W97713  30.890   6.351   1.763
25454W        W97714  14.306  17.454  11.306
25455W        W97715  35.251  11.855   0.553
25456W        W97716   0.843  17.455   5.060
25457W        W97717  18.004   5.789  10.590
25458W        W97718   8.441  27.540   2.218
25459W        W97719  10.776  36.000   3.105
25460W        W97720  11.530  22.451  10.638
25461W        W97721   0.097  31.181   3.117
25462W        W97722  19.990  44.743   2.239
25463W        W97723  24.903  42.865   3.585
25464W        W97724   9.100  38.832   0.193
25465W        W97725  38.946  18.752  12.382
25466W        W97726  11.952  18.191  13.957
25467W        W97727   7.253  37.377  11.492
25468W        W97728  22.486  15.842  13.501
25469W        W97729  13.825  30.424  12.022
25470W        W97730  15.282  16.001  14.777
25471W        W97731  18.047  16.601   4.747
25472W        W97732   5.626  27.570   1.626
25473W        W97733   1.985  36.084   4.526
25474W        W97734  33.068  19.542  14.232
25475W        W97735  37.172  14.306  11.927
25476W        W97736  43.948   7.354  14.455
25477W        W97737  36.843  44.867   1.186
25478W        W97738  13.553  11.211   2.680
25479W        W97739  31.149  15.623   4.525
25480W        W97740  33.415  29.133  10.460
25481W        W97741  43.999  42.044   1.102
25482W        W97742  40.822  37.109  12.105
25483W        W97743  35.137  31.395   3.273
25484W        W97744  17.735  25.695   3.464
25485W        W97745  14.139  32.053   0.786
25486W        W97746   2.215  11.132   3.283
25487W        W97747  42.664  36.840  11.663
25488W        W97748  43.174   8.975   2.206
25489W        W97749  22.598  32.627   4.556
25490W        W97750  15.786  11.947   3.175
25491W        W97751   0.990  14.268  12.513
25492W        W97752   3.301   7.302  12.055
25493W        W97753  27.629  40.082   3.809
25494W        W97754  34.051  13.751  12.719
25495W        W97755  34.228  40.042   3.629
25496W        W97756  11.030  25.897   1.755
25497W        W97757  43.894  37.497   0.489
25498W        W97758   2.404  30.430  13.892
25499W        W97759   5.716   1.031   1.762
25500W        W97760  16.235   9.134   0.322
25501W        W97761  36.808  39.065  11.564
25502W        W97762  19.826   1.767   0.346
25503W        W97763   3.297  25.431   2.443
25504W        W97764   7.969   6.450   0.838
25505W        W97765  38.515  29.485  10.529
25506W        W97766  30.270   5.346   1.040
25507W        W97767  44.699  37.537  14.275
25508W        W97768  15.961  14.494  14.508
25509W        W97769   4.006  26.876   4.512
25510W        W97770  18.130  17.595  11.573
25511W        W97771  40.985  31.565  13.500
25512W        W97772  21.059  18.744   4.286
25513W        W97773  26.534  13.351   2.700
25514W        W97774  16.789  42.320  11.959
25515W        W97775  30.894   5.944  11.647
25516W        W97776   0.283  37.337  13.777
25517W        W97777  36.504   7.826   4.123
25518W        W97778  14.735   6.976  11.233
25519W        W97779  37.773   3.651  10.710
25520W        W97780  10.428  39.822   4.548
25521W        W97781  16.354  34.430  13.368
25522W        W97782  32.918   8.795   0.073
25523W        W97783  37.066  29.683   2.827
25524W        W97784   1.631  24.396   3.780
25525W        W97785  29.377  17.685  14.936
25526W        W97786  30.541   9.748  12.167
25527W        W97787  29.995   9.085   3.044
25528W        W97788  26.983  30.446  12.421
25529W        W97789  27.084  37.000  12.976
25530W        W97790  20.969  41.984   4.025
25531W        W97791   2.073  32.109   4.154
25532W        W97792   4.332   0.951   3.252
25533W        W97793   7.912  14.679  14.481
25534W        W97794   2.506   7.642   4.075
25535W        W97795   2.875  32.705  13.865
25536W        W97796  13.605  41.998  13.364
25537W        W97797  13.734  11.786   3.200
25538W        W97798  21.609  30.492   4.961
25539W        W97799   2.691   8.236   1.328
25540W        W97800  44.883  21.135  14.559
25541W        W97801  17.291  24.892   1.263
25542W        W97802  34.548  20.546   1.836
25543W        W97803  40.931  23.681  12.049
25544W        W97804  11.010   5.889   4.826
25545W        W97805  29.622  28.923   3.218
25546W        W97806  34.211  39.811  14.469
25547W        W97807  19.196  28.038  13.055
25548W        W97808  44.262  14.279   0.015
25549W        W97809  29.273  18.377   3.228
25550W        W97810  22.675  17.624   2.796
25551W        W97811  25.925   2.716   0.262
25552W        W97812   4.883  28.957  11.254
25553W        W97813  36.950  23.249  13.504
25554W        W97814  41.890  31.668  11.507
25555W        W97815  39.576   6.240  10.964
25556W        W97816  21.717  39.096   2.286
25557W        W97817  20.233  21.052   2.754
25558W        W97818  20.040   0.553   4.975
25559W        W97819  17.692  24.811  11.192
25560W        W97820  11.139   4.364  13.385
25561W        W97821  16.640  40.988   2.231
25562W        W97822  44.799   6.404   1.048
25563W        W97823  41.089  28.065   0.722
25564W        W97824  16.012  37.327   2.362
25565W        W97825  34.463  28.315   3.705
25566W        W97826  39.239  19.671   3.210
25567W        W97827  30.670   8.358   0.972
25568W        W97828  43.855   8.271  11.645
25569W        W97829  39.487  28.557   2.348
25570W        W97830  30.056  13.808  13.115
25571W        W97831  40.335   8.256  14.928
25572W        W97832  31.350   9.825   1.319
25573W        W97833   7.980  25.657   3.093
25574W        W97834  31.895  43.430   4.717
25575W        W97835  16.103  24.991   3.680
25576W        W97836  13.016  37.429  10.305
25577W        W97837  15.537  14.045   9.806
25578W        W97838   9.868  20.054   1.406
25579W        W97839  27.491  27.905   1.036
25580W        W97840  21.900  32.629   0.408
25581W        W97841  28.984  24.273   2.777
25582W        W97842  31.442  43.056   0.585
25583W        W97843  17.162  11.181   2.950
25584W        W97844  43.052   0.549   1.838
25585W        W97845  10.276  21.302   0.398
25586W        W97846  34.994   7.277   2.184
25587W        W97847   2.297  31.598  11.062
25588W        W97848  20.789  17.854   0.631
25589W        W97849  29.263  18.127  11.467
25590W        W97850  37.802  16.129  14.837
25591W        W97851  10.367   2.481  11.951
25592W        W97852  44.120  19.689   4.115
25593W        W97853  10.142  11.947   2.321
25594W        W97854  20.024  44.685   0.011
25595W        W97855  18.721  25.570   1.346
25596W        W97856  40.669   5.214  11.420
25597W        W97857   1.811   1.680   3.739
25598W        W97858  17.023  18.263  12.661
25599W        W97859  42.009  12.369   2.527
25600W        W97860   5.428  15.114   2.410
25601W        W97861  43.851  28.694   2.243
25602W        W97862  15.821  23.939   0.703
25603W        W97863  11.246  20.241   0.569
25604W        W97864  40.426  14.928  14.517
25605W        W97865  26.092  17.055   1.214
25606W        W97866  16.294   0.906  11.527
25607W        W97867  15.168  13.880   1.933
25608W        W97868   7.894  25.438  10.925
25609W        W97869   5.819  33.694  14.385
25610W        W97870  29.755  18.006  14.015
25611W        W97871   3.494   9.865  11.605
25612W        W97872  20.510  11.364  10.720
25613W        W97873  34.920  39.496   0.890
25614W        W97874  42.909  10.913   2.567
25615W        W97875  13.867   3.142   1.218
25616W        W97876  23.128  21.060  12.929
25617W        W97877  12.055   6.411   2.853
25618W        W97878  31.595  10.310  13.436
25619W        W97879  17.350  32.118   2.318
25620W        W97880  38.591  29.354   3.817
25621W        W97881  30.421  14.238  13.479
25622W        W97882  10.658   3.990  12.029
25623W        W97883  12.468  11.598  12.896
25624W        W97884  29.021  32.582   3.812
25625W        W97885  13.230  41.642   1.927
25626W        W97886  41.194   7.387   3.795
25627W        W97887  26.367  19.537   4.081
25628W        W97888  12.937  10.179  12.913
25629W        W97889  12.366   1.103  12.621
25630W        W97890  41.524  13.077  13.041
25631W        W97891   0.675   9.582  14.078
25632W        W97892  39.136   0.257   0.604
25633W        W97893  20.606  43.218   0.962
25634W        W97894   2.337   4.647   2.731
25635W        W97895  33.629  42.435   4.181
25636W        W97896   1.890  43.316  12.080
25637W        W97897   9.418  20.275   0.437
25638W        W97898  39.301  15.229   4.187
25639W        W97899  43.689  42.705  11.136
25640W        W97900  12.014  24.995  12.382
25641W        W97901  35.803   6.385   4.891
25642W        W97902  17.126  42.523  12.425
25643W        W97903  28.959   2.430   3.435
25644W        W97904  34.938  17.603  13.949
25645W        W97905  38.990  17.756  14.415
25646W        W97906   7.472  32.319  13.883
25647W        W97907  17.669  14.285   4.338
25648W        W97908   8.660  26.024  10.996
25649W        W97909  19.344  28.541  13.029
25650W        W97910  29.895  25.678   0.887
25651W        W97911  44.173  14.512   4.365
25652W        W97912  44.312   4.378   3.311
25653W        W97913  31.709  32.081  14.868
25654W        W97914  25.787  16.909   2.358
25655W        W97915  32.645  13.920   4.912
25656W        W97916  26.257   1.767  10.658
25657W        W97917   3.509  10.502   0.986
25658W        W97918  25.669  44.394   2.365
25659W        W97919  12.815  35.409  14.056
25660W        W97920  27.601   3.940  14.354
25661W        W97921  39.920  13.229   3.349
25662W        W97922  37.345  15.976   0.021
25663W        W97923  31.708   0.024   1.921
25664W        W97924  15.115  44.554  11.231
25665W        W97925  37.299  25.997  14.983
25666W        W97926  10.178  43.789  12.935
25667W        W97927  23.792  20.678   1.080
25668W        W97928  23.657  42.440   0.229
25669W        W97929   3.297  25.886   4.110
25670W        W97930  30.471  23.913  12.507
25671W        W97931  20.632  42.876   4.243
25672W        W97932  29.446  12.421  11.175
25673W        W97933  28.040  10.243  10.469
25674W        W97934   1.776  10.666   3.826
25675W        W97935   1.329  42.332   1.972
25676W        W97936  44.250  43.823   0.223
25677W        W97937   3.649  16.819  10.770
25678W        W97938   6.373  16.237  13.977
25679W        W97939  39.367  39.634  14.962
25680W        W97940   3.895  33.331  13.807
25681W        W97941  15.600  42.805  10.761
25682W        W97942  11.356  33.600  13.026
25683W        W97943  30.934  27.400   4.174
25684W        W97944  43.942   6.849   1.853
25685W        W97945   3.841  42.094   0.204
25686W        W97946  11.562  31.162  14.434
25687W        W97947  17.568  13.709  12.200
25688W        W97948  19.303   2.320  12.245
25689W        W97949  19.248  21.539  13.593
25690W        W97950  43.867  25.095  13.996
25691W        W97951  15.115  31.595   2.701
25692W        W97952  13.316  20.284   4.410
25693W        W97953  17.149  37.938   4.695
25694W        W97954  24.208  16.178   2.185
25695W        W97955  11.648  20.094  12.857
25696W        W97956  43.556  17.685   1.370
25697W        W97957  23.496  30.645  11.078
25698W        W97958  28.262  25.518  14.987
25699W        W97959   2.748   4.307   2.005
25700W        W97960   8.278  28.582  12.882
25701W        W97961   5.760   2.297   0.455
25702W        W97962  21.413  15.520  12.410
25703W        W97963  17.091  23.184  13.382
25704W        W97964   5.331  20.061  14.519
25705W        W97965  16.154  38.230   1.295
25706W        W97966  24.548  27.598   4.287
25707W        W97967  39.280  17.347  10.737
25708W        W97968   6.142   8.863   4.157
25709W        W97969  26.975  23.156  13.369
25710W        W97970   8.518  26.342   2.775
25711W        W97971  44.917   2.669   1.873
25712W        W97972  17.232  12.421  13.571
25713W        W97973   9.636   9.629   3.721
25714W        W97974   7.467  25.118   3.780
25715W        W97975   7.069   3.381  11.555
25716W        W97976  31.565  35.778   0.347
25717W        W97977  33.611  25.209   2.167
25718W        W97978  20.694  19.564   9.999
25719W        W97979  19.148  23.237  14.451
25720W        W97980   5.199  11.841  14.738
25721W        W97981  20.301  32.659   3.594
25722W        W97982  15.812  38.768  12.326
25723W        W97983  18.328  17.472   4.907
25724W        W97984  34.598  10.845  12.940
25725W        W97985  13.032  26.081   3.563
25726W        W97986  24.170  15.904  14.588
25727W        W97987  22.279  29.035  13.781
25728W        W97988  42.304  38.422   3.446
25729W        W97989  29.350  27.019   3.838
25730W        W97990  28.192  33.438   2.443
25731W        W97991   5.421  30.619   0.384
25732W        W97992  32.360  12.086   2.567
25733W        W97993  27.454  10.803   4.845
25734W        W97994  27.886  30.433   1.766
25735W        W97995   7.294   6.300  13.199
25736W        W97996  30.320   8.375   1.356
25737W        W97997  26.426  13.743   0.530
25738W        W97998  42.281  10.270  11.938
25739W        W97999   5.894  19.654  11.641
25740W        W98000   1.492  42.385   3.791
25741W        W98001   8.027  38.469  12.003
25742W        W98002  33.703  19.698   0.336
25743W        W98003  21.178  16.089   4.642
25744W        W98004  20.478  37.594  11.139
25745W        W98005  37.315  29.431   5.270
25746W        W98006  29.495   3.896   1.959
25747W        W98007  42.103  42.629   4.816
25748W        W98008  28.397  34.546  10.958
25749W        W98009  18.825  24.070   4.134
25750W        W98010   6.125  36.809   2.735
25751W        W98011  17.609  15.324  14.549
25752W        W98012   7.607  23.245   2.636
25753W        W98013  35.359   9.341   4.677
25754W        W98014   9.200  30.068   1.378
25755W        W98015  35.930  40.916  13.921
25756W        W98016  17.128  25.909  14.582
25757W        W98017  16.060  28.874   4.334
25758W        W98018  15.559   7.164  11.962
25759W        W98019  30.530  10.278  10.859
25760W        W98020  19.988  22.473   4.011
25761W        W98021   0.797  41.265  10.343
25762W        W98022  26.727   6.454   3.292
25763W        W98023  19.464  33.458   0.057
25764W        W98024  24.507  24.492   0.758
25765W        W98025  25.748  37.957  14.479
25766W        W98026  10.257  15.055   1.157
25767W        W98027   5.667  17.214   0.781
25768W        W98028   7.413  16.740   0.703
25769W        W98029   3.413  24.330  14.666
25770W        W98030  26.559  16.558  14.651
25771W        W98031  12.123  28.698  11.874
25772W        W98032  34.046  11.232   3.303
25773W        W98033   4.763   3.175   4.066
25774W        W98034  18.214  36.044   0.786
25775W        W98035  30.470   0.733   4.438
25776W        W98036  16.217  23.992   2.738
25777W        W98037  38.007   1.570  11.227
25778W        W98038  43.392   3.863  14.712
25779W        W98039   4.752  26.655   0.365
25780W        W98040  41.466  22.093   0.477
25781W        W98041  13.954   0.265  11.530
25782W        W98042  23.643  36.130  11.509
25783W        W98043  44.841  15.727  14.226
25784W        W98044  24.112   2.498  12.595
25785W        W98045  13.532  43.870   1.517
25786W        W98046   9.232  19.012  13.946
25787W        W98047   7.321   4.978  14.650
25788W        W98048  40.992  10.398  14.843
25789W        W98049  30.143  41.644  11.145
25790W        W98050  42.041  24.282  11.664
25791W        W98051  15.712  30.887   0.452
25792W        W98052  28.688   8.260  11.947
25793W        W98053  44.350  26.092   1.790
25794W        W98054   7.739   7.950   4.114
25795W        W98055   7.278  25.206   1.173
25796W        W98056  19.546  34.863  13.344
25797W        W98057  19.113  16.659   2.002
25798W        W98058  14.643  14.158  12.463
25799W        W98059  29.762  11.382   0.764
25800W        W98060  44.197  21.127  12.391
25801W        W98061  27.656  35.848  12.574
25802W        W98062   1.082  25.331   0.876
25803W        W98063   1.887  33.148  14.269
25804W        W98064  11.675   2.237  12.316
25805W        W98065  23.967  34.286   2.073
25806W        W98066  10.085  32.856  11.141
25807W        W98067  28.634  42.603  14.130
25808W        W98068  19.498   6.788  11.466
25809W        W98069  19.161  32.683  10.793
25810W        W98070  24.401  28.501  13.506
25811W        W98071  41.234  15.585  14.412
25812W        W98072  42.400   0.546   4.568
25813W        W98073   8.257   4.757  11.570
25814W        W98074  12.603   4.498  11.105
25815W        W98075   6.790  16.097  11.443
25816W        W98076  16.036  28.659  12.612
25817W        W98077  11.528  44.396  13.022
25818W        W98078  30.462  44.981  14.442
25819W        W98079  13.117  13.259   2.314
25820W        W98080   3.715  23.543  10.482
25821W        W98081  13.972   4.683   3.643
25822W        W98082   2.477  24.115   4.057
25823W        W98083  22.984  24.755  10.857
25824W        W98084   8.162  31.589   3.171
25825W        W98085   2.197  34.112   3.719
25826W        W98086  18.164  33.533  11.242
25827W        W98087  33.864   8.221   4.018
25828W        W98088  13.251   9.184   3.234
25829W        W98089  30.930  40.705  11.262
25830W        W98090  21.410  11.094   0.941
25831W        W98091   4.354  38.198  10.557
25832W        W98092  26.528  15.175  13.030
25833W        W98093  18.121   1.876   4.800
25834W        W98094  24.122  33.036  13.481
25835W        W98095  43.855  43.948  12.511
25836W        W98096  42.099  43.967   2.871
25837W        W98097  27.243  37.539  14.718
25838W        W98098   1.883  31.690   0.039
25839W        W98099   3.709  17.717  14.282
25840W        W98100   5.195  21.318   1.951
25841W        W98101  30.913   4.773  14.736
25842W        W98102  22.130  13.646   2.274
25843W        W98103  12.203  39.532  11.994
25844W        W98104  25.842  38.237   0.228
25845W        W98105  23.681  21.792  10.804
25846W        W98106   6.168  24.960  13.449
25847W        W98107  16.055  37.966   3.596
25848W        W98108  26.210  14.294   0.408
25849W        W98109  23.353  16.826  13.303
25850W        W98110  43.914  40.903  13.441
25851W        W98111  20.566  24.993   3.628
25852W        W98112   4.885  39.431  10.656
25853W        W98113  40.998  38.753  12.477
25854W        W98114  37.341  13.782  13.918
25855W        W98115  31.635  38.621   4.871
25856W        W98116  39.321  17.804   3.072
25857W        W98117   3.952  32.227  14.753
25858W        W98118   5.692  38.795   1.454
25859W        W98119  24.801  17.036  14.394
25860W        W98120  15.787   5.254  11.917
25861W        W98121  41.091  13.669   3.273
25862W        W98122  23.817  27.933  12.265
25863W        W98123  27.024  20.099  13.740
25864W        W98124  36.816  37.993   2.287
25865W        W98125  12.177   1.733  14.822
25866W        W98126  20.616   6.888   1.220
25867W        W98127   6.039  27.877   0.778
25868W        W98128  25.480  15.297  11.096
25869W        W98129  10.206   2.817   4.512
25870W        W98130  36.525  44.179   4.934
25871W        W98131  44.242   7.434  12.790
25872W        W98132  33.429  14.577  10.651
25873W        W98133   8.626  28.429  12.490
25874W        W98134  36.042  31.195  13.938
25875W        W98135  30.577  37.087  13.015
25876W        W98136  19.644  37.122   2.744
25877W        W98137  33.379  41.554  10.345
25878W        W98138  44.941  18.670   3.297
25879W        W98139  23.104  31.680   2.837
25880W        W98140  35.822  40.478   3.298
25881W        W98141  37.549  42.833   0.790
25882W        W98142  23.645   9.637  11.580
25883W        W98143  16.292  43.494   1.014
25884W        W98144  14.093  26.431  13.864
25885W        W98145  37.961  34.888   0.251
25886W        W98146   5.880   6.329  13.514
25887W        W98147   8.733   6.170   2.360
25888W        W98148  34.631  25.114  13.413
25889W        W98149  24.019  19.060  13.513
25890W        W98150  28.452  27.069   2.418
25891W        W98151  23.639  39.306  12.642
25892W        W98152  25.130  16.137  10.670
25893W        W98153  19.620  11.528   1.400
25894W        W98154  27.417   2.540   1.525
25895W        W98155  38.048  32.593  14.322
25896W        W98156  22.786  40.303   4.419
25897W        W98157   7.393  43.494   2.621
25898W        W98158  28.680  22.801   4.608
25899W        W98159  19.141  23.599   4.415
25900W        W98160   6.238   3.803   0.996
25901W        W98161  40.325  35.506   3.814
25902W        W98162  18.813  28.066   4.699
25903W        W98163  16.325  12.794  12.875
25904W        W98164  13.357  43.823   3.682
25905W        W98165  23.054  15.998  11.053
25906W        W98166  21.154  25.550   4.104
25907W        W98167  35.627   2.740   2.331
25908W        W98168   8.496  24.711  13.027
25909W        W98169  13.307  35.758   1.610
25910W        W98170   7.279  22.586   2.977
25911W        W98171  36.154  35.108  13.366
25912W        W98172  35.355  14.693  11.490
25913W        W98173   0.292  41.133   1.727
25914W        W98174  38.000  19.097  12.187
25915W        W98175  43.433   4.540  12.098
25916W        W98176  39.541  18.515   2.127
25917W        W98177  26.742   0.860  11.924
25918W        W98178  15.224   8.529  13.936
25919W        W98179  17.124  13.850  12.431
25920W        W98180  25.045   5.499   0.362
25921W        W98181  30.194  41.053  12.456
25922W        W98182   1.750  34.344   3.659
25923W        W98183  33.483  12.705  10.312
25924W        W98184   1.983  21.637  12.507
25925W        W98185  33.083  41.024   2.178
25926W        W98186  41.398  43.743   0.190
25927W        W98187  33.405  32.819  13.856
25928W        W98188   2.792   6.101  10.663
25929W        W98189  27.191  35.860   3.520
25930W        W98190  19.098  33.098   4.503
25931W        W98191  11.138  32.630   4.617
25932W        W98192  42.374  33.974   4.571
25933W        W98193   3.860   3.347  12.814
25934W        W98194  44.243   7.838   3.987
25935W        W98195   8.313  10.279   0.435
25936W        W98196  39.544  33.381  11.107
25937W        W98197  12.831  10.205   2.676
25938W        W98198  31.415  33.615   3.211
25939W        W98199  10.283  33.065   1.021
25940W        W98200   9.983   4.818   0.410
25941W        W98201  21.102  35.897   2.217
25942W        W98202   2.040  21.310   1.709
25943W        W98203  14.447  37.769  13.856
25944W        W98204  31.147   3.678   0.663
25945W        W98205  22.126  16.716  11.494
25946W        W98206  25.072  35.942  10.457
25947W        W98207  26.525  10.695  11.902
25948W        W98208  35.999  15.176  12.098
25949W        W98209   4.342  24.164   2.285
25950W        W98210  35.609  41.392   1.314
25951W        W98211  27.596  17.583   4.250
25952W        W98212  32.669   6.356   1.144
25953W        W98213  18.721  20.796   3.728
25954W        W98214  35.098  26.718   4.533
25955W        W98215  20.035  11.821  10.997
25956W        W98216   9.096  15.223  14.132
25957W        W98217  27.439  38.182  12.150
25958W        W98218  20.212   0.754   4.537
25959W        W98219  18.656   2.674  11.529
25960W        W98220  14.489  12.702  13.418
25961W        W98221  42.672  22.576   4.847
25962W        W98222  37.353  17.509   2.583
25963W        W98223   9.162  42.553  11.513
25964W        W98224  28.140  24.166   4.727
25965W        W98225   0.230   7.279   0.798
25966W        W98226  24.426   8.088  12.955
25967W        W98227  17.536  40.832   3.632
25968W        W98228  37.990  27.684  10.812
25969W        W98229  41.037   3.790  12.387
25970W        W98230  22.250   0.873   3.271
25971W        W98231  10.290  20.785   0.398
25972W        W98232  10.242  35.883   2.257
25973W        W98233  12.718  17.086  11.933
25974W        W98234  32.750  30.880   0.577
25975W        W98235  14.380  33.538  13.932
25976W        W98236  42.720  31.616  12.137
25977W        W98237  32.093   0.187  14.048
25978W        W98238  11.654  41.618  13.856
25979W        W98239   8.241   9.116  12.976
25980W        W98240  10.334  22.959   2.849
25981W        W98241  27.148   8.803   4.566
25982W        W98242  19.510  40.169  12.340
25983W        W98243  21.668  38.110  11.650
25984W        W98244  31.403  32.053  11.094
25985W        W98245   6.353  10.433   4.123
25986W        W98246  19.599  11.790  14.058
25987W        W98247  35.627  26.737   0.419
25988W        W98248  14.005  41.865  11.120
25989W        W98249  44.262  21.754   4.588
25990W        W98250   4.663  16.725  12.064
25991W        W98251  34.594  21.833   4.492
25992W        W98252   6.707   5.701  13.607
25993W        W98253   3.890  10.627  13.082
25994W        W98254   7.419  18.816   0.092
25995W        W98255  11.279   5.251  11.676
25996W        W98256   8.643   5.320   0.513
25997W        W98257   4.196   0.361  13.936
25998W        W98258  23.365  40.426   3.686
25999W        W98259   7.793   2.458   1.609
26000W        W98260  10.883  21.003   1.108
26001W        W98261  39.890  21.789   2.727
26002W        W98262   6.758  25.788   2.860
26003W        W98263  27.433  25.616   2.296
26004W        W98264   7.388  17.240   4.618
26005W        W98265  20.023  20.545  10.553
26006W        W98266  14.829  28.823  12.592
26007W        W98267  25.766  17.294   3.222
26008W        W98268  43.437   7.156  13.251
26009W        W98269  24.913  20.812   1.815
26010W        W98270  11.649  32.135  14.284
26011W        W98271  28.459  38.725  14.949
26012W        W98272  40.948  23.919  13.638
26013W        W98273   1.859  12.633   4.030
26014W        W98274  22.154   4.353   0.845
26015W        W98275  16.750  37.671  13.665
26016W        W98276  33.919  20.598  14.850
26017W        W98277   2.209  16.738   3.170
26018W        W98278  25.902   6.455  12.638
26019W        W98279   0.325  13.908  14.941
26020W        W98280  22.347  34.673  12.654
26021W        W98281  27.438  42.974   2.427
26022W        W98282  11.936  23.382  14.959
26023W        W98283  12.321  17.733   0.324
26024W        W98284  38.938  42.797  12.737
26025W        W98285  35.580  17.211  14.281
26026W        W98286  25.723  16.544   3.909
26027W        W98287  30.241  30.115   3.460
26028W        W98288   7.282  14.004  10.625
26029W        W98289   4.487  22.321   2.686
26030W        W98290   7.692  20.627  11.454
26031W        W98291  19.529  11.689   3.689
26032W        W98292   0.885  18.619  13.801
26033W        W98293   0.398  27.173   4.564
26034W        W98294  17.871  13.268   1.760
26035W        W98295  31.530  18.634   3.590
26036W        W98296  19.128  30.451   3.612
26037W        W98297  30.485  41.914   4.504
26038W        W98298  38.315   3.108  10.722
26039W        W98299  40.934  32.959   4.674
26040W        W98300  32.963  43.465   4.776
26041W        W98301  23.849  33.050   1.448
26042W        W98302  40.421  41.822  10.687
26043W        W98303  19.999  42.601   1.498
26044W        W98304  34.185  24.963  13.649
26045W        W98305  27.280  11.718  12.661
26046W        W98306  22.269  12.760   0.291
26047W        W98307   4.674  27.356   2.801
26048W        W98308  21.740  26.183   0.410
26049W        W98309  15.555   1.213   1.717
26050W        W98310  13.628  34.543  11.590
26051W        W98311  33.964  12.388  11.182
26052W        W98312  44.679   1.542   3.218
26053W        W98313   7.178  39.127   2.695
26054W        W98314  33.991  19.486  12.726
26055W        W98315  36.267  29.146   2.261
26056W        W98316  14.604  29.963  13.354
26057W        W98317   5.956  26.608  10.917
26058W        W98318  40.501  38.927  10.775
26059W        W98319   0.696  13.161  13.102
26060W        W98320  38.536  30.080  14.418
26061W        W98321  44.425   3.936  11.220
26062W        W98322  26.543  22.286   1.183
26063W        W98323   2.286  21.999  14.006
26064W        W98324  23.613  35.871  13.405
26065W        W98325  16.565  11.876   2.282
26066W        W98326   4.660  26.068  11.168
26067W        W98327  21.070  40.996   3.162
26068W        W98328   0.285  39.074   2.344
26069W        W98329  29.082  19.718  13.808
26070W        W98330  20.091  33.642  13.811
26071W        W98331  19.625  24.070  13.450
26072W        W98332  34.539  22.820   2.325
26073W        W98333  22.341   8.315   3.461
26074W        W98334  11.421  41.554  13.207
26075W        W98335  44.049  31.635   2.652
26076W        W98336  22.558   4.015   3.234
26077W        W98337  38.390  43.676  11.982
26078W        W98338  35.566  36.694   4.411
26079W        W98339  38.852  30.748  13.397
26080W        W98340  40.584   0.630   3.858
26081W        W98341  28.517  24.303  10.626
26082W        W98342  35.130  41.047   3.690
26083W        W98343  12.505  12.359  12.560
26084W        W98344  29.594  29.740   1.200
26085W        W98345  39.538  16.147   4.731
26086W        W98346   5.825  12.005  12.022
26087W        W98347   9.852  32.309   0.450
26088W        W98348   4.879   5.727   0.394
26089W        W98349  33.947  37.116  14.801
26090W        W98350  43.520  41.839   3.355
26091W        W98351  12.078  22.197  13.303
26092W        W98352  17.248  33.449  13.491
26093W        W98353  42.089  39.386   4.171
26094W        W98354   1.037  10.784   1.682
26095W        W98355  43.766  44.383  11.762
26096W        W98356  25.716  39.096   5.183
26097W        W98357  27.680  21.241   2.832
26098W        W98358  23.657  33.206   3.185
26099W        W98359   4.115  30.626   1.344
26100W        W98360   1.644  37.387  10.627
26101W        W98361  33.621  38.680   3.493
26102W        W98362   2.463  33.266  13.293
26103W        W98363  40.518   2.721  14.318
26104W        W98364  17.577  38.257   4.671
26105W        W98365   5.240  31.850  11.081
26106W        W98366   3.256  43.952  11.960
26107W        W98367   4.193   8.453   0.417
26108W        W98368   7.242   9.718  13.191
26109W        W98369  28.394  40.593   2.255
26110W        W98370  28.021  32.484  13.984
26111W        W98371  15.224   3.368   1.591
26112W        W98372  35.436  15.632  11.228
26113W        W98373  44.578   2.239  13.983
26114W        W98374  19.516   6.253   2.827
26115W        W98375  12.237  21.255  12.891
26116W        W98376   3.442  40.062  12.516
26117W        W98377  22.624  10.428  11.940
26118W        W98378   1.866  19.433   0.223
26119W        W98379  29.990  31.945   5.196
26120W        W98380  25.031  39.761   1.322
26121W        W98381  32.085  15.201  11.314
26122W        W98382   8.837  44.260  14.407
26123W        W98383   3.326  30.398   1.148
26124W        W98384  14.372  27.484   5.631
26125W        W98385  43.864  33.942  13.336
26126W        W98386   0.039   3.827   0.033
26127W        W98387   7.774  17.172   2.486
26128W        W98388  37.496   8.716  10.968
26129W        W98389  11.452  25.232   0.325
26130W        W98390   0.118  20.777  13.783
26131W        W98391  41.830  11.815   2.219
26132W        W98392  42.210  31.781  10.317
26133W        W98393   4.769  38.958  12.314
26134W        W98394  11.887  43.534   0.413
26135W        W98395   0.124  27.513  12.220
26136W        W98396   2.393  43.030  12.181
26137W        W98397   8.592  18.586   0.750
26138W        W98398  34.696  12.560  14.925
26139W        W98399  16.973   7.136  10.680
26140W        W98400  44.024   5.271  13.926
26141W        W98401  28.438  23.261   4.650
26142W        W98402  24.950  44.535  12.580
26143W        W98403  39.491  12.720  13.973
26144W        W98404  43.302  29.213   4.755
26145W        W98405  18.680   6.281  10.618
26146W        W98406   7.325  38.392   1.423
26147W        W98407  12.813  40.270  14.351
26148W        W98408  34.009  17.602   0.377
26149W        W98409  16.607  40.478  12.463
26150W        W98410   2.026  11.813   2.758
26151W        W98411  33.301  13.851  10.249
26152W        W98412   6.432  38.860   1.046
26153W        W98413  24.914  22.729  10.787
26154W        W98414   3.776  12.039   3.116
26155W        W98415  43.857   5.898  10.734
26156W        W98416  35.879  32.925  10.716
26157W        W98417  19.192   4.907  14.047
26158W        W98418   2.979  15.327   1.278
26159W        W98419  31.374  42.978   2.321
26160W        W98420   6.934   4.669   1.829
26161W        W98421  30.514  19.163   3.249
26162W        W98422  33.615   4.649  12.652
26163W        W98423  13.861  23.052  11.468
26164W        W98424  27.739  17.713  12.470
26165W        W98425   1.180  12.794   4.516
26166W        W98426   8.715  32.141   1.485
26167W        W98427  34.414   1.663  13.979
26168W        W98428  29.151  33.645  11.576
26169W        W98429  22.654  34.888   0.950
26170W        W98430   6.616  24.713  13.954
26171W        W98431  44.340  21.473   4.142
26172W        W98432  12.777  30.002   3.361
26173W        W98433  18.690  15.805  10.440
26174W        W98434  37.751   5.321  13.375
26175W        W98435   9.590  26.473  11.132
26176W        W98436  32.038  13.684   1.008
26177W        W98437  25.521   5.549   4.197
26178W        W98438   0.190  25.230  12.462
26179W        W98439  27.449  42.225   0.308
26180W        W98440  34.220  21.006  14.952
26181W        W98441  34.443   1.876   3.755
26182W        W98442  30.285   0.473  14.373
26183W        W98443  14.300  15.414   4.176
26184W        W98444   9.041  42.567   1.934
26185W        W98445  21.547  20.740  10.630
26186W        W98446  42.315   8.889  10.569
26187W        W98447   8.621  10.380  14.847
26188W        W98448  19.164  10.577  11.727
26189W        W98449   8.313   6.278   4.709
26190W        W98450   5.033  31.090  11.507
26191W        W98451  41.563  11.857  13.699
26192W        W98452   4.732  15.652  14.942
26193W        W98453  19.608  27.440  14.396
26194W        W98454   9.271  39.029   4.118
26195W        W98455  38.559  11.420   2.684
26196W        W98456   8.881  38.897  11.076
26197W        W98457   1.918   2.110  14.062
26198W        W98458  25.078  21.532   4.114
26199W        W98459  28.381  25.186  12.491
26200W        W98460   5.904   3.432  10.770
26201W        W98461  33.984  15.710  13.544
26202W        W98462  10.780  33.480   1.155
26203W        W98463  39.752   4.787   3.180
26204W        W98464  31.619   2.415  13.400
26205W        W98465  15.966  44.425   3.391
26206W        W98466  34.875   4.235   3.224
26207W        W98467  40.188  28.766  11.457
26208W        W98468  37.650  36.003   2.339
26209W        W98469   1.029   7.587  14.824
26210W        W98470  44.642  15.110   4.025
26211W        W98471   4.674  26.594  12.041
26212W        W98472   6.412  37.393  14.932
26213W        W98473  26.421  11.407   1.907
26214W        W98474  40.757  27.507  12.054
26215W        W98475   3.195   9.728   4.821
26216W        W98476  36.928  11.196  12.079
26217W        W98477  13.460  43.531   2.431
26218W        W98478  34.559  30.374   0.904
26219W        W98479   9.367  38.465  12.944
26220W        W98480  43.267  23.700  13.042
26221W        W98481  11.174  28.727   2.701
26222W        W98482  31.426   0.944   1.495
26223W        W98483  41.613  12.912   2.433
26224W        W98484  28.745   2.510  14.106
26225W        W98485   2.829   1.981  13.981
26226W        W98486  41.792  19.923   4.533
26227W        W98487  24.018   8.497   1.133
26228W        W98488   3.226  32.551   1.864
26229W        W98489   7.432  30.922  11.920
26230W        W98490  28.593   6.979  11.113
26231W        W98491   0.247  35.383  10.946
26232W        W98492   1.353  25.013   3.196
26233W        W98493  38.532  20.309  12.279
26234W        W98494  29.251  29.207   2.317
26235W        W98495   2.088   8.121  11.047
26236W        W98496  24.155  20.702   3.793
26237W        W98497  44.991   1.354  14.371
26238W        W98498  14.850   0.745  14.902
26239W        W98499  31.931  44.607  10.550
26240W        W98500  36.832   3.955  11.594
26241W        W98501  40.677   1.011   0.259
26242W        W98502  38.785  42.724  11.851
26243W        W98503   0.232  13.223   2.790
26244W        W98504  34.807  36.425  13.449
26245W        W98505  24.735  24.550  11.178
26246W        W98506  24.124  17.555  11.253
26247W        W98507   2.945  44.074  14.874
26248W        W98508  20.127  27.609  13.002
26249W        W98509  42.972   0.016  13.733
26250W        W98510   4.301  17.270  12.797
26251W        W98511  26.177   5.525  11.534
26252W        W98512  18.151  36.348  11.515
26253W        W98513  11.654  21.025   4.313
26254W        W98514  44.949  21.745   3.952
26255W        W98515  24.474  15.371  11.044
26256W        W98516  34.163   3.664   0.526
26257W        W98517  21.442   3.829   0.712
26258W        W98518  15.761  22.579  11.090
26259W        W98519  19.724  18.711   1.219
26260W        W98520  31.907  16.009   4.739
26261W        W98521   2.443  18.667   1.948
26262W        W98522  21.778  12.221  13.867
26263W        W98523   9.423   6.309  10.779
26264W        W98524   9.181   1.685   0.782
26265W        W98525  44.339   1.941   4.593
26266W        W98526  32.373  16.085  10.555
26267W        W98527  21.681  23.610   0.691
26268W        W98528  22.612  24.003  10.390
26269W        W98529  13.557  10.070   4.099
26270W        W98530  36.078  24.432  14.486
26271W        W98531  28.587  30.373   3.569
26272W        W98532  28.216  14.297   2.494
26273W        W98533  38.510  12.752   2.342
26274W        W98534  10.942  31.253   1.131
26275W        W98535  15.526  11.666  14.755
26276W        W98536  44.237   0.346   3.174
26277W        W98537   0.177  39.395  12.224
26278W        W98538  41.849  19.439   4.742
26279W        W98539   3.859  40.455  12.820
26280W        W98540   2.471  31.431  11.525
26281W        W98541  33.445   0.667  13.050
26282W        W98542  33.617  19.569   1.855
26283W        W98543   1.636   9.763   3.353
26284W        W98544  10.281  44.364   1.541
26285W        W98545  37.400   5.351   2.379
26286W        W98546   4.686   9.763   2.896
26287W        W98547  33.875   2.049  12.066
26288W        W98548  16.411  21.586  13.547
26289W        W98549   6.150  17.673   2.761
26290W        W98550  28.047  28.990   4.617
26291W        W98551  25.778  13.358   0.743
26292W        W98552  41.286  27.016  11.451
26293W        W98553   6.395  44.835  12.091
26294W        W98554  36.539   5.984  13.866
26295W        W98555  28.470   9.113  14.005
26296W        W98556  21.616   1.342  14.955
26297W        W98557  36.107   8.527  10.609
26298W        W98558   2.230  30.484  14.910
26299W        W98559  26.326   5.000   1.217
26300W        W98560  31.161  15.619   2.859
26301W        W98561  29.051  16.271  10.687
26302W        W98562  27.196  14.535  12.724
26303W        W98563  15.382  40.901  12.963
26304W        W98564  13.315  29.716  12.215
26305W        W98565  34.508  31.869  14.376
26306W        W98566  17.284  26.205   1.790
26307W        W98567   8.486  23.247  13.386
26308W        W98568  20.045   0.205  10.691
26309W        W98569  35.729   9.156  14.355
26310W        W98570   0.501  19.466   4.868
26311W        W98571   1.290  16.389   2.686
26312W        W98572   5.775  12.557   1.829
26313W        W98573  26.791  22.178   1.657
26314W        W98574   7.832  32.149  10.645
26315W        W98575  37.275  41.895   4.529
26316W        W98576  39.580  17.633  12.206
26317W        W98577  35.411  13.133  13.402
26318W        W98578   7.282  25.063  12.350
26319W        W98579  34.889   1.273  13.078
26320W        W98580  32.855  23.749   1.461
26321W        W98581   4.002  22.726   4.653
26322W        W98582   5.237  36.059  11.573
26323W        W98583  44.605   4.002   2.230
26324W        W98584  11.646  28.085  13.744
26325W        W98585  39.404  33.089  10.689
26326W        W98586  10.282   3.942   1.340
26327W        W98587  33.940  31.269  14.647
26328W        W98588  41.854  31.983  11.098
26329W        W98589  24.305   6.991   4.171
26330W        W98590  38.805  18.949   1.707
26331W        W98591  23.211  15.145   1.987
26332W        W98592  19.484  18.244   2.429
26333W        W98593   6.865  34.952   0.649
26334W        W98594  28.712  30.651  11.079
26335W        W98595  16.222  43.690  11.977
26336W        W98596  16.234  12.633  11.918
26337W        W98597   1.446  10.723   2.894
26338W        W98598  33.091  38.792  13.798
26339W        W98599   0.771  31.995   2.467
26340W        W98600   6.124  38.762   1.955
26341W        W98601  24.322  26.596   5.035
26342W        W98602  26.571  10.911   4.509
26343W        W98603   0.080  23.876   2.733
26344W        W98604   3.704  40.467  13.964
26345W        W98605   7.589  10.588   3.938
26346W        W98606   9.469  23.530   3.489
26347W        W98607  41.541  40.431   0.407
26348W        W98608   3.194  28.004   1.410
26349W        W98609   0.425   3.469  12.182
26350W        W98610  34.532   2.346  10.315
26351W        W98611  44.897  44.768   1.928
26352W        W98612  33.036  26.900  12.604
26353W        W98613  22.434  28.062  10.668
26354W        W98614  12.422   9.367  10.690
26355W        W98615  23.647   0.425  11.510
26356W        W98616  16.918  31.727   3.179
26357W        W98617   8.532  32.153   3.813
26358W        W98618  24.529  35.138   0.909
26359W        W98619  18.784   3.793   2.720
26360W        W98620  33.391  14.483  13.552
26361W        W98621  12.372  23.255   1.904
26362W        W98622   7.201  15.827  12.528
26363W        W98623  21.693  36.642  11.229
26364W        W98624   2.378  11.433   2.817
26365W        W98625   6.976  16.162  12.877
26366W        W98626   6.681  26.156   3.217
26367W        W98627  16.285  28.428   4.094
26368W        W98628  24.390  35.133   4.209
26369W        W98629  44.442  27.241   0.993
26370W        W98630  29.724  27.128   2.620
26371W        W98631  16.133  38.827   1.788
26372W        W98632  13.343  19.185  12.854
26373W        W98633  24.054   8.150  14.915
26374W        W98634  42.885  22.191   0.863
26375W        W98635   0.081  43.958  10.955
26376W        W98636  18.721   7.923  14.870
26377W        W98637  12.171  40.350   3.781
26378W        W98638   2.059  39.333  11.404
26379W        W98639  29.826  15.241   1.914
26380W        W98640  32.610  31.526  11.852
26381W        W98641  18.022  11.122   2.227
26382W        W98642  27.542   0.848   2.753
26383W        W98643  40.532  33.024   0.263
26384W        W98644  14.763  13.736   1.136
26385W        W98645  37.060  42.469   2.477
26386W        W98646  41.279  27.066  10.709
26387W        W98647   3.351  32.527  13.752
26388W        W98648  15.108  27.023  10.704
26389W        W98649   0.083  23.196  10.775
26390W        W98650  41.754   7.807  12.591
26391W        W98651  44.500  27.880  14.912
26392W        W98652  17.285  27.624   1.729
26393W        W98653  12.077  28.146   0.997
26394W        W98654   5.092  21.071  14.929
26395W        W98655   9.945  21.693   4.820
26396W        W98656  14.811  27.467   3.308
26397W        W98657  29.308  28.105  10.621
26398W        W98658  25.667  22.653   3.309
26399W        W98659  36.508   7.305   5.307
26400W        W98660  25.159   0.042   0.495
26401W        W98661  11.417  35.391   2.939
26402W        W98662  14.915   2.885   4.454
26403W        W98663  33.485  15.863  13.676
26404W        W98664  11.792  40.373   0.332
26405W        W98665  11.337  29.813  10.781
26406W        W98666  27.070  19.424   1.424
26407W        W98667  36.483  38.067   4.046
26408W        W98668   5.780  35.596   3.227
26409W        W98669  28.057  11.779   2.310
26410W        W98670  34.463   5.884   0.289
26411W        W98671   3.184   0.278  11.683
26412W        W98672   9.833  19.332  14.593
26413W        W98673  39.599  22.840  11.178
26414W        W98674  28.950  10.430  11.118
26415W        W98675  41.246  36.815  13.813
26416W        W98676  24.775   6.826  12.818
26417W        W98677  22.659   8.225   1.655
26418W        W98678  15.087  36.505  11.157
26419W        W98679  31.990  25.235   0.727
26420W        W98680  19.489   2.713  11.582
26421W        W98681   4.358   7.204   1.112
26422W        W98682  23.718  42.064   0.552
26423W        W98683   2.084  35.971   0.458
26424W        W98684  26.192  11.116  13.290
26425W        W98685  44.928  13.156   0.546
26426W        W98686  12.071   2.959   1.389
26427W        W98687  17.724  13.069  12.564
26428W        W98688  22.777  19.624  14.490
26429W        W98689  18.698  32.425   3.087
26430W        W98690  23.431  32.042   1.968
26431W        W98691  37.019  27.265  10.523
26432W        W98692  13.097  31.092  12.056
26433W        W98693  38.846  39.054   3.848
26434W        W98694  30.086  13.624  12.179
26435W        W98695  32.029  44.859   0.454
26436W        W98696  17.553  31.233  13.916
26437W        W98697  17.378  13.451   1.886
26438W        W98698  11.015  25.771  12.370
26439W        W98699  37.917   6.639  11.935
26440W        W98700  14.675   6.554   1.755
26441W        W98701  26.479   5.367  13.967
26442W        W98702   6.252  29.255  13.517
26443W        W98703   3.834  34.571  14.413
26444W        W98704   7.622   0.994  12.475
26445W        W98705  18.096  35.146  13.416
26446W        W98706  18.286  15.396   1.116
26447W        W98707  41.525  14.087  13.199
26448W        W98708  38.592  14.682   4.250
26449W        W98709  44.429  29.622   2.929
26450W        W98710  22.364  11.158   1.870
26451W        W98711  37.522   0.251   1.438
26452W        W98712  34.429  31.375  14.516
26453W        W98713   6.289   3.552   4.535
26454W        W98714  41.507  21.694  10.766
26455W        W98715  42.665  15.589   0.298
26456W        W98716   9.814   2.482   4.625
26457W        W98717  12.630  31.967   1.146
26458W        W98718  38.992  34.401  10.635
26459W        W98719  26.499  44.236  14.039
26460W        W98720   2.866   8.370   3.071
26461W        W98721  40.384  39.563   0.272
26462W        W98722  37.282  41.440   0.874
26463W        W98723  32.010  15.806   0.865
26464W        W98724   1.278  25.551  11.531
26465W        W98725  32.349  10.114   2.131
26466W        W98726  10.667  29.929   0.198
26467W        W98727  40.285  20.555  10.734
26468W        W98728  39.307  17.561   3.763
26469W        W98729  14.578  38.523  10.598
26470W        W98730  43.753  10.249   3.847
26471W        W98731  13.855  32.879  12.418
26472W        W98732  14.930  14.152   1.548
26473W        W98733  30.917  43.246  11.644
26474W        W98734  36.504  27.838  11.062
26475W        W98735   0.930   2.570   0.926
26476W        W98736  42.607  24.726   0.421
26477W        W98737  40.922  29.359   1.420
26478W        W98738  16.646  25.302   4.837
26479W        W98739  22.120   6.507  11.684
26480W        W98740  38.043  24.154  12.662
26481W        W98741  13.343  44.367  14.528
26482W        W98742  27.454  13.753  14.591
26483W        W98743  30.380  32.504  13.924
26484W        W98744   3.240  27.131   2.820
26485W        W98745  37.427  31.710   9.964
26486W        W98746  37.500  31.695  13.106
26487W        W98747  12.744  42.501  12.613
26488W        W98748   5.656  27.539   4.608
26489W        W98749  16.582  12.982   0.039
26490W        W98750  27.441  11.144  11.600
26491W        W98751  36.839  38.849  11.066
26492W        W98752  18.090  34.741  13.095
26493W        W98753  13.173  29.428   1.398
26494W        W98754   7.373  27.382   1.891
26495W        W98755   7.023  17.689   0.838
26496W        W98756  23.135   8.628  13.293
26497W        W98757  29.860  29.743   3.381
26498W        W98758  12.147  42.305  10.730
26499W        W98759  21.501  35.031  11.916
26500W        W98760  29.492  42.490   3.230
26501W        W98761   7.937  11.873   3.624
26502W        W98762   8.181  25.557  13.025
26503W        W98763  17.311   4.185  13.382
26504W        W98764  23.146  18.041   0.421
26505W        W98765  26.921   9.357   0.496
26506W        W98766  14.087  33.984  13.955
26507W        W98767  33.585  39.540  13.783
26508W        W98768  42.792  29.751  13.960
26509W        W98769   2.296   2.247  12.120
26510W        W98770   7.212  36.082   2.304
26511W        W98771  15.776   8.237  13.267
26512W        W98772  28.559  40.420  12.619
26513W        W98773  11.224   8.235   2.442
26514W        W98774  22.697  22.409   1.594
26515W        W98775  17.414   0.231  10.300
26516W        W98776  43.499  44.821   2.324
26517W        W98777   8.292  24.745   2.246
26518W        W98778  11.058  18.706   4.670
26519W        W98779  18.561  44.645  12.554
26520W        W98780   0.616  28.575   4.148
26521W        W98781  22.155  17.537  13.890
26522W        W98782  42.540  19.511  13.581
26523W        W98783  20.030  11.624  10.121
26524W        W98784  34.472  37.876  13.141
26525W        W98785  16.126  13.230  14.871
26526W        W98786   6.600  21.872   1.009
26527W        W98787  17.483  12.933   1.876
26528W        W98788  12.653  20.692  10.754
26529W        W98789  42.753  24.603  10.661
26530W        W98790  29.521  43.002   3.184
26531W        W98791  29.537  20.713  12.455
26532W        W98792   3.360  33.426  14.426
26533W        W98793  32.088  31.610  14.035
26534W        W98794  19.126  24.979  12.029
26535W        W98795  26.517  37.933  13.914
26536W        W98796  28.394  44.882   4.050
26537W        W98797  44.042  19.800  11.671
26538W        W98798   4.865  29.492   0.290
26539W        W98799  44.539  39.538  13.943
26540W        W98800  27.513  28.913  12.959
26541W        W98801   1.874  14.375  12.982
26542W        W98802  38.847   9.818   0.372
26543W        W98803  13.234  32.852   2.792
26544W        W98804  37.486   1.437   0.936
26545W        W98805  38.991   7.011   9.767
26546W        W98806  19.638  39.774   1.209
26547W        W98807  17.191  24.555  11.870
26548W        W98808  23.121   6.470   4.109
26549W        W98809  30.152  23.368  13.350
26550W        W98810  21.985  32.910  14.346
26551W        W98811  28.730  36.004   0.008
26552W        W98812   8.663   8.982   1.713
26553W        W98813  41.464   4.419  10.365
26554W        W98814   4.816  21.997  10.266
26555W        W98815  15.692  40.990   3.685
26556W        W98816   9.007  30.357  11.182
26557W        W98817  26.134  22.980   4.607
26558W        W98818  32.556  26.951  12.825
26559W        W98819  40.273  27.279  11.659
26560W        W98820  44.768  21.671   4.438
26561W        W98821  15.443  27.266  13.190
26562W        W98822  25.755  12.781  10.725
26563W        W98823  20.506  27.463  11.997
26564W        W98824   2.375  14.029  13.958
26565W        W98825  28.070  30.656   5.508
26566W        W98826  39.900   8.749   1.785
26567W        W98827  30.858  39.921  13.021
26568W        W98828  22.124  10.262  14.527
26569W        W98829   4.203  26.272  14.772
26570W        W98830  30.194   0.507   3.272
26571W        W98831   9.768  37.344  14.506
26572W        W98832  42.164  28.582  13.918
26573W        W98833  22.963  28.111   3.732
26574W        W98834  34.865  15.639   3.253
26575W        W98835  18.140  37.486   1.220
26576W        W98836   3.173  44.240   3.690
26577W        W98837  20.617   8.324  12.011
26578W        W98838  42.769  28.246  11.342
26579W        W98839   0.269  20.257  11.972
26580W        W98840  22.655  32.114  14.361
26581W        W98841  34.207  37.518  12.546
26582W        W98842   2.874  35.016   1.226
26583W        W98843  12.677   1.781   3.604
26584W        W98844   3.242  15.638   9.968
26585W        W98845   7.781  22.657   1.946
26586W        W98846  33.350   1.565  11.605
26587W        W98847  14.669  23.151  10.749
26588W        W98848  11.655  29.693   4.055
26589W        W98849  23.534  12.296   1.937
26590W        W98850   3.353  16.469  12.394
26591W        W98851  22.122  22.564  10.052
26592W        W98852  44.260  18.812  11.625
26593W        W98853  15.749  13.843   1.289
26594W        W98854   0.960  28.345   3.186
26595W        W98855  20.678  43.675  12.568
26596W        W98856  26.343  25.212   4.367
26597W        W98857  15.176  41.470   3.427
26598W        W98858  30.118   6.167   0.581
26599W        W98859  41.743  15.982   3.490
26600W        W98860  16.091  28.082   0.810
26601W        W98861  21.749   6.411   2.281
26602W        W98862  38.447  21.240  11.701
26603W        W98863  34.658  14.006  14.436
26604W        W98864  35.160  23.432  11.723
26605W        W98865  11.697  44.543   1.142
26606W        W98866   3.861  24.885  13.480
26607W        W98867   5.764  28.300   0.401
26608W        W98868  29.604  36.318  14.317
26609W        W98869  10.734  38.063  11.183
26610W        W98870  26.965  38.875  14.471
26611W        W98871  43.915  20.404   2.399
26612W        W98872  30.649  33.964  13.448
26613W        W98873  25.607  12.938   2.729
26614W        W98874  10.651   9.329  10.591
26615W        W98875  38.618   0.018  12.598
26616W        W98876   0.385  23.494  12.767
26617W        W98877  26.446  27.419   0.021
26618W        W98878  17.293  42.862  11.073
26619W        W98879  32.937   3.889  14.011
26620W        W98880   7.312   6.866  14.866
26621W        W98881   8.212  30.226   2.303
26622W        W98882  41.822   0.332   3.174
26623W        W98883   5.249  14.552  12.998
26624W        W98884   7.400  41.879   2.914
26625W        W98885  10.792  15.462   1.856
26626W        W98886  44.554   5.298  12.868
26627W        W98887  42.626  44.070  13.550
26628W        W98888  13.863   3.673  14.981
26629W        W98889  30.484  41.546   2.895
26630W        W98890   7.948  39.869   3.239
26631W        W98891  26.141  27.486  14.492
26632W        W98892  17.355  37.848   0.894
26633W        W98893  16.648  21.655  12.508
26634W        W98894  18.135  32.704   4.715
26635W        W98895  30.001  40.992   3.692
26636W        W98896  16.294  33.979  10.668
26637W        W98897   1.799   1.491   2.358
26638W        W98898  43.316  35.451  11.915
26639W        W98899  17.139  23.851   4.659
26640W        W98900   9.199   2.710   1.779
26641W        W98901  12.533  31.846   4.610
26642W        W98902   8.289  43.176  10.360
26643W        W98903  22.458  39.877   1.402
26644W        W98904  19.845  11.865  11.494
26645W        W98905   0.201   7.780  10.870
26646W        W98906   0.889   0.730  10.789
26647W        W98907  25.629  17.888  12.926
26648W        W98908  31.857  44.827  12.617
26649W        W98909  30.927  17.999   2.347
26650W        W98910  35.966  24.962  12.160
26651W        W98911  17.849  27.474   4.148
26652W        W98912   8.206  21.596   3.261
26653W        W98913  29.247  44.523   0.491
26654W        W98914  23.994  41.594  14.730
26655W        W98915  16.247   3.746   1.345
26656W        W98916  32.403  12.036  14.895
26657W        W98917  21.627  32.106   2.295
26658W        W98918  10.123  32.951   4.866
26659W        W98919  14.167  43.954   4.060
26660W        W98920  25.713   6.877  12.957
26661W        W98921  13.346  27.154   4.592
26662W        W98922   4.360  31.639  12.048
26663W        W98923  19.652  42.424  14.197
26664W        W98924  29.580   7.266  13.931
26665W        W98925  21.508  12.639  14.817
26666W        W98926  34.007   4.169  14.839
26667W        W98927   6.164   2.056   0.004
26668W        W98928  28.457  25.777   0.786
26669W        W98929  22.151  34.501  12.211
26670W        W98930  41.922  21.489  12.890
26671W        W98931  13.764  33.112  13.455
26672W        W98932   9.175  31.335   0.181
26673W        W98933   6.484  22.688   2.110
26674W        W98934  27.160  40.462   1.690
26675W        W98935  40.097  37.075   4.098
26676W        W98936  43.865   8.800  14.713
26677W        W98937  21.059  28.633   0.792
26678W        W98938  17.824  14.168   1.441
26679W        W98939  42.805  31.845   4.760
26680W        W98940  18.536   9.096  10.716
26681W        W98941  13.114   6.143  13.829
26682W        W98942  33.096  10.313  14.851
26683W        W98943  35.370  39.098  12.362
26684W        W98944   8.203  44.285   3.174
26685W        W98945  42.892  14.127  14.338
26686W        W98946   7.133  22.083   2.390
26687W        W98947  26.583  40.794  10.590
26688W        W98948   1.812  16.262  12.338
26689W        W98949   1.071  30.627   2.248
26690W        W98950   6.389  17.991  12.562
26691W        W98951  11.081   5.698  10.560
26692W        W98952  27.028  13.281  10.655
26693W        W98953  30.849  17.100   1.381
26694W        W98954   0.710  36.972   3.237
26695W        W98955   7.458  37.572  12.346
26696W        W98956   3.456   9.785  13.377
26697W        W98957  23.014  39.843  14.537
26698W        W98958  10.554   7.818  13.994
26699W        W98959  35.575  40.583   2.317
26700W        W98960  43.700  12.791   4.678
26701W        W98961  23.203  34.897  11.018
26702W        W98962   4.403  10.338  12.965
26703W        W98963  34.607  13.380  11.616
26704W        W98964   0.895   1.758   0.198
26705W        W98965  36.060  24.204   3.586
26706W        W98966  44.342  29.103  12.576
26707W        W98967  35.191  12.183  13.969
26708W        W98968  39.975  23.461  11.478
26709W        W98969  29.554  12.111  12.439
26710W        W98970  32.018  36.023  10.657
26711W        W98971  10.674  25.304  14.945
26712W        W98972  17.834  41.858  14.864
26713W        W98973  37.970  15.058   1.443
26714W        W98974   2.254  33.645  10.705
26715W        W98975  20.266   7.270   1.055
26716W        W98976  37.690  26.715   3.124
26717W        W98977  40.875  40.908  10.848
26718W        W98978  21.994  25.919   9.708
26719W        W98979   0.898  12.694   1.725
26720W        W98980  42.055  13.784  13.107
26721W        W98981  30.055  36.870   1.315
26722W        W98982   7.471   6.401   4.194
26723W        W98983  12.325  18.492  14.931
26724W        W98984  42.933   9.777  13.930
26725W        W98985  37.081  34.361  11.640
26726W        W98986  22.667  38.253  12.962
26727W        W98987  28.075  23.065  13.195
26728W        W98988  10.116   0.349  11.486
26729W        W98989   6.347  35.414   2.577
26730W        W98990  40.483  10.746  13.112
26731W        W98991  21.160   3.752  12.235
26732W        W98992  37.035  21.550  14.304
26733W        W98993  31.571  26.577  13.853
26734W        W98994  43.429   0.850  12.576
26735W        W98995  42.870  30.830   2.369
26736W        W98996  25.642   5.308  11.578
26737W        W98997  33.531  14.586  11.542
26738W        W98998  26.053  26.548   0.800
26739W        W98999   1.388   3.726   1.858
26740W        W99000   6.952  28.491  14.421
26741W        W99001   4.363  12.389   2.935
26742W        W99002  12.032   4.483  10.714
26743W        W99003  39.315  24.849  14.240
26744W        W99004   8.145  25.066  12.895
26745W        W99005  33.019  14.293   4.861
26746W        W99006  38.835  28.089   3.755
26747W        W99007  43.008  26.855  12.174
26748W        W99008  37.532   8.248  10.732
26749W        W99009  34.778   1.283   0.537
26750W        W99010  33.952  36.903  13.800
26751W        W99011  31.489  16.545  12.515
26752W        W99012  17.143  44.083   4.111
26753W        W99013  38.596  13.639   0.914
26754W        W99014  23.475  26.152  12.107
26755W        W99015  11.149  23.702   1.245
26756W        W99016  25.096  40.238  14.394
26757W        W99017  19.567  11.272  13.312
26758W        W99018  27.491  24.326   4.146
26759W        W99019  26.335  44.434   4.568
26760W        W99020  22.346  39.016  13.878
26761W        W99021  39.423  11.464   2.435
26762W        W99022  41.452   0.001  14.466
26763W        W99023   6.930   9.125   2.682
26764W        W99024  24.232  40.085   3.630
26765W        W99025  42.071   3.194   9.887
26766W        W99026  30.481  42.784   0.681
26767W        W99027  11.438  34.136   4.923
26768W        W99028  40.559  29.036  11.206
26769W        W99029  17.530   0.372  10.797
26770W        W99030  15.232  21.045   0.515
26771W        W99031   6.091  27.590   4.888
26772W        W99032  13.687   6.877  13.102
26773W        W99033  18.724  11.792   3.274
26774W        W99034  12.753  24.728   2.425
26775W        W99035  11.098  11.432  13.791
26776W        W99036  33.628  42.357  11.689
26777W        W99037  22.101  10.164  12.927
26778W        W99038  38.924   1.905   0.320
26779W        W99039  29.267  41.504   2.248
26780W        W99040   8.297   3.327   2.827
26781W        W99041  36.930  37.321   1.401
26782W        W99042   6.933  28.483  11.438
26783W        W99043  20.537  24.408   2.470
26784W        W99044  21.096   8.501   0.523
26785W        W99045   7.329  26.642  10.507
26786W        W99046   8.644  38.277  10.824
26787W        W99047   4.222  13.773   2.145
26788W        W99048  37.313  20.145  12.935
26789W        W99049  10.578  29.171   2.401
26790W        W99050  29.078  27.430   0.317
26791W        W99051  42.410  33.563  11.612
26792W        W99052   2.998  14.813  10.709
26793W        W99053   7.164  40.736  14.991
26794W        W99054  20.661  14.767   3.701
26795W        W99055  16.808  30.516   2.708
26796W        W99056  29.942  18.876   0.196
26797W        W99057   2.925  41.777  14.456
26798W        W99058  35.490  44.067  13.274
26799W        W99059   0.839  42.481  13.367
26800W        W99060  42.350  14.328   5.066
26801W        W99061  43.408  24.166   1.643
26802W        W99062   3.345  41.232  10.674
26803W        W99063   1.776  41.445  12.330
26804W        W99064  19.537  29.676   2.842
26805W        W99065  28.697  26.490   4.199
26806W        W99066  26.387  18.084   0.700
26807W        W99067  38.369  35.120   4.133
26808W        W99068  30.322  18.529  14.765
26809W        W99069   3.270   9.142  13.959
26810W        W99070  43.901  12.260   3.327
26811W        W99071  27.449   8.383  11.979
26812W        W99072  36.169  34.439   0.530
26813W        W99073  23.220   5.221   1.399
26814W        W99074  16.776  43.418  11.103
26815W        W99075  11.323  10.324   3.662
26816W        W99076  15.142  25.470  10.748
26817W        W99077  37.355  10.730   2.866
26818W        W99078   2.905  40.096   1.223
26819W        W99079   2.071  42.434  13.827
26820W        W99080   0.372  16.477   0.250
26821W        W99081  15.782  38.100  11.089
26822W        W99082  20.248   6.164  10.184
26823W        W99083  23.575  44.348  12.792
26824W        W99084   9.096  22.259   0.409
26825W        W99085   3.105  17.832  13.414
26826W        W99086  10.329  43.030  14.926
26827W        W99087  10.510  20.392  14.455
26828W        W99088  44.757  21.278   3.799
26829W        W99089  27.867  29.427   1.947
26830W        W99090  31.099  40.316  13.265
26831W        W99091  23.557   8.286  13.954
26832W        W99092   7.074  10.369  14.903
26833W        W99093  32.378  31.950  11.091
26834W        W99094   6.692  40.810  11.982
26835W        W99095  23.284  30.917  11.519
26836W        W99096  20.275  32.486   2.212
26837W        W99097  13.791  41.441   3.671
26838W        W99098   9.687  18.283  14.490
26839W        W99099   8.351  33.524  13.848
26840W        W99100   4.162  12.657  10.752
26841W        W99101   9.904  24.088  14.032
26842W        W99102  16.291  22.722   2.271
26843W        W99103  35.841   2.827  11.209
26844W        W99104   5.265  28.586   0.842
26845W        W99105  30.785  33.529   2.703
26846W        W99106  36.104   9.874   3.720
26847W        W99107  17.371  27.064   3.350
26848W        W99108  22.245  13.256  14.051
26849W        W99109  26.917  28.428  11.974
26850W        W99110   4.404   9.202  12.600
26851W        W99111  40.111   9.798   4.023
26852W        W99112  42.795   0.248   3.236
26853W        W99113  28.548  17.330   3.336
26854W        W99114  13.125  18.750   1.671
26855W        W99115   9.690  23.027  14.893
26856W        W99116  37.873  12.891   2.876
26857W        W99117   2.518  37.441   3.028
26858W        W99118  18.275  10.689  14.322
26859W        W99119  20.613  20.912  14.207
26860W        W99120  19.279  14.722  14.372
26861W        W99121  13.972  29.963  11.483
26862W        W99122  23.067   0.045  12.514
26863W        W99123   0.432  10.238  14.693
26864W        W99124  30.475   5.410   1.938
26865W        W99125   1.484  42.939  11.633
26866W        W99126  15.590  15.440   0.431
26867W        W99127  20.608  29.901  14.429
26868W        W99128  34.393   1.059   0.817
26869W        W99129  27.937  26.309   0.262
26870W        W99130   4.817  38.370  13.749
26871W        W99131  43.906   3.926   0.990
26872W        W99132  19.773  12.161   2.772
26873W        W99133  21.085   9.336   2.842
26874W        W99134  40.893  27.305  14.310
26875W        W99135  17.510  44.478   0.301
26876W        W99136  39.812  34.853   1.417
26877W        W99137  29.178  20.280   3.352
26878W        W99138  29.605   8.917  11.210
26879W        W99139  30.596  23.006   4.671
26880W        W99140  28.455   2.235  10.783
26881W        W99141  31.362  29.096   1.890
26882W        W99142  24.456  44.429  13.971
26883W        W99143  24.468  25.643  10.443
26884W        W99144  15.707  41.441  13.943
26885W        W99145  42.018   6.294   1.893
26886W        W99146  26.459  40.050   2.595
26887W        W99147  34.095   9.709  10.646
26888W        W99148  16.182  31.504   3.723
26889W        W99149   9.270  12.264   2.726
26890W        W99150  26.146  42.689   2.191
26891W        W99151  28.917  16.011   1.286
26892W        W99152  25.534  23.958  11.975
26893W        W99153  40.198  10.335   4.219
26894W        W99154  12.217   0.998   0.277
26895W        W99155  12.140  24.460  11.839
26896W        W99156  44.449  21.994   4.171
26897W        W99157   0.353  42.586  14.342
26898W        W99158   3.555  19.822  13.149
26899W        W99159  12.532  18.066  12.907
26900W        W99160  11.127  22.219   2.373
26901W        W99161   1.377  34.053   4.931
26902W        W99162  21.560   7.250   0.671
26903W        W99163  41.522  30.139  13.607
26904W        W99164   0.031  35.788  10.678
26905W        W99165  28.649  43.976   1.766
26906W        W99166   9.020  26.719  13.400
26907W        W99167  30.343   0.812  10.998
26908W        W99168  19.209  28.630   3.525
26909W        W99169  10.198   7.827  13.621
26910W        W99170  39.751  28.689   0.298
26911W        W99171  24.299   8.892  14.765
26912W        W99172  19.935  44.610   3.847
26913W        W99173  40.414  37.338  11.867
26914W        W99174  19.675  24.032   3.235
26915W        W99175  23.774  26.180  10.370
26916W        W99176  30.033  39.556   3.084
26917W        W99177  14.033   8.935  11.461
26918W        W99178   3.876  40.939  14.452
26919W        W99179  39.430  19.618   1.720
26920W        W99180   1.814   7.239  13.860
26921W        W99181  10.264  36.407   2.229
26922W        W99182  35.260  37.398   2.695
26923W        W99183  37.978  29.782  11.843
26924W        W99184  23.233  43.794   0.329
26925W        W99185  43.876   3.299  13.038
26926W        W99186  44.394   5.869  13.504
26927W        W99187   0.826   3.174  13.872
26928W        W99188  15.294  17.453  14.810
26929W        W99189  24.130  16.601   0.369
26930W        W99190  37.602  39.093  12.637
26931W        W99191   5.712  17.723  13.603
26932W        W99192  44.096  11.177   0.223
26933W        W99193  20.340   8.418   0.375
26934W        W99194  18.585  34.648  11.412
26935W        W99195  12.278   2.827  13.477
26936W        W99196  22.584  26.109  14.431
26937W        W99197  32.657  17.547  10.609
26938W        W99198  27.143   6.855   1.761
26939W        W99199  29.886  20.651  14.266
26940W        W99200  41.288  11.674   4.749
26941W        W99201  34.941  12.356  13.485
26942W        W99202  24.752  28.256  10.767
26943W        W99203   7.406   5.367  14.292
26944W        W99204  43.779  25.833  11.137
26945W        W99205  13.978  21.245  11.679
26946W        W99206  13.666  19.657   4.123
26947W        W99207  44.308  26.118   4.662
26948W        W99208  36.248   9.436  13.399
26949W        W99209  26.687  39.789  12.862
26950W        W99210  37.023  32.047  10.727
26951W        W99211  40.035  25.701  11.132
26952W        W99212  13.706   7.639   4.662
26953W        W99213  14.164   0.704  12.085
26954W        W99214   0.353   5.878  11.938
26955W        W99215  18.505  15.072  14.617
26956W        W99216   9.227  40.140  13.757
26957W        W99217  25.912   2.712  11.155
26958W        W99218  30.183  12.795  12.540
26959W        W99219   5.741  28.327   5.055
26960W        W99220  28.605  26.276   0.713
26961W        W99221  22.888   3.450  10.373
26962W        W99222  27.259  17.829   3.716
26963W        W99223   0.078   6.432  10.682
26964W        W99224   8.692  37.721   0.918
26965W        W99225  13.539  20.530  13.490
26966W        W99226  12.100   4.582  11.240
26967W        W99227   2.900   2.422   2.170
26968W        W99228  12.728  28.172  14.038
26969W        W99229  18.766  29.636  10.663
26970W        W99230  22.849  28.918  10.641
26971W        W99231  26.136  31.556   4.584
26972W        W99232  41.214   4.339  10.835
26973W        W99233   2.309  14.105   1.330
26974W        W99234  23.998  18.826   2.623
26975W        W99235   4.233  19.206  14.848
26976W        W99236  44.882  33.050   3.586
26977W        W99237   9.371  41.090   1.064
26978W        W99238  24.983  23.022   2.904
26979W        W99239  29.650  17.792  13.548
26980W        W99240  27.590   3.620  14.875
26981W        W99241  18.648  38.042  14.371
26982W        W99242   8.313  42.918  12.393
26983W        W99243  34.485  21.574   3.048
26984W        W99244  36.026  14.314   1.332
26985W        W99245  28.617  35.940   1.703
26986W        W99246  41.873  22.645   2.863
26987W        W99247  37.785   8.686  12.087
26988W        W99248   1.858  38.405   3.146
26989W        W99249  38.420  18.245   3.439
26990W        W99250   2.163  44.482  11.924
26991W        W99251  43.906   3.450   2.110
26992W        W99252  10.751   5.397  13.907
26993W        W99253  44.016  18.252   0.791
26994W        W99254  37.599  13.218   3.178
26995W        W99255  39.523  31.170   4.489
26996W        W99256  21.521  30.905   2.680
26997W        W99257  18.026  14.995   0.460
26998W        W99258  24.651   4.404   0.989
26999W        W99259   6.663  23.126   1.727
27000W        W99260  29.139   4.663  11.074
27001W        W99261   6.901  24.630   3.078
27002W        W99262   7.027  23.772   0.021
27003W        W99263  31.560  12.955  12.467
27004W        W99264  29.217  25.837   4.110
27005W        W99265  25.628  35.157  11.954
27006W        W99266   4.875  22.571  10.072
27007W        W99267  34.687  10.134  14.239
27008W        W99268  29.179  33.378   2.220
27009W        W99269  38.025  32.407   2.401
27010W        W99270   4.590  44.936   2.775
27011W        W99271  37.880  15.820  12.495
27012W        W99272   2.274  42.053  10.688
27013W        W99273  37.992  15.434  14.064
27014W        W99274  10.720   3.095  13.516
27015W        W99275  22.602  25.038  10.642
27016W        W99276  13.127  18.684   4.456
27017W        W99277  18.687   2.103  13.519
27018W        W99278  37.959   4.641   0.452
27019W        W99279  40.660  37.324  13.355
27020W        W99280  19.295   7.239  12.797
27021W        W99281  33.122  15.330   4.724
27022W        W99282   0.362  21.670   4.281
27023W        W99283  25.024  35.722  14.094
27024W        W99284   2.283  40.636  11.868
27025W        W99285  34.196   2.537   2.026
27026W        W99286  31.488  30.172  10.915
27027W        W99287  43.327   4.319   2.957
27028W        W99288  21.547  17.802  11.665
27029W        W99289   5.421  38.428  14.865
27030W        W99290  19.681  40.245   4.400
27031W        W99291  14.021   4.734   0.811
27032W        W99292   2.593  38.551  11.097
27033W        W99293   8.363  32.355   0.741
27034W        W99294  40.749  28.067  12.727
27035W        W99295  41.569  12.061  12.520
27036W        W99296  26.722   4.881  10.397
27037W        W99297  42.978   9.318  13.077
27038W        W99298  41.972   5.886  14.727
27039W        W99299  38.552  17.249  12.558
27040W        W99300  42.656  20.173   3.326
27041W        W99301  13.092   8.109   3.823
27042W        W99302  30.701  28.038  11.116
27043W        W99303  22.041  29.622   3.768
27044W        W99304  31.137  16.395   1.842
27045W        W99305  11.569  21.066  11.537
27046W        W99306   4.097  18.824   1.050
27047W        W99307  40.466   0.350   4.260
27048W        W99308  30.621   5.919  11.173
27049W        W99309  34.548   0.423  10.716
27050W        W99310  17.513  28.681   2.389
27051W        W99311  38.074  38.224   3.312
27052W        W99312  13.116  42.953  13.567
27053W        W99313  41.732  32.744  14.336
27054W        W99314  25.010  24.268   2.365
27055W        W99315   8.616  10.213   1.780
27056W        W99316   7.295   7.236   4.716
27057W        W99317  37.056  24.237   2.706
27058W        W99318   0.803  20.554  10.314
27059W        W99319  42.051  12.142  12.334
27060W        W99320  41.895  29.786  14.652
27061W        W99321  22.991  23.112  13.947
27062W        W99322  32.575  11.795   1.260
27063W        W99323   5.961  22.809   0.409
27064W        W99324   3.913   8.775  11.991
27065W        W99325  26.631   0.335   2.896
27066W        W99326  11.847  31.208  11.532
27067W        W99327  38.733  44.499  11.862
27068W        W99328  24.568  35.093   1.810
27069W        W99329  17.286  25.679   3.112
27070W        W99330  17.516  33.831   4.007
27071W        W99331  19.722  26.023   1.414
27072W        W99332  33.133  33.905  12.163
27073W        W99333  39.352   5.993   3.346
27074W        W99334   9.364  30.972   3.356
27075W        W99335   9.789  24.855  12.712
27076W        W99336  12.250  27.985   3.709
27077W        W99337   3.089  37.917   4.839
27078W        W99338  15.578  34.455  10.128
27079W        W99339  35.847  38.109  12.440
27080W        W99340  19.073   7.626   4.232
27081W        W99341  16.111  42.505   2.798
27082W        W99342   7.396  37.542   2.197
27083W        W99343  11.829   4.703  14.842
27084W        W99344   6.943  26.584  13.536
27085W        W99345  24.625  31.934  11.965
27086W        W99346  12.419  33.565   1.068
27087W        W99347   9.694  38.485  12.165
27088W        W99348  25.028  34.988  10.751
27089W        W99349  22.775  25.507  12.423
27090W        W99350   4.101  44.852  10.882
27091W        W99351   7.756  17.534   4.854
27092W        W99352  41.906   5.604  11.095
27093W        W99353  32.638   8.779   1.032
27094W        W99354  34.079  32.928  13.826
27095W        W99355  15.243   7.353  13.258
27096W        W99356   5.845  30.031   4.430
27097W        W99357  42.434   5.399  14.335
27098W        W99358  16.508  13.862   2.462
27099W        W99359  40.571  13.368  14.423
27100W        W99360  13.742   9.332  11.620
27101W        W99361  39.741  20.015   4.397
27102W        W99362  32.140  39.186   9.928
27103W        W99363  28.754  41.200   4.928
27104W        W99364  19.315  15.679   3.735
27105W        W99365   9.175   1.923   3.290
27106W        W99366  44.325  10.729   3.891
27107W        W99367  35.533  43.544  12.381
27108W        W99368   6.909   5.998  11.959
27109W        W99369  10.134  32.542  10.730
27110W        W99370  15.294  10.465  14.464
27111W        W99371  38.847  37.580  12.568
27112W        W99372  23.289  17.295   1.810
27113W        W99373  27.311  12.840   2.356
27114W        W99374  20.629   9.162   2.630
27115W        W99375  32.051  13.701  14.495
27116W        W99376  44.474   5.166   0.201
27117W        W99377  27.699   7.233  13.966
27118W        W99378   7.976  29.595  12.994
27119W        W99379   0.477  18.264   1.453
27120W        W99380  11.809  36.399   4.611
27121W        W99381   8.255  34.603   4.640
27122W        W99382  10.467  30.358   2.911
27123W        W99383  38.057  40.366  14.601
27124W        W99384  39.505  33.561  13.502
27125W        W99385  41.495  22.762   0.021
27126W        W99386  17.634  36.108   1.824
27127W        W99387  41.698  13.730  11.768
27128W        W99388   0.929  22.100   1.032
27129W        W99389  22.220  25.434   2.721
27130W        W99390  26.588  36.927  13.112
27131W        W99391  26.878   5.709  10.194
27132W        W99392   6.727  20.039   1.799
27133W        W99393  32.805  18.701  13.230
27134W        W99394  30.857   1.182  13.824
27135W        W99395  29.023  13.257   4.362
27136W        W99396  21.953  12.711  10.678
27137W        W99397  30.551  34.166  14.511
27138W        W99398   1.795  34.770   2.350
27139W        W99399  22.650  21.684   3.565
27140W        W99400  39.534  37.162  12.446
27141W        W99401   0.174  42.991   3.666
27142W        W99402  26.548   3.335  14.961
27143W        W99403  30.018   0.440  13.923
27144W        W99404   4.323  39.738  12.904
27145W        W99405  11.329  44.332   1.770
27146W        W99406  32.140  36.349   2.747
27147W        W99407   2.912  18.840  11.602
27148W        W99408   7.987   4.377   4.083
27149W        W99409  36.391   8.202  12.413
27150W        W99410  42.372  20.161  14.232
27151W        W99411  39.740  20.251  14.527
27152W        W99412  24.292  16.140  13.400
27153W        W99413   5.328  38.465  13.503
27154W        W99414   6.263  42.607  14.239
27155W        W99415  38.059  23.295   3.279
27156W        W99416  17.827  17.804  10.759
27157W        W99417  25.066   5.657  13.966
27158W        W99418  20.052  32.136   0.741
27159W        W99419  28.678  31.349   0.128
27160W        W99420  35.899   0.699   0.008
27161W        W99421   4.221   4.825   0.337
27162W        W99422  20.241  32.875   4.056
27163W        W99423  16.796  44.090   3.153
27164W        W99424  40.830  32.057   1.487
27165W        W99425  11.922  16.263   3.125
27166W        W99426  44.505   6.572   0.234
27167W        W99427  38.273  10.632   3.212
27168W        W99428   3.291  29.115   2.426
27169W        W99429  33.596   4.687   4.673
27170W        W99430   0.249  13.142   0.983
27171W        W99431  11.127  21.616   2.839
27172W        W99432  34.055  29.551   1.558
27173W        W99433  37.620  16.387  10.647
27174W        W99434  23.101  16.243  10.604
27175W        W99435  37.913  33.022  10.672
27176W        W99436  17.250  15.058  12.795
27177W        W99437  35.963  23.424   0.840
27178W        W99438   8.861   4.758  13.564
27179W        W99439   1.716  35.284   4.853
27180W        W99440   9.289  24.225  11.511
27181W        W99441  35.826  10.643  14.250
27182W        W99442  33.879   1.795   1.700
27183W        W99443   9.894  27.711   1.290
27184W        W99444  17.246  15.608   4.955
27185W        W99445   9.732  22.910  10.458
27186W        W99446  10.481  29.258  13.043
27187W        W99447  34.181  24.591  10.465
27188W        W99448  26.602   7.698  13.117
27189W        W99449  40.208   3.586  10.431
27190W        W99450  43.322  34.559  14.349
27191W        W99451   8.104   5.214   4.502
27192W        W99452   0.356  26.694  13.694
27193W        W99453  33.066  40.023   0.863
27194W        W99454   7.310  15.611   3.656
27195W        W99455  41.902  38.559  11.724
27196W        W99456  23.062   7.826  11.004
27197W        W99457  41.534   9.678   4.554
27198W        W99458  39.462  42.545   3.380
27199W        W99459  24.913   1.043  13.266
27200W        W99460  13.260   7.553   2.623
27201W        W99461   9.094  14.669  10.436
27202W        W99462   5.840  32.887   4.956
27203W        W99463  29.752  27.218  12.486
27204W        W99464   9.795  31.976   1.877
27205W        W99465  43.524  19.101  14.922
27206W        W99466   4.330  27.237  13.775
27207W        W99467  33.244   6.438   2.366
27208W        W99468  14.694  43.219   2.622
27209W        W99469   5.382  27.875   2.529
27210W        W99470  32.552   1.903   4.733
27211W        W99471  20.340  16.534  13.050
27212W        W99472   8.175  22.455   2.900
27213W        W99473  40.612  37.556   0.272
27214W        W99474  42.362  37.801   0.669
27215W        W99475  19.508  21.562  12.720
27216W        W99476   8.595  22.393   0.446
27217W        W99477  38.961  32.451  13.531
27218W        W99478  29.895  14.155   1.778
27219W        W99479  26.716  24.620   3.414
27220W        W99480  37.254  27.199  13.544
27221W        W99481   2.638  12.269   3.172
27222W        W99482  31.560  40.061   1.157
27223W        W99483  44.021  10.802  11.652
27224W        W99484  35.333   0.264   2.166
27225W        W99485  21.557  16.698  14.047
27226W        W99486  44.003  38.107  12.975
27227W        W99487  14.354  25.500   0.930
27228W        W99488  30.356  13.899   4.620
27229W        W99489  36.508  32.881  12.872
27230W        W99490  38.888  23.753  13.927
27231W        W99491  22.200  31.223  14.955
27232W        W99492  15.612  21.712  12.535
27233W        W99493   8.752   1.266  10.889
27234W        W99494  32.239  18.562   3.099
27235W        W99495  44.245  35.483  10.704
27236W        W99496   9.804  11.233   2.847
27237W        W99497  44.206  16.235  11.505
27238W        W99498  22.893   0.877   4.086
27239W        W99499  22.546  18.536  13.187
27240W        W99500  43.805   4.327   1.873
27241W        W99501  31.318  15.242  12.525
27242W        W99502  27.061  29.573  13.019
27243W        W99503  34.624  17.854  10.014
27244W        W99504   6.477  35.275   0.830
27245W        W99505  15.567  14.419   2.263
27246W        W99506   4.976  19.014   0.512
27247W        W99507  25.884  25.227  11.300
27248W        W99508  41.028  33.621   3.259
27249W        W99509  29.879  35.145   1.646
27250W        W99510  10.327  18.464   4.885
27251W        W99511  39.854   5.349  13.866
27252W        W99512  34.573   7.362  13.609
27253W        W99513  41.780  33.385  14.347
27254W        W99514  33.887  40.222  12.880
27255W        W99515  29.198  40.072  12.030
27256W        W99516   5.129  25.553  14.523
27257W        W99517   8.914  42.269  11.049
27258W        W99518   2.056  35.685  11.053
27259W        W99519  13.859   3.975   1.045
27260W        W99520  33.505  14.424  12.458
27261W        W99521  18.855  40.319  10.702
27262W        W99522  25.477  27.514  12.191
27263W        W99523  31.940  27.960  14.941
27264W        W99524   8.083  13.670   0.756
27265W        W99525   5.267  21.159  14.454
27266W        W99526  40.975   6.596  12.460
27267W        W99527  24.120   7.874  13.833
27268W        W99528  16.685  38.407   3.076
27269W        W99529  16.328  39.512  14.830
27270W        W99530  38.327  26.536   4.641
27271W        W99531  24.507   6.629   4.486
27272W        W99532  14.303  12.478  12.026
27273W        W99533   8.891  34.462   1.434
27274W        W99534   4.346   8.903  13.044
27275W        W99535   2.458  38.830  14.842
27276W        W99536  14.314  10.823  11.063
27277W        W99537   2.605  40.502   1.363
27278W        W99538  40.556  28.054   0.791
27279W        W99539   3.802   3.928  14.973
27280W        W99540  40.323  24.766  15.000
27281W        W99541  16.534  43.354   0.272
27282W        W99542  34.786  35.288   0.955
27283W        W99543  44.971  18.848  11.261
27284W        W99544   1.780   0.136   2.531
27285W        W99545   9.922  27.432  14.900
27286W        W99546  13.154  39.942  11.705
27287W        W99547  43.232  16.213  14.968
27288W        W99548  21.421  14.844  10.626
27289W        W99549  38.202  15.563   1.244
27290W        W99550   7.157   1.638  13.395
27291W        W99551   2.350  18.894   3.351
27292W        W99552   7.320  18.338  13.841
27293W        W99553   0.906   0.936   4.536
27294W        W99554  17.968   6.278  14.780
27295W        W99555  28.508  30.128   4.941
27296W        W99556  30.663  15.846  10.282
27297W        W99557  38.986  42.731   2.867
27298W        W99558   8.731  33.642  12.509
27299W        W99559  33.003  43.992   1.376
27300W        W99560  29.621   7.066   4.123
27301W        W99561  27.579   9.359   3.342
27302W        W99562  34.803  15.746  14.876
27303W        W99563  35.011   4.813   1.911
27304W        W99564  38.615  43.550   1.186
27305W        W99565   5.141   8.070  13.064
27306W        W99566  17.139   5.183   1.772
27307W        W99567   6.687  31.628  12.023
27308W        W99568   6.819  23.992  11.248
27309W        W99569   5.055   7.798   3.023
27310W        W99570  41.237  18.487   0.010
27311W        W99571  27.041  18.273  14.439
27312W        W99572  25.620   3.413  11.100
27313W        W99573  23.502   3.426   1.659
27314W        W99574   1.888  19.555  14.738
27315W        W99575  23.821  11.744   2.219
27316W        W99576   8.260  27.667   3.660
27317W        W99577  27.039  22.053   1.196
27318W        W99578   6.424   9.351  11.670
27319W        W99579   9.130  20.654  10.677
27320W        W99580  15.871   8.002   3.700
27321W        W99581   1.469   6.196   2.776
27322W        W99582  19.723   7.625   0.254
27323W        W99583  22.649  33.112  11.163
27324W        W99584  17.784  38.386   1.893
27325W        W99585  21.999  16.255  12.465
27326W        W99586  43.036  26.161   1.607
27327W        W99587   8.709  33.422  13.385
27328W        W99588  38.412  19.498   3.748
27329W        W99589   0.541  18.634   2.204
27330W        W99590  19.505  36.711  11.909
27331W        W99591   3.566  13.763   1.506
27332W        W99592  15.162  33.791  13.580
27333W        W99593  14.265  14.007  14.040
27334W        W99594  34.057  31.159  14.153
27335W        W99595  30.330  40.854   1.321
27336W        W99596  17.187  44.995  10.789
27337W        W99597  36.349  12.396  11.126
27338W        W99598   1.476  17.625   1.835
27339W        W99599  44.575  29.019   1.880
27340W        W99600  41.490   3.771  11.172
27341W        W99601  18.110  26.596  14.085
27342W        W99602  41.303   1.356  12.055
27343W        W99603  34.966  28.154  14.795
27344W        W99604   6.230  39.839   0.012
27345W        W99605  44.477  26.499   4.987
27346W        W99606  38.509  26.467  11.722
27347W        W99607  42.563  38.536  13.352
27348W        W99608  14.296  10.692   0.776
27349W        W99609  41.349  35.697  10.646
27350W        W99610   4.774  23.426  13.027
27351W        W99611   7.201  20.154   4.760
27352W        W99612  31.479  39.930  10.727
27353W        W99613  41.264  25.455   0.861
27354W        W99614   7.692  35.438   4.162
27355W        W99615  25.266   6.933   4.124
27356W        W99616  37.040  39.579  10.683
27357W        W99617  14.817   9.851   2.948
27358W        W99618  23.087  24.097  13.117
27359W        W99619  25.177  42.318  11.221
27360W        W99620  38.584  35.129   4.589
27361W        W99621  37.134  19.496   4.113
27362W        W99622  35.922   6.703   4.489
27363W        W99623   6.111  28.931   3.766
27364W        W99624  15.646   1.265  14.324
27365W        W99625  32.381  34.166  12.614
27366W        W99626  32.261   3.681   0.792
27367W        W99627   5.990   1.253  12.028
27368W        W99628  32.047  13.793  13.984
27369W        W99629  22.306  18.783  11.761
27370W        W99630  26.181  28.620  12.997
27371W        W99631  19.656  18.641   2.135
27372W        W99632  25.707  40.583  13.282
27373W        W99633  23.170   5.837   4.657
27374W        W99634  43.325   6.836  14.106
27375W        W99635  43.002  37.360   0.457
27376W        W99636  37.943  11.399  11.111
27377W        W99637  40.904  39.090  10.501
27378W        W99638  10.635  21.635  13.132
27379W        W99639   7.400   4.209  10.707
27380W        W99640   9.348  25.094  13.363
27381W        W99641  24.724   2.358  12.099
27382W        W99642   9.103  13.432   4.155
27383W        W99643  23.092  11.159   2.247
27384W        W99644   6.355  12.698  13.400
27385W        W99645  16.595  21.141  13.755
27386W        W99646  32.110  16.303   2.196
27387W        W99647  21.610  44.000   2.363
27388W        W99648  26.744  34.676   4.450
27389W        W99649  40.546  11.106   3.707
27390W        W99650  15.941  25.645  11.176
27391W        W99651   4.300  16.706   0.010
27392W        W99652  28.551  29.768   2.203
27393W        W99653  34.592   5.182   1.872
27394W        W99654  40.357  12.345   1.433
27395W        W99655   4.056  22.289  10.530
27396W        W99656  20.054  37.655   4.120
27397W        W99657  19.547  30.150   4.651
27398W        W99658  44.681  12.273   0.208
27399W        W99659   9.801  23.482   4.161
27400W        W99660  30.973  38.622  13.452
27401W        W99661  37.825   9.329   0.509
27402W        W99662   5.270  28.078   1.802
27403W        W99663  27.744   5.332   1.388
27404W        W99664   3.099  43.763  14.445
27405W        W99665   5.886  34.992   0.480
27406W        W99666  28.619  30.006   2.647
27407W        W99667  39.893  27.068   4.483
27408W        W99668  22.784  39.696  11.128
27409W        W99669  30.535  19.012  10.630
27410W        W99670  29.418  32.053   2.928
27411W        W99671  19.631  24.127  12.502
27412W        W99672  31.720  15.202  10.488
27413W        W99673  23.407   0.981   3.803
27414W        W99674  34.417  31.644  13.089
27415W        W99675  29.124  11.829  11.526
27416W        W99676  42.202  11.620  13.622
27417W        W99677  17.648  26.656   3.176
27418W        W99678  30.099  39.340   4.666
27419W        W99679   7.390  23.527  12.426
27420W        W99680  36.106  24.582  13.022
27421W        W99681  42.481   9.533   1.214
27422W        W99682  40.692  29.240   0.909
27423W        W99683  13.604   8.707  14.381
27424W        W99684  35.047   2.521  12.524
27425W        W99685  11.780  27.571   3.479
27426W        W99686  12.271  36.313   4.855
27427W        W99687   4.171   1.270   1.347
27428W        W99688   1.792  34.645  12.839
27429W        W99689  38.689  11.984   3.414
27430W        W99690  32.321   3.567   3.278
27431W        W99691  19.624  14.864  11.138
27432W        W99692  25.624  16.861  12.935
27433W        W99693  18.920  39.245  13.389
27434W        W99694   9.762  25.276   1.880
27435W        W99695   5.825  36.019  10.962
27436W        W99696  14.382  20.084   0.746
27437W        W99697  12.250  28.194  11.039
27438W        W99698  29.045  14.129   0.692
27439W        W99699  35.776  17.286  14.793
27440W        W99700  32.876  40.384  14.727
27441W        W99701  31.231  38.331  11.267
27442W        W99702  24.242  23.104   0.688
27443W        W99703  42.859  38.140  13.564
27444W        W99704  21.471  26.128   5.004
27445W        W99705  22.664  36.520  12.771
27446W        W99706  21.754  12.818  14.390
27447W        W99707  22.100  20.108  12.426
27448W        W99708  22.065  12.935   4.420
27449W        W99709   9.091  18.317   4.526
27450W        W99710  43.958  11.940  12.621
27451W        W99711  15.331  29.579  13.086
27452W        W99712  12.428  27.767   0.873
27453W        W99713  14.954  19.570  12.501
27454W        W99714  22.359  21.234   3.515
27455W        W99715   8.050   1.535   4.076
27456W        W99716  24.006  19.979  11.013
27457W        W99717  16.326  29.570  13.803
27458W        W99718  22.165  22.650  10.569
27459W        W99719   8.388  34.260   1.966
27460W        W99720  43.547  21.497  13.467
27461W        W99721   8.046  18.932  14.677
27462W        W99722   5.969   0.560  12.567
27463W        W99723  20.991  35.444   2.656
27464W        W99724   4.164  32.331   4.369
27465W        W99725   5.429  20.953  12.876
27466W        W99726  33.591   3.859   3.150
27467W        W99727   1.979  41.990  14.089
27468W        W99728   4.748   3.258   3.071
27469W        W99729   3.464  31.114  11.621
27470W        W99730   6.666  14.570  11.545
27471W        W99731  21.980  36.473  14.487
27472W        W99732   9.292  29.013   4.543
27473W        W99733  15.393  38.510  12.145
27474W        W99734  22.285  11.932  13.405
27475W        W99735  10.914  27.901  11.507
27476W        W99736  25.514  27.045  11.214
27477W        W99737  23.455  42.072  13.545
27478W        W99738   6.327   0.067  13.489
27479W        W99739  25.447  15.633  14.325
27480W        W99740   9.297   2.396   4.832
27481W        W99741  23.627  15.653  11.939
27482W        W99742  32.869  10.675   3.668
27483W        W99743  14.065  36.481  14.921
27484W        W99744  17.771   5.191  13.139
27485W        W99745  32.430  39.026   1.811
27486W        W99746  39.312  29.538  11.684
27487W        W99747   2.656  10.340   4.566
27488W        W99748  26.033  34.952  10.495
27489W        W99749   0.304  24.178  10.969
27490W        W99750   8.930  28.172   2.631
27491W        W99751  35.212  39.825   2.712
27492W        W99752  18.925  37.993  12.488
27493W        W99753  26.433   2.395  14.053
27494W        W99754  39.248  13.521   1.747
27495W        W99755  10.493  14.617  11.961
27496W        W99756  10.036  10.041   3.819
27497W        W99757  37.515  25.195  14.429
27498W        W99758  21.710  42.631  13.090
27499W        W99759  40.769  32.485   1.807
27500W        W99760  22.243  38.493  13.165
27501W        W99761   9.412  42.861   3.171
27502W        W99762   3.916  25.563  13.394
27503W        W99763  43.887  18.704  12.957
27504W        W99764  37.209  16.877   2.711
27505W        W99765  17.700  36.986  12.644
27506W        W99766  40.611  33.388  11.252
27507W        W99767   0.575  39.494   4.744
27508W        W99768   5.019   7.981  10.403
27509W        W99769  20.708  32.802   3.861
27510W        W99770   8.861  43.860  12.560
27511W        W99771  32.103   0.458   0.346
27512W        W99772   4.744   1.237  10.614
27513W        W99773  38.656  21.087  12.680
27514W        W99774   5.227  44.358   3.269
27515W        W99775  23.492  36.495   2.953
27516W        W99776  38.820  40.259  12.008
27517W        W99777  19.579  22.588   0.926
27518W        W99778   3.225  41.947   0.924
27519W        W99779  41.008   5.937  13.453
27520W        W99780  42.596  13.058  13.267
27521W        W99781  39.796  23.042  10.730
27522W        W99782   6.525  34.626  12.928
27523W        W99783  40.454  43.484  14.222
27524W        W99784  29.180   8.580   5.061
27525W        W99785  17.725  27.074   0.779
27526W        W99786   3.986  41.957  13.776
27527W        W99787  31.477   8.121   0.717
27528W        W99788  40.105  17.576  14.451
27529W        W99789   2.937  35.638   1.859
27530W        W99790  32.442  22.231  12.353
27531W        W99791  26.503  41.390   1.864
27532W        W99792  16.577  25.049   3.258
27533W        W99793  40.803  30.472  10.255
27534W        W99794  32.280  44.142   0.154
27535W        W99795  41.179  21.110   4.556
27536W        W99796  13.130  21.697   4.154
27537W        W99797  30.383  34.986  12.387
27538W        W99798  39.384  31.727   3.676
27539W        W99799  43.677   5.671   2.583
27540W        W99800  24.165  41.372  11.589
27541W        W99801  15.535  29.045  12.739
27542W        W99802  42.940   0.101  13.223
27543W        W99803  25.226  24.408   3.636
27544W        W99804   8.306   2.858   1.244
27545W        W99805  26.150  11.921   0.363
27546W        W99806  43.785  41.516  14.905
27547W        W99807  29.475   1.906  11.666
27548W        W99808   9.125  12.213  13.757
27549W        W99809  22.420  19.690  14.100
27550W        W99810  36.106  30.027  13.452
27551W        W99811  26.614   1.998  12.317
27552W        W99812  35.483   2.899   0.387
27553W        W99813  28.361  26.150  13.001
27554W        W99814  10.245  21.102  13.307
27555W        W99815  37.428  36.350   4.720
27556W        W99816  35.487   5.205   0.036
27557W        W99817   1.698  19.402  10.696
27558W        W99818   1.732  43.715  10.634
27559W        W99819  40.584   7.352   2.052
27560W        W99820  20.692  33.239   0.298
27561W        W99821  32.865   5.479   3.340
27562W        W99822   5.012  38.385   0.174
27563W        W99823   0.751  17.191  14.918
27564W        W99824  17.571  30.526   4.619
27565W        W99825  37.896  24.680   4.520
27566W        W99826  23.094   6.746   3.662
27567W        W99827   7.800  42.106   2.662
27568W        W99828   1.755  10.575   0.198
27569W        W99829   5.309  30.846   2.704
27570W        W99830  36.318  15.153   2.223
27571W        W99831  37.101  21.060   2.757
27572W        W99832  31.895  19.069   2.499
27573W        W99833  31.362  17.083  10.822
27574W        W99834  31.207   1.893   3.977
27575W        W99835  24.049   1.681  10.485
27576W        W99836   7.120  30.902   1.753
27577W        W99837   7.975  27.504  13.323
27578W        W99838   8.727  30.644   0.773
27579W        W99839  10.111  16.690  12.298
27580W        W99840   0.407  17.530   3.614
27581W        W99841  21.768   9.084   4.731
27582W        W99842  41.207  32.143  14.768
27583W        W99843  42.197   8.197   1.008
27584W        W99844   6.528  33.782   4.190
27585W        W99845   5.897  26.035  14.485
27586W        W99846  31.002  34.707  12.935
27587W        W99847  26.813  10.769  10.466
27588W        W99848   0.207  29.661  10.620
27589W        W99849  23.588  23.104   3.200
27590W        W99850  37.795  12.402  11.168
27591W        W99851  25.559  34.107  14.350
27592W        W99852  27.451  30.700   1.899
27593W        W99853  26.601  25.922   4.905
27594W        W99854   7.656  33.632  12.457
27595W        W99855  19.466  23.988   2.737
27596W        W99856  27.460  27.402  14.827
27597W        W99857  29.564  16.478  10.279
27598W        W99858  17.556  26.284  10.490
27599W        W99859   4.218   2.745   3.669
27600W        W99860   0.589  17.186  11.627
27601W        W99861  23.535  14.888   3.295
27602W        W99862  22.094  19.372  11.182
27603W        W99863  14.212   4.354   1.114
27604W        W99864  31.993  42.117  12.976
27605W        W99865  24.510  16.253  12.406
27606W        W99866  21.073   4.195   1.723
27607W        W99867  43.190  40.246  10.582
27608W        W99868  30.871   8.842  11.652
27609W        W99869  29.552  38.638   9.912
27610W        W99870  35.625  36.595  11.734
27611W        W99871   9.310  35.768   3.246
27612W        W99872  32.143   6.720  14.423
27613W        W99873  12.185  15.425   1.459
27614W        W99874  12.741  11.407  14.231
27615W        W99875  40.511  24.086  10.633
27616W        W99876   9.921  13.103   3.552
27617W        W99877  37.852   5.244   3.203
27618W        W99878  36.968  33.349  14.518
27619W        W99879  41.680   0.522   1.282
27620W        W99880   9.445  39.827  14.458
27621W        W99881  10.544  26.258  11.131
27622W        W99882   3.667  19.771   4.066
27623W        W99883  22.673  18.776   3.687
27624W        W99884   9.153  39.378  14.345
27625W        W99885   3.689   7.829   4.960
27626W        W99886  42.309   2.727   2.449
27627W        W99887  36.218  31.424   0.731
27628W        W99888  37.539  41.484   3.863
27629W        W99889   5.452  34.146  12.029
27630W        W99890  39.909  31.940  14.432
27631W        W99891  20.174  14.152  13.446
27632W        W99892   8.788  14.675   2.241
27633W        W99893  28.471  18.193   2.196
27634W        W99894  15.146  23.974  14.227
27635W        W99895  32.613  23.295  12.670
27636W        W99896  13.265  38.788   4.196
27637W        W99897  44.006  32.085   3.437
27638W        W99898   4.284  43.301  13.728
27639W        W99899   3.292   3.843  11.564
27640W        W99900   6.139   7.739  12.497
27641W        W99901   4.980  11.011   0.820
27642W        W99902  39.944  12.889  12.040
27643W        W99903  43.478   2.087  12.877
27644W        W99904  14.410  18.703  14.380
27645W        W99905  43.352   3.798  10.966
27646W        W99906  21.231   2.026  10.697
27647W        W99907  20.417   9.567  14.472
27648W        W99908  30.997   5.599   0.347
27649W        W99909  26.414  31.117  12.908
27650W        W99910   6.976  33.218  13.847
27651W        W99911  35.387   6.729  10.965
27652W        W99912  13.386  18.213   4.291
27653W        W99913   9.673  32.333  12.097
27654W        W99914  38.998  24.035  11.604
27655W        W99915  23.064  33.612   4.772
27656W        W99916  44.010  11.017   4.446
27657W        W99917  20.563   0.709  14.553
27658W        W99918  25.915  20.692   3.168
27659W        W99919   6.356   8.637   3.695
27660W        W99920  36.942   6.335  13.854
27661W        W99921  16.170  21.753   3.142
27662W        W99922  16.362  36.084  13.216
27663W        W99923  32.980   9.267  11.608
27664W        W99924  11.989  36.856   1.787
27665W        W99925  17.668  12.401  11.077
27666W        W99926  42.883  25.503   2.787
27667W        W99927  13.878  11.189   1.393
27668W        W99928  29.178  39.356  13.178
27669W        W99929  42.149   0.404  12.524
27670W        W99930  39.114  21.216  12.478
27671W        W99931  12.774  22.978   4.671
27672W        W99932  24.996   3.907  13.536
27673W        W99933  11.328  13.259  14.890
27674W        W99934   3.377  34.816   3.255
27675W        W99935   4.111   8.193  14.112
27676W        W99936   9.311  25.072  11.958
27677W        W99937  10.052  29.591  12.298
27678W        W99938  10.906   0.444   1.425
27679W        W99939   0.304  40.634   1.626
27680W        W99940   2.232   4.825   3.360
27681W        W99941  29.310  38.027   4.015
27682W        W99942  41.323   9.097   3.689
27683W        W99943  15.639  20.304   4.617
27684W        W99944  10.307  37.494  10.496
27685W        W99945  24.200  38.952  12.523
27686W        W99946  28.166  29.613   2.768
27687W        W99947  36.364  25.840   1.417
27688W        W99948  20.105  19.183   4.056
27689W        W99949  19.311   4.439  12.378
27690W        W99950   9.751  33.340   2.298
27691W        W99951   8.270  12.163   1.780
27692W        W99952  37.135  18.048   1.335
27693W        W99953  33.654  35.747  11.632
27694W        W99954  30.939  18.989   1.524
27695W        W99955  22.410   1.342   0.307
27696W        W99956  22.114  10.380  14.003
27697W        W99957  36.198  29.651   2.342
27698W        W99958  12.087  20.754   4.156
27699W        W99959   1.619  15.920  14.905
27700W        W99960  10.669  26.774  13.968
27701W        W99961  34.554  38.489   4.332
27702W        W99962   3.883  39.388  11.421
27703W        W99963  30.354   9.291   3.845
27704W        W99964  24.086  29.437  13.290
27705W        W99965  38.466  26.816   0.899
27706W        W99966  19.604  21.656   2.524
27707W        W99967  25.686  37.441   3.732
27708W        W99968  31.621  11.163   0.715
27709W        W99969  33.613  20.729  14.159
27710W        W99970   8.674  36.133   0.082
27711W        W99971  13.231  34.910  14.706
27712W        W99972   5.475   6.406   4.451
27713W        W99973   5.382   2.675  12.884
27714W        W99974  22.178  17.261  10.540
27715W        W99975   8.275  23.570   0.250
27716W        W99976  16.569  39.320   0.517
27717W        W99977   1.451  22.527   3.112
27718W        W99978   8.757  33.428   4.425
27719W        W99979  12.759  43.332  14.857
27720W        W99980   1.317  15.077   4.257
27721W        W99981  16.775  21.445  12.053
27722W        W99982  38.602  11.789   2.348
27723W        W99983  41.115  15.720  13.889
27724W        W99984  39.654  15.643  14.832
27725W        W99985  12.426  19.044   3.874
27726W        W99986   7.125  21.158  10.566
27727W        W99987  34.972  10.135   0.373
27728W        W99988   5.364   2.282  14.008
27729W        W99989  26.062  24.209   4.575
27730W        W99990  26.115   3.717  13.335
27731W        W99991  26.412  39.898  11.565
27732W        W99992  17.816  28.394  10.766
27733W        W99993  42.096  36.561   2.735
27734W        W99994  34.453  27.367   0.191
27735W        W99995  37.388  44.085  13.358
27736W        W99996  37.035  13.701  13.355
27737W        W99997  28.795  14.482  12.525
27738W        W99998  12.662  15.733   3.633
27739W        W99999  41.401  25.929  11.171
27740W        W    0  13.431   8.312  13.521
27741W        W    1   6.912  27.878   3.648
27742W        W    2  41.501  12.613   0.073
27743W        W    3  12.782  21.567   2.593
27744W        W    4  27.268  36.989   1.930
27745W        W    5  27.068  30.906  13.943
27746W        W    6  19.687  36.557  14.085
27747W        W    7  19.787   6.722   1.723
27748W        W    8  41.102  30.992   4.463
27749W        W    9   0.042  39.407   2.693
27750W        W   10  26.693   2.860  14.325
27751W        W   11   3.271   9.071   2.232
27752W        W   12  22.741  29.034   1.900
27753W        W   13  11.750   2.540   2.306
27754W        W   14  27.516  25.757  13.721
27755W        W   15  44.770  16.748  12.971
27756W        W   16   4.499   4.411   3.178
27757W        W   17  44.236  31.096   4.507
27758W        W   18  11.209  40.839  13.906
27759W        W   19   2.765  40.340   1.853
27760W        W   20  27.970  37.279  13.959
27761W        W   21   8.183  37.109   3.727
27762W        W   22  31.630  42.710   3.735
27763W        W   23   5.650  33.968   0.936
27764W        W   24  33.584   0.897  10.507
27765W        W   25   2.783  10.230  11.643
27766W        W   26  33.636  40.923  11.910
27767W        W   27  29.531   6.830   1.342
27768W        W   28  35.381   9.901   2.211
27769W        W   29  27.965   2.509  12.836
27770W        W   30  21.656  16.126  10.907
27771W        W   31  28.678  33.397   2.342
27772W        W   32  25.255  18.459  14.957
27773W        W   33  25.740  25.699  11.110
27774W        W   34  29.908  35.905   4.155
27775W        W   35  13.522  17.828   4.618
27776W        W   36   1.753   3.011  14.403
27777W        W   37  19.236  25.992  12.126
27778W        W   38  39.653   2.477   4.238
27779W        W   39   6.384  16.355   1.627
27780W        W   40  41.595  32.334  13.539
27781W        W   41   0.678  39.142   2.700
27782W        W   42  43.407  17.108   4.858
27783W        W   43  39.881  17.277   1.875
27784W        W   44  12.856  34.436   3.818
27785W        W   45  36.526  21.803  13.106
27786W        W   46  38.973  27.089   2.842
27787W        W   47   6.371  29.027   9.823
27788W        W   48  37.526  36.062   3.774
27789W        W   49  40.318  18.871  14.015
27790W        W   50  35.956  37.453  12.970
27791W        W   51  42.015  30.846   1.841
27792W        W   52   0.059   3.916  13.041
27793W        W   53  36.047  38.936  12.963
27794W        W   54  36.939  24.336   4.524
27795W        W   55  30.348  20.614  13.376
27796W        W   56  35.144  10.215   3.707
27797W        W   57  10.420  11.308   4.510
27798W        W   58  37.965  33.436  10.264
27799W        W   59  14.589  12.555   3.769
27800W        W   60  35.893   4.653   4.560
27801W        W   61  30.553  31.387   3.579
27802W        W   62   8.478  44.898   3.130
27803W        W   63  35.204   5.651  10.908
27804W        W   64  26.472  24.563   1.786
27805W        W   65  18.660  35.906   4.437
27806W        W   66   3.919   0.815   1.444
27807W        W   67  33.437  30.433   5.245
27808W        W   68  34.377   0.284  12.070
27809W        W   69  11.704   6.422  14.783
27810W        W   70  34.857  28.505  12.530
27811W        W   71   3.913  42.824   5.281
27812W        W   72  38.333  13.639  14.036
27813W        W   73  24.986  18.811   2.689
27814W        W   74  37.251  37.929  11.146
27815W        W   75  30.914  36.438   0.537
27816W        W   76  38.414   4.199  12.342
27817W        W   77   2.334  38.803  11.593
27818W        W   78  37.033   5.172   2.721
27819W        W   79   7.791  39.279  13.029
27820W        W   80  36.858   4.129  10.637
27821W        W   81   4.293  17.696   4.591
27822W        W   82  12.061  29.119   4.956
27823W        W   83   8.416  24.565  12.529
27824W        W   84  19.193  34.080   2.772
27825W        W   85  33.166   6.782  11.901
27826W        W   86  19.071  29.727  11.616
27827W        W   87   1.435  11.028   4.719
27828W        W   88  22.514  10.659   2.069
27829W        W   89  35.060  22.436  11.381
27830W        W   90  14.668  26.668   2.341
27831W        W   91  29.153  15.661   0.328
27832W        W   92  34.610  16.246  12.668
27833W        W   93  44.337  13.497   4.702
27834W        W   94  21.665  34.918   4.638
27835W        W   95  20.624  40.456  13.699
27836W        W   96  29.639  41.486  12.838
27837W        W   97  41.464  20.035   2.968
27838W        W   98  20.533  43.861   4.646
27839W        W   99   2.053  24.657  13.757
27840W        W  100  35.483  21.649  11.626
27841W        W  101   1.337  29.225   2.983
27842W        W  102  10.165  23.733   0.319
27843W        W  103  36.095  11.819   0.237
27844W        W  104  31.749  38.300  12.109
27845W        W  105  37.791  23.650  12.775
27846W        W  106  16.243  41.421  13.965
27847W        W  107  27.966  17.214   0.929
27848W        W  108   9.349  36.810   4.174
27849W        W  109  24.666  30.904  10.516
27850W        W  110  19.009   5.338  13.850
27851W        W  111  20.997  26.727  13.832
27852W        W  112  44.736  38.893   3.792
27853W        W  113   2.777   5.727   3.138
27854W        W  114  30.653  17.777  12.003
27855W        W  115  41.957  30.867   3.834
27856W        W  116  30.111   9.912   0.376
27857W        W  117  35.505  13.404   3.181
27858W        W  118  25.769  35.070  11.047
27859W        W  119  17.493  36.187   5.088
27860W        W  120  44.971  34.219   1.738
27861W        W  121  41.736  15.575   3.850
27862W        W  122  28.067  41.021  10.705
27863W        W  123  10.933  34.484  10.559
27864W        W  124  20.286   9.893   2.381
27865W        W  125  32.179  33.517  11.395
27866W        W  126  28.007   8.399   2.727
27867W        W  127  37.729  11.767   2.768
27868W        W  128  20.173  38.538   2.179
27869W        W  129  28.362  16.478   2.182
27870W        W  130   1.610   5.301  11.972
27871W        W  131  22.902  28.953  14.520
27872W        W  132  22.180   5.347  10.951
27873W        W  133  11.293  23.186  13.140
27874W        W  134  39.315  38.323  14.353
27875W        W  135  33.589  36.947  12.874
27876W        W  136   7.825  44.342   4.576
27877W        W  137  30.022  38.650  13.498
27878W        W  138  30.007  30.905  11.046
27879W        W  139   0.014  26.626  12.793
27880W        W  140   0.302  25.688   0.345
27881W        W  141  31.651  33.924  10.774
27882W        W  142   3.317  20.738   4.527
27883W        W  143   2.632   7.486  12.007
27884W        W  144  31.678  16.337  12.950
27885W        W  145  43.724  33.577   3.714
27886W        W  146   7.084  33.436   0.068
27887W        W  147  20.152  16.006   2.709
27888W        W  148  43.879  28.311   3.071
27889W        W  149   4.793  19.888  14.752
27890W        W  150  12.193  41.031   1.271
27891W        W  151  33.579  23.604  11.116
27892W        W  152  24.030  39.983  12.474
27893W        W  153  40.498  33.700   3.130
27894W        W  154  43.588   6.942  14.528
27895W        W  155  15.169  34.419   4.435
27896W        W  156  14.063  13.580   2.924
27897W        W  157   6.253  35.592  12.118
27898W        W  158  40.223  17.550   0.075
27899W        W  159  33.893  20.017   4.575
27900W        W  160  44.975  25.436   3.971
27901W        W  161   7.760   2.056   1.293
27902W        W  162  12.975   3.764   0.428
27903W        W  163   7.906  37.480   2.108
27904W        W  164  29.607  11.886  13.885
27905W        W  165  33.299  41.893   4.640
27906W        W  166   5.739  34.847  12.433
27907W        W  167  36.841  32.994  10.695
27908W        W  168   3.375  21.207   2.326
27909W        W  169  20.315  17.080  13.049
27910W        W  170  22.136  30.136  11.614
27911W        W  171  19.732  39.779   4.682
27912W        W  172   1.704  17.645  11.212
27913W        W  173  11.226  37.270  10.151
27914W        W  174   9.830  36.454  14.533
27915W        W  175   9.111  21.364   3.238
27916W        W  176  41.399  39.452   2.398
27917W        W  177  18.352  21.617  11.653
27918W        W  178  32.923   0.008   2.193
27919W        W  179   5.991  37.985  12.103
27920W        W  180  32.205  33.152   3.438
27921W        W  181  38.876  18.075   3.207
27922W        W  182  31.115  35.661   1.796
27923W        W  183  16.084  33.708  14.431
27924W        W  184   8.897  14.628  12.887
27925W        W  185  12.384  36.488  11.124
27926W        W  186  26.202  14.252   2.278
27927W        W  187  35.942   1.627  13.761
27928W        W  188   4.720  40.636   4.166
27929W        W  189   4.131   6.057   3.450
27930W        W  190  20.558   5.767   4.750
27931W        W  191  21.211   3.225   3.291
27932W        W  192  24.670  12.800  13.592
27933W        W  193  27.482  43.724   1.981
27934W        W  194   3.291   4.237  13.390
27935W        W  195  44.885  42.257   4.670
27936W        W  196  35.553   9.690   1.770
27937W        W  197  39.538  38.623   0.044
27938W        W  198  19.133  30.996   3.637
27939W        W  199   3.677   8.518   0.338
27940W        W  200  20.435   9.179   1.780
27941W        W  201  35.308   7.188  10.744
27942W        W  202  33.527  16.791  10.027
27943W        W  203  39.737   3.749  14.817
27944W        W  204   7.828  12.606   2.292
27945W        W  205  10.402   6.172   4.552
27946W        W  206  34.834  11.938  14.269
27947W        W  207  11.374  44.332  12.535
27948W        W  208   3.202   5.889   4.856
27949W        W  209  23.384  43.096  13.157
27950W        W  210  15.619  15.405  11.436
27951W        W  211   9.532  31.445   2.498
27952W        W  212  32.535   2.401   1.544
27953W        W  213  10.278   6.202  10.166
27954W        W  214  19.779  42.086   0.426
27955W        W  215  27.149  16.245   4.150
27956W        W  216  39.850  29.542  14.410
27957W        W  217   6.653  25.855  11.094
27958W        W  218  14.817  27.486  12.379
27959W        W  219  12.371  30.677   0.214
27960W        W  220  41.519  25.285   4.052
27961W        W  221   1.712  11.578   4.263
27962W        W  222   8.198   3.916   4.201
27963W        W  223  34.011   6.451  11.166
27964W        W  224   2.702  25.501  11.918
27965W        W  225   2.311   8.976   4.483
27966W        W  226   6.630  34.937  12.035
27967W        W  227   3.939  16.603   0.812
27968W        W  228  41.529  21.498   2.740
27969W        W  229  39.281  30.099   1.678
27970W        W  230  36.468  20.140  13.986
27971W        W  231  16.694   4.805  12.656
27972W        W  232  11.377  17.279  12.574
27973W        W  233   2.035  42.817   2.362
27974W        W  234  16.524  22.562   1.725
27975W        W  235  28.639  36.440   4.065
27976W        W  236  42.538  21.061  11.132
27977W        W  237  30.514  15.517  12.582
27978W        W  238  14.568  23.461   3.655
27979W        W  239  40.243   0.293  13.498
27980W        W  240   4.230   8.349   1.864
27981W        W  241  39.875  16.737  12.614
27982W        W  242   1.346  42.527   2.437
27983W        W  243  23.536   6.350  12.092
27984W        W  244  41.523  15.235   1.261
27985W        W  245  25.089  28.569  10.986
27986W        W  246  11.454  13.402  10.451
27987W        W  247  42.817  27.001   0.289
27988W        W  248  15.803  28.401  11.486
27989W        W  249  35.056  27.413  11.422
27990W        W  250  29.051   4.157  11.093
27991W        W  251  44.055  36.623  13.855
27992W        W  252  32.544  36.170  13.015
27993W        W  253  41.288   1.244  12.916
27994W        W  254  44.707   0.496  11.116
27995W        W  255  23.850   5.355  12.177
27996W        W  256  42.936  32.554  14.537
27997W        W  257  25.684  27.592   4.785
27998W        W  258  30.220  37.949   2.688
27999W        W  259  36.460  24.552   4.587
28000W        W  260  43.666   8.973  10.762
28001W        W  261  31.644  22.893   4.640
28002W        W  262  26.821  44.815   3.792
28003W        W  263   6.420  44.984   3.835
28004W        W  264   8.183  14.495  12.343
28005W        W  265  18.208  40.610  14.201
28006W        W  266  42.994  43.864  13.258
28007W        W  267  43.395   7.450  11.135
28008W        W  268  19.714  34.521  11.168
28009W        W  269  43.582  22.856  12.537
28010W        W  270  33.184   6.819   1.110
28011W        W  271   5.847  28.576   5.495
28012W        W  272  15.647  31.130   2.372
28013W        W  273  31.030  13.895   1.892
28014W        W  274   4.915  34.428   4.663
28015W        W  275   0.910  31.453  10.609
28016W        W  276  39.604  26.642  13.333
28017W        W  277  31.681  25.999  13.994
28018W        W  278  22.702   8.944  14.490
28019W        W  279  39.947  33.836  11.531
28020W        W  280   0.978  23.050   4.751
28021W        W  281   6.198   2.803   3.419
28022W        W  282   9.208  20.085  11.599
28023W        W  283   9.563  40.459  11.631
28024W        W  284  40.819  42.730   3.299
28025W        W  285   9.291  40.434   2.887
28026W        W  286  19.953  43.011   4.651
28027W        W  287  32.344  12.753   3.065
28028W        W  288  38.010   3.389  12.474
28029W        W  289  10.951   7.346   3.877
28030W        W  290  37.492  22.543   0.970
28031W        W  291  34.617   1.963  14.958
28032W        W  292  25.230  15.747  11.041
28033W        W  293  18.606  15.212   1.599
28034W        W  294   0.363  43.023  13.041
28035W        W  295  19.912  37.698  12.492
28036W        W  296  23.130  38.404   1.859
28037W        W  297   2.217  24.580   3.239
28038W        W  298  38.958  32.493  14.898
28039W        W  299  34.984  21.297   4.182
28040W        W  300  44.922  25.679  13.304
28041W        W  301  38.558  11.777  11.610
28042W        W  302  21.572   6.265  12.093
28043W        W  303  20.747  44.808  14.289
28044W        W  304  36.201  13.442  11.612
28045W        W  305  40.123  30.033   2.766
28046W        W  306  17.381  34.672  13.873
28047W        W  307  34.016  27.183   4.111
28048W        W  308  17.115  21.760   3.348
28049W        W  309  43.818   8.708   1.907
28050W        W  310  21.413  22.180  10.451
28051W        W  311  12.345   3.399   2.269
28052W        W  312  40.440   6.557  14.741
28053W        W  313  42.318  15.623   2.343
28054W        W  314   8.396   2.421  12.097
28055W        W  315  19.523   4.883   1.245
28056W        W  316  44.948  13.658   2.816
28057W        W  317  29.581   1.051   2.861
28058W        W  318  40.866   1.339  14.419
28059W        W  319  21.756  32.119  12.873
28060W        W  320  44.035  40.409  10.935
28061W        W  321  12.086   4.905  11.975
28062W        W  322  22.731  38.547   0.064
28063W        W  323  13.147  14.242   3.601
28064W        W  324   7.837  21.094   2.599
28065W        W  325  29.591  22.623   2.850
28066W        W  326  38.051   6.784   9.585
28067W        W  327  33.940  11.537   2.373
28068W        W  328  44.695   4.718  13.558
28069W        W  329  36.336  16.052  13.011
28070W        W  330   7.245  38.090  13.536
28071W        W  331   3.773   8.940  13.920
28072W        W  332  21.245  40.873   1.465
28073W        W  333  33.509  19.178   4.316
28074W        W  334  24.068  38.739  13.927
28075W        W  335  12.587  10.400  10.641
28076W        W  336   0.373   0.402   0.252
28077W        W  337   2.381   1.283  13.740
28078W        W  338  22.752  18.216   5.406
28079W        W  339  36.795   9.695  14.810
28080W        W  340  40.327  26.390   3.641
28081W        W  341  39.408   0.172  14.611
28082W        W  342  33.042  40.582   3.096
28083W        W  343  15.113  26.642   0.701
28084W        W  344  23.967   4.759   0.880
28085W        W  345   9.830   0.420  11.930
28086W        W  346  15.548   1.325   4.044
28087W        W  347  18.235   4.272   0.269
28088W        W  348   2.728  38.258   4.622
28089W        W  349  19.673  17.842  13.803
28090W        W  350  23.029  27.491   2.860
28091W        W  351  31.876  22.021   0.884
28092W        W  352  30.626   0.938   1.372
28093W        W  353  24.577   9.686   4.688
28094W        W  354  29.885   4.224   0.815
28095W        W  355  34.073   4.504  11.449
28096W        W  356  11.426  10.776  14.447
28097W        W  357  12.961  42.254   1.942
28098W        W  358   2.817  37.465  11.524
28099W        W  359  37.933  12.395  11.995
28100W        W  360   4.743   3.435  12.941
28101W        W  361  37.512  15.225  11.588
28102W        W  362  34.298  36.434  13.488
28103W        W  363  34.832  34.340   1.761
28104W        W  364   1.357  22.200   4.541
28105W        W  365  28.631  39.418  11.688
28106W        W  366   0.975  25.260  11.170
28107W        W  367  40.556  43.009   0.283
28108W        W  368   1.275  40.811   3.081
28109W        W  369  22.106  38.721   4.195
28110W        W  370  25.907  38.157   1.951
28111W        W  371  16.627  40.107   0.949
28112W        W  372  15.516   6.761   3.656
28113W        W  373  29.775   0.917   1.078
28114W        W  374  34.953  38.668  11.095
28115W        W  375   0.484  31.480   0.829
28116W        W  376  17.169  27.360   3.769
28117W        W  377  20.846   8.561  12.412
28118W        W  378   6.892  10.213   0.374
28119W        W  379  38.289  31.946   3.664
28120W        W  380  32.611  12.325   2.158
28121W        W  381  37.961  10.965   5.514
28122W        W  382  10.849  43.254   2.245
28123W        W  383  20.727  25.202   0.968
28124W        W  384  41.036  11.634   1.052
28125W        W  385  17.324  24.187  12.554
28126W        W  386  15.166  11.099   4.444
28127W        W  387  19.219   2.320   3.787
28128W        W  388  11.926   2.298   0.547
28129W        W  389   7.845  27.282  10.967
28130W        W  390  15.119  15.482   4.577
28131W        W  391  23.535   9.162  14.341
28132W        W  392   8.144   1.783  11.709
28133W        W  393  40.985  37.068  14.221
28134W        W  394  40.955  28.398  11.955
28135W        W  395  44.785   2.279  12.700
28136W        W  396  42.384  11.778   1.464
28137W        W  397  44.265  39.692   1.797
28138W        W  398  22.848  43.345   3.340
28139W        W  399  32.980  20.964   3.657
28140W        W  400  40.709   4.948   4.144
28141W        W  401  14.795  35.602  13.617
28142W        W  402  28.583   7.770  12.874
28143W        W  403  35.026  29.035  13.924
28144W        W  404  30.855  41.330   0.731
28145W        W  405  32.432  43.274  13.427
28146W        W  406   9.261  40.828  12.938
28147W        W  407  43.982  32.459   1.013
28148W        W  408   9.150   1.752  14.588
28149W        W  409  15.800  29.033   1.474
28150W        W  410  33.426  38.523   4.651
28151W        W  411  27.524  15.648   0.367
28152W        W  412  27.681   2.167   1.296
28153W        W  413  32.669  29.067   0.419
28154W        W  414  18.667  24.090  11.516
28155W        W  415  40.354   0.033  11.157
28156W        W  416   4.247  29.702  14.093
28157W        W  417  43.015  29.768  11.487
28158W        W  418   3.170  19.272   3.615
28159W        W  419  12.186  15.159  11.556
28160W        W  420  37.823  10.715  12.273
28161W        W  421  18.045  21.214  13.902
28162W        W  422   2.786   9.269   3.647
28163W        W  423  34.097  13.805  13.224
28164W        W  424  37.324   5.332  12.842
28165W        W  425  18.758  32.257  12.296
28166W        W  426   1.488  41.516   4.931
28167W        W  427  27.695   7.890   3.368
28168W        W  428  10.125  44.552  12.429
28169W        W  429  43.038   3.152   0.715
28170W        W  430  36.080  20.162   4.641
28171W        W  431   9.561   8.401  11.131
28172W        W  432   5.529  11.351  14.393
28173W        W  433  24.014   3.709  11.604
28174W        W  434   7.667   0.895   3.646
28175W        W  435  40.263   8.066   4.628
28176W        W  436  41.862  11.457   0.124
28177W        W  437   1.882  11.787  12.815
28178W        W  438   0.493   1.613  12.881
28179W        W  439  34.538  32.056   2.270
28180W        W  440  26.680  38.636  10.270
28181W        W  441  34.330  21.535   2.558
28182W        W  442  44.882  22.649   3.279
28183W        W  443  44.711   0.324  13.934
28184W        W  444   1.041   7.696   0.793
28185W        W  445  39.536  10.444   1.338
28186W        W  446  21.103  10.311  13.135
28187W        W  447  20.831  19.206   4.304
28188W        W  448  36.283  16.695   0.213
28189W        W  449   2.919  37.823   4.351
28190W        W  450   5.176  10.375   4.881
28191W        W  451  28.187  39.823  12.392
28192W        W  452  34.660  33.606   2.341
28193W        W  453  41.507  16.850   3.906
28194W        W  454  13.409  31.728   1.778
28195W        W  455  37.309  37.048   2.241
28196W        W  456  10.380  42.507  12.388
28197W        W  457  12.627  15.093  10.742
28198W        W  458  43.446   7.103   2.723
28199W        W  459   3.319  12.423  13.401
28200W        W  460  13.191  42.554   1.537
28201W        W  461  18.309  13.099   2.006
28202W        W  462  29.851  42.509   4.220
28203W        W  463  28.372   6.797  14.421
28204W        W  464   7.271   3.608  14.004
28205W        W  465  38.888  40.282   2.943
28206W        W  466  23.107  27.468  14.184
28207W        W  467   6.410  42.043  10.741
28208W        W  468   9.212   6.968   0.343
28209W        W  469  38.434  24.495   3.679
28210W        W  470   8.442  22.793   3.730
28211W        W  471  21.444  21.250  10.657
28212W        W  472  44.054  25.359   4.232
28213W        W  473  37.845  20.410  14.050
28214W        W  474  18.708   3.746  14.816
28215W        W  475  41.759  34.688  13.327
28216W        W  476  14.948  39.806  14.897
28217W        W  477  15.752  22.954   1.699
28218W        W  478   0.166   2.693  11.718
28219W        W  479  38.966  19.555  14.600
28220W        W  480  27.623  29.839   4.727
28221W        W  481  29.326  33.682   1.828
28222W        W  482  10.769   2.819   1.838
28223W        W  483  27.708   4.633  11.985
28224W        W  484   1.413  35.928   0.869
28225W        W  485   4.500  10.362  11.473
28226W        W  486  11.682  21.724  11.016
28227W        W  487  33.377  31.494   3.572
28228W        W  488  23.526  12.196  13.135
28229W        W  489  15.324  38.776   1.278
28230W        W  490  42.059  35.483   0.905
28231W        W  491  14.563  27.662  14.051
28232W        W  492   5.406  26.829   3.149
28233W        W  493   9.756  22.588  13.948
28234W        W  494   0.809  35.211   1.234
28235W        W  495   5.875  19.142   4.090
28236W        W  496  32.506   4.861   2.158
28237W        W  497  12.069   7.363   0.637
28238W        W  498  23.374  10.418  10.797
28239W        W  499  17.351  34.456  13.410
28240W        W  500  10.644  27.520  10.612
28241W        W  501  28.954  42.382   4.237
28242W        W  502   3.432  24.299  10.875
28243W        W  503  18.249   6.160   2.182
28244W        W  504  12.680   1.464  13.977
28245W        W  505   5.771  33.382   2.798
28246W        W  506  39.551  38.355  11.455
28247W        W  507  20.588   7.742  12.906
28248W        W  508  25.717  35.398  11.515
28249W        W  509   4.925   6.898   2.791
28250W        W  510   1.656   6.930   0.258
28251W        W  511  25.987  44.373  14.134
28252W        W  512  22.574  25.882  10.173
28253W        W  513  10.564  31.520   2.208
28254W        W  514  26.953  29.208   0.909
28255W        W  515  19.938  14.528   2.698
28256W        W  516  22.267  29.097  12.461
28257W        W  517  42.988   8.859  13.319
28258W        W  518  43.982   0.131  11.075
28259W        W  519  34.622   8.747  13.107
28260W        W  520  38.050  33.411   2.161
28261W        W  521  28.451   9.788  11.541
28262W        W  522   8.656  17.736   3.274
28263W        W  523  14.114  14.233   5.071
28264W        W  524  28.050   4.000  12.469
28265W        W  525  18.597  22.969   2.344
28266W        W  526  40.229  38.903   1.509
28267W        W  527  44.675  27.597   1.279
28268W        W  528   9.213  32.161   4.643
28269W        W  529   7.502  12.423  11.624
28270W        W  530  20.258  42.927  14.333
28271W        W  531  16.072  34.417   3.285
28272W        W  532  30.212  22.048   4.073
28273W        W  533  12.262  33.695   2.422
28274W        W  534  15.747  33.146  10.431
28275W        W  535   7.452  32.811   1.903
28276W        W  536  19.617   5.275   0.007
28277W        W  537  17.964  17.985  12.399
28278W        W  538  33.578  38.442  10.837
28279W        W  539   4.980  41.869  12.050
28280W        W  540  11.734  39.487  10.628
28281W        W  541  16.741  16.202   4.521
28282W        W  542  17.773  34.287   2.769
28283W        W  543   4.649  20.658   3.865
28284W        W  544  23.559  35.443   4.720
28285W        W  545  23.158  19.073   0.319
28286W        W  546  10.939  19.707   3.355
28287W        W  547  24.775  16.796  14.877
28288W        W  548  44.922  12.029  13.782
28289W        W  549  15.190  24.953   0.968
28290W        W  550   0.520  38.332  14.973
28291W        W  551  40.570  17.340  13.575
28292W        W  552  39.418  29.856  14.365
28293W        W  553  35.436  13.256   0.677
28294W        W  554  24.147  44.699  10.962
28295W        W  555   2.099  21.302  12.887
28296W        W  556   3.880   0.171   0.707
28297W        W  557  12.390  28.046  13.035
28298W        W  558  18.050  26.623  11.663
28299W        W  559  10.606  30.851  11.408
28300W        W  560  40.280  12.392  14.441
28301W        W  561   5.567  29.535  11.778
28302W        W  562   4.972  29.602   2.584
28303W        W  563   4.550   7.146  12.506
28304W        W  564  32.392  28.891  11.353
28305W        W  565  14.512  23.582   4.149
28306W        W  566  10.845   0.740  12.431
28307W        W  567   7.891  34.326   2.803
28308W        W  568  18.797   5.707   3.853
28309W        W  569  18.648  25.135  10.105
28310W        W  570   4.429   0.054  12.129
28311W        W  571  28.680  23.646   1.946
28312W        W  572  41.933  31.856   0.990
28313W        W  573   4.175  27.121  11.082
28314W        W  574  35.577  31.812  13.014
28315W        W  575  17.326   1.823   0.418
28316W        W  576   9.911   1.065   3.718
28317W        W  577  21.530  11.327  11.553
28318W        W  578   6.209   3.461  14.273
28319W        W  579  11.456   7.302   3.964
28320W        W  580   8.195  36.145  13.783
28321W        W  581  14.481   3.821   3.097
28322W        W  582   8.283  10.744  11.249
28323W        W  583   5.423   4.794   4.100
28324W        W  584  30.137  25.176   2.275
28325W        W  585   2.382  42.918   2.766
28326W        W  586  21.552  13.168  13.072
28327W        W  587  11.550   3.018   2.364
28328W        W  588  22.550   5.936  12.139
28329W        W  589  15.116  22.992  14.083
28330W        W  590  36.983  13.527   1.235
28331W        W  591  10.435   3.252   4.302
28332W        W  592  39.645   3.850  10.490
28333W        W  593   9.744  40.743  12.779
28334W        W  594  24.047  33.631   4.607
28335W        W  595   6.458  33.150   1.816
28336W        W  596  13.852  29.245   1.461
28337W        W  597  16.771  41.256  12.140
28338W        W  598  21.724  23.928  10.637
28339W        W  599  38.314  28.051  14.398
28340W        W  600   1.314  28.191   2.772
28341W        W  601  31.357  23.476  10.407
28342W        W  602  23.930  36.861  13.584
28343W        W  603  35.356  25.576   1.301
28344W        W  604  22.507  34.621  10.957
28345W        W  605  31.142  21.624   3.779
28346W        W  606  21.018  15.838  12.110
28347W        W  607   6.184  40.913   1.721
28348W        W  608  32.964  44.256   3.616
28349W        W  609   6.232  24.539   2.363
28350W        W  610  15.258   9.754   2.274
28351W        W  611  38.412   0.536   4.043
28352W        W  612  30.044  20.140   0.900
28353W        W  613  23.740  22.648   0.927
28354W        W  614  11.077  37.016   1.266
28355W        W  615  33.209   6.714   1.952
28356W        W  616  36.118  25.201   1.248
28357W        W  617  33.039  14.159   3.406
28358W        W  618  36.359  25.911  11.605
28359W        W  619   4.983  12.549   1.929
28360W        W  620  28.416  15.691  14.343
28361W        W  621  12.090  42.043   3.307
28362W        W  622  24.242  22.702   1.028
28363W        W  623  10.301  34.842   4.433
28364W        W  624  39.137   6.874  10.639
28365W        W  625  16.072  26.978  12.540
28366W        W  626   1.921  44.533  14.547
28367W        W  627  28.518  34.100   0.756
28368W        W  628  24.654  13.331  13.561
28369W        W  629  18.797  27.999   3.394
28370W        W  630  31.714  12.102  11.428
28371W        W  631  18.567   4.873   4.139
28372W        W  632  16.295   1.853  11.660
28373W        W  633  21.567   5.018  10.595
28374W        W  634  13.522  15.250  11.241
28375W        W  635  14.084  33.547   2.415
28376W        W  636  23.601  15.858  13.035
28377W        W  637  43.605  35.653  13.849
28378W        W  638   2.056   2.962   4.127
28379W        W  639  20.521  21.613   4.722
28380W        W  640  29.385  27.000   1.107
28381W        W  641  10.112  15.215  10.721
28382W        W  642  12.074  40.921  10.706
28383W        W  643   6.235   0.818  12.118
28384W        W  644  17.701   9.625  13.457
28385W        W  645  16.665  12.105   3.636
28386W        W  646  42.007  16.174  14.012
28387W        W  647  42.944   9.780   1.046
28388W        W  648   0.891  37.476   4.599
28389W        W  649  14.001  17.059  11.142
28390W        W  650  20.825  22.526   5.121
28391W        W  651  20.109   2.507  14.866
28392W        W  652  38.290  42.508  12.517
28393W        W  653  35.751   4.628  14.292
28394W        W  654  13.280  43.897   2.736
28395W        W  655   4.872  22.392  14.366
28396W        W  656  40.977  15.868   0.922
28397W        W  657   5.839  31.603   0.376
28398W        W  658   9.230  43.033  14.809
28399W        W  659  24.745   3.798  13.976
28400W        W  660   4.823  36.102   3.196
28401W        W  661   2.363  28.664   2.384
28402W        W  662  17.136   6.388   2.936
28403W        W  663   2.274  13.335   4.296
28404W        W  664  40.438   8.772  10.776
28405W        W  665   0.779  15.331  10.978
28406W        W  666  33.527  25.005   4.519
28407W        W  667  40.432  35.875  14.748
28408W        W  668  26.502  43.068  10.984
28409W        W  669   1.495   2.446  12.767
28410W        W  670  34.154  17.769  11.622
28411W        W  671   1.186  37.914   4.547
28412W        W  672   5.901  20.940  12.163
28413W        W  673  23.364   3.149   4.199
28414W        W  674  13.622  33.380   0.239
28415W        W  675  38.344  34.220   2.232
28416W        W  676  11.929  37.643   3.337
28417W        W  677  43.430  16.497   2.134
28418W        W  678   5.162  37.714   1.674
28419W        W  679   0.966  31.847  14.627
28420W        W  680  24.276  17.607   0.230
28421W        W  681  22.117   6.206   1.426
28422W        W  682  26.052  29.656   2.372
28423W        W  683   9.861  30.708   4.068
28424W        W  684  44.343   0.802   2.480
28425W        W  685  28.549  25.270  11.568
28426W        W  686  36.565  39.109  13.997
28427W        W  687  35.069   7.682  12.386
28428W        W  688  14.856  27.890   3.595
28429W        W  689  26.902  27.566   3.614
28430W        W  690  37.696  32.078   4.174
28431W        W  691  12.876  37.948   0.338
28432W        W  692  19.693  27.548   4.750
28433W        W  693   3.051  25.477   2.887
28434W        W  694  14.343   4.420  11.217
28435W        W  695  44.579  22.000  10.795
28436W        W  696   6.176   9.883   3.241
28437W        W  697  41.953  39.780  12.554
28438W        W  698  24.664  16.188  10.907
28439W        W  699  14.736  34.002  12.973
28440W        W  700   2.405   7.855   1.687
28441W        W  701   1.977  10.122   3.184
28442W        W  702  22.985  10.227   3.112
28443W        W  703  24.069  39.314   4.696
28444W        W  704  39.757  12.319   0.367
28445W        W  705  38.014  33.727   4.189
28446W        W  706  39.794   1.481   2.581
28447W        W  707  16.942  44.470   5.149
28448W        W  708  25.289   5.693  14.924
28449W        W  709   9.398  28.112   2.392
28450W        W  710  22.747  14.360  11.100
28451W        W  711  41.005  34.389   2.587
28452W        W  712  38.634  17.568  13.448
28453W        W  713   6.045  29.528  13.085
28454W        W  714  15.025  36.238  14.315
28455W        W  715  12.237  33.584  12.189
28456W        W  716   7.328  17.738  13.413
28457W        W  717  28.197   6.711  10.722
28458W        W  718  31.405  37.577  12.973
28459W        W  719  42.859  34.439  14.117
28460W        W  720  41.402  38.827   4.089
28461W        W  721  30.822   4.956  13.300
28462W        W  722  18.109   8.695   9.750
28463W        W  723  30.661  35.120   2.926
28464W        W  724  33.984  24.795   4.712
28465W        W  725   4.515  29.114  10.503
28466W        W  726  13.098  15.067  14.960
28467W        W  727  37.099   9.406  11.526
28468W        W  728  38.885  30.069   2.369
28469W        W  729  26.648  18.527  13.332
28470W        W  730  24.591   3.075   0.723
28471W        W  731  29.104   7.080  10.526
28472W        W  732  17.090  11.305   2.464
28473W        W  733  37.998  18.128  12.801
28474W        W  734   7.741  13.373  14.062
28475W        W  735  35.125  36.627  14.850
28476W        W  736   7.863  26.140   0.494
28477W        W  737  39.153   3.405   5.106
28478W        W  738  26.090  17.421  12.529
28479W        W  739  30.977   0.259   1.511
28480W        W  740  37.793  19.675  11.022
28481W        W  741  40.382   1.435  13.482
28482W        W  742   0.015  25.618   3.465
28483W        W  743  43.329  10.292   0.515
28484W        W  744  44.865   2.510   0.360
28485W        W  745  40.900  19.053  10.549
28486W        W  746  39.513  37.538  10.819
28487W        W  747  18.219  12.331   0.905
28488W        W  748  14.204  16.000   4.845
28489W        W  749  20.013  13.487  12.118
28490W        W  750  24.768  27.338   3.893
28491W        W  751  26.107  17.799  14.580
28492W        W  752  36.758  25.989   0.398
28493W        W  753  27.960  15.558  11.998
28494W        W  754  16.805  30.583  11.560
28495W        W  755  10.590  35.520   2.400
28496W        W  756  22.479  32.039  13.850
28497W        W  757  17.925  10.840   2.671
28498W        W  758  16.312   5.852   1.293
28499W        W  759  19.724   8.432   0.932
28500W        W  760   9.376   0.365  12.190
28501W        W  761   4.323   3.092   0.758
28502W        W  762  11.341  12.472  14.395
28503W        W  763  44.299  27.978   4.497
28504W        W  764   6.419  26.669   0.845
28505W        W  765   6.246  35.571   3.986
28506W        W  766  17.553  20.192   2.801
28507W        W  767   1.303   5.166  13.398
28508W        W  768  21.696  21.004  11.042
28509W        W  769  13.388  34.831   4.592
28510W        W  770  11.616  38.079  12.659
28511W        W  771  44.206   1.205   4.749
28512W        W  772   6.829  19.727  12.483
28513W        W  773  16.605  10.908   0.486
28514W        W  774  26.674  14.218   4.507
28515W        W  775  33.329  20.913   1.693
28516W        W  776   2.186  23.545  10.636
28517W        W  777  32.460  37.607  14.884
28518W        W  778  37.303  37.622   0.333
28519W        W  779  18.362  11.819   0.789
28520W        W  780   4.207  31.590   2.231
28521W        W  781  17.551  24.150  14.918
28522W        W  782   0.412   8.883  14.885
28523W        W  783  32.472  16.172   1.853
28524W        W  784  34.145  24.778   3.271
28525W        W  785  28.600   2.854  14.809
28526W        W  786   8.697  11.644   3.200
28527W        W  787  15.417  18.671  14.299
28528W        W  788  35.400  39.472   3.358
28529W        W  789   6.863  38.990  13.871
28530W        W  790   6.863  10.289  12.104
28531W        W  791  34.877  41.886   1.922
28532W        W  792   7.747  25.252  12.150
28533W        W  793  37.137  30.916  13.411
28534W        W  794   6.318  13.400  11.029
28535W        W  795  44.717  12.419   1.615
28536W        W  796  35.358  41.569  13.552
28537W        W  797  42.021  44.361   0.683
28538W        W  798  36.896  20.809   0.472
28539W        W  799  12.861  22.019  10.490
28540W        W  800  16.582  35.158   1.802
28541W        W  801  30.647  11.260  11.741
28542W        W  802  23.894   1.026  14.451
28543W        W  803  11.108  19.382  11.064
28544W        W  804  22.897   6.812  10.165
28545W        W  805   6.735  28.012  14.512
28546W        W  806  22.205  17.252   3.007
28547W        W  807  44.097   7.813  11.573
28548W        W  808   4.428  19.696   0.713
28549W        W  809  42.005  36.910   3.635
28550W        W  810   8.854  38.581   2.855
28551W        W  811   3.728  17.596   3.419
28552W        W  812  16.080  38.529   4.878
28553W        W  813  28.340  29.078  13.596
28554W        W  814  40.856  38.058   2.158
28555W        W  815   1.771  35.659  13.028
28556W        W  816  32.347  13.734   2.392
28557W        W  817  43.759  38.455  14.008
28558W        W  818  19.707   8.775  10.342
28559W        W  819  16.606   5.432   1.314
28560W        W  820  43.882  24.402   0.378
28561W        W  821  38.624  33.844   2.938
28562W        W  822   2.874   0.622  13.393
28563W        W  823  35.659  38.805  14.691
28564W        W  824  36.425  20.556  11.419
28565W        W  825  24.621  18.815  10.772
28566W        W  826  29.493  40.951  14.792
28567W        W  827  19.527  44.692  12.737
28568W        W  828  32.589  13.788  12.757
28569W        W  829  15.151  31.846  11.452
28570W        W  830  25.301   1.035   3.746
28571W        W  831  22.021   8.773   2.198
28572W        W  832   2.534  21.302   5.116
28573W        W  833  24.089   9.392   2.555
28574W        W  834  28.134  14.053   0.212
28575W        W  835  23.066  22.191  12.421
28576W        W  836  15.886   1.458  13.895
28577W        W  837   2.629  35.056   3.736
28578W        W  838   6.446  38.002  11.894
28579W        W  839  13.605   6.413   0.933
28580W        W  840  32.087   1.284   0.183
28581W        W  841  40.318  43.452  14.737
28582W        W  842  28.089  24.644  13.200
28583W        W  843  28.309   1.014   0.620
28584W        W  844  38.835   3.406   4.677
28585W        W  845  31.355  26.906  13.111
28586W        W  846  38.684  19.439   0.149
28587W        W  847  35.965   0.817   5.175
28588W        W  848  28.555  31.543   1.888
28589W        W  849   8.278  23.977  11.662
28590W        W  850  41.954   2.274  12.876
28591W        W  851   4.954  37.948  12.115
28592W        W  852  11.077  25.045   3.560
28593W        W  853  22.152  36.318  13.119
28594W        W  854  15.887   7.264  10.713
28595W        W  855   6.283  30.698  12.543
28596W        W  856  25.237  17.241   3.244
28597W        W  857  43.879  42.905  11.572
28598W        W  858   0.927  19.140  13.700
28599W        W  859  34.147  40.537   0.306
28600W        W  860  22.745   6.825  14.978
28601W        W  861  35.651  35.128  13.477
28602W        W  862  35.981  31.552  11.734
28603W        W  863  18.048   0.235  11.594
28604W        W  864  36.493  18.182   0.665
28605W        W  865   2.512  17.704   1.767
28606W        W  866  19.756  22.143   1.785
28607W        W  867   9.851  16.367  14.078
28608W        W  868  40.651  34.025   0.877
28609W        W  869  29.648   4.995   2.157
28610W        W  870  27.241  21.247  12.864
28611W        W  871  11.289  22.099   4.539
28612W        W  872  21.957  19.621   3.199
28613W        W  873  29.142   0.285  12.061
28614W        W  874   9.739   6.782  10.780
28615W        W  875  23.983  35.547  14.884
28616W        W  876  26.872  36.911   4.185
28617W        W  877   5.345  27.413   0.212
28618W        W  878  30.067  26.868   1.890
28619W        W  879  14.365   7.828   3.177
28620W        W  880  22.403   5.872   1.701
28621W        W  881   2.483  26.764   2.411
28622W        W  882  36.306  37.373   2.824
28623W        W  883  14.141  37.636   4.975
28624W        W  884  26.293  21.650   0.847
28625W        W  885  18.345  20.344  10.803
28626W        W  886  10.991  18.628   1.312
28627W        W  887  30.880  24.093  11.573
28628W        W  888   7.200  35.998  14.907
28629W        W  889  38.450  33.266   0.516
28630W        W  890  14.406   2.156   0.340
28631W        W  891   7.273   1.109   2.843
28632W        W  892  20.794   0.896   3.714
28633W        W  893  25.454  35.528  11.103
28634W        W  894  15.734   7.409   2.407
28635W        W  895  18.142  30.229  11.617
28636W        W  896  23.314  15.051  12.804
28637W        W  897  16.593  10.904  11.708
28638W        W  898  12.825   1.295   1.900
28639W        W  899  21.692  25.532  13.968
28640W        W  900  11.770  39.589  12.484
28641W        W  901   0.680  20.233   1.041
28642W        W  902   9.690  28.188  12.380
28643W        W  903  19.250   2.716  13.907
28644W        W  904  18.228  32.298  13.439
28645W        W  905  25.717  29.051   0.169
28646W        W  906  13.775  37.053   0.367
28647W        W  907  12.744  38.487   2.797
28648W        W  908   5.645  21.054   0.788
28649W        W  909  33.080  21.498   5.063
28650W        W  910  36.376  21.752  12.592
28651W        W  911  34.150  29.010  14.365
28652W        W  912  41.761  26.919   4.242
28653W        W  913  35.889  31.501  14.447
28654W        W  914  10.843  26.250  12.445
28655W        W  915  14.001  37.352  13.001
28656W        W  916  18.387   4.524  13.897
28657W        W  917  16.069   6.713  11.494
28658W        W  918  35.845  15.631   2.882
28659W        W  919  35.479  17.885  10.175
28660W        W  920  27.732  22.392  14.405
28661W        W  921  44.798   1.367  12.180
28662W        W  922  39.482  22.477   3.422
28663W        W  923  16.659  21.783  13.021
28664W        W  924  23.022  17.135   0.293
28665W        W  925  13.890  32.331  12.342
28666W        W  926  17.084  21.468  10.024
28667W        W  927  19.188  24.520   0.769
28668W        W  928  31.643  25.425   3.151
28669W        W  929  31.552  10.186   4.821
28670W        W  930   4.536   5.853   0.840
28671W        W  931  15.264  27.452  12.697
28672W        W  932  10.736  36.772  13.502
28673W        W  933  17.217  27.734  13.690
28674W        W  934  36.138  20.053   0.494
28675W        W  935  22.674  17.558   1.767
28676W        W  936  26.439  37.290  10.731
28677W        W  937  28.249   2.992   2.658
28678W        W  938  24.866  37.841  11.206
28679W        W  939  21.680  15.120   3.836
28680W        W  940  13.422   9.122  10.725
28681W        W  941   6.253  41.578  10.560
28682W        W  942   6.182  28.458   2.432
28683W        W  943   1.665  27.703   1.457
28684W        W  944  30.088  38.254   0.557
28685W        W  945  13.691   9.833   4.542
28686W        W  946  23.089  22.262   1.314
28687W        W  947  33.510  24.471  11.701
28688W        W  948  17.386  34.907   2.416
28689W        W  949  26.681  25.474  12.994
28690W        W  950  42.280   6.263  14.292
28691W        W  951  41.401  22.194   3.502
28692W        W  952  15.561  39.411  11.610
28693W        W  953  34.680  17.014  14.222
28694W        W  954  32.331  14.513   0.943
28695W        W  955  10.385   4.636  14.745
28696W        W  956  22.720  37.473  10.695
28697W        W  957   2.170  19.428   1.342
28698W        W  958  28.481  30.285   2.235
28699W        W  959  24.845   6.196   3.404
28700W        W  960  33.644  31.082  13.321
28701W        W  961  36.391  13.551  13.407
28702W        W  962  39.464  15.315  14.439
28703W        W  963   9.365  40.123  10.325
28704W        W  964  39.386  31.668  13.671
28705W        W  965  34.515  13.610   4.063
28706W        W  966  17.399  44.620  11.053
28707W        W  967  26.521   9.204   3.366
28708W        W  968   0.618  15.297   3.758
28709W        W  969   1.820  38.856   2.268
28710W        W  970  14.227  23.023  12.568
28711W        W  971   8.514  17.789   4.166
28712W        W  972  14.689  37.507   0.248
28713W        W  973  35.886  12.841  13.434
28714W        W  974  26.991  30.602  10.704
28715W        W  975  15.506  30.606   2.255
28716W        W  976  37.581   5.981  13.371
28717W        W  977  23.032  43.317   0.030
28718W        W  978  40.698   8.801  11.199
28719W        W  979  17.361   7.667  12.006
28720W        W  980  38.153   3.666   1.775
28721W        W  981  11.350  10.881  11.405
28722W        W  982  33.725  12.859   2.273
28723W        W  983  20.037  11.114  13.474
28724W        W  984  22.307  17.841  12.154
28725W        W  985  44.348  36.083  13.943
28726W        W  986  23.470  28.665   9.692
28727W        W  987  20.603  20.039   0.863
28728W        W  988   3.871  26.603   2.231
28729W        W  989  11.884  14.373  12.585
28730W        W  990  17.866  13.680  14.969
28731W        W  991   7.641  33.502   3.213
28732W        W  992  17.693  12.382   3.716
28733W        W  993  19.203  19.202  13.923
28734W        W  994  22.246  22.221   2.888
28735W        W  995  21.748  43.947   4.156
28736W        W  996   0.336  15.099  11.131
28737W        W  997  26.554  13.030  12.571
28738W        W  998  20.960  15.777   2.710
28739W        W  999  44.462  43.570  14.283
28740W        W 1000  18.104  44.985  14.004
28741W        W 1001  31.031  19.237  10.669
28742W        W 1002   3.462   0.787   1.156
28743W        W 1003  41.777  34.127  11.518
28744W        W 1004  13.302  30.171   3.168
28745W        W 1005  35.289  15.150  12.945
28746W        W 1006  18.582   4.742  11.629
28747W        W 1007  42.916  21.767   2.764
28748W        W 1008  29.041   6.812  11.864
28749W        W 1009  17.268  32.428  12.599
28750W        W 1010  44.746   3.215  10.946
28751W        W 1011  37.595  32.033   1.261
28752W        W 1012  37.502  11.001   0.056
28753W        W 1013  39.935   5.939  13.909
28754W        W 1014  25.376  43.799  11.121
28755W        W 1015  42.446  32.877  12.405
28756W        W 1016  21.543  40.345  11.533
28757W        W 1017  36.449   8.465   3.165
28758W        W 1018  37.797   3.977   2.394
28759W        W 1019  37.004  23.681   2.740
28760W        W 1020  32.170  21.572   5.020
28761W        W 1021  36.151  12.908  12.120
28762W        W 1022  39.892   4.772   2.171
28763W        W 1023   4.039  28.403  13.073
28764W        W 1024  28.147  23.917   0.412
28765W        W 1025  39.488   7.415   3.408
28766W        W 1026   2.573   5.151   1.744
28767W        W 1027  17.296  13.136  10.569
28768W        W 1028  24.984  41.412  10.722
28769W        W 1029  37.367   5.764  11.414
28770W        W 1030  11.725  37.263  12.937
28771W        W 1031  12.234  39.380  10.706
28772W        W 1032  13.572  32.201   2.092
28773W        W 1033  36.626  10.684  14.952
28774W        W 1034  14.176  33.973   0.279
28775W        W 1035  16.162  13.245   0.391
28776W        W 1036   4.249  26.691  12.995
28777W        W 1037  12.243  27.681   3.287
28778W        W 1038  14.845   1.632  10.329
28779W        W 1039   1.889  41.438  14.949
28780W        W 1040  43.953  43.490  11.226
28781W        W 1041   4.464  11.332  12.859
28782W        W 1042  26.119  27.838  11.494
28783W        W 1043  19.847  15.567  13.352
28784W        W 1044  11.129   1.976   2.698
28785W        W 1045   1.063  17.607  12.336
28786W        W 1046   5.588  27.226   2.881
28787W        W 1047  12.157   8.837   2.732
28788W        W 1048  27.707  31.618  11.929
28789W        W 1049  37.419  34.499  11.118
28790W        W 1050  19.999  28.098   2.865
28791W        W 1051  25.000   3.952  14.395
28792W        W 1052  23.773  16.219  11.227
28793W        W 1053  11.867  31.504   3.145
28794W        W 1054  39.968   2.290  12.866
28795W        W 1055  22.005  13.721   0.676
28796W        W 1056  33.845  44.029  11.062
28797W        W 1057  21.469  34.612  11.554
28798W        W 1058  22.541  33.614   2.865
28799W        W 1059  14.685  20.521  10.736
28800W        W 1060  37.273   3.698  13.886
28801W        W 1061   6.634  40.904  14.007
28802W        W 1062  24.962  16.173  12.837
28803W        W 1063  24.991  44.418  10.770
28804W        W 1064  11.803   6.131   3.684
28805W        W 1065  39.396  24.850  10.572
28806W        W 1066  29.390  22.889  12.603
28807W        W 1067  33.412  38.562   0.952
28808W        W 1068  12.587  19.920   0.875
28809W        W 1069  29.436  10.475   3.282
28810W        W 1070  31.907  27.809  12.917
28811W        W 1071  26.025  27.273   1.371
28812W        W 1072  15.597   5.629  11.132
28813W        W 1073  21.606  22.379   3.201
28814W        W 1074  38.555  26.954   3.699
28815W        W 1075  27.452  40.615   0.136
28816W        W 1076   8.678  31.417  11.047
28817W        W 1077  23.719  34.464   4.643
28818W        W 1078  38.307  42.754  12.033
28819W        W 1079  19.979  34.182   2.316
28820W        W 1080  20.976  16.630   3.889
28821W        W 1081  24.416  23.234  12.942
28822W        W 1082  11.911  20.333   3.885
28823W        W 1083  26.952  25.604  12.341
28824W        W 1084  39.908  37.803  14.924
28825W        W 1085  36.653   6.993   3.394
28826W        W 1086  31.001  16.909  12.964
28827W        W 1087  33.707  25.566  10.570
28828W        W 1088  22.689   9.194  12.650
28829W        W 1089  30.122  12.063   1.407
28830W        W 1090  21.011   2.466  13.525
28831W        W 1091  41.098   7.676   2.207
28832W        W 1092   3.428   1.849  13.332
28833W        W 1093  14.702  33.891  11.090
28834W        W 1094  36.633  44.211   0.320
28835W        W 1095  11.094  44.016   1.287
28836W        W 1096  36.389  25.585   0.979
28837W        W 1097  40.097  24.676   4.127
28838W        W 1098  17.637  21.542   2.389
28839W        W 1099   8.802  12.020  14.093
28840W        W 1100  38.511  19.476   4.549
28841W        W 1101  32.831  30.475  12.586
28842W        W 1102   2.994  24.011   4.024
28843W        W 1103  11.129  26.527   1.282
28844W        W 1104  13.031  26.314  11.146
28845W        W 1105  21.147  24.173  12.535
28846W        W 1106  29.135  41.492  12.975
28847W        W 1107  20.200  33.385   4.072
28848W        W 1108  26.818  35.143   4.165
28849W        W 1109  31.451  13.040  11.632
28850W        W 1110  28.616   4.268   2.365
28851W        W 1111  19.791  37.925   3.753
28852W        W 1112  26.487  37.669   0.234
28853W        W 1113  43.193  22.691  13.970
28854W        W 1114  38.295   0.442  14.805
28855W        W 1115  39.848   0.001  11.177
28856W        W 1116  21.955  28.048   3.904
28857W        W 1117  13.702  39.056  10.330
28858W        W 1118  30.185  23.003   2.665
28859W        W 1119   1.644  12.733   2.310
28860W        W 1120  28.632  35.376  12.379
28861W        W 1121  31.523  36.618  13.999
28862W        W 1122  26.401  41.352   4.216
28863W        W 1123  19.002  10.740  13.908
28864W        W 1124  31.505   4.390  13.479
28865W        W 1125  30.953   9.437   2.106
28866W        W 1126  28.124  28.758  13.969
28867W        W 1127  30.530  19.850   0.430
28868W        W 1128  27.489   6.797  10.967
28869W        W 1129  12.375   0.778  14.819
28870W        W 1130  44.474  29.300  11.653
28871W        W 1131  18.537  19.089  12.530
28872W        W 1132  22.935  15.139   0.391
28873W        W 1133  37.779  25.052   4.164
28874W        W 1134  10.603  21.659   3.677
28875W        W 1135  33.318  41.911   1.345
28876W        W 1136  40.864   1.528  13.002
28877W        W 1137  30.009   5.194   1.832
28878W        W 1138  22.775  11.687  10.465
28879W        W 1139  44.906  21.227  11.763
28880W        W 1140  29.585  11.143  12.593
28881W        W 1141  12.663   2.293  12.877
28882W        W 1142  39.267   8.917   2.288
28883W        W 1143  38.828  25.910   4.335
28884W        W 1144  38.233  28.600   4.166
28885W        W 1145  30.231  29.537  11.256
28886W        W 1146  22.330  35.971  14.582
28887W        W 1147  44.466  22.841   0.902
28888W        W 1148  14.212  11.104  13.024
28889W        W 1149   8.651   1.277   2.694
28890W        W 1150  20.753  16.182   3.822
28891W        W 1151  24.760  40.321   4.982
28892W        W 1152   2.799  35.266  12.085
28893W        W 1153   7.268  25.081   0.186
28894W        W 1154  24.692  42.418   3.803
28895W        W 1155  25.667  37.137   1.818
28896W        W 1156  40.305  26.564   0.085
28897W        W 1157  22.207  22.006  13.391
28898W        W 1158  10.155   4.971   2.248
28899W        W 1159  36.559   6.863   4.635
28900W        W 1160  23.323  39.689  11.162
28901W        W 1161  20.065  11.637   1.698
28902W        W 1162  30.916   3.525   2.390
28903W        W 1163  18.014  15.090  14.807
28904W        W 1164  37.943   2.762   2.750
28905W        W 1165  24.712  36.436  13.344
28906W        W 1166   5.923  38.069   4.202
28907W        W 1167   6.716  34.008   0.732
28908W        W 1168   2.908  14.490   4.218
28909W        W 1169   2.505  39.817  13.446
28910W        W 1170  25.482  22.083  12.175
28911W        W 1171   9.651   2.279   4.188
28912W        W 1172  11.452  10.311   2.761
28913W        W 1173  14.662  16.710  14.880
28914W        W 1174  20.261   3.107  13.542
28915W        W 1175  11.546  17.167   3.770
28916W        W 1176  35.782  13.396  12.835
28917W        W 1177  43.244  29.507  10.644
28918W        W 1178   8.800  12.675   4.242
28919W        W 1179  32.464  18.692   0.525
28920W        W 1180  40.137   9.980   2.005
28921W        W 1181  22.668   8.432  14.475
28922W        W 1182  39.309   4.848  11.789
28923W        W 1183  27.672  20.773   2.074
28924W        W 1184   6.706   9.515  12.383
28925W        W 1185  43.269  32.407   2.254
28926W        W 1186  33.276  25.010   1.764
28927W        W 1187  15.199  18.214  10.565
28928W        W 1188   5.014  31.121   1.771
28929W        W 1189  28.268  17.575  11.427
28930W        W 1190  34.062  19.704  14.055
28931W        W 1191  44.774  14.519  12.089
28932W        W 1192  19.437  19.104  13.468
28933W        W 1193  43.878  21.520  12.494
28934W        W 1194  31.914   2.167  14.721
28935W        W 1195   7.256  36.674  13.009
28936W        W 1196  18.543  35.692   3.196
28937W        W 1197   2.021  31.377   0.807
28938W        W 1198  39.349   7.636   0.715
28939W        W 1199  37.542   8.158  13.230
28940W        W 1200   5.130  23.950   4.471
28941W        W 1201  21.587  34.902   1.541
28942W        W 1202  12.588  13.301  10.707
28943W        W 1203  24.237  19.132  10.901
28944W        W 1204  23.881  25.266   0.505
28945W        W 1205   9.282  17.267   2.817
28946W        W 1206  26.967  28.533   3.585
28947W        W 1207  27.423  37.908   2.892
28948W        W 1208  19.283  33.714  14.126
28949W        W 1209  26.932  42.387   2.839
28950W        W 1210  37.044  17.807   2.870
28951W        W 1211   9.072  28.713  14.979
28952W        W 1212  17.262  34.670  12.783
28953W        W 1213  15.311  42.113  12.278
28954W        W 1214  43.377  37.884  10.682
28955W        W 1215   7.893  37.588   4.096
28956W        W 1216  39.423  43.992   3.297
28957W        W 1217  34.501  22.181  13.792
28958W        W 1218  26.483  12.623  10.249
28959W        W 1219  20.772  10.749  13.272
28960W        W 1220  34.082  30.744   4.728
28961W        W 1221  22.296  11.359   3.718
28962W        W 1222  17.345  41.428   2.916
28963W        W 1223  17.325  26.644  12.461
28964W        W 1224   4.924  23.666  13.453
28965W        W 1225  44.381  34.388   2.200
28966W        W 1226  28.236   2.629  14.026
28967W        W 1227  18.718   3.506  11.153
28968W        W 1228  36.477  11.834  10.114
28969W        W 1229   5.917  35.099  14.361
28970W        W 1230  11.409  35.257  13.807
28971W        W 1231  21.464  42.944  11.572
28972W        W 1232  14.774  44.862   2.274
28973W        W 1233  30.117  14.399  14.763
28974W        W 1234  21.134  29.994  13.000
28975W        W 1235  21.176  10.711  10.982
28976W        W 1236  16.857  19.776  14.040
28977W        W 1237  38.158   7.931  11.414
28978W        W 1238  16.232  15.570   0.903
28979W        W 1239   8.818   7.880   3.900
28980W        W 1240  39.106   4.817  12.478
28981W        W 1241  16.229  13.127   3.145
28982W        W 1242  34.460   0.536  13.569
28983W        W 1243   9.237   8.422   2.153
28984W        W 1244  32.242  13.808   3.393
28985W        W 1245   6.589  28.616  14.798
28986W        W 1246  25.641   7.213  11.863
28987W        W 1247  11.782  24.560   3.349
28988W        W 1248   3.886  43.442  10.752
28989W        W 1249  19.746  33.238  11.086
28990W        W 1250  17.134  40.907   0.568
28991W        W 1251  43.858  26.648   0.404
28992W        W 1252   0.912   8.621  14.916
28993W        W 1253  27.132  27.412  12.480
28994W        W 1254   7.899  34.518   1.252
28995W        W 1255  23.045  41.461  11.527
28996W        W 1256  35.646  21.224  13.014
28997W        W 1257  13.861   6.488  12.815
28998W        W 1258  25.948  10.278  13.961
28999W        W 1259  36.175  20.068   5.136
29000W        W 1260   6.262  34.154  12.885
29001W        W 1261  24.262  29.720   2.578
29002W        W 1262  29.543  33.486   5.501
29003W        W 1263   0.679  44.123   4.053
29004W        W 1264  28.089  39.883  10.096
29005W        W 1265   4.332  28.200   0.543
29006W        W 1266  35.044  13.172   3.131
29007W        W 1267  34.886  28.157   4.585
29008W        W 1268  31.889  15.531  14.475
29009W        W 1269   7.237   8.044  10.701
29010W        W 1270  43.892  25.894   1.960
29011W        W 1271  10.540   2.735   2.347
29012W        W 1272   8.864  44.903  14.958
29013W        W 1273  17.099   9.504   4.014
29014W        W 1274  42.859  21.048  14.070
29015W        W 1275  43.486   0.777  11.572
29016W        W 1276  40.605  43.276   2.887
29017W        W 1277  10.070  31.406   2.336
29018W        W 1278  40.789  34.541  12.841
29019W        W 1279   1.704  33.472  12.109
29020W        W 1280   7.325  32.312   4.606
29021W        W 1281  22.335   7.131   4.479
29022W        W 1282  11.867   8.392   0.797
29023W        W 1283  29.656  36.923   0.382
29024W        W 1284  42.812  11.787  12.964
29025W        W 1285   8.307  14.867  13.835
29026W        W 1286  36.273  10.860  13.417
29027W        W 1287  17.161   2.720   1.199
29028W        W 1288  38.468   3.752   0.266
29029W        W 1289  15.836  41.483  10.294
29030W        W 1290  20.636  31.171  14.471
29031W        W 1291  36.351  11.875   4.068
29032W        W 1292   0.352   1.498   3.544
29033W        W 1293  26.459   4.935  14.256
29034W        W 1294  44.837   6.895  13.794
29035W        W 1295  31.927  24.077  14.742
29036W        W 1296  27.611  16.055   0.847
29037W        W 1297  32.537   9.676  14.774
29038W        W 1298  36.295  35.641  12.438
29039W        W 1299  21.864  42.870   0.698
29040W        W 1300  31.130  30.888  12.123
29041W        W 1301   9.676   5.633   0.350
29042W        W 1302  42.107  34.492   1.904
29043W        W 1303  35.230  20.621   2.895
29044W        W 1304  16.685   3.038  13.267
29045W        W 1305  39.120  28.185   1.005
29046W        W 1306  32.049  42.130   3.378
29047W        W 1307  25.478   0.218   3.670
29048W        W 1308  44.344  43.577   3.541
29049W        W 1309  19.531  42.067  10.671
29050W        W 1310   1.007  38.061  10.612
29051W        W 1311   4.730   3.175  12.465
29052W        W 1312  20.776   3.752  11.422
29053W        W 1313  17.788  25.553   2.141
29054W        W 1314  28.307  39.414   2.276
29055W        W 1315  36.439  41.074   3.284
29056W        W 1316   3.357  31.128  12.492
29057W        W 1317  31.607  31.615  10.918
29058W        W 1318   0.834  11.823   0.747
29059W        W 1319  22.661  43.741  10.697
29060W        W 1320  24.506  20.924   2.150
29061W        W 1321  29.192   7.459   1.855
29062W        W 1322   4.976  17.034   1.381
29063W        W 1323  26.689  15.011  12.144
29064W        W 1324  33.471  37.761   3.136
29065W        W 1325  33.399   0.956  14.047
29066W        W 1326  40.539  22.356  13.700
29067W        W 1327   1.477  34.324   0.103
29068W        W 1328  14.602  35.903  14.444
29069W        W 1329   6.465   1.338   1.033
29070W        W 1330  17.232   0.954   5.121
29071W        W 1331   6.620  36.432   1.763
29072W        W 1332   2.562  25.154  11.580
29073W        W 1333  21.758  26.710   0.388
29074W        W 1334  10.125  25.585  14.272
29075W        W 1335   5.794  12.858  12.447
29076W        W 1336  19.840   6.616  11.813
29077W        W 1337  37.882  39.394   0.846
29078W        W 1338  38.160  38.070  12.568
29079W        W 1339  32.911  20.014  12.126
29080W        W 1340  13.901  28.279   2.783
29081W        W 1341  33.577   7.183   3.293
29082W        W 1342  36.869   8.837   3.666
29083W        W 1343  42.446  42.866  13.002
29084W        W 1344   0.469  39.334  14.105
29085W        W 1345  17.549  34.651   1.955
29086W        W 1346  16.520  28.532  12.596
29087W        W 1347  14.922  16.612  12.518
29088W        W 1348  35.561   6.339  11.249
29089W        W 1349  44.500  28.998   2.791
29090W        W 1350   8.592   0.981   0.756
29091W        W 1351  20.241  11.843  14.717
29092W        W 1352  31.628  20.732  12.824
29093W        W 1353  32.488   5.831   3.724
29094W        W 1354  44.546  30.107  14.359
29095W        W 1355   9.324  40.861  11.920
29096W        W 1356  35.956  25.438  11.941
29097W        W 1357  24.984   0.616   0.094
29098W        W 1358  16.076  32.647  13.461
29099W        W 1359  41.986  42.363  14.443
29100W        W 1360   4.422   3.856   2.359
29101W        W 1361  35.101  11.001  12.881
29102W        W 1362  27.245   9.916   2.007
29103W        W 1363  15.098   6.773   2.274
29104W        W 1364  17.214  27.991  12.903
29105W        W 1365   1.899  16.752   0.953
29106W        W 1366  35.350  32.962  11.602
29107W        W 1367  16.397  28.597  14.426
29108W        W 1368   0.420  37.801   3.762
29109W        W 1369  32.908  38.941   0.899
29110W        W 1370  43.806  24.575   4.620
29111W        W 1371   9.705  35.985  11.144
29112W        W 1372  40.804   8.732   0.745
29113W        W 1373  37.397  38.889   2.880
29114W        W 1374  27.364  19.799   1.695
29115W        W 1375   5.781   8.856  12.394
29116W        W 1376  11.761   7.876   2.908
29117W        W 1377  34.940  37.845   1.839
29118W        W 1378  26.972  13.707   0.449
29119W        W 1379  12.602  27.881  11.874
29120W        W 1380  26.684   1.874   2.918
29121W        W 1381   5.805  18.707   0.294
29122W        W 1382  25.386   7.839   0.755
29123W        W 1383  42.800  36.996   0.756
29124W        W 1384  41.596  28.962  14.949
29125W        W 1385  28.609  28.052  14.499
29126W        W 1386  21.772  26.039  13.985
29127W        W 1387  33.055  32.241   2.457
29128W        W 1388  40.448   9.580   1.897
29129W        W 1389   2.433  35.664   1.235
29130W        W 1390   8.278  23.476  11.752
29131W        W 1391  35.559   9.685   0.873
29132W        W 1392  28.972  19.215  13.916
29133W        W 1393  25.113  22.778  12.567
29134W        W 1394  21.298  37.293   4.165
29135W        W 1395  31.559   6.765   3.338
29136W        W 1396  36.958  30.693   2.688
29137W        W 1397  42.475  17.146   3.271
29138W        W 1398  42.372  10.291  14.506
29139W        W 1399  40.239   6.133  14.278
29140W        W 1400  22.217  18.285   2.844
29141W        W 1401  20.114  16.771   4.131
29142W        W 1402  16.869   7.521  12.558
29143W        W 1403  15.946   4.166   2.682
29144W        W 1404  44.431  42.233  10.789
29145W        W 1405  29.455  35.428   2.616
29146W        W 1406  18.487   3.358   3.618
29147W        W 1407   3.931  41.315   1.959
29148W        W 1408   9.775   4.138   3.257
29149W        W 1409  33.719  25.203   3.264
29150W        W 1410  25.544  44.428  10.732
29151W        W 1411   8.256  11.594   0.910
29152W        W 1412  25.188  15.997   0.659
29153W        W 1413  16.303  26.592  11.183
29154W        W 1414  25.472  15.655   4.927
29155W        W 1415  37.457  38.548  12.181
29156W        W 1416  21.174  28.636   2.578
29157W        W 1417  24.150  30.403  12.349
29158W        W 1418  36.607   5.262  14.488
29159W        W 1419  34.059  42.567   2.511
29160W        W 1420  32.541  20.816  12.435
29161W        W 1421  40.491  24.585   4.451
29162W        W 1422  22.328  42.445   4.223
29163W        W 1423  27.870  44.350   0.819
29164W        W 1424  28.769   2.735   3.820
29165W        W 1425   3.901  32.073   3.683
29166W        W 1426   4.299  16.020   3.297
29167W        W 1427  35.849   6.446  14.481
29168W        W 1428  35.286  29.466  11.155
29169W        W 1429   3.858  36.653  14.280
29170W        W 1430   4.956  42.782  14.792
29171W        W 1431  11.852  38.958  10.697
29172W        W 1432  10.149   3.310  14.188
29173W        W 1433  23.615  12.640  11.478
29174W        W 1434  31.807  23.695  10.622
29175W        W 1435  29.383  35.344  10.450
29176W        W 1436  33.893  34.540   3.647
29177W        W 1437  26.725  41.871   5.400
29178W        W 1438  10.835  30.662   3.701
29179W        W 1439  31.495  23.237   2.408
29180W        W 1440  24.478  29.519  14.000
29181W        W 1441   8.810  44.205   0.354
29182W        W 1442   8.154  10.396   1.924
29183W        W 1443  22.331  18.732  13.621
29184W        W 1444   7.409  41.015   0.422
29185W        W 1445  44.930  29.409  10.962
29186W        W 1446  31.904  35.972  11.886
29187W        W 1447  42.136   2.845  11.093
29188W        W 1448  32.221   2.137  12.966
29189W        W 1449   0.740   5.486   1.745
29190W        W 1450  21.555  38.551   3.589
29191W        W 1451  35.469  38.366   1.309
29192W        W 1452  28.066  13.856   0.682
29193W        W 1453  43.006  40.274   5.020
29194W        W 1454  33.428  37.232   2.244
29195W        W 1455  13.649  32.983   1.515
29196W        W 1456  15.293  22.303  11.743
29197W        W 1457  34.440  11.847  13.934
29198W        W 1458   7.839  34.021  14.722
29199W        W 1459   4.935  26.528  11.108
29200W        W 1460   4.431  27.297   3.668
29201W        W 1461  34.973  43.496  13.932
29202W        W 1462  28.996  31.606   1.270
29203W        W 1463  14.573  24.635  11.615
29204W        W 1464  43.783  12.179   0.303
29205W        W 1465  21.595  32.142  11.394
29206W        W 1466  20.077  39.489   4.124
29207W        W 1467  16.736  37.206   4.549
29208W        W 1468  34.473  12.124  13.493
29209W        W 1469  38.231  39.409  13.111
29210W        W 1470  32.500  18.260  13.857
29211W        W 1471   8.026  15.570  10.515
29212W        W 1472  35.235   1.849   4.244
29213W        W 1473  41.813  22.103  10.637
29214W        W 1474  37.929  18.545  14.123
29215W        W 1475  39.411  44.896  12.207
29216W        W 1476  39.820   9.955  14.059
29217W        W 1477  33.518  30.685   1.680
29218W        W 1478  10.090  20.187  12.082
29219W        W 1479  20.328  27.439  10.244
29220W        W 1480  34.372  19.169  12.593
29221W        W 1481   2.201  15.879   0.833
29222W        W 1482   3.755  32.672   2.844
29223W        W 1483  14.336  36.958   9.833
29224W        W 1484   1.020  38.409  14.949
29225W        W 1485  13.464  31.442   3.704
29226W        W 1486  31.957  27.803  10.753
29227W        W 1487  18.739  12.216  11.100
29228W        W 1488   9.791   3.862  11.027
29229W        W 1489  27.874  17.158   4.040
29230W        W 1490   8.855  29.968  12.160
29231W        W 1491  29.119  20.579  13.247
29232W        W 1492  13.788  37.492   2.557
29233W        W 1493   4.914  16.237   2.270
29234W        W 1494  36.387  34.376  13.772
29235W        W 1495   2.373  37.069   0.459
29236W        W 1496   8.733  23.191  10.690
29237W        W 1497  38.557   8.365   2.120
29238W        W 1498  41.339  44.501   4.538
29239W        W 1499  40.664   5.425  14.316
29240W        W 1500  27.409  35.669  12.079
29241W        W 1501  43.619  14.299   3.411
29242W        W 1502  16.239  32.471  11.519
29243W        W 1503   2.754  17.049  14.075
29244W        W 1504  35.611  33.934  14.369
29245W        W 1505  38.444  30.199   1.980
29246W        W 1506  28.208   5.365   1.004
29247W        W 1507  11.340  42.123   1.356
29248W        W 1508  27.251  24.202  10.960
29249W        W 1509  34.950   1.626  13.811
29250W        W 1510   1.325  42.317  14.761
29251W        W 1511  17.161  44.268   2.820
29252W        W 1512  21.532  22.684   5.056
29253W        W 1513   7.452  20.140   2.698
29254W        W 1514  19.327  43.114  11.708
29255W        W 1515   4.967  22.582   2.723
29256W        W 1516   3.888  23.639  12.977
29257W        W 1517  19.910  27.990  11.383
29258W        W 1518  26.654   6.130  12.145
29259W        W 1519  29.049  41.875  12.608
29260W        W 1520   4.810  44.398  11.424
29261W        W 1521  26.138  14.261  11.643
29262W        W 1522  26.519  13.219  10.583
29263W        W 1523  19.062  41.756   4.296
29264W        W 1524  28.495  40.015  14.402
29265W        W 1525   6.358  23.480  14.428
29266W        W 1526  25.677  13.754  14.983
29267W        W 1527  28.628  40.919   3.957
29268W        W 1528  40.319  19.196  11.730
29269W        W 1529  33.884  37.895   3.409
29270W        W 1530  27.993  30.655  12.488
29271W        W 1531  39.376  43.947  12.188
29272W        W 1532  26.110  35.341  12.112
29273W        W 1533  23.245  21.325  10.746
29274W        W 1534  23.001  38.960   4.093
29275W        W 1535  12.076  44.870  10.649
29276W        W 1536  38.889  40.753  11.133
29277W        W 1537  28.746  21.362   0.846
29278W        W 1538  29.510  37.860   3.563
29279W        W 1539   7.285  28.086  14.435
29280W        W 1540  36.036  29.285   1.764
29281W        W 1541  24.767  28.913   3.187
29282W        W 1542  31.424  28.942  10.741
29283W        W 1543  35.959  44.699  13.143
29284W        W 1544   9.028   6.288  11.112
29285W        W 1545   4.442  33.321   0.443
29286W        W 1546  29.421  16.230   2.744
29287W        W 1547  13.825  29.352   4.711
29288W        W 1548  39.054  40.974   3.675
29289W        W 1549  24.036  17.925   9.999
29290W        W 1550  12.319  44.068   1.864
29291W        W 1551  39.253  12.066  12.005
29292W        W 1552  12.110   7.642   3.262
29293W        W 1553  12.150  15.604  13.366
29294W        W 1554   7.762  35.512  12.524
29295W        W 1555  16.075  31.377  10.568
29296W        W 1556  40.111  26.215  12.414
29297W        W 1557  20.258   0.858  12.064
29298W        W 1558   8.661  33.117  11.610
29299W        W 1559  16.236  22.028   4.926
29300W        W 1560  30.184  38.519   4.374
29301W        W 1561  36.816   0.852  13.766
29302W        W 1562  38.729  38.725   4.232
29303W        W 1563   8.695   1.449   0.969
29304W        W 1564  31.708  42.634   2.072
29305W        W 1565  27.593  24.070  12.118
29306W        W 1566  31.152  34.583  14.773
29307W        W 1567  30.395  20.155   2.799
29308W        W 1568  29.096  28.503  13.617
29309W        W 1569  28.517   3.702  12.430
29310W        W 1570  17.605  14.999   0.088
29311W        W 1571  13.310  16.035   1.313
29312W        W 1572   8.195   9.319  13.579
29313W        W 1573  11.591  38.590  12.635
29314W        W 1574  40.718   2.746   3.414
29315W        W 1575  24.307  43.569   3.152
29316W        W 1576  37.517  29.135   4.520
29317W        W 1577  43.867  24.781   3.338
29318W        W 1578  32.377  36.228  10.999
29319W        W 1579  34.548  33.344   1.891
29320W        W 1580  31.022  40.551   3.776
29321W        W 1581  25.459   6.601  14.458
29322W        W 1582   3.987  43.668   2.711
29323W        W 1583  43.166  22.216   2.666
29324W        W 1584  31.248  41.971  12.598
29325W        W 1585  21.244  38.956   4.056
29326W        W 1586  26.584   1.190   0.584
29327W        W 1587  19.276   3.947  12.506
29328W        W 1588  29.246   5.723  11.009
29329W        W 1589  26.176  38.015   0.955
29330W        W 1590  34.936   2.202  10.602
29331W        W 1591  26.518  40.363   0.872
29332W        W 1592  42.510  10.647   2.860
29333W        W 1593  39.918  43.070  11.475
29334W        W 1594  15.752  25.671   0.489
29335W        W 1595  24.202  27.205   4.553
29336W        W 1596  27.890   7.651  11.482
29337W        W 1597   5.496  30.127  11.114
29338W        W 1598  32.113   8.934  11.140
29339W        W 1599  33.160  43.045   3.756
29340W        W 1600  33.850  36.926   2.353
29341W        W 1601  24.567  29.619  12.528
29342W        W 1602  35.799   4.191  14.012
29343W        W 1603  20.158  33.883  12.497
29344W        W 1604  42.110   9.147   1.342
29345W        W 1605   7.251  33.127   0.531
29346W        W 1606  28.659   0.878  11.474
29347W        W 1607  32.042  24.303  12.334
29348W        W 1608  28.412  24.316  14.767
29349W        W 1609  39.988  36.949   3.580
29350W        W 1610  34.515  36.923   1.729
29351W        W 1611  13.227   5.247  14.161
29352W        W 1612  38.950  34.094  11.532
29353W        W 1613   8.825  25.938   3.647
29354W        W 1614  40.788   2.923   4.876
29355W        W 1615  23.972   8.679  13.546
29356W        W 1616  13.652  23.974  11.098
29357W        W 1617  28.429  20.962  10.763
29358W        W 1618  21.449  36.518   1.905
29359W        W 1619  30.903  32.121   5.082
29360W        W 1620  40.520  14.744   1.362
29361W        W 1621  37.982  23.420  11.991
29362W        W 1622  44.277  28.396  13.953
29363W        W 1623  32.440  33.368  12.294
29364W        W 1624  24.546  41.583   4.590
29365W        W 1625  17.611   8.743  12.684
29366W        W 1626  18.140  19.046   4.109
29367W        W 1627  30.883  16.153  14.784
29368W        W 1628  16.638  35.795  14.927
29369W        W 1629  16.326  14.638   4.078
29370W        W 1630  36.584  34.615   0.249
29371W        W 1631  17.937  17.076   1.837
29372W        W 1632  42.295  11.361  14.062
29373W        W 1633  15.122  34.118   3.997
29374W        W 1634  38.840  18.810  10.166
29375W        W 1635  27.489   2.606  11.659
29376W        W 1636  17.622  31.906   1.167
29377W        W 1637  14.862  20.173  11.092
29378W        W 1638   3.320  12.009   0.463
29379W        W 1639  22.234  30.721  14.810
29380W        W 1640  35.811  23.820   3.322
29381W        W 1641  36.207  18.493   9.758
29382W        W 1642   8.904  40.549  13.924
29383W        W 1643  17.254  12.525  13.072
29384W        W 1644   4.929  39.963   3.124
29385W        W 1645  37.579  30.936  12.594
29386W        W 1646  34.154  36.112  14.826
29387W        W 1647  28.056   1.508   0.771
29388W        W 1648  14.704  20.926   2.802
29389W        W 1649   1.232  39.519   0.264
29390W        W 1650   8.854  37.271   2.198
29391W        W 1651  31.586  37.983   2.666
29392W        W 1652  41.417  37.985   4.842
29393W        W 1653  30.505  22.972  13.499
29394W        W 1654  24.130  10.550  11.534
29395W        W 1655  12.393  43.588  11.948
29396W        W 1656  20.109  28.167  14.108
29397W        W 1657  19.606  24.919  11.112
29398W        W 1658  38.602   2.920  11.159
29399W        W 1659  21.533   2.837   3.190
29400W        W 1660  38.384  44.889   0.711
29401W        W 1661   4.616  25.904  13.858
29402W        W 1662  26.950  16.274  13.491
29403W        W 1663   6.194  44.962  14.006
29404W        W 1664   6.850  43.358   3.839
29405W        W 1665  34.246  34.142  14.358
29406W        W 1666  31.432  25.310  13.060
29407W        W 1667  28.108  15.306   4.639
29408W        W 1668   5.945  19.683  14.105
29409W        W 1669  32.794  16.657   3.194
29410W        W 1670  12.183  36.864  13.392
29411W        W 1671   3.977   5.937  13.508
29412W        W 1672  23.569   9.010  10.575
29413W        W 1673  40.838  31.226  13.131
29414W        W 1674  42.291  19.370  10.664
29415W        W 1675  26.513  25.678  13.464
29416W        W 1676  23.074  30.064   4.638
29417W        W 1677  24.204  22.006  12.470
29418W        W 1678   8.103  35.771  11.839
29419W        W 1679   3.925  25.237   0.382
29420W        W 1680  44.277  28.932  13.977
29421W        W 1681  43.206   9.316  13.575
29422W        W 1682   9.970  24.542  13.096
29423W        W 1683  36.582  27.191   1.922
29424W        W 1684  22.973  20.680   1.475
29425W        W 1685  10.158  28.989   0.718
29426W        W 1686  24.542   3.454   4.309
29427W        W 1687   5.258  23.245   2.662
29428W        W 1688   6.224   2.238   1.404
29429W        W 1689  41.732  35.192   1.415
29430W        W 1690   6.277  43.031   2.702
29431W        W 1691   9.751  40.263   2.701
29432W        W 1692   8.626   8.254  12.980
29433W        W 1693  29.329  24.585   1.260
29434W        W 1694  32.167  29.438  14.262
29435W        W 1695  22.479  11.257   0.903
29436W        W 1696  37.499  38.863  10.457
29437W        W 1697  25.092   0.573  13.126
29438W        W 1698  24.524  17.269  11.413
29439W        W 1699  42.489  20.583  11.414
29440W        W 1700   3.830  27.367   4.645
29441W        W 1701  44.236   0.806   3.795
29442W        W 1702  35.936  13.684   3.067
29443W        W 1703   5.285  37.934  10.666
29444W        W 1704  24.078  34.377  10.545
29445W        W 1705  21.619   8.460  13.561
29446W        W 1706  30.661  35.076  11.989
29447W        W 1707   8.681  24.998   1.411
29448W        W 1708   4.769  14.355  10.929
29449W        W 1709  36.506   7.932   3.237
29450W        W 1710   8.235  43.863  14.030
29451W        W 1711  30.249  42.889   4.228
29452W        W 1712  27.758   2.001  11.667
29453W        W 1713   9.028  32.555  10.546
29454W        W 1714  17.657  20.989   3.189
29455W        W 1715  17.351   5.407   0.867
29456W        W 1716   6.249  39.987   1.447
29457W        W 1717   9.725  35.814  10.603
29458W        W 1718   6.925  26.725  11.475
29459W        W 1719   8.192  42.169  11.473
29460W        W 1720  37.724  24.851   3.130
29461W        W 1721  32.959  17.787  12.575
29462W        W 1722   8.260   5.223  10.623
29463W        W 1723  22.740  21.977   0.345
29464W        W 1724  44.428  20.910  10.014
29465W        W 1725  12.640  39.140   3.632
29466W        W 1726  13.736  19.986   4.535
29467W        W 1727  19.898  30.943   4.169
29468W        W 1728  24.120  22.173  14.268
29469W        W 1729  23.516  16.699   1.048
29470W        W 1730  12.388  16.773   0.481
29471W        W 1731  44.371  42.747  10.759
29472W        W 1732   5.936  10.299  13.323
29473W        W 1733   9.347  15.723   0.347
29474W        W 1734   8.721   2.501   2.754
29475W        W 1735  11.837  26.415  14.734
29476W        W 1736  10.272   5.491  14.041
29477W        W 1737  39.246   9.903   2.331
29478W        W 1738  16.649  31.806  13.830
29479W        W 1739  41.116  20.595  11.112
29480W        W 1740  19.211   4.491   2.340
29481W        W 1741  34.812  20.367  13.801
29482W        W 1742  17.233  32.599   1.697
29483W        W 1743  20.729  37.688  13.608
29484W        W 1744  28.205  32.129   1.143
29485W        W 1745   7.990  39.592  10.725
29486W        W 1746  19.071  30.710   4.060
29487W        W 1747  21.723  39.462  14.810
29488W        W 1748  12.666   3.287  10.324
29489W        W 1749  24.456  35.607   2.159
29490W        W 1750  44.163  12.076  12.155
29491W        W 1751  40.810  16.864  13.041
29492W        W 1752  44.314  35.354   0.773
29493W        W 1753   6.942  15.822   0.198
29494W        W 1754  33.845   4.225  11.833
29495W        W 1755  27.629  22.173   3.944
29496W        W 1756  10.726   9.190  13.437
29497W        W 1757  31.216  17.988   2.793
29498W        W 1758  27.160   2.014   0.845
29499W        W 1759  42.035  14.278   0.745
29500W        W 1760  38.265  14.664   0.415
29501W        W 1761  36.573  34.583   4.070
29502W        W 1762  20.253  21.900  12.440
29503W        W 1763   9.308  39.180  12.447
29504W        W 1764  32.870  32.916  13.001
29505W        W 1765  13.606   2.915  12.125
29506W        W 1766  16.689  13.858   1.223
29507W        W 1767   3.374  41.578   2.891
29508W        W 1768   4.358  21.025   4.118
29509W        W 1769  13.453   1.675  13.498
29510W        W 1770  41.989  23.962   5.018
29511W        W 1771  19.609  11.896   1.755
29512W        W 1772   3.820  24.006  10.710
29513W        W 1773   2.291   7.357   3.661
29514W        W 1774  34.545   4.410   4.707
29515W        W 1775  41.760  33.280   3.776
29516W        W 1776  42.952  14.269   4.725
29517W        W 1777  18.522  34.557   1.291
29518W        W 1778  24.498   9.627   2.752
29519W        W 1779  19.313   4.416   1.286
29520W        W 1780   0.776  36.633  14.374
29521W        W 1781  20.753  13.310  12.412
29522W        W 1782  36.712   4.603   0.788
29523W        W 1783   5.674  36.997  10.628
29524W        W 1784   2.654   0.491  14.670
29525W        W 1785  18.441  32.417   1.254
29526W        W 1786  20.716  43.754  14.244
29527W        W 1787  15.357  20.101  11.115
29528W        W 1788  39.745  38.498  14.578
29529W        W 1789  24.993  38.940  13.900
29530W        W 1790  25.948  23.116  14.812
29531W        W 1791  17.693   5.784   2.626
29532W        W 1792  37.083  35.416   4.263
29533W        W 1793  32.989  18.990  11.932
29534W        W 1794  35.894  43.844   0.466
29535W        W 1795  34.268  21.289   3.438
29536W        W 1796  43.453  37.441  14.700
29537W        W 1797  16.325  37.139  14.870
29538W        W 1798  16.848  37.369  14.069
29539W        W 1799   7.436   8.060  11.526
29540W        W 1800  44.100   3.899   3.355
29541W        W 1801  35.536   1.930  14.012
29542W        W 1802  18.686  20.706   2.872
29543W        W 1803  20.958  25.002   1.387
29544W        W 1804  13.264  32.857  10.629
29545W        W 1805  38.436  13.956  11.137
29546W        W 1806  22.202  44.733   3.883
29547W        W 1807  10.663  25.542   4.582
29548W        W 1808   9.723   4.202   2.341
29549W        W 1809  26.148  24.971   0.106
29550W        W 1810  25.227  10.896   4.135
29551W        W 1811   2.786  43.127   0.852
29552W        W 1812  26.181  34.988   1.839
29553W        W 1813   5.968  32.364  11.381
29554W        W 1814   6.794   9.681  11.864
29555W        W 1815  11.136   2.892  10.533
29556W        W 1816  19.692  42.325  12.764
29557W        W 1817  26.187  27.736   0.347
29558W        W 1818  26.722  35.967   3.168
29559W        W 1819  14.789  34.642   4.728
29560W        W 1820  23.365  15.699   0.939
29561W        W 1821  42.363  11.570  11.695
29562W        W 1822  27.543  37.677   2.419
29563W        W 1823  26.557   1.283   2.094
29564W        W 1824  25.649  43.883  10.662
29565W        W 1825   5.779  36.127   3.271
29566W        W 1826  11.174  22.550  13.042
29567W        W 1827  30.680  34.391  14.976
29568W        W 1828   2.033   0.359  14.512
29569W        W 1829  23.578   7.614  11.158
29570W        W 1830  15.522   8.359   4.050
29571W        W 1831  19.060  19.461   2.196
29572W        W 1832  42.436  34.322  13.845
29573W        W 1833  14.785  41.883   1.807
29574W        W 1834  24.227  42.194  14.454
29575W        W 1835  10.557  31.865  11.200
29576W        W 1836  30.441  44.828   0.014
29577W        W 1837   4.883  29.084  14.084
29578W        W 1838  25.283  17.551  11.394
29579W        W 1839  16.868  43.548  14.921
29580W        W 1840  41.461  41.475   1.912
29581W        W 1841  11.918  13.394  13.018
29582W        W 1842  38.563  43.409  12.883
29583W        W 1843  12.141  27.570  10.280
29584W        W 1844  21.025  44.786  14.760
29585W        W 1845  16.285  35.383   4.479
29586W        W 1846  10.746  30.073   1.371
29587W        W 1847  31.685  21.568   5.143
29588W        W 1848   4.790  33.586  10.685
29589W        W 1849   8.844   4.362  10.463
29590W        W 1850  24.655  29.179  12.172
29591W        W 1851   6.179   4.285   1.849
29592W        W 1852  35.061  40.518   3.642
29593W        W 1853   1.722  10.346  11.520
29594W        W 1854  26.604  32.478   1.515
29595W        W 1855   8.747  40.472   3.232
29596W        W 1856  33.418  31.935  11.057
29597W        W 1857  32.253   8.021   2.146
29598W        W 1858  30.999   5.290   3.669
29599W        W 1859   0.619  24.362  12.172
29600W        W 1860  44.215  27.879  13.510
29601W        W 1861   4.728  37.567   1.934
29602W        W 1862   1.153  40.262  12.555
29603W        W 1863  21.269  20.692  11.054
29604W        W 1864  27.083  39.310  13.494
29605W        W 1865  31.570   1.326  10.692
29606W        W 1866  13.360  19.985  14.976
29607W        W 1867   4.413  40.458   4.607
29608W        W 1868  31.804  17.584   0.658
29609W        W 1869   6.032  24.306   4.653
29610W        W 1870  33.589  11.344  13.037
29611W        W 1871  37.453  14.316  11.479
29612W        W 1872  32.974  19.516  14.814
29613W        W 1873  16.771  32.562  11.157
29614W        W 1874   3.461  11.917   1.785
29615W        W 1875  43.842   1.449  10.669
29616W        W 1876  28.034   9.383  13.497
29617W        W 1877  32.421   0.350  12.798
29618W        W 1878  16.269   3.258   2.826
29619W        W 1879  11.603  27.552   0.619
29620W        W 1880  32.166  23.069  12.829
29621W        W 1881  13.654  21.586   0.948
29622W        W 1882   5.449  13.412   1.748
29623W        W 1883  24.559  12.477   2.466
29624W        W 1884  35.863   7.153  14.038
29625W        W 1885  21.159  12.057   4.124
29626W        W 1886  41.845  32.113  10.600
29627W        W 1887  20.215   4.246   2.365
29628W        W 1888  21.789  21.072   5.488
29629W        W 1889   8.699  17.845   1.259
29630W        W 1890  41.294  41.361  13.419
29631W        W 1891  44.664  17.062   2.078
29632W        W 1892  18.746   4.071   3.170
29633W        W 1893  22.819   8.656   1.899
29634W        W 1894  25.214   6.654  12.626
29635W        W 1895  27.932   8.349   5.097
29636W        W 1896  36.456  42.642  12.959
29637W        W 1897  12.569  26.973   2.656
29638W        W 1898   1.717  28.407  11.601
29639W        W 1899  31.499  27.526  13.826
29640W        W 1900  11.147   0.917  13.393
29641W        W 1901  32.855   1.271  12.454
29642W        W 1902  34.516   6.116   1.614
29643W        W 1903  27.995  33.846  12.588
29644W        W 1904  19.610  38.332   4.691
29645W        W 1905   5.404   5.431  14.321
29646W        W 1906  37.547  40.579  11.417
29647W        W 1907   9.832   8.856  12.988
29648W        W 1908  10.948  28.533  14.439
29649W        W 1909  27.602  43.311   4.050
29650W        W 1910  36.149   3.258   3.498
29651W        W 1911   2.336  40.432   2.141
29652W        W 1912  22.539  13.891  11.172
29653W        W 1913  26.474  30.362  12.430
29654W        W 1914  26.384  19.110   0.477
29655W        W 1915  33.195   2.170  11.648
29656W        W 1916  27.073  31.678   1.077
29657W        W 1917  30.585  16.274  11.008
29658W        W 1918  10.414   3.001  11.994
29659W        W 1919  30.764   8.812  14.287
29660W        W 1920   9.360  43.394   2.863
29661W        W 1921   5.662   7.402   0.734
29662W        W 1922  32.094  40.955   3.930
29663W        W 1923  41.176  37.547  14.306
29664W        W 1924  24.079   8.631  12.446
29665W        W 1925  43.479   7.914  13.822
29666W        W 1926  16.008   6.906   1.661
29667W        W 1927  13.406  30.480  11.150
29668W        W 1928  40.570  29.854  13.429
29669W        W 1929   6.439  41.722  14.475
29670W        W 1930  35.806   9.258   4.953
29671W        W 1931  12.106  16.994  14.531
29672W        W 1932   5.838  11.256   1.813
29673W        W 1933  19.323  15.727  14.449
29674W        W 1934  32.059  26.524  12.254
29675W        W 1935   7.988  18.817  11.861
29676W        W 1936  34.925  19.102  13.900
29677W        W 1937  23.587  31.497   2.771
29678W        W 1938  32.389   0.911   0.353
29679W        W 1939   7.914   5.614  14.988
29680W        W 1940  34.431   2.320   2.476
29681W        W 1941  11.234  13.839  11.686
29682W        W 1942  25.989  34.059   3.241
29683W        W 1943  11.828  26.184  13.440
29684W        W 1944  37.701  13.869  14.314
29685W        W 1945  25.154  18.856   4.116
29686W        W 1946   8.903  43.117   2.802
29687W        W 1947  15.962  18.812   0.157
29688W        W 1948  41.070  17.682  14.111
29689W        W 1949  34.458   2.406  10.823
29690W        W 1950   1.324  11.606  13.953
29691W        W 1951   0.712  39.835  10.690
29692W        W 1952  13.435   9.319  12.027
29693W        W 1953   4.994  28.476  13.880
29694W        W 1954  34.771  26.947  10.061
29695W        W 1955   8.726  34.582  14.950
29696W        W 1956  31.917  18.550  13.416
29697W        W 1957  28.510  19.136   3.621
29698W        W 1958  14.361  11.611  13.468
29699W        W 1959  28.079   2.216   4.722
29700W        W 1960  18.092  34.902  14.352
29701W        W 1961  30.025   2.536  13.247
29702W        W 1962  21.075  35.097  14.116
29703W        W 1963  12.736  39.044   2.758
29704W        W 1964  13.350  15.616   5.259
29705W        W 1965  12.192  37.311   4.529
29706W        W 1966  16.701  22.030   0.846
29707W        W 1967   0.911   1.107   5.286
29708W        W 1968  33.448  29.369  13.965
29709W        W 1969  10.868  23.993  13.903
29710W        W 1970  16.212   1.299   3.525
29711W        W 1971  25.891   0.985   3.029
29712W        W 1972  23.793   4.966   0.352
29713W        W 1973  31.389  22.276   0.715
29714W        W 1974  36.557  36.692  11.690
29715W        W 1975   3.056  42.363   2.471
29716W        W 1976  18.821  44.709   3.649
29717W        W 1977  18.745   7.742  10.074
29718W        W 1978  11.885  13.072   2.757
29719W        W 1979  15.606  34.950  14.272
29720W        W 1980  20.259  13.323   0.598
29721W        W 1981  28.179   1.329   4.718
29722W        W 1982  39.069   3.049  13.264
29723W        W 1983  34.881  14.707   2.198
29724W        W 1984  14.196  29.672   4.061
29725W        W 1985  16.569  41.788   1.210
29726W        W 1986  37.439   5.405   2.935
29727W        W 1987  31.820   4.865  10.648
29728W        W 1988  27.423   7.818   1.866
29729W        W 1989  32.001  19.622   0.260
29730W        W 1990  12.256  34.479  10.340
29731W        W 1991  15.677  36.601  14.959
29732W        W 1992  34.102  42.615   4.121
29733W        W 1993   5.138  25.962   3.431
29734W        W 1994  32.841  34.084  14.856
29735W        W 1995  11.190  27.465  13.030
29736W        W 1996  24.140  43.478  14.296
29737W        W 1997  24.469  33.678   0.308
29738W        W 1998  35.966   4.392   1.798
29739W        W 1999  16.830   2.961  11.831
29740W        W 2000  41.948  35.466  13.410
29741W        W 2001   8.820  38.470  12.541
29742W        W 2002  33.085  11.705  10.565
29743W        W 2003  23.679  41.886  12.092
29744W        W 2004  17.227  25.685   1.781
29745W        W 2005   0.106   0.060   3.200
29746W        W 2006   0.221   0.573   4.053
29747W        W 2007  15.689  30.307  13.808
29748W        W 2008  27.606  17.463   1.758
29749W        W 2009  20.289  27.393  14.740
29750W        W 2010   2.072   4.299   3.300
29751W        W 2011  32.617  26.614  12.431
29752W        W 2012  43.559  32.842   2.247
29753W        W 2013  17.324  29.113   1.202
29754W        W 2014  37.113  26.917   0.900
29755W        W 2015  31.391  17.573  11.659
29756W        W 2016  16.536  31.525   2.752
29757W        W 2017  15.049  25.495  14.229
29758W        W 2018   7.943  35.965  13.334
29759W        W 2019  14.563   7.576  12.638
29760W        W 2020  39.515  43.454   0.287
29761W        W 2021  30.637  16.296  13.785
29762W        W 2022   6.212  12.093  10.718
29763W        W 2023  14.827  11.823  13.367
29764W        W 2024  39.298  19.117   0.944
29765W        W 2025  11.678   4.265   3.160
29766W        W 2026  21.665  22.890   3.202
29767W        W 2027  18.546  16.760  14.911
29768W        W 2028  10.150  12.710  11.606
29769W        W 2029  15.654  19.016   2.340
29770W        W 2030  38.429  24.927  14.944
29771W        W 2031  27.043  41.359  10.822
29772W        W 2032  13.298  11.693   2.783
29773W        W 2033  34.589  37.792  11.276
29774W        W 2034  43.530  11.679  13.816
29775W        W 2035  31.964  27.498  14.734
29776W        W 2036   3.428  34.853   2.340
29777W        W 2037  25.574  38.921  12.844
29778W        W 2038  21.527  20.572   2.931
29779W        W 2039   1.756  32.638  11.059
29780W        W 2040   1.226   0.436   0.938
29781W        W 2041   7.173  41.278   1.721
29782W        W 2042  29.088  24.836   4.052
29783W        W 2043  39.567  29.419  13.157
29784W        W 2044  14.188  19.040   0.821
29785W        W 2045  40.915  29.588   2.466
29786W        W 2046   9.437  10.423   5.078
29787W        W 2047   3.908  19.068  11.288
29788W        W 2048  24.999   1.428   2.216
29789W        W 2049  24.233  14.615  11.948
29790W        W 2050  40.770  20.665  13.346
29791W        W 2051  34.967   0.344  13.514
29792W        W 2052  24.550  39.795   4.147
29793W        W 2053  26.001  37.214  12.623
29794W        W 2054   4.146  18.253  12.534
29795W        W 2055  29.159  13.776  11.983
29796W        W 2056  33.509   8.236   1.335
29797W        W 2057  37.921  16.722   3.866
29798W        W 2058   9.233  11.396   2.215
29799W        W 2059   8.993  21.223   0.213
29800W        W 2060  26.409   4.428  14.388
29801W        W 2061  37.481  32.220  10.943
29802W        W 2062  37.473   2.784   4.832
29803W        W 2063  13.326  16.251   4.474
29804W        W 2064  40.637  38.379  14.630
29805W        W 2065  32.557  27.510   2.760
29806W        W 2066  31.364   2.813   1.699
29807W        W 2067  35.691  14.533   1.006
29808W        W 2068  19.923  24.230   0.973
29809W        W 2069  43.168  30.061   1.956
29810W        W 2070  35.714  10.369  10.844
29811W        W 2071  16.898  32.607   4.061
29812W        W 2072  33.220  24.616  10.585
29813W        W 2073  11.950  43.013   1.264
29814W        W 2074  24.542  13.947   1.397
29815W        W 2075  13.745  34.005   4.886
29816W        W 2076   7.838  37.304  11.476
29817W        W 2077  33.522  43.055  14.109
29818W        W 2078  34.020   5.335   3.949
29819W        W 2079  43.931  37.940   4.607
29820W        W 2080   5.212  26.093  11.165
29821W        W 2081  27.141  31.040  12.484
29822W        W 2082  34.763  13.450  14.551
29823W        W 2083  24.475   4.216   1.445
29824W        W 2084  17.240  33.117  10.410
29825W        W 2085  29.871   3.344  12.589
29826W        W 2086  28.126  25.675  10.586
29827W        W 2087  10.738  25.005  13.102
29828W        W 2088  14.314  10.376  14.885
29829W        W 2089  35.906  44.946   1.083
29830W        W 2090  39.484  36.287   4.068
29831W        W 2091  30.043  22.995   3.975
29832W        W 2092  29.708  42.411  13.060
29833W        W 2093  11.225  18.058  14.423
29834W        W 2094  36.439   6.328  10.726
29835W        W 2095  19.576  32.871   4.512
29836W        W 2096   9.162   4.231   0.708
29837W        W 2097  26.703  19.036   1.352
29838W        W 2098  24.480  40.786  14.751
29839W        W 2099  44.184  20.080  12.089
29840W        W 2100  17.710  26.560   1.912
29841W        W 2101   8.391  40.868   4.466
29842W        W 2102  44.398   4.674   0.481
29843W        W 2103  19.545  17.032   0.851
29844W        W 2104  27.771  42.646  14.064
29845W        W 2105  25.745   6.376  14.930
29846W        W 2106  20.698  26.741   2.253
29847W        W 2107  38.957  32.596  14.375
29848W        W 2108  20.368  14.799  14.283
29849W        W 2109   3.858  14.755  12.098
29850W        W 2110  28.714  18.288  13.841
29851W        W 2111   1.933  24.543  11.443
29852W        W 2112  40.233  10.310  12.002
29853W        W 2113  36.615  12.312  14.550
29854W        W 2114   0.643  33.021  14.108
29855W        W 2115  44.303  36.783   4.225
29856W        W 2116  43.506   3.274   1.830
29857W        W 2117  22.465  13.599   0.864
29858W        W 2118  12.250  33.056   0.327
29859W        W 2119  23.638  43.459   2.752
29860W        W 2120  13.860  12.728   1.952
29861W        W 2121  43.821  17.319   0.643
29862W        W 2122  10.851   8.711  12.587
29863W        W 2123  19.471   2.418   0.515
29864W        W 2124   0.033  32.525   4.460
29865W        W 2125  18.323   0.683  11.579
29866W        W 2126  12.374  28.637   0.287
29867W        W 2127  35.955  16.794   4.690
29868W        W 2128   3.222  15.617   1.687
29869W        W 2129  13.365  36.906   1.774
29870W        W 2130   7.858   1.953   1.797
29871W        W 2131  22.834  38.984  11.552
29872W        W 2132  25.014  40.903  10.651
29873W        W 2133  20.529  30.882   1.923
29874W        W 2134   6.331   2.008   2.232
29875W        W 2135  24.416   4.767  10.068
29876W        W 2136  25.026  24.045  11.991
29877W        W 2137   9.325  29.351  13.797
29878W        W 2138  41.818  17.460  12.379
29879W        W 2139  15.351  18.844   3.566
29880W        W 2140  35.925  19.460  14.916
29881W        W 2141   1.967  10.654  10.628
29882W        W 2142   0.344  33.992  11.246
29883W        W 2143   4.613  43.849  10.743
29884W        W 2144  43.908  41.343  10.806
29885W        W 2145  20.148  11.314  12.956
29886W        W 2146  35.449  41.316   2.791
29887W        W 2147  13.226  22.728  13.783
29888W        W 2148   0.869  14.753   0.230
29889W        W 2149  20.341  14.871   1.351
29890W        W 2150  31.440  15.763  11.894
29891W        W 2151  25.455   9.454  14.639
29892W        W 2152  41.131  22.922  14.299
29893W        W 2153  29.088  12.001   3.230
29894W        W 2154   1.399  12.632   2.763
29895W        W 2155  19.212  41.841   2.341
29896W        W 2156   7.313  11.153   4.558
29897W        W 2157  34.392  38.003  12.626
29898W        W 2158  37.772  44.158  12.131
29899W        W 2159  21.237  34.027  12.397
29900W        W 2160  14.111  24.513   2.239
29901W        W 2161  43.414  29.627  12.416
29902W        W 2162  37.958  25.884   1.149
29903W        W 2163   5.552  31.127  11.542
29904W        W 2164   9.560  40.673   4.182
29905W        W 2165  38.424  32.115  13.568
29906W        W 2166   4.069   8.786   1.657
29907W        W 2167  16.619  12.389   4.599
29908W        W 2168   0.661  10.376   2.839
29909W        W 2169   0.342  43.110  11.507
29910W        W 2170  35.986  22.486  12.392
29911W        W 2171   4.037  22.231   3.542
29912W        W 2172  32.676  11.422   2.126
29913W        W 2173   3.722  22.416  14.975
29914W        W 2174  12.233  19.776   0.551
29915W        W 2175  37.383  31.183  13.019
29916W        W 2176   6.793   3.024  11.889
29917W        W 2177  14.238  44.033   2.683
29918W        W 2178  23.053   0.947   0.851
29919W        W 2179  14.356  27.615   5.121
29920W        W 2180  41.367  37.307  13.872
29921W        W 2181  11.859  40.442   2.354
29922W        W 2182  40.334   2.744   2.187
29923W        W 2183  41.251   3.304   2.724
29924W        W 2184  29.298   4.400   1.774
29925W        W 2185   0.756  31.935   0.967
29926W        W 2186  19.806  31.813   0.338
29927W        W 2187  19.958   4.589  11.602
29928W        W 2188   5.977  18.299  14.406
29929W        W 2189  30.148  22.174  13.669
29930W        W 2190  26.526  16.622  12.477
29931W        W 2191  35.406  20.649  12.666
29932W        W 2192  17.631   7.875  14.028
29933W        W 2193  40.419  11.940  14.222
29934W        W 2194   1.749   0.540   3.322
29935W        W 2195   5.270  44.549  14.795
29936W        W 2196  23.394  32.549   2.792
29937W        W 2197  16.157  10.628   4.922
29938W        W 2198  29.470  30.379  10.654
29939W        W 2199  21.256  20.945  10.265
29940W        W 2200  43.922  27.924   1.595
29941W        W 2201  28.207  33.446   0.786
29942W        W 2202  16.260  13.520   2.776
29943W        W 2203   4.316  22.266   1.399
29944W        W 2204  28.259  39.935   5.048
29945W        W 2205  18.841   0.612  14.476
29946W        W 2206   9.810  44.701   4.745
29947W        W 2207  23.964   7.421  13.567
29948W        W 2208  35.067  13.945  11.055
29949W        W 2209  40.943  24.461   3.139
29950W        W 2210  10.758  44.478   4.189
29951W        W 2211   6.188   9.176   1.201
29952W        W 2212   2.462  13.457   2.850
29953W        W 2213  44.731  38.883   4.317
29954W        W 2214  32.360   0.728   4.486
29955W        W 2215   6.728  20.762   0.380
29956W        W 2216  34.476  11.648  14.506
29957W        W 2217  11.791   9.220  14.905
29958W        W 2218  44.117  39.741   2.718
29959W        W 2219  26.442  40.947   3.641
29960W        W 2220  14.753  10.421  13.957
29961W        W 2221  42.022  43.235   4.480
29962W        W 2222  26.000   0.074  12.939
29963W        W 2223  13.805   5.156  11.529
29964W        W 2224  37.599  15.760   4.300
29965W        W 2225  17.362  25.300  12.520
29966W        W 2226   7.233   8.691   2.698
29967W        W 2227  22.939   5.341  13.874
29968W        W 2228  24.116  15.410  14.942
29969W        W 2229  11.818  22.032  10.606
29970W        W 2230  22.285  20.403  12.017
29971W        W 2231   7.323  22.573  10.730
29972W        W 2232   5.426   0.038   3.838
29973W        W 2233  41.691  24.484  14.600
29974W        W 2234  26.509  16.563  13.605
29975W        W 2235  27.052  41.038  11.630
29976W        W 2236  12.320  35.916  10.723
29977W        W 2237  35.165  13.611   2.321
29978W        W 2238  42.264  29.666   3.733
29979W        W 2239  38.014  38.035   0.862
29980W        W 2240  42.499  43.937  13.041
29981W        W 2241   0.785  22.560  11.157
29982W        W 2242  33.419  11.582   2.716
29983W        W 2243   0.259  32.177   1.269
29984W        W 2244  22.268  26.386   4.394
29985W        W 2245  43.129  20.509  12.782
29986W        W 2246  28.026  42.723  14.893
29987W        W 2247  44.830   8.912   2.771
29988W        W 2248   9.003  19.380  10.288
29989W        W 2249  37.893  25.684  10.522
29990W        W 2250  11.925   6.906   0.416
29991W        W 2251   4.080   7.224   5.150
29992W        W 2252   7.930  39.929  14.407
29993W        W 2253  24.694  16.776  11.569
29994W        W 2254  33.664   6.289  13.953
29995W        W 2255  21.776  29.469   3.244
29996W        W 2256  42.382  10.205  13.194
29997W        W 2257   6.343  20.812  13.140
29998W        W 2258  41.505  21.816  14.584
29999W        W 2259  25.569  12.519  11.149
30000W        W 2260  33.609  37.623   0.400
30001W        W 2261   2.076   3.999   0.328
30002W        W 2262  31.420  19.614  12.495
30003W        W 2263  26.501  12.725   0.349
30004W        W 2264  42.960  43.865   2.587
30005W        W 2265  33.546  31.680  14.494
30006W        W 2266   5.626  26.541  10.495
30007W        W 2267  33.110   8.140   3.270
30008W        W 2268   9.104   9.043  13.506
30009W        W 2269  24.749  14.937  10.937
30010W        W 2270   4.541   9.464  11.897
30011W        W 2271  31.602  28.680   1.750
30012W        W 2272  43.011  41.228  10.970
30013W        W 2273  27.241  42.058  14.581
30014W        W 2274  14.595  32.038  13.085
30015W        W 2275   1.313  16.853  10.638
30016W        W 2276  39.220  37.652  10.418
30017W        W 2277  26.531  35.381   1.332
30018W        W 2278  13.920  34.609   1.363
30019W        W 2279   0.652  21.297  12.405
30020W        W 2280  32.474  38.663  10.754
30021W        W 2281  25.192  24.448   4.601
30022W        W 2282   4.288  10.020  11.131
30023W        W 2283  42.966  11.783   4.070
30024W        W 2284  24.577  37.312   1.357
30025W        W 2285  30.431  14.334  11.109
30026W        W 2286  36.734  31.187  10.666
30027W        W 2287  13.171  38.019   4.550
30028W        W 2288  40.997   6.241   1.942
30029W        W 2289   7.890  37.337  12.464
30030W        W 2290   4.651  18.307   4.535
30031W        W 2291  36.190  17.590   4.160
30032W        W 2292  19.055  26.970   4.103
30033W        W 2293  42.386  41.367   3.795
30034W        W 2294  36.114   2.527   5.058
30035W        W 2295  43.504  43.711   3.215
30036W        W 2296   1.798   4.326   4.819
30037W        W 2297   0.479  34.044  10.760
30038W        W 2298   3.774  15.562  12.666
30039W        W 2299  11.647  37.889  12.169
30040W        W 2300   7.650  29.656   4.138
30041W        W 2301  25.667  13.658  12.336
30042W        W 2302  18.984  14.393  11.557
30043W        W 2303  34.995  44.387   1.138
30044W        W 2304   6.859  37.096  14.420
30045W        W 2305   8.306   8.310  13.399
30046W        W 2306   5.932   5.329   3.442
30047W        W 2307   2.031  18.703  13.020
30048W        W 2308  14.411   4.303   2.865
30049W        W 2309  42.719  20.070   2.400
30050W        W 2310   0.916  44.759  14.929
30051W        W 2311  11.854   2.699   4.355
30052W        W 2312  36.995  11.742  10.837
30053W        W 2313   3.772   1.475  13.553
30054W        W 2314   5.522  25.967   2.270
30055W        W 2315   0.948  29.903  10.391
30056W        W 2316  34.714   4.412  10.761
30057W        W 2317   7.884   8.885   0.438
30058W        W 2318  21.504  24.252   5.042
30059W        W 2319   3.178   0.436  13.774
30060W        W 2320  37.249   8.252  10.206
30061W        W 2321  34.470   6.628   3.198
30062W        W 2322   8.841  36.360   1.342
30063W        W 2323  27.013   3.692   3.035
30064W        W 2324   7.618  31.652   0.808
30065W        W 2325  20.526  11.401   1.015
30066W        W 2326  17.622  26.426  13.964
30067W        W 2327  10.691  36.056   2.112
30068W        W 2328  41.878  44.816   4.606
30069W        W 2329  21.334   7.990   2.832
30070W        W 2330   2.369  32.165   3.147
30071W        W 2331  22.169  38.397   2.710
30072W        W 2332  25.770   8.795   5.009
30073W        W 2333  41.019  42.880   3.762
30074W        W 2334  30.735  13.533   2.138
30075W        W 2335   6.713  19.629  14.310
30076W        W 2336  20.617   4.144   0.478
30077W        W 2337  28.027  43.258  14.901
30078W        W 2338  30.932  19.080  12.789
30079W        W 2339   8.044   6.333  13.760
30080W        W 2340  13.873  44.227   0.717
30081W        W 2341  18.186  33.482  14.395
30082W        W 2342  33.698  22.644   4.461
30083W        W 2343  29.973  36.024   3.619
30084W        W 2344  15.618  19.243   3.299
30085W        W 2345   8.782  15.356   2.169
30086W        W 2346  24.826  10.582   5.169
30087W        W 2347  12.399  31.243   0.063
30088W        W 2348   5.816  31.537  10.547
30089W        W 2349  34.217  43.253  10.704
30090W        W 2350  24.043  27.394  14.966
30091W        W 2351  43.433   0.448   4.365
30092W        W 2352  11.847  10.879  14.129
30093W        W 2353  24.505  24.195   0.337
30094W        W 2354  14.690  30.357  11.616
30095W        W 2355  44.894  15.873   1.553
30096W        W 2356  25.024  33.614   1.176
30097W        W 2357   5.946  13.414  12.442
30098W        W 2358  40.945  37.336   2.735
30099W        W 2359  17.194   1.408   0.702
30100W        W 2360  24.610  38.996   1.161
30101W        W 2361  11.763  23.695  11.206
30102W        W 2362   9.604  21.173  11.959
30103W        W 2363  41.523  13.187  11.663
30104W        W 2364  41.443  26.887   0.523
30105W        W 2365  21.131   7.331   0.958
30106W        W 2366  36.785  31.197   3.080
30107W        W 2367   7.027  33.917   4.274
30108W        W 2368  27.646   5.239   2.380
30109W        W 2369  29.893   4.532   2.151
30110W        W 2370  32.344  12.149  10.808
30111W        W 2371  35.318   9.908   3.306
30112W        W 2372  39.328  28.635   1.810
30113W        W 2373  21.396  31.509  13.926
30114W        W 2374  22.498  37.501   3.775
30115W        W 2375   8.886   5.982  12.853
30116W        W 2376  41.866  21.041  13.165
30117W        W 2377  22.206  34.049   2.798
30118W        W 2378  22.373  14.439  12.034
30119W        W 2379  15.717  11.030  11.273
30120W        W 2380  18.309  13.083   3.297
30121W        W 2381  35.922  35.439  14.311
30122W        W 2382  35.867  33.531   0.038
30123W        W 2383  16.338  39.895  14.418
30124W        W 2384  22.019  35.959  13.801
30125W        W 2385  22.573   4.110  11.011
30126W        W 2386  32.824  28.494  12.444
30127W        W 2387  18.710   7.329  10.650
30128W        W 2388  21.605  10.427  11.053
30129W        W 2389  10.687   5.482   0.273
30130W        W 2390  15.475   9.223   0.286
30131W        W 2391  16.241  24.692  13.462
30132W        W 2392  42.090  43.544  11.319
30133W        W 2393   2.925   1.695  11.037
30134W        W 2394   3.598  10.104   0.674
30135W        W 2395  19.834  10.627  13.454
30136W        W 2396   6.855  16.597  13.103
30137W        W 2397  10.707  23.512   1.020
30138W        W 2398   4.895   5.552  10.749
30139W        W 2399   6.774  36.254  10.594
30140W        W 2400  33.213   2.845   2.156
30141W        W 2401  13.106   2.510  12.963
30142W        W 2402  34.434   8.390  12.304
30143W        W 2403  16.443  14.508  12.109
30144W        W 2404  17.116  21.539  12.930
30145W        W 2405  21.778  19.907   4.812
30146W        W 2406  37.396   7.878   0.359
30147W        W 2407  30.479  14.420  14.398
30148W        W 2408  33.502  15.226   2.511
30149W        W 2409  26.347  41.264   0.404
30150W        W 2410   7.664  22.237   2.849
30151W        W 2411  11.165  29.856   3.170
30152W        W 2412   7.777  19.749  14.255
30153W        W 2413  19.630  31.597   1.729
30154W        W 2414  41.086   4.032  10.422
30155W        W 2415  21.665  11.520  12.849
30156W        W 2416   0.741  17.649  12.901
30157W        W 2417  41.995  27.605  11.672
30158W        W 2418  31.729   3.948  14.379
30159W        W 2419  22.531  15.436   0.249
30160W        W 2420  19.817  13.044  14.234
30161W        W 2421  41.128  25.745   4.150
30162W        W 2422   2.507  14.811   4.005
30163W        W 2423  20.285  40.022  12.048
30164W        W 2424   5.271  18.644   3.685
30165W        W 2425  17.656  20.031   1.752
30166W        W 2426  38.075  14.442  14.960
30167W        W 2427   4.980  30.168   4.287
30168W        W 2428  29.418  26.923  14.308
30169W        W 2429  10.288  10.175  13.065
30170W        W 2430   0.405  22.577   3.169
30171W        W 2431   1.168  28.816   3.261
30172W        W 2432  15.300  29.224   4.898
30173W        W 2433  43.172  11.658   2.369
30174W        W 2434  16.776   0.953   4.629
30175W        W 2435  23.237  41.008   2.171
30176W        W 2436  41.985  39.894   4.122
30177W        W 2437  42.393  41.084  13.371
30178W        W 2438  31.530  10.214  10.991
30179W        W 2439  41.031   7.677   3.404
30180W        W 2440   7.278  12.922   3.139
30181W        W 2441  33.399  15.791  12.104
30182W        W 2442  23.217  20.985   2.398
30183W        W 2443  12.134  37.093   2.223
30184W        W 2444  40.593   7.822   4.318
30185W        W 2445  15.561   8.438   2.257
30186W        W 2446  31.354   7.193   4.721
30187W        W 2447  22.139  18.280  14.046
30188W        W 2448  43.511  22.585   1.864
30189W        W 2449  39.617  37.396   3.337
30190W        W 2450   5.431  37.995  11.554
30191W        W 2451  16.021   2.793  14.507
30192W        W 2452   5.987  27.581  13.017
30193W        W 2453   4.185  25.714   1.744
30194W        W 2454  36.912   8.780  14.831
30195W        W 2455  29.926  24.080  10.700
30196W        W 2456  30.372   4.219   1.030
30197W        W 2457   7.110   5.811  13.320
30198W        W 2458  21.853  39.986   3.793
30199W        W 2459  10.175  27.520   1.703
30200W        W 2460  15.739  39.452   3.763
30201W        W 2461  13.925  13.210  13.947
30202W        W 2462  40.506   0.226   0.922
30203W        W 2463  42.392  15.758  10.615
30204W        W 2464  30.858  39.697  11.415
30205W        W 2465  43.368  24.482  14.788
30206W        W 2466  23.563  41.603   0.403
30207W        W 2467  43.545  28.960  14.234
30208W        W 2468  34.387   9.723   2.636
30209W        W 2469  19.764  10.914  12.974
30210W        W 2470  18.105  19.853  12.449
30211W        W 2471  32.512  33.428   3.738
30212W        W 2472  39.324  10.809  13.295
30213W        W 2473   6.260  31.940  11.361
30214W        W 2474   2.374  32.377  11.662
30215W        W 2475   5.480  17.281   0.223
30216W        W 2476  12.992  39.527   3.635
30217W        W 2477  42.567  17.019  13.559
30218W        W 2478  41.349   8.122  13.357
30219W        W 2479  22.476  29.386  12.826
30220W        W 2480  32.173  31.996  11.605
30221W        W 2481  13.474   1.970  10.326
30222W        W 2482  43.685  33.663  11.428
30223W        W 2483  36.205  23.787  11.614
30224W        W 2484  33.676  44.974  12.494
30225W        W 2485  29.284  25.583  11.151
30226W        W 2486  27.204  22.031  12.830
30227W        W 2487  28.693  29.460  12.333
30228W        W 2488  33.903  34.075   3.878
30229W        W 2489   2.717   9.841  13.036
30230W        W 2490  10.808  20.383  13.348
30231W        W 2491  39.392  35.170   1.445
30232W        W 2492  44.770  41.069   1.784
30233W        W 2493  43.779  11.095  13.026
30234W        W 2494  33.909   4.703   3.272
30235W        W 2495  31.549  37.663  13.966
30236W        W 2496  32.912   9.144  13.075
30237W        W 2497  16.346  10.676   0.961
30238W        W 2498  39.198  34.383   0.766
30239W        W 2499  34.951  39.290   4.458
30240W        W 2500  28.438  42.854   3.295
30241W        W 2501  31.093  17.676   3.642
30242W        W 2502  13.339  34.298   4.698
30243W        W 2503  11.432  43.018   1.215
30244W        W 2504  41.104  38.118  13.100
30245W        W 2505   9.103  36.854  12.929
30246W        W 2506  37.432  27.233  14.418
30247W        W 2507  32.080   5.420  12.698
30248W        W 2508  10.203   4.359   1.650
30249W        W 2509  35.857   3.916   3.297
30250W        W 2510   6.832  16.119  11.983
30251W        W 2511  40.615  44.568   5.001
30252W        W 2512  37.964  19.807   0.485
30253W        W 2513  41.002  39.281  12.502
30254W        W 2514  30.341  25.679  11.206
30255W        W 2515  44.768  23.775  13.666
30256W        W 2516  42.983  16.572  14.271
30257W        W 2517  37.198  31.602   0.937
30258W        W 2518  39.587   1.967  14.440
30259W        W 2519  41.587  12.682  11.604
30260W        W 2520  36.480  40.237  12.751
30261W        W 2521  25.018  17.190   4.279
30262W        W 2522  37.430  21.559   4.625
30263W        W 2523   9.770  21.625   1.265
30264W        W 2524  13.899  14.079   2.996
30265W        W 2525  43.604  40.560   4.208
30266W        W 2526   3.779  30.087  11.357
30267W        W 2527  14.179  13.135  14.445
30268W        W 2528  41.334   9.666   1.321
30269W        W 2529  14.111   9.209  13.957
30270W        W 2530   5.601  12.548   4.904
30271W        W 2531   8.279  10.584   2.781
30272W        W 2532  25.446  35.910  12.453
30273W        W 2533  37.074  40.831   4.347
30274W        W 2534  15.682  42.692   3.166
30275W        W 2535  31.192  24.443   0.371
30276W        W 2536  39.025  21.353  11.154
30277W        W 2537  29.153  43.502   0.383
30278W        W 2538   5.504  18.640  14.857
30279W        W 2539   5.500   1.375  12.060
30280W        W 2540   3.694  40.027   4.177
30281W        W 2541  36.500  36.307   0.939
30282W        W 2542  37.853  43.759  12.921
30283W        W 2543  43.779  14.889  14.007
30284W        W 2544   2.357  31.738   3.650
30285W        W 2545  23.605  38.410   4.525
30286W        W 2546  30.170  35.094   3.090
30287W        W 2547  10.279  34.787   1.805
30288W        W 2548  43.581  32.451  10.436
30289W        W 2549   0.449  40.294  12.052
30290W        W 2550  29.924  23.050   1.873
30291W        W 2551  24.274  22.618   2.834
30292W        W 2552   4.234  21.242  12.467
30293W        W 2553   6.160   6.360  10.644
30294W        W 2554  33.013  36.535   0.173
30295W        W 2555  14.403  10.265   3.758
30296W        W 2556  27.483  22.826  10.682
30297W        W 2557  12.627  33.659   4.559
30298W        W 2558  30.236   4.805   0.890
30299W        W 2559  34.414  43.274  13.777
30300W        W 2560  21.369  29.060   4.544
30301W        W 2561  41.479  15.765  12.466
30302W        W 2562  37.949  30.991  11.291
30303W        W 2563  22.495  34.970  14.317
30304W        W 2564  25.004  30.875   2.250
30305W        W 2565  20.950  11.358   1.800
30306W        W 2566  36.846  37.787  12.501
30307W        W 2567  16.802  32.615  12.396
30308W        W 2568   2.258  39.636   3.291
30309W        W 2569  27.100  16.138  13.975
30310W        W 2570  27.432  16.084  13.529
30311W        W 2571  39.773  34.960   2.822
30312W        W 2572   1.550  14.630   4.193
30313W        W 2573  26.580  24.525  14.185
30314W        W 2574  39.352  29.460  14.707
30315W        W 2575  17.619  34.486   0.275
30316W        W 2576  20.020  28.415  13.662
30317W        W 2577  22.708  27.984  12.572
30318W        W 2578   7.945  35.079   2.263
30319W        W 2579  22.465  10.336  11.064
30320W        W 2580  36.832  23.971   3.152
30321W        W 2581   3.842   2.487  10.712
30322W        W 2582   3.838  10.118  13.307
30323W        W 2583  26.934  13.295  14.053
30324W        W 2584  13.632  19.731  14.605
30325W        W 2585   7.287  31.099  12.417
30326W        W 2586  24.501   3.868  11.583
30327W        W 2587  30.621   1.888  13.099
30328W        W 2588   2.673  23.177  12.765
30329W        W 2589  25.677  24.972  14.369
30330W        W 2590   1.149  34.456  14.337
30331W        W 2591  44.487  44.080  14.278
30332W        W 2592  25.744  30.385   0.700
30333W        W 2593  37.447  40.946   0.694
30334W        W 2594   6.200  14.071  13.591
30335W        W 2595  22.141  35.010  12.080
30336W        W 2596  22.573  16.707   1.884
30337W        W 2597  13.142  40.525  13.989
30338W        W 2598   0.978  40.127   1.286
30339W        W 2599   0.151  36.591   4.608
30340W        W 2600  15.376  43.968   0.898
30341W        W 2601  25.685   4.214  13.129
30342W        W 2602  37.330   3.183  14.019
30343W        W 2603  11.096   7.774   0.788
30344W        W 2604  37.118   2.349  10.771
30345W        W 2605  27.868  32.521  10.140
30346W        W 2606  26.596  34.377  12.545
30347W        W 2607   4.615  12.282  14.522
30348W        W 2608  20.336  18.104   2.439
30349W        W 2609  17.613  28.907  10.752
30350W        W 2610  36.848  11.348  14.459
30351W        W 2611   7.879   4.280   3.056
30352W        W 2612  38.010   8.354   4.353
30353W        W 2613  23.279   2.326  14.246
30354W        W 2614  12.376  24.704   0.888
30355W        W 2615   8.475   8.865  10.692
30356W        W 2616   4.320  20.647  13.376
30357W        W 2617  43.734   2.752   4.622
30358W        W 2618  17.132  40.880   2.054
30359W        W 2619   4.820  37.094   1.725
30360W        W 2620   6.574   0.414  10.851
30361W        W 2621   9.330  34.494   1.153
30362W        W 2622  31.924   3.100   0.187
30363W        W 2623  39.374  10.986   0.320
30364W        W 2624  35.299  11.705  14.211
30365W        W 2625  41.676   1.314  14.735
30366W        W 2626   0.965  34.469   3.251
30367W        W 2627   6.017  25.153  10.216
30368W        W 2628  15.523  40.138  12.873
30369W        W 2629   7.655   6.404   0.380
30370W        W 2630  28.110   2.861  14.556
30371W        W 2631  19.274  39.996   3.610
30372W        W 2632  41.877  13.433  13.934
30373W        W 2633  31.527  27.766   2.050
30374W        W 2634  30.844  36.453  13.550
30375W        W 2635  13.402  18.123   9.950
30376W        W 2636  40.843  37.061  14.755
30377W        W 2637   8.210  25.935  10.749
30378W        W 2638  13.395   2.899  10.828
30379W        W 2639  16.220   5.386  12.171
30380W        W 2640  29.077  33.858   3.796
30381W        W 2641   7.300  22.668   1.746
30382W        W 2642  27.021  18.820  13.533
30383W        W 2643  43.547  23.445   2.153
30384W        W 2644  24.903  26.936  14.223
30385W        W 2645  10.355  24.568  10.625
30386W        W 2646   2.176  25.137  14.010
30387W        W 2647   4.879  42.628  13.047
30388W        W 2648   0.230   7.856   1.382
30389W        W 2649  35.483  13.914   3.320
30390W        W 2650   6.335  11.123  13.493
30391W        W 2651  30.200  40.840   2.531
30392W        W 2652   1.710   5.365  11.165
30393W        W 2653   7.880   8.176  11.755
30394W        W 2654   4.016  33.535   0.659
30395W        W 2655  12.660  43.790  13.114
30396W        W 2656   6.781  42.844   0.307
30397W        W 2657  41.352  28.877   3.178
30398W        W 2658  14.070  27.741   1.616
30399W        W 2659   0.733  24.893   2.597
30400W        W 2660   4.276  21.081  14.369
30401W        W 2661   3.912  28.669  11.187
30402W        W 2662   0.180  16.980   2.224
30403W        W 2663  37.300  13.548   4.280
30404W        W 2664  42.373  43.223   0.304
30405W        W 2665  26.567   1.366   1.066
30406W        W 2666  33.426  24.168  10.416
30407W        W 2667  15.732   2.761  10.824
30408W        W 2668  37.592   9.806  13.722
30409W        W 2669  29.029   2.215  12.508
30410W        W 2670  42.013  31.899   0.370
30411W        W 2671   3.179  35.122  10.715
30412W        W 2672  41.607  23.163  13.395
30413W        W 2673  30.118  41.857   0.741
30414W        W 2674  30.235  24.126   0.322
30415W        W 2675  24.148  14.150   4.517
30416W        W 2676  43.699  27.728   0.312
30417W        W 2677   6.490  27.663  11.369
30418W        W 2678  27.001  28.405   2.603
30419W        W 2679  40.322  30.598   3.092
30420W        W 2680  34.185  18.012   3.247
30421W        W 2681  41.566  30.372  10.792
30422W        W 2682  44.480   7.203  13.563
30423W        W 2683  19.640   5.770  14.820
30424W        W 2684  35.557  23.160   4.059
30425W        W 2685  35.604   8.923   4.536
30426W        W 2686   3.434   8.413   3.469
30427W        W 2687  33.003  41.123  12.618
30428W        W 2688   8.173   7.675   4.093
30429W        W 2689  18.582  40.424  12.873
30430W        W 2690  35.398   6.539   4.579
30431W        W 2691   4.052  20.267  11.572
30432W        W 2692  44.992  39.545  10.888
30433W        W 2693  27.726  20.326   0.984
30434W        W 2694   0.765   3.322   4.498
30435W        W 2695   8.823  33.659  10.755
30436W        W 2696  18.140  30.516  13.060
30437W        W 2697  11.646  23.646   1.007
30438W        W 2698  17.191  28.157   2.733
30439W        W 2699  30.057   1.583   1.881
30440W        W 2700  44.056   1.961   1.776
30441W        W 2701  16.684  39.033   2.348
30442W        W 2702  33.079  36.284   3.548
30443W        W 2703   3.769  27.102  11.392
30444W        W 2704  40.240  32.376  14.385
30445W        W 2705  43.315   0.356   0.438
30446W        W 2706   3.988  13.774   3.585
30447W        W 2707  27.362  11.569  14.480
30448W        W 2708  29.194  39.820   3.589
30449W        W 2709  16.305  15.215  14.929
30450W        W 2710  29.499   5.022  11.120
30451W        W 2711   4.517  30.909  11.806
30452W        W 2712  24.029   8.141  12.597
30453W        W 2713  13.563   8.406   1.893
30454W        W 2714  28.030  14.519  13.080
30455W        W 2715  12.676  34.956   3.871
30456W        W 2716  36.800  29.047   0.370
30457W        W 2717  34.325  24.178   3.171
30458W        W 2718  31.852   1.746   9.960
30459W        W 2719   9.411   5.013  13.614
30460W        W 2720  31.026  35.141   3.284
30461W        W 2721  30.495   6.687  13.020
30462W        W 2722  31.958   3.218   3.114
30463W        W 2723  15.707   0.021  12.735
30464W        W 2724  32.173   5.198  11.848
30465W        W 2725  38.942  43.547   2.525
30466W        W 2726   1.892  10.646   2.649
30467W        W 2727   8.181  12.405  12.912
30468W        W 2728  14.219   4.167   2.333
30469W        W 2729  24.551  34.650  10.730
30470W        W 2730  36.065  10.331  13.277
30471W        W 2731  41.331  38.171  14.273
30472W        W 2732   5.326   4.104   0.505
30473W        W 2733  27.103   0.043   1.764
30474W        W 2734  32.574  40.598   4.602
30475W        W 2735  34.870  16.608   2.297
30476W        W 2736  29.894  13.602  10.691
30477W        W 2737   6.380  10.245  14.339
30478W        W 2738   7.661  11.995   2.243
30479W        W 2739  17.746  20.749  11.648
30480W        W 2740  19.739  33.095   4.067
30481W        W 2741  42.420  35.673  13.460
30482W        W 2742  16.955  43.221   2.869
30483W        W 2743  16.177   4.058   3.969
30484W        W 2744  39.249  14.313  12.050
30485W        W 2745  10.224  10.128   4.328
30486W        W 2746   3.737   1.782   0.955
30487W        W 2747   5.996  12.274  14.931
30488W        W 2748  18.202  24.522   3.824
30489W        W 2749  15.236  24.601   4.545
30490W        W 2750  41.497  41.429   1.395
30491W        W 2751  13.391  43.292   3.698
30492W        W 2752  31.984  30.421   1.877
30493W        W 2753  36.438   1.939  13.773
30494W        W 2754  12.845   7.245   2.455
30495W        W 2755  28.143  21.596  10.404
30496W        W 2756  16.685  23.141  14.901
30497W        W 2757   0.751  30.575   3.053
30498W        W 2758  42.022   2.403  13.900
30499W        W 2759  44.220  21.564  10.637
30500W        W 2760  42.923   8.941   2.653
30501W        W 2761   9.900  40.068  14.329
30502W        W 2762  21.061  28.223  10.429
30503W        W 2763  14.301  11.379  12.051
30504W        W 2764   7.203   9.823   3.238
30505W        W 2765  29.881  40.055  13.258
30506W        W 2766   4.535  28.926  14.496
30507W        W 2767  23.950   6.635   1.315
30508W        W 2768  39.883   2.000   4.182
30509W        W 2769   0.506  13.726  11.172
30510W        W 2770  30.470  20.018  10.611
30511W        W 2771   1.872  30.791   0.107
30512W        W 2772  43.240  37.072  12.919
30513W        W 2773  38.534  28.967  10.619
30514W        W 2774  29.671  30.294  14.928
30515W        W 2775  35.276   1.315  11.895
30516W        W 2776  22.816  31.584   1.293
30517W        W 2777  33.726  37.272  13.501
30518W        W 2778   1.799  44.487  14.000
30519W        W 2779  27.465   1.806  10.858
30520W        W 2780   3.507  14.462  11.274
30521W        W 2781   9.792   3.057   0.536
30522W        W 2782  20.179  22.192   3.623
30523W        W 2783  18.503  25.925  13.915
30524W        W 2784   8.812  42.461   4.271
30525W        W 2785  25.675  30.960   1.392
30526W        W 2786   4.429  22.932  10.613
30527W        W 2787  33.896  40.891   2.779
30528W        W 2788  36.537  26.772   4.109
30529W        W 2789  14.548  38.926  14.578
30530W        W 2790  13.124  12.336  14.384
30531W        W 2791  23.271  27.931  10.567
30532W        W 2792   8.687  25.212  12.170
30533W        W 2793   3.784  29.036   1.744
30534W        W 2794   6.928  19.739   4.516
30535W        W 2795  37.747  32.537   0.316
30536W        W 2796  14.392  16.015  11.660
30537W        W 2797   0.064   4.543   2.779
30538W        W 2798   1.821  44.497  11.530
30539W        W 2799  12.633  22.050   1.998
30540W        W 2800  14.839  15.133  13.486
30541W        W 2801  44.331   0.725  14.800
30542W        W 2802  41.497  27.386   4.092
30543W        W 2803   4.696  35.379   4.547
30544W        W 2804  28.957  40.367  13.833
30545W        W 2805  11.490  23.751   3.274
30546W        W 2806  17.126  25.290   5.061
30547W        W 2807  19.957   1.512  11.876
30548W        W 2808  30.026  33.871  10.737
30549W        W 2809  39.297  21.619   3.710
30550W        W 2810  20.510  12.314   0.477
30551W        W 2811  30.018   4.833  14.869
30552W        W 2812  22.866  21.264  13.438
30553W        W 2813  19.207  26.711  11.591
30554W        W 2814   5.595   9.060  12.848
30555W        W 2815  20.209  26.765   4.842
30556W        W 2816   0.670  30.137   0.347
30557W        W 2817   0.326  37.784  11.384
30558W        W 2818  29.690   0.200   4.054
30559W        W 2819  24.734  16.861   1.062
30560W        W 2820  40.033  43.366  12.002
30561W        W 2821  28.458  17.629  10.542
30562W        W 2822  10.929  22.540  14.943
30563W        W 2823  44.700  26.929   4.712
30564W        W 2824   9.328  32.975   1.384
30565W        W 2825   2.300  37.508  13.433
30566W        W 2826  11.767  14.813   0.458
30567W        W 2827   6.389  39.414  12.947
30568W        W 2828  35.103  43.407   3.193
30569W        W 2829   0.373  44.535   1.164
30570W        W 2830   1.583  32.366   0.600
30571W        W 2831   0.448  37.502  14.314
30572W        W 2832  43.770  22.377   0.489
30573W        W 2833  38.567  35.634   3.427
30574W        W 2834  18.558  29.590   1.414
30575W        W 2835  25.994  43.023   3.804
30576W        W 2836  27.190  16.338  14.520
30577W        W 2837  39.555  17.988   2.259
30578W        W 2838  29.191  23.385   2.266
30579W        W 2839  32.043  10.003  10.255
30580W        W 2840  10.015  24.697  14.478
30581W        W 2841  17.118   7.755   3.868
30582W        W 2842  36.734   2.724   1.735
30583W        W 2843   3.334  14.540   2.067
30584W        W 2844  10.646   8.885  13.024
30585W        W 2845   3.710  14.349  14.398
30586W        W 2846  21.066   2.787  11.203
30587W        W 2847  39.893   0.479  10.953
30588W        W 2848  42.992  13.184   3.851
30589W        W 2849  44.251  16.287  14.779
30590W        W 2850  25.245  30.028  10.482
30591W        W 2851  24.462   0.479   1.614
30592W        W 2852  31.712  43.928   4.612
30593W        W 2853  25.580  18.594   3.978
30594W        W 2854  22.907  42.994   3.730
30595W        W 2855  13.346  17.832   0.364
30596W        W 2856   9.202  30.360  13.959
30597W        W 2857   5.256  35.917  12.575
30598W        W 2858  19.661   1.808  13.237
30599W        W 2859  32.965   7.242   2.620
30600W        W 2860  36.572  25.044  12.477
30601W        W 2861  27.199  12.189   4.712
30602W        W 2862  12.394  26.386   0.462
30603W        W 2863  18.744  10.891   4.131
30604W        W 2864   0.960  34.584  13.489
30605W        W 2865  38.488   9.903  10.185
30606W        W 2866  40.371  40.337  11.220
30607W        W 2867  42.998  28.927  13.372
30608W        W 2868   3.923  44.397   0.070
30609W        W 2869  19.205   9.430   1.529
30610W        W 2870  19.915  38.095   2.242
30611W        W 2871  29.474  40.316   1.460
30612W        W 2872  10.929  35.143   2.230
30613W        W 2873  32.094  21.051  13.576
30614W        W 2874  32.908  40.908  13.384
30615W        W 2875   6.092  16.164   2.890
30616W        W 2876   2.955  17.321  14.995
30617W        W 2877  17.861  18.301   4.641
30618W        W 2878  36.614   8.120   2.752
30619W        W 2879  31.253   1.711  14.352
30620W        W 2880  24.219   1.798   3.724
30621W        W 2881  23.592   9.502  12.476
30622W        W 2882  44.208  27.610   3.704
30623W        W 2883  31.863   5.982   4.492
30624W        W 2884  13.895   2.329  14.042
30625W        W 2885  14.536  37.249  13.095
30626W        W 2886  44.813  32.013  12.945
30627W        W 2887  34.676  15.998   4.114
30628W        W 2888   8.667  15.247  13.830
30629W        W 2889  34.685  12.309  13.931
30630W        W 2890   4.191  38.621  14.321
30631W        W 2891   7.645  18.798   2.400
30632W        W 2892  15.351   8.173  14.808
30633W        W 2893  28.437  42.241   0.249
30634W        W 2894  36.833  17.315  11.216
30635W        W 2895  16.732  27.113  14.271
30636W        W 2896  28.978  40.382   4.663
30637W        W 2897  19.982  11.396  12.443
30638W        W 2898  39.235  25.701   1.017
30639W        W 2899  37.835  28.955   4.131
30640W        W 2900   6.876  24.753   0.311
30641W        W 2901  26.932  10.890  11.668
30642W        W 2902  38.994  41.025   4.531
30643W        W 2903   0.911   3.751  11.038
30644W        W 2904  19.180   6.749  12.507
30645W        W 2905  33.061  27.914   4.251
30646W        W 2906  19.685   5.412  10.601
30647W        W 2907   8.457  33.419   2.083
30648W        W 2908   8.506  33.165  12.433
30649W        W 2909   0.900  22.895  13.794
30650W        W 2910  20.028  20.111   1.348
30651W        W 2911  11.086  15.644  11.961
30652W        W 2912  14.061  30.538  12.548
30653W        W 2913  42.352   6.946   2.826
30654W        W 2914  35.550  43.448   0.534
30655W        W 2915  25.454  20.521  11.981
30656W        W 2916  43.133  24.788   0.933
30657W        W 2917  34.989  40.872  13.852
30658W        W 2918  23.132   3.536  14.922
30659W        W 2919  38.756  38.675   1.311
30660W        W 2920  26.397  26.235  12.398
30661W        W 2921  39.450  44.356   0.237
30662W        W 2922  38.963  28.848  12.421
30663W        W 2923  29.757  42.525   2.206
30664W        W 2924  34.097   1.240  13.845
30665W        W 2925  38.729  25.250  13.889
30666W        W 2926   5.509  13.161   3.086
30667W        W 2927  27.712  24.026  11.219
30668W        W 2928  41.452  18.499   1.295
30669W        W 2929  28.612  15.695   2.744
30670W        W 2930  31.679  40.979   4.366
30671W        W 2931   0.126  28.603  13.601
30672W        W 2932  17.571  22.391  10.619
30673W        W 2933  28.732   6.169  10.782
30674W        W 2934  41.863  20.380   1.379
30675W        W 2935  42.641  23.763  14.038
30676W        W 2936   8.258  22.395   3.442
30677W        W 2937  13.667  34.116   3.905
30678W        W 2938  43.983  19.292  12.398
30679W        W 2939  33.468  36.345   0.864
30680W        W 2940  26.230  22.496  12.003
30681W        W 2941  44.045  28.991   1.861
30682W        W 2942  13.319   6.931  13.459
30683W        W 2943  38.442   6.515  11.320
30684W        W 2944  25.600  13.220   4.524
30685W        W 2945  43.381  13.289   2.178
30686W        W 2946  29.472  33.528  14.958
30687W        W 2947   2.613  18.677  14.478
30688W        W 2948  12.643  32.200  12.916
30689W        W 2949  21.647  13.707   3.763
30690W        W 2950  17.352   6.248   2.488
30691W        W 2951  13.301   7.792  14.391
30692W        W 2952  39.060  15.850   2.155
30693W        W 2953  33.043   1.231  10.660
30694W        W 2954  23.748  34.253   2.807
30695W        W 2955  40.345   1.414   3.147
30696W        W 2956  23.150   3.838  11.595
30697W        W 2957   7.111   4.760   0.552
30698W        W 2958  20.454  30.031   3.502
30699W        W 2959   1.837   6.910   4.095
30700W        W 2960   3.351   3.299  12.943
30701W        W 2961  38.899  34.922   3.312
30702W        W 2962  41.924  34.582   3.744
30703W        W 2963  29.388  31.383  12.590
30704W        W 2964   2.023  38.315   4.052
30705W        W 2965   1.954  31.208  13.421
30706W        W 2966  12.464  37.459   4.959
30707W        W 2967  44.627  29.899   9.890
30708W        W 2968  43.812  36.895   4.092
30709W        W 2969   7.433  14.205   2.167
30710W        W 2970   5.347   8.753   3.773
30711W        W 2971  21.147  13.866  13.025
30712W        W 2972  32.092  28.604   3.878
30713W        W 2973  38.490  17.070   3.919
30714W        W 2974  10.746  44.438   2.177
30715W        W 2975  13.787   1.955   3.251
30716W        W 2976  14.732  28.381  11.519
30717W        W 2977  28.004  17.812  14.922
30718W        W 2978   1.315   6.835  11.257
30719W        W 2979  25.225  37.931  13.750
30720W        W 2980  27.567  31.921  13.416
30721W        W 2981  26.228  27.109   2.653
30722W        W 2982   8.298  39.847   0.262
30723W        W 2983   6.792  30.105  12.867
30724W        W 2984  10.242  31.179  10.674
30725W        W 2985  15.362  12.550  14.713
30726W        W 2986   6.694  25.696   0.587
30727W        W 2987  43.488  33.870   2.328
30728W        W 2988  40.834  27.994  11.662
30729W        W 2989  30.664  28.085   0.360
30730W        W 2990  19.576   6.361  12.599
30731W        W 2991  22.303  12.200  13.888
30732W        W 2992  11.270  17.783  12.412
30733W        W 2993  15.513  11.848  12.998
30734W        W 2994  22.005  15.160  11.006
30735W        W 2995  14.726  17.072   3.798
30736W        W 2996  19.772   2.967  13.233
30737W        W 2997  36.976  42.887  12.619
30738W        W 2998   7.450  35.075  12.527
30739W        W 2999  35.827  35.178   2.793
30740W        W 3000  40.301  27.864   2.590
30741W        W 3001   3.897  33.954   1.648
30742W        W 3002  26.990  43.272  14.858
30743W        W 3003  26.503  16.474  14.111
30744W        W 3004  17.178  10.818  12.306
30745W        W 3005  20.711  22.332  10.470
30746W        W 3006   4.311   6.364   3.837
30747W        W 3007  27.955  22.999   1.738
30748W        W 3008  25.526  19.548   0.647
30749W        W 3009  41.035  25.156  14.496
30750W        W 3010   2.689  41.742  12.453
30751W        W 3011  19.281  44.781   1.358
30752W        W 3012   3.399  28.172  11.462
30753W        W 3013  26.678  17.080   4.137
30754W        W 3014  41.659  13.887  10.534
30755W        W 3015   9.724  39.003   3.425
30756W        W 3016  11.938   8.450  13.096
30757W        W 3017  31.038  17.229   3.372
30758W        W 3018  30.473  43.975   2.410
30759W        W 3019  38.577  16.675  11.848
30760W        W 3020   4.463  31.476   2.663
30761W        W 3021   4.837  44.274  10.917
30762W        W 3022  44.711   2.478   2.953
30763W        W 3023  32.249  13.878  12.368
30764W        W 3024  44.485  41.820  12.493
30765W        W 3025   6.122  33.193  10.927
30766W        W 3026  35.610  25.216   1.595
30767W        W 3027  39.987  34.656  13.088
30768W        W 3028  41.368  14.244   2.208
30769W        W 3029  30.673  32.402  10.595
30770W        W 3030   4.641  15.179   4.258
30771W        W 3031  29.235  38.435  11.807
30772W        W 3032  22.644  21.976  12.621
30773W        W 3033   4.707  10.351  12.523
30774W        W 3034  31.991   9.936  11.088
30775W        W 3035  43.706  14.726  14.504
30776W        W 3036   7.278  30.839   0.779
30777W        W 3037  11.878   5.205  13.996
30778W        W 3038  33.036  43.794   3.387
30779W        W 3039  25.508   7.739   3.309
30780W        W 3040  28.464  10.603  13.965
30781W        W 3041  32.663  38.846   3.208
30782W        W 3042   0.934  12.650   1.208
30783W        W 3043  23.082   7.491   3.866
30784W        W 3044   0.280  23.493  11.434
30785W        W 3045  17.256  35.824   4.422
30786W        W 3046  21.399   1.145  11.112
30787W        W 3047  24.018  24.666   2.422
30788W        W 3048  35.814  41.295  13.571
30789W        W 3049   9.412  14.851   3.641
30790W        W 3050  27.611  36.639   2.400
30791W        W 3051  41.789  15.315   1.707
30792W        W 3052   2.842  22.346  12.132
30793W        W 3053  31.480  44.092  11.168
30794W        W 3054   5.335  12.756  13.604
30795W        W 3055  30.105  38.468  14.075
30796W        W 3056  15.289  33.981   4.927
30797W        W 3057  15.849  31.569   1.410
30798W        W 3058  32.962  28.252  14.460
30799W        W 3059   7.276   7.325  14.645
30800W        W 3060  41.352  35.367  11.483
30801W        W 3061  19.671  25.195  12.023
30802W        W 3062  18.800   6.558   4.762
30803W        W 3063  25.913  41.457   4.156
30804W        W 3064  34.001  14.675   2.815
30805W        W 3065   1.047   6.874  11.701
30806W        W 3066  17.808  40.432   2.334
30807W        W 3067  11.775   6.872  10.662
30808W        W 3068  39.858  29.696   0.427
30809W        W 3069  16.694  23.794  13.661
30810W        W 3070  25.916  35.614  14.497
30811W        W 3071  29.988  37.851   3.159
30812W        W 3072  26.628  40.380   4.675
30813W        W 3073  32.901  30.673  11.699
30814W        W 3074  38.105  44.484   2.214
30815W        W 3075  16.227  19.378  12.681
30816W        W 3076   1.748  20.207   2.954
30817W        W 3077  21.651  43.209  13.122
30818W        W 3078   9.350  27.955   1.361
30819W        W 3079   9.936  36.933  14.754
30820W        W 3080  12.685  28.367   3.314
30821W        W 3081  25.710  23.484  11.685
30822W        W 3082   9.462  23.309  11.059
30823W        W 3083  12.779  32.689   1.829
30824W        W 3084  36.068  23.439   1.923
30825W        W 3085  33.455   3.767  12.992
30826W        W 3086  27.193  41.507   4.648
30827W        W 3087  17.801  40.255  14.036
30828W        W 3088  43.265  22.144   1.742
30829W        W 3089   6.802  34.937  11.055
30830W        W 3090  23.997   4.403   4.419
30831W        W 3091   2.831  31.437   1.872
30832W        W 3092   8.856  11.867   3.787
30833W        W 3093  19.787  43.876  14.381
30834W        W 3094  17.259  39.142   0.225
30835W        W 3095  17.569   2.568   3.259
30836W        W 3096  20.954  38.876   2.166
30837W        W 3097  38.057  32.856   4.209
30838W        W 3098  23.492  14.570   4.130
30839W        W 3099  29.566  29.114   5.013
30840W        W 3100  44.780  29.444   1.155
30841W        W 3101  12.653   7.588   1.423
30842W        W 3102  17.754  42.402  13.435
30843W        W 3103  43.776   3.627  13.445
30844W        W 3104  11.814  20.730  14.784
30845W        W 3105   1.835  38.002   0.745
30846W        W 3106  38.871  28.551   2.313
30847W        W 3107  33.653   4.788   1.760
30848W        W 3108   1.862  36.794  10.467
30849W        W 3109  35.679  10.652  14.744
30850W        W 3110  28.869  42.893  11.090
30851W        W 3111  27.127  32.831   2.745
30852W        W 3112   6.153  37.146   3.148
30853W        W 3113  36.032   1.235   4.845
30854W        W 3114  25.667   0.572  12.493
30855W        W 3115   3.256   6.780   0.719
30856W        W 3116  23.526  18.066  14.835
30857W        W 3117  30.925  26.118  13.544
30858W        W 3118  13.850   5.236   1.362
30859W        W 3119  39.230  36.043  13.427
30860W        W 3120  22.286   4.311  14.407
30861W        W 3121  39.492   6.308   3.831
30862W        W 3122   6.898  34.445   3.576
30863W        W 3123  10.680  19.735   2.889
30864W        W 3124  40.974   1.042  12.556
30865W        W 3125   6.354  37.009  12.345
30866W        W 3126  29.422  41.951  12.954
30867W        W 3127   4.735  15.411   2.716
30868W        W 3128   6.723  20.128  13.078
30869W        W 3129  27.424  10.409   2.067
30870W        W 3130  14.339  31.436  13.463
30871W        W 3131  14.308  39.595   3.892
30872W        W 3132   8.863  23.706  10.614
30873W        W 3133  44.481  12.270  14.179
30874W        W 3134  26.701   9.770  14.312
30875W        W 3135  38.962  12.434  11.763
30876W        W 3136  35.110  12.305  12.986
30877W        W 3137  31.516  14.783   0.698
30878W        W 3138  35.297  30.565   0.856
30879W        W 3139   8.262  27.439   1.737
30880W        W 3140   2.862  38.444  10.675
30881W        W 3141   6.270   2.548  14.344
30882W        W 3142  27.617  42.347  12.702
30883W        W 3143  33.679  35.466  13.911
30884W        W 3144   5.281   4.359  14.099
30885W        W 3145  19.118  26.217   3.349
30886W        W 3146  23.043   8.219   0.693
30887W        W 3147  37.330  12.650   3.666
30888W        W 3148   7.332  27.989  13.045
30889W        W 3149  29.141   7.109  12.312
30890W        W 3150  37.413  18.054  11.565
30891W        W 3151  30.897  16.159   4.536
30892W        W 3152   4.462   4.743   4.542
30893W        W 3153  35.155  35.110  12.573
30894W        W 3154   3.893  14.379  13.091
30895W        W 3155   6.548  40.129   4.206
30896W        W 3156  25.470  41.445   1.032
30897W        W 3157  34.076   4.816  11.016
30898W        W 3158  43.374  32.862  11.187
30899W        W 3159  11.536   6.856   4.199
30900W        W 3160  43.246  24.548  10.795
30901W        W 3161  11.652  17.022  14.286
30902W        W 3162   8.202  32.623   0.327
30903W        W 3163  40.009  41.824   0.963
30904W        W 3164  41.484  36.209  12.993
30905W        W 3165  25.878  38.911  11.009
30906W        W 3166  28.402  36.050   4.604
30907W        W 3167  19.273  38.962   3.811
30908W        W 3168  14.233  22.993  13.861
30909W        W 3169  44.263  29.349   1.507
30910W        W 3170  22.077  29.098   3.426
30911W        W 3171  12.454  35.111  11.118
30912W        W 3172  32.401   2.236  11.207
30913W        W 3173  10.277  17.032  14.066
30914W        W 3174   2.989   0.216   2.263
30915W        W 3175  29.458  30.568   3.523
30916W        W 3176  35.089  17.869  11.718
30917W        W 3177  31.913  19.975   2.714
30918W        W 3178   3.679   5.633   4.074
30919W        W 3179  25.135  14.701   4.492
30920W        W 3180  43.407  44.551   1.904
30921W        W 3181  15.697  33.139   2.802
30922W        W 3182  39.891  36.418  11.588
30923W        W 3183  26.676  28.415   0.169
30924W        W 3184  39.030  36.651  11.584
30925W        W 3185  32.966  25.466   4.251
30926W        W 3186  10.749  33.126  14.080
30927W        W 3187  34.574  29.097   1.672
30928W        W 3188  20.210   8.101  11.103
30929W        W 3189  36.056   3.487  11.742
30930W        W 3190  16.525  35.067  12.481
30931W        W 3191   8.996  26.999  12.947
30932W        W 3192  23.216  40.805  10.460
30933W        W 3193  25.680  44.367   2.885
30934W        W 3194  42.269  15.251   4.132
30935W        W 3195  28.192  26.622   0.769
30936W        W 3196  39.987  38.550  13.478
30937W        W 3197  26.858  26.054  12.546
30938W        W 3198  22.684  37.777   1.205
30939W        W 3199  14.419  22.894   3.656
30940W        W 3200   6.386  13.299  13.704
30941W        W 3201  33.099   1.440  11.149
30942W        W 3202   5.768  20.171  12.819
30943W        W 3203  24.923  34.401   4.071
30944W        W 3204  10.375  33.239   3.424
30945W        W 3205  42.409  39.483  13.429
30946W        W 3206  14.048  29.859  10.983
30947W        W 3207  23.135  17.225  13.567
30948W        W 3208  31.314  39.676  11.687
30949W        W 3209  16.053   1.150   4.026
30950W        W 3210   2.109   3.742   0.906
30951W        W 3211  43.318   5.694   1.665
30952W        W 3212  28.118  26.381  13.894
30953W        W 3213  37.737  19.442   3.390
30954W        W 3214  41.364  44.199  13.467
30955W        W 3215  11.699  36.460  13.576
30956W        W 3216  39.290  44.733   2.796
30957W        W 3217  31.375  33.903  11.619
30958W        W 3218   8.424  12.759   3.871
30959W        W 3219  19.350  32.411   3.771
30960W        W 3220  40.437  22.948   4.533
30961W        W 3221  26.087  33.901   2.179
30962W        W 3222   6.674  32.526   3.178
30963W        W 3223  44.069  10.195  14.775
30964W        W 3224  33.891  28.379  12.550
30965W        W 3225  40.076  17.305  11.150
30966W        W 3226  12.735  11.919  11.667
30967W        W 3227  36.421  16.042   0.864
30968W        W 3228   1.292  27.155   2.775
30969W        W 3229  19.619  35.992  12.931
30970W        W 3230  18.045  18.841   0.307
30971W        W 3231  14.303  10.299  11.159
30972W        W 3232  24.278   0.609   4.422
30973W        W 3233  36.771  42.787  12.139
30974W        W 3234  17.318  42.100  11.610
30975W        W 3235  30.504   0.466   2.278
30976W        W 3236  16.536  35.818   3.219
30977W        W 3237  22.529   6.418   0.287
30978W        W 3238  21.286  16.213   1.830
30979W        W 3239  15.800  30.554  13.325
30980W        W 3240  37.349   4.798  12.077
30981W        W 3241  36.028  19.258   3.669
30982W        W 3242  26.614   5.771   1.910
30983W        W 3243  21.102  22.701   3.696
30984W        W 3244  14.584  29.087   1.068
30985W        W 3245  43.382  37.590   4.131
30986W        W 3246   5.085  19.689   4.430
30987W        W 3247  32.105  37.047   3.306
30988W        W 3248   1.248  39.705  11.177
30989W        W 3249  43.279  33.367   0.372
30990W        W 3250  38.470  33.976   0.706
30991W        W 3251  20.345  17.635   0.772
30992W        W 3252   6.427  39.118   4.435
30993W        W 3253  27.459  40.995  14.777
30994W        W 3254  42.975   5.646   1.254
30995W        W 3255  32.448  37.214   0.867
30996W        W 3256  29.596  44.733  11.288
30997W        W 3257   7.309  43.597  13.122
30998W        W 3258  21.510   5.880  14.041
30999W        W 3259  44.857  14.935   3.168
31000W        W 3260  44.354  35.033   5.517
31001W        W 3261  27.367  12.187   0.679
31002W        W 3262   4.223  11.393   3.148
31003W        W 3263  17.054   0.472  10.631
31004W        W 3264  37.531   2.935  14.856
31005W        W 3265  43.506   5.675  12.535
31006W        W 3266  41.910  36.001   3.123
31007W        W 3267   4.930  23.968  11.673
31008W        W 3268  16.877  29.543  13.328
31009W        W 3269  38.077  30.618   3.702
31010W        W 3270   3.656   4.667  13.613
31011W        W 3271  18.257   5.841  14.321
31012W        W 3272   9.934  29.383   1.668
31013W        W 3273  42.585  32.894   0.510
31014W        W 3274  39.261  16.820   1.247
31015W        W 3275  14.728  41.469   3.166
31016W        W 3276   4.974  12.049   1.745
31017W        W 3277  17.005  19.626  14.516
31018W        W 3278  29.699  29.455   2.188
31019W        W 3279  23.190  31.673  13.753
31020W        W 3280  43.481  41.453  12.904
31021W        W 3281   3.367   3.332   0.386
31022W        W 3282  14.261  37.402  12.159
31023W        W 3283  27.697  41.249   1.812
31024W        W 3284   7.391  22.185   1.538
31025W        W 3285  40.426  15.089  12.908
31026W        W 3286   6.889  33.415   4.320
31027W        W 3287   7.732  42.431  14.337
31028W        W 3288  35.253  15.294  10.439
31029W        W 3289  14.293  10.682  13.818
31030W        W 3290  10.773  41.219   2.430
31031W        W 3291  23.595  12.973   1.772
31032W        W 3292  35.951  29.592   3.231
31033W        W 3293   8.968  16.735   2.201
31034W        W 3294  34.076  26.523  11.525
31035W        W 3295   3.791   7.996   2.718
31036W        W 3296   2.017  11.637   3.257
31037W        W 3297  26.531  27.877   1.957
31038W        W 3298  34.184  29.036   0.358
31039W        W 3299  35.017  28.205  13.772
31040W        W 3300   1.061   4.769  14.494
31041W        W 3301   5.396  16.114   4.631
31042W        W 3302  14.482   1.477   0.480
31043W        W 3303  34.140  40.961  14.949
31044W        W 3304   8.246  36.768  10.686
31045W        W 3305  33.805  22.561   1.887
31046W        W 3306   8.286  44.386   1.325
31047W        W 3307  16.768  12.358   1.457
31048W        W 3308  33.332  22.606  12.503
31049W        W 3309   2.473  16.294   3.226
31050W        W 3310  33.095  15.067   2.836
31051W        W 3311  31.042  15.408   0.503
31052W        W 3312   8.420  27.571   5.116
31053W        W 3313  10.605  28.178  14.283
31054W        W 3314  24.411  15.150   0.300
31055W        W 3315  21.037   2.438   3.931
31056W        W 3316  23.048  39.555  10.727
31057W        W 3317  33.951  27.092  10.813
31058W        W 3318  42.413  13.718   4.241
31059W        W 3319  19.791  26.556   1.541
31060W        W 3320  38.829  16.709   4.223
31061W        W 3321   2.235  13.752  12.668
31062W        W 3322  18.337  35.589  14.161
31063W        W 3323  35.986  40.117  14.435
31064W        W 3324  26.043  12.093   0.841
31065W        W 3325  10.178  10.141  12.532
31066W        W 3326  29.894   1.211  13.076
31067W        W 3327  25.964  16.829   0.686
31068W        W 3328  35.924  26.557   3.419
31069W        W 3329  31.053  27.346  11.529
31070W        W 3330  29.211   0.252   3.206
31071W        W 3331  29.196   8.185  13.707
31072W        W 3332  37.057   7.672   0.719
31073W        W 3333  28.623  25.644  12.497
31074W        W 3334  21.520  23.960  11.539
31075W        W 3335  30.940  33.879  11.296
31076W        W 3336  15.123  19.662  13.238
31077W        W 3337  20.297  39.823   0.859
31078W        W 3338  29.621  32.100  14.824
31079W        W 3339  18.548  17.715   1.319
31080W        W 3340  29.502  27.424   3.164
31081W        W 3341   8.907   1.749  10.862
31082W        W 3342  24.030  42.513  13.077
31083W        W 3343  39.037   9.778   2.799
31084W        W 3344   7.392  24.013   0.453
31085W        W 3345  21.799   1.864   4.167
31086W        W 3346   2.806  10.780   0.391
31087W        W 3347  13.765  18.716  11.350
31088W        W 3348  37.752   1.525  10.625
31089W        W 3349  19.066  30.941   0.684
31090W        W 3350  28.999  31.363   1.728
31091W        W 3351  29.561   6.615   1.813
31092W        W 3352   2.495   1.931  14.559
31093W        W 3353  19.517  35.959  12.428
31094W        W 3354  43.427  36.048  14.996
31095W        W 3355  44.478  37.445   2.137
31096W        W 3356  41.358  33.919  12.997
31097W        W 3357  35.317  15.738   2.897
31098W        W 3358  38.420   3.145  13.927
31099W        W 3359  21.848  14.194  14.163
31100W        W 3360   4.399  27.954   4.508
31101W        W 3361  39.387  21.066   4.508
31102W        W 3362  35.473   9.513   0.075
31103W        W 3363  14.340  36.524  10.583
31104W        W 3364   9.159  30.384   0.515
31105W        W 3365  10.044  12.697   0.408
31106W        W 3366  40.342  28.171  12.451
31107W        W 3367  23.492  25.954   4.224
31108W        W 3368  19.680  24.281   2.347
31109W        W 3369   0.531  32.389   2.672
31110W        W 3370  15.895  25.638  12.124
31111W        W 3371   1.432  34.787   0.282
31112W        W 3372  20.975  19.684  12.358
31113W        W 3373  16.592   4.299  10.966
31114W        W 3374  20.275   8.600  11.102
31115W        W 3375  26.497  33.583  12.021
31116W        W 3376  30.369  15.099  12.246
31117W        W 3377   2.354   6.387  14.945
31118W        W 3378  44.713  11.790   3.387
31119W        W 3379  24.701  38.080  13.720
31120W        W 3380  22.691   5.943  11.083
31121W        W 3381  11.236   1.949  10.739
31122W        W 3382  16.768  12.355  12.907
31123W        W 3383   6.938   6.400   3.182
31124W        W 3384  34.438  27.142   1.150
31125W        W 3385  15.073  29.346  10.588
31126W        W 3386  41.148  14.763  12.392
31127W        W 3387  32.352  30.229  11.459
31128W        W 3388  33.377  13.191  12.133
31129W        W 3389   5.709  13.174  12.862
31130W        W 3390  12.315  14.687  10.677
31131W        W 3391  37.120   6.856  14.447
31132W        W 3392  12.812   4.333  11.869
31133W        W 3393  35.788   8.257  12.184
31134W        W 3394  29.172  41.510   1.710
31135W        W 3395  11.921  37.845   2.853
31136W        W 3396  18.759   0.901  12.983
31137W        W 3397  37.041  36.475   3.411
31138W        W 3398   2.284  20.213   3.020
31139W        W 3399  27.244   6.840   0.139
31140W        W 3400  10.735  36.281  12.599
31141W        W 3401  16.819  24.708  14.902
31142W        W 3402  19.445   1.401  10.630
31143W        W 3403  32.989  21.473  12.557
31144W        W 3404   8.337  34.570   0.991
31145W        W 3405  23.644  36.995   3.804
31146W        W 3406  25.950  41.023  12.953
31147W        W 3407  25.999  12.580   1.002
31148W        W 3408  19.805  14.175   4.651
31149W        W 3409  17.318  44.511   3.840
31150W        W 3410  33.388  41.398   2.347
31151W        W 3411  39.903  36.614  13.144
31152W        W 3412  42.211  33.873  13.819
31153W        W 3413  44.288  35.433   3.854
31154W        W 3414  30.921  22.590   3.469
31155W        W 3415   5.188  37.500   0.788
31156W        W 3416  21.066  31.623  11.085
31157W        W 3417  37.810   1.405   1.811
31158W        W 3418  43.596   2.901  10.575
31159W        W 3419  29.948   1.978  13.898
31160W        W 3420  44.518  35.348   3.407
31161W        W 3421  40.092  23.638   0.137
31162W        W 3422  40.519  21.314   0.688
31163W        W 3423  31.226  15.225  10.699
31164W        W 3424  12.163  43.327  14.110
31165W        W 3425   8.377   4.998  13.548
31166W        W 3426  42.824  36.707  10.950
31167W        W 3427   7.776  22.934  12.924
31168W        W 3428  26.513   0.861  10.986
31169W        W 3429  40.748  26.258  13.518
31170W        W 3430  38.244  10.463  12.017
31171W        W 3431  39.857   4.380   4.812
31172W        W 3432  29.198  36.433  10.684
31173W        W 3433  34.504   4.262  11.584
31174W        W 3434  27.191  37.917  10.398
31175W        W 3435  21.460   5.001  14.053
31176W        W 3436  28.292  17.008   2.241
31177W        W 3437   2.490   9.778  11.687
31178W        W 3438  40.527   6.542   5.066
31179W        W 3439  43.726  44.029  10.321
31180W        W 3440   2.530  31.330   0.889
31181W        W 3441  25.691  11.258   0.808
31182W        W 3442  14.652  21.716  13.869
31183W        W 3443  20.906   6.374  10.690
31184W        W 3444   3.798  15.742   2.369
31185W        W 3445   6.387  11.836  10.288
31186W        W 3446  32.139  32.474  13.284
31187W        W 3447   7.412   9.221   0.930
31188W        W 3448  37.815   6.603  10.394
31189W        W 3449   9.496  16.633  10.775
31190W        W 3450  35.892  11.276  13.440
31191W        W 3451  26.082   6.173   2.882
31192W        W 3452   3.822   5.784   0.236
31193W        W 3453   4.773  13.246  11.350
31194W        W 3454   1.729   4.685  12.290
31195W        W 3455  16.662  30.101   3.241
31196W        W 3456   4.404   8.980  11.091
31197W        W 3457   4.378  33.378   2.670
31198W        W 3458  41.353  40.446   1.391
31199W        W 3459   4.504  36.491   1.410
31200W        W 3460  30.076  20.202  11.283
31201W        W 3461   6.652  32.629   1.730
31202W        W 3462  37.292  34.823  11.678
31203W        W 3463  14.084  20.726  11.132
31204W        W 3464   6.892  15.936  14.303
31205W        W 3465  25.652  40.382  12.378
31206W        W 3466   5.939  31.183   3.239
31207W        W 3467  26.015  32.127   3.652
31208W        W 3468   2.200  38.645  12.075
31209W        W 3469  19.216  39.020   0.006
31210W        W 3470  23.796  28.115  13.012
31211W        W 3471   0.855  38.908  11.703
31212W        W 3472  23.545  12.319  14.478
31213W        W 3473  39.746  27.414  14.959
31214W        W 3474  42.022  17.523   0.541
31215W        W 3475  28.583  13.339   2.090
31216W        W 3476   7.231  16.244  11.203
31217W        W 3477   4.461  21.576  14.355
31218W        W 3478  39.376  12.213  13.828
31219W        W 3479  19.107  39.062   1.027
31220W        W 3480  20.994  12.715  14.854
31221W        W 3481  19.524   7.584  12.030
31222W        W 3482  11.370  34.050   0.192
31223W        W 3483  36.966  33.998   3.335
31224W        W 3484  24.070  11.274   1.202
31225W        W 3485  19.226   4.851  13.550
31226W        W 3486  32.493   6.811  10.639
31227W        W 3487   2.460  28.042  10.738
31228W        W 3488  37.581   6.193   5.042
31229W        W 3489   1.706  27.455  11.146
31230W        W 3490   0.387  22.818  12.077
31231W        W 3491  10.308  32.841   4.399
31232W        W 3492   1.871  10.699   1.093
31233W        W 3493  19.085  25.916  13.928
31234W        W 3494   6.955   8.207  14.321
31235W        W 3495  11.450  27.202   3.653
31236W        W 3496  30.156  28.994  11.995
31237W        W 3497  42.026  28.512   1.459
31238W        W 3498   5.616  11.082   2.685
31239W        W 3499  38.999  26.155   1.232
31240W        W 3500  26.973  20.587   0.629
31241W        W 3501  15.530  18.602  10.736
31242W        W 3502  25.178  35.978  11.129
31243W        W 3503  33.056  22.881   2.120
31244W        W 3504  25.040  30.121  13.119
31245W        W 3505  20.113   5.274  12.023
31246W        W 3506   7.643  39.886  10.388
31247W        W 3507  34.494   0.814  12.060
31248W        W 3508   3.892  40.389  10.456
31249W        W 3509  19.742  11.197   2.820
31250W        W 3510  38.248   4.442  11.038
31251W        W 3511   4.991  27.207  13.433
31252W        W 3512   1.061  21.050   2.688
31253W        W 3513   3.496  27.101  14.344
31254W        W 3514  12.728  44.963  11.890
31255W        W 3515  32.042  38.263  12.538
31256W        W 3516   0.722   8.630   5.107
31257W        W 3517  41.283  38.038   2.436
31258W        W 3518  12.759  16.707   1.371
31259W        W 3519  15.361  35.074   0.477
31260W        W 3520  23.771  32.911   2.768
31261W        W 3521  44.283  18.585  10.737
31262W        W 3522   2.948   0.775   1.964
31263W        W 3523  40.221  27.637   1.667
31264W        W 3524  18.057  32.039  10.850
31265W        W 3525  24.512  34.154  13.199
31266W        W 3526  27.516  29.428  12.835
31267W        W 3527   9.330  16.684   0.875
31268W        W 3528  32.077  24.456   1.319
31269W        W 3529  34.466  21.125   4.256
31270W        W 3530  33.259   9.523   2.002
31271W        W 3531  23.554  10.795  14.798
31272W        W 3532  35.460  27.230   0.484
31273W        W 3533  40.097  39.988   0.390
31274W        W 3534  38.362  34.691   1.910
31275W        W 3535  22.220  15.548   2.240
31276W        W 3536  31.412  16.074   4.529
31277W        W 3537  18.556  44.525  10.953
31278W        W 3538  30.602  43.417  12.930
31279W        W 3539   8.370  12.105   2.713
31280W        W 3540  39.232  17.694  14.854
31281W        W 3541  19.958   9.750   2.821
31282W        W 3542   6.256   1.659  12.197
31283W        W 3543   5.005   8.747   2.245
31284W        W 3544  16.798  25.188   4.135
31285W        W 3545  41.582  23.720   3.270
31286W        W 3546  39.617  11.698  12.452
31287W        W 3547  26.600   0.388  10.173
31288W        W 3548  42.252   3.636   4.662
31289W        W 3549  30.453  30.920   1.303
31290W        W 3550  24.152  31.084  11.787
31291W        W 3551  30.683   4.533   0.743
31292W        W 3552  32.493   5.819  14.487
31293W        W 3553  29.071   4.684  13.479
31294W        W 3554  12.863  36.547  12.677
31295W        W 3555  30.179  39.162  13.474
31296W        W 3556  35.768   8.404   0.816
31297W        W 3557  36.466  11.959  12.007
31298W        W 3558  15.799  26.050   3.327
31299W        W 3559  35.591  37.616  14.276
31300W        W 3560  41.589  24.589   0.404
31301W        W 3561  28.551  19.179  14.332
31302W        W 3562  34.081  25.996   3.662
31303W        W 3563  14.991  18.135  14.832
31304W        W 3564  27.969  36.127   0.326
31305W        W 3565  27.855   6.288  13.457
31306W        W 3566  24.817   0.106   2.353
31307W        W 3567   3.949  32.918   3.266
31308W        W 3568  23.511   1.393  13.104
31309W        W 3569   4.379   5.189   2.918
31310W        W 3570  25.690  10.974   4.378
31311W        W 3571  27.290  38.101   4.488
31312W        W 3572  27.598  11.644  11.508
31313W        W 3573  30.542  41.245  12.081
31314W        W 3574  25.938  29.115  12.466
31315W        W 3575  21.208   2.700  12.105
31316W        W 3576   1.396  13.859   0.102
31317W        W 3577   5.745  18.744  11.175
31318W        W 3578  24.131  29.124   1.966
31319W        W 3579   3.968  32.725  14.936
31320W        W 3580  40.749  42.567  14.528
31321W        W 3581  30.745   6.755   1.395
31322W        W 3582  34.931  41.824   0.704
31323W        W 3583  24.324   0.789  10.749
31324W        W 3584  18.313  25.687   1.013
31325W        W 3585  24.255  21.752   0.786
31326W        W 3586   4.811   2.276  11.479
31327W        W 3587   6.576  42.474   2.039
31328W        W 3588  44.355   9.569   1.626
31329W        W 3589  40.039   5.667   2.297
31330W        W 3590  22.142  15.052  14.957
31331W        W 3591  40.430  36.124  10.549
31332W        W 3592  29.770  12.765   1.723
31333W        W 3593  23.659  37.542  13.368
31334W        W 3594  36.258  10.237  11.935
31335W        W 3595   8.183  19.758  14.593
31336W        W 3596  18.212  25.551   1.877
31337W        W 3597  38.377  27.269  12.914
31338W        W 3598  42.449  12.060   4.821
31339W        W 3599  39.130  23.317   1.715
31340W        W 3600  24.157  35.216  13.027
31341W        W 3601  20.323   4.269  14.477
31342W        W 3602  41.566  35.141   1.903
31343W        W 3603  33.205  34.959   0.022
31344W        W 3604   2.850  10.862  12.566
31345W        W 3605  10.851   9.155   0.306
31346W        W 3606  34.067  32.096   0.888
31347W        W 3607  26.550  11.792   0.040
31348W        W 3608  29.111  22.477  13.863
31349W        W 3609  24.912  35.392  11.109
31350W        W 3610  30.149  32.109  14.897
31351W        W 3611  30.898  42.968   0.951
31352W        W 3612   7.919  25.947   9.762
31353W        W 3613  29.996  31.657  10.068
31354W        W 3614  26.984  37.181   4.612
31355W        W 3615   5.378  15.296   1.893
31356W        W 3616  27.657  40.543   1.459
31357W        W 3617   6.271  22.896   3.072
31358W        W 3618  13.329  30.590   4.200
31359W        W 3619  23.098   9.482   1.401
31360W        W 3620  42.943  13.220   0.413
31361W        W 3621  11.846   5.251  12.275
31362W        W 3622  41.216  30.540  13.785
31363W        W 3623   8.896  40.891   0.221
31364W        W 3624  22.216  39.930  12.878
31365W        W 3625  38.836  37.531   2.824
31366W        W 3626   7.250  38.456   4.244
31367W        W 3627   4.362  21.069  11.990
31368W        W 3628   7.960   7.603  13.082
31369W        W 3629  18.505  38.490  11.921
31370W        W 3630  36.498  16.257   0.392
31371W        W 3631  32.904  41.182  10.807
31372W        W 3632   1.925  24.120   0.362
31373W        W 3633  13.688   1.447   1.620
31374W        W 3634  23.682  26.029  10.860
31375W        W 3635   4.917   3.211  11.907
31376W        W 3636  44.710  31.453   4.113
31377W        W 3637   8.756  25.489   4.581
31378W        W 3638  44.805  24.983  13.815
31379W        W 3639  11.411  25.847  14.381
31380W        W 3640  19.601  32.412   4.775
31381W        W 3641  35.286  43.169  14.203
31382W        W 3642  11.330   1.605   0.444
31383W        W 3643  41.368  37.392   3.622
31384W        W 3644   5.138  14.605   3.103
31385W        W 3645  36.577  19.775   0.678
31386W        W 3646  39.450  27.576  11.482
31387W        W 3647  18.595  17.087  13.723
31388W        W 3648  19.089  23.054  11.499
31389W        W 3649  34.733  26.229  13.841
31390W        W 3650  14.625  15.206   0.798
31391W        W 3651   0.817   9.875  11.946
31392W        W 3652  13.653  25.963  13.031
31393W        W 3653  43.264  25.993   4.694
31394W        W 3654  28.823  12.414  12.027
31395W        W 3655  18.416  10.470   4.123
31396W        W 3656  36.222  41.137  14.386
31397W        W 3657  36.802  14.812  11.122
31398W        W 3658   0.370  24.598   4.925
31399W        W 3659  42.881   1.985   0.485
31400W        W 3660  39.436  44.240  10.863
31401W        W 3661  16.520  31.121  10.736
31402W        W 3662  22.751  38.162  12.065
31403W        W 3663  10.442  35.082   3.624
31404W        W 3664  33.049  41.908   0.678
31405W        W 3665   8.815   8.812   4.364
31406W        W 3666  39.775  19.131   4.137
31407W        W 3667   3.314  11.172  11.151
31408W        W 3668  21.995  13.520  11.984
31409W        W 3669  10.813  26.555   2.549
31410W        W 3670  21.644  37.542  14.105
31411W        W 3671  39.768  21.303  13.137
31412W        W 3672  13.890  17.357   5.456
31413W        W 3673  13.323  31.058   0.465
31414W        W 3674   7.479   9.814  12.568
31415W        W 3675  24.907   5.239  13.388
31416W        W 3676   4.520   6.484  14.400
31417W        W 3677   5.630  38.619   2.118
31418W        W 3678   1.146  42.414   1.149
31419W        W 3679  25.615  32.891   4.587
31420W        W 3680   5.607   9.891  13.336
31421W        W 3681  23.496   9.837  13.455
31422W        W 3682  13.746  40.192  12.951
31423W        W 3683   8.755   2.215   1.416
31424W        W 3684  25.248  12.818   1.218
31425W        W 3685  27.729  28.138  14.082
31426W        W 3686  10.150  34.494   2.943
31427W        W 3687   3.295  18.660   0.275
31428W        W 3688  29.411  13.682   3.152
31429W        W 3689  44.726  29.403   3.660
31430W        W 3690  43.283   2.426   4.468
31431W        W 3691  27.645  22.574   3.297
31432W        W 3692  17.066  10.380   2.451
31433W        W 3693  30.364  29.436  11.795
31434W        W 3694   1.688  38.474  11.351
31435W        W 3695  11.890  11.545  11.757
31436W        W 3696  41.762   4.856   3.276
31437W        W 3697  44.655  14.449   3.152
31438W        W 3698  41.972   4.210   3.896
31439W        W 3699   3.380   2.321   0.503
31440W        W 3700  38.944  33.987   0.987
31441W        W 3701  10.408  22.738   0.472
31442W        W 3702  40.709  44.936   3.375
31443W        W 3703  16.063  42.486  10.680
31444W        W 3704   2.453  15.893  13.385
31445W        W 3705  14.598  31.647  13.898
31446W        W 3706  44.861  22.573   1.368
31447W        W 3707  38.455  20.565   0.455
31448W        W 3708  35.138  40.815  12.965
31449W        W 3709  29.315  38.551   4.100
31450W        W 3710   4.819  32.306  14.490
31451W        W 3711   3.778  18.047  10.753
31452W        W 3712  36.904  43.989   4.447
31453W        W 3713  41.806  23.701  12.507
31454W        W 3714  37.532  27.044   4.654
31455W        W 3715  21.503  30.119  14.559
31456W        W 3716  20.629   6.485   2.869
31457W        W 3717  25.427  22.856  11.067
31458W        W 3718  16.821  10.230  14.333
31459W        W 3719  39.647   2.537   3.298
31460W        W 3720  25.366  34.006  14.828
31461W        W 3721  30.033  23.197  12.201
31462W        W 3722  23.625  12.565  14.026
31463W        W 3723   2.904  17.704   3.111
31464W        W 3724  22.441   6.799  13.868
31465W        W 3725  20.043  30.530   2.734
31466W        W 3726   3.712   2.568   3.133
31467W        W 3727  29.648  15.023  14.111
31468W        W 3728  17.672  35.167   0.660
31469W        W 3729  20.564  19.253  14.955
31470W        W 3730   4.682  27.209  14.695
31471W        W 3731  16.822  30.099   4.319
31472W        W 3732   6.671  26.285  14.969
31473W        W 3733   0.170  12.911   2.277
31474W        W 3734  18.120   7.789   5.376
31475W        W 3735  21.731   1.780  13.704
31476W        W 3736   8.935  40.960   3.214
31477W        W 3737  23.319  28.749   0.913
31478W        W 3738  15.002  17.796   4.708
31479W        W 3739  15.327  24.464  12.058
31480W        W 3740   8.435  15.870   2.196
31481W        W 3741  15.756  10.452  11.880
31482W        W 3742  23.257  44.965  10.529
31483W        W 3743  25.924  44.826  12.492
31484W        W 3744  34.633  32.061  12.019
31485W        W 3745   0.411  41.400  14.054
31486W        W 3746  24.449  44.795  14.602
31487W        W 3747  25.350   4.812  12.562
31488W        W 3748   8.113  29.376   1.894
31489W        W 3749  28.157  42.068   3.648
31490W        W 3750  43.317  43.299   0.740
31491W        W 3751  36.083   0.410   2.768
31492W        W 3752  38.252   6.264  12.163
31493W        W 3753   9.346   9.051   0.424
31494W        W 3754   6.867  21.186   2.595
31495W        W 3755  26.679  34.660   1.910
31496W        W 3756   7.136  10.581  13.953
31497W        W 3757  13.091  28.588   2.741
31498W        W 3758  34.513  11.135   0.769
31499W        W 3759  30.588  39.571   4.884
31500W        W 3760  39.927   6.683   3.210
31501W        W 3761  19.570  41.979   2.717
31502W        W 3762  33.085   9.287  13.551
31503W        W 3763  21.492   6.135  10.652
31504W        W 3764  21.184  35.501  10.688
31505W        W 3765  32.734  43.948   4.767
31506W        W 3766  37.998  26.466   0.176
31507W        W 3767  25.468  21.091   4.537
31508W        W 3768  20.140  44.363  11.949
31509W        W 3769  15.627  40.544   4.564
31510W        W 3770  38.941   2.502  14.500
31511W        W 3771  27.074   2.012  11.103
31512W        W 3772  12.360  40.615   1.599
31513W        W 3773  31.460  31.424  13.528
31514W        W 3774  17.613  19.694   2.604
31515W        W 3775  40.016  16.072  13.387
31516W        W 3776  18.844  14.813   0.813
31517W        W 3777  41.885  39.305   4.644
31518W        W 3778   1.021  15.688   0.811
31519W        W 3779   8.721  32.179  12.609
31520W        W 3780  23.543   6.162   1.064
31521W        W 3781   7.245  33.570  14.574
31522W        W 3782  14.549  34.413  14.758
31523W        W 3783  32.381  31.081   1.897
31524W        W 3784   4.275  24.461  14.548
31525W        W 3785   4.908  44.196   1.766
31526W        W 3786  26.448  10.680  13.312
31527W        W 3787  26.538  37.601  13.389
31528W        W 3788  24.415  20.732  10.594
31529W        W 3789  21.099   0.067   1.764
31530W        W 3790  36.480   7.844  12.004
31531W        W 3791   2.915   4.947   0.902
31532W        W 3792  11.399  39.668   1.836
31533W        W 3793  42.249   2.371  14.817
31534W        W 3794   0.714  40.444   5.084
31535W        W 3795  14.476  35.788  12.562
31536W        W 3796  12.825  28.028  14.541
31537W        W 3797  18.727   3.578  13.259
31538W        W 3798   9.831  21.800  14.448
31539W        W 3799   1.658  43.580  13.511
31540W        W 3800   8.223   9.302   1.396
31541W        W 3801  39.248  34.549  13.807
31542W        W 3802   0.286   6.676  13.926
31543W        W 3803  29.766  21.502  11.362
31544W        W 3804  25.187  33.427   2.571
31545W        W 3805  42.039  33.516  14.917
31546W        W 3806  44.561  22.762  11.552
31547W        W 3807   1.474  10.799  11.498
31548W        W 3808   0.999  35.390   1.711
31549W        W 3809  28.718   5.785   3.741
31550W        W 3810  32.696  36.147   3.203
31551W        W 3811  21.606  22.679  14.201
31552W        W 3812   0.848  15.783   3.706
31553W        W 3813  18.287  35.147   4.872
31554W        W 3814   7.506  21.795  12.075
31555W        W 3815  40.109   8.392  10.586
31556W        W 3816  20.313  18.560   3.804
31557W        W 3817  12.301  32.184   3.373
31558W        W 3818  16.802  35.780  13.287
31559W        W 3819  38.147  22.625   1.919
31560W        W 3820  18.405  41.700  12.421
31561W        W 3821   2.932  16.364  12.914
31562W        W 3822   5.229  37.432   3.572
31563W        W 3823  41.508   8.800   1.834
31564W        W 3824  28.934  32.919  11.689
31565W        W 3825  21.291  15.135  13.316
31566W        W 3826  41.794  17.069   4.467
31567W        W 3827  32.125  11.324  12.160
31568W        W 3828  13.370  15.801  11.751
31569W        W 3829  43.492  14.891  13.193
31570W        W 3830  11.210  36.496  14.847
31571W        W 3831  22.214   1.480  11.269
31572W        W 3832  20.734  44.220  14.897
31573W        W 3833  16.859   6.230  10.739
31574W        W 3834  34.506  44.182   4.097
31575W        W 3835  20.456  19.820   2.216
31576W        W 3836  21.672  42.096  13.124
31577W        W 3837  31.853  30.970   1.938
31578W        W 3838  36.306  37.039   2.438
31579W        W 3839  32.877  29.989  14.733
31580W        W 3840   0.157   3.483  13.393
31581W        W 3841  43.404  17.092   3.267
31582W        W 3842  36.960  20.498   4.237
31583W        W 3843  32.368  19.982   1.843
31584W        W 3844  37.180   0.456   2.831
31585W        W 3845  26.413   8.550   2.757
31586W        W 3846  10.906  33.437   4.152
31587W        W 3847  12.149  11.124   1.512
31588W        W 3848   5.482   1.488   3.729
31589W        W 3849  25.982  35.011   2.356
31590W        W 3850   6.695  42.723  11.121
31591W        W 3851   1.941  39.287   0.516
31592W        W 3852  34.412  23.684   3.989
31593W        W 3853  33.378   1.116  14.989
31594W        W 3854  18.365  14.653  11.712
31595W        W 3855   1.703  41.084   3.843
31596W        W 3856   6.540  39.088  11.027
31597W        W 3857  30.363  31.164   1.744
31598W        W 3858   8.278   4.690   3.793
31599W        W 3859   6.263  21.088   2.962
31600W        W 3860  40.986  23.943   3.876
31601W        W 3861  10.266  17.692   0.819
31602W        W 3862  26.472  28.957   0.924
31603W        W 3863   0.692   3.487   0.648
31604W        W 3864  10.709  36.266  13.480
31605W        W 3865  30.669  34.115   1.605
31606W        W 3866  22.719   9.076  12.155
31607W        W 3867  17.070  12.708  10.737
31608W        W 3868  24.240  37.990   2.462
31609W        W 3869  25.019   9.308   2.355
31610W        W 3870   7.466   9.812   1.406
31611W        W 3871   8.239  18.156   3.301
31612W        W 3872  19.274   2.758  12.545
31613W        W 3873  12.967  31.071   3.877
31614W        W 3874  21.847   8.381   3.260
31615W        W 3875  12.281  39.271  11.542
31616W        W 3876  16.268   4.289   1.277
31617W        W 3877  39.630  34.923  11.600
31618W        W 3878   9.878  38.385  14.049
31619W        W 3879  42.501  44.100  14.815
31620W        W 3880  18.519   5.915   1.401
31621W        W 3881   0.568  20.307   3.679
31622W        W 3882  39.579  31.355  14.356
31623W        W 3883  28.394   7.292  12.847
31624W        W 3884  10.789   2.988  11.205
31625W        W 3885  18.312  39.210   3.311
31626W        W 3886   5.836   4.471   4.166
31627W        W 3887   2.282  35.783   0.006
31628W        W 3888  12.662   4.416  12.801
31629W        W 3889  40.341  10.841   3.227
31630W        W 3890  17.013  15.895  12.453
31631W        W 3891  20.468  10.815   0.336
31632W        W 3892  23.236  12.207   1.517
31633W        W 3893  33.856  30.926  11.944
31634W        W 3894   7.673   2.365  12.500
31635W        W 3895  30.630  26.058   4.386
31636W        W 3896  37.413  38.588   1.395
31637W        W 3897  40.941  20.114  12.121
31638W        W 3898   9.955  15.833  10.142
31639W        W 3899  20.169  37.643   3.256
31640W        W 3900  14.537  19.200   3.289
31641W        W 3901  24.032  32.951  10.804
31642W        W 3902  26.382  26.123   2.758
31643W        W 3903   1.294  35.411  10.898
31644W        W 3904   0.654  17.774   1.442
31645W        W 3905  40.932   4.837  13.450
31646W        W 3906   4.425  12.767   1.382
31647W        W 3907   0.314  24.025   1.253
31648W        W 3908   7.386  35.856   4.261
31649W        W 3909  34.410   7.140   3.231
31650W        W 3910  11.422  42.887   0.662
31651W        W 3911  32.297   4.637  12.903
31652W        W 3912   8.335  12.136  13.342
31653W        W 3913  33.037  19.806   4.144
31654W        W 3914  19.130   0.775   0.788
31655W        W 3915  11.071  12.926  14.551
31656W        W 3916  20.227   6.224  11.458
31657W        W 3917   0.852   2.057   1.093
31658W        W 3918   3.248   8.956  13.086
31659W        W 3919  15.139  29.507   3.905
31660W        W 3920  17.328  27.498   4.249
31661W        W 3921   7.055  18.788  14.722
31662W        W 3922  10.806  22.985  10.360
31663W        W 3923  37.348  18.056  13.651
31664W        W 3924   5.202  17.586  13.783
31665W        W 3925  22.411   3.995   4.604
31666W        W 3926  23.852  18.943  11.205
31667W        W 3927  15.659  33.678   1.771
31668W        W 3928  35.994   5.160   4.613
31669W        W 3929  31.382  20.051   3.775
31670W        W 3930   9.865   3.699  14.028
31671W        W 3931  32.929  39.893  14.941
31672W        W 3932   1.532   7.333   4.082
31673W        W 3933  21.993  41.913   1.608
31674W        W 3934  23.882  36.021  10.518
31675W        W 3935  26.471  26.564  13.620
31676W        W 3936  22.123  16.782  10.939
31677W        W 3937  24.347  36.419   3.231
31678W        W 3938   4.266  25.972   0.185
31679W        W 3939  27.358  29.245   2.192
31680W        W 3940  15.385  32.028   2.778
31681W        W 3941  30.337  25.008  11.590
31682W        W 3942  43.442   8.557   2.638
31683W        W 3943  20.068   1.985   1.592
31684W        W 3944   8.387  25.129  14.262
31685W        W 3945  31.764  41.036  12.514
31686W        W 3946  12.978  32.423  13.324
31687W        W 3947   5.447  19.516   2.309
31688W        W 3948  10.688   8.264  12.355
31689W        W 3949  23.948  13.673   3.355
31690W        W 3950  31.268  37.116   0.293
31691W        W 3951  43.580  41.406  11.620
31692W        W 3952  44.193  18.064  11.967
31693W        W 3953  33.796  16.856  10.495
31694W        W 3954   0.382  33.716   2.994
31695W        W 3955   0.500  26.923  11.561
31696W        W 3956  28.042  16.167  11.673
31697W        W 3957  15.202   6.449   0.612
31698W        W 3958   3.223  18.394  11.737
31699W        W 3959  32.889  18.319   3.809
31700W        W 3960  30.288   3.989   3.714
31701W        W 3961  44.738  41.062  13.166
31702W        W 3962  34.107  10.755  11.580
31703W        W 3963  40.958  13.252  14.764
31704W        W 3964   2.211  42.052  12.441
31705W        W 3965  37.541  36.647   4.317
31706W        W 3966  11.128  43.514  14.051
31707W        W 3967  42.952  44.770  12.841
31708W        W 3968  21.963  13.790  12.799
31709W        W 3969   5.393   1.331   2.747
31710W        W 3970  22.202  12.727   2.263
31711W        W 3971  36.475  20.278   4.316
31712W        W 3972  19.289  43.490   0.862
31713W        W 3973  12.298   8.166   3.305
31714W        W 3974   6.645  11.689  11.572
31715W        W 3975   7.440   5.164   3.682
31716W        W 3976  39.380   8.236   4.573
31717W        W 3977   5.970   1.049  14.944
31718W        W 3978  32.506  34.423  13.030
31719W        W 3979  37.754   1.991  12.017
31720W        W 3980  14.674  39.974  12.981
31721W        W 3981  25.249  43.929  12.044
31722W        W 3982   4.103  37.378  11.098
31723W        W 3983  28.142  31.782   1.670
31724W        W 3984  11.106   5.451   3.267
31725W        W 3985  18.589  16.158   1.156
31726W        W 3986  32.477  12.609  10.581
31727W        W 3987  12.762  12.276   4.825
31728W        W 3988  26.744  30.129  10.745
31729W        W 3989  23.547   2.536   1.895
31730W        W 3990  33.711  25.193  13.336
31731W        W 3991  26.058  17.327   2.236
31732W        W 3992  43.333  15.591   4.634
31733W        W 3993   1.798  21.534   4.157
31734W        W 3994  10.309  20.513   0.870
31735W        W 3995   0.708  36.389  11.161
31736W        W 3996   4.879  16.501  14.728
31737W        W 3997  16.003  16.152   4.039
31738W        W 3998  43.381   3.346  11.246
31739W        W 3999  24.614  40.291  10.954
31740W        W 4000   4.443  20.081  13.395
31741W        W 4001  18.183  30.923   2.669
31742W        W 4002  42.351  42.763   0.937
31743W        W 4003  23.568  11.644  14.067
31744W        W 4004  27.677  34.879   4.105
31745W        W 4005  38.355   7.619  11.054
31746W        W 4006  22.513  10.764  12.313
31747W        W 4007  28.370  33.829   2.089
31748W        W 4008  12.386   1.310  12.118
31749W        W 4009  28.489  40.079   2.221
31750W        W 4010  41.276  44.035   0.608
31751W        W 4011  12.405   0.203   4.431
31752W        W 4012   7.126  22.676  11.195
31753W        W 4013   3.521   6.258  10.986
31754W        W 4014  11.289  10.731  11.897
31755W        W 4015  20.676  19.611  10.502
31756W        W 4016  27.462  33.112   3.356
31757W        W 4017  27.376  16.198   1.276
31758W        W 4018  44.291  11.859   4.613
31759W        W 4019  28.900  24.061   1.735
31760W        W 4020  36.846   3.731   3.159
31761W        W 4021  21.243   6.386   4.978
31762W        W 4022  41.939  23.729   3.646
31763W        W 4023  43.779   1.003   4.541
31764W        W 4024  28.209  43.070   3.733
31765W        W 4025  21.736  36.136   2.081
31766W        W 4026   2.266  34.461   0.766
31767W        W 4027  34.659   1.035  10.074
31768W        W 4028   7.009  38.406  13.949
31769W        W 4029  24.093  38.016  10.719
31770W        W 4030  28.980   2.964  11.788
31771W        W 4031   0.174  32.859  11.498
31772W        W 4032  15.523  14.222   0.825
31773W        W 4033   5.867   0.471   4.758
31774W        W 4034  19.768  40.980  12.553
31775W        W 4035  27.694  21.163   0.780
31776W        W 4036   7.335  40.004   2.217
31777W        W 4037   3.926   2.787  11.140
31778W        W 4038  10.844   3.898   0.333
31779W        W 4039   2.773  34.933  13.840
31780W        W 4040  36.580   0.445  13.976
31781W        W 4041  16.151  16.114  13.520
31782W        W 4042  32.545  35.862   4.080
31783W        W 4043   7.678  11.606  11.613
31784W        W 4044  37.044  24.435  14.165
31785W        W 4045  11.783  23.590   3.678
31786W        W 4046  31.735  13.833   4.300
31787W        W 4047  36.586  22.299   0.724
31788W        W 4048   8.341  25.180   3.589
31789W        W 4049  41.075  39.801  13.417
31790W        W 4050  15.656  12.766  10.713
31791W        W 4051  11.644  38.887   3.667
31792W        W 4052   2.777  44.203  11.069
31793W        W 4053  10.107  10.557  14.899
31794W        W 4054   2.872  22.231   1.838
31795W        W 4055  43.798  35.404  11.092
31796W        W 4056   6.448  31.492  13.855
31797W        W 4057  27.430  13.011   1.302
31798W        W 4058   7.325  24.106   3.060
31799W        W 4059   9.807  21.146  14.184
31800W        W 4060  16.036  37.049  13.842
31801W        W 4061  17.138  11.380   0.062
31802W        W 4062  11.870   9.273  12.067
31803W        W 4063  36.403   3.867   4.340
31804W        W 4064   2.454  31.744   4.180
31805W        W 4065  19.197  30.963   0.197
31806W        W 4066  12.578  28.945  11.647
31807W        W 4067  30.690  40.579   2.606
31808W        W 4068  41.625  37.246   3.089
31809W        W 4069  27.782  18.520   4.254
31810W        W 4070  12.057  13.893  11.056
31811W        W 4071   5.373  14.133  14.876
31812W        W 4072   0.722  33.532   0.487
31813W        W 4073  27.778  15.730   4.684
31814W        W 4074   8.789   7.830   0.449
31815W        W 4075  38.319  15.208   3.292
31816W        W 4076  30.164  30.351  14.036
31817W        W 4077  24.056  10.861  11.962
31818W        W 4078  36.844  42.002   2.573
31819W        W 4079   5.852  30.362   4.838
31820W        W 4080  19.969  38.549  12.140
31821W        W 4081   7.560   4.671   4.922
31822W        W 4082  35.989  36.483  10.945
31823W        W 4083   4.045  30.379   5.037
31824W        W 4084  13.873  42.770   0.941
31825W        W 4085  42.367  32.470  12.066
31826W        W 4086  23.726  16.038  14.358
31827W        W 4087  27.155  34.720  14.086
31828W        W 4088  32.690  17.606  11.952
31829W        W 4089   8.404   7.421  12.402
31830W        W 4090  10.737  18.256  14.566
31831W        W 4091  22.121  13.494  13.261
31832W        W 4092   3.513  34.156   1.337
31833W        W 4093  19.654   5.411   1.598
31834W        W 4094  19.807  23.224   0.689
31835W        W 4095  29.302  16.057  13.833
31836W        W 4096  31.424  40.927  11.179
31837W        W 4097  23.348  27.112  10.319
31838W        W 4098  34.998  41.818   4.098
31839W        W 4099  26.902   9.305  12.848
31840W        W 4100  24.640   3.282   4.779
31841W        W 4101   4.715  42.397   0.932
31842W        W 4102  14.325  20.093  14.408
31843W        W 4103  36.629   0.342   1.317
31844W        W 4104   7.612  27.691  14.298
31845W        W 4105   9.245  35.562   0.392
31846W        W 4106  14.306  13.862   2.262
31847W        W 4107  39.100   3.997  10.701
31848W        W 4108  36.928  27.478  14.484
31849W        W 4109  20.720  21.628   4.240
31850W        W 4110   9.776   0.467  10.619
31851W        W 4111   8.278  35.355  12.626
31852W        W 4112  40.404  20.325  13.945
31853W        W 4113  44.767  14.721   0.667
31854W        W 4114  17.383  19.604   3.062
31855W        W 4115  27.576   9.640   4.331
31856W        W 4116  16.790   7.303   4.604
31857W        W 4117   6.943  30.017   3.595
31858W        W 4118   9.688  33.864   2.257
31859W        W 4119  35.812  35.488   2.368
31860W        W 4120  23.405  10.227  13.800
31861W        W 4121  21.755  31.969   3.621
31862W        W 4122  11.223   7.208   0.000
31863W        W 4123  14.575   2.844  13.581
31864W        W 4124   9.758   9.163  14.356
31865W        W 4125  41.799  31.387  14.843
31866W        W 4126   5.784  36.581  11.377
31867W        W 4127  12.749  14.800   4.119
31868W        W 4128  28.163   2.012   0.773
31869W        W 4129  40.728  28.137   0.320
31870W        W 4130   7.821   2.530   5.014
31871W        W 4131  15.535  29.091   1.926
31872W        W 4132  16.692  15.635   3.575
31873W        W 4133  35.867  20.250   0.924
31874W        W 4134  34.949  39.953  13.651
31875W        W 4135  40.887  39.064  12.038
31876W        W 4136  24.784  39.964  14.040
31877W        W 4137  40.848   5.182   3.683
31878W        W 4138  19.661  16.037  13.485
31879W        W 4139  20.834   3.405   0.646
31880W        W 4140   5.930  32.042  10.640
31881W        W 4141  32.982  18.226  13.348
31882W        W 4142  10.544   0.412  13.894
31883W        W 4143   4.617   4.634  13.060
31884W        W 4144   1.175  26.801   1.286
31885W        W 4145  11.914  36.735   1.265
31886W        W 4146   6.300  36.037   1.937
31887W        W 4147  43.732   4.890   4.184
31888W        W 4148  27.567  17.247  14.008
31889W        W 4149  40.967  32.218   4.212
31890W        W 4150  29.697  37.296  10.807
31891W        W 4151  19.746   2.381  14.532
31892W        W 4152  24.443   0.870   2.819
31893W        W 4153  37.466   5.232  11.368
31894W        W 4154  21.968   7.973  11.380
31895W        W 4155  37.826   7.095   4.128
31896W        W 4156   2.031  20.020  14.582
31897W        W 4157   4.645  44.878   0.300
31898W        W 4158  30.655   3.386   1.628
31899W        W 4159  43.910  16.271   4.643
31900W        W 4160  20.351  19.264  11.632
31901W        W 4161  37.283  11.783  13.503
31902W        W 4162  38.012   3.812  12.153
31903W        W 4163  30.072   0.449   1.882
31904W        W 4164  14.020  26.080  10.944
31905W        W 4165   8.819  37.507   0.411
31906W        W 4166   6.705  15.974  12.473
31907W        W 4167  33.821  44.814   2.235
31908W        W 4168  43.424  13.182   1.671
31909W        W 4169  12.376  35.555   2.908
31910W        W 4170  31.354   3.179   2.366
31911W        W 4171  26.880  21.532  14.001
31912W        W 4172  41.446  31.075   3.145
31913W        W 4173  23.202   6.465   2.259
31914W        W 4174  32.136   1.953   4.433
31915W        W 4175  19.052  38.947  14.294
31916W        W 4176   7.422  44.931  11.871
31917W        W 4177  38.124  30.463   2.329
31918W        W 4178  42.715  39.026  11.983
31919W        W 4179   6.149  25.530  11.555
31920W        W 4180  13.989  11.586  13.820
31921W        W 4181  11.155  36.976  12.981
31922W        W 4182  13.251  24.680  12.062
31923W        W 4183  19.211  41.008   4.602
31924W        W 4184   4.851  38.911   2.139
31925W        W 4185  43.541  23.227  10.251
31926W        W 4186  16.160  34.683  14.237
31927W        W 4187  41.058  35.013  10.698
31928W        W 4188  39.107  18.776   2.309
31929W        W 4189   7.924  32.095   3.134
31930W        W 4190  22.273  31.027   1.911
31931W        W 4191  14.213   8.146   3.551
31932W        W 4192  42.897  37.072   4.150
31933W        W 4193  11.305   2.413  14.844
31934W        W 4194  21.843  44.179  14.832
31935W        W 4195   0.558  24.554   0.449
31936W        W 4196  16.950  31.647  10.955
31937W        W 4197  10.662  39.770   2.279
31938W        W 4198   2.654  14.363  14.403
31939W        W 4199  43.200  44.450   1.436
31940W        W 4200  29.261  13.420  14.605
31941W        W 4201  27.070  42.785  14.792
31942W        W 4202  29.398  17.220  14.177
31943W        W 4203  18.221   8.795  13.368
31944W        W 4204  25.048   0.167   3.951
31945W        W 4205  25.989   3.759   3.278
31946W        W 4206   5.671  26.597   3.852
31947W        W 4207   2.218  19.688  13.411
31948W        W 4208  40.044  36.959  13.523
31949W        W 4209  21.070  42.342   1.324
31950W        W 4210   8.410  32.970   1.789
31951W        W 4211  35.568   9.642  12.006
31952W        W 4212  28.516  12.555  11.092
31953W        W 4213  44.059  15.071   2.168
31954W        W 4214  11.928  19.072   0.682
31955W        W 4215  10.434  12.359   2.433
31956W        W 4216  27.046   8.837   4.057
31957W        W 4217  27.186  19.861  14.445
31958W        W 4218   0.603  14.222  11.203
31959W        W 4219  30.073  31.131   2.460
31960W        W 4220  23.102  14.403   0.047
31961W        W 4221  34.219  43.804  12.335
31962W        W 4222  13.319  37.705   2.586
31963W        W 4223  34.088   7.428   3.494
31964W        W 4224  10.268   9.809  12.139
31965W        W 4225  44.727  15.387  13.415
31966W        W 4226  22.654   3.000   3.146
31967W        W 4227  20.014  28.077   3.643
31968W        W 4228   1.733  10.035  12.429
31969W        W 4229  20.207  36.467  12.964
31970W        W 4230  16.044   8.935   4.550
31971W        W 4231  32.145   8.760   3.592
31972W        W 4232  11.350  13.171  13.895
31973W        W 4233  12.482  13.594  14.356
31974W        W 4234  28.374  36.646  12.459
31975W        W 4235  16.261   9.002  11.053
31976W        W 4236  25.893  42.399   2.838
31977W        W 4237  35.619  22.106   2.717
31978W        W 4238  23.225  19.281  10.692
31979W        W 4239  20.287  18.134  13.853
31980W        W 4240  27.441  16.696   1.241
31981W        W 4241  11.480  17.501  10.604
31982W        W 4242  17.735  44.751   1.709
31983W        W 4243  12.549   8.438  13.723
31984W        W 4244  27.661   3.947   2.548
31985W        W 4245  43.830  40.530  12.977
31986W        W 4246  44.536  19.205  14.763
31987W        W 4247  25.195  17.633  11.948
31988W        W 4248  11.757  25.756   4.695
31989W        W 4249  21.238  12.807  14.397
31990W        W 4250  21.463  15.114   1.278
31991W        W 4251  17.915  40.948  12.653
31992W        W 4252  39.535  34.294   4.146
31993W        W 4253   9.890  31.491  12.553
31994W        W 4254  39.350  15.352  11.138
31995W        W 4255   3.944   1.751  10.308
31996W        W 4256   4.966  41.308  12.581
31997W        W 4257   9.816  41.878  10.370
31998W        W 4258  19.020   6.784   3.107
31999W        W 4259  14.097  25.214  12.854
32000W        W 4260   7.866  33.990  13.385
32001W        W 4261  20.662  28.385  12.026
32002W        W 4262  22.076  35.234   4.086
32003W        W 4263  44.869  12.215  11.605
32004W        W 4264   6.830  12.956  11.667
32005W        W 4265   2.243  36.520   2.707
32006W        W 4266  35.232  23.493   2.048
32007W        W 4267  38.805  25.413   0.868
32008W        W 4268  36.596  17.213  14.479
32009W        W 4269  16.726  34.839   3.748
32010W        W 4270   9.127   9.394  11.976
32011W        W 4271  30.723  16.530   4.920
32012W        W 4272  28.183  26.515  11.217
32013W        W 4273  37.293   7.796  11.016
32014W        W 4274   0.386  36.533   2.331
32015W        W 4275  21.121   5.766  12.789
32016W        W 4276   2.274  24.529   1.368
32017W        W 4277  10.999  14.807   1.788
32018W        W 4278  20.553  22.679  13.031
32019W        W 4279  40.244  42.361  12.811
32020W        W 4280  33.614   9.874  13.044
32021W        W 4281  24.438  27.054   0.122
32022W        W 4282  35.560  34.804  14.943
32023W        W 4283  36.108  17.846   5.022
32024W        W 4284  24.532  18.145   4.337
32025W        W 4285  35.081  43.631  12.977
32026W        W 4286  35.252  20.680   1.338
32027W        W 4287   6.938  38.086  11.935
32028W        W 4288  35.107  14.245  14.985
32029W        W 4289  11.067  36.939   2.291
32030W        W 4290  25.295  23.245  12.495
32031W        W 4291  24.177  33.910   1.321
32032W        W 4292  15.299   4.450   0.198
32033W        W 4293  34.366  39.939  14.958
32034W        W 4294  14.649   2.194   4.128
32035W        W 4295  19.295  10.484   2.325
32036W        W 4296  24.235  24.446  14.395
32037W        W 4297  36.547  19.102  10.290
32038W        W 4298  36.186  18.659  13.726
32039W        W 4299  34.999  42.906  14.944
32040W        W 4300  40.359  22.615   3.148
32041W        W 4301  26.155   0.014  12.058
32042W        W 4302   1.841  17.710   3.940
32043W        W 4303  44.430  17.692  13.620
32044W        W 4304  19.405  29.709   1.538
32045W        W 4305   0.535  39.832   1.302
32046W        W 4306  15.581  24.874   3.863
32047W        W 4307  24.609  44.751   4.958
32048W        W 4308  20.504  12.705  13.811
32049W        W 4309   4.657  10.395   3.775
32050W        W 4310  15.098  18.673   1.620
32051W        W 4311  30.552  41.575  14.418
32052W        W 4312  41.225  38.542  13.914
32053W        W 4313  13.615  31.053  13.551
32054W        W 4314   7.974  43.888  11.516
32055W        W 4315  28.222  29.208   1.264
32056W        W 4316  12.840  23.178  14.482
32057W        W 4317   1.991   5.992  11.549
32058W        W 4318  20.386  34.486   0.692
32059W        W 4319   3.796   0.629  11.065
32060W        W 4320  14.848  28.682  13.081
32061W        W 4321  14.052  13.655  11.456
32062W        W 4322   4.910   6.269  11.089
32063W        W 4323  14.064  27.654   4.694
32064W        W 4324  33.953  40.006   0.301
32065W        W 4325  40.310   0.733  10.573
32066W        W 4326  16.482   4.749   1.054
32067W        W 4327  33.390  22.200  12.935
32068W        W 4328  16.593  12.618   1.023
32069W        W 4329  21.630   4.795   4.657
32070W        W 4330   7.160  30.151  10.477
32071W        W 4331   8.903  21.941   0.822
32072W        W 4332  36.933   0.063  14.006
32073W        W 4333  42.429  14.169   2.200
32074W        W 4334   7.499  11.760  11.170
32075W        W 4335  31.981  35.549   1.249
32076W        W 4336  19.570  30.190   3.766
32077W        W 4337   5.447  22.629   1.537
32078W        W 4338  42.508  42.000  13.372
32079W        W 4339  31.901  15.217   3.401
32080W        W 4340  31.056  12.351  14.000
32081W        W 4341  43.059  33.493   1.723
32082W        W 4342   9.303  14.218   1.816
32083W        W 4343  27.186  40.269  11.038
32084W        W 4344  18.222  31.839   3.110
32085W        W 4345  16.158  28.344   3.560
32086W        W 4346  12.553   4.180  13.761
32087W        W 4347  26.186  15.779  11.890
32088W        W 4348   6.786  24.604  13.443
32089W        W 4349  42.340  16.281   1.859
32090W        W 4350  39.221  19.208   0.428
32091W        W 4351  40.107  41.335  13.817
32092W        W 4352  32.438  28.582   1.304
32093W        W 4353  24.184  26.918  14.690
32094W        W 4354  17.329   5.194  13.386
32095W        W 4355   4.735  25.520   4.722
32096W        W 4356   3.274  15.712   2.225
32097W        W 4357  42.433  37.489  14.743
32098W        W 4358  21.755   9.722   3.170
32099W        W 4359  42.391  25.606   3.710
32100W        W 4360  26.032   4.444   4.748
32101W        W 4361  29.353  16.183  13.323
32102W        W 4362   4.684   6.652  12.595
32103W        W 4363   1.373   3.742  12.554
32104W        W 4364  31.585  33.877   2.788
32105W        W 4365  14.176  38.592   3.287
32106W        W 4366  43.641  32.804   4.221
32107W        W 4367  25.138   2.201   4.133
32108W        W 4368  29.998  20.278   3.751
32109W        W 4369  37.318   7.260   0.438
32110W        W 4370  22.704  38.370   2.766
32111W        W 4371  36.531  31.604   3.260
32112W        W 4372  24.252  40.028  14.001
32113W        W 4373   9.165  10.952  14.666
32114W        W 4374  23.613  36.688  12.768
32115W        W 4375  28.144   6.308  12.044
32116W        W 4376   4.232   3.604   0.788
32117W        W 4377  25.474  17.367   4.505
32118W        W 4378  11.167  30.719   4.919
32119W        W 4379  19.064  14.202  14.360
32120W        W 4380   2.161  26.261   0.970
32121W        W 4381  34.825  26.460   2.160
32122W        W 4382  39.431   3.165  12.914
32123W        W 4383  26.627  18.011  13.319
32124W        W 4384   9.181  22.652   3.090
32125W        W 4385   4.793   4.380   2.703
32126W        W 4386  35.661   0.962   0.921
32127W        W 4387  28.696   8.320   0.804
32128W        W 4388  25.434  26.104   0.215
32129W        W 4389  33.580  17.614  14.845
32130W        W 4390  26.508  11.240  11.639
32131W        W 4391  18.994  25.038   3.179
32132W        W 4392  42.237  37.629  13.423
32133W        W 4393  16.047  37.447  14.516
32134W        W 4394  13.672  32.022   0.198
32135W        W 4395  17.348  41.964   2.191
32136W        W 4396   2.991  12.561  13.008
32137W        W 4397  17.274   8.643   4.153
32138W        W 4398  32.338   7.388   3.277
32139W        W 4399   7.841  37.478  14.499
32140W        W 4400  43.185  15.653  14.421
32141W        W 4401  25.759  10.276  10.243
32142W        W 4402  33.643  32.050   1.148
32143W        W 4403  28.501  16.919   1.768
32144W        W 4404  26.014  42.696  13.431
32145W        W 4405   4.168  36.279   1.830
32146W        W 4406  35.392   4.518  11.254
32147W        W 4407  20.473  14.508   3.318
32148W        W 4408  27.018  21.230   2.331
32149W        W 4409  19.283  26.679  10.713
32150W        W 4410  30.192   6.215  12.100
32151W        W 4411  28.457  31.452   4.465
32152W        W 4412  15.770   9.663   0.327
32153W        W 4413   9.151  29.551  12.285
32154W        W 4414  23.062   8.289   4.868
32155W        W 4415  35.657  18.265   2.281
32156W        W 4416  31.485  34.484   1.915
32157W        W 4417  28.457  17.262  14.729
32158W        W 4418  27.975  25.594   0.948
32159W        W 4419  31.152  13.365   1.885
32160W        W 4420  23.113  40.103  10.976
32161W        W 4421   4.709  17.566   4.890
32162W        W 4422  44.969   9.510  12.028
32163W        W 4423  40.987  11.654   3.069
32164W        W 4424  33.652  30.545   3.882
32165W        W 4425  26.066  22.688   0.719
32166W        W 4426  41.247  19.749   3.769
32167W        W 4427   2.895   9.917   2.384
32168W        W 4428  22.641  27.487  12.950
32169W        W 4429  19.258   8.800  13.416
32170W        W 4430  15.861  44.704   1.743
32171W        W 4431  44.291  13.016   4.833
32172W        W 4432  39.546  15.818   1.979
32173W        W 4433  29.323   3.283   4.043
32174W        W 4434  39.667   8.251   3.254
32175W        W 4435  30.543  31.221   4.586
32176W        W 4436  16.115  28.835  10.552
32177W        W 4437   4.244  28.123   4.056
32178W        W 4438  20.965  43.200  14.741
32179W        W 4439  21.946  22.219   2.004
32180W        W 4440  28.249  31.960  14.832
32181W        W 4441  30.480  42.399   4.239
32182W        W 4442  38.447   7.204  12.436
32183W        W 4443  23.602  24.752   2.094
32184W        W 4444   9.671  44.939  10.619
32185W        W 4445  36.313  33.381   2.862
32186W        W 4446  12.790  29.936   4.687
32187W        W 4447  39.137  32.172   1.346
32188W        W 4448   7.687  29.219   0.779
32189W        W 4449  35.842  34.485   1.556
32190W        W 4450  12.119  28.922  10.525
32191W        W 4451   9.734  25.594   0.936
32192W        W 4452  42.544  16.749   0.937
32193W        W 4453  31.131   9.947   0.875
32194W        W 4454  34.947  22.307  13.560
32195W        W 4455   3.761   0.979   4.461
32196W        W 4456  21.527  14.412   2.389
32197W        W 4457  34.956  22.409   5.051
32198W        W 4458  24.716  33.887   4.179
32199W        W 4459  32.657  22.684  12.050
32200W        W 4460  12.377  17.939   1.545
32201W        W 4461  28.340  10.525  10.132
32202W        W 4462   1.867   6.492  11.624
32203W        W 4463  37.568  27.547  10.507
32204W        W 4464  33.952  20.672  10.577
32205W        W 4465  42.294  11.182   4.090
32206W        W 4466  36.490  31.339  13.043
32207W        W 4467  29.918  39.862   4.056
32208W        W 4468   9.984  37.434  12.203
32209W        W 4469  24.422   9.660  13.459
32210W        W 4470  28.433  30.106  13.960
32211W        W 4471  17.773   4.666  14.457
32212W        W 4472   5.335  12.084  10.593
32213W        W 4473  14.402   2.953   4.606
32214W        W 4474  11.648  19.588   1.787
32215W        W 4475   5.359  37.492  11.721
32216W        W 4476  36.270  39.892   1.298
32217W        W 4477  11.333  27.702   3.717
32218W        W 4478  27.437  21.685  13.112
32219W        W 4479  23.540  12.229   2.889
32220W        W 4480  19.119  21.537   3.749
32221W        W 4481  16.809  20.304   1.616
32222W        W 4482  27.081  30.555   0.468
32223W        W 4483  20.268  11.409   0.229
32224W        W 4484  39.979  38.795   0.795
32225W        W 4485  28.830  21.117   4.180
32226W        W 4486   1.226  26.222  11.096
32227W        W 4487  11.271  32.274  12.194
32228W        W 4488  44.862   9.422   2.803
32229W        W 4489  19.044  20.299  13.051
32230W        W 4490  35.617  18.612  11.540
32231W        W 4491  28.385   0.366  13.000
32232W        W 4492  28.393  43.967   2.303
32233W        W 4493  16.658   5.768  10.584
32234W        W 4494  31.855  32.396  12.850
32235W        W 4495  18.316  40.758  10.948
32236W        W 4496  17.570   5.137   1.515
32237W        W 4497  15.682  31.658  11.572
32238W        W 4498  26.951  25.685   2.456
32239W        W 4499  35.028  12.191   0.173
32240W        W 4500  10.242  12.707  12.484
32241W        W 4501  21.526  43.739   3.351
32242W        W 4502  16.739  24.024  12.087
32243W        W 4503  44.258  41.385   2.219
32244W        W 4504   5.085  44.654   3.718
32245W        W 4505  29.906   6.511   1.440
32246W        W 4506  34.126  37.568  13.406
32247W        W 4507   3.515  36.493   4.492
32248W        W 4508   3.904  37.204   2.313
32249W        W 4509   4.161  33.138   4.058
32250W        W 4510  36.789  13.294   4.185
32251W        W 4511  41.762   5.143  12.906
32252W        W 4512  32.143  37.112   0.447
32253W        W 4513  28.721  13.708   1.735
32254W        W 4514  21.641  27.294   2.411
32255W        W 4515  41.252  10.222  13.979
32256W        W 4516   5.927  45.000   3.712
32257W        W 4517  17.803  24.541   1.952
32258W        W 4518  34.831  36.995   4.711
32259W        W 4519  12.605   7.940  14.766
32260W        W 4520  11.389  15.730  13.883
32261W        W 4521  26.075  26.291  13.953
32262W        W 4522  26.522  15.146   2.722
32263W        W 4523  34.619  37.795   1.145
32264W        W 4524  14.406  41.742  10.206
32265W        W 4525  20.973  27.746  11.948
32266W        W 4526   3.192  35.440   4.169
32267W        W 4527  25.545  23.527   2.265
32268W        W 4528  29.209  44.719  12.864
32269W        W 4529  13.269  41.035  13.797
32270W        W 4530  10.903  11.220   4.632
32271W        W 4531  12.868  12.888  10.776
32272W        W 4532  28.200  41.279   1.790
32273W        W 4533  20.530  28.906  12.029
32274W        W 4534  24.627  32.920   3.545
32275W        W 4535  42.002   2.708  12.063
32276W        W 4536  18.319   8.403  11.560
32277W        W 4537  16.122   4.439  12.018
32278W        W 4538  39.844  26.499  11.509
32279W        W 4539  21.066  11.129  12.476
32280W        W 4540  42.174  14.912  12.464
32281W        W 4541  38.745  29.108   1.353
32282W        W 4542   9.394   7.107   4.484
32283W        W 4543  20.627  20.687   5.429
32284W        W 4544  20.757  36.896  13.992
32285W        W 4545  16.291  28.617  11.369
32286W        W 4546  20.139  39.257   1.725
32287W        W 4547   5.494  26.415  14.877
32288W        W 4548  19.997  25.918   1.888
32289W        W 4549  11.227  43.976  13.036
32290W        W 4550   6.126  24.380  14.960
32291W        W 4551  12.683  16.665   3.534
32292W        W 4552  20.846  26.410   0.478
32293W        W 4553  37.486  34.481   2.852
32294W        W 4554  34.655   3.692  13.432
32295W        W 4555  24.908  29.238   3.836
32296W        W 4556  41.517  22.431   0.893
32297W        W 4557   0.838  19.066   3.193
32298W        W 4558  13.305   5.905  11.987
32299W        W 4559   6.598   8.596   4.221
32300W        W 4560  34.668  22.975   2.799
32301W        W 4561  36.851  11.922   3.883
32302W        W 4562  41.024  19.672   4.274
32303W        W 4563  13.195  26.573   1.789
32304W        W 4564  42.552  16.819  14.448
32305W        W 4565  13.799  14.689  13.029
32306W        W 4566  39.270  19.650  12.294
32307W        W 4567   7.678  37.366   4.641
32308W        W 4568  25.329  29.628   1.222
32309W        W 4569  14.705  29.196   2.363
32310W        W 4570  41.772  37.995   4.375
32311W        W 4571  39.238  29.037   1.470
32312W        W 4572   7.186  27.117   1.483
32313W        W 4573  16.712   9.787  14.739
32314W        W 4574  37.115  23.459   1.284
32315W        W 4575  34.455  39.900   2.341
32316W        W 4576   3.374   7.061  12.527
32317W        W 4577  21.293  23.427  11.861
32318W        W 4578  18.302  43.755  13.332
32319W        W 4579   0.588  20.567  14.033
32320W        W 4580  25.986  44.978   0.896
32321W        W 4581   7.122   2.875  11.512
32322W        W 4582  37.567  40.833   2.632
32323W        W 4583  42.418  29.602   0.113
32324W        W 4584  33.535  36.989   2.755
32325W        W 4585  29.040  43.330   3.801
32326W        W 4586  34.908  31.063  11.045
32327W        W 4587  15.051   9.179  14.907
32328W        W 4588  42.121  22.524  11.994
32329W        W 4589  43.747   7.554  14.029
32330W        W 4590  16.330  17.113   3.712
32331W        W 4591  34.318  13.305  12.645
32332W        W 4592  42.971  41.807  12.583
32333W        W 4593  23.231  26.984   1.372
32334W        W 4594   8.646  43.550  12.987
32335W        W 4595  11.631  14.865  12.485
32336W        W 4596   9.293   0.793   0.013
32337W        W 4597  22.940  43.008  13.393
32338W        W 4598  42.530  21.085   1.376
32339W        W 4599  28.903  25.097   2.738
32340W        W 4600  22.978  16.757  10.526
32341W        W 4601  11.316  16.706  11.292
32342W        W 4602  40.937   5.644  13.885
32343W        W 4603  13.206   4.670   9.947
32344W        W 4604  14.997   5.868   3.459
32345W        W 4605   5.412  28.686   3.396
32346W        W 4606   4.260  24.939   3.281
32347W        W 4607  38.522  25.237  12.046
32348W        W 4608   3.252  28.682  12.426
32349W        W 4609  43.980  33.476   1.349
32350W        W 4610   4.373  44.309  14.274
32351W        W 4611   4.923  19.566   1.658
32352W        W 4612  42.628  32.535  10.859
32353W        W 4613  43.045  38.672  10.117
32354W        W 4614  37.742   0.393  10.044
32355W        W 4615  28.234  16.092   0.339
32356W        W 4616  15.331   6.563   1.091
32357W        W 4617   6.050  15.773   1.749
32358W        W 4618   0.079  14.271   1.783
32359W        W 4619  36.054  12.859   3.809
32360W        W 4620  32.026  12.323  10.448
32361W        W 4621   4.141  38.349  14.762
32362W        W 4622   0.091  26.610  10.687
32363W        W 4623  22.729  43.811  13.843
32364W        W 4624  16.985   3.848  11.436
32365W        W 4625   3.671  37.022  11.488
32366W        W 4626  41.607  43.492  14.768
32367W        W 4627  25.509  35.891  10.736
32368W        W 4628  11.427  23.539  14.966
32369W        W 4629  12.879  35.368  11.979
32370W        W 4630  15.530   2.437  11.599
32371W        W 4631  32.965  21.580   3.018
32372W        W 4632  13.137  24.518  10.835
32373W        W 4633   0.457  37.457   1.338
32374W        W 4634  14.287  25.410   1.634
32375W        W 4635  17.252   6.876   3.047
32376W        W 4636  15.635  44.792   2.200
32377W        W 4637   5.760  25.187  11.502
32378W        W 4638  43.292  22.589   0.474
32379W        W 4639  28.243   7.716  10.061
32380W        W 4640  29.730  22.769  12.235
32381W        W 4641  34.315  24.072  13.111
32382W        W 4642  10.678  29.249  13.902
32383W        W 4643  40.382  19.685  11.626
32384W        W 4644  22.325  34.407   0.475
32385W        W 4645  18.259  38.609  13.743
32386W        W 4646  12.667  11.841   2.430
32387W        W 4647  35.893  30.334   2.723
32388W        W 4648   7.584  21.217  13.446
32389W        W 4649   5.940  24.787  11.173
32390W        W 4650  35.472  33.412   0.868
32391W        W 4651  29.490  34.462  14.045
32392W        W 4652  44.541  31.494   3.615
32393W        W 4653   2.426  29.523  11.982
32394W        W 4654  24.141  16.251  11.589
32395W        W 4655  39.535  28.657  10.741
32396W        W 4656  27.658  35.628  14.489
32397W        W 4657  42.860  41.054   2.729
32398W        W 4658  10.155  41.801   0.343
32399W        W 4659  42.359  41.120   3.296
32400W        W 4660   3.306   5.419   4.656
32401W        W 4661  27.823  26.629   3.605
32402W        W 4662  12.793  41.984  12.566
32403W        W 4663   7.292  40.444  13.180
32404W        W 4664   3.873  43.610  11.235
32405W        W 4665  41.464  33.423   3.066
32406W        W 4666  43.938   5.675  13.625
32407W        W 4667  16.672  28.248   2.664
32408W        W 4668  32.202   0.797   2.105
32409W        W 4669   6.774  23.148  12.831
32410W        W 4670  17.472  26.633   0.912
32411W        W 4671  34.595  31.393  11.261
32412W        W 4672  11.328  39.793  10.768
32413W        W 4673  16.740  40.346  13.954
32414W        W 4674  18.552   0.164  11.521
32415W        W 4675  22.692   0.705  13.935
32416W        W 4676  13.741  42.396  14.008
32417W        W 4677  34.864   3.378   1.309
32418W        W 4678  26.931  19.586   1.884
32419W        W 4679   0.976  29.421  12.181
32420W        W 4680  20.244  20.570   0.424
32421W        W 4681  18.570   8.852   2.708
32422W        W 4682   6.354  36.569  10.700
32423W        W 4683   4.252   4.245  10.624
32424W        W 4684  27.334   0.660   3.865
32425W        W 4685   8.936   6.633  13.503
32426W        W 4686  14.701  39.941   3.853
32427W        W 4687   0.773  39.430  12.943
32428W        W 4688  27.453  27.660  10.545
32429W        W 4689  10.644   2.271   2.590
32430W        W 4690  24.652  25.718  12.959
32431W        W 4691   1.305  30.053  13.487
32432W        W 4692   8.635  32.106   4.332
32433W        W 4693  18.306  43.219  12.485
32434W        W 4694  38.980  44.243  12.351
32435W        W 4695   6.873  28.744  10.088
32436W        W 4696  36.145  16.745   1.955
32437W        W 4697  41.478  23.348   2.457
32438W        W 4698   3.288  41.104   3.057
32439W        W 4699  37.875  37.925  10.301
32440W        W 4700  23.622  40.568   0.403
32441W        W 4701   0.756   3.643  11.506
32442W        W 4702   1.212   6.953  12.755
32443W        W 4703  10.362  34.006   2.804
32444W        W 4704  35.079   2.165   0.188
32445W        W 4705  36.782  32.524   3.312
32446W        W 4706  34.327  21.140  10.207
32447W        W 4707  18.523  27.077  10.585
32448W        W 4708  11.807  20.769   1.526
32449W        W 4709  14.236  15.792   3.809
32450W        W 4710  28.641   6.225   0.239
32451W        W 4711  31.807  42.562   3.259
32452W        W 4712  35.483   4.730  13.314
32453W        W 4713  31.921  42.937   1.032
32454W        W 4714  21.897  39.872   3.058
32455W        W 4715  21.915  42.384  12.089
32456W        W 4716   3.813   8.131  13.297
32457W        W 4717  24.525   1.944   1.586
32458W        W 4718  42.903  21.352   4.199
32459W        W 4719  44.372  28.448   3.701
32460W        W 4720  19.038   7.244  13.251
32461W        W 4721  32.077  40.074   4.157
32462W        W 4722   2.353   3.475   0.038
32463W        W 4723  11.502  32.916  14.830
32464W        W 4724  35.949   8.740   1.394
32465W        W 4725  33.904  11.759   3.651
32466W        W 4726   3.265   5.807  11.028
32467W        W 4727  15.915  13.625   4.309
32468W        W 4728   5.249  36.804   3.549
32469W        W 4729  19.125  31.230   3.183
32470W        W 4730   0.268   8.235  12.876
32471W        W 4731  13.853  10.281  13.022
32472W        W 4732  32.123  42.923   1.555
32473W        W 4733   5.450  28.703  13.969
32474W        W 4734   1.679  30.028   2.703
32475W        W 4735  38.811  33.626  11.801
32476W        W 4736  19.061   2.588  11.876
32477W        W 4737  35.832  35.036  13.954
32478W        W 4738  20.226   9.610  11.094
32479W        W 4739  38.998   5.736   4.996
32480W        W 4740  37.137  41.881  10.701
32481W        W 4741  22.793  29.173   4.590
32482W        W 4742  29.067  18.624  13.646
32483W        W 4743  37.418  39.141  14.527
32484W        W 4744  25.883  39.725  11.616
32485W        W 4745  41.496  40.958   0.480
32486W        W 4746  26.018  25.593   4.300
32487W        W 4747  18.134   9.338   0.223
32488W        W 4748  10.656  22.530   2.827
32489W        W 4749  13.580  43.833   4.564
32490W        W 4750  11.162   8.731   3.155
32491W        W 4751  20.662  37.253   1.354
32492W        W 4752  11.925  27.284   1.958
32493W        W 4753   9.908  23.770   2.837
32494W        W 4754  37.366  24.667   2.790
32495W        W 4755  44.524  17.985  12.324
32496W        W 4756  27.596  22.093  13.988
32497W        W 4757  38.088  12.017   0.517
32498W        W 4758  22.911   1.703   3.730
32499W        W 4759  41.567  24.688   1.302
32500W        W 4760  28.719  44.346  11.560
32501W        W 4761  40.414  14.094  14.978
32502W        W 4762   3.133  28.400   2.250
32503W        W 4763   7.693  33.222   5.073
32504W        W 4764  44.729  29.197   0.688
32505W        W 4765  12.636   7.308  10.701
32506W        W 4766  27.517  41.255  14.323
32507W        W 4767  25.417  40.787  12.923
32508W        W 4768  37.006  24.040  10.669
32509W        W 4769   9.704   9.632   2.522
32510W        W 4770  14.917  16.258   5.272
32511W        W 4771  15.667  27.489   3.127
32512W        W 4772  44.876  34.031  12.934
32513W        W 4773  17.323  42.730   0.836
32514W        W 4774  42.738  33.881  13.947
32515W        W 4775  37.076   6.979  12.435
32516W        W 4776   5.637  34.883  12.970
32517W        W 4777  31.364  39.953   0.716
32518W        W 4778  14.077  10.066   4.200
32519W        W 4779   9.377  12.158   1.282
32520W        W 4780   2.363  29.992  14.967
32521W        W 4781  38.194  13.111   1.354
32522W        W 4782   8.629   6.200  12.442
32523W        W 4783  22.374  43.259  11.551
32524W        W 4784  44.720   7.300   1.689
32525W        W 4785  31.418  38.684  13.754
32526W        W 4786  12.806   6.996  13.862
32527W        W 4787  21.804  16.576   1.368
32528W        W 4788  39.536  30.154   4.515
32529W        W 4789   6.643  12.706   2.454
32530W        W 4790  33.193  40.033  11.709
32531W        W 4791  39.139   8.456   3.155
32532W        W 4792  17.405  18.847   0.934
32533W        W 4793   4.750   9.291   1.633
32534W        W 4794  18.262  32.199   4.804
32535W        W 4795  25.347   4.747   1.330
32536W        W 4796  40.095  30.566  13.427
32537W        W 4797   9.873  20.153  10.740
32538W        W 4798   5.350  23.745   2.752
32539W        W 4799   8.258  32.542  13.384
32540W        W 4800  15.413  27.125   2.833
32541W        W 4801   4.704  35.524  12.439
32542W        W 4802  18.584  25.282   3.691
32543W        W 4803  22.462   2.180   0.808
32544W        W 4804  38.072  19.061  10.679
32545W        W 4805  44.812   1.799  12.483
32546W        W 4806  11.221  43.524   4.164
32547W        W 4807   8.897  12.224  14.548
32548W        W 4808  13.094  35.374   0.531
32549W        W 4809  25.547  44.933   4.089
32550W        W 4810   0.979  36.902   4.672
32551W        W 4811  36.877   7.421  13.501
32552W        W 4812  19.325   4.836   3.039
32553W        W 4813  27.747   7.277  10.954
32554W        W 4814  27.605  25.694  11.557
32555W        W 4815  36.325   5.352   0.450
32556W        W 4816  14.401  19.224  11.094
32557W        W 4817  43.434  22.090   2.235
32558W        W 4818  18.585  36.082  10.973
32559W        W 4819   0.465  11.213   4.840
32560W        W 4820  28.624   0.022   1.762
32561W        W 4821  19.318  27.457  13.925
32562W        W 4822  20.855  11.856  11.456
32563W        W 4823  42.938  12.284   3.934
32564W        W 4824   5.138  39.109   2.901
32565W        W 4825  20.607  30.584  12.321
32566W        W 4826  13.781  37.562   0.425
32567W        W 4827  26.326  18.236   1.686
32568W        W 4828  39.740   8.819  12.024
32569W        W 4829  43.739   5.041  11.326
32570W        W 4830  34.184  44.394   2.601
32571W        W 4831  30.948  11.471   1.444
32572W        W 4832  17.498  35.742  11.677
32573W        W 4833  12.473  41.655  12.789
32574W        W 4834  20.604  42.198  13.667
32575W        W 4835   0.558  29.155  14.399
32576W        W 4836  26.872  41.218  12.964
32577W        W 4837  40.601  17.451  14.260
32578W        W 4838  17.779   0.087  12.519
32579W        W 4839  12.878  35.966  11.576
32580W        W 4840  16.331   6.193   4.256
32581W        W 4841  32.692  31.952  11.567
32582W        W 4842  22.501  36.570   3.104
32583W        W 4843  37.467  26.472  14.916
32584W        W 4844  38.412  36.935   4.293
32585W        W 4845  39.202  11.219   1.800
32586W        W 4846  32.225  12.182  11.315
32587W        W 4847  34.549   0.319  13.108
32588W        W 4848  43.973  31.012  11.917
32589W        W 4849  23.520  41.781  14.878
32590W        W 4850  14.446  42.946   0.417
32591W        W 4851  43.433   1.573  12.851
32592W        W 4852  23.502  22.531   2.276
32593W        W 4853   1.639   1.235   1.937
32594W        W 4854  27.516  40.766   1.931
32595W        W 4855  36.353  22.758  13.375
32596W        W 4856  32.456  23.803  13.311
32597W        W 4857  35.663  14.722  13.326
32598W        W 4858  10.875  29.939  10.616
32599W        W 4859  37.756   6.522   4.668
32600W        W 4860   2.806  29.168  11.917
32601W        W 4861  28.175  31.158  11.543
32602W        W 4862  35.272   7.870  13.617
32603W        W 4863  31.555  11.687   0.208
32604W        W 4864  22.097  10.340   2.104
32605W        W 4865   5.920  19.236  12.442
32606W        W 4866  40.011  26.127  10.804
32607W        W 4867  32.393  43.027   0.826
32608W        W 4868  12.683  35.206   2.620
32609W        W 4869  16.514   6.540   0.806
32610W        W 4870  24.165  16.037  12.064
32611W        W 4871  16.860   6.639   5.043
32612W        W 4872  10.346  24.145  12.473
32613W        W 4873  16.980  43.262   1.692
32614W        W 4874  36.337  31.916   2.690
32615W        W 4875  26.059  18.150   3.543
32616W        W 4876  17.302  28.161   1.412
32617W        W 4877  18.282   9.312  14.246
32618W        W 4878  36.972   8.695  10.162
32619W        W 4879  26.448  13.830  13.472
32620W        W 4880   2.795  22.231  12.735
32621W        W 4881  23.118  21.326  12.074
32622W        W 4882  19.325  17.812  14.187
32623W        W 4883  13.195  28.458  14.976
32624W        W 4884  34.041  13.446  11.121
32625W        W 4885   9.698  36.447   4.046
32626W        W 4886  35.585  39.302  10.688
32627W        W 4887  23.006  31.913   4.197
32628W        W 4888  13.893  36.972   3.909
32629W        W 4889  13.759  29.614  14.615
32630W        W 4890  23.967  13.163   1.243
32631W        W 4891  13.590  16.511   2.450
32632W        W 4892  21.030  34.495  12.433
32633W        W 4893   1.901  28.973  12.468
32634W        W 4894  30.692  22.130  13.953
32635W        W 4895  40.718  42.266   3.573
32636W        W 4896  24.739  35.042   3.352
32637W        W 4897  40.992  31.721   4.120
32638W        W 4898   6.278  35.670   1.111
32639W        W 4899  40.133   6.237  11.093
32640W        W 4900  34.992  22.037  10.439
32641W        W 4901  18.784  38.505   1.836
32642W        W 4902  20.515  12.134   1.396
32643W        W 4903  20.004  24.574  11.123
32644W        W 4904  34.934  18.854   2.665
32645W        W 4905  43.660  18.487  13.348
32646W        W 4906  42.852  41.311   3.207
32647W        W 4907  22.657  14.699  12.882
32648W        W 4908  24.800   9.800   2.333
32649W        W 4909  26.943  44.312  10.259
32650W        W 4910   3.950  23.179   2.216
32651W        W 4911  14.297  27.851  13.511
32652W        W 4912   6.634   1.784  11.203
32653W        W 4913  34.663  40.885   2.217
32654W        W 4914  36.743  27.542   3.698
32655W        W 4915  28.093  43.862   0.844
32656W        W 4916   8.483   9.708   0.254
32657W        W 4917   1.250  20.970   4.829
32658W        W 4918   8.129   5.581   1.163
32659W        W 4919  41.354  15.165  10.424
32660W        W 4920  30.948  28.196  12.893
32661W        W 4921   2.978  38.825   3.189
32662W        W 4922   8.241  41.986   4.792
32663W        W 4923   3.012  24.369   3.602
32664W        W 4924  28.599  27.463   2.094
32665W        W 4925  19.722  15.599  10.652
32666W        W 4926  37.570  11.048  11.056
32667W        W 4927  26.675   6.344   0.708
32668W        W 4928   5.377  20.224   1.746
32669W        W 4929  29.376   1.740  13.378
32670W        W 4930  21.568  27.682   3.866
32671W        W 4931  20.342  29.271   0.593
32672W        W 4932  36.991   6.622   1.785
32673W        W 4933  43.822  27.779   3.115
32674W        W 4934  21.033  24.756   3.713
32675W        W 4935  36.025  44.088  10.738
32676W        W 4936  15.249  39.846   0.300
32677W        W 4937  19.702  15.550   0.356
32678W        W 4938  34.539  37.415  12.896
32679W        W 4939   6.227  11.621  12.563
32680W        W 4940  42.820   4.928   2.438
32681W        W 4941  11.029  16.294  14.066
32682W        W 4942   2.541  42.451   2.932
32683W        W 4943  30.180  17.682   4.871
32684W        W 4944  41.473  35.566  12.312
32685W        W 4945  22.554  21.041   4.842
32686W        W 4946  18.575   6.191  12.518
32687W        W 4947  10.958  11.628   4.953
32688W        W 4948  10.414  30.623  11.908
32689W        W 4949  31.530   1.970   1.664
32690W        W 4950  22.532  40.422  14.032
32691W        W 4951  10.393  14.772   4.035
32692W        W 4952  11.168   6.353  14.513
32693W        W 4953   0.821  40.295   0.416
32694W        W 4954   4.212  34.218   4.549
32695W        W 4955   9.822  14.878  11.065
32696W        W 4956   5.817  17.345  12.437
32697W        W 4957  44.498  19.610  10.976
32698W        W 4958  38.599  26.064   4.776
32699W        W 4959   5.354  31.475   2.492
32700W        W 4960  35.859   2.217  12.946
32701W        W 4961  41.401   9.832  10.444
32702W        W 4962  24.137  17.761  12.533
32703W        W 4963  19.845   0.318   4.004
32704W        W 4964  22.474  12.630  12.408
32705W        W 4965   1.457  24.140   1.884
32706W        W 4966  34.540  43.362   3.871
32707W        W 4967  13.173  13.283   0.406
32708W        W 4968  12.108  19.176  13.087
32709W        W 4969  21.299  11.864  12.965
32710W        W 4970  36.240  23.524  10.442
32711W        W 4971   8.909   9.939  12.063
32712W        W 4972   1.690  27.433  12.527
32713W        W 4973  21.469   5.773  10.270
32714W        W 4974   6.397  24.916   0.342
32715W        W 4975  44.818   9.876   4.239
32716W        W 4976   2.976  17.345  13.281
32717W        W 4977  27.459  30.196   1.941
32718W        W 4978  32.996  37.046   4.699
32719W        W 4979  27.475  26.891   4.602
32720W        W 4980  24.763  11.643  10.825
32721W        W 4981  20.994  32.587  13.200
32722W        W 4982  42.693  36.226  10.135
32723W        W 4983  30.879  25.091  12.492
32724W        W 4984   9.797  26.097   1.478
32725W        W 4985  42.717   0.538   2.227
32726W        W 4986  22.275  37.984   3.562
32727W        W 4987  16.691  13.734  14.321
32728W        W 4988  36.317  40.079  14.014
32729W        W 4989   9.390  23.608  13.339
32730W        W 4990  43.947  37.911   1.429
32731W        W 4991  23.397  28.365  13.269
32732W        W 4992  30.526  21.353   0.918
32733W        W 4993   4.063  22.591  11.853
32734W        W 4994   8.205  21.193   2.927
32735W        W 4995  24.141  40.284  13.480
32736W        W 4996  21.152   4.646   1.491
32737W        W 4997  18.685  25.048   1.360
32738W        W 4998   4.197  12.808   2.265
32739W        W 4999   6.723  41.303  10.569
32740W        W 5000   1.708  27.121   0.022
32741W        W 5001  37.659   1.193   1.352
32742W        W 5002  20.150  31.904  14.362
32743W        W 5003  27.964  13.478   4.215
32744W        W 5004  35.433   1.284   3.162
32745W        W 5005  23.125   4.398   3.630
32746W        W 5006   9.372  43.328   2.342
32747W        W 5007  33.743  43.333   0.772
32748W        W 5008  32.970  10.205   2.960
32749W        W 5009   4.677  31.674   0.260
32750W        W 5010   2.057   2.264  10.596
32751W        W 5011   2.846  19.313  13.280
32752W        W 5012  13.600  17.149  11.518
32753W        W 5013  15.689   0.966  13.863
32754W        W 5014   6.269   1.155   0.417
32755W        W 5015   4.257  43.116   5.059
32756W        W 5016   6.316  43.295   0.946
32757W        W 5017  11.963  44.658  14.801
32758W        W 5018  34.065  18.779  11.825
32759W        W 5019  16.885  30.068  13.304
32760W        W 5020  18.659  42.675   4.359
32761W        W 5021  27.890  21.754   4.104
32762W        W 5022  14.695  40.523  12.967
32763W        W 5023  38.380  28.311   0.204
32764W        W 5024  35.966  32.197   3.324
32765W        W 5025  28.537  39.886  10.347
32766W        W 5026  35.821  17.883  13.959
32767W        W 5027  16.327  34.628   2.760
32768W        W 5028  31.886  29.670  11.987
32769W        W 5029  31.886   8.789   0.229
32770W        W 5030  33.934  17.557  11.208
32771W        W 5031  20.263  15.560  11.093
32772W        W 5032  19.356  33.428  12.414
32773W        W 5033   2.756  19.507   3.881
32774W        W 5034   1.849  21.772  11.047
32775W        W 5035  12.727  28.519   4.251
32776W        W 5036  15.226  10.237   2.400
32777W        W 5037   7.300   4.248   0.954
32778W        W 5038  40.053  34.592  11.683
32779W        W 5039  36.075   3.764   5.184
32780W        W 5040  29.457  23.895  10.849
32781W        W 5041  12.629  44.043  14.093
32782W        W 5042  26.836   4.874   1.212
32783W        W 5043  31.403  40.019  13.551
32784W        W 5044  40.917  43.061  13.808
32785W        W 5045  40.991   2.391  12.421
32786W        W 5046   7.639  42.004   4.137
32787W        W 5047  31.502  17.797   1.205
32788W        W 5048  27.134  22.041   0.312
32789W        W 5049  31.372  15.659  12.825
32790W        W 5050   8.097  38.546  11.474
32791W        W 5051  30.881   1.256  11.547
32792W        W 5052   3.212   4.899  14.986
32793W        W 5053  26.939  11.792  13.514
32794W        W 5054  14.271  36.262   1.807
32795W        W 5055  35.025  18.250   2.288
32796W        W 5056   9.743  16.568  13.092
32797W        W 5057  32.105  41.257   0.418
32798W        W 5058   3.209  41.530   0.123
32799W        W 5059  20.314  43.721   0.109
32800W        W 5060  32.017  11.625  14.512
32801W        W 5061  21.433   5.260   4.821
32802W        W 5062  16.192  19.342  12.160
32803W        W 5063  14.794  23.259  11.649
32804W        W 5064  29.091   9.699   4.274
32805W        W 5065  31.143   8.041  14.901
32806W        W 5066   4.989   0.834   3.743
32807W        W 5067  18.665  13.337   0.678
32808W        W 5068  14.665  43.738   3.938
32809W        W 5069   7.314  25.695   0.964
32810W        W 5070  28.251  35.530   4.110
32811W        W 5071  33.578  39.339   1.342
32812W        W 5072   5.348  38.881  14.233
32813W        W 5073  30.401   2.283  14.786
32814W        W 5074  25.661  28.240   2.934
32815W        W 5075   3.712  37.487   4.932
32816W        W 5076   3.654  18.677   2.359
32817W        W 5077   2.364   8.340  11.610
32818W        W 5078  32.182  44.353  13.029
32819W        W 5079  27.402  19.359   2.629
32820W        W 5080  26.942  23.722  11.075
32821W        W 5081  30.076   3.825  11.460
32822W        W 5082  36.063   0.073   3.204
32823W        W 5083  12.851  42.533   4.076
32824W        W 5084  43.428  34.979  11.665
32825W        W 5085  11.143   7.279  14.495
32826W        W 5086  24.443   9.397  13.915
32827W        W 5087  40.960   7.067   3.433
32828W        W 5088  43.037  39.458  13.817
32829W        W 5089  12.132  32.392  12.168
32830W        W 5090   6.458  25.970   2.341
32831W        W 5091   1.486   1.888   3.332
32832W        W 5092  37.263  14.361   3.801
32833W        W 5093  39.407   0.287  11.049
32834W        W 5094  23.125   7.285   2.922
32835W        W 5095  14.354  44.019   1.753
32836W        W 5096  37.965  11.562   0.697
32837W        W 5097  36.037  31.216   3.271
32838W        W 5098  14.601   2.367  13.375
32839W        W 5099  28.630  14.112   0.339
32840W        W 5100  35.126  26.172  12.070
32841W        W 5101  39.668  43.970   4.609
32842W        W 5102   0.958  34.340  12.964
32843W        W 5103   7.848  38.898   5.366
32844W        W 5104  33.418  20.752  14.679
32845W        W 5105  41.369  21.533   4.307
32846W        W 5106   2.604  27.540  11.456
32847W        W 5107  18.516  10.449   1.337
32848W        W 5108   3.662  29.213   0.731
32849W        W 5109  41.033  17.762   0.524
32850W        W 5110   1.282   5.017  12.287
32851W        W 5111   9.896  22.051  10.467
32852W        W 5112   5.615  37.943  11.069
32853W        W 5113  42.532  13.425   3.821
32854W        W 5114  34.213  43.058  11.180
32855W        W 5115   2.309  38.075  11.033
32856W        W 5116  30.695  44.833  13.985
32857W        W 5117   5.874  13.106  11.165
32858W        W 5118  39.065  33.971  11.012
32859W        W 5119  18.518  42.374  12.755
32860W        W 5120  23.691  35.112   0.791
32861W        W 5121  13.306  26.424   2.290
32862W        W 5122   7.124  38.395   0.930
32863W        W 5123   4.303  20.719  12.416
32864W        W 5124  24.424  14.627   3.183
32865W        W 5125  12.806  29.691  14.763
32866W        W 5126  33.589  16.979   4.149
32867W        W 5127   0.973  15.201   1.647
32868W        W 5128  32.863  16.528  11.967
32869W        W 5129  10.184   4.809  10.904
32870W        W 5130  21.813  35.310   2.283
32871W        W 5131  29.684   5.651   3.995
32872W        W 5132  11.729  12.235  14.100
32873W        W 5133   6.362  37.954   2.797
32874W        W 5134  33.035  43.050  11.810
32875W        W 5135  15.198  31.315  14.923
32876W        W 5136  17.342  28.443  10.532
32877W        W 5137  43.826  37.515   3.817
32878W        W 5138  31.829  31.969   1.608
32879W        W 5139   0.920   7.609  11.688
32880W        W 5140  43.341   2.041  14.316
32881W        W 5141   9.680  18.304   4.577
32882W        W 5142  36.464  28.758  14.358
32883W        W 5143  44.499   3.330  14.783
32884W        W 5144  26.616   3.014   1.435
32885W        W 5145  18.541  20.676   1.240
32886W        W 5146  24.657  39.041  10.822
32887W        W 5147  38.587  17.151   2.426
32888W        W 5148  22.719  28.109   2.795
32889W        W 5149  18.647  31.496  14.896
32890W        W 5150  20.607   9.523  12.392
32891W        W 5151  19.713  31.423  10.712
32892W        W 5152   5.497  16.033   3.733
32893W        W 5153   6.343  28.134   9.766
32894W        W 5154  24.185  15.832   2.741
32895W        W 5155  35.392  21.228  14.396
32896W        W 5156   9.310   5.879  13.137
32897W        W 5157  42.377  34.581  10.902
32898W        W 5158  40.147  17.084  14.323
32899W        W 5159   4.791   7.375  12.079
32900W        W 5160   3.794  26.519   4.820
32901W        W 5161  18.624  42.632  11.179
32902W        W 5162  40.793  10.315  14.375
32903W        W 5163   7.632   4.575  13.824
32904W        W 5164   3.979  13.548  11.870
32905W        W 5165  10.672  21.135   3.724
32906W        W 5166   8.626  34.903  11.422
32907W        W 5167  15.927  40.993  11.191
32908W        W 5168  33.429   0.631   2.161
32909W        W 5169  33.365  33.003   0.174
32910W        W 5170  38.494  19.905  12.606
32911W        W 5171  14.174   1.202  14.522
32912W        W 5172  31.353   2.354  11.973
32913W        W 5173  44.506  14.054  11.339
32914W        W 5174  16.128  44.903   4.086
32915W        W 5175  29.571  20.128   4.357
32916W        W 5176  35.871  24.489   4.010
32917W        W 5177  40.572  13.877  14.354
32918W        W 5178  18.157   6.228  13.446
32919W        W 5179   1.638  40.968  10.711
32920W        W 5180  16.753   1.810  11.932
32921W        W 5181   6.807  20.333   1.380
32922W        W 5182  19.640  15.094  10.679
32923W        W 5183  18.089   2.009  10.561
32924W        W 5184  34.568   6.922  13.316
32925W        W 5185  44.586  40.592   4.107
32926W        W 5186  31.514   2.413   0.894
32927W        W 5187  18.794  22.677  13.799
32928W        W 5188  13.611  24.089  13.133
32929W        W 5189  32.897   0.841  13.958
32930W        W 5190  20.750  30.942  11.542
32931W        W 5191  26.116  19.031  11.571
32932W        W 5192  16.114  31.160  11.071
32933W        W 5193  13.082  24.032   3.616
32934W        W 5194   8.513   6.366  11.051
32935W        W 5195   5.234   9.929  14.008
32936W        W 5196  17.749   1.503   0.911
32937W        W 5197   1.445  26.181   2.431
32938W        W 5198   1.884  13.828  13.903
32939W        W 5199  44.590  26.907  14.699
32940W        W 5200  43.516  42.280   2.288
32941W        W 5201  31.091  36.411   1.019
32942W        W 5202  44.713  14.819  11.637
32943W        W 5203   4.496  10.825   0.773
32944W        W 5204  17.718   6.407  13.962
32945W        W 5205  33.813   7.357   0.468
32946W        W 5206  43.761   3.671  11.258
32947W        W 5207  26.115  33.831  14.841
32948W        W 5208  34.934   5.699   3.268
32949W        W 5209  28.636  33.020   5.433
32950W        W 5210   3.644  38.790  13.501
32951W        W 5211  15.992   3.491   0.945
32952W        W 5212  21.646  39.464  10.381
32953W        W 5213  44.193  41.930  11.162
32954W        W 5214  30.892   7.490   1.116
32955W        W 5215  13.611  44.951   1.441
32956W        W 5216   5.862  28.812   5.014
32957W        W 5217  28.001  17.310   4.490
32958W        W 5218  36.406  44.352   3.935
32959W        W 5219  20.351  11.827  13.312
32960W        W 5220   3.103   4.171  11.933
32961W        W 5221  23.756  34.561   1.672
32962W        W 5222  20.540  12.731  11.094
32963W        W 5223  27.902   1.853   0.358
32964W        W 5224  25.792   1.463  10.739
32965W        W 5225  37.981   0.405  14.018
32966W        W 5226   7.143  30.623  14.386
32967W        W 5227  22.908  42.951   2.307
32968W        W 5228   8.821  31.517  14.795
32969W        W 5229  34.897  40.145   1.411
32970W        W 5230  11.681  27.496   4.487
32971W        W 5231  39.757  25.957   1.740
32972W        W 5232  34.307  28.795  12.549
32973W        W 5233  17.608  33.799   2.638
32974W        W 5234   4.723  16.433   2.696
32975W        W 5235  33.172  26.141   3.793
32976W        W 5236  19.702   2.825  14.817
32977W        W 5237  16.361  40.646   2.542
32978W        W 5238  40.988  44.529  10.772
32979W        W 5239  20.184  25.118  14.881
32980W        W 5240  29.506  38.397  13.327
32981W        W 5241   3.122   1.066   3.834
32982W        W 5242  10.770  19.421   4.258
32983W        W 5243  15.881  30.479   2.692
32984W        W 5244  23.699  17.742   2.430
32985W        W 5245   1.784  33.892   4.628
32986W        W 5246   9.810   4.130   0.455
32987W        W 5247  15.281  26.567   1.190
32988W        W 5248  17.035   0.485  11.564
32989W        W 5249  30.482   5.425   0.193
32990W        W 5250  32.151  27.049  14.548
32991W        W 5251  16.083  42.251   0.493
32992W        W 5252  22.088   7.900   2.663
32993W        W 5253  12.850  31.512   1.024
32994W        W 5254  32.553   7.126  11.491
32995W        W 5255   7.769  44.526  12.560
32996W        W 5256  24.998  20.270   3.765
32997W        W 5257  20.244  20.016   4.557
32998W        W 5258   9.795  24.272   2.809
32999W        W 5259  37.181  31.012  10.833
33000W        W 5260  41.294  34.938  13.388
33001W        W 5261  12.847  26.132  12.474
33002W        W 5262  25.675   9.224   0.884
33003W        W 5263  41.192  42.483  14.805
33004W        W 5264  43.616   1.654   1.086
33005W        W 5265   8.253  19.635   3.656
33006W        W 5266  17.353  28.576  14.625
33007W        W 5267   4.336  36.430  12.553
33008W        W 5268  42.075  41.278  12.986
33009W        W 5269  30.792  43.257  13.395
33010W        W 5270  12.180  27.648  11.079
33011W        W 5271  24.984   0.919  14.586
33012W        W 5272   4.744  21.100  10.771
33013W        W 5273   2.512  27.226   2.215
33014W        W 5274  18.602  33.001   2.374
33015W        W 5275  25.460  32.871   1.327
33016W        W 5276  20.618  44.209  11.199
33017W        W 5277   7.374  28.441   0.283
33018W        W 5278   5.521  13.733   3.721
33019W        W 5279  32.929   3.438  10.712
33020W        W 5280  32.557   3.485   2.823
33021W        W 5281   1.685  21.788  13.438
33022W        W 5282  14.121  33.468   0.402
33023W        W 5283   1.719  25.459  14.108
33024W        W 5284   8.099  33.075   3.726
33025W        W 5285  40.475  38.759  13.280
33026W        W 5286  24.158  28.242   0.308
33027W        W 5287  32.666  37.381  12.521
33028W        W 5288  23.084  33.885   3.900
33029W        W 5289  26.603  22.325  10.610
33030W        W 5290   8.111  14.303   0.341
33031W        W 5291  15.292  31.062   1.926
33032W        W 5292  27.966  43.448   2.750
33033W        W 5293  28.709  16.835  13.806
33034W        W 5294  38.501  12.976  11.070
33035W        W 5295  20.230   8.320  12.952
33036W        W 5296  22.165  27.770  12.375
33037W        W 5297  34.529  25.687  12.540
33038W        W 5298   3.767  38.561   0.074
33039W        W 5299  32.602   7.299  12.596
33040W        W 5300  16.273  16.951   5.612
33041W        W 5301  17.575  36.061   3.213
33042W        W 5302  27.037   4.438   1.401
33043W        W 5303   4.737  11.299  11.059
33044W        W 5304  26.957  17.480  11.458
33045W        W 5305  30.720   3.707   2.835
33046W        W 5306  15.663  16.061  13.342
33047W        W 5307  24.544   8.566  10.690
33048W        W 5308  10.864  32.767  12.630
33049W        W 5309  30.775  38.020   3.901
33050W        W 5310  41.033  18.481  14.526
33051W        W 5311  38.388  42.261  12.034
33052W        W 5312  16.931  15.689   5.376
33053W        W 5313  37.542  17.874   4.085
33054W        W 5314  40.861   5.733   2.797
33055W        W 5315   1.362  30.853  13.936
33056W        W 5316  11.209  19.169  13.162
33057W        W 5317  38.368   3.174   1.779
33058W        W 5318  24.714  12.464   0.451
33059W        W 5319  24.611  19.949   3.805
33060W        W 5320  44.958  38.117   2.263
33061W        W 5321  30.645  27.044   2.476
33062W        W 5322  27.669  36.968   2.840
33063W        W 5323  38.331  14.309   0.821
33064W        W 5324   8.124  16.054  10.669
33065W        W 5325  16.158  40.193   2.691
33066W        W 5326  17.492   0.754   3.294
33067W        W 5327  14.811  11.460  10.353
33068W        W 5328  21.232  14.320  10.012
33069W        W 5329  21.586   3.491  11.574
33070W        W 5330  30.685   6.799   4.965
33071W        W 5331   0.787  42.237  12.046
33072W        W 5332  18.226  44.695  13.575
33073W        W 5333  39.201  35.607   2.814
33074W        W 5334   4.763  14.807  10.698
33075W        W 5335   0.737  12.235  11.933
33076W        W 5336  23.586   5.496  11.764
33077W        W 5337  13.960   3.228  14.289
33078W        W 5338   0.310   1.487  14.759
33079W        W 5339  12.635  23.141   2.362
33080W        W 5340   8.814  17.075   2.647
33081W        W 5341   4.605  40.082   2.178
33082W        W 5342  43.464  27.534  11.047
33083W        W 5343  39.129  34.595   4.200
33084W        W 5344  33.135  34.553  13.830
33085W        W 5345  10.101  29.563  12.804
33086W        W 5346   8.813   4.278   2.183
33087W        W 5347  36.248  34.352  11.260
33088W        W 5348  33.456  12.911   4.138
33089W        W 5349  15.742  33.512   0.931
33090W        W 5350  16.248  39.320   2.399
33091W        W 5351  30.825   4.012   3.823
33092W        W 5352  17.570  41.214  11.441
33093W        W 5353  26.601  14.898   0.950
33094W        W 5354  21.280   3.786  14.886
33095W        W 5355  43.044  28.176  13.834
33096W        W 5356   7.521  27.625  11.488
33097W        W 5357  26.171  37.832  11.449
33098W        W 5358  26.416   2.796  11.146
33099W        W 5359  16.505  22.085  13.791
33100W        W 5360   4.953  37.027  13.060
33101W        W 5361  40.842  17.439  13.119
33102W        W 5362  26.119  41.559   3.204
33103W        W 5363  37.164   0.550  11.173
33104W        W 5364  40.764  34.190  10.765
33105W        W 5365  10.334  13.405   3.668
33106W        W 5366  16.736  27.628   3.619
33107W        W 5367  13.432   9.989  13.077
33108W        W 5368   7.127  14.500  13.890
33109W        W 5369  34.088  19.221  14.289
33110W        W 5370  34.427  18.893  14.014
33111W        W 5371   7.227  17.741   4.679
33112W        W 5372  35.605  20.209   3.893
33113W        W 5373   7.713  39.502  11.153
33114W        W 5374   0.396  44.717  11.970
33115W        W 5375  16.314   7.710  12.022
33116W        W 5376  27.882  15.225  14.860
33117W        W 5377   6.206  36.898  14.970
33118W        W 5378   2.199  10.401   3.625
33119W        W 5379  44.884  42.026   3.170
33120W        W 5380  21.757  31.624   2.154
33121W        W 5381  42.979  21.166  10.915
33122W        W 5382  36.457  42.345  11.054
33123W        W 5383  36.140  27.827  12.124
33124W        W 5384  26.845  23.604   2.598
33125W        W 5385  32.677  18.106  12.033
33126W        W 5386  25.505   5.332  10.660
33127W        W 5387  27.569  12.232   4.328
33128W        W 5388   5.202  43.930   2.921
33129W        W 5389  14.484  20.391  13.375
33130W        W 5390  43.195  35.957  14.484
33131W        W 5391  42.007  44.315  14.692
33132W        W 5392  17.541  38.367   1.252
33133W        W 5393  18.656  30.423   4.193
33134W        W 5394   9.737  24.005  11.706
33135W        W 5395  13.276  19.395  13.316
33136W        W 5396  40.051   5.565  14.283
33137W        W 5397  22.025  21.258   4.055
33138W        W 5398  16.183  40.193   3.836
33139W        W 5399  37.212  20.557   4.707
33140W        W 5400   5.724  29.896  14.869
33141W        W 5401  24.003  36.478   1.366
33142W        W 5402  13.662  21.147   3.409
33143W        W 5403  27.057  35.504   4.774
33144W        W 5404  25.610  21.153   3.170
33145W        W 5405   6.283   7.937   1.044
33146W        W 5406  21.865  25.221   1.597
33147W        W 5407  34.390   1.414  10.324
33148W        W 5408  39.761  37.592  12.942
33149W        W 5409  31.491   5.882   4.151
33150W        W 5410   7.688  21.147   4.112
33151W        W 5411  38.066  13.658  14.614
33152W        W 5412  19.787   0.889  12.903
33153W        W 5413  27.956  36.122  11.506
33154W        W 5414   8.033  14.323  11.126
33155W        W 5415  13.894  41.104  14.377
33156W        W 5416   6.006   3.277   1.285
33157W        W 5417  12.951  18.541   2.102
33158W        W 5418   5.835   4.281  11.153
33159W        W 5419   3.736  15.257  13.097
33160W        W 5420  19.816   6.786   2.693
33161W        W 5421  21.749   4.777  13.094
33162W        W 5422  33.544  13.290  11.156
33163W        W 5423  42.041   9.611   4.583
33164W        W 5424  39.056  39.791  12.050
33165W        W 5425  32.050  29.436   2.231
33166W        W 5426  30.062   4.310  11.673
33167W        W 5427   6.665  23.494  12.053
33168W        W 5428  29.171   9.962   3.845
33169W        W 5429  38.608  13.372   1.802
33170W        W 5430  35.998  29.681   1.392
33171W        W 5431   4.257  34.006   3.684
33172W        W 5432   5.017  38.840  13.758
33173W        W 5433   6.733  40.065  11.072
33174W        W 5434  43.095  22.344   4.308
33175W        W 5435   2.944  16.848  13.125
33176W        W 5436   7.425  23.487  10.768
33177W        W 5437  38.546   5.672   1.494
33178W        W 5438  22.579  13.690   3.847
33179W        W 5439   9.550  37.702  14.781
33180W        W 5440   6.696  17.615  10.491
33181W        W 5441  18.241  26.054   2.777
33182W        W 5442  19.819  41.906  13.049
33183W        W 5443  44.806  41.484  10.652
33184W        W 5444  20.381   3.038   3.073
33185W        W 5445  38.718  24.558   3.253
33186W        W 5446  35.057   7.512   9.735
33187W        W 5447  23.167  18.396   0.055
33188W        W 5448  22.685   8.151  11.941
33189W        W 5449  15.868  38.388  14.604
33190W        W 5450  23.239  39.994  13.507
33191W        W 5451  15.842  19.738   1.292
33192W        W 5452  40.629  36.144   1.231
33193W        W 5453  18.522  34.108  14.372
33194W        W 5454  37.913  30.954   0.115
33195W        W 5455  28.544  42.777  12.500
33196W        W 5456  10.217  44.023  13.892
33197W        W 5457  26.004  19.373   0.739
33198W        W 5458  39.435   3.390  13.391
33199W        W 5459   1.105  24.988  11.583
33200W        W 5460  35.807  26.134  12.822
33201W        W 5461  41.029   5.183  11.804
33202W        W 5462  20.062  32.885   1.946
33203W        W 5463  38.371  37.279   0.255
33204W        W 5464   8.373  25.696   3.805
33205W        W 5465  40.758  17.101   3.875
33206W        W 5466  37.543  14.698   0.953
33207W        W 5467  12.472  33.859  10.976
33208W        W 5468   8.388  31.090   2.983
33209W        W 5469  13.729  17.528   2.181
33210W        W 5470  15.187  44.345  14.975
33211W        W 5471   6.527  24.039  14.952
33212W        W 5472  39.326  27.484   2.794
33213W        W 5473  28.489   5.725  13.811
33214W        W 5474  32.337  28.545  13.112
33215W        W 5475  28.031   8.936  13.778
33216W        W 5476  20.259  25.299   4.500
33217W        W 5477  33.608   1.003   1.877
33218W        W 5478  35.683  18.683  13.607
33219W        W 5479  11.065  16.120  11.608
33220W        W 5480   0.401   5.516  10.625
33221W        W 5481  17.577  33.648  14.768
33222W        W 5482  29.628  10.886   0.793
33223W        W 5483   5.390  44.382  13.009
33224W        W 5484  14.489  32.964  11.434
33225W        W 5485  10.078   5.437   4.092
33226W        W 5486  31.420   3.310  13.370
33227W        W 5487   9.655  30.500  14.187
33228W        W 5488   0.395  29.172   3.589
33229W        W 5489  40.209  25.005   3.756
33230W        W 5490  22.388   1.741  14.433
33231W        W 5491  36.868   0.560  12.046
33232W        W 5492  11.741  18.301  14.866
33233W        W 5493   2.279  25.747  12.898
33234W        W 5494  31.515  20.759   0.889
33235W        W 5495  27.966  21.432   1.190
33236W        W 5496  34.615  25.445   4.733
33237W        W 5497  31.436   9.001  14.753
33238W        W 5498  25.623   6.055   4.111
33239W        W 5499  30.482  14.746  13.618
33240W        W 5500  24.980  36.055   1.963
33241W        W 5501   4.686  10.084  14.983
33242W        W 5502  36.979   9.683   1.378
33243W        W 5503  34.066  21.676   3.736
33244W        W 5504  27.706   0.407  11.044
33245W        W 5505  42.380  29.916   2.389
33246W        W 5506  19.715   6.184  11.577
33247W        W 5507  15.875   7.289  14.969
33248W        W 5508  17.568  15.629   2.755
33249W        W 5509  35.800  37.332  13.879
33250W        W 5510  11.982   3.405  14.136
33251W        W 5511  28.959  18.156   0.517
33252W        W 5512  22.212  42.333   3.742
33253W        W 5513  40.144  40.095  11.605
33254W        W 5514  10.771  14.966   4.331
33255W        W 5515   5.461  38.284  12.663
33256W        W 5516  12.820  22.630  14.382
33257W        W 5517  44.713  12.268  10.698
33258W        W 5518  30.052  39.093   3.773
33259W        W 5519  42.877  33.740  13.447
33260W        W 5520  24.981  43.295   3.860
33261W        W 5521  27.919  30.947  11.138
33262W        W 5522  15.212  39.416  12.033
33263W        W 5523  14.520  32.870   4.600
33264W        W 5524   2.952  12.725  14.899
33265W        W 5525  15.121  18.479  11.576
33266W        W 5526  23.987  22.176   3.738
33267W        W 5527   9.236   5.781   1.840
33268W        W 5528   1.467  43.038   1.539
33269W        W 5529   1.511  15.588  11.951
33270W        W 5530  17.116   3.423  11.682
33271W        W 5531  25.004  16.461   0.344
33272W        W 5532  10.554  11.290  13.832
33273W        W 5533  32.262  32.880   4.281
33274W        W 5534  10.670   3.586  13.337
33275W        W 5535  39.374  34.221   5.058
33276W        W 5536   4.363  31.183  10.776
33277W        W 5537  15.229  38.650  10.177
33278W        W 5538  28.691   9.806  10.621
33279W        W 5539  33.435  35.860   2.765
33280W        W 5540  33.642   5.165  11.077
33281W        W 5541  13.799  39.370  11.696
33282W        W 5542  28.594  19.983   4.969
33283W        W 5543   6.111   9.280  13.045
33284W        W 5544  16.130  28.481  11.874
33285W        W 5545   3.240  33.435   1.757
33286W        W 5546  37.195  17.484  14.991
33287W        W 5547  14.653  26.549   3.884
33288W        W 5548  20.569  35.428  14.604
33289W        W 5549  40.806  21.142  13.126
33290W        W 5550  25.587   7.957  12.036
33291W        W 5551  42.300  21.617   0.006
33292W        W 5552  17.980   4.890  12.402
33293W        W 5553   7.243  18.632  10.801
33294W        W 5554  31.691  36.418  10.617
33295W        W 5555  16.116  16.233  11.367
33296W        W 5556  17.673  23.536  10.545
33297W        W 5557  12.224  11.660  14.239
33298W        W 5558  11.796  34.440  12.048
33299W        W 5559  25.598  14.639  12.369
33300W        W 5560  20.516  20.597   4.605
33301W        W 5561  35.150  10.853   4.470
33302W        W 5562  28.900   5.418   2.030
33303W        W 5563   5.673  16.558   1.163
33304W        W 5564  34.195   3.911  14.318
33305W        W 5565  36.435  30.449   2.809
33306W        W 5566  35.444  40.381  10.590
33307W        W 5567   3.505  29.400  11.916
33308W        W 5568   0.232  34.488   4.598
33309W        W 5569  25.338  41.817  11.175
33310W        W 5570  10.821  17.717   1.705
33311W        W 5571   3.876  13.374  12.334
33312W        W 5572  20.300  21.983   0.499
33313W        W 5573  14.710  17.801  14.548
33314W        W 5574  13.203  44.726  11.160
33315W        W 5575  24.693  30.231   1.442
33316W        W 5576  30.518  20.009  11.498
33317W        W 5577   6.166   9.775  14.321
33318W        W 5578  44.271  44.435  11.969
33319W        W 5579  32.159   0.133  12.005
33320W        W 5580  12.925  43.713   0.267
33321W        W 5581  35.571  39.313   4.246
33322W        W 5582  12.326  25.669   0.017
33323W        W 5583  36.908   6.505  10.968
33324W        W 5584  21.946  15.561   4.083
33325W        W 5585  21.525  25.506  14.839
33326W        W 5586   7.692   8.845  14.597
33327W        W 5587   7.201   3.950  11.131
33328W        W 5588   6.309  40.826  12.325
33329W        W 5589  39.077   6.330  11.883
33330W        W 5590  19.725  13.983   1.378
33331W        W 5591  14.717  12.116  10.894
33332W        W 5592  20.708  23.838  11.049
33333W        W 5593   8.563  34.600   0.522
33334W        W 5594  11.952  36.922  11.522
33335W        W 5595  17.863  32.611  11.079
33336W        W 5596  23.502  24.432  11.565
33337W        W 5597  28.325  33.692   4.808
33338W        W 5598  19.286   6.104  14.951
33339W        W 5599  25.233   9.848  13.811
33340W        W 5600   4.833  32.543  12.951
33341W        W 5601  15.743  27.885  11.513
33342W        W 5602  21.636  36.990   1.966
33343W        W 5603  12.589  13.381  11.641
33344W        W 5604  23.085  15.258  13.474
33345W        W 5605  42.766  40.446   1.907
33346W        W 5606  21.688  23.607   2.185
33347W        W 5607  41.273  16.563   0.523
33348W        W 5608  30.566  30.200   2.662
33349W        W 5609  26.638   0.972  14.281
33350W        W 5610  23.474  18.048   4.201
33351W        W 5611  14.163  16.889  13.633
33352W        W 5612  23.629  13.231   2.607
33353W        W 5613   2.475  28.551  13.763
33354W        W 5614  31.121  36.913   2.791
33355W        W 5615  27.944  19.757  14.879
33356W        W 5616  22.956  33.104  14.359
33357W        W 5617  19.507  30.077  11.709
33358W        W 5618  21.969  18.553  13.314
33359W        W 5619  18.272  23.245   2.626
33360W        W 5620   2.205  39.436  10.930
33361W        W 5621  40.473  42.864  10.729
33362W        W 5622  12.853  18.995   0.839
33363W        W 5623  36.125  35.557   1.397
33364W        W 5624  36.076  24.465  10.588
33365W        W 5625  37.347  23.163  14.611
33366W        W 5626  40.078  12.740   0.424
33367W        W 5627  17.236  33.060  12.151
33368W        W 5628  28.380  16.054   3.651
33369W        W 5629  41.445   5.664   3.143
33370W        W 5630  20.079  18.767  12.477
33371W        W 5631  24.206  41.685  13.333
33372W        W 5632  20.577  36.784  14.873
33373W        W 5633  27.970   6.923   3.738
33374W        W 5634  44.966  11.657   4.353
33375W        W 5635  10.245  40.853  13.457
33376W        W 5636  26.560   2.038   3.392
33377W        W 5637  36.878  33.704  12.588
33378W        W 5638  11.342   9.775  13.532
33379W        W 5639  34.716  32.115   3.666
33380W        W 5640  37.451  37.887   3.100
33381W        W 5641   6.725   2.884  14.538
33382W        W 5642   7.657  12.899  11.429
33383W        W 5643  30.255  11.913   2.782
33384W        W 5644   1.933  24.701  14.251
33385W        W 5645  41.399   8.786   0.190
33386W        W 5646  39.466  22.765  14.352
33387W        W 5647  29.337  24.344  13.999
33388W        W 5648  31.446  10.414  14.751
33389W        W 5649   5.654  16.682   0.170
33390W        W 5650  42.418  40.700   0.179
33391W        W 5651  13.114  37.706  12.926
33392W        W 5652   6.881  22.494   2.613
33393W        W 5653   5.853  40.315   4.582
33394W        W 5654  27.238  42.255  12.373
33395W        W 5655  14.078  28.361   3.655
33396W        W 5656  13.102   8.240  14.516
33397W        W 5657  44.269  13.255   2.714
33398W        W 5658  27.760  13.186   1.666
33399W        W 5659  26.566   4.426   3.208
33400W        W 5660  31.897   7.423   4.279
33401W        W 5661  23.801  14.150  12.973
33402W        W 5662  16.191  35.639   4.035
33403W        W 5663  32.046   1.720   0.988
33404W        W 5664  28.560   3.648   3.712
33405W        W 5665  29.475  31.014  11.685
33406W        W 5666  23.347  42.973  11.395
33407W        W 5667  30.453   9.900  13.683
33408W        W 5668  28.197   4.662   5.073
33409W        W 5669  33.507  12.350  12.513
33410W        W 5670  24.547  21.646  11.957
33411W        W 5671   4.024  38.436  13.414
33412W        W 5672  27.448  28.405   1.537
33413W        W 5673  13.374  19.309  14.367
33414W        W 5674   5.213  11.591   1.189
33415W        W 5675  25.538  10.725   3.420
33416W        W 5676  30.610  38.818   0.249
33417W        W 5677  18.280  17.235  12.898
33418W        W 5678  39.932   4.427  12.378
33419W        W 5679  22.478  20.710  14.937
33420W        W 5680  41.940  38.544   1.834
33421W        W 5681   3.029   3.282   2.161
33422W        W 5682  23.086  12.278   3.148
33423W        W 5683  39.300  26.261  12.136
33424W        W 5684  40.914  34.840  12.052
33425W        W 5685  11.388   2.148  13.138
33426W        W 5686  14.140  22.819   2.835
33427W        W 5687  16.227  25.509  10.759
33428W        W 5688  44.853  27.232  10.819
33429W        W 5689  38.019  13.812   3.880
33430W        W 5690  32.403  19.575   4.885
33431W        W 5691  10.157  32.949  14.321
33432W        W 5692  38.656  16.281   0.845
33433W        W 5693   9.601  23.564  14.978
33434W        W 5694  23.089   7.116   0.334
33435W        W 5695  42.952  33.370  13.079
33436W        W 5696  34.094  23.926  13.558
33437W        W 5697  18.502  17.749  13.094
33438W        W 5698  39.788  13.831  14.984
33439W        W 5699   7.166  18.607  12.137
33440W        W 5700  44.538  34.947   0.022
33441W        W 5701   2.343   6.677  11.025
33442W        W 5702   5.072  39.157  10.054
33443W        W 5703  38.077  44.352  13.601
33444W        W 5704  20.759  36.224   1.379
33445W        W 5705  40.899  33.955   4.461
33446W        W 5706   7.932  42.956  11.152
33447W        W 5707  15.137   6.744  13.915
33448W        W 5708   6.262  25.438   0.421
33449W        W 5709  28.553  23.025  13.422
33450W        W 5710  14.940  43.541   3.532
33451W        W 5711  25.953  28.366  13.512
33452W        W 5712  42.851   4.904  10.440
33453W        W 5713  41.404   2.982  11.579
33454W        W 5714  28.569  29.053  14.063
33455W        W 5715  36.354  29.941   3.195
33456W        W 5716  30.173   1.509   0.358
33457W        W 5717  13.385   4.005   3.083
33458W        W 5718  33.238  30.885   0.787
33459W        W 5719  18.142  16.204  11.489
33460W        W 5720  21.582   7.668  11.500
33461W        W 5721  25.804  34.948  13.918
33462W        W 5722  39.174  20.531   0.961
33463W        W 5723   6.297  12.678  11.557
33464W        W 5724   3.721  11.380  12.532
33465W        W 5725  29.169   0.719   0.446
33466W        W 5726   1.541  43.295   3.610
33467W        W 5727  35.504  26.974  14.980
33468W        W 5728  33.313   1.041  12.492
33469W        W 5729  24.159  27.623   3.756
33470W        W 5730  10.167  35.839   1.238
33471W        W 5731  41.513  34.280   3.702
33472W        W 5732  34.606   9.362  11.934
33473W        W 5733   7.663  14.468   1.749
33474W        W 5734   0.913  27.704  13.023
33475W        W 5735  20.742  36.662  11.134
33476W        W 5736  35.007   4.739  11.546
33477W        W 5737  24.159  24.950   3.291
33478W        W 5738  25.044   6.714   4.535
33479W        W 5739  14.593   8.371   2.631
33480W        W 5740   9.370  32.582  12.444
33481W        W 5741  37.974  28.131  13.967
33482W        W 5742  40.402  42.475   4.529
33483W        W 5743  36.119  17.322  12.932
33484W        W 5744  41.995  14.502   1.225
33485W        W 5745  32.060  23.667   0.048
33486W        W 5746  24.942  32.344  12.083
33487W        W 5747  25.085  19.748   4.700
33488W        W 5748  36.107  38.399  10.655
33489W        W 5749   4.051   8.926   2.847
33490W        W 5750   6.402  24.984   1.644
33491W        W 5751  11.437  41.405   0.812
33492W        W 5752  11.023  12.783   4.478
33493W        W 5753  24.219  42.597   2.318
33494W        W 5754  39.898  18.353  12.821
33495W        W 5755  34.180  16.319  14.033
33496W        W 5756  23.170  37.997   0.480
33497W        W 5757   0.818   6.444   0.684
33498W        W 5758  23.758  18.357  11.880
33499W        W 5759  31.943  42.753  11.949
33500W        W 5760  22.664  12.135   1.499
33501W        W 5761  40.456  41.536  12.083
33502W        W 5762  25.189  30.649  13.085
33503W        W 5763  17.352   7.776   0.313
33504W        W 5764   0.744  24.887  10.612
33505W        W 5765  11.829   6.707   4.597
33506W        W 5766  31.775  19.046  12.511
33507W        W 5767   8.877  30.395   3.843
33508W        W 5768   6.634  26.168  13.387
33509W        W 5769  11.281  43.809  11.361
33510W        W 5770   9.210  10.020   3.741
33511W        W 5771  44.289  29.454  13.998
33512W        W 5772   8.995   0.648   2.124
33513W        W 5773  28.424   6.462  11.109
33514W        W 5774  43.374   2.320   1.352
33515W        W 5775  23.739  19.610  12.466
33516W        W 5776  38.553  44.291   2.325
33517W        W 5777  39.827  18.253  14.428
33518W        W 5778  32.053  28.630   2.892
33519W        W 5779  16.107  36.461   1.450
33520W        W 5780   2.894  38.494   1.351
33521W        W 5781  42.219  15.549   1.433
33522W        W 5782  19.607  20.297  14.164
33523W        W 5783  15.830  37.047  14.759
33524W        W 5784  19.800   1.757  12.758
33525W        W 5785   4.040  23.058   4.122
33526W        W 5786  24.844  33.215  10.697
33527W        W 5787  22.784  16.240   2.094
33528W        W 5788   4.305  40.587  11.606
33529W        W 5789   9.356  38.569   3.867
33530W        W 5790  11.691  35.015   3.517
33531W        W 5791   6.911  18.184  12.930
33532W        W 5792  42.502  22.877   0.061
33533W        W 5793   3.636  23.643   5.162
33534W        W 5794  22.641  42.682   1.333
33535W        W 5795  14.757  11.181   4.117
33536W        W 5796  40.307   1.962   0.355
33537W        W 5797  35.635  36.290  13.043
33538W        W 5798  14.240  11.396   0.486
33539W        W 5799  24.981  32.013   1.769
33540W        W 5800  39.154  36.678   4.153
33541W        W 5801  18.811  27.454  14.826
33542W        W 5802  30.529   3.244   2.718
33543W        W 5803   5.829  32.643   2.442
33544W        W 5804  37.717  27.996   5.171
33545W        W 5805   7.207   1.410   3.852
33546W        W 5806  38.538  30.326   4.535
33547W        W 5807  30.462  33.290   0.917
33548W        W 5808   4.701  19.186  13.823
33549W        W 5809  19.610  33.450   0.962
33550W        W 5810  39.807  34.512   3.145
33551W        W 5811   1.754  17.080  12.407
33552W        W 5812  36.462  24.917   2.330
33553W        W 5813   1.832  13.771  14.826
33554W        W 5814  34.483  21.088   2.894
33555W        W 5815  42.714  19.923  10.062
33556W        W 5816  26.601  42.939  12.379
33557W        W 5817   6.204  27.181  14.921
33558W        W 5818  11.083  33.570  10.860
33559W        W 5819  27.088   3.331  10.891
33560W        W 5820   7.269  21.660  10.721
33561W        W 5821  36.300   8.871  12.214
33562W        W 5822  10.675  22.342  11.532
33563W        W 5823  34.844  35.994  13.768
33564W        W 5824  35.158   3.003  11.547
33565W        W 5825  24.677   0.332  12.943
33566W        W 5826   8.347  41.957   3.263
33567W        W 5827  42.769  14.819   0.636
33568W        W 5828   4.728   8.355  11.570
33569W        W 5829   9.906   2.123   0.115
33570W        W 5830  37.098   5.241   4.758
33571W        W 5831   3.479  39.435   0.302
33572W        W 5832   3.759  38.982   0.408
33573W        W 5833  12.218   4.259   0.529
33574W        W 5834  42.309   7.009  12.189
33575W        W 5835  24.112   4.664  12.874
33576W        W 5836  27.697  40.346  14.235
33577W        W 5837  15.452  26.380   1.742
33578W        W 5838  21.391  29.922  14.102
33579W        W 5839   4.349   8.589   1.232
33580W        W 5840  35.679  23.211  12.912
33581W        W 5841  39.353  10.363  13.025
33582W        W 5842  15.751  12.414  13.469
33583W        W 5843  33.378   6.346  12.035
33584W        W 5844   0.143  37.582   4.142
33585W        W 5845  29.209  33.937  13.854
33586W        W 5846  16.781  41.983   4.770
33587W        W 5847  34.386   1.908  10.610
33588W        W 5848  39.437  35.499   1.850
33589W        W 5849   6.316  20.234  11.118
33590W        W 5850  12.817  21.694  13.055
33591W        W 5851  34.997  33.562   1.189
33592W        W 5852  13.138   3.094  12.242
33593W        W 5853   9.315   9.631   4.129
33594W        W 5854   5.903  11.678  14.276
33595W        W 5855   1.742  22.089  14.449
33596W        W 5856   2.738  23.249   2.692
33597W        W 5857   3.495  41.478   3.375
33598W        W 5858  12.810  15.261   2.206
33599W        W 5859  37.415   4.929   3.140
33600W        W 5860  33.168   6.314  11.591
33601W        W 5861  29.293   6.815   0.421
33602W        W 5862  40.447  36.118   0.248
33603W        W 5863  31.957  27.776   3.346
33604W        W 5864  24.705  27.450   0.357
33605W        W 5865   2.934   7.837   0.436
33606W        W 5866  22.104   3.652  13.036
33607W        W 5867  16.837  28.596   0.836
33608W        W 5868  39.494  38.052   2.870
33609W        W 5869   3.920  14.327   4.690
33610W        W 5870  24.682  44.885   0.673
33611W        W 5871  14.856  38.552   1.319
33612W        W 5872  39.272  40.211  12.241
33613W        W 5873  15.291   0.884  11.625
33614W        W 5874  42.022  32.905  11.056
33615W        W 5875  28.418  17.295   4.113
33616W        W 5876  42.343  19.650  14.077
33617W        W 5877   7.397  35.993  14.220
33618W        W 5878  20.603  18.104   0.068
33619W        W 5879   9.633  24.640   0.374
33620W        W 5880  34.696  37.498   4.896
33621W        W 5881  32.629  19.462   2.741
33622W        W 5882  13.634  29.607  10.518
33623W        W 5883  31.868   5.112  12.293
33624W        W 5884  33.941  41.903   3.229
33625W        W 5885  42.261  44.329  12.389
33626W        W 5886  41.173  25.717   3.109
33627W        W 5887   8.709  31.590  12.968
33628W        W 5888   2.945  37.134   1.752
33629W        W 5889   8.370   2.806  13.761
33630W        W 5890   6.157  31.940  13.093
33631W        W 5891  38.367  27.681   2.425
33632W        W 5892  38.549  10.095   5.426
33633W        W 5893  14.246  11.654  11.587
33634W        W 5894  20.742   1.951   2.380
33635W        W 5895   0.348  15.017   4.762
33636W        W 5896   2.439  30.434  12.026
33637W        W 5897   8.936   1.230   1.385
33638W        W 5898  39.875   7.584  11.375
33639W        W 5899   4.278   1.113   4.606
33640W        W 5900   7.904  38.985   4.264
33641W        W 5901  28.021   8.763   2.312
33642W        W 5902   4.007   5.864   0.778
33643W        W 5903  28.204  43.807  10.100
33644W        W 5904  26.572  17.176   1.995
33645W        W 5905  12.203  33.306  14.475
33646W        W 5906  43.895  34.998  11.883
33647W        W 5907  24.787  35.640  12.913
33648W        W 5908  23.977  30.029   0.796
33649W        W 5909  17.063  33.948   1.673
33650W        W 5910  25.482  24.793  10.820
33651W        W 5911  17.131  29.747   1.971
33652W        W 5912  16.778  26.661  12.419
33653W        W 5913  33.581  31.072   2.657
33654W        W 5914  21.054  14.170  13.864
33655W        W 5915  22.839  30.329   2.401
33656W        W 5916  43.313  16.177  13.548
33657W        W 5917   5.488   2.442  11.189
33658W        W 5918  27.492  35.836  13.479
33659W        W 5919  36.217  40.860  10.628
33660W        W 5920  23.472  10.836  12.450
33661W        W 5921  29.908  23.703   3.362
33662W        W 5922  12.504  21.732  13.618
33663W        W 5923  32.404  44.698  13.355
33664W        W 5924  36.480  24.097   0.766
33665W        W 5925  25.527  27.150  13.123
33666W        W 5926   1.425   8.417  13.903
33667W        W 5927  14.492  27.686   0.659
33668W        W 5928  20.636   0.390   4.663
33669W        W 5929  15.219  40.224   1.207
33670W        W 5930  19.014   4.424   0.755
33671W        W 5931  33.454  17.050   1.706
33672W        W 5932  38.715   2.713  13.004
33673W        W 5933  20.264  43.031  12.949
33674W        W 5934  23.260  27.147  13.359
33675W        W 5935  23.119  40.051   0.855
33676W        W 5936  22.163  16.501  11.977
33677W        W 5937   1.905  29.408   1.040
33678W        W 5938   1.172  16.874   2.580
33679W        W 5939  43.304  43.877  10.723
33680W        W 5940  15.402  25.063  11.610
33681W        W 5941  41.323  13.699  13.596
33682W        W 5942  26.193  21.449  11.984
33683W        W 5943  14.750  28.060  14.329
33684W        W 5944   7.061  28.439   1.118
33685W        W 5945  37.832  39.789   2.211
33686W        W 5946  32.831  23.580  10.560
33687W        W 5947  16.825  10.727  11.238
33688W        W 5948  11.530  41.613  11.112
33689W        W 5949  27.459  36.475  14.008
33690W        W 5950  23.036  40.378  11.906
33691W        W 5951  23.454   0.237   2.183
33692W        W 5952  28.623   0.931  14.733
33693W        W 5953  25.490  26.122  10.907
33694W        W 5954  17.020  18.114  11.180
33695W        W 5955  21.369  22.663  14.716
33696W        W 5956  23.082  32.999  13.454
33697W        W 5957  36.520  40.092   2.387
33698W        W 5958   4.802  24.740   4.108
33699W        W 5959  41.698  31.957  13.900
33700W        W 5960  13.651  12.034  13.138
33701W        W 5961  22.986  33.368   0.358
33702W        W 5962  27.605  14.587  11.349
33703W        W 5963  34.764  33.015   4.612
33704W        W 5964  15.144  23.045  13.151
33705W        W 5965  36.818  36.377   2.946
33706W        W 5966   4.978   1.347   3.723
33707W        W 5967   0.916  10.149  14.854
33708W        W 5968   0.657  22.659   4.114
33709W        W 5969  12.154  10.085   3.331
33710W        W 5970  38.410  30.334  13.797
33711W        W 5971  27.703  18.927   3.917
33712W        W 5972  35.350  20.651   3.818
33713W        W 5973  41.389   2.107   2.683
33714W        W 5974  17.635  20.241  13.585
33715W        W 5975  38.790   4.300   0.531
33716W        W 5976  19.919  19.866  14.999
33717W        W 5977   0.549  19.447  13.931
33718W        W 5978  25.487  28.095   0.502
33719W        W 5979   0.256  25.191  14.025
33720W        W 5980   7.701  17.111  12.079
33721W        W 5981   1.917  29.676  12.854
33722W        W 5982  16.241  33.940  13.522
33723W        W 5983  15.651  19.992   0.591
33724W        W 5984  35.983   5.970   4.460
33725W        W 5985  18.173  35.319   1.885
33726W        W 5986   9.657  33.106  14.513
33727W        W 5987  36.438  39.864  14.482
33728W        W 5988  22.306  20.137  11.579
33729W        W 5989  38.514  43.914  11.547
33730W        W 5990  36.639  43.520  11.850
33731W        W 5991  31.706  36.103   2.881
33732W        W 5992  23.769  31.861   2.322
33733W        W 5993  17.205   3.864   1.356
33734W        W 5994   3.507  29.084  14.302
33735W        W 5995  17.540  19.643   2.090
33736W        W 5996  35.637   3.248   4.065
33737W        W 5997  20.150   0.974  11.124
33738W        W 5998  34.493  41.366  12.992
33739W        W 5999  26.961   6.919  11.037
33740W        W 6000  27.679   3.152  13.482
33741W        W 6001  35.539  16.021  12.660
33742W        W 6002  30.671  28.015   3.290
33743W        W 6003  22.775  27.968   3.287
33744W        W 6004  42.282  22.880  11.636
33745W        W 6005  25.768  12.333   2.410
33746W        W 6006   0.225  36.712  12.148
33747W        W 6007  12.826  22.516   2.822
33748W        W 6008  24.463  13.624   3.325
33749W        W 6009  33.534  21.060   2.698
33750W        W 6010  29.098  22.419   0.045
33751W        W 6011  34.391  13.667   2.591
33752W        W 6012   2.371  15.636   0.405
33753W        W 6013   5.517  12.048   4.798
33754W        W 6014  19.150  37.922  12.957
33755W        W 6015  29.429  42.929  14.623
33756W        W 6016  40.555   1.328   1.725
33757W        W 6017   8.668  35.493   3.262
33758W        W 6018   9.200  36.942  14.230
33759W        W 6019  14.349  12.806   2.142
33760W        W 6020  42.467  29.017  10.657
33761W        W 6021   7.376  43.329  14.023
33762W        W 6022  12.812  19.204  14.432
33763W        W 6023  10.312  35.494   1.918
33764W        W 6024   0.389   4.152   2.754
33765W        W 6025  31.390   9.419   0.036
33766W        W 6026  39.834   2.904   4.907
33767W        W 6027   6.230  19.603  14.529
33768W        W 6028  28.361   4.214  14.537
33769W        W 6029  37.676  31.062   4.993
33770W        W 6030  25.845  39.100   4.645
33771W        W 6031  44.243  18.264  14.402
33772W        W 6032   4.771  30.015   0.774
33773W        W 6033  22.555   3.482   4.593
33774W        W 6034  11.195  29.898  14.952
33775W        W 6035  35.486  43.734  10.463
33776W        W 6036   3.699  32.996   3.707
33777W        W 6037  15.511  35.367  10.543
33778W        W 6038  24.636  25.259  10.766
33779W        W 6039  23.138   6.851   2.610
33780W        W 6040  28.470  43.517  14.954
33781W        W 6041  21.782  31.887   1.413
33782W        W 6042   2.719  12.786   3.150
33783W        W 6043  18.151  44.074   0.561
33784W        W 6044  32.616  20.938   4.721
33785W        W 6045   6.273   7.716  10.644
33786W        W 6046  15.615   0.016  10.728
33787W        W 6047  12.280  38.790   2.780
33788W        W 6048   1.267  24.063  11.156
33789W        W 6049   4.894  24.195  11.184
33790W        W 6050  19.974  21.134   4.098
33791W        W 6051  23.749  10.434   4.178
33792W        W 6052   1.601  12.660  10.871
33793W        W 6053   5.934  39.939   1.015
33794W        W 6054  42.068  43.783   3.681
33795W        W 6055  10.593  30.687  14.549
33796W        W 6056   3.232  43.014   0.627
33797W        W 6057  36.042   1.376  10.739
33798W        W 6058  40.389  32.495  12.807
33799W        W 6059  14.810  26.428   0.330
33800W        W 6060  26.159  30.890  14.055
33801W        W 6061  39.807  19.671  13.997
33802W        W 6062  25.228  38.796  12.487
33803W        W 6063  27.915  13.591   2.384
33804W        W 6064  41.442   3.889   1.034
33805W        W 6065  35.591  32.113  11.708
33806W        W 6066  32.150   8.751  12.907
33807W        W 6067  10.855  34.118  14.436
33808W        W 6068  34.646  20.501  11.092
33809W        W 6069  43.809  37.216  10.889
33810W        W 6070  14.872  25.499   4.248
33811W        W 6071  39.804   5.099   4.175
33812W        W 6072  41.468   8.629  11.561
33813W        W 6073  27.779  21.251  14.915
33814W        W 6074  11.598  43.114  13.350
33815W        W 6075  25.520  16.294   0.941
33816W        W 6076   1.823  39.672  12.888
33817W        W 6077  25.523  27.726  11.713
33818W        W 6078  41.820  14.222  12.087
33819W        W 6079  30.621  40.307  11.084
33820W        W 6080  25.038  38.162   4.511
33821W        W 6081   8.118  42.486  13.394
33822W        W 6082  40.789  32.529  13.135
33823W        W 6083  15.555  20.554   4.156
33824W        W 6084  44.518  25.032   4.540
33825W        W 6085  32.405  17.669  13.926
33826W        W 6086  21.520  36.855   0.995
33827W        W 6087  15.889   7.629  11.091
33828W        W 6088  25.473  42.184  13.824
33829W        W 6089  39.693  14.672  11.851
33830W        W 6090   4.276   1.293  13.517
33831W        W 6091  38.945  20.847  11.165
33832W        W 6092   5.152  17.399  10.136
33833W        W 6093  12.270   0.857  11.881
33834W        W 6094  25.654  25.655  13.991
33835W        W 6095  20.205   3.508   5.073
33836W        W 6096   4.393  14.370  13.053
33837W        W 6097  15.877  23.328   0.421
33838W        W 6098   8.446  38.261   2.846
33839W        W 6099  29.663   0.832  10.233
33840W        W 6100  28.540   3.380  13.483
33841W        W 6101   9.692   5.777   2.365
33842W        W 6102   6.419  28.087   1.098
33843W        W 6103  30.556  17.148   2.647
33844W        W 6104   6.700  25.603   3.726
33845W        W 6105  44.333  11.632  11.957
33846W        W 6106  38.557   6.875   4.709
33847W        W 6107  15.778  15.887   0.116
33848W        W 6108   7.390  39.295  14.799
33849W        W 6109  18.690  20.490   0.769
33850W        W 6110  37.215  43.486   0.536
33851W        W 6111  41.231  33.395   4.627
33852W        W 6112  22.185  34.922   3.684
33853W        W 6113  16.982  28.149   3.534
33854W        W 6114  28.388  19.668   0.420
33855W        W 6115   1.186  18.158  14.869
33856W        W 6116   9.923   5.203  11.120
33857W        W 6117  37.000  36.580  11.396
33858W        W 6118  29.635  26.801  11.622
33859W        W 6119  27.937  13.817  14.807
33860W        W 6120  22.811  17.640  11.456
33861W        W 6121  43.458   9.639   1.760
33862W        W 6122  22.410  10.604  12.790
33863W        W 6123  19.319  37.536  11.688
33864W        W 6124  28.758  32.115   3.735
33865W        W 6125  27.890  33.468   5.200
33866W        W 6126  18.288  20.782  12.546
33867W        W 6127   8.312  17.259   0.087
33868W        W 6128  36.331  13.379   2.807
33869W        W 6129   7.842  37.576   0.535
33870W        W 6130  23.270   9.333   3.608
33871W        W 6131   3.475  14.559   4.629
33872W        W 6132  39.208  19.785   2.708
33873W        W 6133  44.098   4.744   4.598
33874W        W 6134   7.245  38.831  12.910
33875W        W 6135  18.996  14.688  13.456
33876W        W 6136  28.744  26.180  14.312
33877W        W 6137  25.520  34.871  10.642
33878W        W 6138  33.853  15.541   0.776
33879W        W 6139  37.975  21.930  13.913
33880W        W 6140  35.048  20.786   4.215
33881W        W 6141  37.968  21.928  11.944
33882W        W 6142  31.448  27.706   1.306
33883W        W 6143   0.317  17.706  10.537
33884W        W 6144  36.878  25.650   0.793
33885W        W 6145  37.723   9.717  14.266
33886W        W 6146  18.221  36.581   2.800
33887W        W 6147  33.903  23.236   2.327
33888W        W 6148   1.754   1.636  14.861
33889W        W 6149  40.614   3.458  11.641
33890W        W 6150  15.511  36.462  14.318
33891W        W 6151  35.242  27.712   2.443
33892W        W 6152  23.452  12.811  13.583
33893W        W 6153  39.980  24.869   2.913
33894W        W 6154  31.698   1.447   1.315
33895W        W 6155   9.931  22.548  14.791
33896W        W 6156   5.266  33.842   0.596
33897W        W 6157  26.533  24.963  12.057
33898W        W 6158  42.917  35.840   3.771
33899W        W 6159   3.215  36.134   2.884
33900W        W 6160  42.432  30.380  10.456
33901W        W 6161  10.484   5.001   0.324
33902W        W 6162   2.730   6.592   3.086
33903W        W 6163  10.580  42.727   1.501
33904W        W 6164  41.926  43.952   2.388
33905W        W 6165  12.070  29.927  11.454
33906W        W 6166   7.449   8.874  12.828
33907W        W 6167  41.898  18.658  14.003
33908W        W 6168   4.301  27.579   1.278
33909W        W 6169  29.641  12.002  11.456
33910W        W 6170  12.622  17.063   0.896
33911W        W 6171   8.020  21.081  11.435
33912W        W 6172  39.810  40.380  13.828
33913W        W 6173  43.203  29.290   1.572
33914W        W 6174  14.920   1.392   1.485
33915W        W 6175  20.773   3.377   2.723
33916W        W 6176  39.791  33.893  13.802
33917W        W 6177  11.592   3.124   1.220
33918W        W 6178  37.365   4.354   2.587
33919W        W 6179  27.603   7.034  12.477
33920W        W 6180   9.651  12.718   4.478
33921W        W 6181  37.622  37.918   2.612
33922W        W 6182  19.060  29.841  12.467
33923W        W 6183  29.255  28.964   1.341
33924W        W 6184  24.347  42.217   4.151
33925W        W 6185  19.561  19.583   3.503
33926W        W 6186  10.580  43.734   2.105
33927W        W 6187  21.816  43.879   0.515
33928W        W 6188  35.961  38.898  11.591
33929W        W 6189  33.349   8.857  14.162
33930W        W 6190   7.597  14.989   1.916
33931W        W 6191  10.358  29.658   4.551
33932W        W 6192  33.393  40.427  13.793
33933W        W 6193  37.815   4.887   0.017
33934W        W 6194  10.332  26.567   1.216
33935W        W 6195  40.638  32.786  13.569
33936W        W 6196   3.259   2.013   0.880
33937W        W 6197  17.035  18.204   3.241
33938W        W 6198  30.654  14.588  11.558
33939W        W 6199  40.455   9.657  13.766
33940W        W 6200  16.267  26.667  12.189
33941W        W 6201  16.381   4.523   4.104
33942W        W 6202  23.276  11.793   3.090
33943W        W 6203  20.135  23.206  11.461
33944W        W 6204  24.468  26.498  12.381
33945W        W 6205  27.796  18.816  12.539
33946W        W 6206  18.294  37.574  14.808
33947W        W 6207  41.747  14.652   2.372
33948W        W 6208   7.127  14.847  11.541
33949W        W 6209  28.128  35.782   2.365
33950W        W 6210  12.100  28.379   2.744
33951W        W 6211   3.413  22.606  14.034
33952W        W 6212  38.823  22.745   4.533
33953W        W 6213  17.812   4.590   0.382
33954W        W 6214   5.426  35.077   1.927
33955W        W 6215  37.474  17.374  12.957
33956W        W 6216  22.098  40.951   4.181
33957W        W 6217   4.957  29.219  14.569
33958W        W 6218  33.134  33.020   4.538
33959W        W 6219  16.054  18.472  10.683
33960W        W 6220  15.771  28.265  12.884
33961W        W 6221   8.774  39.021   4.416
33962W        W 6222  36.054  22.104  13.759
33963W        W 6223   8.331  35.625  13.551
33964W        W 6224  37.189  36.177  10.219
33965W        W 6225  44.476  26.320  14.064
33966W        W 6226   4.897   4.632   4.247
33967W        W 6227  42.925  44.731   4.195
33968W        W 6228  18.717  44.615  13.422
33969W        W 6229   7.442  12.869  14.898
33970W        W 6230  11.260   6.471   2.143
33971W        W 6231  35.466  19.991  13.922
33972W        W 6232  35.523  26.108   4.302
33973W        W 6233  23.572  30.585   0.653
33974W        W 6234  28.169   6.808  10.203
33975W        W 6235  24.110  20.571  12.548
33976W        W 6236  32.595   3.417   1.249
33977W        W 6237  42.460  15.998   0.525
33978W        W 6238  25.116  10.619   0.933
33979W        W 6239  34.689  26.435  11.365
33980W        W 6240  13.617   4.972   2.257
33981W        W 6241  29.584  12.335  14.130
33982W        W 6242  20.087  41.360  11.253
33983W        W 6243  21.252  37.142   3.655
33984W        W 6244  26.486   6.340  13.759
33985W        W 6245  30.611  12.136   1.830
33986W        W 6246  32.839  39.055  11.962
33987W        W 6247  38.053  42.488  13.719
33988W        W 6248  23.074  35.605   0.256
33989W        W 6249  44.062   8.797  11.043
33990W        W 6250  32.713  10.348   5.072
33991W        W 6251  26.610  26.065   1.264
33992W        W 6252  38.435  23.448  10.658
33993W        W 6253   9.762   1.722   4.249
33994W        W 6254  40.557  11.393  12.544
33995W        W 6255  40.357  37.046   1.032
33996W        W 6256  40.307  11.178  10.578
33997W        W 6257  41.007  15.319   1.178
33998W        W 6258   1.972  41.612  11.871
33999W        W 6259  35.375  38.861   3.621
34000W        W 6260  13.088  20.090   0.915
34001W        W 6261  19.072  39.386  11.942
34002W        W 6262   8.603  31.130  12.450
34003W        W 6263  39.965   4.361   2.912
34004W        W 6264   1.186  30.539   3.342
34005W        W 6265  17.195  30.258   0.016
34006W        W 6266  19.153  30.937  13.313
34007W        W 6267  15.791  44.486  13.125
34008W        W 6268   8.726  37.215  13.085
34009W        W 6269  23.538   4.988   1.053
34010W        W 6270   7.172   6.090   0.491
34011W        W 6271  21.942   6.068   1.915
34012W        W 6272  26.716  27.718  12.495
34013W        W 6273  26.256  26.637  13.172
34014W        W 6274  15.887  43.530  11.277
34015W        W 6275  21.377   2.926   4.639
34016W        W 6276   7.467  42.008   5.047
34017W        W 6277   2.479  37.143   4.468
34018W        W 6278  33.101  36.699   2.715
34019W        W 6279  22.975  18.259   4.915
34020W        W 6280  16.750   5.784   2.700
34021W        W 6281  13.743  35.481  11.516
34022W        W 6282  10.769  10.587  11.975
34023W        W 6283  21.030  30.070   3.147
34024W        W 6284  36.272  18.058   4.438
34025W        W 6285  35.537  11.573   3.654
34026W        W 6286   8.391  21.329   5.101
34027W        W 6287  21.559  19.236   2.147
34028W        W 6288  24.048   4.370  12.438
34029W        W 6289   8.772  34.329  13.556
34030W        W 6290  29.290   8.343   1.502
34031W        W 6291   9.714   4.648   3.287
34032W        W 6292   0.646  40.924  10.968
34033W        W 6293   2.714  18.141  13.318
34034W        W 6294  32.500  34.649  10.662
34035W        W 6295  31.022  19.200   3.087
34036W        W 6296  14.582  13.221   0.732
34037W        W 6297  15.405   5.302  13.012
34038W        W 6298   8.882  40.999  12.603
34039W        W 6299   9.614  31.028  14.349
34040W        W 6300  27.135   6.273   3.585
34041W        W 6301   6.960  16.839  12.625
34042W        W 6302  30.924  11.447  10.913
34043W        W 6303  18.801  37.470  10.394
34044W        W 6304  35.306  42.901   2.359
34045W        W 6305  16.498   5.862   1.795
34046W        W 6306  12.920  14.721   3.642
34047W        W 6307  21.142  36.448   2.851
34048W        W 6308  19.510  30.544   1.840
34049W        W 6309   7.430  22.574  13.859
34050W        W 6310  39.114  38.970  11.380
34051W        W 6311  39.922   4.374  11.397
34052W        W 6312   9.742  37.771   0.796
34053W        W 6313   7.029  36.904   2.971
34054W        W 6314   5.755  43.558  11.447
34055W        W 6315  40.551   3.434   2.344
34056W        W 6316  32.018  13.580  12.007
34057W        W 6317  39.313  32.660   1.252
34058W        W 6318  35.985  14.276   0.064
34059W        W 6319  20.692  10.924  14.547
34060W        W 6320  17.538  11.123  11.554
34061W        W 6321  24.813  33.124  12.506
34062W        W 6322  14.644   8.567  12.882
34063W        W 6323  38.864  10.417  13.856
34064W        W 6324   9.380  11.697   0.967
34065W        W 6325  11.576  25.705   0.410
34066W        W 6326  28.499   1.973  14.731
34067W        W 6327  28.123  14.178   2.981
34068W        W 6328   2.224  40.114   0.445
34069W        W 6329  12.934  42.897   5.357
34070W        W 6330  33.136  26.694  11.484
34071W        W 6331   4.508  37.369  13.979
34072W        W 6332  22.252  35.210   3.227
34073W        W 6333  29.363  44.364  11.014
34074W        W 6334   4.332  41.711   5.059
34075W        W 6335  21.746  33.761   3.468
34076W        W 6336  40.484  21.101   2.305
34077W        W 6337  32.119  31.516  10.929
34078W        W 6338  24.574  22.403  11.137
34079W        W 6339  35.627  33.931   0.345
34080W        W 6340   3.245  44.895  11.362
34081W        W 6341   7.682  36.114  10.700
34082W        W 6342   7.956  10.263  14.238
34083W        W 6343  40.094   2.749  13.386
34084W        W 6344  14.612  31.427  14.407
34085W        W 6345  20.495  44.696  14.755
34086W        W 6346  40.815  25.252   2.253
34087W        W 6347  44.796   8.248   4.630
34088W        W 6348  14.700   2.555   2.801
34089W        W 6349  22.787   9.690   3.095
34090W        W 6350   5.981  38.355   3.733
34091W        W 6351  18.810  22.989   0.677
34092W        W 6352  13.139  36.608   1.016
34093W        W 6353  41.375  18.533   4.849
34094W        W 6354  22.731   5.610   0.716
34095W        W 6355  30.902   2.683   3.722
34096W        W 6356   6.262   1.918   3.723
34097W        W 6357   7.662  24.071  12.460
34098W        W 6358  22.929  28.389   0.391
34099W        W 6359   9.581  11.257   9.907
34100W        W 6360  10.142  42.414   0.686
34101W        W 6361  13.195  24.077   3.104
34102W        W 6362  14.414  27.993   4.518
34103W        W 6363  42.007  44.917   3.717
34104W        W 6364   1.772  14.781   3.296
34105W        W 6365  11.868  21.357  13.330
34106W        W 6366  32.741  35.709   0.900
34107W        W 6367  32.766  18.041   2.846
34108W        W 6368   2.393  32.061   0.416
34109W        W 6369   2.822  31.418   0.410
34110W        W 6370  11.993  12.650   1.717
34111W        W 6371  39.591   2.763  12.099
34112W        W 6372  11.845  28.599  13.701
34113W        W 6373   6.636  41.224  12.300
34114W        W 6374  27.888   5.489   3.759
34115W        W 6375   3.023  12.046   2.898
34116W        W 6376  17.743  27.702   2.224
34117W        W 6377  16.533  20.221   4.865
34118W        W 6378  24.442  19.221  14.922
34119W        W 6379  34.997   0.169  14.951
34120W        W 6380  40.562   9.717  10.920
34121W        W 6381  26.594   8.092  10.889
34122W        W 6382  16.232  37.240   4.331
34123W        W 6383  17.834   2.205  13.802
34124W        W 6384  11.496  37.529   3.589
34125W        W 6385   9.411  13.456  14.237
34126W        W 6386  21.436  25.808  10.579
34127W        W 6387   6.721  31.499   0.239
34128W        W 6388  15.375  43.797   3.593
34129W        W 6389   4.044  15.857   3.728
34130W        W 6390  13.106  44.069  12.139
34131W        W 6391  37.687  39.426   1.692
34132W        W 6392  36.804  19.555  10.688
34133W        W 6393  15.836  36.437  12.147
34134W        W 6394  29.868  13.873   0.338
34135W        W 6395  11.614   4.818  10.722
34136W        W 6396  35.067  10.712   1.797
34137W        W 6397   3.212  43.783   4.071
34138W        W 6398  40.976  42.776   0.471
34139W        W 6399   9.214   9.126  11.539
34140W        W 6400  29.718  30.198   1.458
34141W        W 6401  25.439  16.549   2.244
34142W        W 6402  17.089  14.631   1.064
34143W        W 6403  14.237   9.856  11.467
34144W        W 6404  10.876  30.923  14.891
34145W        W 6405  19.752   1.861  11.550
34146W        W 6406  28.452  43.008   0.765
34147W        W 6407  40.029   4.798  11.057
34148W        W 6408  17.378  16.294   2.227
34149W        W 6409   8.855   0.759   0.339
34150W        W 6410  39.996  36.100  14.542
34151W        W 6411  26.576   8.933  12.016
34152W        W 6412  34.364  11.334  12.493
34153W        W 6413  18.992  23.676   1.990
34154W        W 6414  24.474   5.676  13.847
34155W        W 6415  43.991  41.394  14.403
34156W        W 6416  12.772  38.429  12.507
34157W        W 6417  40.410   5.748  14.643
34158W        W 6418  21.657  44.491   2.748
34159W        W 6419  16.194  11.762   0.200
34160W        W 6420   2.254   9.141  12.482
34161W        W 6421  33.635  17.526  11.606
34162W        W 6422  36.932   2.873   0.751
34163W        W 6423  37.026  37.554   0.914
34164W        W 6424   1.605  16.114  12.870
34165W        W 6425  14.198  15.596  11.450
34166W        W 6426  44.453  37.151   5.195
34167W        W 6427  23.650  41.288  14.937
34168W        W 6428   4.208  34.792   1.252
34169W        W 6429  19.810  16.371  11.930
34170W        W 6430  14.034  11.166  13.513
34171W        W 6431  18.380  32.497   2.677
34172W        W 6432   7.948  41.209  14.912
34173W        W 6433   1.213  23.508   4.752
34174W        W 6434  22.049  24.306  13.691
34175W        W 6435  23.626  43.536  14.402
34176W        W 6436  39.089   3.043  14.507
34177W        W 6437  40.347  15.739   4.495
34178W        W 6438  30.537  17.993  10.810
34179W        W 6439   1.878  30.842  12.054
34180W        W 6440  14.780  25.526   2.884
34181W        W 6441  24.844  27.831  13.076
34182W        W 6442  13.312  12.844   3.670
34183W        W 6443  28.841  42.340  12.742
34184W        W 6444  23.564   7.034   4.433
34185W        W 6445  21.057  11.540   0.974
34186W        W 6446  32.548  33.380  12.849
34187W        W 6447  39.271   6.732  11.107
34188W        W 6448  36.951  36.304  10.971
34189W        W 6449   7.734  42.962   3.167
34190W        W 6450   6.791   7.284  14.488
34191W        W 6451  28.633  18.618   0.372
34192W        W 6452  43.009  21.114   0.092
34193W        W 6453  11.638  26.625  11.129
34194W        W 6454  21.211  16.724  12.004
34195W        W 6455  33.733   9.551   1.150
34196W        W 6456  12.796  12.029  12.969
34197W        W 6457  18.171   2.954   3.577
34198W        W 6458  20.824  13.192   1.867
34199W        W 6459  36.413  14.782   1.767
34200W        W 6460  34.378  40.503  14.824
34201W        W 6461   1.000  15.434   5.003
34202W        W 6462  12.140   1.965  12.205
34203W        W 6463  28.921  43.277   4.339
34204W        W 6464  15.018   5.898  11.927
34205W        W 6465   0.372   0.335   0.759
34206W        W 6466  25.123  43.732  13.535
34207W        W 6467   9.187  34.628  13.552
34208W        W 6468  34.206  10.239   3.533
34209W        W 6469  27.397  39.062   0.760
34210W        W 6470  11.818   1.411  12.516
34211W        W 6471   2.449  14.546   2.270
34212W        W 6472  30.442  18.691  13.362
34213W        W 6473  11.498  13.682   4.761
34214W        W 6474  35.813  22.843  12.010
34215W        W 6475  28.122  10.821   4.159
34216W        W 6476  22.782  19.777   3.676
34217W        W 6477  36.622   0.361   2.849
34218W        W 6478  19.757  36.022   4.795
34219W        W 6479   3.650  37.051  14.558
34220W        W 6480  44.033  30.459  14.822
34221W        W 6481   2.342  21.651   1.491
34222W        W 6482   6.255  20.829   1.804
34223W        W 6483  41.988  39.140  13.441
34224W        W 6484   6.363   1.029  13.055
34225W        W 6485  20.627  32.600  10.481
34226W        W 6486   4.692  25.135  12.500
34227W        W 6487  14.766  31.614  11.176
34228W        W 6488  29.519  24.077  13.582
34229W        W 6489   5.302  43.172  14.439
34230W        W 6490   6.645   5.162   2.657
34231W        W 6491  24.798  19.920   2.305
34232W        W 6492  35.501  41.101   0.395
34233W        W 6493  19.359  23.517   0.785
34234W        W 6494  40.438  18.010   3.620
34235W        W 6495  42.265   6.759  14.466
34236W        W 6496  25.697  18.761   3.502
34237W        W 6497  18.025  10.371  14.015
34238W        W 6498  24.514  23.950  14.315
34239W        W 6499   4.433   9.277   4.440
34240W        W 6500  32.946  23.397   3.374
34241W        W 6501  43.542  37.152   3.102
34242W        W 6502  44.865  44.255   1.780
34243W        W 6503  41.234  23.493  10.427
34244W        W 6504  27.221  35.351   1.906
34245W        W 6505  25.095  39.878   3.186
34246W        W 6506   2.876  43.822  13.515
34247W        W 6507   8.797  34.617   2.800
34248W        W 6508  28.502  17.033   2.891
34249W        W 6509  20.014  33.922   3.182
34250W        W 6510  37.984  35.302  14.529
34251W        W 6511   8.722  25.659  13.918
34252W        W 6512   8.395  40.434   2.808
34253W        W 6513  38.730  23.700   4.560
34254W        W 6514  18.193  17.052  13.400
34255W        W 6515  40.542   9.890  11.854
34256W        W 6516   1.454  17.528  11.872
34257W        W 6517  24.823  13.348  14.848
34258W        W 6518  21.041   2.383   0.966
34259W        W 6519  41.982   9.285  13.117
34260W        W 6520  27.497  17.523  13.353
34261W        W 6521  44.915   5.770  12.237
34262W        W 6522  19.673  40.393   2.022
34263W        W 6523  13.443   0.501   2.220
34264W        W 6524   9.118  15.100  10.747
34265W        W 6525  18.763  11.340  12.027
34266W        W 6526   2.003   8.616  12.605
34267W        W 6527  34.909  32.482  14.813
34268W        W 6528  30.279  37.437   3.174
34269W        W 6529   3.790   6.645  14.616
34270W        W 6530  23.255  23.125  13.479
34271W        W 6531  42.287  31.746   1.678
34272W        W 6532  34.467  30.320   4.058
34273W        W 6533   2.865  14.185  12.368
34274W        W 6534   9.258  20.068  13.005
34275W        W 6535  23.765   2.782   1.179
34276W        W 6536  37.883   2.946   3.236
34277W        W 6537   1.849  30.748  12.681
34278W        W 6538   7.819   0.032  12.484
34279W        W 6539   8.932   9.279  14.879
34280W        W 6540   7.212  41.875   0.996
34281W        W 6541   8.724  14.261  12.529
34282W        W 6542  27.075  37.771  12.858
34283W        W 6543  36.440   7.654   1.856
34284W        W 6544   7.220  41.009  11.147
34285W        W 6545   6.152  36.963  11.531
34286W        W 6546  24.292  28.092  10.911
34287W        W 6547  32.238  16.756   4.211
34288W        W 6548   2.056  17.009  11.485
34289W        W 6549   0.864  35.128   2.603
34290W        W 6550  18.277   1.410   4.626
34291W        W 6551  43.004   2.932  14.751
34292W        W 6552   2.821  31.021  12.559
34293W        W 6553   7.289  11.881   3.217
34294W        W 6554   4.848  28.023   2.765
34295W        W 6555  44.988  32.390  11.534
34296W        W 6556  31.157   1.533  11.994
34297W        W 6557  29.695  11.076  11.146
34298W        W 6558  40.712   2.379   2.246
34299W        W 6559   8.372  41.393   4.400
34300W        W 6560   9.222  30.259  14.835
34301W        W 6561  26.982  11.117  10.825
34302W        W 6562  23.300  32.960  13.975
34303W        W 6563   1.597  35.798   0.401
34304W        W 6564  16.660  27.134   3.820
34305W        W 6565  15.801   2.364   1.323
34306W        W 6566  37.591  20.168   1.768
34307W        W 6567  25.020  38.014  12.849
34308W        W 6568  40.195  33.389   3.411
34309W        W 6569  37.504   9.428  12.140
34310W        W 6570  16.144  17.524  12.100
34311W        W 6571  23.084  27.218  12.286
34312W        W 6572   4.879  16.663   0.754
34313W        W 6573  13.844  41.013  11.197
34314W        W 6574  30.162  32.964  14.828
34315W        W 6575  44.232  28.362  13.278
34316W        W 6576   0.506  20.690   1.867
34317W        W 6577  36.537   0.864   3.287
34318W        W 6578  36.428  18.104  11.081
34319W        W 6579  32.442  29.635  13.851
34320W        W 6580  15.798   5.916   0.663
34321W        W 6581  31.558   5.899  11.087
34322W        W 6582  18.674  26.490   3.260
34323W        W 6583  37.842   4.637  12.143
34324W        W 6584   9.257  29.515   4.354
34325W        W 6585   4.048  29.010  11.540
34326W        W 6586  17.562  41.885  10.808
34327W        W 6587  22.734   0.736   2.374
34328W        W 6588  44.351   6.896  14.858
34329W        W 6589  34.459  11.109  13.375
34330W        W 6590  30.916   8.777  14.790
34331W        W 6591  24.541  16.385   0.160
34332W        W 6592  16.650  14.569   0.747
34333W        W 6593  32.083   8.956   2.207
34334W        W 6594  22.912  14.366  12.053
34335W        W 6595  36.445   5.476  13.919
34336W        W 6596  37.901  11.230   1.478
34337W        W 6597  34.602   7.664   3.272
34338W        W 6598  11.248  12.290  13.905
34339W        W 6599  41.514   9.745  13.891
34340W        W 6600  24.020  13.831  10.475
34341W        W 6601  40.595  40.240  12.531
34342W        W 6602  29.239  25.693   0.045
34343W        W 6603  33.881  33.872  13.086
34344W        W 6604   6.133   1.371   1.440
34345W        W 6605  27.157  33.783   1.748
34346W        W 6606  42.091  15.474  11.205
34347W        W 6607  17.964  36.505   0.879
34348W        W 6608  13.761  42.325   2.384
34349W        W 6609   8.389  38.978   4.090
34350W        W 6610  40.862  36.407   0.383
34351W        W 6611   9.606  13.607   1.714
34352W        W 6612  37.702  15.075  12.142
34353W        W 6613  17.971  30.210   0.537
34354W        W 6614  27.703  38.652   2.210
34355W        W 6615  17.733  18.150  12.945
34356W        W 6616  29.534  41.071   4.483
34357W        W 6617   7.744  43.353   4.324
34358W        W 6618  10.070  33.361  14.722
34359W        W 6619  42.512   7.487  12.197
34360W        W 6620  38.293  28.203   1.226
34361W        W 6621  31.158  42.478   0.195
34362W        W 6622  37.636  19.522  11.488
34363W        W 6623  27.566  13.624  10.983
34364W        W 6624  35.495  29.777   1.469
34365W        W 6625  30.037   5.831  10.701
34366W        W 6626  27.736   1.354  10.850
34367W        W 6627  40.767  22.059  12.416
34368W        W 6628  26.715  21.596   2.552
34369W        W 6629  12.708   2.524  13.331
34370W        W 6630   2.857  23.678   0.912
34371W        W 6631  15.504  24.955   5.133
34372W        W 6632  17.206   9.690   5.005
34373W        W 6633  21.890  18.559  12.005
34374W        W 6634  21.545  29.990   3.003
34375W        W 6635  42.201  35.302   3.727
34376W        W 6636   6.700   1.325  10.846
34377W        W 6637   7.492  31.933  10.954
34378W        W 6638  43.290   7.049   4.558
34379W        W 6639  13.743  11.704   4.593
34380W        W 6640  14.842   4.739   3.267
34381W        W 6641  39.748   0.863  11.707
34382W        W 6642  26.033  34.984   4.617
34383W        W 6643  34.944   2.878  14.463
34384W        W 6644   6.981   9.785  12.736
34385W        W 6645  19.267   7.077   1.316
34386W        W 6646  27.982  13.581   3.419
34387W        W 6647   1.742  33.924   1.204
34388W        W 6648  31.408  35.675  11.170
34389W        W 6649  20.703   5.482  13.541
34390W        W 6650   3.122  40.656   3.228
34391W        W 6651   0.910  14.567  11.431
34392W        W 6652  29.837  25.698  13.795
34393W        W 6653  44.431  24.287  10.909
34394W        W 6654  29.602   5.593  13.397
34395W        W 6655   1.736  39.170  12.819
34396W        W 6656   9.266   1.008  12.968
34397W        W 6657  15.880  40.540   2.405
34398W        W 6658  26.189  33.049  11.626
34399W        W 6659  39.798   2.744  13.839
34400W        W 6660  14.566  40.533   3.150
34401W        W 6661  35.158  37.588  10.204
34402W        W 6662  36.458  29.266  14.454
34403W        W 6663  18.576   5.237   3.762
34404W        W 6664  25.145  11.626   3.562
34405W        W 6665  20.052  13.801   0.518
34406W        W 6666   0.476   4.533   1.355
34407W        W 6667  10.355  17.242  13.076
34408W        W 6668   1.419   7.944  11.073
34409W        W 6669   2.299  16.893  14.339
34410W        W 6670   6.882  30.506   0.836
34411W        W 6671  14.335  34.582  12.377
34412W        W 6672  15.569  12.822   1.298
34413W        W 6673  13.689   2.190  11.524
34414W        W 6674  30.985  41.299  14.553
34415W        W 6675  31.032  42.961  10.343
34416W        W 6676  19.884  13.365   3.404
34417W        W 6677  15.070   5.509   3.831
34418W        W 6678  37.535  12.093  14.087
34419W        W 6679   0.961   8.245   2.425
34420W        W 6680   2.691  35.454  14.904
34421W        W 6681  37.598   1.501   3.913
34422W        W 6682   3.252  34.097   2.780
34423W        W 6683  23.459   7.888   0.670
34424W        W 6684  25.156  33.847   2.914
34425W        W 6685   8.226   5.943  12.243
34426W        W 6686  10.247  22.636  10.946
34427W        W 6687  21.562  37.957   2.007
34428W        W 6688  26.820  28.741   4.900
34429W        W 6689  38.099  13.771   3.218
34430W        W 6690   2.774   5.301   3.934
34431W        W 6691  38.658  18.125  14.179
34432W        W 6692  20.101  38.293  10.800
34433W        W 6693  20.736  18.508   4.697
34434W        W 6694  18.808  10.941  11.693
34435W        W 6695  22.385   1.965  13.577
34436W        W 6696  17.901   9.665   0.549
34437W        W 6697  31.834  14.141   0.788
34438W        W 6698   4.240  25.400  14.543
34439W        W 6699  24.548  25.573   2.252
34440W        W 6700  13.244  36.268   0.313
34441W        W 6701  27.013  36.543  12.471
34442W        W 6702   9.248  18.003   1.951
34443W        W 6703  12.169   2.990  10.625
34444W        W 6704  43.124  17.043  13.604
34445W        W 6705  16.074  34.013  12.054
34446W        W 6706   1.463  27.646   1.009
34447W        W 6707  42.267  32.706   3.295
34448W        W 6708   0.304   7.367   4.546
34449W        W 6709  31.020  18.790  11.016
34450W        W 6710  20.121  22.101   4.528
34451W        W 6711   3.502  18.357   3.943
34452W        W 6712  19.241  18.422   4.568
34453W        W 6713   2.717  24.480   3.141
34454W        W 6714  42.575  13.376   0.955
34455W        W 6715  20.284  32.562  11.740
34456W        W 6716  42.751  18.605   1.783
34457W        W 6717   3.885  40.395   0.908
34458W        W 6718   9.941  23.972  14.932
34459W        W 6719  30.442  25.979   2.885
34460W        W 6720   8.369  31.229   1.293
34461W        W 6721  10.917   5.140  12.461
34462W        W 6722  11.231   3.991  14.955
34463W        W 6723  43.003   4.208  14.659
34464W        W 6724   2.378  41.516  14.695
34465W        W 6725  25.954   3.666   4.141
34466W        W 6726  17.761  17.967   3.656
34467W        W 6727  26.426  15.689  14.552
34468W        W 6728  23.778  37.740   1.053
34469W        W 6729  42.953  17.114   1.981
34470W        W 6730  35.052  30.188   4.498
34471W        W 6731   1.891  32.627   1.000
34472W        W 6732  15.373  27.573   4.314
34473W        W 6733  25.774   1.968  10.731
34474W        W 6734  29.425  19.568   0.434
34475W        W 6735  33.533  13.420   4.119
34476W        W 6736  44.704  13.111   3.591
34477W        W 6737  32.106  16.220  13.947
34478W        W 6738  19.246  36.668  13.579
34479W        W 6739   5.935  34.070  13.429
34480W        W 6740  41.016  20.517  11.599
34481W        W 6741  24.540  35.164  10.761
34482W        W 6742   5.378  35.954  10.702
34483W        W 6743   6.660   8.314   4.652
34484W        W 6744  42.195  29.162   1.783
34485W        W 6745  42.023  11.008  11.725
34486W        W 6746   1.684  33.631  12.976
34487W        W 6747   8.823  33.916  13.260
34488W        W 6748  39.374  44.838   0.394
34489W        W 6749  25.021  18.148   1.890
34490W        W 6750  41.440  15.992  14.662
34491W        W 6751  12.143   7.882   2.348
34492W        W 6752   7.731  31.726   3.457
34493W        W 6753  13.331  22.753   4.121
34494W        W 6754   1.359  12.815  11.724
34495W        W 6755  33.351  36.336   4.477
34496W        W 6756  25.779   8.282  11.157
34497W        W 6757  24.211  39.083   3.335
34498W        W 6758   7.722  15.331   3.533
34499W        W 6759  26.269  28.397  14.838
34500W        W 6760  12.244  15.529  14.314
34501W        W 6761  23.050  16.748   4.650
34502W        W 6762  22.947  10.290   4.486
34503W        W 6763  24.540  41.172  10.683
34504W        W 6764  37.975  17.957   1.968
34505W        W 6765  39.949  30.954   0.039
34506W        W 6766  16.859  37.804  11.061
34507W        W 6767   0.733  43.995   1.793
34508W        W 6768   8.380   9.574   2.606
34509W        W 6769  19.942  17.635   1.729
34510W        W 6770   6.482  15.677   2.118
34511W        W 6771   4.899  35.310   5.031
34512W        W 6772  42.725  21.487  13.823
34513W        W 6773  15.147   1.578  13.215
34514W        W 6774  41.915  40.764   0.272
34515W        W 6775   8.599   7.355   0.332
34516W        W 6776  28.021  27.878  11.641
34517W        W 6777  44.771  14.261   1.381
34518W        W 6778   1.488  44.756  11.224
34519W        W 6779   8.168  34.794  10.882
34520W        W 6780  13.528   8.701  13.871
34521W        W 6781  19.758   5.423   9.900
34522W        W 6782  26.999  41.053  14.492
34523W        W 6783   6.275  22.789   1.661
34524W        W 6784   8.381  25.063   4.106
34525W        W 6785  33.961  34.137  11.148
34526W        W 6786  14.595  26.645  10.668
34527W        W 6787   1.721  39.126   3.739
34528W        W 6788  28.490  26.168  14.770
34529W        W 6789  18.119  44.292   0.101
34530W        W 6790  27.452  40.253  12.309
34531W        W 6791  21.762  44.984   3.994
34532W        W 6792   5.513   9.324  11.700
34533W        W 6793  15.204  12.605  11.524
34534W        W 6794   1.848  16.532   3.898
34535W        W 6795   0.666  44.957  14.479
34536W        W 6796   1.427  33.301   3.822
34537W        W 6797  44.328  40.545  12.830
34538W        W 6798  39.115  15.732   4.073
34539W        W 6799   3.861  30.482   4.163
34540W        W 6800  22.076  30.557  13.587
34541W        W 6801  10.833   8.926  14.836
34542W        W 6802   5.604  13.803  12.605
34543W        W 6803  14.742  23.548   1.973
34544W        W 6804  42.643  41.425  12.589
34545W        W 6805   5.963   0.906   1.301
34546W        W 6806  22.547   4.761  14.321
34547W        W 6807  38.359   5.948  11.376
34548W        W 6808  43.212  41.407   0.701
34549W        W 6809  32.371  40.771   0.593
34550W        W 6810  20.337   9.394   4.305
34551W        W 6811  32.874   4.946  10.703
34552W        W 6812  19.863   3.178   2.234
34553W        W 6813   3.614  26.731   3.962
34554W        W 6814  27.003  25.757  13.891
34555W        W 6815  10.140  14.302  13.109
34556W        W 6816   7.675  38.349  11.283
34557W        W 6817   7.949  19.673   4.602
34558W        W 6818  19.535  22.250  10.861
34559W        W 6819   6.444  44.428   2.782
34560W        W 6820  34.919  11.467   0.727
34561W        W 6821  27.521  10.233  10.655
34562W        W 6822  27.742  43.858  12.496
34563W        W 6823  44.514   4.219   0.789
34564W        W 6824  38.142   9.809   2.746
34565W        W 6825  17.216  21.827   0.803
34566W        W 6826  40.484  17.143   0.253
34567W        W 6827  32.669  32.559   1.764
34568W        W 6828  26.558  20.837  12.547
34569W        W 6829  21.234  10.224   2.531
34570W        W 6830  14.784   0.856  11.626
34571W        W 6831  21.704   7.578  12.403
34572W        W 6832  18.864  16.160   2.601
34573W        W 6833  21.027   8.397  11.479
34574W        W 6834   4.630  12.416   3.668
34575W        W 6835  24.777  19.059  14.551
34576W        W 6836  20.076   2.641  13.484
34577W        W 6837  40.959   8.496  14.157
34578W        W 6838  37.438   1.963   1.942
34579W        W 6839  44.424  33.712   1.466
34580W        W 6840  43.124   1.611   0.184
34581W        W 6841  16.332  22.240   2.459
34582W        W 6842  44.054  25.548   1.203
34583W        W 6843  28.309  36.886   1.926
34584W        W 6844  39.539  19.008  14.790
34585W        W 6845  16.815   7.602  13.065
34586W        W 6846  23.801  36.062  11.019
34587W        W 6847  43.923  23.158   1.826
34588W        W 6848  42.361   4.122   0.869
34589W        W 6849   0.891  30.949   1.786
34590W        W 6850  20.807  34.715  11.955
34591W        W 6851   5.227  23.319  11.601
34592W        W 6852  19.602   4.131   2.194
34593W        W 6853  23.756  44.010   0.927
34594W        W 6854  27.992  36.257  12.451
34595W        W 6855  22.474  18.535   3.266
34596W        W 6856  41.088   0.545   2.073
34597W        W 6857  24.914   6.280  10.678
34598W        W 6858  33.532  30.569   3.004
34599W        W 6859   8.021   6.105   2.185
34600W        W 6860  40.775  40.177   4.476
34601W        W 6861  21.971   8.886  11.674
34602W        W 6862  39.073  32.033  13.818
34603W        W 6863  10.263   7.650   3.989
34604W        W 6864  27.187  25.009  11.579
34605W        W 6865  29.458  19.022   0.430
34606W        W 6866  34.508  32.396   4.101
34607W        W 6867  23.119   5.436   2.249
34608W        W 6868   3.033  21.589  11.094
34609W        W 6869  39.924  16.267  13.918
34610W        W 6870   0.210  17.558  11.529
34611W        W 6871   3.453  33.538  13.381
34612W        W 6872   2.390  29.532   0.722
34613W        W 6873  29.341  26.962  12.012
34614W        W 6874  17.645  37.517   2.182
34615W        W 6875   6.293   4.376   0.260
34616W        W 6876  35.940  26.650  14.970
34617W        W 6877   4.981   1.899   2.222
34618W        W 6878  29.816  34.576   0.774
34619W        W 6879  22.249  21.742   4.244
34620W        W 6880  21.250   2.378   3.095
34621W        W 6881   1.668  24.059  14.903
34622W        W 6882  14.248  24.680   1.207
34623W        W 6883  12.417  16.518  14.614
34624W        W 6884   4.870  43.824  11.188
34625W        W 6885   4.644  41.773  11.133
34626W        W 6886  36.587  19.126  12.469
34627W        W 6887  10.689  27.998  13.402
34628W        W 6888   8.289  37.025  12.440
34629W        W 6889  14.362   3.969   0.347
34630W        W 6890   5.854  23.587  10.820
34631W        W 6891  11.446  14.730  11.921
34632W        W 6892   5.455   4.932  12.570
34633W        W 6893   7.205  25.005   4.214
34634W        W 6894  18.135   9.709   1.031
34635W        W 6895  26.013   3.246  14.094
34636W        W 6896  14.038  37.908  11.866
34637W        W 6897   5.170  40.081  13.185
34638W        W 6898  15.605  12.272   4.459
34639W        W 6899   2.811   2.897   0.249
34640W        W 6900  39.976  28.929  13.096
34641W        W 6901  30.665  30.580  13.521
34642W        W 6902   7.361  32.566   2.370
34643W        W 6903  11.791   7.498  10.668
34644W        W 6904  16.830   8.099   1.724
34645W        W 6905  40.832   6.209   2.444
34646W        W 6906  33.302   5.037  12.541
34647W        W 6907  30.675  34.203   1.080
34648W        W 6908  27.861  28.207   1.253
34649W        W 6909  14.768  41.347  12.074
34650W        W 6910  16.789  31.042  12.460
34651W        W 6911  43.181  29.068   0.839
34652W        W 6912  20.507  25.965  10.644
34653W        W 6913  32.426  17.088  13.151
34654W        W 6914  24.578  33.198   3.122
34655W        W 6915  29.696  33.135   5.134
34656W        W 6916  44.597  42.459   1.035
34657W        W 6917  19.802  21.708  11.136
34658W        W 6918  15.596   2.251  10.736
34659W        W 6919  10.549  24.084   5.083
34660W        W 6920  26.130  42.289   9.987
34661W        W 6921   8.251  41.489   3.460
34662W        W 6922  28.636  32.911  10.329
34663W        W 6923  32.578  13.071  10.344
34664W        W 6924  38.684   7.955  11.308
34665W        W 6925  27.129  19.965  11.560
34666W        W 6926  17.769   9.811  12.983
34667W        W 6927  11.814  10.324  14.545
34668W        W 6928  15.761  19.800  14.683
34669W        W 6929   8.405  17.099  12.720
34670W        W 6930  22.637   6.320  13.953
34671W        W 6931   6.226  17.067  12.404
34672W        W 6932  29.632  15.259  11.578
34673W        W 6933  43.544  27.601  10.535
34674W        W 6934   1.693  26.501  13.883
34675W        W 6935  41.018  25.259   3.958
34676W        W 6936   9.460   0.984   2.830
34677W        W 6937  33.415  17.544  12.422
34678W        W 6938  14.256  43.781  12.556
34679W        W 6939   6.819  26.809  14.849
34680W        W 6940  23.160  28.706  11.106
34681W        W 6941   1.328  38.015  12.741
34682W        W 6942   0.054  31.848  13.404
34683W        W 6943  30.415   2.644  11.230
34684W        W 6944  21.526  44.608  13.135
34685W        W 6945  35.902   9.771   4.181
34686W        W 6946  13.533  13.639   0.220
34687W        W 6947  37.095  28.147   2.706
34688W        W 6948  27.043  33.298   1.660
34689W        W 6949   6.098   0.874   4.520
34690W        W 6950  34.311  41.976   4.639
34691W        W 6951   8.557  25.591  14.410
34692W        W 6952   1.136  42.192  11.215
34693W        W 6953  19.548  30.447   3.297
34694W        W 6954   2.986  21.561  12.587
34695W        W 6955  37.344  11.898  12.069
34696W        W 6956  22.409  37.934   2.620
34697W        W 6957   5.905   0.250   4.165
34698W        W 6958  10.587  17.403   4.444
34699W        W 6959   6.091  25.280   5.050
34700W        W 6960  36.418  23.857   4.990
34701W        W 6961   1.403   9.602   2.247
34702W        W 6962   2.213  25.071   2.766
34703W        W 6963  39.165  43.837   3.782
34704W        W 6964  39.779  15.560  12.021
34705W        W 6965  23.038  33.518   2.674
34706W        W 6966   6.244   4.447   2.656
34707W        W 6967  32.932   3.458  12.920
34708W        W 6968  43.432  14.308   0.462
34709W        W 6969   5.876  32.452  12.441
34710W        W 6970   0.146   8.802   2.376
34711W        W 6971  20.145  18.365  13.414
34712W        W 6972  33.576   8.659   4.000
34713W        W 6973   1.697  43.687  12.901
34714W        W 6974  13.064  41.265  14.726
34715W        W 6975  43.361  42.852  11.640
34716W        W 6976  15.546  26.916   3.653
34717W        W 6977  28.672  36.010   3.759
34718W        W 6978  25.101   1.875  12.433
34719W        W 6979  36.992  20.902   1.916
34720W        W 6980  17.131   5.159   3.584
34721W        W 6981   1.387   8.930  13.855
34722W        W 6982  29.903   3.966   0.354
34723W        W 6983   0.639  18.989  11.976
34724W        W 6984  20.137   6.899  10.672
34725W        W 6985   1.339  39.183   4.122
34726W        W 6986  39.009  33.983  12.976
34727W        W 6987   3.845  16.602  12.515
34728W        W 6988   1.738  25.464   4.748
34729W        W 6989  26.281  36.054  11.184
34730W        W 6990  16.728  35.463   1.397
34731W        W 6991  37.529  25.699  14.294
34732W        W 6992  37.889   9.172   2.280
34733W        W 6993  24.802  32.839  11.977
34734W        W 6994  19.290  13.109  11.056
34735W        W 6995  42.812  40.474   1.004
34736W        W 6996  32.025  21.129  14.087
34737W        W 6997   0.736   0.483   4.063
34738W        W 6998  15.502  23.191  12.323
34739W        W 6999  17.555   8.621  12.182
34740W        W 7000  19.267  37.116   3.423
34741W        W 7001   7.745  15.165   4.613
34742W        W 7002  41.139  32.528  10.983
34743W        W 7003  21.261   7.800  12.554
34744W        W 7004  13.645  14.515   1.698
34745W        W 7005  37.504  33.982   4.114
34746W        W 7006  44.179  34.114   1.240
34747W        W 7007  11.804  23.631  12.100
34748W        W 7008  44.779  44.032   2.763
34749W        W 7009  30.073  37.881  13.078
34750W        W 7010  15.574  44.050  13.412
34751W        W 7011   8.623  30.588  10.940
34752W        W 7012   2.129  26.235   0.044
34753W        W 7013  13.044  35.334   3.903
34754W        W 7014  37.527  14.534   2.460
34755W        W 7015  42.924  28.421  13.378
34756W        W 7016  41.801   6.224  12.991
34757W        W 7017  26.250   5.452   4.598
34758W        W 7018  34.600  20.633   0.243
34759W        W 7019  10.593  42.485   3.228
34760W        W 7020  17.623  43.350  14.521
34761W        W 7021  20.521  12.707   1.765
34762W        W 7022  29.875  17.558  10.704
34763W        W 7023  41.528  29.608  14.307
34764W        W 7024  34.146  36.446   3.266
34765W        W 7025  38.755  32.039  11.084
34766W        W 7026   2.505  18.608  13.349
34767W        W 7027   0.977  23.974  12.115
34768W        W 7028  11.296  31.977   1.056
34769W        W 7029   5.966  29.445  14.871
34770W        W 7030   1.692  29.574  10.653
34771W        W 7031  31.195  12.785   4.001
34772W        W 7032  28.012   4.006  10.315
34773W        W 7033  27.541  44.492  11.496
34774W        W 7034   5.974  10.755  10.672
34775W        W 7035  44.325  17.059   2.836
34776W        W 7036  22.469  21.155  11.563
34777W        W 7037   2.542  15.976  10.107
34778W        W 7038   6.197   4.175  12.133
34779W        W 7039  33.683  36.262   2.121
34780W        W 7040  28.253  34.612   1.853
34781W        W 7041   3.782  14.557   2.866
34782W        W 7042  28.945   4.082  13.782
34783W        W 7043  23.917  23.765   4.587
34784W        W 7044   4.823  14.800   4.528
34785W        W 7045  44.932  35.330  13.869
34786W        W 7046   0.534   1.115  10.685
34787W        W 7047  21.173  26.520  13.363
34788W        W 7048  13.692   8.771   1.325
34789W        W 7049  24.766  17.538  14.524
34790W        W 7050   2.564   0.839  10.757
34791W        W 7051   9.919   8.787  11.070
34792W        W 7052  43.940  23.671  12.332
34793W        W 7053  42.578  44.272   1.759
34794W        W 7054   9.325  35.599  13.377
34795W        W 7055  18.817  15.204   4.248
34796W        W 7056  37.322  31.639   4.875
34797W        W 7057   3.183  11.199  10.658
34798W        W 7058  19.020  32.815  11.657
34799W        W 7059  35.045  35.392   3.317
34800W        W 7060  25.166   1.237  14.227
34801W        W 7061  43.620  41.000   0.057
34802W        W 7062  30.157  15.191   0.904
34803W        W 7063  25.101  10.547   1.959
34804W        W 7064  33.114  38.233   1.403
34805W        W 7065  32.262  26.138   0.741
34806W        W 7066  20.631  44.770   4.935
34807W        W 7067   6.715  30.908  14.248
34808W        W 7068   8.897   3.331   3.102
34809W        W 7069   0.924  32.929  12.914
34810W        W 7070  23.181  35.929  11.630
34811W        W 7071  22.630  18.575   1.726
34812W        W 7072  10.863  16.332  12.525
34813W        W 7073   6.230  23.764  12.057
34814W        W 7074  13.649  22.437  10.709
34815W        W 7075  42.916  10.538  12.582
34816W        W 7076  13.955  13.181   3.253
34817W        W 7077   2.734  37.981   3.612
34818W        W 7078  26.547  23.760   2.192
34819W        W 7079  43.399  16.432  13.979
34820W        W 7080  44.867  10.128  11.091
34821W        W 7081  14.228  13.103   2.832
34822W        W 7082   8.430  33.170   1.133
34823W        W 7083  36.019   3.761  14.367
34824W        W 7084  30.055   7.585   2.653
34825W        W 7085  12.298  10.137  14.404
34826W        W 7086  20.307  21.718   1.656
34827W        W 7087  35.973  36.123   2.950
34828W        W 7088  32.851  41.438  14.393
34829W        W 7089  16.358   8.522   4.633
34830W        W 7090  13.336   1.347  12.128
34831W        W 7091  30.945  44.697   2.840
34832W        W 7092  34.619  37.772   3.790
34833W        W 7093  12.566  35.446  10.734
34834W        W 7094  16.556  37.054   2.824
34835W        W 7095  44.497  41.436  12.883
34836W        W 7096  34.748  39.224   3.240
34837W        W 7097  16.515   5.629  13.578
34838W        W 7098  32.071  26.039  12.028
34839W        W 7099   5.115  26.469  10.589
34840W        W 7100   5.090   8.818   1.736
34841W        W 7101  37.084  22.267   0.856
34842W        W 7102  36.861  43.956   2.330
34843W        W 7103  33.100  40.040   3.932
34844W        W 7104  28.020  22.514  13.176
34845W        W 7105  40.087  23.057  13.581
34846W        W 7106  33.836  43.705   3.359
34847W        W 7107  33.149  14.374  14.017
34848W        W 7108   4.983  15.015   1.751
34849W        W 7109  39.321  25.910  13.438
34850W        W 7110  21.481  32.506  13.146
34851W        W 7111  12.098  10.099   0.443
34852W        W 7112  31.687  18.684   4.861
34853W        W 7113  23.023  17.922  14.896
34854W        W 7114  12.712   5.950   0.814
34855W        W 7115  31.364   2.009  13.570
34856W        W 7116  31.878   9.866   2.167
34857W        W 7117   0.361  36.312  13.135
34858W        W 7118  25.492  26.526  10.579
34859W        W 7119  26.661   9.621  12.460
34860W        W 7120   1.817  44.522   1.036
34861W        W 7121  25.063  33.593   3.913
34862W        W 7122  21.758  32.922  14.885
34863W        W 7123  25.412  39.138   4.345
34864W        W 7124  35.584  26.740   1.793
34865W        W 7125  12.292  17.535  10.492
34866W        W 7126  31.529   6.024   2.799
34867W        W 7127  18.751  25.498  14.816
34868W        W 7128  15.382  15.040  11.128
34869W        W 7129  18.247  22.126   1.332
34870W        W 7130  12.064  34.476  12.501
34871W        W 7131  18.050  23.658   2.863
34872W        W 7132  30.573  41.754   1.624
34873W        W 7133  17.241  21.094   1.289
34874W        W 7134  14.792   7.358  14.483
34875W        W 7135   7.633  21.813  11.044
34876W        W 7136  40.340  26.331   4.608
34877W        W 7137  33.716  19.291  13.133
34878W        W 7138  14.677  16.292   4.810
34879W        W 7139  16.339  42.733   2.369
34880W        W 7140  21.287   8.863  13.625
34881W        W 7141  38.979  21.836  11.996
34882W        W 7142  10.257   5.773  13.190
34883W        W 7143  15.574  34.342   4.098
34884W        W 7144  26.938  33.304  11.937
34885W        W 7145  18.507  34.956  12.200
34886W        W 7146  34.187  25.035  12.082
34887W        W 7147  17.808  13.091  14.366
34888W        W 7148  42.067  23.682   4.596
34889W        W 7149  31.782   6.375   0.893
34890W        W 7150  39.981  19.280  14.776
34891W        W 7151  39.335  14.667   4.985
34892W        W 7152  42.414   8.335   3.494
34893W        W 7153   7.792  24.054   4.401
34894W        W 7154  18.751  38.326  14.876
34895W        W 7155  43.295  38.296   0.815
34896W        W 7156  24.384  14.802   2.255
34897W        W 7157   9.570  19.646  10.836
34898W        W 7158  44.220  44.370  13.158
34899W        W 7159   4.829  26.679   1.373
34900W        W 7160  30.347  31.626  14.773
34901W        W 7161   3.688   7.194   0.127
34902W        W 7162  33.569  43.517  12.435
34903W        W 7163  17.280  20.316   0.884
34904W        W 7164   8.066   2.743  13.342
34905W        W 7165  14.363  37.879  10.418
34906W        W 7166  26.860  33.388  13.361
34907W        W 7167  10.332  38.881   4.114
34908W        W 7168   7.013  25.513  11.057
34909W        W 7169  17.650  11.422   3.812
34910W        W 7170  44.560  22.153   0.342
34911W        W 7171  23.861  43.128   1.856
34912W        W 7172  21.228  41.741   1.812
34913W        W 7173  43.589  17.066   0.229
34914W        W 7174  11.152  11.266  12.951
34915W        W 7175  36.370   1.479   3.543
34916W        W 7176  23.119  44.569   1.170
34917W        W 7177  24.188  28.316  14.364
34918W        W 7178   9.158  26.293  14.792
34919W        W 7179  18.238  39.790  10.557
34920W        W 7180  29.539  39.490  11.393
34921W        W 7181  41.903  28.536   4.966
34922W        W 7182  37.035  19.665   1.407
34923W        W 7183  12.102  17.185   4.556
34924W        W 7184   0.693  12.928   2.192
34925W        W 7185  22.959  22.765   1.266
34926W        W 7186   8.200  38.988  13.118
34927W        W 7187  21.555   4.501  13.950
34928W        W 7188  23.005  39.231  11.113
34929W        W 7189   0.420   6.669   0.389
34930W        W 7190  32.127   4.289  11.630
34931W        W 7191  28.453  37.310  10.400
34932W        W 7192  21.505  41.986   1.435
34933W        W 7193   1.447  24.300   0.317
34934W        W 7194  37.923  26.261   3.301
34935W        W 7195   6.902  29.467  12.497
34936W        W 7196  12.616  11.662   3.739
34937W        W 7197  10.103  31.896  13.276
34938W        W 7198   2.432  36.592  13.890
34939W        W 7199  42.264  21.120  10.088
34940W        W 7200  24.734   4.756  14.955
34941W        W 7201  37.302  16.537   0.734
34942W        W 7202  33.973  42.722  11.582
34943W        W 7203  40.122  23.042   1.839
34944W        W 7204  18.752  17.763  10.970
34945W        W 7205  35.034   3.205   0.282
34946W        W 7206  18.673  39.919   4.839
34947W        W 7207  44.810  22.123   4.734
34948W        W 7208  33.380  25.385   0.487
34949W        W 7209  13.854  37.427  12.480
34950W        W 7210  27.657   6.727  13.940
34951W        W 7211  12.887  10.674  14.085
34952W        W 7212   2.656  20.633  13.143
34953W        W 7213  44.949  43.090   0.972
34954W        W 7214   1.694  44.813  10.675
34955W        W 7215  31.549  10.411  12.375
34956W        W 7216  29.215  40.797  13.807
34957W        W 7217  10.577  33.061   2.891
34958W        W 7218  39.596   1.848  10.690
34959W        W 7219  19.154  44.909  11.664
34960W        W 7220  44.018   4.909  14.307
34961W        W 7221  31.058   9.882  11.927
34962W        W 7222   6.423   9.669   3.698
34963W        W 7223  26.947   7.474  14.311
34964W        W 7224  10.492  37.575   4.214
34965W        W 7225  10.411  14.108  14.961
34966W        W 7226  27.073  18.654  12.051
34967W        W 7227  15.744  32.360   1.692
34968W        W 7228   5.608  25.613  11.244
34969W        W 7229  43.228  15.712   1.184
34970W        W 7230  28.878  25.589   1.056
34971W        W 7231  16.568  16.987  14.268
34972W        W 7232  20.066  12.938  10.177
34973W        W 7233  43.398  31.484   4.026
34974W        W 7234  12.722  26.644  12.521
34975W        W 7235  14.120   1.493   4.190
34976W        W 7236   3.706  37.044   1.504
34977W        W 7237  30.710  38.363   1.722
34978W        W 7238  11.569  41.381  14.837
34979W        W 7239  30.156  14.411  12.555
34980W        W 7240   3.494  17.605  10.689
34981W        W 7241  23.200   1.998   0.756
34982W        W 7242  24.188   5.898  11.089
34983W        W 7243  40.375  27.209  14.334
34984W        W 7244   3.021  28.972   0.415
34985W        W 7245  44.399   6.804   2.085
34986W        W 7246  37.551  38.864  14.021
34987W        W 7247  44.675   1.241  12.656
34988W        W 7248  40.512  20.633   1.259
34989W        W 7249   8.773  35.759  10.335
34990W        W 7250   0.769  30.004   1.654
34991W        W 7251  31.635  26.134  11.061
34992W        W 7252   8.115   0.990   0.494
34993W        W 7253  39.968   3.739   1.391
34994W        W 7254  34.269  29.670  12.346
34995W        W 7255  10.196  38.727   2.810
34996W        W 7256   3.712  31.568   3.670
34997W        W 7257  33.530  29.317   3.195
34998W        W 7258  18.718   7.763  11.097
34999W        W 7259  12.400  10.349  12.154
35000W        W 7260  42.229  36.414   0.455
35001W        W 7261  36.666   0.437  13.450
35002W        W 7262  30.270  35.061   2.582
35003W        W 7263  42.935  26.222  11.579
35004W        W 7264   4.640  36.338   2.780
35005W        W 7265  12.526  10.367   0.317
35006W        W 7266  17.828  24.473  10.756
35007W        W 7267  44.368   8.368  12.895
35008W        W 7268  13.625  25.059   2.751
35009W        W 7269  19.831  40.361  13.525
35010W        W 7270  17.536  33.027  10.834
35011W        W 7271   7.347  23.549  13.342
35012W        W 7272  31.385  26.573  10.945
35013W        W 7273  12.111  39.037  14.330
35014W        W 7274  26.151  34.148  12.403
35015W        W 7275  43.927  26.898   1.769
35016W        W 7276  22.729  28.080   0.791
35017W        W 7277  38.952  34.016   1.516
35018W        W 7278  12.851  32.765  11.271
35019W        W 7279  27.520  12.723  12.708
35020W        W 7280  31.595  21.106  13.769
35021W        W 7281  18.821   0.475  11.192
35022W        W 7282  35.043  17.550  12.139
35023W        W 7283  40.340   5.217   3.813
35024W        W 7284  24.008  26.709  12.526
35025W        W 7285  25.687  21.780  13.603
35026W        W 7286  26.577  23.428  12.155
35027W        W 7287  22.904  28.507   3.276
35028W        W 7288  12.342  12.779  10.894
35029W        W 7289   0.802  19.792  12.581
35030W        W 7290  41.739  31.524   2.304
35031W        W 7291  15.710  11.707  14.283
35032W        W 7292   8.808  27.441  11.118
35033W        W 7293   7.442  37.424   1.170
35034W        W 7294  30.636   2.322   0.857
35035W        W 7295  18.701  39.943   4.327
35036W        W 7296  32.881  35.794  12.940
35037W        W 7297   4.251  40.519  12.500
35038W        W 7298   4.010   3.305  12.300
35039W        W 7299  33.116  16.696  13.370
35040W        W 7300  32.713  36.236   0.976
35041W        W 7301   4.128   7.752   2.407
35042W        W 7302  44.249  37.807  12.065
35043W        W 7303  16.690  19.058   2.807
35044W        W 7304  17.549  32.461   0.065
35045W        W 7305  16.505  35.042  13.910
35046W        W 7306  25.956  21.058  13.881
35047W        W 7307   8.375  24.550   4.109
35048W        W 7308  10.404  24.512   3.578
35049W        W 7309   1.563  18.582  12.785
35050W        W 7310  22.319  16.539   4.245
35051W        W 7311  26.640  13.605  10.980
35052W        W 7312   2.555  42.602  13.725
35053W        W 7313  37.486   8.154   1.287
35054W        W 7314  35.150   0.862  12.896
35055W        W 7315  37.322  33.119   1.806
35056W        W 7316   6.288   7.292  10.336
35057W        W 7317  21.067  13.576   2.108
35058W        W 7318  15.263  11.938  12.519
35059W        W 7319  35.441   8.908   4.027
35060W        W 7320  24.615   9.618  12.989
35061W        W 7321  10.410  13.177  11.593
35062W        W 7322  27.207  11.582  10.724
35063W        W 7323  34.814   1.749  11.798
35064W        W 7324   1.095  23.942  14.918
35065W        W 7325  22.525  16.573  13.808
35066W        W 7326   2.853  13.829   0.384
35067W        W 7327   0.441  32.914  14.933
35068W        W 7328   9.394  39.441  12.013
35069W        W 7329  29.947  35.997   0.685
35070W        W 7330  11.572  22.573   4.573
35071W        W 7331  30.043  14.864  13.337
35072W        W 7332  29.308  40.424  10.653
35073W        W 7333   4.236  23.187   3.655
35074W        W 7334  15.802  15.924   2.598
35075W        W 7335  38.525  20.925   3.432
35076W        W 7336   6.458  21.808  12.860
35077W        W 7337  17.931  33.251  14.834
35078W        W 7338  39.206  28.547   4.416
35079W        W 7339   1.921  29.404   0.512
35080W        W 7340  16.683   0.068  12.980
35081W        W 7341  37.742  13.781   1.846
35082W        W 7342  42.279   4.382   1.347
35083W        W 7343   7.062   2.650   4.620
35084W        W 7344  18.281  29.161   1.504
35085W        W 7345  42.410   6.245   2.314
35086W        W 7346  35.393   6.655   1.743
35087W        W 7347  13.395  37.560   4.475
35088W        W 7348  15.284  15.678   3.610
35089W        W 7349  28.868  15.691   3.860
35090W        W 7350  18.190  18.469  13.596
35091W        W 7351  18.120  35.113  11.886
35092W        W 7352  33.950  23.048  13.228
35093W        W 7353  22.314  16.027  11.565
35094W        W 7354  19.255  24.257  13.131
35095W        W 7355  16.027  18.786   1.974
35096W        W 7356  23.750  28.064  13.703
35097W        W 7357   4.699  15.280  13.539
35098W        W 7358  30.913   5.500  14.021
35099W        W 7359   0.412  27.942  13.024
35100W        W 7360  31.882   5.930   0.699
35101W        W 7361   9.200  30.628  13.446
35102W        W 7362  44.518  41.380   2.695
35103W        W 7363  31.186  34.483  12.476
35104W        W 7364  10.046  15.067  13.316
35105W        W 7365  27.741  19.243  13.356
35106W        W 7366  39.893   6.775   1.904
35107W        W 7367   4.770  18.173  13.374
35108W        W 7368  15.212  26.637   2.655
35109W        W 7369  31.996   6.981   3.499
35110W        W 7370   9.492   4.870   2.869
35111W        W 7371  20.428  39.356   3.122
35112W        W 7372  13.649  13.115   0.263
35113W        W 7373  16.118  12.830   1.785
35114W        W 7374  35.124  44.062  10.731
35115W        W 7375  29.389  24.952  11.954
35116W        W 7376  18.244  23.214  11.219
35117W        W 7377   9.073  12.760   0.727
35118W        W 7378  28.656  15.168  12.523
35119W        W 7379   4.410  28.777  11.141
35120W        W 7380  27.691   3.794   0.818
35121W        W 7381  36.059  28.898   3.083
35122W        W 7382   5.992  16.661  14.067
35123W        W 7383   5.097  36.579   1.877
35124W        W 7384  17.288  44.953   0.164
35125W        W 7385   3.331  17.863  11.576
35126W        W 7386  31.172  39.021   2.364
35127W        W 7387  22.954   0.279  13.839
35128W        W 7388  11.646  31.415   0.367
35129W        W 7389  25.704  24.135  10.484
35130W        W 7390  33.491  22.177   2.312
35131W        W 7391  12.127  31.163  14.447
35132W        W 7392  34.709  20.625   2.806
35133W        W 7393  12.615   9.779   4.068
35134W        W 7394  15.672  36.375  11.667
35135W        W 7395  40.516  18.487   1.726
35136W        W 7396  32.881  25.775  10.921
35137W        W 7397   2.668  29.976  12.114
35138W        W 7398  20.860  28.586  10.120
35139W        W 7399  43.661  26.619  11.553
35140W        W 7400   7.506  30.257  14.481
35141W        W 7401  22.620  18.248   3.702
35142W        W 7402  31.615   3.727  12.599
35143W        W 7403   4.097   8.583  14.920
35144W        W 7404  15.231  29.401   0.733
35145W        W 7405  29.627  12.288  10.289
35146W        W 7406  15.532  21.729   4.921
35147W        W 7407  28.949  37.450   0.184
35148W        W 7408   2.678   7.592   2.450
35149W        W 7409  19.702  30.008  10.829
35150W        W 7410   1.216   8.329  11.374
35151W        W 7411   6.732  37.981   3.173
35152W        W 7412  35.298  27.372  14.353
35153W        W 7413  30.861  34.531  14.299
35154W        W 7414   1.640  39.016   0.888
35155W        W 7415   0.308   2.254  10.607
35156W        W 7416  19.292  41.337  14.356
35157W        W 7417  27.692   8.814   5.015
35158W        W 7418  35.796   6.276  10.497
35159W        W 7419  22.696  35.120  10.997
35160W        W 7420  17.261  30.133  14.060
35161W        W 7421  17.783   9.903   0.104
35162W        W 7422   4.870  43.455  14.454
35163W        W 7423   0.020  41.360  12.867
35164W        W 7424  16.883  20.645   2.104
35165W        W 7425   8.845  29.406   4.993
35166W        W 7426   6.232  42.504  12.904
35167W        W 7427  43.068  36.478  11.826
35168W        W 7428  32.295  43.559  14.711
35169W        W 7429  11.112  41.314   2.925
35170W        W 7430  41.854  42.272  10.975
35171W        W 7431  14.575   4.816  11.002
35172W        W 7432  23.194   7.089  13.607
35173W        W 7433   3.848   5.940   1.311
35174W        W 7434  41.796  41.441  13.410
35175W        W 7435  10.926  35.125   1.028
35176W        W 7436  30.120  17.088  12.883
35177W        W 7437   1.916  21.728   2.648
35178W        W 7438   9.893  41.547   4.242
35179W        W 7439  36.110  24.403   0.442
35180W        W 7440  21.655   0.786  13.853
35181W        W 7441  28.528   9.583  13.545
35182W        W 7442  39.264  12.665   3.757
35183W        W 7443   1.335  42.250  12.468
35184W        W 7444   8.647  32.433   3.193
35185W        W 7445  20.194  14.785  11.536
35186W        W 7446  17.859   8.649   1.177
35187W        W 7447  39.383  31.346  13.284
35188W        W 7448  31.820  13.522  12.482
35189W        W 7449  31.667  23.255   2.906
35190W        W 7450  26.984  25.146   0.468
35191W        W 7451   9.396  19.698  13.387
35192W        W 7452  34.036  19.679   5.283
35193W        W 7453   8.311  40.239   4.826
35194W        W 7454   1.301   7.356  13.780
35195W        W 7455  38.605   6.333  12.519
35196W        W 7456   9.278  21.132  11.562
35197W        W 7457  10.212  22.961  14.997
35198W        W 7458  39.545   8.451   2.389
35199W        W 7459  27.213  14.796  10.641
35200W        W 7460  44.354   2.377  10.414
35201W        W 7461  33.237  10.000   1.769
35202W        W 7462  18.108  33.307   0.459
35203W        W 7463  42.581  13.512   2.587
35204W        W 7464   8.411   4.455  13.461
35205W        W 7465  42.026   1.962  11.665
35206W        W 7466  30.891   0.212  13.001
35207W        W 7467  30.325  32.946  13.668
35208W        W 7468  22.827  26.109  13.937
35209W        W 7469   0.947  19.944   1.487
35210W        W 7470  28.564   4.941  14.826
35211W        W 7471   0.316  39.769   3.906
35212W        W 7472  40.253  15.762   1.315
35213W        W 7473  38.152  19.553   4.195
35214W        W 7474  32.071  40.419   3.690
35215W        W 7475  40.708  13.243  13.034
35216W        W 7476  26.433  43.770   0.879
35217W        W 7477  39.453  10.391   3.731
35218W        W 7478   2.987   1.408   4.159
35219W        W 7479   1.964  27.141  14.563
35220W        W 7480  40.486  20.789   2.757
35221W        W 7481  29.708   8.417   2.351
35222W        W 7482   6.438  10.794   2.281
35223W        W 7483  29.379  37.421  11.183
35224W        W 7484  26.221   8.842   1.826
35225W        W 7485   2.309   2.485   3.921
35226W        W 7486  27.559  44.235   1.931
35227W        W 7487   3.219  22.507   0.952
35228W        W 7488  25.594  34.362  13.311
35229W        W 7489  35.609  36.581   2.194
35230W        W 7490  41.998  22.862   0.062
35231W        W 7491  15.825  20.777  10.660
35232W        W 7492  35.364  25.045  10.504
35233W        W 7493  26.027  14.536   4.109
35234W        W 7494  30.506   4.717  14.132
35235W        W 7495  12.924  15.756   4.075
35236W        W 7496  28.984  37.537   4.435
35237W        W 7497  18.711   6.865  13.301
35238W        W 7498   2.967   9.378  12.942
35239W        W 7499  13.550   1.633   0.706
35240W        W 7500   1.017  43.038   4.098
35241W        W 7501  13.403  10.536  13.012
35242W        W 7502   6.198  36.460   0.762
35243W        W 7503   3.641  43.777  10.385
35244W        W 7504  36.284  38.262   1.915
35245W        W 7505  27.295  26.567  12.980
35246W        W 7506   9.173  19.212  13.328
35247W        W 7507   7.819  13.812  11.062
35248W        W 7508  22.016   1.729   1.436
35249W        W 7509  32.966   5.460  10.558
35250W        W 7510  39.826  31.229   2.211
35251W        W 7511   3.830  39.552  12.899
35252W        W 7512  36.126  12.853   2.709
35253W        W 7513  26.588  21.674   0.345
35254W        W 7514  33.195   4.353  12.815
35255W        W 7515  31.570  34.354   4.195
35256W        W 7516   2.996  25.090  14.509
35257W        W 7517  36.786  30.560  13.318
35258W        W 7518  12.585  28.550  12.488
35259W        W 7519   6.319  40.855   3.651
35260W        W 7520  39.642  13.625   3.593
35261W        W 7521  24.911  43.615  12.472
35262W        W 7522   5.672   9.864   1.916
35263W        W 7523  10.336  26.715  11.781
35264W        W 7524  42.809  42.987   0.165
35265W        W 7525  13.688  29.860  13.734
35266W        W 7526   5.146  12.255  14.416
35267W        W 7527  12.968  15.106  12.100
35268W        W 7528  17.120  17.525   2.171
35269W        W 7529  25.723  13.455   3.745
35270W        W 7530  19.214  17.678  13.684
35271W        W 7531   1.008  12.124  12.350
35272W        W 7532  27.390  11.329  11.121
35273W        W 7533  20.775  13.068  11.954
35274W        W 7534  35.522   6.150   3.710
35275W        W 7535  31.147  15.881   1.481
35276W        W 7536  18.272  19.473   4.364
35277W        W 7537  30.569  16.769   0.465
35278W        W 7538  35.274  18.579   0.234
35279W        W 7539   9.368  44.864   2.232
35280W        W 7540  23.773  30.523   1.140
35281W        W 7541  37.502  42.941  12.530
35282W        W 7542   7.429  11.391  13.511
35283W        W 7543   8.950  15.833   2.285
35284W        W 7544  41.471  30.870   4.115
35285W        W 7545   9.334   3.543  14.152
35286W        W 7546  14.048  23.227  11.007
35287W        W 7547  26.111   8.265  10.725
35288W        W 7548  12.758  10.750   1.855
35289W        W 7549   1.762   2.280   1.906
35290W        W 7550  14.692   1.956  13.097
35291W        W 7551  18.033   8.111  12.866
35292W        W 7552  41.961  34.626  14.739
35293W        W 7553  32.930  10.186  13.808
35294W        W 7554   6.426  32.411  11.603
35295W        W 7555  15.748  32.558  12.533
35296W        W 7556  25.846  13.161  13.626
35297W        W 7557  34.495  29.511  10.692
35298W        W 7558  18.589  20.087   1.466
35299W        W 7559  11.106  16.052   4.261
35300W        W 7560  14.859  30.771  12.830
35301W        W 7561  15.186  25.205   3.167
35302W        W 7562  17.659   0.225  14.952
35303W        W 7563   1.886  10.788  10.092
35304W        W 7564  38.473  17.882  11.087
35305W        W 7565  10.645  19.996   4.181
35306W        W 7566  39.600  12.663  14.943
35307W        W 7567  14.271  41.898   1.859
35308W        W 7568  11.206  11.689  14.241
35309W        W 7569  16.842  39.632   0.839
35310W        W 7570   4.309   9.801   0.981
35311W        W 7571  35.135  26.695   4.017
35312W        W 7572  38.556  21.751  11.221
35313W        W 7573  27.721  10.668  13.604
35314W        W 7574  33.570   4.324   2.026
35315W        W 7575  41.466  38.910  11.113
35316W        W 7576  16.770  32.411  14.498
35317W        W 7577  31.733  17.002   4.165
35318W        W 7578  43.362  43.964   0.426
35319W        W 7579  38.140   0.382  11.567
35320W        W 7580  21.866  38.012   2.534
35321W        W 7581  15.622  15.246   3.778
35322W        W 7582   8.051  32.951   2.813
35323W        W 7583  30.858  27.310   1.714
35324W        W 7584  15.091  16.286  11.634
35325W        W 7585  16.536  27.380  10.572
35326W        W 7586  24.186  43.964   4.652
35327W        W 7587  39.443  43.739  13.659
35328W        W 7588  18.755   6.670  11.067
35329W        W 7589  44.964  27.604  14.796
35330W        W 7590  13.124  40.302   1.900
35331W        W 7591  18.520   2.267  10.732
35332W        W 7592  15.076  34.802  11.088
35333W        W 7593   9.127  31.680   3.894
35334W        W 7594  19.150  31.616  11.953
35335W        W 7595  35.943  37.922   4.719
35336W        W 7596   6.469  16.943  11.489
35337W        W 7597  15.827  38.185   4.589
35338W        W 7598  35.110  15.756  14.402
35339W        W 7599  19.505  14.042  10.742
35340W        W 7600  23.225   5.838  10.504
35341W        W 7601  33.599  36.996  10.314
35342W        W 7602  17.837  19.603  11.113
35343W        W 7603   2.724  10.938  14.449
35344W        W 7604   7.912  28.012   4.588
35345W        W 7605  35.959   5.693   0.606
35346W        W 7606  19.583  27.644  13.077
35347W        W 7607  25.224  40.688  13.441
35348W        W 7608   1.886   2.191   3.753
35349W        W 7609  43.764   6.385  13.434
35350W        W 7610  20.724  10.656   0.782
35351W        W 7611  35.454   0.425  14.984
35352W        W 7612  11.753  32.528  13.940
35353W        W 7613  33.370  23.510  13.588
35354W        W 7614  25.661  12.972   5.115
35355W        W 7615  15.151  44.290  12.517
35356W        W 7616  23.253   9.369   4.546
35357W        W 7617  14.172  19.663   4.575
35358W        W 7618  34.593  27.550  11.703
35359W        W 7619  33.653  38.067  11.181
35360W        W 7620  24.548  34.984  12.038
35361W        W 7621  35.522  32.606   3.947
35362W        W 7622   8.998  24.753  12.899
35363W        W 7623  43.836  13.030   0.868
35364W        W 7624  27.990   1.814  10.767
35365W        W 7625  34.440  42.910  11.622
35366W        W 7626  27.225  28.503  12.389
35367W        W 7627  26.633   2.909   0.891
35368W        W 7628   1.854  10.373  14.225
35369W        W 7629   5.183  12.280  13.759
35370W        W 7630   6.732   7.939  10.614
35371W        W 7631  35.496  32.516  11.415
35372W        W 7632  32.135  21.145   1.049
35373W        W 7633  26.194  19.551  10.707
35374W        W 7634  43.950  31.668   0.411
35375W        W 7635   0.529  21.252  11.911
35376W        W 7636   9.886  21.671   0.370
35377W        W 7637  38.326  13.215   2.220
35378W        W 7638  28.159  15.095  12.436
35379W        W 7639   5.623  42.589   4.807
35380W        W 7640  37.243   2.286  14.328
35381W        W 7641  20.530   1.348   1.199
35382W        W 7642  13.274   7.035   4.909
35383W        W 7643   4.644   9.326  11.413
35384W        W 7644  22.772  35.308  12.062
35385W        W 7645  19.345  18.752   3.649
35386W        W 7646  32.719  12.920   4.945
35387W        W 7647   6.266  16.198  11.449
35388W        W 7648  19.219  24.654   2.120
35389W        W 7649  35.956   2.605  12.038
35390W        W 7650  24.679  32.166   3.295
35391W        W 7651  36.397  13.852   3.276
35392W        W 7652  29.696  16.579   0.723
35393W        W 7653  36.425   0.838  10.603
35394W        W 7654  38.681  29.146   2.229
35395W        W 7655  30.859  30.981   1.691
35396W        W 7656  18.250  33.423   4.095
35397W        W 7657  24.275  44.071   3.754
35398W        W 7658  27.081  24.542   3.786
35399W        W 7659  25.334  19.583   2.757
35400W        W 7660  24.434  37.343  13.855
35401W        W 7661  18.662  21.572   1.868
35402W        W 7662  43.714  43.767   4.268
35403W        W 7663  27.314  10.473  13.372
35404W        W 7664  28.141  24.147   0.893
35405W        W 7665   3.157  35.715  14.942
35406W        W 7666  43.759   1.979   4.121
35407W        W 7667   1.654  15.322   3.346
35408W        W 7668   4.695  39.188  11.562
35409W        W 7669  20.997  34.997  10.700
35410W        W 7670  21.492   9.433  13.897
35411W        W 7671  22.051  29.771  13.536
35412W        W 7672   0.296   4.369  12.962
35413W        W 7673  10.811  10.806   1.206
35414W        W 7674  18.418  29.707   1.909
35415W        W 7675  44.731  15.760  12.253
35416W        W 7676  27.881  28.380  10.570
35417W        W 7677  39.600  20.551   0.675
35418W        W 7678  16.649  11.107   3.743
35419W        W 7679  27.380  39.837   2.860
35420W        W 7680  17.073  41.182   2.468
35421W        W 7681  22.669  38.460  10.750
35422W        W 7682  32.522  36.708   0.813
35423W        W 7683  31.466  12.561   0.353
35424W        W 7684  29.018   4.000  11.614
35425W        W 7685  32.988  44.240  14.064
35426W        W 7686  39.444  38.981  12.609
35427W        W 7687  26.424  39.875  14.662
35428W        W 7688   1.891  40.062  14.810
35429W        W 7689  22.688  43.479  14.253
35430W        W 7690   5.292  19.724   3.106
35431W        W 7691   1.996   1.923   3.307
35432W        W 7692   8.051  19.262  13.318
35433W        W 7693  25.156  34.348   2.757
35434W        W 7694  19.994  44.562  13.061
35435W        W 7695   9.626   6.858   3.680
35436W        W 7696   1.818  13.073  11.636
35437W        W 7697  44.476  15.272  11.682
35438W        W 7698  27.285  34.008  13.113
35439W        W 7699  33.788  24.476  14.511
35440W        W 7700  29.401  35.062  13.870
35441W        W 7701  42.550  26.093  10.629
35442W        W 7702   3.061   2.512   0.872
35443W        W 7703  35.000  37.480   3.519
35444W        W 7704  11.749  10.952   1.989
35445W        W 7705   6.610  22.997  13.683
35446W        W 7706  19.804  10.053  13.393
35447W        W 7707   7.712   7.246   1.773
35448W        W 7708  42.080  42.751  13.372
35449W        W 7709  37.156  11.626   1.818
35450W        W 7710  25.209  15.209   2.318
35451W        W 7711   1.587   8.708   4.063
35452W        W 7712  29.701  18.433  10.594
35453W        W 7713  26.558  42.196  12.029
35454W        W 7714   6.049  19.387  12.932
35455W        W 7715  34.977  36.061   4.115
35456W        W 7716  21.219  25.025   2.213
35457W        W 7717  23.223  30.031   3.711
35458W        W 7718   7.613   7.070   1.300
35459W        W 7719  42.458  11.751  10.696
35460W        W 7720  25.111  29.485  11.162
35461W        W 7721  24.117  12.534  10.005
35462W        W 7722  41.831   0.487  11.250
35463W        W 7723  18.156  32.407  10.510
35464W        W 7724  14.543  40.374  11.161
35465W        W 7725  14.082  25.240  11.124
35466W        W 7726  39.398  31.957   0.622
35467W        W 7727  44.929  35.889  11.162
35468W        W 7728  19.427  44.363   2.433
35469W        W 7729  12.050  10.319  13.950
35470W        W 7730  20.716  41.545   3.901
35471W        W 7731  21.274  40.867  13.592
35472W        W 7732  17.162  34.458  14.401
35473W        W 7733  34.852  27.147   4.748
35474W        W 7734  43.386   3.918  11.986
35475W        W 7735  42.267  22.692   0.488
35476W        W 7736   2.278   7.209   3.161
35477W        W 7737  29.088  12.135   0.285
35478W        W 7738  14.264  39.805  14.153
35479W        W 7739  34.032  21.718  13.443
35480W        W 7740  43.964  25.983   1.456
35481W        W 7741   4.798  16.023  12.757
35482W        W 7742  35.449   5.795   4.109
35483W        W 7743   5.443  19.652  14.034
35484W        W 7744  26.001   1.874  12.036
35485W        W 7745   0.724  28.244  11.650
35486W        W 7746  42.834  18.820   2.272
35487W        W 7747  42.258  44.277   2.159
35488W        W 7748   4.779   8.934   1.174
35489W        W 7749   4.723   3.933   1.948
35490W        W 7750   5.908   3.411   4.961
35491W        W 7751  41.485  19.669   2.217
35492W        W 7752  30.046  19.739  14.718
35493W        W 7753   4.824  22.207   3.386
35494W        W 7754  34.525  25.036  11.083
35495W        W 7755  33.065   4.378  13.851
35496W        W 7756  33.040   3.454   4.264
35497W        W 7757  17.318  21.511   3.785
35498W        W 7758  30.733  31.117   5.069
35499W        W 7759   3.920  31.357  10.420
35500W        W 7760   5.886   7.685   4.546
35501W        W 7761   8.952   1.280   3.099
35502W        W 7762  27.088  14.585   4.080
35503W        W 7763  41.318  26.505  11.841
35504W        W 7764  43.264  10.187  14.997
35505W        W 7765  19.522  22.198  11.371
35506W        W 7766  21.250  41.570   0.469
35507W        W 7767  19.623  13.418   2.269
35508W        W 7768   1.057  20.794  14.740
35509W        W 7769  13.765  12.745   3.451
35510W        W 7770  43.546  22.177   4.128
35511W        W 7771  18.082  44.385   1.488
35512W        W 7772   3.468  11.274  12.970
35513W        W 7773  34.938  37.857  13.408
35514W        W 7774  34.126  26.059  12.131
35515W        W 7775  35.135  13.225  13.856
35516W        W 7776  39.315  41.138   2.132
35517W        W 7777  17.977  36.031   0.311
35518W        W 7778   3.202  37.456   5.059
35519W        W 7779  28.159  36.532   4.302
35520W        W 7780   0.763  19.662  10.652
35521W        W 7781  30.623  33.166  12.212
35522W        W 7782  14.285  12.213  14.943
35523W        W 7783  24.244  12.734   1.349
35524W        W 7784   1.491  37.484   2.312
35525W        W 7785   4.687   2.755  14.896
35526W        W 7786  26.401  22.016  11.942
35527W        W 7787  21.673  32.173   2.784
35528W        W 7788  27.421  23.841   4.334
35529W        W 7789  12.044  27.858   0.544
35530W        W 7790   5.351  27.411   1.199
35531W        W 7791  29.929  30.572   4.254
35532W        W 7792  39.911  36.324   4.775
35533W        W 7793  22.459  40.991  10.839
35534W        W 7794  39.071  13.049  13.994
35535W        W 7795  18.065   6.451   2.638
35536W        W 7796  21.637  32.174  11.924
35537W        W 7797  24.137  34.141   4.653
35538W        W 7798   2.684   4.812   3.080
35539W        W 7799  10.366   5.961   2.417
35540W        W 7800  18.272  44.846  11.229
35541W        W 7801  34.303  20.644   2.328
35542W        W 7802  35.389  22.164  11.688
35543W        W 7803  23.201  28.556   3.683
35544W        W 7804  17.028   9.600  13.888
35545W        W 7805  24.221  33.209   3.724
35546W        W 7806   7.899  16.589  11.199
35547W        W 7807  33.708  36.389  12.661
35548W        W 7808   2.460   0.448  11.958
35549W        W 7809  15.781  33.933   5.072
35550W        W 7810  23.076  32.020   1.022
35551W        W 7811  11.273  37.407  10.666
35552W        W 7812  41.083  10.642  11.468
35553W        W 7813   8.278  28.003  14.071
35554W        W 7814  18.989  32.271  11.578
35555W        W 7815  29.520  33.148   0.889
35556W        W 7816  12.642  30.351   2.044
35557W        W 7817   0.859  17.189   4.171
35558W        W 7818  14.844  29.980   1.962
35559W        W 7819  30.461  33.118  11.056
35560W        W 7820  35.634  21.766  12.886
35561W        W 7821  37.272  31.084   1.329
35562W        W 7822  44.373  39.521  12.667
35563W        W 7823  21.642  17.653   3.671
35564W        W 7824  17.761  36.844   4.623
35565W        W 7825  37.937  39.984   1.719
35566W        W 7826   0.743  42.779  12.032
35567W        W 7827  40.151  37.408  13.245
35568W        W 7828  13.534  44.309   3.714
35569W        W 7829   8.084   4.524  12.044
35570W        W 7830  32.037   6.394   4.178
35571W        W 7831  41.373  12.079  13.005
35572W        W 7832  42.409  23.511   3.648
35573W        W 7833   1.865  30.048   4.260
35574W        W 7834  16.306  30.529  11.545
35575W        W 7835  29.231  38.291   0.377
35576W        W 7836  29.929  23.009  11.726
35577W        W 7837  31.453  38.870  12.704
35578W        W 7838  12.412   0.627  12.838
35579W        W 7839   5.857  11.276  10.691
35580W        W 7840   3.725  33.549   2.000
35581W        W 7841  43.297   8.597  10.680
35582W        W 7842  33.815  41.018   3.344
35583W        W 7843  44.915  27.377   2.678
35584W        W 7844   2.946  14.550  14.819
35585W        W 7845  21.206  41.504   4.028
35586W        W 7846  19.207  11.106  12.008
35587W        W 7847  25.849  14.325   1.334
35588W        W 7848   7.881  24.782   2.625
35589W        W 7849  35.363  13.270   1.172
35590W        W 7850   9.241  11.829   0.494
35591W        W 7851  36.400  32.690   0.437
35592W        W 7852  30.112  20.433   1.713
35593W        W 7853  15.729  17.748   5.949
35594W        W 7854  16.337   7.214   0.895
35595W        W 7855  23.036  34.041  12.561
35596W        W 7856  19.721  25.740  12.074
35597W        W 7857   9.057  26.931   2.240
35598W        W 7858   5.076  37.849   4.639
35599W        W 7859   1.353  43.702  14.519
35600W        W 7860   5.163   9.544   2.817
35601W        W 7861   5.837  37.487  10.876
35602W        W 7862  39.460  40.731  10.529
35603W        W 7863  28.565  38.250  14.280
35604W        W 7864  11.306  36.133  11.553
35605W        W 7865  44.516  32.857   0.357
35606W        W 7866   4.886  17.696  10.976
35607W        W 7867  13.408  30.634  13.308
35608W        W 7868   8.386  35.592   2.820
35609W        W 7869  24.890  36.899  13.444
35610W        W 7870  16.487  32.947  11.527
35611W        W 7871  34.307  30.637   3.236
35612W        W 7872  21.724  28.649   0.164
35613W        W 7873   7.392  16.073   1.776
35614W        W 7874  24.518  11.384   4.065
35615W        W 7875  10.382  36.446  12.072
35616W        W 7876   4.273  12.207   1.425
35617W        W 7877  18.683  43.754   2.635
35618W        W 7878   8.453  24.255  12.082
35619W        W 7879   7.685  34.625   3.222
35620W        W 7880  36.570  13.971  13.167
35621W        W 7881  24.191  30.417  13.328
35622W        W 7882  30.003  11.656  11.576
35623W        W 7883   3.794  22.934   0.019
35624W        W 7884  15.377   1.363  11.102
35625W        W 7885  16.629  39.129  12.338
35626W        W 7886  13.730  32.286  10.299
35627W        W 7887  27.910  39.357  12.509
35628W        W 7888  30.062  40.447  13.559
35629W        W 7889  27.112  27.706  14.527
35630W        W 7890  14.128  26.716   4.612
35631W        W 7891  24.098  25.215   3.743
35632W        W 7892  30.028  33.327  13.380
35633W        W 7893  42.354  25.169   2.111
35634W        W 7894  16.903  38.605  12.375
35635W        W 7895  41.851  39.322  14.402
35636W        W 7896  37.319  39.862  13.172
35637W        W 7897  11.291  41.345   2.345
35638W        W 7898  32.830   9.873   1.174
35639W        W 7899  38.174  13.671  13.533
35640W        W 7900  43.740  17.840   4.361
35641W        W 7901  40.315  32.884   3.138
35642W        W 7902  42.302   7.795  12.550
35643W        W 7903   3.777  43.499   4.540
35644W        W 7904  23.977  24.163   3.736
35645W        W 7905  35.464  32.789   1.736
35646W        W 7906  41.536  18.791   3.867
35647W        W 7907  40.793  10.839   1.484
35648W        W 7908  27.029  16.854   0.857
35649W        W 7909   3.315  25.009   2.763
35650W        W 7910  35.656  11.893  13.893
35651W        W 7911  19.041  17.364  11.175
35652W        W 7912  34.843  23.807   3.247
35653W        W 7913  44.313  17.302   2.365
35654W        W 7914  28.619   3.695  10.577
35655W        W 7915  24.224  12.078  12.530
35656W        W 7916  44.841  38.390   4.480
35657W        W 7917  23.506  33.262  13.353
35658W        W 7918  23.158   1.835   4.534
35659W        W 7919   0.766  12.904  12.663
35660W        W 7920   3.578  44.760   4.229
35661W        W 7921  25.607  19.775  14.752
35662W        W 7922  16.752  26.447  13.507
35663W        W 7923  12.260  16.904   2.619
35664W        W 7924   0.774  15.067  11.451
35665W        W 7925  42.796  44.824   0.220
35666W        W 7926  34.980  25.424   2.680
35667W        W 7927   6.211   5.711   1.297
35668W        W 7928  28.153   1.206  11.562
35669W        W 7929  35.250  23.486   1.532
35670W        W 7930  14.862  13.667   0.630
35671W        W 7931  36.556  44.978   4.764
35672W        W 7932  40.261  42.787  12.443
35673W        W 7933   6.257  32.268  10.963
35674W        W 7934   1.670   7.899   3.078
35675W        W 7935   3.941  27.569  11.551
35676W        W 7936  40.974  17.677   2.740
35677W        W 7937   5.939  41.344  11.031
35678W        W 7938  38.983  19.216  12.621
35679W        W 7939  23.613  44.746   3.602
35680W        W 7940  30.514   2.213   4.290
35681W        W 7941  18.969  25.638   3.995
35682W        W 7942  41.361  10.692   3.342
35683W        W 7943   9.292  32.989  10.503
35684W        W 7944  35.007  39.477  12.384
35685W        W 7945  40.684  11.708  14.624
35686W        W 7946  35.016  25.612  12.152
35687W        W 7947  32.967   2.522  12.038
35688W        W 7948  20.838  12.741  10.676
35689W        W 7949  16.641  34.380  10.680
35690W        W 7950  24.599  17.498  12.593
35691W        W 7951  31.600   2.467   0.376
35692W        W 7952  19.515   7.871   4.105
35693W        W 7953  10.802   0.652   3.227
35694W        W 7954   1.707   1.166   3.759
35695W        W 7955  43.063  31.178  11.812
35696W        W 7956  44.906  14.860  10.876
35697W        W 7957  11.241  37.344   1.781
35698W        W 7958   7.915  28.095   9.967
35699W        W 7959   7.380  18.970   2.009
35700W        W 7960  17.527  34.162  12.596
35701W        W 7961  35.872  42.108   1.738
35702W        W 7962  14.808  28.335  10.262
35703W        W 7963  29.568  34.917   3.326
35704W        W 7964  28.432  11.301  11.037
35705W        W 7965  43.337   1.193  13.838
35706W        W 7966  11.315  18.333  13.993
35707W        W 7967  25.289  25.615   2.551
35708W        W 7968  37.777  26.654  12.419
35709W        W 7969  12.235  22.472   3.540
35710W        W 7970  33.885  40.606   4.157
35711W        W 7971   0.174  33.503  12.072
35712W        W 7972  15.105  42.283   2.551
35713W        W 7973  43.083  15.087   3.356
35714W        W 7974  38.891  21.249   3.656
35715W        W 7975  39.453  35.724  10.488
35716W        W 7976  32.071  28.222  11.970
35717W        W 7977  20.275  31.545   0.510
35718W        W 7978  10.432  41.035   4.158
35719W        W 7979  21.996  38.413  14.515
35720W        W 7980  31.168   6.391   3.222
35721W        W 7981  16.310   9.512  11.124
35722W        W 7982  37.312  15.675   3.339
35723W        W 7983  22.732  26.433   4.166
35724W        W 7984  42.416  31.396  10.697
35725W        W 7985   7.766  22.114  11.422
35726W        W 7986  14.735   7.961   3.538
35727W        W 7987   5.884  25.169   2.169
35728W        W 7988  33.495   3.816  10.689
35729W        W 7989  32.246  21.616   4.527
35730W        W 7990  36.874   7.684   3.567
35731W        W 7991   3.429  35.898   4.271
35732W        W 7992   6.135  13.298  14.834
35733W        W 7993  40.911  13.027   4.848
35734W        W 7994   5.992  32.400  11.922
35735W        W 7995   5.396  28.839  13.448
35736W        W 7996  22.674  12.327   4.453
35737W        W 7997  36.437  11.225  13.746
35738W        W 7998  23.306  37.548   4.184
35739W        W 7999  40.264  10.360  14.469
35740W        W 8000  20.334  13.076  14.141
35741W        W 8001  34.813  33.659   5.120
35742W        W 8002  40.591  12.878   1.454
35743W        W 8003  25.519  32.497  14.030
35744W        W 8004  16.669  37.910  12.822
35745W        W 8005  39.929  44.269  10.648
35746W        W 8006  38.598  18.820  12.782
35747W        W 8007   2.294   0.821  11.651
35748W        W 8008  32.713   3.953   2.162
35749W        W 8009  29.074   6.571  10.393
35750W        W 8010  34.936  37.436   4.034
35751W        W 8011  18.798  34.437   4.788
35752W        W 8012  40.490  27.899  14.897
35753W        W 8013   4.477   9.056   4.932
35754W        W 8014   3.003  38.948  10.511
35755W        W 8015  43.777   5.677  11.177
35756W        W 8016  35.643   1.790   1.398
35757W        W 8017  22.084  20.630   9.806
35758W        W 8018  16.352  24.593  11.011
35759W        W 8019   1.445  38.650   4.146
35760W        W 8020  28.384  38.918   2.800
35761W        W 8021  26.986  11.138  12.621
35762W        W 8022  40.049  37.487   5.048
35763W        W 8023  17.584  13.571   2.696
35764W        W 8024  26.614  24.042  14.437
35765W        W 8025  22.536  30.676  12.587
35766W        W 8026  41.350  20.160   4.443
35767W        W 8027   9.415  35.012   3.709
35768W        W 8028  34.025   7.241  14.144
35769W        W 8029  20.228  29.029   3.509
35770W        W 8030  26.139   1.929  14.024
35771W        W 8031  15.572  14.282  10.646
35772W        W 8032  24.025  18.174   1.937
35773W        W 8033  25.364  25.010  11.470
35774W        W 8034  10.857  44.698  11.905
35775W        W 8035   4.421   3.039  12.071
35776W        W 8036  44.956  37.990   3.667
35777W        W 8037   4.783   5.126  12.979
35778W        W 8038  20.544  34.526  14.564
35779W        W 8039  21.377  12.425   1.176
35780W        W 8040  23.055   0.373   4.155
35781W        W 8041  32.547  11.481   0.862
35782W        W 8042   4.468  33.844  11.172
35783W        W 8043   9.002   5.854  11.439
35784W        W 8044  27.092  28.329  13.798
35785W        W 8045  24.294  19.249   4.792
35786W        W 8046  34.508  27.616  13.059
35787W        W 8047  21.902   6.901  14.759
35788W        W 8048  44.591  27.957   3.725
35789W        W 8049   3.238  19.295  11.428
35790W        W 8050  15.102   1.529   4.183
35791W        W 8051  12.825  24.494   1.892
35792W        W 8052  25.299  43.555  14.416
35793W        W 8053  36.872  17.588   1.364
35794W        W 8054  38.633  41.517   3.158
35795W        W 8055  41.998  31.500   3.695
35796W        W 8056  37.364  19.263  13.158
35797W        W 8057  26.946  39.615  11.599
35798W        W 8058   6.097  27.053  13.441
35799W        W 8059  34.791  12.211   3.723
35800W        W 8060   8.590  12.821   1.138
35801W        W 8061   8.757  17.349  14.304
35802W        W 8062  25.993  10.186  14.468
35803W        W 8063   5.988  43.754  14.029
35804W        W 8064   3.374   2.858  11.285
35805W        W 8065   8.448   9.459   1.862
35806W        W 8066  43.522  11.564  11.418
35807W        W 8067  12.293  26.896   0.391
35808W        W 8068  17.317   8.762   4.670
35809W        W 8069  22.206   8.365  10.461
35810W        W 8070  16.649   5.311  10.329
35811W        W 8071   1.492  36.830  12.257
35812W        W 8072   6.906  15.071  13.534
35813W        W 8073  25.860   7.616   2.687
35814W        W 8074  39.922  14.147  12.596
35815W        W 8075  12.421  11.461   1.243
35816W        W 8076   6.571   2.041  12.123
35817W        W 8077  29.364  29.052  12.762
35818W        W 8078  28.402  15.824  11.961
35819W        W 8079  29.408  12.267   0.670
35820W        W 8080  23.553   8.674   0.447
35821W        W 8081  40.075  23.107  11.148
35822W        W 8082  43.678  29.411  12.020
35823W        W 8083  40.200  10.493   1.944
35824W        W 8084  10.281   2.333   2.198
35825W        W 8085  44.360  32.964  10.246
35826W        W 8086   4.343   5.329   2.411
35827W        W 8087  39.840  11.535   1.063
35828W        W 8088   2.891  15.881  13.105
35829W        W 8089  18.824   6.348  14.915
35830W        W 8090  22.805  25.568  11.879
35831W        W 8091  10.838  30.495   2.174
35832W        W 8092  17.880  23.929  11.538
35833W        W 8093  38.957  42.279  12.812
35834W        W 8094  41.296  22.718   0.511
35835W        W 8095  29.933   0.633   2.829
35836W        W 8096  31.503  16.679   0.745
35837W        W 8097  29.075  33.506   0.300
35838W        W 8098  40.949  14.586   4.494
35839W        W 8099  15.647   3.817  13.878
35840W        W 8100  12.676   3.444  14.360
35841W        W 8101  23.498  44.370   2.090
35842W        W 8102   4.636  34.321  11.092
35843W        W 8103  23.048  30.627  13.878
35844W        W 8104  27.418   4.830  14.419
35845W        W 8105  30.773   6.526  12.487
35846W        W 8106  17.770  44.952  11.222
35847W        W 8107  25.291  27.110   1.756
35848W        W 8108   6.012   1.882  14.519
35849W        W 8109  41.502  15.369   4.969
35850W        W 8110  10.323  37.016   0.744
35851W        W 8111  32.482  28.906   2.701
35852W        W 8112  24.008  31.825   2.782
35853W        W 8113  44.415  42.489  14.086
35854W        W 8114   1.589   4.391   4.035
35855W        W 8115  18.061   1.542   1.955
35856W        W 8116  36.894   9.281  12.367
35857W        W 8117  37.437  35.084   1.880
35858W        W 8118  27.575  43.917  12.012
35859W        W 8119  37.565  14.974  13.391
35860W        W 8120  14.621  21.906  12.466
35861W        W 8121  16.830  15.286   5.678
35862W        W 8122  33.032   3.236   1.446
35863W        W 8123   6.404  41.736   3.348
35864W        W 8124  31.110  29.439   2.217
35865W        W 8125   3.844  24.576  10.716
35866W        W 8126  16.729  36.853  10.807
35867W        W 8127  17.426  43.041   2.622
35868W        W 8128  33.632  44.467   1.855
35869W        W 8129  34.458  13.141  11.184
35870W        W 8130  22.842  35.689  13.901
35871W        W 8131  22.175  11.917   2.784
35872W        W 8132  22.421  41.311  13.984
35873W        W 8133   9.280  12.148   3.680
35874W        W 8134   4.337  30.365   4.045
35875W        W 8135   4.968  24.429  12.951
35876W        W 8136   3.768  39.800   3.683
35877W        W 8137   7.289  31.775   4.557
35878W        W 8138  43.917   6.291   1.958
35879W        W 8139   9.176  11.255   1.698
35880W        W 8140  28.677  34.397  12.561
35881W        W 8141  13.536   4.515   3.170
35882W        W 8142  13.364  15.566   3.863
35883W        W 8143  20.409  27.449  13.394
35884W        W 8144   1.763  36.885  14.402
35885W        W 8145   5.258  31.629  13.954
35886W        W 8146  14.296   6.228  12.915
35887W        W 8147  28.096  28.853   3.297
35888W        W 8148  36.973  38.780   1.625
35889W        W 8149   9.688   8.159  12.574
35890W        W 8150  31.401   8.181  14.477
35891W        W 8151  20.088   8.876  11.506
35892W        W 8152  23.163   3.789  12.119
35893W        W 8153  11.782   2.440   1.022
35894W        W 8154  24.453  16.548   0.761
35895W        W 8155  10.903  15.968   1.854
35896W        W 8156  17.548  20.981   4.094
35897W        W 8157   1.215  29.427  14.871
35898W        W 8158  24.065   8.908  13.097
35899W        W 8159  26.061  13.659   3.210
35900W        W 8160  28.410   7.871  11.003
35901W        W 8161  14.298  31.455  11.364
35902W        W 8162  39.434  24.744   4.734
35903W        W 8163  40.284  36.063   3.717
35904W        W 8164   8.229  24.985   1.777
35905W        W 8165  27.226   9.451  11.031
35906W        W 8166  34.491  15.287   1.756
35907W        W 8167   7.398  14.569  14.344
35908W        W 8168  33.011  23.664   3.925
35909W        W 8169  39.451  26.484   3.391
35910W        W 8170  31.329   4.458  10.961
35911W        W 8171  10.804  32.489   2.000
35912W        W 8172  42.737  10.250  12.180
35913W        W 8173  44.518  35.319  14.201
35914W        W 8174   7.375  18.176   1.224
35915W        W 8175  17.509  32.726   3.559
35916W        W 8176  32.695  21.445  13.041
35917W        W 8177  30.934  35.437   3.711
35918W        W 8178  33.622  15.093   0.897
35919W        W 8179  14.347  24.390   5.093
35920W        W 8180  44.015   7.884  12.922
35921W        W 8181  12.810  15.360  12.509
35922W        W 8182  44.857  19.911   2.787
35923W        W 8183  17.297  41.256   1.632
35924W        W 8184  43.327  24.513  12.120
35925W        W 8185   3.335  19.343  12.008
35926W        W 8186  34.710  21.719   5.472
35927W        W 8187   4.824  11.235   4.295
35928W        W 8188  35.518   0.361   2.674
35929W        W 8189  29.727   1.375   1.475
35930W        W 8190  25.391  16.066  12.504
35931W        W 8191   7.819  38.177  10.548
35932W        W 8192  25.114  26.525   0.116
35933W        W 8193  43.031  42.967  11.254
35934W        W 8194  28.473  35.951  13.522
35935W        W 8195  43.425  15.583   2.185
35936W        W 8196   3.555  24.921   1.738
35937W        W 8197  17.877  19.470   3.135
35938W        W 8198  12.478  10.952  10.971
35939W        W 8199  36.062   4.492   0.383
35940W        W 8200  42.597  35.943  13.049
35941W        W 8201  26.433  22.777   3.742
35942W        W 8202  37.354  31.408  11.248
35943W        W 8203  27.688  32.573   2.684
35944W        W 8204   0.939  25.055   5.200
35945W        W 8205  33.974   8.269  14.501
35946W        W 8206  36.535  41.376  11.721
35947W        W 8207  27.734  14.416   2.740
35948W        W 8208  28.572  39.985   3.553
35949W        W 8209  32.984  28.574   3.460
35950W        W 8210  38.132  34.332  10.633
35951W        W 8211  19.439  36.981  10.555
35952W        W 8212  32.240  13.404   3.729
35953W        W 8213   5.646  14.695   3.157
35954W        W 8214  30.621  22.498  11.165
35955W        W 8215  17.534   3.429   9.871
35956W        W 8216   2.278  38.446  10.676
35957W        W 8217   3.145  16.623  10.685
35958W        W 8218  36.960   0.920   3.621
35959W        W 8219  32.267  10.892  13.535
35960W        W 8220   9.509   2.257  14.817
35961W        W 8221  35.289  26.030  13.978
35962W        W 8222  35.097  40.874   0.039
35963W        W 8223  35.835   6.932   1.750
35964W        W 8224  37.863  22.814   4.805
35965W        W 8225  12.209  41.834  11.532
35966W        W 8226  28.071   9.877   4.280
35967W        W 8227  15.928  18.708  14.314
35968W        W 8228  18.891  10.159   2.195
35969W        W 8229  19.330  28.376   1.244
35970W        W 8230  26.466  19.286   1.732
35971W        W 8231   2.929  18.754  12.546
35972W        W 8232   4.478  23.092  13.353
35973W        W 8233  38.973  15.866   2.652
35974W        W 8234  24.156   4.520   1.782
35975W        W 8235  41.439   3.899  13.655
35976W        W 8236  20.208   0.074   4.785
35977W        W 8237  44.996   2.546  14.001
35978W        W 8238  35.985  31.207   0.339
35979W        W 8239  21.726   8.986  14.888
35980W        W 8240  39.493  13.669   2.186
35981W        W 8241   3.382   5.881  12.939
35982W        W 8242  27.454  11.884   1.129
35983W        W 8243   0.077  31.863  14.924
35984W        W 8244  34.650  24.934   4.996
35985W        W 8245  35.998  16.483  10.793
35986W        W 8246  22.396  42.795   4.742
35987W        W 8247   0.794  27.850  14.365
35988W        W 8248   5.479  36.021  13.465
35989W        W 8249  41.536  17.551   4.590
35990W        W 8250   9.937   3.328  10.521
35991W        W 8251  36.098   5.809  13.649
35992W        W 8252  40.322  30.244  10.402
35993W        W 8253  30.993   2.316   3.208
35994W        W 8254  36.280  27.150  14.292
35995W        W 8255  39.417  43.933  11.675
35996W        W 8256  14.035  25.888   1.890
35997W        W 8257   0.804  12.615   0.311
35998W        W 8258  35.688  36.947   3.362
35999W        W 8259  34.166   9.766  11.627
36000W        W 8260  35.719   8.062   2.725
36001W        W 8261  31.486  31.577   1.411
36002W        W 8262  14.556  20.784   4.123
36003W        W 8263  39.824   0.839  13.030
36004W        W 8264  21.478  14.630   5.065
36005W        W 8265  21.662  18.840  10.271
36006W        W 8266   5.198  27.610  13.664
36007W        W 8267  42.512  38.349  12.334
36008W        W 8268  36.377  33.611  11.932
36009W        W 8269   9.864   9.315   1.684
36010W        W 8270  27.910  26.449   1.762
36011W        W 8271  40.976  34.584  11.036
36012W        W 8272  38.018  40.017  10.663
36013W        W 8273  23.272  12.808  12.111
36014W        W 8274  15.817   4.086  14.407
36015W        W 8275  43.863  38.791   4.635
36016W        W 8276   8.337  24.105   0.373
36017W        W 8277   9.908  13.750   4.518
36018W        W 8278  40.344   9.899   3.322
36019W        W 8279   8.774  32.854  13.630
36020W        W 8280  41.382  41.647  12.019
36021W        W 8281  28.721  12.148  12.880
36022W        W 8282  11.249   1.877   0.884
36023W        W 8283  29.948  35.570   3.313
36024W        W 8284   3.351  36.640   3.128
36025W        W 8285  16.235  11.118   2.435
36026W        W 8286  10.344   7.673   4.503
36027W        W 8287  13.782  24.782   0.948
36028W        W 8288  22.183   4.547  12.248
36029W        W 8289  17.849  16.869  11.154
36030W        W 8290  21.323  19.116   3.225
36031W        W 8291  39.494   3.190  13.853
36032W        W 8292  44.451   7.210  14.426
36033W        W 8293  30.695  34.536   4.120
36034W        W 8294  28.491  39.943   4.132
36035W        W 8295   5.944  22.482   4.735
36036W        W 8296  39.687   7.997  11.033
36037W        W 8297   0.053  16.193   3.812
36038W        W 8298  43.253  12.846   0.297
36039W        W 8299  13.099   6.546   3.873
36040W        W 8300  29.080   5.655   2.463
36041W        W 8301   1.672  28.173  12.068
36042W        W 8302  28.706   1.460   1.448
36043W        W 8303   2.122  12.160   3.142
36044W        W 8304  35.647  40.608   0.309
36045W        W 8305  38.713  16.306   4.909
36046W        W 8306  16.042  23.742   1.793
36047W        W 8307   9.557  12.679   0.587
36048W        W 8308  28.916  19.998  14.985
36049W        W 8309   2.178   8.835   4.945
36050W        W 8310  27.956  27.529  12.082
36051W        W 8311  36.913  13.772  12.848
36052W        W 8312  32.495  11.438   9.570
36053W        W 8313   3.142  34.989   3.685
36054W        W 8314  19.374   9.802   0.711
36055W        W 8315  41.320  42.003  11.619
36056W        W 8316  38.301  15.099  12.143
36057W        W 8317   3.358  11.574  12.179
36058W        W 8318   1.303  14.646   0.503
36059W        W 8319  18.281  26.876  12.507
36060W        W 8320  31.562  12.624  12.878
36061W        W 8321   8.356  17.433  11.363
36062W        W 8322   9.840  19.537   0.680
36063W        W 8323  30.391  35.563   3.062
36064W        W 8324  41.330  44.777  12.531
36065W        W 8325  21.216  42.455   0.306
36066W        W 8326  13.350  20.553   1.136
36067W        W 8327  21.209  28.659  12.916
36068W        W 8328  16.184  13.614   3.307
36069W        W 8329  31.551  20.242  13.826
36070W        W 8330  29.041  16.624   3.653
36071W        W 8331  11.226  20.617   2.722
36072W        W 8332   7.682  38.313   3.170
36073W        W 8333   9.764  34.664   1.777
36074W        W 8334   1.324  38.637  12.039
36075W        W 8335  26.471   7.856   2.270
36076W        W 8336  14.154  17.262  12.810
36077W        W 8337   2.398  12.950   2.783
36078W        W 8338  43.069   8.444   0.826
36079W        W 8339  10.174  29.011  14.822
36080W        W 8340  15.665  43.465   0.373
36081W        W 8341   2.418  33.862   1.885
36082W        W 8342  43.221  18.318  11.174
36083W        W 8343   6.409   5.355   4.385
36084W        W 8344   9.208  21.001   9.832
36085W        W 8345  23.730  36.516  10.641
36086W        W 8346  18.147  43.899   1.715
36087W        W 8347  14.831   4.679  10.567
36088W        W 8348  42.023   4.824   1.201
36089W        W 8349   1.264  17.671   2.295
36090W        W 8350  30.718   9.815  10.752
36091W        W 8351   5.349  34.618  12.187
36092W        W 8352  15.620  34.951   3.930
36093W        W 8353  11.727  21.589  12.367
36094W        W 8354  34.080  35.813   0.866
36095W        W 8355  20.203  30.563  13.940
36096W        W 8356  34.603  34.466   3.167
36097W        W 8357  24.203  10.778   1.034
36098W        W 8358  17.104  29.094  12.402
36099W        W 8359  35.966  16.806   1.480
36100W        W 8360   4.495   7.671  12.459
36101W        W 8361  22.565   0.238  12.479
36102W        W 8362  27.592  38.822   1.682
36103W        W 8363  22.643  29.009   4.122
36104W        W 8364  30.279   3.591  10.605
36105W        W 8365  22.642   4.796  12.292
36106W        W 8366   8.555  22.219  12.904
36107W        W 8367   1.968  35.421  13.463
36108W        W 8368  32.566   1.940   3.742
36109W        W 8369  24.397  13.158   3.057
36110W        W 8370  15.723  23.849   2.588
36111W        W 8371   4.232  39.217  13.977
36112W        W 8372  40.353  11.211  12.048
36113W        W 8373   0.959  17.669  14.793
36114W        W 8374  42.276  25.057  11.474
36115W        W 8375  31.034  36.454   1.919
36116W        W 8376  32.900  18.726  10.617
36117W        W 8377   5.559   0.330   3.162
36118W        W 8378  19.187   6.744  13.035
36119W        W 8379   7.333  30.565  11.164
36120W        W 8380  24.375   1.201  14.530
36121W        W 8381  42.657   6.311   4.212
36122W        W 8382  16.879  34.711   5.092
36123W        W 8383   0.047   6.551   2.611
36124W        W 8384   5.704  23.037  10.969
36125W        W 8385  31.826   2.367   4.678
36126W        W 8386  44.868  31.526   2.166
36127W        W 8387  11.383  40.416  12.042
36128W        W 8388  20.194   2.394  12.356
36129W        W 8389   1.928   7.928  11.758
36130W        W 8390   0.286  29.580  14.500
36131W        W 8391  16.823  18.596  11.190
36132W        W 8392  36.597   6.795   2.164
36133W        W 8393  33.060   1.009   2.253
36134W        W 8394   5.715   3.073   4.561
36135W        W 8395  35.576  23.404  13.663
36136W        W 8396  40.049  20.209  14.943
36137W        W 8397  37.006   4.537   4.815
36138W        W 8398  36.521  38.790  14.890
36139W        W 8399  12.702  21.027   3.347
36140W        W 8400  25.681  31.291   4.575
36141W        W 8401  34.438   7.179  12.222
36142W        W 8402  28.266  14.499   3.365
36143W        W 8403  14.834   7.160   3.420
36144W        W 8404   1.527  43.313  12.501
36145W        W 8405  23.104  41.529   0.691
36146W        W 8406  12.393  21.305  13.369
36147W        W 8407  42.323   5.191  14.797
36148W        W 8408  40.524  37.842  13.963
36149W        W 8409  14.363  14.682   5.014
36150W        W 8410  29.167  22.064   4.176
36151W        W 8411  31.126  16.655   1.345
36152W        W 8412  24.909  42.168  12.594
36153W        W 8413   1.265  26.952   1.787
36154W        W 8414  18.147  43.807   2.801
36155W        W 8415   5.996  33.164   0.382
36156W        W 8416   6.460  44.761  12.661
36157W        W 8417  13.118   1.781  12.361
36158W        W 8418   0.879  33.501   1.487
36159W        W 8419  40.471   3.953   4.093
36160W        W 8420  28.957   2.777   1.359
36161W        W 8421   0.166   2.981  14.238
36162W        W 8422  19.754   9.462  14.555
36163W        W 8423   4.810   7.692   3.837
36164W        W 8424  21.706  27.262  13.580
36165W        W 8425  13.315  11.655  14.786
36166W        W 8426  10.298  38.998   3.239
36167W        W 8427  15.011  41.958   0.247
36168W        W 8428   5.300  34.088  13.924
36169W        W 8429  43.536  32.042  12.081
36170W        W 8430  12.312   8.719  11.497
36171W        W 8431  21.181  18.336   2.772
36172W        W 8432  34.962  40.427   1.898
36173W        W 8433  23.765  20.460  12.926
36174W        W 8434   0.506  33.515  13.997
36175W        W 8435   9.149  28.564   3.711
36176W        W 8436  25.939  41.414  12.045
36177W        W 8437  28.297  27.999   3.211
36178W        W 8438  28.941  10.817  14.009
36179W        W 8439  17.103   3.310   3.134
36180W        W 8440  35.985  37.145  14.546
36181W        W 8441   3.436  14.267   1.395
36182W        W 8442  13.682  22.923   1.143
36183W        W 8443  11.901   6.452  12.056
36184W        W 8444  38.749  10.412   4.094
36185W        W 8445  11.626   8.460  10.408
36186W        W 8446  39.495  31.495   1.406
36187W        W 8447  18.268  11.013  11.014
36188W        W 8448  13.822   0.310   1.880
36189W        W 8449  26.507  30.329  13.309
36190W        W 8450  38.574   5.664  11.028
36191W        W 8451   8.099  34.920   3.253
36192W        W 8452  44.836  32.074  14.057
36193W        W 8453   9.760   7.265  10.585
36194W        W 8454  41.628  13.848   3.686
36195W        W 8455  34.215  25.298   3.347
36196W        W 8456   1.353  26.358   2.959
36197W        W 8457   2.396  32.907  12.936
36198W        W 8458  35.651   0.986  13.077
36199W        W 8459   1.301  34.883   2.432
36200W        W 8460  15.159  34.561   0.468
36201W        W 8461   0.556  10.720   1.437
36202W        W 8462  13.221  30.206   5.443
36203W        W 8463   4.705   8.652   3.649
36204W        W 8464  35.947  36.621  10.455
36205W        W 8465  12.680   9.890   3.097
36206W        W 8466  17.693   7.002   4.319
36207W        W 8467  13.286  34.436  13.223
36208W        W 8468  13.516  22.952  13.298
36209W        W 8469  34.543   3.115   1.801
36210W        W 8470   5.292  26.904   1.209
36211W        W 8471   0.994   5.533   4.864
36212W        W 8472  38.467  38.604   3.811
36213W        W 8473   4.613   6.820   2.375
36214W        W 8474   8.246  22.794  13.412
36215W        W 8475  25.944  20.639  14.201
36216W        W 8476  32.991  23.124  14.463
36217W        W 8477  36.496  26.036  10.810
36218W        W 8478  29.445  30.506  11.532
36219W        W 8479  26.092  35.352   3.675
36220W        W 8480  23.613   7.229  13.875
36221W        W 8481  16.695  26.736  11.921
36222W        W 8482  37.927   8.201  14.488
36223W        W 8483  15.248   5.225  11.660
36224W        W 8484  36.944  19.415   0.667
36225W        W 8485  41.756   4.432  14.281
36226W        W 8486   6.742  35.872   1.201
36227W        W 8487  35.916  41.426   0.287
36228W        W 8488  16.290  29.858   2.276
36229W        W 8489  30.458  42.362  12.497
36230W        W 8490  43.461  23.613   1.679
36231W        W 8491  22.739  25.614  14.951
36232W        W 8492  33.985  35.628  14.602
36233W        W 8493  11.090  24.448   2.814
36234W        W 8494  23.894  18.148   3.242
36235W        W 8495  13.976  38.323   2.153
36236W        W 8496   0.223  37.854   2.740
36237W        W 8497  14.334  20.146  12.947
36238W        W 8498  39.020   2.780   2.411
36239W        W 8499  20.676  28.686   3.415
36240W        W 8500  38.333  43.708  14.270
36241W        W 8501  13.754   3.920   4.869
36242W        W 8502  25.430   1.465   0.022
36243W        W 8503  18.309  20.084  14.343
36244W        W 8504  14.846   6.587  12.661
36245W        W 8505  34.690  34.042   4.092
36246W        W 8506  13.368  18.489  11.127
36247W        W 8507  11.017  44.519  14.074
36248W        W 8508  24.070  26.556  14.335
36249W        W 8509   0.256  43.082  14.430
36250W        W 8510  40.705  33.871  13.926
36251W        W 8511  16.060  18.116   0.951
36252W        W 8512  15.616  37.940  14.464
36253W        W 8513  41.339  33.143   1.763
36254W        W 8514  13.142  26.180   2.725
36255W        W 8515  22.176  29.201   2.351
36256W        W 8516   5.311  44.902   3.328
36257W        W 8517   0.570  10.640  11.509
36258W        W 8518  43.271  34.498  11.378
36259W        W 8519  40.909  18.080  14.864
36260W        W 8520   8.758   1.965   0.938
36261W        W 8521  31.331  14.618   3.871
36262W        W 8522  11.912  10.558   2.905
36263W        W 8523   6.364   5.380   0.319
36264W        W 8524  43.535   3.053  14.699
36265W        W 8525  31.379  40.405   2.238
36266W        W 8526  24.790   4.713  14.002
36267W        W 8527  36.044   3.469   4.377
36268W        W 8528  10.450   6.969   5.139
36269W        W 8529  15.225  10.624  14.977
36270W        W 8530  28.541  37.797  10.569
36271W        W 8531  32.382   9.201   2.777
36272W        W 8532  18.975  34.322  11.566
36273W        W 8533   1.466   5.909   2.174
36274W        W 8534  15.993  25.398   2.610
36275W        W 8535   7.597  21.708   1.453
36276W        W 8536  15.670  29.520   1.584
36277W        W 8537  34.843  34.629   4.241
36278W        W 8538  34.691  34.912  12.418
36279W        W 8539  20.000  33.362   1.735
36280W        W 8540  24.525  22.208   0.781
36281W        W 8541  20.269  10.833  13.105
36282W        W 8542  24.051  21.455   1.606
36283W        W 8543  12.562  14.597   2.779
36284W        W 8544   6.836  10.631   2.957
36285W        W 8545  29.484  32.637   0.824
36286W        W 8546  35.787  37.009   2.423
36287W        W 8547   9.308  20.598  13.103
36288W        W 8548  25.277  39.557  12.095
36289W        W 8549  38.087  24.007   3.762
36290W        W 8550  21.303  32.446   4.187
36291W        W 8551  32.014  25.783  10.701
36292W        W 8552  16.871   2.785   0.768
36293W        W 8553  18.612   8.763   1.722
36294W        W 8554  30.645  20.261   3.247
36295W        W 8555  18.773   2.388  13.951
36296W        W 8556  32.982   9.394  12.633
36297W        W 8557   2.426  27.819  12.142
36298W        W 8558  13.447  13.560   4.659
36299W        W 8559  31.522  31.014   2.822
36300W        W 8560  15.080  17.743   1.805
36301W        W 8561   1.849  13.348   0.189
36302W        W 8562  42.826  14.836   3.815
36303W        W 8563  23.938  40.074   1.295
36304W        W 8564  13.275  33.078   0.773
36305W        W 8565  33.983  26.503  14.448
36306W        W 8566  19.970  37.333  11.143
36307W        W 8567  15.526  38.504   4.967
36308W        W 8568   5.371  12.634   2.781
36309W        W 8569  36.873  16.578   3.191
36310W        W 8570  29.059  13.346  10.774
36311W        W 8571  14.728  34.571   4.192
36312W        W 8572  44.358  17.692  14.292
36313W        W 8573  17.367   6.151   3.348
36314W        W 8574  19.440  30.128   2.376
36315W        W 8575  30.940  14.155  14.442
36316W        W 8576  18.089   1.499  10.663
36317W        W 8577   4.363  31.978   1.923
36318W        W 8578  25.634  14.760  14.081
36319W        W 8579  15.127  29.853  10.599
36320W        W 8580  23.185  34.491   4.552
36321W        W 8581  44.884  38.929  13.531
36322W        W 8582  12.199   8.762  14.294
36323W        W 8583  16.513   2.989  10.993
36324W        W 8584  44.797  20.523   0.261
36325W        W 8585  31.803  18.135   4.618
36326W        W 8586  17.140  14.630   0.574
36327W        W 8587   8.308  23.635  13.677
36328W        W 8588  33.993  26.590  13.050
36329W        W 8589   9.653  30.013   2.263
36330W        W 8590   9.824   5.898  12.958
36331W        W 8591   2.251  18.780   3.851
36332W        W 8592  13.070  13.499  11.489
36333W        W 8593   3.445  33.006   3.075
36334W        W 8594  18.666  10.115  14.827
36335W        W 8595   7.428  23.003   2.163
36336W        W 8596  26.170  35.497   4.584
36337W        W 8597  11.146  25.210  12.895
36338W        W 8598  42.408  34.402   3.788
36339W        W 8599  29.409   5.768   1.457
36340W        W 8600  22.748  11.254  14.004
36341W        W 8601   5.489  25.080  11.056
36342W        W 8602  37.622  42.004  11.617
36343W        W 8603  36.870  37.077  11.345
36344W        W 8604  25.771  19.963   4.298
36345W        W 8605   9.207  42.923  14.029
36346W        W 8606  41.416   3.438   3.207
36347W        W 8607  41.662  25.075  10.689
36348W        W 8608  38.169  19.207  14.417
36349W        W 8609   9.390  24.478   0.834
36350W        W 8610  37.583  17.272  14.269
36351W        W 8611  35.478  28.288   0.443
36352W        W 8612   9.679  23.985   3.261
36353W        W 8613   9.289   6.579   3.383
36354W        W 8614  26.470   7.222  14.263
36355W        W 8615  13.673  42.792  11.941
36356W        W 8616  38.609   0.784   0.406
36357W        W 8617   7.236  15.027   0.532
36358W        W 8618   8.834   0.374   3.856
36359W        W 8619  42.471  35.171   0.790
36360W        W 8620   7.949  32.631  11.556
36361W        W 8621   0.169  31.340  14.966
36362W        W 8622   1.658  19.873  11.964
36363W        W 8623  38.346  25.158   0.960
36364W        W 8624  20.255  34.928   2.943
36365W        W 8625  20.682  38.089  13.285
36366W        W 8626  42.977  19.764   0.478
36367W        W 8627  28.403  30.036  10.228
36368W        W 8628  38.866  40.309   4.964
36369W        W 8629  26.841   8.344   4.822
36370W        W 8630  11.415  43.469  12.136
36371W        W 8631  36.474  10.237   3.668
36372W        W 8632  12.364   5.340  11.067
36373W        W 8633  27.064  28.165  10.087
36374W        W 8634  34.368  26.622  10.124
36375W        W 8635  39.486   2.166  11.678
36376W        W 8636  29.383   0.445  13.092
36377W        W 8637  40.926  39.409   1.548
36378W        W 8638  16.166  22.165   1.516
36379W        W 8639  44.046   1.946  12.041
36380W        W 8640  15.606   7.113   1.975
36381W        W 8641  43.252  27.680  12.109
36382W        W 8642  30.531  15.833  12.197
36383W        W 8643  35.217  27.816   4.771
36384W        W 8644  14.309   7.118  12.363
36385W        W 8645  43.626  19.218   4.154
36386W        W 8646   6.838  31.294  13.323
36387W        W 8647  27.590  38.404  10.781
36388W        W 8648  26.870   1.260   3.208
36389W        W 8649  33.410  13.678   0.010
36390W        W 8650  36.171   4.335  12.106
36391W        W 8651  18.831  25.667   4.500
36392W        W 8652  13.265  20.618   4.793
36393W        W 8653  43.072  15.728  13.544
36394W        W 8654  26.511  17.565   2.319
36395W        W 8655   6.521  23.719  13.962
36396W        W 8656  35.995  34.930   2.357
36397W        W 8657  39.297  10.678   3.240
36398W        W 8658  38.330   6.747  12.645
36399W        W 8659  29.702   2.673   0.836
36400W        W 8660  33.666   4.564   0.081
36401W        W 8661  34.103  36.146  12.440
36402W        W 8662  28.895  43.369   4.842
36403W        W 8663  24.464   2.034   5.004
36404W        W 8664  41.622  16.039  11.149
36405W        W 8665  31.158  29.438   4.597
36406W        W 8666  25.202   6.882  13.106
36407W        W 8667  41.188  11.162   3.206
36408W        W 8668   1.713   3.432  13.448
36409W        W 8669  22.557  24.010  10.899
36410W        W 8670  18.690  15.041   2.592
36411W        W 8671  41.510  36.043  12.489
36412W        W 8672  13.205  33.263  12.953
36413W        W 8673  25.278  33.991  12.408
36414W        W 8674  44.491  21.592  13.838
36415W        W 8675   7.269  31.555   4.093
36416W        W 8676  31.738  14.304   9.969
36417W        W 8677  39.063  20.465  13.399
36418W        W 8678  43.800  43.040  12.058
36419W        W 8679  14.859  34.988   0.480
36420W        W 8680  25.230  20.046  13.148
36421W        W 8681  11.905  29.402   2.301
36422W        W 8682  28.607  38.428  12.916
36423W        W 8683   2.248  31.928  13.959
36424W        W 8684   0.256  27.462   4.130
36425W        W 8685   2.679  24.100  14.609
36426W        W 8686  25.585  43.427  11.445
36427W        W 8687   3.820  13.612   2.548
36428W        W 8688  41.869  33.749   0.383
36429W        W 8689  23.074  42.400  12.082
36430W        W 8690  42.450  28.709   1.671
36431W        W 8691   5.228  28.929  14.895
36432W        W 8692  35.522  12.725   4.336
36433W        W 8693  17.911  22.924  14.520
36434W        W 8694  29.220  37.053   3.148
36435W        W 8695   3.950  30.213  14.836
36436W        W 8696   2.519  33.544   2.875
36437W        W 8697  39.511  12.321  11.144
36438W        W 8698  20.022  36.850  12.653
36439W        W 8699   3.481  34.081  13.410
36440W        W 8700  20.562   6.890  12.270
36441W        W 8701  33.247  26.000  12.219
36442W        W 8702   9.920  39.388  11.270
36443W        W 8703   1.567   8.629   2.700
36444W        W 8704  12.069  39.520   0.999
36445W        W 8705  25.509  13.625   4.201
36446W        W 8706   3.723  42.672  11.258
36447W        W 8707  28.644  32.569   0.500
36448W        W 8708  42.589   1.852  11.009
36449W        W 8709  22.661   8.691  14.950
36450W        W 8710  15.154  17.893   5.214
36451W        W 8711  10.217   4.561   4.583
36452W        W 8712  14.858   0.410   2.226
36453W        W 8713  34.532   2.410  13.306
36454W        W 8714  17.150  32.773   0.726
36455W        W 8715   0.483  30.915   3.314
36456W        W 8716  10.745  24.704   4.348
36457W        W 8717  27.341   5.043  11.109
36458W        W 8718  23.428  11.378  13.626
36459W        W 8719  35.997  29.500  14.546
36460W        W 8720   7.615  35.510   5.035
36461W        W 8721  39.333  41.733   3.827
36462W        W 8722  43.756  30.970   3.303
36463W        W 8723  27.525  19.682   3.154
36464W        W 8724  44.451   7.144  10.709
36465W        W 8725   6.881   7.448  14.977
36466W        W 8726  23.595  40.513   4.206
36467W        W 8727  25.239   2.284  12.105
36468W        W 8728  19.776  29.448   3.294
36469W        W 8729  44.181  10.495  12.537
36470W        W 8730  36.449  20.669  13.864
36471W        W 8731  33.972  13.168   3.425
36472W        W 8732  21.146   1.907   3.365
36473W        W 8733  34.785  43.276  14.370
36474W        W 8734  15.594  38.108  11.561
36475W        W 8735   5.017  31.866  14.347
36476W        W 8736  32.451  17.982   3.282
36477W        W 8737  44.272  31.064  14.417
36478W        W 8738  11.830  33.324  10.186
36479W        W 8739  41.361  17.238   4.207
36480W        W 8740  10.417  40.787   0.358
36481W        W 8741  42.907  18.093  14.710
36482W        W 8742  44.216  36.811   0.957
36483W        W 8743  34.511  42.369   4.354
36484W        W 8744   3.483  24.413   1.683
36485W        W 8745  26.135  36.467  10.917
36486W        W 8746  10.160  24.665   0.353
36487W        W 8747   3.765   0.375   3.744
36488W        W 8748   4.728   2.232  12.410
36489W        W 8749  31.293  43.103  11.282
36490W        W 8750  42.498  40.459  11.645
36491W        W 8751  41.753   4.773   2.715
36492W        W 8752  18.536  35.166  14.393
36493W        W 8753  22.986  36.072   0.465
36494W        W 8754  43.416  44.862   4.041
36495W        W 8755  39.965  31.749   1.322
36496W        W 8756  38.463  34.152  11.324
36497W        W 8757   7.227  13.440  12.508
36498W        W 8758  37.483  18.905  12.817
36499W        W 8759  37.579  31.537  13.895
36500W        W 8760  40.016  38.834  11.934
36501W        W 8761  29.507  39.080   4.660
36502W        W 8762  38.645  19.118  13.615
36503W        W 8763  20.159  36.639   5.033
36504W        W 8764   3.113  29.732   4.200
36505W        W 8765  40.225  43.336  10.722
36506W        W 8766  30.032  22.341  12.399
36507W        W 8767  18.735  38.000   1.649
36508W        W 8768  42.216  10.514   4.253
36509W        W 8769  19.369  16.692  11.827
36510W        W 8770  14.401  36.484  12.593
36511W        W 8771  34.445  29.183  12.180
36512W        W 8772  31.082  34.384   1.348
36513W        W 8773   5.924  44.368   2.750
36514W        W 8774  39.953  42.930  10.931
36515W        W 8775   7.702  30.661  13.323
36516W        W 8776   3.892   4.260   2.422
36517W        W 8777  40.804  28.159   2.126
36518W        W 8778  30.523   3.818   1.875
36519W        W 8779   4.884  11.528   1.855
36520W        W 8780  10.416  21.011   3.293
36521W        W 8781  37.111  21.517   3.312
36522W        W 8782  12.095  33.592  13.544
36523W        W 8783  39.278  17.133  13.922
36524W        W 8784  41.767  10.273  12.058
36525W        W 8785  19.010  37.299  14.315
36526W        W 8786   4.395  39.494   4.412
36527W        W 8787  35.771   3.196   1.333
36528W        W 8788   5.383   1.746  12.977
36529W        W 8789  26.752  30.192   4.336
36530W        W 8790   1.314  28.671   0.378
36531W        W 8791  34.571  19.687  11.603
36532W        W 8792  28.110  18.622   2.239
36533W        W 8793  42.306  38.887   1.034
36534W        W 8794  24.265  44.849  10.480
36535W        W 8795  25.717  15.932   0.581
36536W        W 8796  42.036   5.095  11.117
36537W        W 8797  23.339  16.091   4.953
36538W        W 8798   7.417  29.294  12.528
36539W        W 8799  44.822  41.778  14.470
36540W        W 8800  28.705   6.742   0.245
36541W        W 8801   0.144   7.304  12.631
36542W        W 8802  34.624  31.509   3.213
36543W        W 8803  14.578   3.152   4.141
36544W        W 8804  23.003  21.675  11.049
36545W        W 8805  11.804   9.560  11.584
36546W        W 8806  21.437   9.924  14.902
36547W        W 8807   3.418  14.245   4.199
36548W        W 8808  42.521   9.987  13.657
36549W        W 8809   1.474  36.484  14.865
36550W        W 8810   4.811  20.232  14.377
36551W        W 8811  13.644  43.637  10.754
36552W        W 8812  33.904   3.971  13.083
36553W        W 8813  38.517  30.082  13.325
36554W        W 8814  16.986  42.001  10.678
36555W        W 8815  36.445  13.240   1.943
36556W        W 8816   8.837  36.358  13.610
36557W        W 8817  25.013  38.717  12.029
36558W        W 8818  22.216   9.212  14.947
36559W        W 8819  43.791  12.621  11.679
36560W        W 8820   1.241   2.496  10.784
36561W        W 8821   2.015  39.595   3.761
36562W        W 8822  23.982  20.706   2.894
36563W        W 8823   3.457   2.851   0.903
36564W        W 8824  25.787   1.421  13.549
36565W        W 8825   0.975   9.279   4.451
36566W        W 8826  40.878  26.238   1.325
36567W        W 8827  36.371  16.552  13.901
36568W        W 8828   6.853  32.410   0.184
36569W        W 8829  14.740  23.546   2.849
36570W        W 8830  26.965  14.260  13.853
36571W        W 8831  20.422  31.434  13.654
36572W        W 8832  15.143  28.690  11.602
36573W        W 8833   3.378  35.387   2.387
36574W        W 8834  41.405  13.085   4.710
36575W        W 8835  29.423   5.729  14.985
36576W        W 8836  33.757   6.295   2.310
36577W        W 8837  36.605  40.320   2.885
36578W        W 8838  41.105  24.937   2.607
36579W        W 8839   7.818  27.250  14.097
36580W        W 8840  13.608  31.144   3.220
36581W        W 8841  28.095  15.823  12.993
36582W        W 8842   7.828  27.803  11.047
36583W        W 8843  33.095   7.041   1.586
36584W        W 8844  27.875   1.219  13.047
36585W        W 8845   0.015  44.025  13.498
36586W        W 8846  42.773   4.421   0.625
36587W        W 8847   2.784  20.924   3.955
36588W        W 8848  21.185  35.801  11.121
36589W        W 8849  18.572  39.027   0.273
36590W        W 8850  30.582   7.273  12.203
36591W        W 8851  38.035  30.885   3.272
36592W        W 8852   7.110   4.690  12.073
36593W        W 8853  17.518  41.948  13.470
36594W        W 8854  38.933  28.621  14.001
36595W        W 8855  26.567   6.702   3.724
36596W        W 8856   5.312  27.654   5.361
36597W        W 8857  43.533  18.092   3.167
36598W        W 8858  26.292   9.184  10.839
36599W        W 8859  25.100  25.474  11.596
36600W        W 8860  41.902  40.532  11.884
36601W        W 8861  33.374  21.168  14.373
36602W        W 8862  44.550   3.168   0.262
36603W        W 8863  44.750  21.038   2.385
36604W        W 8864   6.249  40.895   3.087
36605W        W 8865  30.846   7.323  10.442
36606W        W 8866   0.253   5.588   1.477
36607W        W 8867   1.365  13.324  11.644
36608W        W 8868  15.318  17.012   2.455
36609W        W 8869  25.425   7.613   0.004
36610W        W 8870  23.125  14.585  12.677
36611W        W 8871  15.442   4.734   1.425
36612W        W 8872   9.406  41.096   3.035
36613W        W 8873  31.499  10.743  10.893
36614W        W 8874  19.313  16.659  14.302
36615W        W 8875  27.581   1.446   1.970
36616W        W 8876  33.389  28.579   1.635
36617W        W 8877   4.444   2.718  12.489
36618W        W 8878  12.264  30.682   2.161
36619W        W 8879  33.887  41.930  11.937
36620W        W 8880  28.008  15.429   0.524
36621W        W 8881  41.867  18.440   0.318
36622W        W 8882  25.662  10.143  12.161
36623W        W 8883  19.299  21.442  10.523
36624W        W 8884   6.833  10.174  11.610
36625W        W 8885  26.346  12.900  12.133
36626W        W 8886   6.395  24.916   2.685
36627W        W 8887   4.645  33.504   3.748
36628W        W 8888  40.376  44.377  13.358
36629W        W 8889   3.617  18.706  14.305
36630W        W 8890   9.147   7.609   1.818
36631W        W 8891   1.932  43.775   1.439
36632W        W 8892  15.322  33.357  14.893
36633W        W 8893  37.561  37.210  12.542
36634W        W 8894  17.053  20.547  11.907
36635W        W 8895  23.550  27.486   5.045
36636W        W 8896  14.203  23.300  10.512
36637W        W 8897  18.084  13.636  10.937
36638W        W 8898  39.179   0.054  10.627
36639W        W 8899  16.365   7.455  12.472
36640W        W 8900   8.924  31.982   3.492
36641W        W 8901  22.706  24.428   2.662
36642W        W 8902  11.706  44.367   0.134
36643W        W 8903  23.337   6.849  12.931
36644W        W 8904  26.298  37.233  14.321
36645W        W 8905  13.594   9.570  10.963
36646W        W 8906  33.482   5.329   4.075
36647W        W 8907   7.698  28.829  11.045
36648W        W 8908   9.914  35.163   1.720
36649W        W 8909  41.934  40.504  10.894
36650W        W 8910   9.678  42.307  10.648
36651W        W 8911  14.344   6.667   4.184
36652W        W 8912  44.107  35.752   2.365
36653W        W 8913  39.387  32.887   2.609
36654W        W 8914  31.106  18.393   0.803
36655W        W 8915  32.433  10.113  11.241
36656W        W 8916  43.058  44.541   0.965
36657W        W 8917  31.674  43.843  12.483
36658W        W 8918   5.514  10.778  11.596
36659W        W 8919  38.334  15.304   2.385
36660W        W 8920  27.108  14.802  11.145
36661W        W 8921  31.594   7.769  12.930
36662W        W 8922  41.321  43.299   3.741
36663W        W 8923   1.443   8.098  14.336
36664W        W 8924   0.430  20.041   1.476
36665W        W 8925  42.954  25.618  13.082
36666W        W 8926  16.302  25.795   1.693
36667W        W 8927  13.705   1.411  13.853
36668W        W 8928  20.242  28.059   0.329
36669W        W 8929  16.652  18.626  12.646
36670W        W 8930  41.427  39.500   1.269
36671W        W 8931  14.580  32.067   1.315
36672W        W 8932   0.842  37.994  11.104
36673W        W 8933  34.345  28.554   1.947
36674W        W 8934  44.439  26.250   4.124
36675W        W 8935  22.258  29.676  11.080
36676W        W 8936  28.610   5.254  13.988
36677W        W 8937  38.450   5.630  12.341
36678W        W 8938  41.997  40.901   4.750
36679W        W 8939  30.397  35.414  13.984
36680W        W 8940  37.082  23.769  13.582
36681W        W 8941  17.203  31.842  13.432
36682W        W 8942  38.946  11.434   0.959
36683W        W 8943  14.082   8.923  10.083
36684W        W 8944   6.840  30.567  14.793
36685W        W 8945  44.400   7.631   0.349
36686W        W 8946  16.149  25.742   3.058
36687W        W 8947  32.643  11.504  14.450
36688W        W 8948  30.506  33.871  14.960
36689W        W 8949  34.407  36.351   4.079
36690W        W 8950  28.935   8.692  11.025
36691W        W 8951   5.326  20.219   2.764
36692W        W 8952  18.402  40.870   1.298
36693W        W 8953  14.277  39.968  11.513
36694W        W 8954  15.682  26.777  10.139
36695W        W 8955  19.159  16.040  12.485
36696W        W 8956   6.677  24.674   0.781
36697W        W 8957  20.698   5.483  10.617
36698W        W 8958   3.785  32.819  13.785
36699W        W 8959   5.323  12.096  13.250
36700W        W 8960  34.831  43.983  12.086
36701W        W 8961  37.842  13.517   1.386
36702W        W 8962  15.759  28.144   1.230
36703W        W 8963  27.951  17.595  13.936
36704W        W 8964  27.397  17.917  12.786
36705W        W 8965  17.786  27.497   1.739
36706W        W 8966  21.975  42.025   4.084
36707W        W 8967  38.441  34.629  11.164
36708W        W 8968  15.125  21.932  10.905
36709W        W 8969  43.226   0.515  11.161
36710W        W 8970  40.964  38.811  11.540
36711W        W 8971  36.842  20.259   0.670
36712W        W 8972  37.751  42.493  12.456
36713W        W 8973  13.223  31.651   2.258
36714W        W 8974  34.082  10.641  13.819
36715W        W 8975  19.713  39.397  12.059
36716W        W 8976   5.449  42.268  12.409
36717W        W 8977  39.202  13.509  10.844
36718W        W 8978   7.436   6.428  11.057
36719W        W 8979  19.679  41.264   1.624
36720W        W 8980  32.049  27.640   2.867
36721W        W 8981  38.401   0.159   4.439
36722W        W 8982  38.981  13.736  13.128
36723W        W 8983  20.568  28.194  13.429
36724W        W 8984  39.444  10.619   0.725
36725W        W 8985  36.649  38.546   4.074
36726W        W 8986  35.389   3.696  14.722
36727W        W 8987  23.060  40.562  14.325
36728W        W 8988  17.247  24.700  13.375
36729W        W 8989  43.318  18.621   2.325
36730W        W 8990  22.082  38.805  11.981
36731W        W 8991  27.988  41.592  11.454
36732W        W 8992  38.468  20.777  11.425
36733W        W 8993  17.629  33.694   3.507
36734W        W 8994  29.829  17.163   4.156
36735W        W 8995  43.010  32.892   4.782
36736W        W 8996  35.500  28.692  10.733
36737W        W 8997  33.388  23.276  10.149
36738W        W 8998  14.023   4.344   5.019
36739W        W 8999  29.705  40.546  13.122
36740W        W 9000  40.413  26.442   2.276
36741W        W 9001  17.791   4.407  13.265
36742W        W 9002  21.937  20.671   3.247
36743W        W 9003  40.305  28.754   1.518
36744W        W 9004   2.270   5.150   4.171
36745W        W 9005   5.794  32.478  10.907
36746W        W 9006  29.781  43.824  12.880
36747W        W 9007  44.957  20.034  13.518
36748W        W 9008  34.710  14.297  12.039
36749W        W 9009  30.658   0.285  11.505
36750W        W 9010   9.380  13.292  10.641
36751W        W 9011  19.168  31.923  11.168
36752W        W 9012  31.189   7.731   3.734
36753W        W 9013   4.275  26.393  10.719
36754W        W 9014  12.065  15.261  12.944
36755W        W 9015  14.366   4.975  10.561
36756W        W 9016  44.968  19.152   1.089
36757W        W 9017  25.915   7.940   3.656
36758W        W 9018   5.579   3.061  13.593
36759W        W 9019  13.246   9.362   1.528
36760W        W 9020  44.033  21.549  14.074
36761W        W 9021   2.482  40.380  10.679
36762W        W 9022  24.734  17.158   3.312
36763W        W 9023  10.157  20.066   3.314
36764W        W 9024   3.306  32.274   5.041
36765W        W 9025  41.732  12.232   1.176
36766W        W 9026  40.228  21.819  12.446
36767W        W 9027   4.946   0.777   1.264
36768W        W 9028  13.851  28.699  14.620
36769W        W 9029  13.869  23.702   2.501
36770W        W 9030  33.352  11.857  13.015
36771W        W 9031  14.759  16.047  10.331
36772W        W 9032  30.415   8.992   4.245
36773W        W 9033  36.389  36.184  11.048
36774W        W 9034  13.321  24.613   4.768
36775W        W 9035   1.081  34.899   1.557
36776W        W 9036  24.084  29.647   1.767
36777W        W 9037  25.147  21.709   0.194
36778W        W 9038  26.612  38.730   2.080
36779W        W 9039  15.523  34.949  10.886
36780W        W 9040   6.209  25.236   3.292
36781W        W 9041  21.862  31.885  14.797
36782W        W 9042   9.110  18.736  13.507
36783W        W 9043  20.780   3.877  14.889
36784W        W 9044  42.949  43.238  11.712
36785W        W 9045  25.147  27.433  12.919
36786W        W 9046   2.488  15.758  12.766
36787W        W 9047   1.173  38.489  12.524
36788W        W 9048  34.309   1.255   0.311
36789W        W 9049  34.133  33.948   1.469
36790W        W 9050  27.955  40.564   3.733
36791W        W 9051  41.342  24.259   1.417
36792W        W 9052  32.993  27.697  13.007
36793W        W 9053  33.376  38.813  10.531
36794W        W 9054  18.158   2.072  11.999
36795W        W 9055  19.257   0.788  14.771
36796W        W 9056  11.372  44.464  10.556
36797W        W 9057  41.580  15.515  11.186
36798W        W 9058   2.780  32.549  11.966
36799W        W 9059  12.229  11.380   3.942
36800W        W 9060  14.846   9.229  14.428
36801W        W 9061  40.984  36.926   1.676
36802W        W 9062  13.219  25.665  13.184
36803W        W 9063   3.759  42.485  14.564
36804W        W 9064  10.133   2.394   1.702
36805W        W 9065   7.620   2.325  14.015
36806W        W 9066  15.120  27.006  11.487
36807W        W 9067  42.201  40.395  10.476
36808W        W 9068   0.561  31.748  13.472
36809W        W 9069  25.684  23.163   3.457
36810W        W 9070  29.542  32.926   2.866
36811W        W 9071  16.328  41.825  11.452
36812W        W 9072  33.211  37.884  11.376
36813W        W 9073  36.932   7.398   3.131
36814W        W 9074  30.293  25.450  13.835
36815W        W 9075   8.348  16.145  14.207
36816W        W 9076  15.527   3.502   4.191
36817W        W 9077   7.659  36.749   4.310
36818W        W 9078  25.014  41.668   1.168
36819W        W 9079  24.936  19.386  14.958
36820W        W 9080   0.108   9.071   3.766
36821W        W 9081   5.666  23.770   1.350
36822W        W 9082  40.067  14.203  11.720
36823W        W 9083   4.627  39.832   0.760
36824W        W 9084  31.907   8.027  10.777
36825W        W 9085  11.748  39.058   2.362
36826W        W 9086  21.195  24.802   4.634
36827W        W 9087  25.957  42.165   3.962
36828W        W 9088  14.667  21.601   0.775
36829W        W 9089  41.914  27.171   0.281
36830W        W 9090   8.939  30.237   2.788
36831W        W 9091  39.811   1.797   0.321
36832W        W 9092  10.860  25.416  13.477
36833W        W 9093   4.285   5.422   0.699
36834W        W 9094  44.983  37.069  13.390
36835W        W 9095  30.549  13.182   3.123
36836W        W 9096  11.824  22.272  13.739
36837W        W 9097  32.448  15.069  13.877
36838W        W 9098  28.067  36.897  12.062
36839W        W 9099  42.780  16.563  11.099
36840W        W 9100  40.789   1.529   0.374
36841W        W 9101  10.696   3.184   2.555
36842W        W 9102   5.923  17.834  12.431
36843W        W 9103  27.459  25.627   4.299
36844W        W 9104  34.935  11.853  11.252
36845W        W 9105   2.027   4.320  14.401
36846W        W 9106   4.223  19.078  11.999
36847W        W 9107  42.305  31.578   0.700
36848W        W 9108  17.314  17.217   3.556
36849W        W 9109  31.654  33.510   4.091
36850W        W 9110  42.804  43.570   3.861
36851W        W 9111  11.302   6.160  14.998
36852W        W 9112  40.444   6.132   3.667
36853W        W 9113  37.473  11.262  10.107
36854W        W 9114  44.626   3.355  11.430
36855W        W 9115  40.210  24.509   3.555
36856W        W 9116  43.642   5.422   1.972
36857W        W 9117  41.848   0.959   3.624
36858W        W 9118  11.139  22.565  10.321
36859W        W 9119  13.127  25.810  11.253
36860W        W 9120   5.255  25.316  11.491
36861W        W 9121  28.977  23.701   0.763
36862W        W 9122  31.383  26.715   3.621
36863W        W 9123  32.156  34.337   2.123
36864W        W 9124  30.530  20.262  11.064
36865W        W 9125  35.896   0.236  12.056
36866W        W 9126  27.548  42.794   4.884
36867W        W 9127  21.259  36.864   2.298
36868W        W 9128  31.516  14.855  14.818
36869W        W 9129  43.253   6.203   0.778
36870W        W 9130   7.407  11.266  11.033
36871W        W 9131   0.329  44.598  10.635
36872W        W 9132   0.321  11.699   4.763
36873W        W 9133  41.504  42.857  13.007
36874W        W 9134  37.559  44.932   1.824
36875W        W 9135  34.632  17.403   3.527
36876W        W 9136  11.324  23.431  11.280
36877W        W 9137   2.938  39.807   3.616
36878W        W 9138   3.678  19.812  12.627
36879W        W 9139   5.437  22.566   1.023
36880W        W 9140  43.894  37.326  12.534
36881W        W 9141  23.957  32.497   0.276
36882W        W 9142   3.937   3.979   1.342
36883W        W 9143  36.429  24.464  13.415
36884W        W 9144   0.745  19.507   4.104
36885W        W 9145   8.311  42.947  14.528
36886W        W 9146  36.481  32.545  14.923
36887W        W 9147  26.637   5.864   2.409
36888W        W 9148  10.316  11.918  14.923
36889W        W 9149  37.351  32.938   4.053
36890W        W 9150   1.989   0.069   1.746
36891W        W 9151  21.199  10.244   3.052
36892W        W 9152  43.219  19.411   4.911
36893W        W 9153  10.759  25.422   1.790
36894W        W 9154  25.601   9.727   3.091
36895W        W 9155  31.128  24.544  11.572
36896W        W 9156  11.672  39.634   9.923
36897W        W 9157  44.721  43.482   1.327
36898W        W 9158  32.542  27.787   4.115
36899W        W 9159   1.755   7.922   2.098
36900W        W 9160  17.549  21.140  13.797
36901W        W 9161  33.531  29.136   2.710
36902W        W 9162  38.692  41.165   9.900
36903W        W 9163  35.140  15.128  12.456
36904W        W 9164  20.419   1.352  12.057
36905W        W 9165  20.589  26.277   1.087
36906W        W 9166  39.817  30.364   1.314
36907W        W 9167  13.651  28.366   4.793
36908W        W 9168  31.615  26.279   2.707
36909W        W 9169  30.174   4.594   2.976
36910W        W 9170  33.598  37.784  12.037
36911W        W 9171  41.953  24.556  14.173
36912W        W 9172  28.723   7.220  11.992
36913W        W 9173  33.923  18.053   4.592
36914W        W 9174  27.444  23.661   0.519
36915W        W 9175  19.922  21.760   3.496
36916W        W 9176  11.333  26.062  13.474
36917W        W 9177   6.243  18.144  14.871
36918W        W 9178  22.226  22.230   1.525
36919W        W 9179   3.463  21.615  11.885
36920W        W 9180   8.635  16.158  10.788
36921W        W 9181   9.739   5.659   1.234
36922W        W 9182   5.867  20.758  13.926
36923W        W 9183  22.902   1.297   0.447
36924W        W 9184  23.512  10.448  12.813
36925W        W 9185  25.915   0.837  14.374
36926W        W 9186   0.015  44.513  11.049
36927W        W 9187  43.762  18.600  11.585
36928W        W 9188  33.959  27.041  12.825
36929W        W 9189  43.763  31.168  10.735
36930W        W 9190   2.079  41.167   4.219
36931W        W 9191  34.406   8.414  14.272
36932W        W 9192  16.445  38.894   4.091
36933W        W 9193   8.096  23.450   2.589
36934W        W 9194  40.748   4.933   3.244
36935W        W 9195  13.576  12.548  14.486
36936W        W 9196  31.429  18.845   2.395
36937W        W 9197  42.352  23.891  11.804
36938W        W 9198  44.035  43.539   3.930
36939W        W 9199  37.666  27.620   9.875
36940W        W 9200   5.798  20.759   0.394
36941W        W 9201   2.493  10.442   4.078
36942W        W 9202  28.567   0.033  11.214
36943W        W 9203  40.920  39.406   0.073
36944W        W 9204  22.111  39.086  11.078
36945W        W 9205  35.118  23.578   0.777
36946W        W 9206   7.303  29.660  12.194
36947W        W 9207  44.433  13.077   1.865
36948W        W 9208  10.339  21.755   2.377
36949W        W 9209  17.591  27.466  13.428
36950W        W 9210  32.375  14.265  14.345
36951W        W 9211  17.044  28.612   1.347
36952W        W 9212  10.131  18.769   3.910
36953W        W 9213  36.979  26.856   4.946
36954W        W 9214  43.225  15.554  10.293
36955W        W 9215  33.344   1.033   0.512
36956W        W 9216  17.568  37.826  13.395
36957W        W 9217   7.949   9.297  14.530
36958W        W 9218  21.502  22.235  13.955
36959W        W 9219   5.998  33.889   4.181
36960W        W 9220  34.481  24.189  12.625
36961W        W 9221   8.585  32.021  14.521
36962W        W 9222   7.473  27.239   0.993
36963W        W 9223  24.928   4.187  11.960
36964W        W 9224  24.423   8.029  10.783
36965W        W 9225  43.883   9.718  14.586
36966W        W 9226  29.995  36.585   3.773
36967W        W 9227   9.770  44.201  11.177
36968W        W 9228  26.637  33.744   5.268
36969W        W 9229  32.837  24.194  13.045
36970W        W 9230  30.512  42.881  11.622
36971W        W 9231  25.183   7.927   1.237
36972W        W 9232   4.332  15.549   2.308
36973W        W 9233   6.637  31.655  11.165
36974W        W 9234  11.364  29.705  13.386
36975W        W 9235  44.126   9.763   0.041
36976W        W 9236  20.211  36.705  13.972
36977W        W 9237  12.936  21.233   0.896
36978W        W 9238   0.434  35.558  10.477
36979W        W 9239  21.706   2.888   2.714
36980W        W 9240  40.497  40.957   4.723
36981W        W 9241  42.549  42.364   2.170
36982W        W 9242  12.699  18.999   2.208
36983W        W 9243  22.250  40.336   3.068
36984W        W 9244  36.733   0.940  12.360
36985W        W 9245  36.399   8.694  14.858
36986W        W 9246   1.467   9.116   0.810
36987W        W 9247   7.853  42.524   3.390
36988W        W 9248  12.226  19.528   3.614
36989W        W 9249  26.720  13.370   1.786
36990W        W 9250  13.996   6.091  12.505
36991W        W 9251  26.676  10.576   3.535
36992W        W 9252  25.456   7.891   1.662
36993W        W 9253  28.613  42.572   2.841
36994W        W 9254  31.633  29.497   4.867
36995W        W 9255  33.587   4.404   3.555
36996W        W 9256   1.758  40.067  10.968
36997W        W 9257  26.141  17.763  13.597
36998W        W 9258  44.705  40.855  12.152
36999W        W 9259  20.666   9.259  10.369
37000W        W 9260  17.145  32.388   3.666
37001W        W 9261  44.545  12.545  13.482
37002W        W 9262   3.814  26.089  14.126
37003W        W 9263  29.443  13.085   4.637
37004W        W 9264  33.153  39.731  12.533
37005W        W 9265  40.122   8.164   3.484
37006W        W 9266  21.515  23.547   3.668
37007W        W 9267  31.933  29.056   1.873
37008W        W 9268   9.355  27.088  14.456
37009W        W 9269  40.025  26.492  13.075
37010W        W 9270  29.538  14.207  13.183
37011W        W 9271  44.045  22.720  11.640
37012W        W 9272  38.043  37.401  13.359
37013W        W 9273  43.547  40.242  11.873
37014W        W 9274   9.861  30.652  12.739
37015W        W 9275   2.462  26.600  14.899
37016W        W 9276  14.401  30.519  11.171
37017W        W 9277  13.665  43.895   1.033
37018W        W 9278   9.395  43.929   2.896
37019W        W 9279  25.037  29.529   2.344
37020W        W 9280   5.484  28.426  11.664
37021W        W 9281  24.046   1.388  13.989
37022W        W 9282   6.750  11.382   1.526
37023W        W 9283  42.963  10.440   2.721
37024W        W 9284   0.526  11.362   0.584
37025W        W 9285  43.422  23.751   0.306
37026W        W 9286  30.246   2.897  12.359
37027W        W 9287  16.814  15.274  10.682
37028W        W 9288  42.975  27.722   4.273
37029W        W 9289  31.216  38.081  12.105
37030W        W 9290  27.602  33.448  13.860
37031W        W 9291  36.797  36.368   3.857
37032W        W 9292  29.611  35.935  12.048
37033W        W 9293   7.671  24.269   2.672
37034W        W 9294  33.562  44.094   4.598
37035W        W 9295  29.133  35.889   1.722
37036W        W 9296  25.428   1.030  13.424
37037W        W 9297  27.288   4.484   1.864
37038W        W 9298  21.947  32.940   0.826
37039W        W 9299   1.811  18.671   5.068
37040W        W 9300  20.546  31.845   1.644
37041W        W 9301   9.438  15.900   2.512
37042W        W 9302  43.303  11.944   3.712
37043W        W 9303  21.247  17.993  12.945
37044W        W 9304  11.132   9.799  10.851
37045W        W 9305  28.422   2.153  13.868
37046W        W 9306  29.628  15.500  13.946
37047W        W 9307  15.030  39.673   2.174
37048W        W 9308  19.496  28.551  13.554
37049W        W 9309  40.356  17.295   2.146
37050W        W 9310  42.465  26.539  13.024
37051W        W 9311  21.170   8.603   1.673
37052W        W 9312  20.666   2.600  12.196
37053W        W 9313  28.770  28.531  11.776
37054W        W 9314  40.876   1.376   3.650
37055W        W 9315  39.757   3.361  12.085
37056W        W 9316  33.462  39.063   1.770
37057W        W 9317  36.594   7.371   9.994
37058W        W 9318  24.437  17.539   3.522
37059W        W 9319  33.334  20.180   2.936
37060W        W 9320  11.278  13.390  11.929
37061W        W 9321   3.901  42.598   4.363
37062W        W 9322  21.618  27.595  13.954
37063W        W 9323  33.834   5.576   0.803
37064W        W 9324  33.006   1.520  12.009
37065W        W 9325   0.273   1.008   3.781
37066W        W 9326  44.817  19.386   2.844
37067W        W 9327   8.169  10.262   3.183
37068W        W 9328  14.884  19.143  12.944
37069W        W 9329  19.627   5.251   3.029
37070W        W 9330  31.835  36.469  13.615
37071W        W 9331  33.890  41.411   1.845
37072W        W 9332  12.244   1.108   3.489
37073W        W 9333   5.530   0.360  10.665
37074W        W 9334  21.980  32.516  13.133
37075W        W 9335   3.408  37.651   3.170
37076W        W 9336   6.883  36.481   2.260
37077W        W 9337   5.222   6.473   3.740
37078W        W 9338  36.826  27.963   3.120
37079W        W 9339  39.525  18.804   0.259
37080W        W 9340  42.939  35.421  14.555
37081W        W 9341   5.217  25.188   4.065
37082W        W 9342  38.088  22.017   2.737
37083W        W 9343   0.322  12.647  12.540
37084W        W 9344  28.588  14.000   2.834
37085W        W 9345  15.607  19.485  13.307
37086W        W 9346  13.199  32.665   3.301
37087W        W 9347  29.101  13.378   1.855
37088W        W 9348  19.061  33.757   2.083
37089W        W 9349  39.799  28.558  14.339
37090W        W 9350  39.185   3.427   4.121
37091W        W 9351  25.045  34.402  14.871
37092W        W 9352  24.091  37.014  14.059
37093W        W 9353  28.033  14.271   3.781
37094W        W 9354  26.892   3.192   5.002
37095W        W 9355   7.824  31.348  14.472
37096W        W 9356  34.150  40.923   3.731
37097W        W 9357  28.714  31.649  10.984
37098W        W 9358  16.338  35.349   3.109
37099W        W 9359   3.695  44.673  14.217
37100W        W 9360   0.856   4.832  12.032
37101W        W 9361  28.662  17.294   2.468
37102W        W 9362  12.370  26.979   3.811
37103W        W 9363   3.457   5.190   2.745
37104W        W 9364  23.966  23.352   2.937
37105W        W 9365  41.506   9.864  10.982
37106W        W 9366  39.002  20.738   3.708
37107W        W 9367   5.980   3.169   0.420
37108W        W 9368  24.926  14.718   1.448
37109W        W 9369   5.181  21.264  11.666
37110W        W 9370   7.617   0.306  11.574
37111W        W 9371   7.298  41.849  13.815
37112W        W 9372  43.660  23.183  11.580
37113W        W 9373  11.643  22.210   2.388
37114W        W 9374  33.070  36.835   3.613
37115W        W 9375  17.126   0.329   1.347
37116W        W 9376  30.516  12.793  11.996
37117W        W 9377  21.465  25.208  11.959
37118W        W 9378  15.115  39.380  12.547
37119W        W 9379   8.908  34.908   2.326
37120W        W 9380  27.510   7.449   3.214
37121W        W 9381  36.051  24.966   1.714
37122W        W 9382  24.581  31.725  13.354
37123W        W 9383  10.825  40.245  13.959
37124W        W 9384  40.783  43.431  14.978
37125W        W 9385  32.739  37.446   2.998
37126W        W 9386   0.465   4.864  11.621
37127W        W 9387   0.986  25.230   4.281
37128W        W 9388  28.015   3.089  14.121
37129W        W 9389  12.376  32.774  11.023
37130W        W 9390  34.196  17.249  10.516
37131W        W 9391  10.363  24.700  13.379
37132W        W 9392  12.654   9.629   3.586
37133W        W 9393   3.522  40.770  12.122
37134W        W 9394  18.009  32.357   0.288
37135W        W 9395  25.219  11.726   1.223
37136W        W 9396  33.895  42.714  14.407
37137W        W 9397  38.568  33.786  13.169
37138W        W 9398   2.056   0.779  14.829
37139W        W 9399  37.333  16.721   4.577
37140W        W 9400   7.000  24.276   4.963
37141W        W 9401   6.901  28.309  13.029
37142W        W 9402  36.540  40.518  12.314
37143W        W 9403  19.739   6.904   4.454
37144W        W 9404   9.155  21.583  14.860
37145W        W 9405  41.723  28.577  11.579
37146W        W 9406   4.983  13.860   1.284
37147W        W 9407  44.660  10.403   0.539
37148W        W 9408   3.450  19.645   1.786
37149W        W 9409  14.253  16.785  11.501
37150W        W 9410   1.338   6.386   0.926
37151W        W 9411   0.880  15.813  14.767
37152W        W 9412  17.422  43.393   3.023
37153W        W 9413  13.921  33.966  12.116
37154W        W 9414   8.671  10.753  10.925
37155W        W 9415   3.796  32.619  11.127
37156W        W 9416  22.316  11.719   2.233
37157W        W 9417   5.817  26.720   1.753
37158W        W 9418  13.698  26.728   0.752
37159W        W 9419  19.988   5.648  14.013
37160W        W 9420  33.552   4.950   2.780
37161W        W 9421  30.434  39.847   3.230
37162W        W 9422  38.605  36.935  10.640
37163W        W 9423  17.324   1.284   3.195
37164W        W 9424  25.030  18.258  13.126
37165W        W 9425   7.054   1.836   4.185
37166W        W 9426   4.198  30.577  14.545
37167W        W 9427  16.314  24.510  14.394
37168W        W 9428  17.215   9.335  10.673
37169W        W 9429  22.181  12.122  10.939
37170W        W 9430  37.622  22.537   3.870
37171W        W 9431  31.052  36.783   3.295
37172W        W 9432   8.881  12.821  10.707
37173W        W 9433  13.292   6.833   1.187
37174W        W 9434   6.269  14.083   4.450
37175W        W 9435  13.764  31.635   4.870
37176W        W 9436   6.774  24.921  11.541
37177W        W 9437  28.986   1.670  10.324
37178W        W 9438  39.326  14.862   1.787
37179W        W 9439  33.890  41.339  11.741
37180W        W 9440  22.690   9.013   4.587
37181W        W 9441  14.841   2.452  13.831
37182W        W 9442  18.083   9.478  11.433
37183W        W 9443  16.798  37.910   3.206
37184W        W 9444  41.808   8.850   0.973
37185W        W 9445  15.510  26.900   1.865
37186W        W 9446   3.155   0.964  13.700
37187W        W 9447  21.749  15.233   0.831
37188W        W 9448  33.504   7.115   0.811
37189W        W 9449  27.628  30.157   9.802
37190W        W 9450  26.605  26.032   2.277
37191W        W 9451  10.085   7.328   2.717
37192W        W 9452  20.806  29.491  10.522
37193W        W 9453  19.772  37.319  11.615
37194W        W 9454  36.432  13.725   3.789
37195W        W 9455  10.815  12.733   2.445
37196W        W 9456  40.061  20.623   0.927
37197W        W 9457  14.162  32.885  10.632
37198W        W 9458   6.305  34.800   1.491
37199W        W 9459  24.102  15.052   3.373
37200W        W 9460  44.925  30.970   4.848
37201W        W 9461  10.623  16.764  12.398
37202W        W 9462  16.672  11.898   0.395
37203W        W 9463   4.887   7.173   1.032
37204W        W 9464  24.195  21.684   4.662
37205W        W 9465  10.834  18.357  13.541
37206W        W 9466  10.672  40.923   3.592
37207W        W 9467  14.732  40.283   2.727
37208W        W 9468   7.533  33.906   2.665
37209W        W 9469  42.502   3.764   0.077
37210W        W 9470  31.623  34.810   2.720
37211W        W 9471  35.678   5.528   3.756
37212W        W 9472  31.582  23.628   0.267
37213W        W 9473  32.302  14.128   1.719
37214W        W 9474  16.150  13.100  10.697
37215W        W 9475  24.606  28.852   3.666
37216W        W 9476  44.973  21.150  13.195
37217W        W 9477  30.782  40.580   1.246
37218W        W 9478  33.893   2.868  13.365
37219W        W 9479  28.591   6.316   1.829
37220W        W 9480  36.860  27.047   3.194
37221W        W 9481  34.829  18.872  10.840
37222W        W 9482  33.125  17.270  14.730
37223W        W 9483  43.103  38.617  11.177
37224W        W 9484  24.945  37.951   1.693
37225W        W 9485  40.543   4.794  11.075
37226W        W 9486  12.349  29.159   0.326
37227W        W 9487  12.141   2.524   0.111
37228W        W 9488  44.961  15.002   0.245
37229W        W 9489  33.600   9.390   2.405
37230W        W 9490  28.003  34.120   4.753
37231W        W 9491  22.784  26.987   4.249
37232W        W 9492   8.355  24.768  12.022
37233W        W 9493  20.342  19.302   3.056
37234W        W 9494  22.618  36.567  10.645
37235W        W 9495  14.658  39.519  13.289
37236W        W 9496  21.635  11.248  14.948
37237W        W 9497   1.563   7.279  10.544
37238W        W 9498  26.427  17.406   0.009
37239W        W 9499  43.614   9.470  10.779
37240W        W 9500   6.213  26.936   0.417
37241W        W 9501  19.447  28.314   4.178
37242W        W 9502  38.784  19.601   3.432
37243W        W 9503  18.888   8.742  10.920
37244W        W 9504  25.252   1.257   0.815
37245W        W 9505  27.923  27.702   1.277
37246W        W 9506  34.060   4.340  13.415
37247W        W 9507   5.337  33.975   1.374
37248W        W 9508  34.474  21.381   4.705
37249W        W 9509  32.172  13.609  11.108
37250W        W 9510   6.745  23.596  13.081
37251W        W 9511  20.391  17.875   3.358
37252W        W 9512   7.334   0.894  14.796
37253W        W 9513  35.956  34.905   0.403
37254W        W 9514  10.734  28.168  12.058
37255W        W 9515  25.351   3.665   0.795
37256W        W 9516  44.297   2.978  12.169
37257W        W 9517  31.654   3.630   3.253
37258W        W 9518   6.924  25.700   2.377
37259W        W 9519   6.293   5.416   1.719
37260W        W 9520  19.985  42.490   2.523
37261W        W 9521   9.370  25.267   2.305
37262W        W 9522  10.740  16.777  10.753
37263W        W 9523   3.950  35.105  11.181
37264W        W 9524  32.063  14.991  10.096
37265W        W 9525  29.176  35.903   0.229
37266W        W 9526  33.573   1.046   4.283
37267W        W 9527  20.435  44.531   3.714
37268W        W 9528  37.565  11.134   3.648
37269W        W 9529   2.500  43.512  12.710
37270W        W 9530  44.359  22.656  12.835
37271W        W 9531  15.058  43.338  11.525
37272W        W 9532  29.852   7.847  13.126
37273W        W 9533  12.807  44.380   4.290
37274W        W 9534  12.825  29.432   4.655
37275W        W 9535  24.102   4.203  11.416
37276W        W 9536   3.480  11.364   1.146
37277W        W 9537  33.532  15.350   2.999
37278W        W 9538  44.000  16.755  13.394
37279W        W 9539  36.901  23.208   4.532
37280W        W 9540  12.363  19.485  12.780
37281W        W 9541  27.522  18.487   4.736
37282W        W 9542  44.842  43.019   3.248
37283W        W 9543  20.973  21.734  13.023
37284W        W 9544  38.373  18.613  12.354
37285W        W 9545  38.380  11.756   4.631
37286W        W 9546  17.522  28.415  12.460
37287W        W 9547   5.414  43.294   0.890
37288W        W 9548  44.174  35.381  11.682
37289W        W 9549  24.354   2.315   4.335
37290W        W 9550  14.713  28.855   3.306
37291W        W 9551  34.117  19.358   1.258
37292W        W 9552   8.930  21.793   2.981
37293W        W 9553  13.188  38.737   2.724
37294W        W 9554  30.676  23.241   2.596
37295W        W 9555  30.945  17.616   3.044
37296W        W 9556  27.483  29.930   5.618
37297W        W 9557  21.293   7.252   3.808
37298W        W 9558  31.878   9.274  14.990
37299W        W 9559  32.370   0.872  11.043
37300W        W 9560  13.347  13.611  10.653
37301W        W 9561   0.264  22.650  11.093
37302W        W 9562  36.020  31.711   3.095
37303W        W 9563   9.272  23.013   0.847
37304W        W 9564   1.617  16.234   4.798
37305W        W 9565  25.088  12.875  14.899
37306W        W 9566  36.348  43.061  12.020
37307W        W 9567  26.556  34.640  13.537
37308W        W 9568  11.703  36.843  13.231
37309W        W 9569  32.852  11.778   1.714
37310W        W 9570  42.220  36.977  14.907
37311W        W 9571   4.203  36.507   0.500
37312W        W 9572  17.698  40.546  12.886
37313W        W 9573  23.986  28.037   4.542
37314W        W 9574  39.443  32.962   3.135
37315W        W 9575  22.598  31.338   4.874
37316W        W 9576  25.018  18.553  14.124
37317W        W 9577  35.604  44.799   0.470
37318W        W 9578  44.450   8.229  14.389
37319W        W 9579  39.378  11.267  14.439
37320W        W 9580   4.693  21.082   2.762
37321W        W 9581  28.609  36.905  10.747
37322W        W 9582   7.210  40.566  11.388
37323W        W 9583   8.426   5.961  13.146
37324W        W 9584  28.352  21.613  14.220
37325W        W 9585  18.518   2.379  14.783
37326W        W 9586  42.478  14.658   1.360
37327W        W 9587  22.443   2.655  10.598
37328W        W 9588  37.813  33.915  10.507
37329W        W 9589  23.793   7.742  13.026
37330W        W 9590  18.487  24.073   4.567
37331W        W 9591  20.228  43.293  10.288
37332W        W 9592   8.825  25.158  14.553
37333W        W 9593   7.270  28.997   4.884
37334W        W 9594   5.669   3.881   0.922
37335W        W 9595   4.888  36.098   0.315
37336W        W 9596  30.486  10.141   2.315
37337W        W 9597  36.779  40.765   0.183
37338W        W 9598  19.704   8.239  13.034
37339W        W 9599  41.893  43.692  10.828
37340W        W 9600  39.131  24.556   4.329
37341W        W 9601  15.133   5.892   1.811
37342W        W 9602   2.800   9.452   0.212
37343W        W 9603   8.432  36.354  12.496
37344W        W 9604   6.954  37.559   3.932
37345W        W 9605   4.270  33.027  12.544
37346W        W 9606   1.395  31.688  14.333
37347W        W 9607  20.284  23.291  13.473
37348W        W 9608  41.332  24.106   4.578
37349W        W 9609  16.816  14.903  13.559
37350W        W 9610  28.585  42.422   1.686
37351W        W 9611   6.332   3.264  10.536
37352W        W 9612  35.477  24.728   0.911
37353W        W 9613  33.335  21.552   2.634
37354W        W 9614   2.360   0.752  14.344
37355W        W 9615   0.188  27.461  10.436
37356W        W 9616   3.719  43.549   2.287
37357W        W 9617  25.424  39.250  10.580
37358W        W 9618   3.724  23.606   3.364
37359W        W 9619   2.854   4.713  10.704
37360W        W 9620   3.417   4.023   2.230
37361W        W 9621  33.036  37.505   5.050
37362W        W 9622  18.420  25.285  11.653
37363W        W 9623  21.929   6.042  14.284
37364W        W 9624  33.978  24.674  11.725
37365W        W 9625  21.307  33.648  12.730
37366W        W 9626  32.020  34.883  12.967
37367W        W 9627   8.881  14.222  10.636
37368W        W 9628  13.417  34.882  13.462
37369W        W 9629  27.301   2.476   3.757
37370W        W 9630  17.306   5.414   2.585
37371W        W 9631  26.775  35.223  14.959
37372W        W 9632  10.529  32.309   2.678
37373W        W 9633  13.418  40.524  13.430
37374W        W 9634  41.251  38.511   2.205
37375W        W 9635  42.537   9.165  13.342
37376W        W 9636  39.998  32.996   1.951
37377W        W 9637  14.279  23.345   4.573
37378W        W 9638  17.356  42.350  11.147
37379W        W 9639  33.558  24.950  11.472
37380W        W 9640  14.236  41.259  12.485
37381W        W 9641  17.856  39.773   0.803
37382W        W 9642  38.947  40.851   0.895
37383W        W 9643   1.051   4.377  14.135
37384W        W 9644  31.968  29.008  12.436
37385W        W 9645  17.172  19.030  12.037
37386W        W 9646  36.808  14.839  13.255
37387W        W 9647   5.135  22.557  14.796
37388W        W 9648  11.950  26.660   4.167
37389W        W 9649  43.910  26.911   4.491
37390W        W 9650   5.634  35.556  14.360
37391W        W 9651  14.759  34.547   0.801
37392W        W 9652   4.752  40.923  10.723
37393W        W 9653  37.597  34.044  14.296
37394W        W 9654  23.603   5.731   2.227
37395W        W 9655  39.319  17.034   3.770
37396W        W 9656  44.991  10.849   3.281
37397W        W 9657  39.384  14.524   2.203
37398W        W 9658  21.120  10.828  12.910
37399W        W 9659  16.259  13.883  13.928
37400W        W 9660  12.363  11.162   4.925
37401W        W 9661  16.102   8.849  10.593
37402W        W 9662  31.579  30.440  14.035
37403W        W 9663  20.539  18.054  13.368
37404W        W 9664  38.815  36.470  14.889
37405W        W 9665  10.839  38.887   0.774
37406W        W 9666   1.266  22.679  10.973
37407W        W 9667  37.717  32.065  13.903
37408W        W 9668  37.350  36.524   3.000
37409W        W 9669  30.156   1.744   2.417
37410W        W 9670  13.571  11.086  11.628
37411W        W 9671   8.416  14.129   1.903
37412W        W 9672   4.204  27.133   1.861
37413W        W 9673   6.403  19.760  13.897
37414W        W 9674  37.275  20.768  12.031
37415W        W 9675  40.542  36.004  12.352
37416W        W 9676  11.367  31.814   4.932
37417W        W 9677  40.120  25.169   0.917
37418W        W 9678  40.400  44.734   1.037
37419W        W 9679  21.692  15.677  12.813
37420W        W 9680  33.337  23.690  10.637
37421W        W 9681  44.342  12.753   4.403
37422W        W 9682  22.602  38.918   1.410
37423W        W 9683  10.423  17.819   3.806
37424W        W 9684  13.485  31.212   5.091
37425W        W 9685  12.120  14.666  13.411
37426W        W 9686  43.303  35.355   1.381
37427W        W 9687   9.875  34.086   0.245
37428W        W 9688   1.125  43.750  14.984
37429W        W 9689  19.062  32.002   3.722
37430W        W 9690  21.270   1.441   1.976
37431W        W 9691  44.941  35.163   4.521
37432W        W 9692  12.659  32.459  14.297
37433W        W 9693   4.283  37.134  11.853
37434W        W 9694   6.196   1.789   0.837
37435W        W 9695  12.094  25.148   0.865
37436W        W 9696  41.411  12.967  12.547
37437W        W 9697  30.672  43.423   1.285
37438W        W 9698   9.073  16.208   2.691
37439W        W 9699  15.387  18.343  13.866
37440W        W 9700  36.359  43.509  13.419
37441W        W 9701  36.795  13.559  10.629
37442W        W 9702  43.595  44.047   1.926
37443W        W 9703  44.537  12.122  11.185
37444W        W 9704  11.096   2.128   3.924
37445W        W 9705  38.477   7.797   1.376
37446W        W 9706  28.537  15.252   3.051
37447W        W 9707   3.387  19.021  12.485
37448W        W 9708   2.686   3.480   3.118
37449W        W 9709  16.751  32.111   4.025
37450W        W 9710  17.139  30.068   1.386
37451W        W 9711   1.510  16.857   0.589
37452W        W 9712   7.662   9.373   0.502
37453W        W 9713  14.911  17.991   3.390
37454W        W 9714  37.138  11.761   0.391
37455W        W 9715   9.323   6.688  13.874
37456W        W 9716  30.039  16.094  11.608
37457W        W 9717  40.942   7.609  10.733
37458W        W 9718  19.093  11.413  10.580
37459W        W 9719   0.336   1.016   2.338
37460W        W 9720  11.405  26.437   0.022
37461W        W 9721  14.048  34.318   4.173
37462W        W 9722  18.333   3.763   3.292
37463W        W 9723  25.077  12.255   4.267
37464W        W 9724  21.681  17.136   3.738
37465W        W 9725  34.082  22.988   1.887
37466W        W 9726  35.396   2.922   1.896
37467W        W 9727  33.607   4.812  12.151
37468W        W 9728  38.432  39.869  13.278
37469W        W 9729  36.808  39.821  13.381
37470W        W 9730  19.444  14.189  11.603
37471W        W 9731  13.420  35.970   1.103
37472W        W 9732  10.653   4.666  11.708
37473W        W 9733  31.884  27.470   4.321
37474W        W 9734  24.885  32.097   0.444
37475W        W 9735   5.760   7.294   2.796
37476W        W 9736  10.812   1.841  12.479
37477W        W 9737  38.117  30.939   1.875
37478W        W 9738  40.220  34.520   1.680
37479W        W 9739   4.395  43.472  14.676
37480W        W 9740  34.381   2.557   4.147
37481W        W 9741  34.855  10.353  11.241
37482W        W 9742  41.521   9.217  12.479
37483W        W 9743   6.432  39.392  14.795
37484W        W 9744  28.757  17.550  11.640
37485W        W 9745  40.152  14.731   3.288
37486W        W 9746  36.858  42.029  11.115
37487W        W 9747  27.766  43.905  13.406
37488W        W 9748  38.437   4.372   4.505
37489W        W 9749  27.153  13.343   0.020
37490W        W 9750  20.821  33.005  13.429
37491W        W 9751  21.439  36.890  10.476
37492W        W 9752  12.407  33.684  13.128
37493W        W 9753   2.224  28.223  14.327
37494W        W 9754  42.966  21.939   1.328
37495W        W 9755  29.634  31.380   2.345
37496W        W 9756  10.188  38.114   1.959
37497W        W 9757  29.200  29.925  10.605
37498W        W 9758  21.776  21.735   5.017
37499W        W 9759  35.987   8.927   5.352
37500W        W 9760  33.546  24.932   0.253
37501W        W 9761   5.367   6.830  11.727
37502W        W 9762  11.134  32.083   2.002
37503W        W 9763   1.922  14.664  10.746
37504W        W 9764  13.725  17.738  12.175
37505W        W 9765  20.150  21.097  12.990
37506W        W 9766  19.752  44.879   1.725
37507W        W 9767  28.351   8.084   1.211
37508W        W 9768  14.716  33.765  12.515
37509W        W 9769  39.282  28.514  11.684
37510W        W 9770  30.141   6.141  11.157
37511W        W 9771  21.658  41.092  11.936
37512W        W 9772   1.972  23.103  14.968
37513W        W 9773   1.954  15.808  12.114
37514W        W 9774  12.339  13.757  10.658
37515W        W 9775  12.814   5.440  14.424
37516W        W 9776   3.932  14.183   3.190
37517W        W 9777  13.813  44.491   3.299
37518W        W 9778  26.938  30.362  10.249
37519W        W 9779   8.265  23.920  14.365
37520W        W 9780  36.599  17.479  12.930
37521W        W 9781  11.456  12.809   0.821
37522W        W 9782   9.340  26.012   1.729
37523W        W 9783   0.954  30.951  14.328
37524W        W 9784  22.058  40.905   4.727
37525W        W 9785  11.806  28.080  14.746
37526W        W 9786   2.519  30.022  14.482
37527W        W 9787  20.045  31.255   1.262
37528W        W 9788  43.959  26.532   4.823
37529W        W 9789  36.802  11.271  11.550
37530W        W 9790  44.345  29.176   1.027
37531W        W 9791  42.162  17.659  10.469
37532W        W 9792  21.460  10.786   0.015
37533W        W 9793  32.508  36.081  13.575
37534W        W 9794  21.930  27.600  11.888
37535W        W 9795   6.190  19.171  14.874
37536W        W 9796  31.146  16.998   0.944
37537W        W 9797   9.121  12.058  11.146
37538W        W 9798  10.835  30.564   3.201
37539W        W 9799   4.927  28.920  12.132
37540W        W 9800  18.930  10.756   1.427
37541W        W 9801   4.842  35.745   0.731
37542W        W 9802   6.938   1.680   1.413
37543W        W 9803  16.221  42.844  12.041
37544W        W 9804  42.367  30.047  13.904
37545W        W 9805  13.432  41.400  11.684
37546W        W 9806  19.238  25.207   0.261
37547W        W 9807  16.098   4.945   1.938
37548W        W 9808   5.439  30.766  13.111
37549W        W 9809  29.411  41.377   0.428
37550W        W 9810  30.116  30.117   5.135
37551W        W 9811  14.719  13.103   1.893
37552W        W 9812  35.808  31.888   0.848
37553W        W 9813  19.602   9.151  10.688
37554W        W 9814  24.338   8.772   1.884
37555W        W 9815  16.037  11.740  14.719
37556W        W 9816  42.123   6.680   2.391
37557W        W 9817  22.939  36.379   4.487
37558W        W 9818  31.404  18.838   1.329
37559W        W 9819  25.959  27.495  11.904
37560W        W 9820  17.732  21.608   1.744
37561W        W 9821   2.708   7.208   2.777
37562W        W 9822  22.703  14.740   1.716
37563W        W 9823  15.529  29.573   5.600
37564W        W 9824   9.618   7.785   1.878
37565W        W 9825  34.355  34.491  13.047
37566W        W 9826   8.852   9.233   2.622
37567W        W 9827   0.887  17.167  14.396
37568W        W 9828  36.114  36.410  11.888
37569W        W 9829  43.058  23.638   4.550
37570W        W 9830  38.140  21.008   2.521
37571W        W 9831  28.949  13.744  14.370
37572W        W 9832  39.404   6.810   5.062
37573W        W 9833  10.875  40.640  10.822
37574W        W 9834  11.722  29.728   1.834
37575W        W 9835  40.094  15.569  11.180
37576W        W 9836  12.072  43.618   2.732
37577W        W 9837  15.207  31.742   0.234
37578W        W 9838  12.738  33.630   2.737
37579W        W 9839   5.008  20.464  11.301
37580W        W 9840  17.573  39.575  10.465
37581W        W 9841  36.046  31.366  11.258
37582W        W 9842  39.064  32.074   4.063
37583W        W 9843  44.728   9.130   2.311
37584W        W 9844  23.186  39.807   0.392
37585W        W 9845  22.061  30.570   3.713
37586W        W 9846  34.762  38.265   3.826
37587W        W 9847  26.494  27.950  11.146
37588W        W 9848  39.392  28.899   2.737
37589W        W 9849  33.859   5.441   2.626
37590W        W 9850  11.903  23.106   0.402
37591W        W 9851  37.177  35.101  11.280
37592W        W 9852  38.420  16.281  12.152
37593W        W 9853  43.966  41.148   3.688
37594W        W 9854  25.047   4.861  13.059
37595W        W 9855  15.581  29.003   0.788
37596W        W 9856  31.058  43.422   0.766
37597W        W 9857   4.732  29.998   0.205
37598W        W 9858  37.451   6.397   1.999
37599W        W 9859  20.148  36.517  14.725
37600W        W 9860  22.738  19.026  11.886
37601W        W 9861   0.023  10.715   4.249
37602W        W 9862  26.804  11.882   1.726
37603W        W 9863  38.930  13.398  11.895
37604W        W 9864  33.631  14.584  14.069
37605W        W 9865   3.456  19.902  10.791
37606W        W 9866  30.648  21.367   1.848
37607W        W 9867  24.707   1.486   1.811
37608W        W 9868   9.333   0.330  14.271
37609W        W 9869  32.495   0.192  13.269
37610W        W 9870  18.993   0.443  12.935
37611W        W 9871  18.230  25.713   2.382
37612W        W 9872  11.220  11.911  11.569
37613W        W 9873  34.552  38.841   1.373
37614W        W 9874  29.955  33.015  10.454
37615W        W 9875  22.625  38.855  11.096
37616W        W 9876  35.451  19.019  13.958
37617W        W 9877  28.173  12.063  12.496
37618W        W 9878   6.856  12.842   1.997
37619W        W 9879   2.354  11.038   0.413
37620W        W 9880  38.612   2.938   2.171
37621W        W 9881   5.184  24.476   3.147
37622W        W 9882  44.828  13.340  10.737
37623W        W 9883  40.012  38.086  12.245
37624W        W 9884   7.389  27.142  10.650
37625W        W 9885   8.513  31.912  11.205
37626W        W 9886  37.967  17.633   3.340
37627W        W 9887  29.589  42.768  11.574
37628W        W 9888  36.923  38.850   2.654
37629W        W 9889  17.360  35.569   3.011
37630W        W 9890  34.727  16.165  13.851
37631W        W 9891   8.676  24.732   1.894
37632W        W 9892  42.511   7.489  11.122
37633W        W 9893  39.889  36.417   2.767
37634W        W 9894  20.661  37.318  12.652
37635W        W 9895  40.144  12.152   2.748
37636W        W 9896  21.684   0.196  12.509
37637W        W 9897   8.166  30.083   0.534
37638W        W 9898  23.057  10.087  12.106
37639W        W 9899  13.669  40.980   1.417
37640W        W 9900   0.038  31.350   3.728
37641W        W 9901   5.399  36.264  14.789
37642W        W 9902   4.971  40.099   3.615
37643W        W 9903  12.033  19.818  11.157
37644W        W 9904  18.064  37.244  10.796
37645W        W 9905  24.583  33.420  11.113
37646W        W 9906  35.178  25.928  11.605
37647W        W 9907   0.717  27.108  11.063
37648W        W 9908  37.971  34.033  11.563
37649W        W 9909  43.500  10.614   3.272
37650W        W 9910   6.316   7.191  14.939
37651W        W 9911   2.299  42.380   2.439
37652W        W 9912  18.564  27.867   4.298
37653W        W 9913  41.971  38.195   3.121
37654W        W 9914  12.571   5.761   2.401
37655W        W 9915  29.667  29.637   5.056
37656W        W 9916  44.344  44.357   3.100
37657W        W 9917   8.742  19.209   4.557
37658W        W 9918   8.856  13.670   2.421
37659W        W 9919   4.936  20.724  14.480
37660W        W 9920   7.369   8.939   0.450
37661W        W 9921  43.472  26.305   0.249
37662W        W 9922  35.769  39.766   1.199
37663W        W 9923  14.465  35.145  12.259
37664W        W 9924  34.042  30.481   1.020
37665W        W 9925  40.698  26.163  12.373
37666W        W 9926   7.725  28.083  11.485
37667W        W 9927  43.501  18.596  14.783
37668W        W 9928  10.303   2.410  13.826
37669W        W 9929  34.862   2.289   3.116
37670W        W 9930  32.724  42.264   1.409
37671W        W 9931  36.388  17.720   1.269
37672W        W 9932   1.285   7.804   0.317
37673W        W 9933  44.974  33.639  11.253
37674W        W 9934  12.916  40.539  13.477
37675W        W 9935  24.126  39.556   5.137
37676W        W 9936   9.614  23.426  12.610
37677W        W 9937  41.487   2.254  13.872
37678W        W 9938  31.369  21.650  10.692
37679W        W 9939  34.035  15.664  11.221
37680W        W 9940  24.241   6.167  13.872
37681W        W 9941  13.675  14.492  10.686
37682W        W 9942  33.026   3.682   2.880
37683W        W 9943   2.355  35.434   2.176
37684W        W 9944  22.447  35.611   4.802
37685W        W 9945   7.698  43.563   0.351
37686W        W 9946  36.125  32.907  12.486
37687W        W 9947   5.678  33.141   2.344
37688W        W 9948  24.561  40.066   0.481
37689W        W 9949  23.074  10.730   4.713
37690W        W 9950  26.212  16.255   0.646
37691W        W 9951  10.220  17.134  10.583
37692W        W 9952   2.773  27.262   3.621
37693W        W 9953  41.531  15.166   2.157
37694W        W 9954  17.658  28.416   0.604
37695W        W 9955  25.256  14.853  11.041
37696W        W 9956  34.156  16.645  13.392
37697W        W 9957  21.040   6.221   0.496
37698W        W 9958  19.179  10.850  14.396
37699W        W 9959  19.035  27.130  10.636
37700W        W 9960   4.107  42.932  10.566
37701W        W 9961  19.181  40.007   4.139
37702W        W 9962  24.932   2.652   2.261
37703W        W 9963  10.261  39.396  13.436
37704W        W 9964   9.261  19.526  12.903
37705W        W 9965  28.541  34.075  11.151
37706W        W 9966  18.304  14.205   0.365
37707W        W 9967   8.853  26.000   4.565
37708W        W 9968  42.104  30.093  12.576
37709W        W 9969  42.898  19.141  14.360
37710W        W 9970  36.973  41.263   0.051
37711W        W 9971  38.869  39.245  14.314
37712W        W 9972  19.330   1.617   0.815
37713W        W 9973  37.454   6.075  14.762
37714W        W 9974  33.311  19.669   3.179
37715W        W 9975   7.881  37.857   1.749
37716W        W 9976  17.227  15.523   3.391
37717W        W 9977   8.808  17.877  14.325
37718W        W 9978  27.249  26.205  10.848
37719W        W 9979  41.049  33.352   1.263
37720W        W 9980  41.399  11.885   2.873
37721W        W 9981  26.826  37.788   3.684
37722W        W 9982  42.322  22.576   2.585
37723W        W 9983  13.131  24.805  11.271
37724W        W 9984   9.130  31.118   4.599
37725W        W 9985  18.991  34.115   3.244
37726W        W 9986  35.836  20.704   2.236
37727W        W 9987  20.117   7.568   5.503
37728W        W 9988  18.196  17.669  12.071
37729W        W 9989  35.792  25.411  12.792
37730W        W 9990  18.551  10.766  12.559
37731W        W 9991   4.683  41.822  13.433
37732W        W 9992  33.847  21.599   1.750
37733W        W 9993  42.117  11.162   4.573
37734W        W 9994  35.425  40.081  13.375
37735W        W 9995   6.907  38.126  14.382
37736W        W 9996  40.282  28.475  14.098
37737W        W 9997  42.299   0.732   3.737
37738W        W 9998  37.009  18.806  11.148
37739W        W 9999   3.522   3.674   1.319
37740W        W10000  30.697   5.148  12.815
37741W        W10001   2.834   1.255   4.614
37742W        W10002  42.081  32.397   3.679
37743W        W10003  43.338   8.985   4.045
37744W        W10004  28.469  30.053  12.956
37745W        W10005  14.226  31.158   0.171
37746W        W10006  35.537   3.416  12.361
37747W        W10007  35.495   9.394   3.313
37748W        W10008  28.327  17.385  11.909
37749W        W10009  27.571  28.777   4.489
37750W        W10010  35.053  31.778   0.974
37751W        W10011   8.225  17.122   1.024
37752W        W10012  16.996  43.786  13.438
37753W        W10013  11.131  13.128   2.381
37754W        W10014  35.215  37.449   5.052
37755W        W10015   1.954  25.721   1.407
37756W        W10016  12.476   7.744  12.860
37757W        W10017   7.394  10.029   1.970
37758W        W10018  29.791  16.855  14.835
37759W        W10019  20.763  31.426   0.652
37760W        W10020  34.532   5.847  12.256
37761W        W10021  19.303  16.311  13.901
37762W        W10022  23.126  34.304  13.001
37763W        W10023  11.859  17.796   1.583
37764W        W10024  24.507  18.938  13.437
37765W        W10025  38.241  23.071   0.003
37766W        W10026   0.806  41.837   3.189
37767W        W10027  15.132  22.603   1.442
37768W        W10028  15.355  40.955   1.756
37769W        W10029  26.454  14.752   2.367
37770W        W10030  32.887   1.742   0.497
37771W        W10031  21.825  34.013  11.477
37772W        W10032  10.350  43.258  12.045
37773W        W10033   3.968  44.443   4.091
37774W        W10034  16.561  11.170  13.412
37775W        W10035   4.767  27.454  13.942
37776W        W10036  16.569  34.478   3.197
37777W        W10037  29.926  35.851   2.362
37778W        W10038   9.335  23.633   3.977
37779W        W10039  15.360   9.913   3.791
37780W        W10040  12.284  23.735   4.398
37781W        W10041  25.662  41.671  12.900
37782W        W10042   8.548  22.998   4.687
37783W        W10043  11.556  25.838  13.885
37784W        W10044  44.094  22.155   1.362
37785W        W10045  42.271  16.701  13.816
37786W        W10046  29.468  24.117   4.922
37787W        W10047  12.175  35.538   3.365
37788W        W10048  26.429  34.660   4.055
37789W        W10049  15.253  30.612  10.996
37790W        W10050  31.189  19.873  11.024
37791W        W10051  42.420  28.553   4.159
37792W        W10052  40.309  33.553  14.073
37793W        W10053  36.626   2.648  12.482
37794W        W10054   0.465   7.341   2.217
37795W        W10055  20.607  36.064  14.284
37796W        W10056  28.539  37.400   2.663
37797W        W10057  24.054   8.231  11.538
37798W        W10058   5.951  25.690   3.204
37799W        W10059  33.915  24.427   0.867
37800W        W10060  42.895  23.741  13.409
37801W        W10061  40.765   7.606  12.458
37802W        W10062  29.333   6.731  14.917
37803W        W10063  33.145  22.179   0.350
37804W        W10064  15.619  11.496   3.799
37805W        W10065  37.379   5.334   3.454
37806W        W10066  15.660   7.911  11.463
37807W        W10067  14.650  28.409  12.244
37808W        W10068   1.787  15.727   4.683
37809W        W10069  34.672   6.745  12.393
37810W        W10070   5.402  23.794   1.825
37811W        W10071   0.853  18.724  11.580
37812W        W10072  21.320  35.714   3.590
37813W        W10073  10.396  10.808  11.654
37814W        W10074  17.586  16.119   0.828
37815W        W10075  24.121   2.940   0.264
37816W        W10076   7.828  29.584   0.026
37817W        W10077  18.293   3.371   1.802
37818W        W10078  22.057  37.873  14.021
37819W        W10079  18.162  19.431   0.216
37820W        W10080   6.764  19.583  11.571
37821W        W10081  17.416  17.495   2.579
37822W        W10082  44.842  21.233  14.061
37823W        W10083  34.958  41.398  14.780
37824W        W10084  32.346  26.800   0.378
37825W        W10085  11.212  18.292  14.892
37826W        W10086  40.426  26.467  12.061
37827W        W10087  21.964  27.815  10.629
37828W        W10088   8.306  10.736  14.561
37829W        W10089   0.499   0.854  11.131
37830W        W10090  10.370  13.633   0.746
37831W        W10091  12.571  40.142  13.421
37832W        W10092  32.586  33.410  14.408
37833W        W10093  42.295  17.039   4.730
37834W        W10094  16.921  24.163  11.610
37835W        W10095  23.705  31.448  11.199
37836W        W10096  43.239   4.347   1.303
37837W        W10097   9.323  22.232   3.851
37838W        W10098  16.216  44.297  12.118
37839W        W10099   9.894  23.254   0.320
37840W        W10100  17.707  32.408   4.616
37841W        W10101  36.338  26.501   0.891
37842W        W10102   8.791  34.082   3.672
37843W        W10103  39.857  18.352  13.344
37844W        W10104   8.933  11.582  11.082
37845W        W10105  43.033   8.780   0.397
37846W        W10106  34.898  16.248   3.704
37847W        W10107  32.367  11.754  11.831
37848W        W10108  37.607  34.295   0.932
37849W        W10109  31.836  32.217  10.020
37850W        W10110  20.740  33.511  13.562
37851W        W10111  24.444  25.691  14.936
37852W        W10112  44.187  37.736  11.555
37853W        W10113  13.795  30.856  10.198
37854W        W10114  30.408  38.576   2.183
37855W        W10115  27.956  33.176   1.598
37856W        W10116  12.277   8.224   1.051
37857W        W10117  10.103  32.075  14.541
37858W        W10118  26.739  14.346   2.242
37859W        W10119  32.975  40.948  14.343
37860W        W10120  29.341   6.532   3.446
37861W        W10121  34.814  23.723   2.266
37862W        W10122  14.060   9.148   0.581
37863W        W10123  44.588   8.721   4.629
37864W        W10124  36.083  40.204  13.548
37865W        W10125  12.531  39.603   3.406
37866W        W10126  17.162  12.651   2.227
37867W        W10127   6.575   7.219  11.685
37868W        W10128  28.153  11.864  13.942
37869W        W10129   0.382  43.942  13.133
37870W        W10130  44.062  14.907  11.011
37871W        W10131   1.765  30.458  10.666
37872W        W10132  23.234  13.336  13.468
37873W        W10133  33.252  20.164  12.475
37874W        W10134  10.903  34.888   3.640
37875W        W10135  27.043   9.905   0.570
37876W        W10136  10.750   2.181  10.748
37877W        W10137  14.100  27.519  14.273
37878W        W10138  42.403  30.954   4.082
37879W        W10139  37.073  25.659  13.017
37880W        W10140  38.530  28.444  10.669
37881W        W10141  28.720  22.018   1.937
37882W        W10142  18.619  12.384  14.672
37883W        W10143  13.762  13.896  12.404
37884W        W10144  15.385  43.541   3.144
37885W        W10145  22.050  19.066  10.019
37886W        W10146  41.947  38.831   1.410
37887W        W10147  29.876   2.053  10.330
37888W        W10148   6.149   4.923   0.219
37889W        W10149  17.031  42.542  11.495
37890W        W10150   8.589  34.937   1.282
37891W        W10151  18.906  39.906   0.477
37892W        W10152  42.354   2.374  11.012
37893W        W10153  31.402  20.981  12.370
37894W        W10154  15.619  18.781  12.714
37895W        W10155  13.039  41.908   0.349
37896W        W10156  18.915  13.717  14.854
37897W        W10157  14.238   4.293  11.684
37898W        W10158  38.305  27.832  13.048
37899W        W10159   6.682   9.768   3.235
37900W        W10160   4.673  28.677   4.883
37901W        W10161  17.858  17.682   2.677
37902W        W10162   8.315  40.352   4.303
37903W        W10163  30.060  32.601   2.546
37904W        W10164  13.662  38.819   1.888
37905W        W10165  13.835  20.146  14.378
37906W        W10166  10.460  12.848  11.996
37907W        W10167  25.828  22.550  11.120
37908W        W10168  24.109  12.510   5.019
37909W        W10169  17.110  33.358   0.245
37910W        W10170  44.946  10.470  10.694
37911W        W10171   8.503   4.040  11.245
37912W        W10172  15.684  31.334  13.768
37913W        W10173  17.299  14.920  14.672
37914W        W10174  40.598  35.245   4.628
37915W        W10175  14.657   3.828  11.051
37916W        W10176  21.217  40.334   0.761
37917W        W10177  15.750   7.156   4.522
37918W        W10178   0.316  17.634   4.808
37919W        W10179  23.104  21.107  10.311
37920W        W10180  22.289  13.784   4.822
37921W        W10181  24.482  44.992   3.970
37922W        W10182   9.857   0.731   4.599
37923W        W10183  26.808  18.090   1.686
37924W        W10184  15.585   5.156  13.539
37925W        W10185  16.803  15.917   4.046
37926W        W10186  43.935  40.264   3.918
37927W        W10187   7.379  32.966  11.076
37928W        W10188  21.685   3.435   1.216
37929W        W10189  28.567  16.372   0.010
37930W        W10190  17.259  18.446  13.116
37931W        W10191   8.246   2.920  12.071
37932W        W10192  21.753  22.755   4.169
37933W        W10193  33.710  33.590   2.300
37934W        W10194  33.842  10.119   4.525
37935W        W10195  35.166  44.574  10.681
37936W        W10196   2.766  27.670  13.506
37937W        W10197  26.296   2.275  11.964
37938W        W10198  13.392  12.633   1.173
37939W        W10199   2.084  12.544  10.674
37940W        W10200  44.944  27.228  14.357
37941W        W10201  33.283  24.549   3.760
37942W        W10202   0.946  11.364  14.213
37943W        W10203  27.071  11.966   0.302
37944W        W10204  29.918  26.121  13.355
37945W        W10205  12.879   1.165  11.372
37946W        W10206  19.090   9.146  10.655
37947W        W10207   8.316  29.665   0.257
37948W        W10208  12.766  12.668  14.565
37949W        W10209  33.994   6.737  14.031
37950W        W10210   9.216  19.717   5.231
37951W        W10211   9.362  30.768  11.050
37952W        W10212   2.562  15.532  14.924
37953W        W10213  34.690  31.208  12.951
37954W        W10214   1.704  38.541  12.396
37955W        W10215  24.615  29.584  11.176
37956W        W10216  22.772  36.671   4.061
37957W        W10217   4.384  28.694  12.473
37958W        W10218  18.167  28.554  11.157
37959W        W10219  19.028   8.674  13.863
37960W        W10220   7.210  21.299   1.229
37961W        W10221  15.084  13.792   9.838
37962W        W10222  17.518  36.077  13.051
37963W        W10223  34.312  20.834   4.662
37964W        W10224  34.921  31.678  13.005
37965W        W10225  26.643  19.773   4.449
37966W        W10226  41.482  42.681  12.191
37967W        W10227  37.326  41.919   3.171
37968W        W10228  14.141  37.822   2.191
37969W        W10229  38.486  25.659   2.388
37970W        W10230   0.548   4.821  14.478
37971W        W10231  24.703  24.927   2.032
37972W        W10232   7.454   0.335   0.568
37973W        W10233  11.257  32.191   0.583
37974W        W10234  27.131  22.671  13.458
37975W        W10235  23.527  28.246   4.519
37976W        W10236  26.189  41.857  12.090
37977W        W10237  15.652  14.716   0.855
37978W        W10238   5.490   7.750  13.839
37979W        W10239  42.129  14.392   1.731
37980W        W10240  14.683  14.679  12.392
37981W        W10241   8.705  38.962  12.588
37982W        W10242  42.006   3.804   0.284
37983W        W10243  12.000  40.884   0.219
37984W        W10244  32.990   4.968   2.348
37985W        W10245  28.284  17.132   1.331
37986W        W10246  37.347  24.697  12.437
37987W        W10247  39.485  18.162  11.062
37988W        W10248   6.603  35.770   0.723
37989W        W10249  18.536  30.114  11.298
37990W        W10250   6.970  43.047  14.848
37991W        W10251  23.252  44.817  11.545
37992W        W10252  43.785  37.627  11.985
37993W        W10253   7.618  35.405   1.975
37994W        W10254  27.696   2.613  14.802
37995W        W10255  44.240  41.358  12.417
37996W        W10256  40.301  13.327   2.292
37997W        W10257  20.040   2.872  14.447
37998W        W10258  11.354  11.903   2.640
37999W        W10259   2.938  27.555  12.997
38000W        W10260   3.719  11.881  12.447
38001W        W10261  43.243   7.502   3.675
38002W        W10262  10.610   1.759  13.229
38003W        W10263  37.600  35.160  13.464
38004W        W10264  32.672   2.775   4.593
38005W        W10265  24.500  29.789  14.492
38006W        W10266  37.622  30.837   3.624
38007W        W10267  15.608  27.126   5.186
38008W        W10268  41.499  18.057  13.033
38009W        W10269   7.935  29.200   4.156
38010W        W10270  32.648  36.447   2.750
38011W        W10271  41.347  15.572  10.738
38012W        W10272  36.048   4.788  10.660
38013W        W10273  20.957  20.688   1.758
38014W        W10274  41.802  19.134  10.641
38015W        W10275  10.128  20.750  14.452
38016W        W10276   0.128   7.958   3.685
38017W        W10277   7.845  42.044   3.173
38018W        W10278  25.905  19.260  11.990
38019W        W10279  43.211  29.163  12.803
38020W        W10280  10.325   1.150   4.032
38021W        W10281  18.538  37.352   3.207
38022W        W10282  23.931  27.176  12.352
38023W        W10283  12.770  24.444  11.195
38024W        W10284  40.080   2.572  12.383
38025W        W10285   5.904  32.140   0.416
38026W        W10286  26.190  19.031  14.894
38027W        W10287  29.080   2.342   1.834
38028W        W10288   8.845  40.772  12.129
38029W        W10289  16.877   3.326   5.074
38030W        W10290  17.303  20.163  14.997
38031W        W10291  39.934  44.235   0.336
38032W        W10292  18.465  20.613   2.188
38033W        W10293  23.591  27.479  14.398
38034W        W10294  34.182  21.811   2.141
38035W        W10295  21.012  35.950   4.169
38036W        W10296  16.140  16.629  13.591
38037W        W10297  18.552  22.112  14.838
38038W        W10298  29.573  32.066   4.939
38039W        W10299   9.025  33.221  12.546
38040W        W10300   9.657  17.623  12.361
38041W        W10301  30.132  36.958   3.305
38042W        W10302   7.615  15.852  10.658
38043W        W10303  42.820  36.349  11.382
38044W        W10304  32.892  36.277   1.470
38045W        W10305  31.531  23.745   0.793
38046W        W10306  32.654  23.177  10.864
38047W        W10307  25.209  17.753  14.322
38048W        W10308  35.860  36.876  13.003
38049W        W10309  20.137  24.934  10.291
38050W        W10310   8.753  33.420  12.033
38051W        W10311  14.402  38.994  12.258
38052W        W10312  17.376   2.777   4.117
38053W        W10313  27.163  10.114   2.877
38054W        W10314  20.152   7.337   0.544
38055W        W10315  34.378   4.358   2.291
38056W        W10316  39.449  12.406   4.195
38057W        W10317  39.950  19.952  11.534
38058W        W10318  38.397  29.514   0.835
38059W        W10319  17.111   1.909   4.646
38060W        W10320  31.753  44.564  11.063
38061W        W10321   4.794  14.869  13.865
38062W        W10322  19.315   9.391  11.955
38063W        W10323  21.379  32.920   4.974
38064W        W10324  35.924  24.158  10.993
38065W        W10325  12.733  43.701  10.750
38066W        W10326  31.893  41.305  14.188
38067W        W10327  34.336   3.839   2.336
38068W        W10328  28.459  36.446   1.714
38069W        W10329   4.291  41.716   1.932
38070W        W10330   7.383  14.806  12.285
38071W        W10331  42.059  42.726   4.324
38072W        W10332  22.244  13.184   4.896
38073W        W10333  18.702  40.118  13.278
38074W        W10334  35.602   8.675  14.505
38075W        W10335  26.298   6.642   0.481
38076W        W10336  38.367   9.006  13.031
38077W        W10337  24.554  39.543  11.613
38078W        W10338   2.876   6.380   4.401
38079W        W10339  35.783  29.318   2.257
38080W        W10340  40.014  29.390  12.875
38081W        W10341  24.290  19.988   2.314
38082W        W10342  21.776  20.125   3.207
38083W        W10343  37.364  27.736  14.446
38084W        W10344  15.452  16.983   4.119
38085W        W10345  28.335  13.727   4.518
38086W        W10346  10.695  28.716   1.566
38087W        W10347  22.824  25.947   2.198
38088W        W10348  34.926   3.427  11.175
38089W        W10349  22.124  24.507   0.414
38090W        W10350   3.920  44.936  13.827
38091W        W10351   1.952   2.899  11.185
38092W        W10352  26.619  39.573   1.858
38093W        W10353  27.094  26.075   3.185
38094W        W10354   2.704  26.883  12.464
38095W        W10355  31.966  36.390  14.121
38096W        W10356  27.433  31.698   2.694
38097W        W10357   7.949  19.292  11.072
38098W        W10358   9.332  36.787   3.276
38099W        W10359  43.261  15.348  14.891
38100W        W10360  26.001   6.239  10.808
38101W        W10361   0.934  10.312   1.851
38102W        W10362   8.966  41.883  13.395
38103W        W10363  11.783  30.764  12.857
38104W        W10364  22.232  44.377  13.494
38105W        W10365  15.551  32.924   2.332
38106W        W10366  32.541   6.439   0.302
38107W        W10367  22.174  23.168  10.415
38108W        W10368  27.194   7.886  14.500
38109W        W10369  35.531  13.698   1.414
38110W        W10370  26.042   6.294   2.012
38111W        W10371  34.554  44.383  12.940
38112W        W10372  17.808  21.361   2.847
38113W        W10373  14.559  35.805   3.334
38114W        W10374  21.261  28.983   1.761
38115W        W10375  13.799  22.975   2.028
38116W        W10376  40.521  22.650   4.112
38117W        W10377  24.445  27.858  14.436
38118W        W10378  30.646  32.158   4.639
38119W        W10379   3.168  11.363  13.387
38120W        W10380  21.017  25.053  12.150
38121W        W10381  23.119  42.869  14.699
38122W        W10382  35.013   2.526   1.266
38123W        W10383  12.165  40.750   2.070
38124W        W10384  16.510  29.550  10.746
38125W        W10385   1.633  33.236  11.666
38126W        W10386  31.335   0.881   2.058
38127W        W10387   4.101  26.174   5.089
38128W        W10388   3.363  23.591  13.042
38129W        W10389  34.285  23.624   2.978
38130W        W10390   1.748  39.510  14.734
38131W        W10391  37.886  11.062   2.236
38132W        W10392   8.683  18.739   4.332
38133W        W10393  38.511   9.412   4.203
38134W        W10394  40.022  26.590   4.215
38135W        W10395  34.970  38.800   2.627
38136W        W10396  21.353  17.832  14.313
38137W        W10397  11.116  16.792  12.589
38138W        W10398   5.665   4.758  13.922
38139W        W10399  23.543  16.209  14.820
38140W        W10400  15.212  30.108   1.603
38141W        W10401  28.272   2.672   3.961
38142W        W10402  33.409  37.509   0.896
38143W        W10403  29.647  21.214  12.593
38144W        W10404   0.572  18.621  13.393
38145W        W10405   9.160  18.249  14.429
38146W        W10406  37.560  36.284   1.002
38147W        W10407  40.049  40.364  14.688
38148W        W10408   8.220  33.367   2.540
38149W        W10409  22.044  14.729  11.751
38150W        W10410   5.822   6.461   0.911
38151W        W10411  35.482  24.595  13.642
38152W        W10412  21.121   1.970  12.386
38153W        W10413  30.826  25.134   0.252
38154W        W10414  22.652  36.997  14.079
38155W        W10415  41.825  10.254  11.145
38156W        W10416   2.956   1.989   3.356
38157W        W10417   9.402   0.978   1.346
38158W        W10418  26.105  32.516   4.226
38159W        W10419  27.272  24.038   3.685
38160W        W10420   9.717  42.796  14.861
38161W        W10421  16.193   9.381   2.827
38162W        W10422  13.601  26.299  10.629
38163W        W10423  38.432  40.567   4.755
38164W        W10424  18.106  11.624   0.386
38165W        W10425  23.195  37.507  12.462
38166W        W10426  39.008  31.983  14.821
38167W        W10427  11.739  31.593  11.879
38168W        W10428  20.558  31.937   0.771
38169W        W10429  40.504   6.107   2.829
38170W        W10430  39.944  23.970  11.454
38171W        W10431   8.670  33.451  11.181
38172W        W10432  42.666  40.223  10.659
38173W        W10433  36.364  14.318  10.688
38174W        W10434  20.287  14.474  13.873
38175W        W10435  30.562   6.021  12.444
38176W        W10436  10.157  24.769   1.153
38177W        W10437   9.616   3.522  12.249
38178W        W10438  29.599  10.859  14.966
38179W        W10439  41.718  19.724  12.224
38180W        W10440  28.009  26.108   3.321
38181W        W10441   9.236  32.232   0.674
38182W        W10442  30.033  16.805   3.805
38183W        W10443  22.798  18.648   0.373
38184W        W10444  20.375  30.052  13.970
38185W        W10445  37.005   4.937  12.548
38186W        W10446   7.835  23.609  10.316
38187W        W10447  30.249  28.373  14.519
38188W        W10448  31.732  27.121   0.046
38189W        W10449  24.050   1.681   2.324
38190W        W10450  44.953  22.566  14.623
38191W        W10451  11.793  25.762   2.243
38192W        W10452  33.066   9.323   2.440
38193W        W10453  26.388  22.724   0.289
38194W        W10454  17.272  12.779   3.186
38195W        W10455  21.748  13.646   3.269
38196W        W10456   6.943   7.050   3.541
38197W        W10457  19.694  23.288  13.923
38198W        W10458   4.744  20.477   4.644
38199W        W10459  17.144  15.087   0.339
38200W        W10460  34.633  12.847  10.808
38201W        W10461  39.495  11.103   2.827
38202W        W10462   4.746  41.288   2.834
38203W        W10463  20.756  15.390  12.907
38204W        W10464   3.888  27.117   2.282
38205W        W10465  27.999  19.714  13.391
38206W        W10466  18.277  13.779  14.048
38207W        W10467   9.814   7.292  12.997
38208W        W10468  43.784  22.006  12.276
38209W        W10469  18.563  21.381   4.435
38210W        W10470  44.339  34.168  13.600
38211W        W10471  24.775  14.096   3.282
38212W        W10472  43.037  41.780   4.230
38213W        W10473  39.298  23.247   3.709
38214W        W10474  43.416  19.428   0.525
38215W        W10475  44.921  20.115   1.421
38216W        W10476  42.383  34.813  13.957
38217W        W10477  28.616  18.245  12.894
38218W        W10478  24.230  30.701   0.246
38219W        W10479  38.024  10.195   5.437
38220W        W10480  24.743  33.150   4.003
38221W        W10481   8.373   6.990  12.077
38222W        W10482   8.146  14.793   3.178
38223W        W10483  39.844  27.091   3.436
38224W        W10484  16.154  33.656   4.117
38225W        W10485  24.242  26.755   4.334
38226W        W10486  24.277  16.521  11.138
38227W        W10487  41.866  16.069   3.986
38228W        W10488   2.349  39.050   0.320
38229W        W10489  30.462  44.347  13.971
38230W        W10490  16.101  40.665   3.651
38231W        W10491  24.684  11.796  12.635
38232W        W10492  43.482  42.249   1.777
38233W        W10493  40.856  21.673   0.823
38234W        W10494  11.861  25.982  12.560
38235W        W10495  20.779   5.851   1.431
38236W        W10496  17.187  25.472  11.521
38237W        W10497  41.865  18.976  14.462
38238W        W10498  38.295  25.529   1.318
38239W        W10499  10.726  28.400   0.270
38240W        W10500  13.995  35.979  12.579
38241W        W10501   8.253   3.912  13.017
38242W        W10502  20.193  36.892   1.530
38243W        W10503  16.453  18.647  11.583
38244W        W10504  34.324   7.363   0.425
38245W        W10505  12.562  34.689   1.755
38246W        W10506  44.025  10.124  14.275
38247W        W10507  31.436  19.154  14.767
38248W        W10508  36.511   0.985  14.211
38249W        W10509  43.245  30.898  12.706
38250W        W10510  16.132   2.410   3.740
38251W        W10511  26.656  18.984   2.181
38252W        W10512  12.240   9.826  13.950
38253W        W10513  35.841   4.437   2.344
38254W        W10514  27.619  24.305  11.652
38255W        W10515  22.200  31.583  13.595
38256W        W10516  38.471  27.567  14.515
38257W        W10517  41.946  13.045  12.551
38258W        W10518   5.368  16.337  14.924
38259W        W10519   5.915  24.629  14.531
38260W        W10520  20.554   3.298  11.544
38261W        W10521  39.575  29.877  11.087
38262W        W10522  13.375  35.813  10.672
38263W        W10523  39.943   2.419   4.699
38264W        W10524  28.300  35.553   1.917
38265W        W10525  13.674  34.008   4.394
38266W        W10526  16.240   7.795   2.322
38267W        W10527  44.650  13.549   3.863
38268W        W10528  28.048  19.075  14.156
38269W        W10529  44.039   5.480   4.178
38270W        W10530  25.778   2.957   1.344
38271W        W10531  22.611  34.734  12.207
38272W        W10532  15.767  13.330   3.930
38273W        W10533   0.074  42.309   0.303
38274W        W10534  29.191   2.818  12.422
38275W        W10535  30.222   5.580   1.510
38276W        W10536  23.766   1.275   4.610
38277W        W10537  22.712  41.579   2.680
38278W        W10538  44.319   3.414   3.376
38279W        W10539  42.521  21.557  12.398
38280W        W10540  34.402  14.829   3.405
38281W        W10541  23.517  22.104  14.706
38282W        W10542   2.370  25.067   4.220
38283W        W10543   0.926  23.475  12.029
38284W        W10544  15.394  37.314   4.491
38285W        W10545  38.287  10.879   5.121
38286W        W10546   6.251  13.986  14.854
38287W        W10547  11.346   9.958  14.027
38288W        W10548   0.951   1.160  13.425
38289W        W10549  18.026  34.328   1.362
38290W        W10550  30.698  12.623  10.817
38291W        W10551   0.811   0.112   0.964
38292W        W10552   7.329  22.660  13.034
38293W        W10553  32.711  23.462   0.893
38294W        W10554   5.317  36.603   0.232
38295W        W10555  27.060  38.569   0.860
38296W        W10556  26.941  40.795   1.332
38297W        W10557  13.655  35.392  10.592
38298W        W10558   0.917  18.625   3.489
38299W        W10559  39.063  39.849   0.867
38300W        W10560  31.623  34.399   0.965
38301W        W10561  35.918  21.784  11.390
38302W        W10562  12.629  12.243  14.331
38303W        W10563  26.512   1.038  11.472
38304W        W10564  25.027   1.438  11.680
38305W        W10565   4.877   8.109  14.385
38306W        W10566  20.608  15.357   4.836
38307W        W10567   3.136  23.930  14.457
38308W        W10568  14.784  27.005   4.090
38309W        W10569  10.696  24.177  14.387
38310W        W10570   0.700  32.539  12.059
38311W        W10571   6.430  19.437   3.151
38312W        W10572  17.596  27.931   4.089
38313W        W10573   5.475   6.274   3.318
38314W        W10574  17.576  22.536  14.393
38315W        W10575  22.018  24.962   2.842
38316W        W10576  44.219  37.792   1.006
38317W        W10577  23.212  24.691  14.388
38318W        W10578  31.896   2.345   2.872
38319W        W10579  40.386  37.127   0.030
38320W        W10580   0.999  14.280  10.078
38321W        W10581  18.863   6.154   4.272
38322W        W10582  25.285  20.097   3.394
38323W        W10583  16.651  35.405   3.580
38324W        W10584   2.744  19.319   2.658
38325W        W10585   5.233  30.424  13.509
38326W        W10586  13.806  11.886  12.679
38327W        W10587  14.037  35.527   3.609
38328W        W10588   2.767  10.646   2.857
38329W        W10589   5.326  21.617   3.917
38330W        W10590  39.903  12.734   3.181
38331W        W10591  35.808  24.336   3.132
38332W        W10592  12.338  12.665  14.251
38333W        W10593  10.696  40.224  14.906
38334W        W10594   5.789  20.087  10.938
38335W        W10595  39.974  30.988  14.520
38336W        W10596  25.341  17.516   3.663
38337W        W10597  37.941   4.546   4.757
38338W        W10598  18.707   5.274   0.046
38339W        W10599   2.545  12.027  14.498
38340W        W10600  39.280  34.135   3.713
38341W        W10601  16.704  25.432  10.499
38342W        W10602  11.780  44.363   2.161
38343W        W10603  15.138   2.320   1.990
38344W        W10604  19.994   3.312   3.868
38345W        W10605  19.284   6.294   3.312
38346W        W10606  42.178  33.105  13.333
38347W        W10607  12.741  36.586   2.693
38348W        W10608  35.973   9.539  14.816
38349W        W10609  24.218  21.435   4.193
38350W        W10610  24.203  38.273  13.750
38351W        W10611  17.414   2.637  11.816
38352W        W10612  19.324  29.405  12.464
38353W        W10613  31.695  24.057   1.173
38354W        W10614  12.205  21.076  12.003
38355W        W10615  44.699  35.599   0.518
38356W        W10616  17.210  24.878   4.563
38357W        W10617   9.199   7.865  14.360
38358W        W10618  15.583  22.294  13.887
38359W        W10619  31.989  43.842  14.394
38360W        W10620  40.027  39.114   1.960
38361W        W10621   2.271   4.724   3.876
38362W        W10622  23.717  32.381   3.617
38363W        W10623  17.944  30.685   0.749
38364W        W10624  43.377  38.056   1.951
38365W        W10625   1.576   6.372  10.688
38366W        W10626  16.333  42.104   3.044
38367W        W10627  20.559  13.351   1.028
38368W        W10628   3.870  15.698  11.683
38369W        W10629  16.312  33.606  13.089
38370W        W10630  28.133  33.512  14.817
38371W        W10631  38.184  35.977   2.161
38372W        W10632   4.271  26.658   4.958
38373W        W10633  10.255  24.630   4.499
38374W        W10634   5.971  41.712  14.267
38375W        W10635  36.103  37.567  14.243
38376W        W10636  39.485  28.080  11.920
38377W        W10637  31.182   3.870  10.956
38378W        W10638  16.392  42.262   1.301
38379W        W10639   8.439  36.996   4.633
38380W        W10640  19.653  37.312   0.876
38381W        W10641   1.953  40.993   4.713
38382W        W10642   7.915  18.476  12.236
38383W        W10643  27.961  27.049   2.456
38384W        W10644  20.274  43.744   4.209
38385W        W10645   8.266  31.970  13.389
38386W        W10646  21.331  44.250   1.301
38387W        W10647   4.288  35.442  10.638
38388W        W10648   8.254   3.709   1.713
38389W        W10649  26.831  41.629  10.435
38390W        W10650  13.494  36.015   2.468
38391W        W10651  29.114  15.800   4.317
38392W        W10652  42.229  21.437   1.004
38393W        W10653  24.190  33.144   4.637
38394W        W10654  28.467  24.825  10.681
38395W        W10655  38.275  22.444  13.276
38396W        W10656  31.154   1.174   4.554
38397W        W10657  26.174  20.064  14.857
38398W        W10658  13.097  26.099  12.011
38399W        W10659  25.784   2.437   4.891
38400W        W10660   6.876  31.624   1.242
38401W        W10661  34.898  19.578   4.351
38402W        W10662   6.024  32.880   3.648
38403W        W10663   1.736   4.425   0.419
38404W        W10664  32.022  32.173   4.581
38405W        W10665  17.787   9.619   3.557
38406W        W10666  29.082  10.789   3.533
38407W        W10667   6.258  36.591  11.196
38408W        W10668  40.261  40.967  12.945
38409W        W10669   2.281  17.083   0.170
38410W        W10670  44.383  31.601   3.093
38411W        W10671  21.547  14.262  13.753
38412W        W10672  25.523  29.926  14.430
38413W        W10673  17.572  30.474  10.831
38414W        W10674  22.552  36.291   0.237
38415W        W10675  32.834  25.724   3.845
38416W        W10676  33.473  41.319  13.511
38417W        W10677   1.011  41.605  11.257
38418W        W10678  28.622  30.628  12.078
38419W        W10679  42.272   6.715  13.524
38420W        W10680  37.798   1.955  10.993
38421W        W10681  26.701  13.622  12.084
38422W        W10682   8.491  38.530   1.967
38423W        W10683  38.720  15.480  12.861
38424W        W10684  26.498  38.512  10.800
38425W        W10685   6.433  27.644  14.972
38426W        W10686   2.778  31.360  11.141
38427W        W10687  30.517  30.862   2.416
38428W        W10688  31.010  12.102  13.558
38429W        W10689  23.480  36.881   3.309
38430W        W10690  21.599   1.885   2.508
38431W        W10691  21.285  21.971   3.179
38432W        W10692  11.569  40.442   3.212
38433W        W10693  14.265  27.405   2.401
38434W        W10694  13.598  25.087  12.056
38435W        W10695  33.475  18.695   0.771
38436W        W10696  13.197  37.463   1.397
38437W        W10697   2.143  44.923  12.437
38438W        W10698  42.740  12.388  12.863
38439W        W10699   0.753  12.644  11.189
38440W        W10700   9.639  26.897   4.137
38441W        W10701  14.430  25.194   4.997
38442W        W10702  20.259   7.753   1.906
38443W        W10703  28.141  26.898  10.835
38444W        W10704  10.204  19.988   0.844
38445W        W10705  44.951  43.539   2.751
38446W        W10706  44.026  21.102  12.877
38447W        W10707  29.128  44.759   3.690
38448W        W10708   5.923   0.958  10.559
38449W        W10709  26.113  31.578   3.700
38450W        W10710  28.632  13.013   2.522
38451W        W10711  35.403  39.999   1.465
38452W        W10712  21.154  19.193  14.781
38453W        W10713  36.591  23.478  11.338
38454W        W10714  32.158  41.272   1.293
38455W        W10715  43.395   6.363  13.896
38456W        W10716  25.825  43.311   0.323
38457W        W10717  15.178   0.924  13.907
38458W        W10718  22.700  14.290  12.547
38459W        W10719  30.046  23.037  10.717
38460W        W10720  37.609  12.489   1.255
38461W        W10721  17.548  10.419  11.030
38462W        W10722  12.417  24.448  14.615
38463W        W10723   2.301  33.975  14.811
38464W        W10724  21.944  40.219   0.200
38465W        W10725   8.758   2.446   1.882
38466W        W10726  18.334  24.036  12.949
38467W        W10727   4.019  19.178   1.430
38468W        W10728   3.503  12.593   4.818
38469W        W10729  39.825  36.123   2.334
38470W        W10730   4.262  43.865   0.445
38471W        W10731  41.064   6.689   2.455
38472W        W10732  24.280  21.638  11.496
38473W        W10733  28.471   4.505  13.586
38474W        W10734  12.508  20.457   3.534
38475W        W10735  27.535   5.741   2.387
38476W        W10736  29.385  42.917   3.668
38477W        W10737  12.551   3.287  10.827
38478W        W10738   8.341  16.250   4.406
38479W        W10739  14.665  44.829  14.496
38480W        W10740   0.279  35.169   1.215
38481W        W10741  17.785  42.652   3.309
38482W        W10742  33.895   8.766   0.407
38483W        W10743   8.769  42.209   3.803
38484W        W10744  21.961  31.027   1.458
38485W        W10745  27.838  12.183   0.879
38486W        W10746  11.180  18.825   1.789
38487W        W10747  11.710  27.170  13.293
38488W        W10748  18.102  40.808   2.133
38489W        W10749  32.443  12.808   0.375
38490W        W10750  40.855  41.011  14.359
38491W        W10751  39.770  27.567  11.906
38492W        W10752  16.576  37.004   1.949
38493W        W10753  29.212  20.286  11.928
38494W        W10754  20.865   2.426  14.416
38495W        W10755  44.392  30.656   2.674
38496W        W10756  17.158   7.192  14.024
38497W        W10757  40.634  27.656  13.028
38498W        W10758  39.548  36.017   1.918
38499W        W10759  21.776  18.612   4.480
38500W        W10760   0.336   8.165   0.347
38501W        W10761  10.716  24.069   0.897
38502W        W10762  39.100   2.637  12.024
38503W        W10763  26.036  43.676  14.942
38504W        W10764  27.089  41.096   2.336
38505W        W10765  39.377   9.705   0.909
38506W        W10766  41.253  32.037   3.762
38507W        W10767  12.306  43.388  14.612
38508W        W10768  23.850  18.270   2.417
38509W        W10769  11.639  10.370   0.490
38510W        W10770   2.429  27.324   4.860
38511W        W10771   5.152  44.937   0.162
38512W        W10772  29.165  36.636  14.267
38513W        W10773  27.425  40.435   0.641
38514W        W10774   4.887  41.130   3.527
38515W        W10775   4.366  14.113   4.971
38516W        W10776  44.986  33.030   4.496
38517W        W10777  28.540  39.894   1.739
38518W        W10778  28.267  28.457   4.075
38519W        W10779  12.873  15.005   2.656
38520W        W10780  26.152  18.224  14.258
38521W        W10781  16.823  36.587   2.845
38522W        W10782   9.872  32.837  12.103
38523W        W10783   2.379  29.519   3.251
38524W        W10784  10.139  21.652  10.739
38525W        W10785  10.715  11.821   1.227
38526W        W10786  27.279  28.522  14.811
38527W        W10787  13.351  29.509   3.879
38528W        W10788   8.879  32.596  13.212
38529W        W10789   0.954  41.894   4.202
38530W        W10790  43.855  14.769   3.740
38531W        W10791   5.400   6.299   2.328
38532W        W10792  36.913  18.343   1.726
38533W        W10793   3.273   2.690  14.534
38534W        W10794   7.400  37.434  14.753
38535W        W10795  26.565  38.785   0.696
38536W        W10796   7.149  44.522   0.937
38537W        W10797  39.293  32.608  12.565
38538W        W10798  38.050   6.498   1.482
38539W        W10799  30.908  11.614  13.595
38540W        W10800   7.750  22.778   2.816
38541W        W10801   2.722  21.248   0.839
38542W        W10802  43.011  44.483  13.795
38543W        W10803   7.687  43.321   1.716
38544W        W10804  26.063  44.009   0.541
38545W        W10805  14.546  28.199   0.825
38546W        W10806   9.546  22.616  12.235
38547W        W10807  15.601  21.701   0.427
38548W        W10808  37.544  10.207  11.402
38549W        W10809  41.701  43.003  12.534
38550W        W10810  28.513   3.843  11.578
38551W        W10811  19.196  21.817  10.867
38552W        W10812  44.359  39.967   2.287
38553W        W10813   9.628  17.646   4.171
38554W        W10814  27.904   1.801   3.491
38555W        W10815  22.600  32.090   4.570
38556W        W10816  14.402  38.628   2.350
38557W        W10817  25.676   6.815   9.934
38558W        W10818   9.572   3.991   0.901
38559W        W10819   3.431  30.551   3.076
38560W        W10820   0.932  28.939   1.695
38561W        W10821  38.073  23.807   1.233
38562W        W10822   9.455  28.596   3.293
38563W        W10823  42.070  44.959  13.437
38564W        W10824  30.819  35.187  10.708
38565W        W10825  43.292  18.010   0.504
38566W        W10826  27.513  28.548   3.369
38567W        W10827  15.828   3.648  12.320
38568W        W10828   6.770  27.403   3.776
38569W        W10829  29.617  14.863  10.795
38570W        W10830  15.283   1.683   1.248
38571W        W10831  33.936   7.874   0.294
38572W        W10832   1.747   1.162   0.053
38573W        W10833   5.217  35.380   4.610
38574W        W10834  44.112  30.747  12.345
38575W        W10835  14.865  14.259   3.773
38576W        W10836   1.721  25.969  12.683
38577W        W10837  44.245  22.086  14.843
38578W        W10838  17.726  43.233  13.743
38579W        W10839   1.719  24.242  14.425
38580W        W10840  40.519  44.267   0.841
38581W        W10841  42.817   8.843   4.070
38582W        W10842  33.106  20.476   3.756
38583W        W10843  27.617  44.520   3.256
38584W        W10844  25.255   4.426  12.886
38585W        W10845  39.951  40.767  11.224
38586W        W10846   4.717  22.377   4.241
38587W        W10847   1.475  29.913  12.997
38588W        W10848  42.341  34.844   3.526
38589W        W10849  16.329  16.591  14.530
38590W        W10850  17.827  11.739  14.971
38591W        W10851   7.722  23.613   4.137
38592W        W10852  16.864  33.095   4.221
38593W        W10853   4.929  28.090  11.938
38594W        W10854  29.424  23.913   3.128
38595W        W10855  40.537  13.439   4.659
38596W        W10856  40.453  42.967   1.221
38597W        W10857  29.470  25.376   4.730
38598W        W10858  36.485  11.121   3.747
38599W        W10859   7.375  14.864   2.881
38600W        W10860   9.135  31.404   2.142
38601W        W10861   7.645   5.878   4.120
38602W        W10862   5.638  27.922  12.458
38603W        W10863  32.821  40.862  11.199
38604W        W10864  37.009  30.726  12.013
38605W        W10865  23.948   2.753  12.143
38606W        W10866   4.812   5.315   0.711
38607W        W10867  18.187  41.466   1.872
38608W        W10868  30.959  24.257  13.696
38609W        W10869  18.288   7.828   2.563
38610W        W10870   1.840  15.568   3.751
38611W        W10871  30.674  21.099  14.269
38612W        W10872  32.728  44.286   0.542
38613W        W10873  35.946  12.044   4.364
38614W        W10874   3.385  11.158  13.797
38615W        W10875  15.714   4.245  10.899
38616W        W10876  29.030  21.772   2.288
38617W        W10877   9.692   5.196   1.502
38618W        W10878   2.029  19.523  12.040
38619W        W10879  39.942  24.179   4.375
38620W        W10880  28.904  20.776   1.228
38621W        W10881  24.921   7.215  13.392
38622W        W10882  39.479  36.631  11.299
38623W        W10883  15.801  37.596   4.670
38624W        W10884  23.650   6.701  14.580
38625W        W10885   7.829   9.216   3.284
38626W        W10886  13.290   4.405  12.054
38627W        W10887  44.897  24.471  11.072
38628W        W10888  44.881   8.552   3.345
38629W        W10889  19.268  27.728  13.484
38630W        W10890  14.203  14.132   0.393
38631W        W10891  43.820   0.312   1.423
38632W        W10892  17.322  43.781  13.036
38633W        W10893  30.286  14.630   4.162
38634W        W10894  39.653  17.663   0.884
38635W        W10895  33.634  29.933   0.843
38636W        W10896  31.647  28.839   4.040
38637W        W10897  25.009   3.264  12.507
38638W        W10898  18.158  42.839  12.180
38639W        W10899   4.451  34.731   4.585
38640W        W10900  34.408  15.325   1.223
38641W        W10901  16.262  21.710   2.269
38642W        W10902  29.059   2.962  14.562
38643W        W10903  43.305  10.644   0.931
38644W        W10904  26.874  41.425  13.800
38645W        W10905  37.485  33.483  14.266
38646W        W10906   9.267   7.566  13.386
38647W        W10907   1.944  14.290   3.126
38648W        W10908  28.574  42.794   1.213
38649W        W10909   5.805  36.417  13.853
38650W        W10910   4.492  36.452  10.713
38651W        W10911  19.558  34.298  12.517
38652W        W10912  37.138  31.874  14.699
38653W        W10913  11.347  43.682  13.581
38654W        W10914  17.272   7.448  11.544
38655W        W10915   8.246   8.591  12.959
38656W        W10916  11.311  17.006  13.552
38657W        W10917  26.525  21.271   4.720
38658W        W10918   6.542   2.397   3.630
38659W        W10919  44.936  43.377  10.978
38660W        W10920   2.049  40.528   3.135
38661W        W10921  18.972   1.924   1.752
38662W        W10922  20.038   2.306   3.805
38663W        W10923  31.653  44.059   4.103
38664W        W10924  32.169  12.866   0.809
38665W        W10925  12.281  39.037   0.886
38666W        W10926  34.706   9.689  12.523
38667W        W10927  29.488  16.118   0.818
38668W        W10928  23.779  32.653   4.059
38669W        W10929  21.537  22.944   4.607
38670W        W10930  30.101  31.884   3.340
38671W        W10931  21.756  28.247   2.011
38672W        W10932  11.085  30.909  14.389
38673W        W10933  22.108  17.014  14.882
38674W        W10934  29.577  26.059   0.655
38675W        W10935  22.678  43.434   4.177
38676W        W10936  19.773  12.255  11.152
38677W        W10937  11.425  44.919  12.752
38678W        W10938  44.850  25.080   2.265
38679W        W10939  44.799  22.522   0.677
38680W        W10940  21.147   7.916   0.349
38681W        W10941  44.695  22.187   3.722
38682W        W10942  33.723  11.290   4.411
38683W        W10943  34.971  19.151   3.630
38684W        W10944   2.944  43.333   1.910
38685W        W10945   5.220  38.783  10.792
38686W        W10946  28.318   7.801   4.213
38687W        W10947  34.518   3.519   0.920
38688W        W10948  44.150   4.274   2.281
38689W        W10949  26.756  38.054  10.680
38690W        W10950  13.189  33.930   1.150
38691W        W10951  23.138   8.955   1.434
38692W        W10952  43.266  27.920  10.216
38693W        W10953  12.607  43.941   2.415
38694W        W10954  37.892  22.205  11.528
38695W        W10955  20.598   8.126  13.273
38696W        W10956   8.623   0.990  13.412
38697W        W10957   0.578   4.005  14.897
38698W        W10958  19.101  29.022  12.203
38699W        W10959  19.781  34.071   3.670
38700W        W10960  27.939   3.517  13.821
38701W        W10961   8.012  18.651   2.726
38702W        W10962  22.260   0.254  13.268
38703W        W10963   2.764  18.559   2.408
38704W        W10964  20.750  33.933   0.000
38705W        W10965  40.604  22.515  11.885
38706W        W10966  23.841  42.933  13.337
38707W        W10967  15.284   0.503   4.161
38708W        W10968  34.116  42.245  12.541
38709W        W10969  26.153  22.277  14.423
38710W        W10970  23.514  21.702  11.990
38711W        W10971  16.615  20.958  12.019
38712W        W10972  17.324  15.052   0.845
38713W        W10973  32.479   5.715  11.617
38714W        W10974  13.763  22.193   2.618
38715W        W10975  33.045  36.268  13.121
38716W        W10976  23.686  33.963   4.458
38717W        W10977  20.655  15.566  14.225
38718W        W10978  23.636  30.513  11.572
38719W        W10979  20.145   0.433   0.629
38720W        W10980   6.133  32.494   1.320
38721W        W10981  24.396  39.964   2.802
38722W        W10982  25.607  27.673  14.540
38723W        W10983  24.388  33.010  12.245
38724W        W10984  29.445  11.876  11.965
38725W        W10985   3.595  21.051   4.831
38726W        W10986   0.753  17.693  10.824
38727W        W10987  37.620   4.824  11.658
38728W        W10988   7.150  23.059  10.592
38729W        W10989  27.511  14.387   0.823
38730W        W10990  17.192   0.065   0.652
38731W        W10991  20.115  35.106   1.936
38732W        W10992  39.980  18.700   0.478
38733W        W10993  10.147  22.700  12.876
38734W        W10994  20.628  41.509  11.174
38735W        W10995  41.453   3.981   1.546
38736W        W10996  29.879  20.696   0.285
38737W        W10997  33.672   4.280  10.516
38738W        W10998   2.140  36.529  13.465
38739W        W10999   5.831  28.520  13.583
38740W        W11000  27.967  11.738   3.211
38741W        W11001  19.418   5.724  10.223
38742W        W11002   6.801   6.962  10.464
38743W        W11003  32.110  14.711   4.548
38744W        W11004  11.444  36.462   0.512
38745W        W11005   1.962  41.101   0.339
38746W        W11006  22.462  26.628  14.377
38747W        W11007  28.911   2.794   4.671
38748W        W11008   0.920   5.433   4.363
38749W        W11009  31.477  16.350   3.611
38750W        W11010  29.776  30.237   3.286
38751W        W11011  12.155  37.955  12.881
38752W        W11012  44.569  26.787  10.072
38753W        W11013  43.806  12.382   1.834
38754W        W11014  44.696  37.152   3.283
38755W        W11015   4.135   6.667   2.200
38756W        W11016  12.522   7.813   0.807
38757W        W11017  23.556  27.541   3.062
38758W        W11018   1.455  25.212  13.483
38759W        W11019  35.931  16.061   3.674
38760W        W11020  15.753  38.903  12.817
38761W        W11021   9.385  18.648   0.270
38762W        W11022   2.018  21.784  13.028
38763W        W11023  22.095  23.806  12.508
38764W        W11024  41.469   9.965  14.368
38765W        W11025   1.775  13.221   4.049
38766W        W11026  25.795  28.568   2.293
38767W        W11027   7.831  11.833   1.720
38768W        W11028  35.473   9.072  11.139
38769W        W11029   7.181  31.624  13.168
38770W        W11030  22.655  14.877   3.653
38771W        W11031  22.414  27.942  12.990
38772W        W11032   5.642  39.810   4.539
38773W        W11033   7.169  22.954   2.601
38774W        W11034  37.058   1.036  11.919
38775W        W11035  14.332  12.021   3.824
38776W        W11036   0.436  42.395   2.288
38777W        W11037  22.074  23.675   4.386
38778W        W11038  13.630  10.237   3.223
38779W        W11039  23.571  12.190  10.705
38780W        W11040  35.752  27.091  12.391
38781W        W11041  38.239  35.002  13.702
38782W        W11042  28.178  13.782   3.864
38783W        W11043  23.481   3.146  11.925
38784W        W11044  33.105   1.365  12.898
38785W        W11045  37.072  27.916   3.589
38786W        W11046  24.986  41.543   2.885
38787W        W11047   2.834  25.001  11.164
38788W        W11048  21.211  12.890   3.655
38789W        W11049  32.662  15.193  10.753
38790W        W11050  21.001  19.224  14.279
38791W        W11051  37.513  17.887  12.876
38792W        W11052  32.622  28.735   0.833
38793W        W11053  21.757  31.824  11.028
38794W        W11054  35.559  29.696  10.757
38795W        W11055   0.189   3.218  12.552
38796W        W11056  37.054  21.842  13.879
38797W        W11057  20.180  26.663   4.333
38798W        W11058   9.857  31.522  10.739
38799W        W11059  29.002  32.941   4.192
38800W        W11060  40.483  40.098   2.923
38801W        W11061   1.835  18.953   0.362
38802W        W11062  11.801   2.029   2.287
38803W        W11063  13.237  15.088  14.388
38804W        W11064  30.971   0.697  13.722
38805W        W11065  22.685   7.562  10.688
38806W        W11066  24.407  32.158   2.855
38807W        W11067  44.305  41.276  13.520
38808W        W11068   3.844  21.231  11.873
38809W        W11069  33.147  31.124  10.598
38810W        W11070  43.842  16.320  12.885
38811W        W11071  22.700  26.773   0.289
38812W        W11072  38.094  35.912  12.846
38813W        W11073  36.323  35.171  10.768
38814W        W11074  31.505  20.274  11.853
38815W        W11075  44.216   7.387  13.969
38816W        W11076  22.188  42.825   2.799
38817W        W11077   6.903   0.361  13.380
38818W        W11078  34.115  35.402   0.058
38819W        W11079  36.768  14.029  14.567
38820W        W11080  35.351   8.835  11.600
38821W        W11081   1.292  43.794  13.185
38822W        W11082  18.740  18.160  12.674
38823W        W11083   7.377  15.527  12.914
38824W        W11084  24.037   0.824   1.058
38825W        W11085  31.389  12.257  14.393
38826W        W11086  37.024  33.349   0.542
38827W        W11087   5.025  43.844  13.665
38828W        W11088  37.911  19.347   2.020
38829W        W11089   2.314  31.133   2.287
38830W        W11090   4.229  42.038  13.305
38831W        W11091  30.263  44.757   1.769
38832W        W11092   2.527  25.931  14.427
38833W        W11093  20.200  10.433  12.767
38834W        W11094  10.108   5.327  12.904
38835W        W11095  10.781  32.344   0.472
38836W        W11096  32.976  14.613   0.440
38837W        W11097  20.082  20.194   4.017
38838W        W11098  19.842  41.342   3.993
38839W        W11099   5.427   5.407  12.370
38840W        W11100  13.750   1.801   2.353
38841W        W11101  16.688   4.526   3.235
38842W        W11102   9.381  16.232  12.053
38843W        W11103  20.074  21.557  13.215
38844W        W11104  29.921  26.418   0.470
38845W        W11105  16.290  28.131   1.328
38846W        W11106  14.810   5.604  11.068
38847W        W11107   5.440  13.280  14.386
38848W        W11108  16.798   0.853  10.889
38849W        W11109  24.635  10.710   0.717
38850W        W11110   0.230  30.549   2.988
38851W        W11111  16.452  27.545   4.531
38852W        W11112  44.727  24.283   3.547
38853W        W11113  41.873  36.731   1.289
38854W        W11114  26.200  20.905  11.792
38855W        W11115   0.337  21.393  14.461
38856W        W11116  31.369   6.431   3.721
38857W        W11117  34.024   8.269  10.674
38858W        W11118  26.628   4.017  11.485
38859W        W11119  25.414  36.840   2.372
38860W        W11120  33.524  28.108   1.894
38861W        W11121  37.367   7.151   1.305
38862W        W11122  15.168  44.540   2.295
38863W        W11123  41.325  10.733   4.679
38864W        W11124  38.133  11.526   2.376
38865W        W11125  43.321  34.516  10.875
38866W        W11126  32.181  21.249   4.173
38867W        W11127   1.904  30.279  11.268
38868W        W11128  40.621   7.361  13.889
38869W        W11129   1.307  40.210   1.702
38870W        W11130  24.641  43.516  13.537
38871W        W11131  14.760  25.306  14.667
38872W        W11132  13.231  33.746   0.221
38873W        W11133  33.323  36.522   1.333
38874W        W11134  13.312  20.170   3.411
38875W        W11135   5.178  42.345  14.947
38876W        W11136  38.508  20.179  10.740
38877W        W11137  14.864   9.648   0.064
38878W        W11138  38.910  44.111   1.477
38879W        W11139  13.704  33.453   1.715
38880W        W11140   2.154   7.477  11.823
38881W        W11141  40.494  42.865   3.710
38882W        W11142  26.479  13.653   1.399
38883W        W11143   6.889   5.783   2.750
38884W        W11144   2.458  26.025  13.515
38885W        W11145  24.572  28.379  13.022
38886W        W11146   1.481  34.049   1.908
38887W        W11147  38.812  25.167  10.892
38888W        W11148  36.777  41.462   0.932
38889W        W11149  25.189  14.647  11.908
38890W        W11150   1.894  12.038  10.666
38891W        W11151   1.744  43.976   4.106
38892W        W11152  30.060  25.105   3.219
38893W        W11153  34.581  22.978   0.258
38894W        W11154  24.636  43.039  13.297
38895W        W11155  20.484  13.630  11.090
38896W        W11156   8.760  33.050  12.984
38897W        W11157  27.224   4.744  11.862
38898W        W11158  17.050  42.851   4.195
38899W        W11159   5.650  26.164  12.501
38900W        W11160  17.981  31.980  12.456
38901W        W11161  25.680  39.586   4.493
38902W        W11162  29.244  14.286  14.715
38903W        W11163   4.542  35.063   4.160
38904W        W11164  18.636  25.099  11.154
38905W        W11165  38.074  43.263  12.865
38906W        W11166  38.407  37.336  14.727
38907W        W11167  32.014  15.682  10.683
38908W        W11168  27.701  32.900   4.411
38909W        W11169  19.733  10.361  12.983
38910W        W11170  42.328  30.079   0.788
38911W        W11171  29.370  24.212  12.531
38912W        W11172  16.541   9.558   0.963
38913W        W11173  34.425  26.403  11.899
38914W        W11174  23.515  41.514  14.438
38915W        W11175  27.170   8.952  13.737
38916W        W11176   3.840   6.236   2.303
38917W        W11177  17.172  16.276   4.197
38918W        W11178  10.582  15.645  12.078
38919W        W11179  14.589   2.657   0.419
38920W        W11180   1.232  27.619   0.564
38921W        W11181  35.332  37.512  10.697
38922W        W11182  15.193  31.394  10.523
38923W        W11183   6.167  23.107   3.545
38924W        W11184   7.677   1.468  11.074
38925W        W11185  27.807  34.863  12.215
38926W        W11186  43.748  40.985   1.878
38927W        W11187  13.211  13.009  11.381
38928W        W11188  14.600  39.840   2.384
38929W        W11189  18.112  35.212  12.855
38930W        W11190   0.694   6.159  11.238
38931W        W11191   2.118   8.670   4.099
38932W        W11192   3.279   0.504   3.050
38933W        W11193  17.284  44.502   1.906
38934W        W11194  36.893  30.080   4.073
38935W        W11195  14.557  38.686  11.862
38936W        W11196  29.228  16.724  12.927
38937W        W11197  18.786  39.920   2.804
38938W        W11198  38.477  10.678   1.987
38939W        W11199  13.090   2.928   4.104
38940W        W11200  25.165   5.518   3.820
38941W        W11201  14.740  27.935   4.946
38942W        W11202  20.451   0.481  11.101
38943W        W11203  16.792  28.876  14.299
38944W        W11204   0.380  33.620   1.356
38945W        W11205  32.148  14.109   2.683
38946W        W11206  39.998  12.272   4.925
38947W        W11207  21.540   0.327   2.302
38948W        W11208  23.307  11.677   0.773
38949W        W11209   2.168   4.990  13.617
38950W        W11210  12.877  34.264  13.562
38951W        W11211  43.387  31.064  13.961
38952W        W11212  11.711  16.608   2.677
38953W        W11213  13.152   8.365   1.537
38954W        W11214   6.438  44.729   4.937
38955W        W11215  26.100  11.691   2.204
38956W        W11216  36.947  20.363  13.958
38957W        W11217   1.330  24.623   0.948
38958W        W11218  15.193  18.253   1.923
38959W        W11219   2.249   7.652   2.158
38960W        W11220   0.642   6.670  11.366
38961W        W11221  20.510  42.709   0.801
38962W        W11222  43.829  22.531   3.770
38963W        W11223  40.660  23.650   3.578
38964W        W11224   6.578   2.964   2.068
38965W        W11225  44.309  35.176  13.339
38966W        W11226  29.973  42.870   1.427
38967W        W11227   6.341   4.062   2.305
38968W        W11228   0.993  40.313  11.962
38969W        W11229  33.512   6.663   3.371
38970W        W11230  37.580  19.291   3.856
38971W        W11231  37.763  11.266  11.585
38972W        W11232  39.482  22.168   1.913
38973W        W11233   0.711   6.168  14.280
38974W        W11234  40.360  25.938   3.365
38975W        W11235  37.076  10.974   3.663
38976W        W11236  44.851  18.033   2.490
38977W        W11237  22.558   5.629  13.183
38978W        W11238   9.639  13.003  11.125
38979W        W11239  40.709   0.945  10.882
38980W        W11240  20.874  28.894  14.507
38981W        W11241  26.047   3.299   3.017
38982W        W11242  35.852  32.858  11.595
38983W        W11243   8.648   3.111  14.091
38984W        W11244  33.361   8.494   2.191
38985W        W11245  40.076  37.284   4.577
38986W        W11246  36.559  36.407  12.139
38987W        W11247   0.848  15.925   1.355
38988W        W11248  27.128  34.415   4.715
38989W        W11249  20.198  24.758  11.654
38990W        W11250  21.447  36.208   3.719
38991W        W11251  28.703  38.559   3.228
38992W        W11252  39.278   6.473  12.862
38993W        W11253  24.939  29.386   3.307
38994W        W11254  20.645   2.806   2.120
38995W        W11255  32.659   9.231  14.512
38996W        W11256   4.665  29.048   0.841
38997W        W11257   7.178  44.802  11.437
38998W        W11258  42.951  39.965  13.749
38999W        W11259  34.433  33.421  12.521
39000W        W11260  33.472  13.596   0.846
39001W        W11261   7.382  24.549  13.602
39002W        W11262   1.172  36.066   4.111
39003W        W11263  35.426  10.375  14.005
39004W        W11264   9.662  42.992   0.774
39005W        W11265  34.831  10.209   1.258
39006W        W11266  38.269  22.956   1.493
39007W        W11267   1.684  23.565   4.944
39008W        W11268   0.913   8.684   1.066
39009W        W11269  15.204   9.181  11.104
39010W        W11270  18.056  23.710   0.827
39011W        W11271  34.588  19.400   0.018
39012W        W11272  34.861   2.921  11.110
39013W        W11273   4.379  15.023   3.429
39014W        W11274  44.307  39.527   3.189
39015W        W11275  10.397  21.783   0.235
39016W        W11276  11.382  31.561   2.888
39017W        W11277  10.574  26.644   2.076
39018W        W11278  12.303   5.382  13.087
39019W        W11279  18.139   0.383   4.764
39020W        W11280   5.476  12.797  11.065
39021W        W11281   0.244   4.602   1.813
39022W        W11282  40.448  10.314  11.521
39023W        W11283   5.755   1.927   3.612
39024W        W11284  37.197   2.794   0.288
39025W        W11285  24.522  38.241   1.866
39026W        W11286  12.794  10.826   0.883
39027W        W11287   3.828   0.259  10.664
39028W        W11288  42.811  19.259  10.727
39029W        W11289   4.956  44.685   1.945
39030W        W11290   8.667  21.416  14.881
39031W        W11291  37.468  25.569  10.795
39032W        W11292  33.587   7.043  11.536
39033W        W11293  29.008  22.990  12.273
39034W        W11294  15.517   4.635  13.505
39035W        W11295  20.090  21.353   3.182
39036W        W11296  34.044  23.834  11.129
39037W        W11297  24.091   1.532  10.996
39038W        W11298  38.930  22.039   1.001
39039W        W11299  24.491   0.857   0.830
39040W        W11300  39.896  26.045  14.915
39041W        W11301  36.467  40.452   1.995
39042W        W11302   8.176   7.813  13.559
39043W        W11303  43.834  16.786   0.577
39044W        W11304  43.960  12.732  10.754
39045W        W11305  18.997   9.993  14.355
39046W        W11306  33.423  28.355   3.324
39047W        W11307  38.939  21.478   0.256
39048W        W11308  44.477  43.497  11.205
39049W        W11309  41.340   6.892   4.624
39050W        W11310  12.882   7.132   1.390
39051W        W11311   5.857  15.308   3.113
39052W        W11312   9.193   0.876  12.079
39053W        W11313   7.368  19.362  12.540
39054W        W11314  29.692  29.752   1.733
39055W        W11315  11.517  16.116   0.922
39056W        W11316  38.137  32.956  13.376
39057W        W11317  25.223  39.209  13.503
39058W        W11318  37.912  15.606   0.784
39059W        W11319  14.405  41.470   1.160
39060W        W11320  22.919  17.990   2.167
39061W        W11321  21.898  19.243  12.525
39062W        W11322   8.137   1.355   2.731
39063W        W11323  18.436  18.684   2.473
39064W        W11324  23.035  12.693  14.849
39065W        W11325  34.867  36.880  12.148
39066W        W11326  32.921  41.909   3.360
39067W        W11327   9.779  17.396   2.812
39068W        W11328  19.022  26.482  13.006
39069W        W11329  27.995  34.491   4.050
39070W        W11330  43.056  19.031   1.831
39071W        W11331  16.703   8.498  14.765
39072W        W11332  33.565  40.030   0.988
39073W        W11333   5.395  25.131  14.351
39074W        W11334  31.400   1.495   2.697
39075W        W11335  22.629  21.748  14.883
39076W        W11336   8.801  38.598  13.054
39077W        W11337   8.463  29.866   0.901
39078W        W11338  11.275  10.964  10.547
39079W        W11339  27.536  11.422  13.014
39080W        W11340  18.024  36.976   0.473
39081W        W11341  22.973  10.638   2.312
39082W        W11342   3.402   5.378   3.199
39083W        W11343  11.384   6.390   3.106
39084W        W11344  31.109  17.502  14.797
39085W        W11345  18.277  31.625  12.135
39086W        W11346  23.163  42.236  13.013
39087W        W11347   8.579  14.519  10.328
39088W        W11348  42.706  29.712  14.702
39089W        W11349  26.576  30.033   3.452
39090W        W11350  41.569  20.632  13.051
39091W        W11351  18.341  13.154  11.582
39092W        W11352   0.748  19.685  14.351
39093W        W11353  35.516  18.042   3.724
39094W        W11354  27.715  23.806   1.416
39095W        W11355  41.250   6.210  14.452
39096W        W11356  41.829  26.671   2.759
39097W        W11357   8.279  40.028   2.151
39098W        W11358  18.668  36.446   3.069
39099W        W11359   7.683  17.614  12.609
39100W        W11360  43.018   0.743   4.124
39101W        W11361  21.713  16.068   1.450
39102W        W11362   0.009   0.880  10.935
39103W        W11363  26.894  12.511   2.832
39104W        W11364   4.365  23.232  14.144
39105W        W11365  42.514  18.395  14.552
39106W        W11366  38.413  26.512   0.465
39107W        W11367  21.316  26.168  12.771
39108W        W11368  31.415  36.321  14.429
39109W        W11369  11.694  31.097   0.794
39110W        W11370   4.004  30.660   1.901
39111W        W11371  42.557  42.870   1.935
39112W        W11372  36.980   5.425   4.250
39113W        W11373  44.191  14.578  14.304
39114W        W11374  36.442  34.457  12.909
39115W        W11375  40.343  40.281   1.478
39116W        W11376  39.493  24.208   3.537
39117W        W11377  20.914  42.847   4.708
39118W        W11378  17.625  12.572  12.390
39119W        W11379  10.313  15.963   3.428
39120W        W11380  37.999   5.248   4.220
39121W        W11381  33.306   9.025   4.213
39122W        W11382  10.137  39.078   5.036
39123W        W11383  37.663  12.171  10.747
39124W        W11384  43.419  11.781   4.708
39125W        W11385  38.359   3.219   4.497
39126W        W11386  44.272  25.290   2.112
39127W        W11387  16.860   9.312  14.289
39128W        W11388  38.634  13.746   3.305
39129W        W11389  36.903   3.194   4.921
39130W        W11390  42.811   8.400   5.048
39131W        W11391  14.134   9.248   1.821
39132W        W11392  24.648  28.025  13.546
39133W        W11393  22.695  23.697   2.231
39134W        W11394   2.340   5.310   3.672
39135W        W11395  20.059  25.203   1.298
39136W        W11396  13.061  31.291  11.044
39137W        W11397   8.260  21.783  10.700
39138W        W11398  15.357  19.097   0.075
39139W        W11399  26.473  11.099  10.224
39140W        W11400  34.930  27.155  11.839
39141W        W11401  30.094   9.069   0.934
39142W        W11402  39.902  21.774  12.980
39143W        W11403  41.241  20.582   0.709
39144W        W11404  34.921   9.240   1.823
39145W        W11405  36.424  16.612   4.819
39146W        W11406  38.145  34.405   5.072
39147W        W11407  36.139  25.616  11.241
39148W        W11408  36.133  20.712   1.782
39149W        W11409   4.841  41.961  11.566
39150W        W11410  26.737  27.844  12.995
39151W        W11411   6.713  14.382  10.667
39152W        W11412  16.097   0.558   1.007
39153W        W11413   2.031  22.489   0.423
39154W        W11414  38.828  37.765   3.501
39155W        W11415  36.367  20.799   1.299
39156W        W11416   7.756  39.955  11.399
39157W        W11417  20.686  28.124  10.770
39158W        W11418   9.241   4.516  12.798
39159W        W11419   3.274  38.581  14.838
39160W        W11420   4.552  13.363   2.857
39161W        W11421  16.166   8.893   5.065
39162W        W11422  34.262  18.516   1.529
39163W        W11423  12.464  27.730  14.828
39164W        W11424   5.652  15.050  11.071
39165W        W11425   1.999  37.931  14.382
39166W        W11426   4.295   2.184  10.656
39167W        W11427  20.576  37.995   0.874
39168W        W11428  36.848  33.916  14.893
39169W        W11429   2.512   9.391   1.851
39170W        W11430  33.003  20.449   5.101
39171W        W11431   8.117  27.765   4.154
39172W        W11432  41.983  21.995  14.738
39173W        W11433  20.725  41.304   3.428
39174W        W11434  38.577  21.425   4.092
39175W        W11435  18.984  43.666   4.527
39176W        W11436  17.253  38.741  10.641
39177W        W11437   6.968   5.834  12.536
39178W        W11438  29.450  32.951  10.548
39179W        W11439   3.440  31.650  11.695
39180W        W11440  25.303  18.145  13.983
39181W        W11441  41.345  40.603   0.855
39182W        W11442  26.622  26.157  14.742
39183W        W11443  32.140  41.061  12.925
39184W        W11444  20.245   2.242  12.866
39185W        W11445  36.021  41.197  11.952
39186W        W11446   8.285  42.920   0.064
39187W        W11447  11.109  31.111   1.608
39188W        W11448  39.704  20.163   4.939
39189W        W11449  25.691  32.179  10.296
39190W        W11450  10.302  44.884   3.274
39191W        W11451  33.834  17.219  10.106
39192W        W11452   2.956  41.955  14.972
39193W        W11453   9.206  35.926  14.943
39194W        W11454   4.212  16.631   1.456
39195W        W11455  26.446   7.429  13.534
39196W        W11456   7.768   4.777   3.771
39197W        W11457  22.722  22.087  13.433
39198W        W11458  12.746   1.731   0.257
39199W        W11459  11.883  42.428  11.142
39200W        W11460  10.328  15.647   4.414
39201W        W11461  15.619  43.068  12.478
39202W        W11462  29.869  16.463   1.389
39203W        W11463  18.247  28.534   4.147
39204W        W11464  42.585  30.242  12.593
39205W        W11465   1.243  39.584   3.385
39206W        W11466  15.237   8.257   0.739
39207W        W11467  13.326  36.071   3.374
39208W        W11468  43.308  37.823   1.068
39209W        W11469  39.927  24.047   1.697
39210W        W11470  16.516  36.400   2.418
39211W        W11471  32.750  28.418  11.048
39212W        W11472  30.612  15.798  13.562
39213W        W11473  43.729  18.668  13.837
39214W        W11474  21.195  16.599   3.434
39215W        W11475   8.892   3.820  14.892
39216W        W11476  11.708  34.456  10.269
39217W        W11477   8.371   2.980   2.151
39218W        W11478  30.016  29.012  11.103
39219W        W11479  30.751  24.268   0.910
39220W        W11480  16.375  42.843   3.674
39221W        W11481  25.176  28.427   0.755
39222W        W11482   4.731  30.364  13.566
39223W        W11483  37.162  15.332  14.569
39224W        W11484  35.356  16.839  13.005
39225W        W11485  40.498   8.693   1.955
39226W        W11486  18.603  14.663  12.793
39227W        W11487  20.069  42.098   2.859
39228W        W11488  13.425  30.707  12.195
39229W        W11489  14.094  27.114   9.855
39230W        W11490  13.332  10.774  10.767
39231W        W11491  22.340  33.807  12.561
39232W        W11492  28.226   5.478  10.223
39233W        W11493  10.881  39.864  13.177
39234W        W11494  20.912  29.250  12.120
39235W        W11495  44.528   6.287   2.825
39236W        W11496   8.775  19.629   0.798
39237W        W11497   2.555  13.180   2.348
39238W        W11498  16.786   8.828   3.966
39239W        W11499  20.735  21.465   1.864
39240W        W11500  30.424  16.535  14.595
39241W        W11501  39.819  16.797   3.641
39242W        W11502   1.940   4.842  12.854
39243W        W11503  12.559  38.071  13.854
39244W        W11504  44.548  25.717   0.319
39245W        W11505  26.468  16.996  14.054
39246W        W11506  26.125  23.028   2.193
39247W        W11507  28.882  31.348  12.419
39248W        W11508  10.687  19.101  12.444
39249W        W11509   6.929  42.894  13.487
39250W        W11510  12.876  26.066   4.862
39251W        W11511  37.474  43.369   0.995
39252W        W11512   0.892  37.700  13.499
39253W        W11513  30.977   5.946  14.941
39254W        W11514  33.887  16.642  14.340
39255W        W11515  39.950  35.797   0.533
39256W        W11516  40.085  15.257   0.602
39257W        W11517  31.407  35.905   3.778
39258W        W11518  35.777  24.560  14.916
39259W        W11519  24.829  43.644   3.212
39260W        W11520  37.942  37.023   0.438
39261W        W11521   3.472  43.030  13.451
39262W        W11522  31.918  33.475   0.798
39263W        W11523  29.512   9.437   3.229
39264W        W11524  17.701  40.409  12.350
39265W        W11525  29.698  42.758  10.724
39266W        W11526  40.401   9.446  14.260
39267W        W11527  23.931  41.122   3.370
39268W        W11528  34.535  44.365   2.964
39269W        W11529  37.651  29.455  11.600
39270W        W11530   3.644  35.287  13.205
39271W        W11531  17.789  43.697   3.185
39272W        W11532   8.646  40.098   1.207
39273W        W11533  38.114  14.875   4.139
39274W        W11534  20.480  19.174   9.748
39275W        W11535   8.716   6.090   2.895
39276W        W11536  10.124  10.349  13.978
39277W        W11537  21.083  40.393  13.474
39278W        W11538  23.553   5.227  10.844
39279W        W11539  21.806   3.362  14.334
39280W        W11540  20.976  22.080   3.980
39281W        W11541  14.046  13.603   0.241
39282W        W11542  24.088  35.538   1.187
39283W        W11543  44.164  12.892  14.909
39284W        W11544  27.768  39.550   3.876
39285W        W11545  11.649  32.498   3.263
39286W        W11546  26.311   4.873  12.641
39287W        W11547  12.333  33.471  14.005
39288W        W11548  31.827  11.283  10.801
39289W        W11549   8.319   7.047  14.761
39290W        W11550  15.790   5.112   1.552
39291W        W11551  38.845   5.980  10.632
39292W        W11552  21.047  31.712   0.968
39293W        W11553  14.741  24.787  14.603
39294W        W11554  22.226  22.616   1.867
39295W        W11555   3.232  23.950   4.922
39296W        W11556   3.018   2.203  11.003
39297W        W11557  39.515  20.695  14.346
39298W        W11558  44.046  20.617  13.092
39299W        W11559  24.734  27.680   2.930
39300W        W11560  34.974  16.321  11.510
39301W        W11561   9.227  24.579  14.072
39302W        W11562  44.483   4.455   4.832
39303W        W11563  30.086  21.601   1.897
39304W        W11564  18.270  43.779   4.158
39305W        W11565  28.379   3.817   3.259
39306W        W11566  37.962  10.316   3.811
39307W        W11567  10.210  34.580   3.442
39308W        W11568  26.705  21.212  12.897
39309W        W11569  38.398  25.342  14.659
39310W        W11570  32.486   4.863   2.681
39311W        W11571  29.434  43.529   4.923
39312W        W11572   8.020  13.680  13.376
39313W        W11573  30.163   2.776   3.068
39314W        W11574  22.190  34.654   0.920
39315W        W11575   2.402  36.884  12.656
39316W        W11576  40.047  10.912  14.017
39317W        W11577  13.212  36.595  13.523
39318W        W11578  25.203  43.763   3.847
39319W        W11579  37.003   4.234  13.940
39320W        W11580  21.647  27.400   3.447
39321W        W11581  16.623  25.075  13.614
39322W        W11582  42.543   2.181   1.801
39323W        W11583   1.441   3.462  14.502
39324W        W11584  18.314  40.032   3.997
39325W        W11585  11.758   9.236   3.357
39326W        W11586  10.316  35.827  13.804
39327W        W11587  29.052  12.115  14.780
39328W        W11588   2.865   0.138  12.057
39329W        W11589   5.293  30.186  10.523
39330W        W11590   2.442  44.404   4.534
39331W        W11591  12.364  26.064   4.706
39332W        W11592  13.890  30.391  10.353
39333W        W11593   4.214  32.124  12.566
39334W        W11594   9.214  19.064  11.515
39335W        W11595  34.123  42.035   2.367
39336W        W11596  36.271  23.457  10.944
39337W        W11597  43.727  12.699   0.196
39338W        W11598  43.031  25.250  14.992
39339W        W11599   6.987  13.891  12.601
39340W        W11600  39.528  18.344  10.590
39341W        W11601  12.638   2.577  12.463
39342W        W11602   1.310   6.616  13.154
39343W        W11603  29.787   5.447   1.260
39344W        W11604  11.532  31.886   3.675
39345W        W11605   1.775  31.196  12.405
39346W        W11606  42.958  27.867  12.520
39347W        W11607   0.459   8.365   1.190
39348W        W11608   1.785  13.108  12.501
39349W        W11609  12.136  42.983  13.305
39350W        W11610   6.392  12.873   0.719
39351W        W11611   5.183  14.579   1.610
39352W        W11612   0.988   1.947   3.034
39353W        W11613   6.452  12.161  14.701
39354W        W11614  17.943  25.641  11.029
39355W        W11615  39.319  32.016   2.071
39356W        W11616  16.652  15.306   0.319
39357W        W11617  17.024  39.691   3.222
39358W        W11618   2.963  31.523  12.434
39359W        W11619  23.420   0.718  11.158
39360W        W11620   5.808  42.841   3.874
39361W        W11621  11.130  28.963   1.803
39362W        W11622  22.705  15.155   3.220
39363W        W11623  42.394   3.494   3.413
39364W        W11624  18.250  20.577  14.872
39365W        W11625  41.089  18.714   4.104
39366W        W11626  41.855  23.948  12.028
39367W        W11627  19.702  43.005   4.180
39368W        W11628   8.156  35.423   3.272
39369W        W11629   3.276  14.955  14.848
39370W        W11630  10.940   1.968  11.174
39371W        W11631  12.716  37.978  13.322
39372W        W11632  29.267  15.150  13.750
39373W        W11633   0.872  31.690  13.877
39374W        W11634  40.242  19.627  10.699
39375W        W11635  28.564  29.023  12.070
39376W        W11636  18.188   5.461   2.757
39377W        W11637  28.744   5.806  11.145
39378W        W11638  19.541  24.238  14.842
39379W        W11639  37.462   9.135  10.668
39380W        W11640  36.064  35.928  13.021
39381W        W11641  12.052  43.480   4.534
39382W        W11642  14.836  18.188  12.420
39383W        W11643  26.527  10.651  11.408
39384W        W11644  35.392  33.713  12.520
39385W        W11645   7.752  39.540   1.796
39386W        W11646  37.416  12.237  12.615
39387W        W11647   4.249  15.530  10.521
39388W        W11648   3.731  22.029   2.282
39389W        W11649  12.355  35.971  11.579
39390W        W11650  37.841  25.736   1.987
39391W        W11651   9.129  10.673  11.848
39392W        W11652  31.571  31.023   4.690
39393W        W11653  21.540  20.591  12.447
39394W        W11654  34.509  15.759  12.831
39395W        W11655  15.179  37.601   0.352
39396W        W11656  31.061  30.851  12.979
39397W        W11657  25.104  42.517   5.143
39398W        W11658  22.896  23.232   1.056
39399W        W11659  29.031  27.267  14.403
39400W        W11660  17.773  26.143   0.513
39401W        W11661  31.115  11.738  12.549
39402W        W11662  11.663  29.708  11.697
39403W        W11663  23.027  22.595   2.976
39404W        W11664   5.115  34.361   3.269
39405W        W11665  37.878  34.450   0.514
39406W        W11666  17.250  15.565  10.674
39407W        W11667  27.432  41.985   4.690
39408W        W11668  13.177  43.823   4.171
39409W        W11669  24.441  20.123   4.640
39410W        W11670  17.338   5.663   0.154
39411W        W11671  21.589  27.950  11.123
39412W        W11672  33.107  16.232   3.261
39413W        W11673  34.470  22.201   4.151
39414W        W11674  29.655  41.323  14.476
39415W        W11675  17.145  35.152   1.389
39416W        W11676   6.219  11.385   4.339
39417W        W11677  10.122  23.928  12.063
39418W        W11678   0.015  30.189   2.214
39419W        W11679  40.604  22.545   0.001
39420W        W11680  28.648  34.562  13.455
39421W        W11681  42.691  27.702   1.291
39422W        W11682  34.971   6.658   3.292
39423W        W11683  44.265  17.074  14.945
39424W        W11684  13.155  26.045  10.725
39425W        W11685  22.754  27.928   4.158
39426W        W11686  27.507  11.195   0.465
39427W        W11687  16.600  29.771  12.877
39428W        W11688   2.866  40.308   3.874
39429W        W11689  42.991  41.130   1.357
39430W        W11690  21.005   3.758   4.068
39431W        W11691  32.525   2.399   0.487
39432W        W11692  10.333  19.541   4.866
39433W        W11693  41.291  36.961  11.941
39434W        W11694  32.620  42.285  12.541
39435W        W11695  10.278  16.775   1.877
39436W        W11696  23.152  20.238  13.357
39437W        W11697   3.280  26.027   3.610
39438W        W11698  24.844  25.027  11.595
39439W        W11699  37.117  18.014   3.328
39440W        W11700  40.326  41.958   3.328
39441W        W11701  40.518  11.877   2.298
39442W        W11702  32.955   9.865  12.436
39443W        W11703  11.178  32.681  11.886
39444W        W11704  31.556  18.430   0.394
39445W        W11705  36.366  17.594  11.216
39446W        W11706  36.184  25.355  12.407
39447W        W11707  24.299  39.238   0.748
39448W        W11708  11.224  12.688   4.005
39449W        W11709   5.746  42.827   0.483
39450W        W11710  31.996  32.433  10.443
39451W        W11711  25.435   4.238   3.639
39452W        W11712  44.973   4.701   4.818
39453W        W11713  33.971  35.368  11.464
39454W        W11714  29.969  29.196  11.568
39455W        W11715   4.155   1.110  14.089
39456W        W11716  44.738  41.141   0.887
39457W        W11717   0.914  41.369   4.181
39458W        W11718  12.856  30.624   3.603
39459W        W11719   0.305  13.354  14.016
39460W        W11720  20.812   9.868  14.286
39461W        W11721   4.016   1.597   5.133
39462W        W11722  23.505  11.820   1.225
39463W        W11723  15.778  39.062   1.306
39464W        W11724  23.460   3.866   2.462
39465W        W11725   9.708  20.965  13.255
39466W        W11726  20.740   4.069  12.408
39467W        W11727  12.424  29.890   3.734
39468W        W11728  30.936  27.766  13.809
39469W        W11729  36.455   1.520  14.083
39470W        W11730  25.630  43.295  13.849
39471W        W11731  26.228  27.758  12.304
39472W        W11732  40.439  26.292  11.563
39473W        W11733  33.358  18.090  14.850
39474W        W11734  23.529  30.552  12.571
39475W        W11735  16.648  36.511   1.565
39476W        W11736   0.094  43.428   3.957
39477W        W11737  16.640  40.297   4.643
39478W        W11738  17.280   1.174  12.043
39479W        W11739  32.897  39.022   4.195
39480W        W11740  37.883  33.274  13.743
39481W        W11741  41.950  35.993   3.678
39482W        W11742  20.217  22.453  12.579
39483W        W11743  39.035  27.943   3.312
39484W        W11744  41.208  34.423   3.265
39485W        W11745   5.298  42.605  13.342
39486W        W11746  32.159  12.336   0.824
39487W        W11747   3.939  18.594   3.777
39488W        W11748  16.709  12.379   3.203
39489W        W11749   4.151  36.515   2.749
39490W        W11750  17.612  18.596  12.736
39491W        W11751  12.785  25.149  11.458
39492W        W11752  44.281  16.762   3.662
39493W        W11753  31.817  35.348  11.164
39494W        W11754  36.502   8.408  14.394
39495W        W11755  14.220  39.459  13.555
39496W        W11756  40.193   1.348   2.125
39497W        W11757  32.334   8.592   1.937
39498W        W11758   8.944   1.946  10.391
39499W        W11759  31.060   5.436  10.756
39500W        W11760  38.149  13.201   3.834
39501W        W11761   3.840  44.909   1.447
39502W        W11762  10.382  17.037  11.089
39503W        W11763  43.214  23.610   4.056
39504W        W11764   6.618  39.924   0.425
39505W        W11765  10.164  38.623  14.415
39506W        W11766  24.036  22.192   4.610
39507W        W11767   8.755  35.734   4.774
39508W        W11768  15.258  26.111   4.921
39509W        W11769  31.820  30.628  12.552
39510W        W11770   5.311  44.569  12.016
39511W        W11771  21.827   5.686  11.590
39512W        W11772  44.483   4.651   3.919
39513W        W11773  43.047  21.544  13.362
39514W        W11774  24.069  11.666   4.702
39515W        W11775  12.339   6.786  12.073
39516W        W11776   4.809   3.983  11.316
39517W        W11777   3.758   5.247   4.420
39518W        W11778  44.347  14.803   2.921
39519W        W11779   7.150  16.721  14.451
39520W        W11780  17.497  33.982   4.506
39521W        W11781  29.510  18.778  13.410
39522W        W11782  26.046  21.040   1.549
39523W        W11783  15.557  14.847  14.591
39524W        W11784  27.819  25.628  12.058
39525W        W11785  26.151   8.220  14.446
39526W        W11786  25.058  32.265  12.582
39527W        W11787   0.276  25.081   0.401
39528W        W11788  21.510  12.355  14.360
39529W        W11789   4.915  29.392   3.049
39530W        W11790  24.002  28.899  10.957
39531W        W11791  37.605  33.142  12.018
39532W        W11792  12.024  29.877  12.556
39533W        W11793  30.151  11.788  10.667
39534W        W11794  39.846   3.898   3.194
39535W        W11795  32.100  14.476   0.492
39536W        W11796   3.725   0.344  14.802
39537W        W11797  16.838   4.246   1.862
39538W        W11798  29.006   4.241   1.139
39539W        W11799  24.553   9.383  12.548
39540W        W11800  34.914   5.974   2.844
39541W        W11801  33.826  44.915  14.072
39542W        W11802   2.271  24.757  10.839
39543W        W11803  26.347   0.908   2.715
39544W        W11804  35.340  10.314  14.997
39545W        W11805  25.165  25.334   4.912
39546W        W11806  27.500  36.376  12.611
39547W        W11807  19.801  23.525  13.070
39548W        W11808  16.288  38.421   4.395
39549W        W11809  18.601  34.513   3.801
39550W        W11810  31.099  16.230   2.331
39551W        W11811  26.435  36.059   4.065
39552W        W11812  38.295  39.124   2.390
39553W        W11813  19.284  37.981   3.759
39554W        W11814  42.347  27.000   0.016
39555W        W11815   8.275   8.742   2.611
39556W        W11816  36.921  15.327   2.275
39557W        W11817  31.589  23.703  14.752
39558W        W11818  34.174  36.376  11.956
39559W        W11819  44.323  11.419   4.246
39560W        W11820  20.656   4.464   2.775
39561W        W11821   5.863  37.104  14.627
39562W        W11822  28.771  39.658   2.396
39563W        W11823  18.177  18.234   3.869
39564W        W11824  11.623  15.580  13.399
39565W        W11825  10.812  27.208  14.875
39566W        W11826  13.710  23.171  14.366
39567W        W11827  24.835  13.128   0.957
39568W        W11828   1.884   2.423   1.140
39569W        W11829  20.555  20.052   5.413
39570W        W11830  35.575  36.510   3.094
39571W        W11831  10.579  27.488   4.578
39572W        W11832  23.997   8.655   0.123
39573W        W11833  43.769  38.878  12.533
39574W        W11834  12.824  10.379   1.130
39575W        W11835   8.919  18.796   2.795
39576W        W11836  42.806  36.667   2.156
39577W        W11837  41.361  16.856  11.117
39578W        W11838  41.028   5.557  12.484
39579W        W11839  28.088   8.232   2.243
39580W        W11840  27.351  37.885   1.961
39581W        W11841  22.686  17.250   4.643
39582W        W11842  42.337  21.211  13.047
39583W        W11843  31.344   8.725  11.484
39584W        W11844  18.187   2.210  13.405
39585W        W11845  11.731  23.161  11.454
39586W        W11846  42.753   3.102  12.172
39587W        W11847   3.567  38.837  12.184
39588W        W11848  40.393  37.597   1.909
39589W        W11849  10.780  11.060   3.671
39590W        W11850  37.012  42.058   0.762
39591W        W11851   6.274   6.822  11.549
39592W        W11852  11.292   6.884   1.727
39593W        W11853  30.556  36.671   3.373
39594W        W11854   7.599  38.876  14.491
39595W        W11855  11.249  38.795   4.872
39596W        W11856  33.860   7.888   3.636
39597W        W11857  25.693  15.493   4.147
39598W        W11858  15.932  17.236  12.843
39599W        W11859  37.809  40.223  14.020
39600W        W11860  37.606  40.843  12.045
39601W        W11861   9.676  17.626   0.280
39602W        W11862  29.537   4.631  14.906
39603W        W11863   9.199  42.014   3.481
39604W        W11864  24.763   0.923   3.681
39605W        W11865   3.990  16.382   3.748
39606W        W11866  12.464  12.710   0.808
39607W        W11867   9.298  36.533   3.724
39608W        W11868  20.271   4.757   2.591
39609W        W11869  44.974   6.227  12.023
39610W        W11870  34.195  38.918   2.187
39611W        W11871   2.742  34.358  12.241
39612W        W11872  18.515  39.477   4.519
39613W        W11873  16.529   0.461  11.583
39614W        W11874  30.687  32.351   2.153
39615W        W11875  26.406   7.222  13.062
39616W        W11876   4.198  25.114  12.641
39617W        W11877  25.282   5.425   0.799
39618W        W11878  23.330  16.093  13.686
39619W        W11879  32.998  37.922   4.603
39620W        W11880  19.660  13.221  10.387
39621W        W11881   9.348  13.750  11.886
39622W        W11882  25.536  31.044   2.935
39623W        W11883   6.443  17.519   2.375
39624W        W11884  32.809  39.443  12.937
39625W        W11885  11.849  29.547   4.511
39626W        W11886  15.283  37.817   1.316
39627W        W11887   2.391  12.651  11.075
39628W        W11888  38.651  32.784   0.666
39629W        W11889  38.759  28.989  11.087
39630W        W11890  23.227  32.180  12.058
39631W        W11891  33.607  19.790  12.924
39632W        W11892  41.685  43.077   2.932
39633W        W11893  18.675  12.631   1.334
39634W        W11894  35.017  20.153   1.207
39635W        W11895  16.782  37.515  13.146
39636W        W11896  33.971  21.646   3.192
39637W        W11897   8.273  26.600   0.548
39638W        W11898  10.624   4.705  14.263
39639W        W11899  39.958  14.714  14.441
39640W        W11900  41.408  32.384  10.583
39641W        W11901  44.028  40.882  12.564
39642W        W11902  26.126   0.234   2.157
39643W        W11903  22.976  30.554   1.525
39644W        W11904  28.463  21.515   3.344
39645W        W11905   4.970  36.359   3.627
39646W        W11906  34.000  13.318   2.922
39647W        W11907   8.217  43.256   4.170
39648W        W11908  36.039  38.485  14.537
39649W        W11909  36.044  42.463   3.319
39650W        W11910  31.894   6.520   3.689
39651W        W11911  12.236   4.124  11.022
39652W        W11912  42.894  41.613   2.257
39653W        W11913  41.828  35.159   4.081
39654W        W11914  14.793  34.228   5.038
39655W        W11915   4.298  26.659   1.274
39656W        W11916  32.403  11.209  13.938
39657W        W11917  20.201  19.118   3.534
39658W        W11918  37.637  35.098   3.735
39659W        W11919  38.536  14.762  14.951
39660W        W11920  40.337   6.382   3.239
39661W        W11921  26.522  35.380  12.461
39662W        W11922   6.443  35.740   5.007
39663W        W11923   7.942  23.050   1.256
39664W        W11924  27.651  19.740  10.689
39665W        W11925   1.834   6.822  11.230
39666W        W11926   3.239  10.153  13.907
39667W        W11927  13.244  16.537  14.674
39668W        W11928  27.171   3.737   1.298
39669W        W11929  22.108   3.744   3.209
39670W        W11930  11.281   7.344  13.073
39671W        W11931  17.312  26.184  12.694
39672W        W11932   5.350   3.974  14.577
39673W        W11933  28.498  33.919  12.645
39674W        W11934  14.200   8.515   4.546
39675W        W11935  21.235  18.479   0.292
39676W        W11936   6.258  11.370   3.280
39677W        W11937  36.160  34.582  10.799
39678W        W11938  25.030  27.052  11.397
39679W        W11939  33.918  25.763   0.057
39680W        W11940  39.855   5.749  12.981
39681W        W11941  13.027  40.553   3.195
39682W        W11942  31.016  34.572   0.799
39683W        W11943  11.321  33.085   0.355
39684W        W11944  35.980  28.648   0.464
39685W        W11945   8.298  36.000   4.744
39686W        W11946  18.413   1.929   0.208
39687W        W11947  18.219  16.145  14.797
39688W        W11948  21.188  32.479  12.171
39689W        W11949   3.325  37.456   1.618
39690W        W11950   9.605  14.412  13.923
39691W        W11951  31.102  26.537   4.420
39692W        W11952  39.768  13.745  11.656
39693W        W11953  14.753  12.569   0.862
39694W        W11954  27.942  30.277  13.836
39695W        W11955  39.989  14.427   0.782
39696W        W11956  43.978   0.381  11.541
39697W        W11957  24.083  30.575  11.856
39698W        W11958   9.339   1.388  13.307
39699W        W11959  16.643   6.098  13.331
39700W        W11960  40.583   5.960  11.999
39701W        W11961  11.191  13.234   4.783
39702W        W11962  29.430  33.889   0.366
39703W        W11963  43.020  39.418   2.898
39704W        W11964  13.029  35.004  12.519
39705W        W11965   5.707  30.638   4.290
39706W        W11966  27.450  17.646   2.655
39707W        W11967  16.750  24.712  13.272
39708W        W11968   7.291  15.374   2.748
39709W        W11969  32.591  19.603   0.699
39710W        W11970  16.772  12.618  13.480
39711W        W11971   3.133  38.787  13.635
39712W        W11972  37.487  29.685  12.595
39713W        W11973  31.510  12.152  13.801
39714W        W11974  35.334  36.741  12.996
39715W        W11975  34.391  38.109   2.054
39716W        W11976  18.996  15.732   2.891
39717W        W11977  40.810  10.778  13.537
39718W        W11978   4.885  23.839   1.749
39719W        W11979   4.930  26.344   1.894
39720W        W11980   8.080  24.960   0.041
39721W        W11981   9.725   1.780   0.914
39722W        W11982   5.864   8.441   3.316
39723W        W11983  37.866  14.560   1.332
39724W        W11984  33.651  21.689   1.046
39725W        W11985   9.408  35.586  10.968
39726W        W11986   0.543   2.848   3.456
39727W        W11987  37.675  18.552  14.982
39728W        W11988  33.116   7.167  13.600
39729W        W11989  32.644   7.878  10.617
39730W        W11990   1.428  27.506   1.913
39731W        W11991  43.878  29.755   0.760
39732W        W11992  40.816  42.167   2.047
39733W        W11993  14.312  14.779  14.562
39734W        W11994  22.690  43.066  12.952
39735W        W11995  28.433   8.531   1.435
39736W        W11996  12.367  19.662   4.651
39737W        W11997   4.465  38.942   4.749
39738W        W11998  25.241  40.977   2.333
39739W        W11999  14.815  15.875  14.041
39740W        W12000   1.464   7.395   0.073
39741W        W12001  44.172  29.674  10.743
39742W        W12002  41.536  15.846   4.309
39743W        W12003  10.393  35.415   2.872
39744W        W12004   9.361  18.141  12.498
39745W        W12005  40.860  25.419  11.717
39746W        W12006  16.829  10.859   2.311
39747W        W12007   9.239  21.746   3.613
39748W        W12008  19.503  29.631   0.954
39749W        W12009   1.176  28.117  11.926
39750W        W12010   2.978   7.365  10.885
39751W        W12011  28.965  24.154  12.863
39752W        W12012   5.792  43.541   3.660
39753W        W12013   5.374  11.708   1.658
39754W        W12014  43.516   6.147  13.035
39755W        W12015   2.852   7.725  13.090
39756W        W12016  11.701   1.941  11.458
39757W        W12017  29.554  16.624  11.245
39758W        W12018  42.836   0.037  12.411
39759W        W12019  35.573  20.214  11.931
39760W        W12020  20.667   1.990   0.901
39761W        W12021  40.906  35.285   1.148
39762W        W12022  40.924  16.212   0.445
39763W        W12023  38.434  17.108  11.539
39764W        W12024  21.266  33.423   4.112
39765W        W12025  41.860   5.357   3.119
39766W        W12026   5.190   8.422   0.407
39767W        W12027   1.498  38.621  13.857
39768W        W12028  10.324  26.459  10.715
39769W        W12029  30.539   3.581  11.501
39770W        W12030  14.772  20.008   4.594
39771W        W12031  37.485   6.617  14.049
39772W        W12032  35.897  19.312   0.725
39773W        W12033  11.328  32.131  10.568
39774W        W12034  39.375  32.408   4.499
39775W        W12035   4.218  20.774  11.581
39776W        W12036   4.929  17.684  12.444
39777W        W12037   1.879  27.641   4.928
39778W        W12038  20.785   8.317   4.850
39779W        W12039  25.818   6.746  12.014
39780W        W12040  25.981  28.889  13.370
39781W        W12041  13.927  23.228  13.454
39782W        W12042   3.938   4.922  13.069
39783W        W12043  42.369   9.411   3.196
39784W        W12044   1.543  34.091  14.284
39785W        W12045  24.894  12.779   2.210
39786W        W12046  36.135  18.091   2.151
39787W        W12047  22.759  17.465  10.055
39788W        W12048  20.460   6.656  14.468
39789W        W12049  36.159   9.390   3.581
39790W        W12050   9.711  15.548  11.596
39791W        W12051  38.755  40.914   4.089
39792W        W12052   8.726  23.593   3.111
39793W        W12053  15.319   2.402  14.989
39794W        W12054  31.730  41.302  10.300
39795W        W12055   6.447   7.846  12.897
39796W        W12056  37.920  15.679  10.938
39797W        W12057  24.850  13.230   2.850
39798W        W12058  24.593  23.972   2.225
39799W        W12059  40.057   9.141   3.122
39800W        W12060  27.016  41.920  11.402
39801W        W12061  19.978   6.372   9.804
39802W        W12062  42.675  22.528  14.732
39803W        W12063   6.096  28.000   5.226
39804W        W12064  12.618   1.471  14.836
39805W        W12065   8.250  11.143  10.911
39806W        W12066  21.755  12.858   0.303
39807W        W12067   4.911  32.717  10.403
39808W        W12068  13.094  32.948  13.872
39809W        W12069  33.341   3.216  10.460
39810W        W12070  12.973   6.152   4.225
39811W        W12071  24.001   8.820   3.509
39812W        W12072  39.435  28.601   1.268
39813W        W12073  22.483  22.800  13.071
39814W        W12074   7.754  14.763   4.261
39815W        W12075   7.340  34.988   4.466
39816W        W12076  25.224  36.997  13.080
39817W        W12077   4.005  19.122   0.608
39818W        W12078  43.313  15.396  11.562
39819W        W12079  17.322  29.135   2.579
39820W        W12080  27.544   0.725  12.119
39821W        W12081  35.079  40.060   4.080
39822W        W12082  22.603  28.576  14.054
39823W        W12083  29.194  26.558  11.707
39824W        W12084  29.563   2.913   2.306
39825W        W12085  23.241  38.579  10.611
39826W        W12086   6.036   1.544   5.111
39827W        W12087  41.853  21.440   0.227
39828W        W12088   9.060  29.431   3.289
39829W        W12089  31.470  32.541  11.282
39830W        W12090  37.299  12.190   0.933
39831W        W12091  26.970  13.412   1.332
39832W        W12092  31.784  29.692  11.014
39833W        W12093   7.397  24.096   4.704
39834W        W12094  14.173  40.453  12.863
39835W        W12095  17.366  41.021  14.565
39836W        W12096  26.172  42.195   2.422
39837W        W12097  16.630  40.322   2.819
39838W        W12098  30.944  27.561   1.269
39839W        W12099   9.916   8.368   0.945
39840W        W12100  40.980  44.084   2.454
39841W        W12101  23.596  25.642  13.762
39842W        W12102  26.480  11.051   3.447
39843W        W12103  19.697  37.866  14.728
39844W        W12104  36.367  24.162  11.921
39845W        W12105  11.089  18.020  11.153
39846W        W12106   3.449  43.373   0.246
39847W        W12107  17.753  18.584  12.238
39848W        W12108   3.154  10.221   3.713
39849W        W12109   5.152  23.695   2.265
39850W        W12110  32.559  12.304  13.127
39851W        W12111  13.055  28.840  12.530
39852W        W12112   4.461   8.645  13.507
39853W        W12113  17.608  18.717  14.950
39854W        W12114  22.518  28.678   5.397
39855W        W12115  14.104  43.530   1.838
39856W        W12116  27.030   7.789   4.130
39857W        W12117  34.026  44.272   1.577
39858W        W12118  38.568  38.353   3.177
39859W        W12119   7.156  40.449   1.407
39860W        W12120  22.558  44.178  11.482
39861W        W12121  19.259  33.184   3.272
39862W        W12122   9.635  41.256  13.004
39863W        W12123  41.147   3.475  11.660
39864W        W12124   8.235  29.091  13.053
39865W        W12125  39.037  24.200  14.837
39866W        W12126  23.580  35.703  12.499
39867W        W12127  31.544  42.100  11.255
39868W        W12128  28.886  19.413   4.407
39869W        W12129  41.871  23.517  14.372
39870W        W12130   4.456  36.366   4.704
39871W        W12131  28.106   1.421  12.059
39872W        W12132  10.425  13.637  14.732
39873W        W12133   2.355  19.527  14.966
39874W        W12134  29.594   1.708   4.208
39875W        W12135  22.502   4.643  10.842
39876W        W12136  29.940  35.632   1.809
39877W        W12137  40.071  41.709   0.446
39878W        W12138  24.209  43.037  14.893
39879W        W12139  38.333  25.891  10.717
39880W        W12140   6.601  22.057   2.722
39881W        W12141  31.237   4.357   4.582
39882W        W12142  23.920  26.912   0.112
39883W        W12143   6.734  10.727   0.250
39884W        W12144  28.467  30.856   0.207
39885W        W12145  22.653  29.309   1.481
39886W        W12146   3.836  40.306   2.783
39887W        W12147  21.004  39.797   2.015
39888W        W12148  26.594  27.719  14.598
39889W        W12149  43.412   4.644   1.696
39890W        W12150  24.449  24.651  14.845
39891W        W12151   3.208  27.682   0.386
39892W        W12152  37.639  22.375   4.997
39893W        W12153   3.890  43.796  11.708
39894W        W12154  27.160  36.014  12.839
39895W        W12155  40.402  41.914  13.024
39896W        W12156   3.723  18.293   2.024
39897W        W12157  39.341  42.019   2.375
39898W        W12158  18.267   5.303   4.171
39899W        W12159  33.138  35.023  13.555
39900W        W12160   4.918  14.519   4.086
39901W        W12161  27.190  25.629  12.885
39902W        W12162  10.008  20.226  14.473
39903W        W12163  18.300  16.882   1.379
39904W        W12164  28.348   1.011  11.095
39905W        W12165  16.175   6.826   3.169
39906W        W12166  22.495  38.543  13.624
39907W        W12167  21.915   3.173  11.103
39908W        W12168  15.265   6.134  12.416
39909W        W12169  23.035   6.968  12.513
39910W        W12170  30.835  29.243  10.067
39911W        W12171  30.961  42.474   3.358
39912W        W12172  26.091   2.934   2.646
39913W        W12173  11.766  30.088  13.395
39914W        W12174  17.329  31.888  11.865
39915W        W12175  25.893   0.291   3.385
39916W        W12176  40.930  43.124   1.366
39917W        W12177   5.417  29.706  13.845
39918W        W12178   9.619  39.741   4.518
39919W        W12179  35.037  20.218   2.640
39920W        W12180  43.940  41.474   1.779
39921W        W12181  14.611  16.187   0.712
39922W        W12182  23.711   3.352  14.315
39923W        W12183  35.356  28.944   2.757
39924W        W12184  12.970  42.347   3.183
39925W        W12185   8.300   5.351   2.138
39926W        W12186  37.909  10.812   0.781
39927W        W12187  28.526   9.613  14.068
39928W        W12188  21.080   8.868   3.153
39929W        W12189   1.984  38.123  12.208
39930W        W12190  41.919  13.252  14.408
39931W        W12191  13.297  17.284   2.747
39932W        W12192   4.149  30.644  12.286
39933W        W12193  35.996  35.168   1.880
39934W        W12194  34.908  23.683  12.898
39935W        W12195   1.236  36.334   0.607
39936W        W12196  36.037   8.166  11.751
39937W        W12197  20.057  14.787  10.652
39938W        W12198  22.624  40.180  11.084
39939W        W12199  32.544  32.416   1.290
39940W        W12200   0.524  25.964   4.272
39941W        W12201  41.040  36.103   3.218
39942W        W12202   3.149  16.798   1.165
39943W        W12203  44.375  13.848  12.373
39944W        W12204  14.851  40.523  10.760
39945W        W12205  14.085  26.115   2.869
39946W        W12206  43.917  17.119   3.706
39947W        W12207   2.949   3.858  14.490
39948W        W12208  42.515  10.653  11.365
39949W        W12209   0.735   6.111  12.475
39950W        W12210   2.335   1.266   0.735
39951W        W12211   7.623  39.028  12.590
39952W        W12212   4.152  21.297  14.831
39953W        W12213  16.280  39.966   1.921
39954W        W12214  15.609  39.657   4.233
39955W        W12215  26.593   9.465   2.221
39956W        W12216  34.352  40.474   3.898
39957W        W12217  28.946  13.897   3.673
39958W        W12218   4.902  31.079   4.155
39959W        W12219  22.659  12.157  12.583
39960W        W12220   0.673  26.475   0.413
39961W        W12221  30.871  34.926   3.733
39962W        W12222  40.561  15.748  10.266
39963W        W12223  15.529  40.033  11.118
39964W        W12224   7.362  41.989   2.409
39965W        W12225   6.025  19.078   3.251
39966W        W12226   8.888  37.471  10.326
39967W        W12227  13.201  28.609  13.975
39968W        W12228  16.120  10.291   2.887
39969W        W12229   8.510  17.648   2.391
39970W        W12230  39.366   9.756  14.774
39971W        W12231   0.534   1.947   1.974
39972W        W12232  42.542   7.767   0.374
39973W        W12233   0.975  40.527  10.986
39974W        W12234  40.479  25.450   0.443
39975W        W12235  28.892   1.092   3.086
39976W        W12236   9.526  27.779  14.959
39977W        W12237  38.770  10.106   1.546
39978W        W12238  23.752  19.763   2.756
39979W        W12239  34.226  34.568  14.690
39980W        W12240  21.547   5.644  13.073
39981W        W12241  31.168  29.661   5.058
39982W        W12242  23.509  31.481   0.545
39983W        W12243   9.362  43.048  12.178
39984W        W12244   7.900  26.034  13.883
39985W        W12245   6.136  20.313  14.025
39986W        W12246  44.801  43.311  14.562
39987W        W12247  30.924  33.785   3.133
39988W        W12248  14.105  32.785   4.299
39989W        W12249  26.121  10.441   0.349
39990W        W12250  43.833  18.566   2.269
39991W        W12251  39.417  34.374  11.070
39992W        W12252  33.349  13.273  12.957
39993W        W12253  27.495  31.931   0.436
39994W        W12254  43.940  26.396   4.262
39995W        W12255  32.489  25.604   2.004
39996W        W12256   1.432  26.480   1.594
39997W        W12257   3.845  16.361  12.974
39998W        W12258  10.478  37.909  10.194
39999W        W12259   2.422  28.803  11.884
40000W        W12260   3.078  17.255  12.740
40001W        W12261  41.794  10.866   4.892
40002W        W12262   6.387  11.698   0.481
40003W        W12263  15.213  11.216  13.974
40004W        W12264  14.824  44.728   0.015
40005W        W12265  31.678  35.254   0.276
40006W        W12266  34.413  25.772   3.339
40007W        W12267   5.207  26.632   4.755
40008W        W12268   6.590  24.704  11.972
40009W        W12269  23.125  24.727  12.416
40010W        W12270   8.433  14.290  14.936
40011W        W12271  31.500  33.076   1.389
40012W        W12272  33.753  35.833   2.379
40013W        W12273  33.951   3.350  14.407
40014W        W12274  28.873   0.326   0.295
40015W        W12275  18.118  14.644   0.100
40016W        W12276  15.618   9.624  12.356
40017W        W12277   1.000  41.296   3.200
40018W        W12278  35.703  20.418   2.674
40019W        W12279  11.321  43.697  12.597
40020W        W12280  11.722  42.089  11.496
40021W        W12281   8.927  43.827  11.659
40022W        W12282   6.722  18.406  11.984
40023W        W12283  21.436  27.127   0.352
40024W        W12284  12.012  19.761   0.094
40025W        W12285  26.839  34.285   3.331
40026W        W12286  22.247  43.772  11.584
40027W        W12287  43.474   3.750  13.860
40028W        W12288  34.898  22.180   9.919
40029W        W12289   8.413   0.741  12.579
40030W        W12290  39.390  21.728   2.851
40031W        W12291  25.976  24.511   1.571
40032W        W12292  38.086  26.153   0.674
40033W        W12293  16.271  32.572  12.443
40034W        W12294  29.477  11.687   3.409
40035W        W12295   6.470  15.802  11.713
40036W        W12296  27.013  11.377  11.761
40037W        W12297  30.964   3.285  11.532
40038W        W12298  10.615  41.006   0.775
40039W        W12299   0.566   2.715  12.529
40040W        W12300  28.060   7.328  12.432
40041W        W12301  30.503  33.926  11.608
40042W        W12302   3.194  26.196   1.786
40043W        W12303  16.876  33.090  13.411
40044W        W12304  23.985   6.631  13.854
40045W        W12305   2.654  11.655   4.759
40046W        W12306   2.408  34.512  13.961
40047W        W12307   4.340   0.450  12.463
40048W        W12308  13.942  15.201  10.125
40049W        W12309  12.290  13.345   2.621
40050W        W12310   7.372  24.476   1.403
40051W        W12311  12.828  33.075   3.407
40052W        W12312  15.722   3.070   0.825
40053W        W12313   1.426  26.404  12.800
40054W        W12314  16.111  29.444   1.317
40055W        W12315  20.822  41.088  14.368
40056W        W12316   4.268  35.350  11.548
40057W        W12317  12.771  18.434   0.885
40058W        W12318  11.146  27.201   0.469
40059W        W12319  26.873  12.142   0.790
40060W        W12320   9.672  43.982   2.274
40061W        W12321  32.930  33.244   4.104
40062W        W12322   3.020  40.291  12.734
40063W        W12323  31.915  16.272  14.902
40064W        W12324  40.901  24.219  14.070
40065W        W12325  19.071  14.359  10.697
40066W        W12326  20.284  20.109  12.068
40067W        W12327  28.280   8.198   4.574
40068W        W12328   2.690  31.164  13.064
40069W        W12329  28.533  22.317  10.292
40070W        W12330  31.176  36.696   4.154
40071W        W12331  18.233  17.077  11.446
40072W        W12332   8.234  40.549   2.320
40073W        W12333  29.141  30.643  12.179
40074W        W12334  18.519  26.647   4.551
40075W        W12335  28.372  21.037   4.937
40076W        W12336  23.079   8.359  14.779
40077W        W12337  22.944  20.327   0.789
40078W        W12338  34.996  10.580  13.794
40079W        W12339  38.794  17.648   1.360
40080W        W12340   6.990   9.830   2.318
40081W        W12341  29.297  15.666  14.806
40082W        W12342  44.246  40.525  13.892
40083W        W12343  38.471  22.518  14.195
40084W        W12344  15.656  20.242  10.709
40085W        W12345   2.772  23.344  12.210
40086W        W12346  32.382  33.775  11.801
40087W        W12347  18.237  38.081  11.084
40088W        W12348   7.606  15.317  14.059
40089W        W12349  38.360  44.907  10.762
40090W        W12350  43.835  38.368  14.554
40091W        W12351  41.330  16.899   0.147
40092W        W12352  33.413  42.226  12.879
40093W        W12353  15.422  39.529   1.899
40094W        W12354  12.745  42.136   0.757
40095W        W12355  41.345  23.011   3.778
40096W        W12356   6.755  35.399   0.409
40097W        W12357   6.292  25.278  13.047
40098W        W12358  41.603   2.806  11.150
40099W        W12359  39.323  17.346  14.419
40100W        W12360  17.287   4.066  12.499
40101W        W12361   8.350  27.680  13.026
40102W        W12362  14.039   7.251  14.230
40103W        W12363  42.836  20.713   3.224
40104W        W12364  22.115  32.039  13.278
40105W        W12365  12.198   2.220  14.681
40106W        W12366  39.351   2.950   3.272
40107W        W12367   7.181  25.051   3.226
40108W        W12368  36.382  17.230   2.913
40109W        W12369  24.576  39.300  12.573
40110W        W12370  31.734  38.481   2.821
40111W        W12371  42.363  23.726  12.677
40112W        W12372  28.538  10.323   0.926
40113W        W12373  33.135  29.168  11.888
40114W        W12374  44.257  37.310  14.093
40115W        W12375  19.306  17.240  12.958
40116W        W12376  11.228   8.465   4.633
40117W        W12377  16.265  12.127   3.320
40118W        W12378  23.536  11.666   4.749
40119W        W12379  14.051  19.614  10.983
40120W        W12380  34.393  38.581   1.816
40121W        W12381   8.819  41.471  10.082
40122W        W12382  15.283  29.776   0.360
40123W        W12383  27.923  19.913   2.239
40124W        W12384  29.890   3.866   4.686
40125W        W12385  28.452  36.489  11.100
40126W        W12386  34.969  13.438   4.550
40127W        W12387  40.827  13.906   0.373
40128W        W12388  20.259  44.212   2.895
40129W        W12389  40.305  32.989  12.641
40130W        W12390   8.958  16.619  14.907
40131W        W12391  17.027   4.578  10.980
40132W        W12392   7.414  42.014   1.885
40133W        W12393  34.648  12.072  14.774
40134W        W12394  36.688  44.579   2.316
40135W        W12395  41.292  31.256   2.282
40136W        W12396  26.050  30.906   3.120
40137W        W12397  23.765   4.809  13.862
40138W        W12398  22.323   2.172   1.484
40139W        W12399  28.636  23.281  12.449
40140W        W12400  26.041  38.125  13.887
40141W        W12401  34.853   7.853   2.847
40142W        W12402   1.884  33.132  10.887
40143W        W12403  16.546  37.581  11.497
40144W        W12404  33.310  10.834   2.320
40145W        W12405  28.067   6.386   2.721
40146W        W12406  21.469  30.598   1.787
40147W        W12407  29.398  20.024   2.972
40148W        W12408  18.950   5.395  10.205
40149W        W12409  44.408   8.886  14.937
40150W        W12410  41.443  24.835  12.543
40151W        W12411  36.429  44.008  13.433
40152W        W12412  32.074  30.416   0.244
40153W        W12413  23.505  21.449  12.856
40154W        W12414   8.733   3.021   2.701
40155W        W12415  16.201  13.752  12.936
40156W        W12416   2.698  33.935  11.587
40157W        W12417  24.106  40.380   2.755
40158W        W12418  34.866   2.748  13.511
40159W        W12419   2.326  13.128   4.782
40160W        W12420  22.588  30.627   3.614
40161W        W12421  40.313  31.632  14.833
40162W        W12422  37.101  34.513   4.649
40163W        W12423  35.096  25.624  11.165
40164W        W12424  16.541  31.072   0.848
40165W        W12425  29.072  38.557  14.778
40166W        W12426  22.196   9.111  11.253
40167W        W12427   8.359  26.728   4.470
40168W        W12428   2.536  18.274   3.786
40169W        W12429  42.149  23.664  13.972
40170W        W12430  42.880  39.210  13.367
40171W        W12431  39.201  14.081   1.339
40172W        W12432   3.716  41.589   0.272
40173W        W12433  21.079  22.179   4.462
40174W        W12434  38.396  14.075   1.292
40175W        W12435  13.680  14.160   2.146
40176W        W12436  32.555  33.910   3.911
40177W        W12437  38.376  11.127   3.851
40178W        W12438   7.202  39.667  11.173
40179W        W12439  33.020  18.107  13.859
40180W        W12440   8.790  32.921  14.142
40181W        W12441  27.925  25.416  12.538
40182W        W12442  42.520  32.730   2.573
40183W        W12443  42.229  15.971  11.050
40184W        W12444  18.702  28.591   1.206
40185W        W12445  33.890  16.951  12.968
40186W        W12446  31.291  16.228   0.488
40187W        W12447  21.108  28.602  13.850
40188W        W12448   2.523   1.854  11.849
40189W        W12449  22.385  38.169  14.948
40190W        W12450  11.325   7.541  12.047
40191W        W12451  31.993  19.724   1.334
40192W        W12452  32.983   7.666  13.544
40193W        W12453  23.222  28.244   0.929
40194W        W12454  36.805   3.819   0.347
40195W        W12455   8.353   0.371   2.428
40196W        W12456  35.551  33.298  14.233
40197W        W12457  38.954  10.709   1.772
40198W        W12458  22.664  32.896  14.738
40199W        W12459  41.097  17.650   1.284
40200W        W12460   9.244  12.142   1.783
40201W        W12461  14.581  27.670  10.980
40202W        W12462  37.789  29.266  11.135
40203W        W12463  11.918   5.391   4.413
40204W        W12464  33.339   2.497   1.775
40205W        W12465  26.479  10.291   2.634
40206W        W12466   6.642  40.518   1.283
40207W        W12467  38.210  29.253  13.035
40208W        W12468  34.080  36.430  13.974
40209W        W12469  19.306  38.019  11.970
40210W        W12470  25.191  22.863   5.243
40211W        W12471  30.963  38.277  11.706
40212W        W12472  16.666  18.231  12.280
40213W        W12473  41.779  26.223   3.741
40214W        W12474  28.224  17.628  12.336
40215W        W12475  43.440   0.680  13.939
40216W        W12476   9.929  20.260   2.886
40217W        W12477  17.036  28.119  10.218
40218W        W12478   0.437   9.983   3.711
40219W        W12479  28.866  11.653  14.681
40220W        W12480   8.814  44.952  13.565
40221W        W12481  36.686  16.819   2.760
40222W        W12482  40.544   7.439   1.019
40223W        W12483  20.297  24.525  12.514
40224W        W12484  28.488  15.545  10.672
40225W        W12485  44.951  20.168  12.534
40226W        W12486   5.199  37.407   4.086
40227W        W12487  30.846  36.004   0.789
40228W        W12488  22.807  39.846   4.118
40229W        W12489  11.216   8.103   4.255
40230W        W12490  34.557  39.964  12.945
40231W        W12491   0.746  20.222  12.934
40232W        W12492  35.275  44.499  10.177
40233W        W12493  11.383  44.219   0.879
40234W        W12494  10.723  39.322  12.380
40235W        W12495  42.963  11.761   3.228
40236W        W12496  40.193  34.501  14.310
40237W        W12497  20.834  21.997   4.867
40238W        W12498  34.112  29.786  12.817
40239W        W12499  44.975  30.212   4.149
40240W        W12500  29.193  23.657   1.798
40241W        W12501   0.849   5.851  13.612
40242W        W12502  16.550  20.982  14.851
40243W        W12503   3.364  38.939  11.359
40244W        W12504  22.670  31.661  10.961
40245W        W12505  16.537  31.093   2.381
40246W        W12506  43.341  32.385  14.259
40247W        W12507  19.911  41.583  13.514
40248W        W12508   6.586  30.848   1.865
40249W        W12509  19.049  31.001   4.482
40250W        W12510  25.055  12.537   0.842
40251W        W12511  24.020  35.048  12.069
40252W        W12512  33.638  34.435   2.243
40253W        W12513   5.673  31.923  14.095
40254W        W12514   1.944   5.360   0.889
40255W        W12515   5.749  15.702   4.632
40256W        W12516  38.775  41.864   4.064
40257W        W12517  43.289  39.049   1.733
40258W        W12518  12.688  31.434   0.534
40259W        W12519  11.461  37.038  14.965
40260W        W12520  11.415   9.414   1.250
40261W        W12521  42.275  27.518   3.148
40262W        W12522  15.551  42.730  11.514
40263W        W12523  21.593  15.246   4.825
40264W        W12524  38.370  10.338   1.334
40265W        W12525  41.820  37.919  14.879
40266W        W12526  16.226  38.095   0.772
40267W        W12527   6.376  20.535   2.237
40268W        W12528  20.808  19.967   3.857
40269W        W12529  22.914  38.752  12.009
40270W        W12530  14.093   6.607   0.963
40271W        W12531  44.398  18.539  12.067
40272W        W12532  21.077  23.466  11.008
40273W        W12533   9.888  16.758   3.284
40274W        W12534  41.492  24.776   4.093
40275W        W12535  31.086   3.365   4.331
40276W        W12536  22.317  14.497  13.236
40277W        W12537  34.676  28.615   4.757
40278W        W12538  37.188  21.430   2.007
40279W        W12539  15.232  31.059   0.406
40280W        W12540  34.446  15.621   2.302
40281W        W12541   9.502   6.135  11.269
40282W        W12542  14.804  13.352   3.686
40283W        W12543  25.644  37.369   4.610
40284W        W12544   4.015  21.304  13.976
40285W        W12545  41.828   0.698  12.075
40286W        W12546   6.931  27.019  11.890
40287W        W12547   6.382  13.127   1.642
40288W        W12548  28.223  12.720   2.561
40289W        W12549  24.481  37.539  12.947
40290W        W12550  14.531   1.010  11.187
40291W        W12551   9.141  23.030  14.020
40292W        W12552  37.707  10.090   2.776
40293W        W12553  11.386  43.989   3.124
40294W        W12554  40.494  18.647   0.340
40295W        W12555   7.989  41.355  11.285
40296W        W12556  23.656  19.098   3.065
40297W        W12557   9.695  19.490  12.507
40298W        W12558  30.019  12.570   1.264
40299W        W12559  24.031  16.750  10.738
40300W        W12560  12.679   1.256   3.741
40301W        W12561   0.525  18.658   2.711
40302W        W12562  13.681  39.518   2.688
40303W        W12563   8.166  31.633  12.986
40304W        W12564  22.650  18.639  12.688
40305W        W12565   0.890  40.035  14.961
40306W        W12566  34.421  18.228   3.723
40307W        W12567  35.295  41.371   4.196
40308W        W12568  30.982   5.775  12.139
40309W        W12569   1.427  25.618  12.396
40310W        W12570   4.855  10.582  14.878
40311W        W12571  18.656  22.308  11.505
40312W        W12572   3.201  42.658   0.264
40313W        W12573  40.572  30.246   4.549
40314W        W12574  11.263  10.755   4.031
40315W        W12575  31.378  23.003  11.073
40316W        W12576  42.409  44.739   1.927
40317W        W12577  27.185  31.081  13.416
40318W        W12578   3.821  31.649   0.878
40319W        W12579  38.039  36.386   1.225
40320W        W12580  13.578  17.886  13.043
40321W        W12581  40.059   6.148  13.289
40322W        W12582  18.331  36.105   2.211
40323W        W12583  41.616   1.340  13.928
40324W        W12584  20.083  44.330   3.383
40325W        W12585   8.700  36.280   2.118
40326W        W12586  21.991   4.976   2.767
40327W        W12587  21.004  10.244   1.493
40328W        W12588  19.124   5.946   1.658
40329W        W12589   9.914  19.605   3.282
40330W        W12590  15.587   5.311   1.999
40331W        W12591  18.728   2.880  13.816
40332W        W12592   9.924  27.063  11.927
40333W        W12593  35.638  17.124   2.278
40334W        W12594  16.594  42.960  13.547
40335W        W12595  38.932  40.724   1.407
40336W        W12596  39.365  15.473   3.698
40337W        W12597   7.003   2.120  11.201
40338W        W12598  33.941   7.221  12.051
40339W        W12599  13.217  11.991   3.685
40340W        W12600   9.361  18.626  14.734
40341W        W12601   7.269  37.444  12.807
40342W        W12602  22.465  27.070  13.898
40343W        W12603  17.170  14.861   3.713
40344W        W12604   2.432  21.602   2.397
40345W        W12605  33.400  13.527  10.690
40346W        W12606  35.724  15.526  10.452
40347W        W12607  18.774  13.802  13.974
40348W        W12608  41.892   1.839   1.960
40349W        W12609  23.973   8.361   5.055
40350W        W12610   7.854  24.388   1.261
40351W        W12611  29.918   6.785  13.837
40352W        W12612  18.023  20.506   0.366
40353W        W12613  25.465   2.288  14.573
40354W        W12614  42.064  25.422  11.177
40355W        W12615  43.918   6.646   2.328
40356W        W12616   1.796  15.913  10.632
40357W        W12617   7.677  34.799   2.687
40358W        W12618  38.257  25.456   1.833
40359W        W12619   5.555   5.853   4.253
40360W        W12620  41.881  30.221   2.952
40361W        W12621  36.902  17.468  10.737
40362W        W12622  15.845  16.234  10.477
40363W        W12623  44.459  10.845   2.405
40364W        W12624  28.349   0.908   3.175
40365W        W12625  22.055  11.632  12.029
40366W        W12626  25.416  32.060   0.406
40367W        W12627   5.062  28.155   0.983
40368W        W12628  43.834  30.017  14.949
40369W        W12629  13.766   6.671   1.362
40370W        W12630   7.751  31.275   3.207
40371W        W12631  10.109   3.315  11.009
40372W        W12632  23.410  21.231   3.680
40373W        W12633  23.718   3.582   5.025
40374W        W12634  30.057  40.943  13.420
40375W        W12635  30.975  33.148   3.947
40376W        W12636  42.352   0.215  12.100
40377W        W12637  29.397  32.525   3.157
40378W        W12638   6.725  18.934   1.003
40379W        W12639  22.979  22.691  10.303
40380W        W12640   3.601   1.183   3.664
40381W        W12641  33.506  18.196   0.658
40382W        W12642  26.264  44.718   1.252
40383W        W12643  33.076  43.815  11.567
40384W        W12644   7.354  37.700   3.604
40385W        W12645   7.155  33.699  12.534
40386W        W12646  15.906  32.335  14.825
40387W        W12647  10.214   4.788  10.396
40388W        W12648  14.268  30.946  11.418
40389W        W12649   4.021  30.471  12.760
40390W        W12650  29.470  11.752   0.427
40391W        W12651   1.933  17.494  11.652
40392W        W12652  15.880  14.384  11.040
40393W        W12653  20.435   2.271   1.310
40394W        W12654  17.045  21.101   4.021
40395W        W12655  40.122  39.841  11.144
40396W        W12656  38.133  14.325   1.690
40397W        W12657   8.027  37.141   4.283
40398W        W12658  26.443  11.568  11.190
40399W        W12659  41.895  42.954   0.276
40400W        W12660  27.410  31.477   0.684
40401W        W12661  17.155  33.548   4.286
40402W        W12662  24.085   6.765   2.760
40403W        W12663  15.989   8.478   4.254
40404W        W12664   0.283  42.144   4.011
40405W        W12665  26.035  19.143   1.332
40406W        W12666  23.354   6.237  10.882
40407W        W12667   2.166   7.572   1.315
40408W        W12668  24.851  32.523   0.021
40409W        W12669  22.220  32.883  10.521
40410W        W12670  42.047  38.049   1.833
40411W        W12671  17.763  20.798  12.999
40412W        W12672  30.358  20.443  12.389
40413W        W12673  12.901  21.238  13.341
40414W        W12674  25.784   9.652  11.377
40415W        W12675  35.758   0.969   1.804
40416W        W12676   2.505  38.071   4.143
40417W        W12677   0.002  35.426  11.392
40418W        W12678  41.502  44.515  14.698
40419W        W12679  39.915  16.954   4.153
40420W        W12680  20.574  34.604   4.373
40421W        W12681   8.984   3.743  12.929
40422W        W12682  31.884  24.128  14.227
40423W        W12683  17.589  36.625   4.174
40424W        W12684  36.892  11.903  12.309
40425W        W12685  23.316  35.855  13.830
40426W        W12686  43.453  26.935   4.274
40427W        W12687  27.738  17.012  13.101
40428W        W12688  36.987  32.508   0.868
40429W        W12689  11.166  38.608  14.392
40430W        W12690  11.250  16.088  14.500
40431W        W12691  23.653  24.506   0.270
40432W        W12692  39.426  36.960  11.957
40433W        W12693  15.778   6.266   4.319
40434W        W12694  22.585  44.221  12.455
40435W        W12695  21.339  39.159  12.485
40436W        W12696   1.832  29.593  11.946
40437W        W12697  38.489  23.985  11.488
40438W        W12698   0.742  14.737   1.704
40439W        W12699  27.057  34.872   2.780
40440W        W12700  42.965  17.609   0.614
40441W        W12701   1.644   3.947  12.963
40442W        W12702  14.322  36.765  13.772
40443W        W12703  12.738  29.700   1.238
40444W        W12704  38.774  19.878  10.297
40445W        W12705   5.243   6.201  13.864
40446W        W12706  42.001  17.082  13.573
40447W        W12707  35.421  30.952   1.188
40448W        W12708   4.237  21.284  11.512
40449W        W12709   8.150  41.025   4.038
40450W        W12710  10.064  18.047  10.372
40451W        W12711  36.584  35.891   1.263
40452W        W12712   1.221  44.543   2.168
40453W        W12713  24.065  32.127  12.650
40454W        W12714  20.858   4.404  14.600
40455W        W12715  23.546  35.128   4.120
40456W        W12716   3.239  18.356   2.335
40457W        W12717  25.018  28.579   2.872
40458W        W12718   3.760  37.136  12.528
40459W        W12719  43.675  42.950  13.915
40460W        W12720  14.031   9.382   0.131
40461W        W12721  20.128  13.113  14.622
40462W        W12722   7.822   1.852  14.352
40463W        W12723  12.948  36.670   1.610
40464W        W12724  26.921  41.957   4.679
40465W        W12725  33.002  23.682   0.511
40466W        W12726  40.240   8.088  10.170
40467W        W12727  29.447  23.125  11.994
40468W        W12728  17.764  32.400   3.247
40469W        W12729  22.809  30.173  14.012
40470W        W12730  34.832  42.962   0.451
40471W        W12731  36.428  37.308   0.698
40472W        W12732   6.170  16.086   3.392
40473W        W12733   2.937   6.094   1.842
40474W        W12734  22.157  44.311   2.705
40475W        W12735  44.939  11.212   4.606
40476W        W12736   3.451  16.147   2.456
40477W        W12737  39.573  42.931  13.557
40478W        W12738  27.607   1.237  12.142
40479W        W12739  29.540  16.724   3.697
40480W        W12740  11.223  25.479   0.724
40481W        W12741  32.042  28.464  11.491
40482W        W12742   9.056  15.276  12.174
40483W        W12743  24.415  13.375   2.582
40484W        W12744  36.356  39.867  13.106
40485W        W12745  27.277  27.907   3.323
40486W        W12746  21.670  34.969   3.557
40487W        W12747   0.454  22.165   1.892
40488W        W12748  26.533   4.924   3.179
40489W        W12749  25.511  29.515   4.357
40490W        W12750  13.320  29.471  11.757
40491W        W12751  40.149  10.301   5.016
40492W        W12752   8.268  17.391  10.869
40493W        W12753  25.983  30.836  12.040
40494W        W12754  30.867  37.629   2.193
40495W        W12755  31.314  35.348  10.787
40496W        W12756  14.123   7.789  13.336
40497W        W12757  30.364  42.934   3.695
40498W        W12758  35.066  13.687   3.610
40499W        W12759  14.153  14.686  13.394
40500W        W12760  13.205   4.853   1.930
40501W        W12761   3.008  44.014  14.010
40502W        W12762  21.107   5.730   4.110
40503W        W12763  34.943  22.592   3.745
40504W        W12764  30.068  25.429   0.470
40505W        W12765  23.156  12.380  13.509
40506W        W12766  10.145  44.980  11.120
40507W        W12767   2.264  13.903  11.571
40508W        W12768  22.819  40.000  10.569
40509W        W12769  31.417  11.354  12.387
40510W        W12770  25.806  11.913  13.795
40511W        W12771   9.818  25.519   2.331
40512W        W12772   8.886  19.767   0.311
40513W        W12773  10.942   4.908   2.728
40514W        W12774   5.850  20.655  12.974
40515W        W12775  42.860  18.076  12.196
40516W        W12776  24.634  11.274  11.220
40517W        W12777  24.149  41.981   3.288
40518W        W12778  36.514   5.456  11.724
40519W        W12779   6.125  15.880   5.010
40520W        W12780  15.839  43.635  13.589
40521W        W12781   3.814  14.314   1.749
40522W        W12782  20.568   6.857   2.203
40523W        W12783  23.921   1.518  13.489
40524W        W12784  25.783  44.728  13.757
40525W        W12785  29.582  17.249   2.766
40526W        W12786  40.149  28.379   0.769
40527W        W12787  23.936   9.367  14.036
40528W        W12788  36.436  24.054   0.234
40529W        W12789   0.774  16.358  11.181
40530W        W12790  37.070  21.552   4.254
40531W        W12791  36.222  12.730   1.103
40532W        W12792  27.502   0.884  10.928
40533W        W12793   6.279  18.170  14.008
40534W        W12794  33.605  26.480   2.627
40535W        W12795  44.455  40.281  14.834
40536W        W12796  16.277   6.778  11.025
40537W        W12797  33.438  28.613   0.344
40538W        W12798   4.528   9.839   0.476
40539W        W12799   5.605  39.263   2.703
40540W        W12800  30.541   9.863   2.786
40541W        W12801   3.370  23.425  10.870
40542W        W12802  27.608  40.401  11.491
40543W        W12803  32.948  41.251   2.831
40544W        W12804  16.045  39.229   4.120
40545W        W12805  21.610  38.976  11.122
40546W        W12806  41.455   0.518  10.881
40547W        W12807   2.967  44.001   0.729
40548W        W12808  10.076  39.748  10.960
40549W        W12809  31.656   7.377  11.517
40550W        W12810  18.165  13.726  11.432
40551W        W12811  10.922  33.556  10.364
40552W        W12812   3.854  32.970  10.766
40553W        W12813  37.647  38.551   3.270
40554W        W12814   1.111   3.919  12.979
40555W        W12815  30.346  14.435   4.720
40556W        W12816  19.510  43.942   2.115
40557W        W12817  35.078  15.994  11.906
40558W        W12818   6.419  22.630   3.492
40559W        W12819  42.969  41.107   2.238
40560W        W12820   9.105  43.347  10.420
40561W        W12821  42.013  18.626  11.461
40562W        W12822   7.838  29.271   2.858
40563W        W12823   0.537  27.696   3.756
40564W        W12824  27.905   1.259   4.250
40565W        W12825  25.002  27.207   1.345
40566W        W12826  26.965  12.786   3.905
40567W        W12827  32.611  35.634   3.157
40568W        W12828   1.943  44.884   0.066
40569W        W12829   2.431  42.966  12.688
40570W        W12830  32.650   9.243   0.434
40571W        W12831  12.093  33.446  11.705
40572W        W12832  33.463   2.089   4.130
40573W        W12833  31.885  20.646  13.810
40574W        W12834   0.509   5.693   4.206
40575W        W12835  23.269  39.779  12.991
40576W        W12836  43.514  12.325  13.471
40577W        W12837   9.584   0.172  13.810
40578W        W12838   3.556   5.315   1.873
40579W        W12839  40.503  38.600   0.637
40580W        W12840   3.016  36.582  11.439
40581W        W12841   5.474  14.317  14.401
40582W        W12842  13.875   3.036   4.637
40583W        W12843  30.235  35.436   1.385
40584W        W12844  20.737  44.668  13.548
40585W        W12845  20.949  14.072   1.959
40586W        W12846   8.788  21.796  14.565
40587W        W12847   7.178  22.966   0.321
40588W        W12848  12.914  27.940   0.067
40589W        W12849   9.696  36.888  14.277
40590W        W12850  12.567  39.963   2.600
40591W        W12851  35.230  24.992   1.314
40592W        W12852   8.475  41.025   3.546
40593W        W12853  34.934  10.143   2.283
40594W        W12854  34.590  27.922   3.402
40595W        W12855  30.160  36.811   2.302
40596W        W12856  15.822  41.943   4.564
40597W        W12857  25.721  31.993   2.244
40598W        W12858  12.706  20.330   1.157
40599W        W12859  21.820  19.465   4.057
40600W        W12860  33.185   9.479   1.268
40601W        W12861  34.211  19.113   0.829
40602W        W12862  43.241  25.175  12.582
40603W        W12863  14.755  35.184   0.010
40604W        W12864  42.576  36.457   2.580
40605W        W12865  16.251  29.077   2.879
40606W        W12866  42.586  22.566  11.019
40607W        W12867   0.024  43.605   0.896
40608W        W12868  15.575  43.843   4.559
40609W        W12869  18.165   8.611  12.886
40610W        W12870  28.884   5.758   0.096
40611W        W12871  34.013  25.438   1.835
40612W        W12872  28.964  29.081  11.008
40613W        W12873  23.256  36.427   3.398
40614W        W12874  18.408  23.344   0.702
40615W        W12875  24.173  14.668   4.442
40616W        W12876  22.698  24.105   0.851
40617W        W12877  21.700  26.517   2.166
40618W        W12878  16.182  44.436   2.550
40619W        W12879  14.401  21.115  12.653
40620W        W12880  21.970  33.610  11.202
40621W        W12881  30.647   2.965   0.661
40622W        W12882  31.815  19.680  12.845
40623W        W12883  19.250  43.555  12.920
40624W        W12884  44.038  40.760   4.045
40625W        W12885  39.363   6.001   1.544
40626W        W12886   7.924  38.600  12.520
40627W        W12887  35.318  30.099  13.029
40628W        W12888  33.168  35.871   4.687
40629W        W12889  15.506   1.696   1.914
40630W        W12890  19.786  25.991  12.871
40631W        W12891  42.725   5.456   0.744
40632W        W12892  10.355  22.548  11.925
40633W        W12893  38.146  19.973  14.008
40634W        W12894   2.456   2.954  11.956
40635W        W12895  10.812   2.465  11.194
40636W        W12896  24.440  35.466   3.236
40637W        W12897   9.557  23.476  11.667
40638W        W12898   3.795  23.090  14.514
40639W        W12899  10.533  13.680   4.428
40640W        W12900  38.972  16.728  13.542
40641W        W12901  22.503  36.022   0.685
40642W        W12902   7.376  13.185   3.595
40643W        W12903  41.934  32.089   1.496
40644W        W12904  28.250  34.180  13.519
40645W        W12905  26.970  26.613   0.317
40646W        W12906  32.980   7.159  10.678
40647W        W12907   0.378  33.089   4.150
40648W        W12908  40.056  27.252   0.360
40649W        W12909  30.580  36.090  11.629
40650W        W12910   0.313  12.240  12.851
40651W        W12911  14.888  34.538  13.804
40652W        W12912  11.116  33.983   2.260
40653W        W12913  28.461  19.149   4.569
40654W        W12914  20.033  34.508  14.712
40655W        W12915  34.596   2.603   1.712
40656W        W12916  24.386  38.049   0.309
40657W        W12917  44.819  14.649   2.709
40658W        W12918   6.645  43.309  13.438
40659W        W12919  14.157   3.336  10.715
40660W        W12920  23.571  16.629   4.629
40661W        W12921  28.268   4.728  11.159
40662W        W12922  24.272  14.110   3.209
40663W        W12923  42.091  40.916  10.546
40664W        W12924  32.586  16.941   3.569
40665W        W12925  23.609  27.511  10.524
40666W        W12926  43.861  18.100  11.551
40667W        W12927   1.672   4.895   0.912
40668W        W12928  37.305   2.848  10.799
40669W        W12929  38.859   9.432   5.033
40670W        W12930   6.839  22.558  11.719
40671W        W12931  20.027  16.569  12.604
40672W        W12932  19.006  21.271   3.280
40673W        W12933  13.882  39.798  13.803
40674W        W12934  25.696  37.818  10.542
40675W        W12935  25.768  11.428  13.986
40676W        W12936  21.550  34.415  14.696
40677W        W12937  16.658  27.021   2.802
40678W        W12938  14.231  12.017   1.363
40679W        W12939  44.717  14.887  14.271
40680W        W12940   6.927  35.378  10.773
40681W        W12941  41.974   8.190   2.426
40682W        W12942  22.010  19.709  13.764
40683W        W12943   6.705  19.367   4.234
40684W        W12944   7.208  19.770   0.217
40685W        W12945  35.970   4.835   1.503
40686W        W12946  34.056  26.509   1.758
40687W        W12947   7.806  41.052   1.788
40688W        W12948   3.951   0.762  12.033
40689W        W12949  18.495   5.687  12.572
40690W        W12950  26.014  15.533  12.330
40691W        W12951  19.764  33.602  11.442
40692W        W12952  40.609  31.444  14.471
40693W        W12953  28.412  31.504  13.772
40694W        W12954  15.657   6.417  13.328
40695W        W12955  28.907  27.632  14.738
40696W        W12956   8.240   8.452  11.977
40697W        W12957   4.311  34.395  14.820
40698W        W12958  14.425  36.116   4.827
40699W        W12959   6.888  13.149   2.414
40700W        W12960   7.309  33.897   3.122
40701W        W12961  11.630  39.827   1.062
40702W        W12962  10.518  32.385  11.165
40703W        W12963   6.170   7.855  13.335
40704W        W12964   1.223   3.233  12.576
40705W        W12965  30.201   5.284   4.208
40706W        W12966  33.165  19.062  14.991
40707W        W12967   1.149  15.943   4.100
40708W        W12968   4.866  39.590   0.149
40709W        W12969  20.249  34.638  12.888
40710W        W12970  14.372  15.892  10.003
40711W        W12971   5.896  16.311   2.434
40712W        W12972  26.881  44.736  12.567
40713W        W12973   2.385  36.763   0.065
40714W        W12974   4.150  44.873  11.734
40715W        W12975  24.031  35.455   2.935
40716W        W12976  42.514  36.727   2.995
40717W        W12977  25.940   8.733  10.933
40718W        W12978  10.569  26.153   3.138
40719W        W12979  15.651  34.028  12.409
40720W        W12980  24.626  31.124   1.388
40721W        W12981  34.956   6.778  11.584
40722W        W12982  31.014  21.189  12.629
40723W        W12983  13.616  43.769  14.284
40724W        W12984  40.525  23.650   0.434
40725W        W12985   9.200  14.725   1.910
40726W        W12986  15.530  29.157   0.252
40727W        W12987  17.241   5.159   4.290
40728W        W12988  38.875  42.351  14.704
40729W        W12989  30.209  18.073   1.786
40730W        W12990  35.340  19.639  10.639
40731W        W12991  27.755  29.587   0.805
40732W        W12992  42.602  20.028   1.871
40733W        W12993  36.420  13.852  10.866
40734W        W12994  30.972   8.786   1.350
40735W        W12995  21.072  11.225   3.237
40736W        W12996  31.945  41.211  12.043
40737W        W12997  21.698  24.739  14.461
40738W        W12998  10.458   9.713  14.516
40739W        W12999  15.726   7.335   1.505
40740W        W13000  25.545  18.260   3.570
40741W        W13001  23.681  27.745  14.857
40742W        W13002   8.208   1.311   4.547
40743W        W13003  27.085  27.211   4.444
40744W        W13004  25.150  37.738   0.823
40745W        W13005   6.238  26.534  14.083
40746W        W13006   1.172  36.265  14.359
40747W        W13007  37.116  40.125   0.749
40748W        W13008  22.203   8.757   3.215
40749W        W13009  23.028  17.027   1.131
40750W        W13010  36.386   0.237  12.159
40751W        W13011  25.369   8.174  13.134
40752W        W13012  32.603  39.949   4.095
40753W        W13013  25.969  16.130   1.120
40754W        W13014  37.549  25.542   4.169
40755W        W13015  33.858  29.007  11.115
40756W        W13016  41.904  40.424  13.078
40757W        W13017  24.231  22.955   2.004
40758W        W13018  23.301  34.847   3.768
40759W        W13019  44.827  41.530  13.334
40760W        W13020  32.010  33.554   0.269
40761W        W13021  44.942  26.998   3.726
40762W        W13022   5.298  23.449  13.790
40763W        W13023  39.377  31.460  12.793
40764W        W13024  27.669  20.677  10.985
40765W        W13025  28.174  39.366   4.185
40766W        W13026  37.122   5.713   2.657
40767W        W13027   5.242  32.630   3.275
40768W        W13028  10.675  21.715  10.712
40769W        W13029  25.992  16.259   1.725
40770W        W13030   8.689  10.328   1.222
40771W        W13031  26.256   9.181  13.658
40772W        W13032  10.679   4.469   4.826
40773W        W13033   2.237  11.914   0.537
40774W        W13034  40.799  40.544   4.884
40775W        W13035  38.727  32.355  13.977
40776W        W13036  25.664   9.708  11.864
40777W        W13037  11.016  24.053   4.783
40778W        W13038  30.493  28.043  13.977
40779W        W13039  30.564  44.918   1.335
40780W        W13040  29.454  11.573   2.488
40781W        W13041  38.530  19.101  12.349
40782W        W13042  36.286  30.540  13.503
40783W        W13043  31.442  40.283  14.906
40784W        W13044  13.944  38.833  12.467
40785W        W13045  24.429  13.003   2.232
40786W        W13046  31.368  29.123  14.536
40787W        W13047  28.655   1.997  11.602
40788W        W13048  21.598  26.245  14.477
40789W        W13049  29.116  36.582   3.805
40790W        W13050   8.176   1.023  12.022
40791W        W13051  19.708  32.815  12.179
40792W        W13052  44.151  41.654   4.166
40793W        W13053  23.410  26.713  13.022
40794W        W13054  11.345  24.535  14.149
40795W        W13055  11.661  36.420  14.582
40796W        W13056  10.334  36.339   4.719
40797W        W13057  41.756  42.396   3.591
40798W        W13058   9.856   9.621  12.405
40799W        W13059  10.290   9.405   1.973
40800W        W13060  18.195   7.628   4.104
40801W        W13061  42.531  29.233  13.384
40802W        W13062  20.129   9.423   0.396
40803W        W13063  39.339   3.929  11.474
40804W        W13064  44.075   6.786  14.433
40805W        W13065  26.167  18.085   3.035
40806W        W13066  34.630   4.732  13.515
40807W        W13067   0.097  34.955  11.598
40808W        W13068   8.713  29.502  14.053
40809W        W13069  40.912  14.962  12.796
40810W        W13070  28.929  32.573   1.304
40811W        W13071  29.153   8.815   4.602
40812W        W13072  42.905   7.936   2.653
40813W        W13073  28.903  25.701  13.591
40814W        W13074  39.776  11.330  12.883
40815W        W13075  43.182  30.679  14.955
40816W        W13076   3.357  40.426  11.191
40817W        W13077  43.366  25.666  11.358
40818W        W13078  36.496  13.889   2.762
40819W        W13079   7.424  22.122   3.316
40820W        W13080  19.593  36.385   2.217
40821W        W13081  37.496  42.247   4.855
40822W        W13082  10.405  10.835   3.089
40823W        W13083  38.849  34.844  14.913
40824W        W13084  13.390  39.310   1.855
40825W        W13085  22.708  25.474  10.951
40826W        W13086   8.528  36.744   2.805
40827W        W13087  10.772  23.018   1.149
40828W        W13088  24.676  14.986   1.848
40829W        W13089  36.797  26.578   3.438
40830W        W13090  11.730   5.729   1.143
40831W        W13091  27.983  31.059   0.346
40832W        W13092  42.710   1.905   1.387
40833W        W13093  26.294  31.349   3.273
40834W        W13094  15.620  24.552  10.801
40835W        W13095  10.736  25.247  14.021
40836W        W13096   4.846   3.892   0.484
40837W        W13097   0.326  14.320   4.125
40838W        W13098   2.940  44.447  14.476
40839W        W13099  35.473  26.255  13.541
40840W        W13100  42.311  41.306  12.131
40841W        W13101  43.479  12.440   3.582
40842W        W13102   6.592  18.524   4.969
40843W        W13103  26.240   8.602   9.978
40844W        W13104   7.755  14.119   2.611
40845W        W13105  23.963  20.437   5.124
40846W        W13106   5.738  31.973  11.132
40847W        W13107  42.917   7.891   4.994
40848W        W13108  17.874  19.742   4.552
40849W        W13109   7.182  30.492  12.114
40850W        W13110   1.056   3.323   3.699
40851W        W13111  21.745  36.648   2.336
40852W        W13112  22.317  28.380   5.037
40853W        W13113  30.192  29.620   5.034
40854W        W13114  25.916  31.531  11.650
40855W        W13115  10.677   6.390  13.973
40856W        W13116  34.483   4.841  11.710
40857W        W13117  16.617   4.039  14.443
40858W        W13118  36.280  41.978   4.543
40859W        W13119  30.399  19.550  12.418
40860W        W13120  39.171  33.485  11.455
40861W        W13121  26.895  23.431  13.808
40862W        W13122   8.873  42.883  13.630
40863W        W13123  21.024  28.766  11.961
40864W        W13124   5.432  26.127   4.731
40865W        W13125  26.530  26.470  14.112
40866W        W13126  41.451  18.569   2.344
40867W        W13127  17.342   1.164  11.130
40868W        W13128   0.314  40.540  12.531
40869W        W13129  12.116  35.670   3.849
40870W        W13130  40.222   7.375  11.734
40871W        W13131  40.063  17.081   3.253
40872W        W13132  18.641  29.845  12.781
40873W        W13133  44.725   3.062   2.144
40874W        W13134  15.579  27.632   2.656
40875W        W13135  22.025   0.412   0.306
40876W        W13136  18.362   1.348   2.328
40877W        W13137   4.907   8.300   4.660
40878W        W13138  14.827  43.323  12.012
40879W        W13139  41.882   6.453   0.228
40880W        W13140  13.936   9.584   4.077
40881W        W13141  10.931  43.811  11.732
40882W        W13142  19.582  21.220   0.344
40883W        W13143  23.922  18.993   9.887
40884W        W13144  39.993  25.090   2.398
40885W        W13145  11.788  28.456   3.179
40886W        W13146   5.080   2.449   4.631
40887W        W13147  42.850  44.370   4.567
40888W        W13148  34.609  26.587   4.235
40889W        W13149  22.330   6.257  12.596
40890W        W13150   1.163  34.838   2.923
40891W        W13151  14.351   5.787  11.194
40892W        W13152  11.802  25.184  11.311
40893W        W13153  27.096  27.572  10.941
40894W        W13154   8.132  31.923  11.997
40895W        W13155  33.938  28.005   4.572
40896W        W13156  10.464  17.919   2.883
40897W        W13157  38.376  41.442   0.066
40898W        W13158  31.859  27.284   3.245
40899W        W13159  23.507  26.085   3.747
40900W        W13160  10.490  38.436   3.850
40901W        W13161  33.147  11.106   3.736
40902W        W13162  42.101   6.096  11.114
40903W        W13163   2.877  23.783  13.029
40904W        W13164  14.849   2.955   0.805
40905W        W13165   4.980  27.115   1.600
40906W        W13166  18.111  35.501   1.391
40907W        W13167  40.117  10.219  10.522
40908W        W13168   9.193  21.154  13.979
40909W        W13169   7.657  43.717  10.589
40910W        W13170   9.302   3.397  12.643
40911W        W13171  13.621  42.843  12.823
40912W        W13172  40.049  33.480   2.899
40913W        W13173  10.993  38.346   3.942
40914W        W13174  12.147  29.493  13.035
40915W        W13175   0.443  38.367  11.178
40916W        W13176  23.067  33.517  10.594
40917W        W13177  32.582   4.694   1.673
40918W        W13178  15.149  40.183   0.702
40919W        W13179  17.064  11.173  13.410
40920W        W13180  40.073  30.571  10.748
40921W        W13181  20.556   0.462   1.368
40922W        W13182  17.611  29.383  14.053
40923W        W13183  10.104  25.582   0.333
40924W        W13184  22.294  39.197  13.393
40925W        W13185   1.059  37.800   2.428
40926W        W13186  44.816  20.236   5.036
40927W        W13187  17.500  36.363   2.304
40928W        W13188  39.922  11.864   0.147
40929W        W13189  24.510   1.752   0.277
40930W        W13190  19.737   2.872  13.793
40931W        W13191   6.198  41.510   1.845
40932W        W13192  31.569  41.407   4.616
40933W        W13193   2.844  42.297   0.350
40934W        W13194  42.728  10.699  13.028
40935W        W13195   9.134  35.935  11.987
40936W        W13196   8.764  43.959   4.173
40937W        W13197  23.312  40.750   1.699
40938W        W13198  38.579  41.570   1.366
40939W        W13199  28.360  32.905  13.964
40940W        W13200  21.275  16.242  11.981
40941W        W13201  39.911   5.883  10.769
40942W        W13202  22.413  42.639  13.418
40943W        W13203  34.991  32.360  11.328
40944W        W13204  33.858  19.918   3.873
40945W        W13205  27.196  36.079   3.071
40946W        W13206   2.964  20.192  11.533
40947W        W13207  29.456   0.413   2.776
40948W        W13208   7.402   5.740   2.859
40949W        W13209   1.979  42.565   0.291
40950W        W13210  22.544   2.054   4.605
40951W        W13211   4.775  40.371   2.836
40952W        W13212   0.313   3.818   0.876
40953W        W13213  38.970  34.894  10.824
40954W        W13214  37.383   3.066  13.509
40955W        W13215  17.861  16.814  14.247
40956W        W13216  17.775  23.269   3.807
40957W        W13217  22.212  39.015   3.782
40958W        W13218   9.413  34.985  12.955
40959W        W13219   8.750   8.419  10.753
40960W        W13220  27.019   9.894   3.348
40961W        W13221  17.522  21.960  12.005
40962W        W13222   8.363   4.383  12.484
40963W        W13223   2.335   8.920  14.781
40964W        W13224   6.181   5.853  11.358
40965W        W13225  14.654  36.399   4.115
40966W        W13226  35.596  35.802   2.707
40967W        W13227   7.807  20.759  13.693
40968W        W13228   3.426   3.713   4.567
40969W        W13229  32.510   5.722  10.599
40970W        W13230  19.739  36.333   1.304
40971W        W13231   3.917  17.286   2.222
40972W        W13232  12.073   3.378  13.641
40973W        W13233  35.405  22.666   1.935
40974W        W13234  32.028  19.714  13.806
40975W        W13235  30.625  36.582  11.548
40976W        W13236  14.319  23.652  12.084
40977W        W13237  36.897  34.987   3.205
40978W        W13238   2.216  16.787  11.033
40979W        W13239  14.643  17.709  11.682
40980W        W13240   5.661  44.002  10.544
40981W        W13241  25.477  33.163   3.192
40982W        W13242  26.772  27.344  12.923
40983W        W13243  29.882   1.499  11.725
40984W        W13244  41.757  13.506  11.302
40985W        W13245  11.280  20.776   3.202
40986W        W13246  18.534   9.263   1.864
40987W        W13247  37.087   1.822  12.897
40988W        W13248  18.716  13.207   4.110
40989W        W13249  23.041  28.038   4.565
40990W        W13250  10.344   1.497   2.250
40991W        W13251   2.789  27.142   4.114
40992W        W13252  21.464  26.747  14.489
40993W        W13253   1.460  10.969  12.452
40994W        W13254  31.060   8.206   0.406
40995W        W13255  35.649  16.667  12.587
40996W        W13256  40.989  24.440   3.689
40997W        W13257  19.047   9.058   5.123
40998W        W13258  20.173  31.656  11.239
40999W        W13259  11.462  27.238   2.269
41000W        W13260  23.661   2.441  13.346
41001W        W13261  19.067   9.844   4.132
41002W        W13262   4.220  34.935  10.667
41003W        W13263  34.933  15.262  14.784
41004W        W13264  19.184  36.970  12.694
41005W        W13265  30.110  30.672   2.162
41006W        W13266  20.851  31.524  10.625
41007W        W13267   4.944  11.699   5.237
41008W        W13268  12.777  34.257  12.137
41009W        W13269  42.303  37.153   2.753
41010W        W13270  30.981  42.793   2.615
41011W        W13271  44.267  21.178   3.672
41012W        W13272  36.940  33.628   4.799
41013W        W13273   6.148  26.235  13.255
41014W        W13274  13.887   4.644  11.467
41015W        W13275  26.851  26.567  13.264
41016W        W13276  29.348  22.580  13.020
41017W        W13277  37.036  31.590  13.892
41018W        W13278  25.021  27.306  12.380
41019W        W13279  24.159  29.664  12.832
41020W        W13280  16.656  26.934   2.227
41021W        W13281  10.141   9.725  11.131
41022W        W13282  34.458  17.124   3.983
41023W        W13283   9.828  29.264  11.613
41024W        W13284  38.850  17.684  10.375
41025W        W13285  44.344  22.205  11.202
41026W        W13286  16.746  15.602   0.774
41027W        W13287  40.717  34.049   3.949
41028W        W13288   3.446  30.557   2.520
41029W        W13289  14.774   3.198   1.318
41030W        W13290  29.727   0.543  11.529
41031W        W13291  40.248  20.080   0.402
41032W        W13292  13.743  30.788  14.028
41033W        W13293  37.024  33.485  10.703
41034W        W13294  42.742   4.220  12.977
41035W        W13295   9.178  29.967   3.223
41036W        W13296  28.435   0.541   0.447
41037W        W13297  42.980  23.225   0.890
41038W        W13298  22.655  23.500   0.218
41039W        W13299  25.883  41.768  14.051
41040W        W13300   6.314   4.745  10.643
41041W        W13301  18.604  30.709   4.648
41042W        W13302  25.954   9.313  14.590
41043W        W13303  21.391   2.309   3.576
41044W        W13304  32.347  34.297  14.391
41045W        W13305   8.364   6.106   4.198
41046W        W13306  11.309   6.890  12.856
41047W        W13307   0.580  23.263  12.326
41048W        W13308  14.182  15.167   0.532
41049W        W13309  12.523  27.695   0.350
41050W        W13310  44.202  30.930  14.911
41051W        W13311  13.331   1.107   1.793
41052W        W13312   1.465  28.487  11.148
41053W        W13313  33.795  34.972   3.234
41054W        W13314  32.389  18.701  13.605
41055W        W13315  37.353  10.647   3.381
41056W        W13316  33.141  39.016  13.328
41057W        W13317  27.058  29.980  14.294
41058W        W13318  37.703  13.001   1.430
41059W        W13319   5.511  30.915   3.892
41060W        W13320  33.977  24.342   2.318
41061W        W13321  39.738  31.175   0.581
41062W        W13322  20.362  10.757  11.890
41063W        W13323   4.967  38.323  12.461
41064W        W13324  36.836   5.215   0.488
41065W        W13325  40.842  18.670   3.149
41066W        W13326  11.936   4.085   2.655
41067W        W13327  22.480  43.957  14.295
41068W        W13328   5.707   2.235  11.604
41069W        W13329  22.328  22.196  10.371
41070W        W13330  20.847   3.921   2.685
41071W        W13331   9.134  17.504  13.999
41072W        W13332  44.263  39.978  10.005
41073W        W13333  14.310  19.747  10.175
41074W        W13334  42.544  17.189  11.582
41075W        W13335   2.469  11.226  12.868
41076W        W13336  27.126  43.342  13.938
41077W        W13337  19.747  24.934  14.642
41078W        W13338  17.246  21.733  13.922
41079W        W13339  23.516  11.783   2.623
41080W        W13340  19.754  29.167   0.826
41081W        W13341  13.945  19.799   0.804
41082W        W13342  34.945  38.922  13.532
41083W        W13343  44.746  40.578   0.945
41084W        W13344  25.702  44.401   1.299
41085W        W13345  13.440  15.337  12.053
41086W        W13346  24.068  18.806   3.756
41087W        W13347  10.617   2.934  12.958
41088W        W13348  32.562  12.570   2.624
41089W        W13349  21.506  10.749  12.574
41090W        W13350  39.942   8.505   0.426
41091W        W13351  22.577  24.030  12.409
41092W        W13352  26.027   5.367  10.651
41093W        W13353  12.428  19.520  14.906
41094W        W13354  33.531  33.405   1.353
41095W        W13355  21.764  43.282   2.710
41096W        W13356  12.146  26.456  13.787
41097W        W13357  29.030  11.240   2.681
41098W        W13358   1.492   3.594   3.731
41099W        W13359  17.051  12.133   4.861
41100W        W13360  40.752  11.952  11.126
41101W        W13361  16.130  39.771   3.542
41102W        W13362  18.025   8.257   2.406
41103W        W13363  37.887   1.849   4.611
41104W        W13364   9.422  42.855   2.650
41105W        W13365  27.090  14.346  10.907
41106W        W13366  41.459  17.997   1.438
41107W        W13367  36.293  27.091  13.230
41108W        W13368   6.772  26.426  14.467
41109W        W13369  41.199   2.466   2.353
41110W        W13370  22.077  18.186   4.551
41111W        W13371  37.497  38.627  13.567
41112W        W13372  19.671  36.254  12.052
41113W        W13373  40.050   7.062   1.004
41114W        W13374  25.829   6.014  12.986
41115W        W13375   1.912   7.657  14.994
41116W        W13376  13.656  30.528   5.480
41117W        W13377  33.608  18.471  14.375
41118W        W13378  38.502  22.979   3.215
41119W        W13379   9.752  34.120   0.902
41120W        W13380  31.814  15.371  12.800
41121W        W13381  26.262  17.387  11.170
41122W        W13382  18.136  27.009  10.937
41123W        W13383  42.510  42.430  14.446
41124W        W13384  21.942   0.749   2.883
41125W        W13385   8.489   8.714   2.121
41126W        W13386  20.989   1.016   1.867
41127W        W13387  24.953   6.408  13.042
41128W        W13388  10.717  22.969   0.118
41129W        W13389   6.432  10.733   1.373
41130W        W13390  44.921  32.687   3.200
41131W        W13391  40.920   6.843  13.866
41132W        W13392  15.621  42.345   0.280
41133W        W13393  39.171  19.727  10.605
41134W        W13394   5.431  17.710   0.811
41135W        W13395  27.184   3.819  11.086
41136W        W13396   8.852  14.135   2.165
41137W        W13397  37.883  24.325   2.214
41138W        W13398  34.019   2.892  10.671
41139W        W13399  35.333  20.613  12.165
41140W        W13400  26.343  25.728  12.365
41141W        W13401  31.430  19.125   3.401
41142W        W13402  32.644  21.149   1.085
41143W        W13403  17.079  11.162   1.947
41144W        W13404  39.359  44.633  13.894
41145W        W13405  43.493   5.005  14.426
41146W        W13406  40.042  35.411   0.164
41147W        W13407  26.707  39.506   0.013
41148W        W13408  14.411  19.520  10.637
41149W        W13409   5.397  32.201  13.480
41150W        W13410   4.203  35.113  14.857
41151W        W13411  21.316  10.759   0.523
41152W        W13412  34.964  22.154  14.065
41153W        W13413  10.329  16.213   4.600
41154W        W13414  31.621   5.291   4.895
41155W        W13415  12.736  35.534  12.761
41156W        W13416   5.184  25.649   0.467
41157W        W13417  17.733  12.354   0.716
41158W        W13418   2.806   3.198  12.555
41159W        W13419   2.781  35.823   2.820
41160W        W13420  17.932   7.877   2.080
41161W        W13421   9.345   2.957   1.335
41162W        W13422  43.710  15.076  14.910
41163W        W13423  33.557   5.277  14.327
41164W        W13424   5.966  12.803   1.424
41165W        W13425  10.926  44.985  11.476
41166W        W13426  12.167  34.659   0.278
41167W        W13427   7.734  10.584  13.335
41168W        W13428  28.463  38.974  11.158
41169W        W13429   2.752  39.697   0.896
41170W        W13430   9.400   8.076  13.440
41171W        W13431  30.620  25.203  11.215
41172W        W13432  10.855  27.019  10.614
41173W        W13433  34.545  28.653  12.096
41174W        W13434  28.978  24.643  10.756
41175W        W13435  12.411  18.524   2.203
41176W        W13436  40.034  32.039   1.803
41177W        W13437  24.672  14.530  11.578
41178W        W13438   2.462  43.760  14.806
41179W        W13439   5.109  10.157   3.653
41180W        W13440  36.205  27.937   1.565
41181W        W13441  38.996  28.557   3.924
41182W        W13442   9.152  24.699  10.768
41183W        W13443  21.279  25.853   5.418
41184W        W13444  33.606  33.123   3.071
41185W        W13445   1.869  30.097   0.034
41186W        W13446  32.409  41.986   1.722
41187W        W13447  41.629  26.801   1.068
41188W        W13448  32.407  21.069   0.611
41189W        W13449  38.990   4.518  10.742
41190W        W13450   9.780   4.434   2.808
41191W        W13451  42.653   0.306  12.833
41192W        W13452  32.636   2.794   3.559
41193W        W13453   7.831  13.248   0.489
41194W        W13454  15.052  32.271  13.401
41195W        W13455  14.108   8.270   0.333
41196W        W13456  39.982   1.424   0.878
41197W        W13457  10.874  44.471  13.343
41198W        W13458  16.773   9.583   1.896
41199W        W13459   8.708  17.491   4.543
41200W        W13460  27.454   2.035   3.326
41201W        W13461  10.296   9.897   1.762
41202W        W13462  10.229  27.183  13.271
41203W        W13463  14.902  27.066   2.696
41204W        W13464  27.397  10.998  13.315
41205W        W13465  17.962  25.793   4.739
41206W        W13466  31.155  31.148   4.116
41207W        W13467  19.051  41.885   2.855
41208W        W13468  42.819   4.330   1.602
41209W        W13469   5.538  28.596  14.488
41210W        W13470  15.724   8.637  14.823
41211W        W13471  38.310   1.492  14.976
41212W        W13472  44.865  34.593   2.303
41213W        W13473  35.115  23.062  14.358
41214W        W13474   1.839  20.061  12.423
41215W        W13475  17.723  34.673   3.766
41216W        W13476  11.604  34.599  14.355
41217W        W13477  32.112   7.141  12.709
41218W        W13478  43.238  15.908  11.434
41219W        W13479  10.962   8.915   4.544
41220W        W13480  30.076  13.344  14.923
41221W        W13481  41.795  18.596  10.543
41222W        W13482  31.456  37.496   3.784
41223W        W13483  44.061  26.597  13.909
41224W        W13484   2.054  27.154   3.157
41225W        W13485  11.647   3.855  12.058
41226W        W13486  41.569  41.335  12.958
41227W        W13487  34.017  11.401  13.363
41228W        W13488  12.560  21.085  11.660
41229W        W13489  35.029  38.081   1.330
41230W        W13490  13.667  28.737   0.120
41231W        W13491  22.983  20.780  12.507
41232W        W13492  15.034  15.268   3.805
41233W        W13493  28.053  38.151  14.340
41234W        W13494  27.978  27.084   3.387
41235W        W13495   7.483  14.265   3.419
41236W        W13496  23.129   4.479  12.982
41237W        W13497  38.970  31.499   2.766
41238W        W13498  35.921   9.941  11.034
41239W        W13499   4.078  22.661  14.645
41240W        W13500  15.272  40.281  13.647
41241W        W13501   1.311  31.384  13.897
41242W        W13502  12.752  17.678   3.699
41243W        W13503  23.619  29.812  10.607
41244W        W13504  10.242  35.632   5.049
41245W        W13505  25.165  15.730   3.436
41246W        W13506  13.384  33.487  14.769
41247W        W13507   3.984  42.083  12.079
41248W        W13508  43.192  33.705  10.831
41249W        W13509  15.813  26.024  13.765
41250W        W13510  32.925  15.550  12.107
41251W        W13511  38.118  33.921  12.165
41252W        W13512   8.062   2.147   0.746
41253W        W13513   8.372  34.389   3.750
41254W        W13514  20.985   8.821  10.280
41255W        W13515   3.936  39.499   0.536
41256W        W13516  39.139  30.122  11.154
41257W        W13517  43.902   9.624  14.071
41258W        W13518  42.927  43.258   1.949
41259W        W13519  30.446  33.105   2.738
41260W        W13520  16.298   6.240  11.567
41261W        W13521  21.258  32.388   1.215
41262W        W13522   9.095  21.650  14.113
41263W        W13523   3.303   2.486   0.013
41264W        W13524  37.414  43.081   4.548
41265W        W13525  37.613  13.252   4.572
41266W        W13526   7.102  43.363  14.459
41267W        W13527  24.534  16.641  10.664
41268W        W13528  39.980  16.802   4.672
41269W        W13529  35.297  26.879  14.499
41270W        W13530  12.317  34.592   2.235
41271W        W13531   4.164  13.362  13.136
41272W        W13532   4.417  39.178  10.661
41273W        W13533  32.467   1.967   1.262
41274W        W13534  43.228  20.766  10.213
41275W        W13535  26.052  10.158   3.761
41276W        W13536  14.382  19.085  11.980
41277W        W13537  29.136  28.395  14.979
41278W        W13538  32.342   6.845  11.136
41279W        W13539  16.749  40.528  11.114
41280W        W13540   8.962  32.161   1.972
41281W        W13541  31.867   0.738   4.613
41282W        W13542  26.600  24.747   2.367
41283W        W13543  29.470   1.260  11.964
41284W        W13544  21.625  11.491  11.084
41285W        W13545   3.249  14.792   1.622
41286W        W13546  40.729  43.044  14.287
41287W        W13547   3.837  44.706  12.884
41288W        W13548  20.198  23.092   1.916
41289W        W13549   1.864  23.447  11.932
41290W        W13550  13.973  12.638   4.527
41291W        W13551  35.127  34.604  12.446
41292W        W13552  14.092  29.649   1.734
41293W        W13553   8.846  12.811  12.035
41294W        W13554  15.823  39.824  10.734
41295W        W13555  41.751  32.951  13.074
41296W        W13556   6.767  38.886  10.613
41297W        W13557  13.237  37.068   3.193
41298W        W13558  38.154  37.486   4.538
41299W        W13559  35.064  24.204   4.504
41300W        W13560   8.185  30.880   4.866
41301W        W13561   9.388  31.676  13.445
41302W        W13562  28.150  44.605   0.442
41303W        W13563  21.176  17.113   1.221
41304W        W13564  27.695  33.402   0.069
41305W        W13565  44.004  16.656  12.515
41306W        W13566   7.385   4.224  11.543
41307W        W13567  27.911  34.118  14.392
41308W        W13568  23.810  40.615   1.797
41309W        W13569  28.479  14.949   2.611
41310W        W13570  13.388  21.210  13.523
41311W        W13571   8.216  39.770   1.138
41312W        W13572  24.503  26.244  11.063
41313W        W13573  37.586  17.814  11.119
41314W        W13574  19.655   4.661  14.037
41315W        W13575  36.869   3.286   2.815
41316W        W13576  35.165  37.127  12.521
41317W        W13577   7.352  11.072   2.792
41318W        W13578  20.988   1.185   4.115
41319W        W13579  16.610  44.842   1.321
41320W        W13580  12.333  23.271   0.720
41321W        W13581  30.913  26.390  11.497
41322W        W13582  17.852  31.873   4.761
41323W        W13583  24.256  11.734   3.235
41324W        W13584  40.313   5.328  12.577
41325W        W13585   6.587  37.562  10.988
41326W        W13586  36.088   5.249   1.880
41327W        W13587  13.046  31.854   4.594
41328W        W13588  12.326  44.389   2.320
41329W        W13589   5.911  29.548  13.981
41330W        W13590  39.550  29.425  12.641
41331W        W13591  35.288  34.391   0.812
41332W        W13592  28.937  43.268  14.947
41333W        W13593   6.623   7.676   2.765
41334W        W13594   4.668  39.399   2.026
41335W        W13595   0.771  31.648  13.025
41336W        W13596  31.616   3.444   2.739
41337W        W13597  34.926  11.832  12.765
41338W        W13598  32.065  23.274   4.604
41339W        W13599  38.558   1.709  14.451
41340W        W13600  35.029  28.010  12.547
41341W        W13601  36.593  36.207  11.520
41342W        W13602  38.020  32.643  11.096
41343W        W13603  34.974  16.756  11.087
41344W        W13604  10.704   8.052   4.617
41345W        W13605  40.517  35.125   4.123
41346W        W13606  33.753  34.857   0.086
41347W        W13607  44.009  32.127  13.491
41348W        W13608  23.817   8.068   2.761
41349W        W13609  10.073   9.377  11.481
41350W        W13610  43.567  11.100   3.611
41351W        W13611  15.733  22.290  10.599
41352W        W13612  21.435  40.043   1.209
41353W        W13613  22.493  17.755   3.756
41354W        W13614  44.235  15.688   2.837
41355W        W13615   6.732  24.959  12.490
41356W        W13616  28.421  28.494   3.089
41357W        W13617  33.090  27.193  11.634
41358W        W13618  15.687  32.576   2.719
41359W        W13619   8.104  31.317  12.578
41360W        W13620  24.212   6.441  13.423
41361W        W13621  32.623   1.541  12.898
41362W        W13622  18.263  19.127   2.188
41363W        W13623  23.046   7.287  10.950
41364W        W13624  17.002  10.232  14.795
41365W        W13625  23.530  29.073   4.075
41366W        W13626  27.414  25.960  13.257
41367W        W13627  43.001  42.529  14.328
41368W        W13628  27.911  10.377   0.351
41369W        W13629   7.944  35.382  13.040
41370W        W13630  36.070  11.096  12.966
41371W        W13631   8.688  15.849   1.381
41372W        W13632  15.687  34.706  14.917
41373W        W13633  37.080   5.238  14.034
41374W        W13634  33.593  11.256  10.120
41375W        W13635  38.473  21.786   2.427
41376W        W13636  17.764  10.140   3.614
41377W        W13637  32.081  19.106   2.018
41378W        W13638  36.482   2.442  12.013
41379W        W13639  20.588  31.315  12.030
41380W        W13640  39.903   9.091  13.016
41381W        W13641  27.520   6.933   3.497
41382W        W13642  26.655   3.514   1.262
41383W        W13643  24.020  44.937   2.003
41384W        W13644   6.335  38.327  11.251
41385W        W13645  37.317  40.083   4.268
41386W        W13646  19.747  43.417  10.484
41387W        W13647  32.006   0.737  12.919
41388W        W13648   3.759  14.816   1.911
41389W        W13649  13.328   8.741   0.242
41390W        W13650  36.852  23.262  12.519
41391W        W13651  31.485  29.709   3.809
41392W        W13652   6.456  33.260   2.659
41393W        W13653  16.635   8.388   2.285
41394W        W13654   6.615  23.530   1.418
41395W        W13655  12.723  22.303  14.815
41396W        W13656  31.522  37.142  13.985
41397W        W13657  29.208  32.374   9.910
41398W        W13658   0.665  40.065   0.848
41399W        W13659  18.818  36.544  11.070
41400W        W13660  30.073  38.410   0.083
41401W        W13661  26.954  19.223   4.441
41402W        W13662  21.832   6.426   0.912
41403W        W13663  19.235   6.141   9.944
41404W        W13664   3.820  12.846   3.587
41405W        W13665   8.145  17.997   2.390
41406W        W13666  23.246  20.128   3.221
41407W        W13667  37.446  28.485  11.232
41408W        W13668   6.373  34.165   5.054
41409W        W13669  31.313   9.735   0.434
41410W        W13670  14.135  26.942  13.930
41411W        W13671  17.130  25.950   2.234
41412W        W13672  28.217  31.553  11.884
41413W        W13673  27.734  14.091   2.313
41414W        W13674  25.455  14.134   4.094
41415W        W13675  38.526  10.305  14.846
41416W        W13676  18.352  27.469   4.045
41417W        W13677  24.630  44.535   1.489
41418W        W13678   9.744  14.671   3.275
41419W        W13679  24.571   8.566   2.793
41420W        W13680   0.441  18.668  14.708
41421W        W13681   3.046  28.592  12.911
41422W        W13682  21.177  20.124  12.542
41423W        W13683   5.428  30.901   0.824
41424W        W13684  36.511   6.518  12.109
41425W        W13685  17.509  21.674  11.381
41426W        W13686  35.117   8.883   4.729
41427W        W13687   2.395   0.332  10.543
41428W        W13688  36.557  16.546   3.642
41429W        W13689  20.601   2.629   1.642
41430W        W13690  44.204  34.589  14.860
41431W        W13691  44.562  40.482   3.132
41432W        W13692  16.210  39.716   1.466
41433W        W13693  12.308  44.457  11.933
41434W        W13694  29.492  31.636   9.902
41435W        W13695  28.414  40.423   0.392
41436W        W13696   3.727  25.704   4.324
41437W        W13697  14.156  20.538   3.850
41438W        W13698  32.128  27.509  13.279
41439W        W13699   4.371  24.033   0.497
41440W        W13700  11.140   0.966   4.405
41441W        W13701   4.735  22.487   2.245
41442W        W13702   4.947  36.086   4.078
41443W        W13703  42.473  20.392  13.320
41444W        W13704  20.849  43.325  11.907
41445W        W13705  33.138  35.346  14.627
41446W        W13706  13.102  15.607   0.514
41447W        W13707  39.128  40.669  12.055
41448W        W13708  16.368  34.851   2.239
41449W        W13709  27.155   3.399   3.705
41450W        W13710   2.433  39.115  12.900
41451W        W13711  25.585  17.037   1.416
41452W        W13712  43.564  16.665  14.420
41453W        W13713  42.112  10.146   0.473
41454W        W13714  21.755  27.819   4.331
41455W        W13715  22.262  31.456   2.186
41456W        W13716  33.899  13.681  10.692
41457W        W13717  36.357  37.672   4.989
41458W        W13718  44.222  31.454  11.973
41459W        W13719   2.247  42.994   0.424
41460W        W13720  30.895   0.217   2.867
41461W        W13721   1.309  11.612   3.400
41462W        W13722  12.794  42.792  10.882
41463W        W13723  39.998  29.535   1.343
41464W        W13724   9.976  42.686   2.739
41465W        W13725  42.780   3.808   2.281
41466W        W13726   1.858   1.236  13.538
41467W        W13727  36.368   5.806   3.587
41468W        W13728  16.580   3.453   3.299
41469W        W13729  30.741  27.007  12.423
41470W        W13730  24.157  14.751   0.024
41471W        W13731   9.195  14.108   1.291
41472W        W13732   3.533  39.364   0.827
41473W        W13733   0.208  31.900   1.737
41474W        W13734  26.286  32.428  11.609
41475W        W13735  31.079  17.802   4.918
41476W        W13736   8.282  17.521  14.259
41477W        W13737  15.272  11.553  13.383
41478W        W13738  19.097  26.508  12.090
41479W        W13739  12.840  17.142   4.956
41480W        W13740  28.875  43.014  13.441
41481W        W13741  30.975  32.903   2.111
41482W        W13742   8.816  40.470   4.170
41483W        W13743  36.537  36.167   0.398
41484W        W13744   1.848  36.262  13.822
41485W        W13745  15.672   5.863  10.683
41486W        W13746   1.905  14.353   2.148
41487W        W13747  13.186  28.103   3.590
41488W        W13748   9.855  26.107   2.325
41489W        W13749  20.814  41.891   2.214
41490W        W13750   1.899  42.753   0.800
41491W        W13751  26.106   7.344   3.474
41492W        W13752  36.977  28.644   0.747
41493W        W13753  26.371  24.020   1.774
41494W        W13754  43.812  13.550  12.046
41495W        W13755  22.344  19.095  12.701
41496W        W13756  40.163   7.378  13.077
41497W        W13757  16.356  38.328   3.809
41498W        W13758   3.882  28.046  11.748
41499W        W13759  26.183  13.641  11.231
41500W        W13760  39.133  21.267   2.777
41501W        W13761  42.267  19.458   2.941
41502W        W13762  18.592  26.549  13.384
41503W        W13763  43.965  28.119  11.546
41504W        W13764   4.721  40.791  13.528
41505W        W13765  43.442  27.715   1.690
41506W        W13766   5.234   7.806  14.731
41507W        W13767  15.544   3.469   4.950
41508W        W13768   5.755  38.575   3.248
41509W        W13769   6.463  25.691   3.269
41510W        W13770  16.333  31.577  12.995
41511W        W13771  39.282   6.382  10.567
41512W        W13772  27.515  22.431  13.009
41513W        W13773  21.468   2.715   2.288
41514W        W13774  10.944  27.656   0.633
41515W        W13775  20.362   3.903  11.163
41516W        W13776  40.087  12.557  10.603
41517W        W13777   7.418  44.211   4.243
41518W        W13778  31.502  44.109   1.443
41519W        W13779  16.671  22.691  14.609
41520W        W13780  41.387  18.333   0.513
41521W        W13781  28.921   7.689   2.267
41522W        W13782  21.532  27.478  10.543
41523W        W13783  19.134  16.112  13.413
41524W        W13784   7.614   8.443   1.326
41525W        W13785  26.421   8.130   1.265
41526W        W13786  20.504   4.290  14.978
41527W        W13787  40.820  26.625   4.513
41528W        W13788  21.233  37.249   0.822
41529W        W13789  20.954   3.533   4.556
41530W        W13790  24.874  34.536  14.003
41531W        W13791  10.691  16.677  14.304
41532W        W13792   6.197  32.072   0.846
41533W        W13793  21.924   8.284  14.837
41534W        W13794  37.994  41.389   4.116
41535W        W13795  41.814  42.097   2.805
41536W        W13796  38.510  10.979  11.160
41537W        W13797  13.809  27.215  10.727
41538W        W13798   4.248  18.526   0.652
41539W        W13799  26.546   5.801   1.391
41540W        W13800  18.955  12.670   0.906
41541W        W13801   2.725  14.411   3.745
41542W        W13802  39.741   3.311  10.443
41543W        W13803  34.915  40.169   3.261
41544W        W13804  42.280  28.011  14.251
41545W        W13805  34.709  44.407  14.432
41546W        W13806  15.195  10.700  13.899
41547W        W13807  26.755   6.757  14.944
41548W        W13808  15.288  24.540  12.908
41549W        W13809  25.122  22.705   0.898
41550W        W13810  35.117  14.573   4.519
41551W        W13811  27.035  30.182   2.231
41552W        W13812  30.965  35.970  10.398
41553W        W13813  13.829  22.602   4.802
41554W        W13814  43.950  11.305   1.763
41555W        W13815  40.883  33.515  11.891
41556W        W13816  43.039  23.726   1.045
41557W        W13817  18.359  35.980   3.638
41558W        W13818  36.755  22.652  12.098
41559W        W13819   5.018  35.518   2.789
41560W        W13820   4.814  44.409  11.958
41561W        W13821   6.991  41.388  13.271
41562W        W13822  38.976  14.838  12.541
41563W        W13823  24.880  17.684   1.697
41564W        W13824  29.230   8.488   2.040
41565W        W13825   4.928   9.646  14.829
41566W        W13826   1.759  30.624   1.700
41567W        W13827  30.502  30.001  13.809
41568W        W13828  13.158  43.429  10.627
41569W        W13829   3.317  44.695  13.337
41570W        W13830  16.636  23.268  13.618
41571W        W13831   3.258  39.689   3.217
41572W        W13832   9.827  40.902  11.775
41573W        W13833  32.382  27.695  14.991
41574W        W13834  31.829  13.635   2.501
41575W        W13835  19.450   7.665  14.693
41576W        W13836  25.115  41.938  12.133
41577W        W13837  28.057  40.440   5.057
41578W        W13838  10.410  21.975   2.879
41579W        W13839   8.500  13.351   5.034
41580W        W13840  44.467  43.227  12.455
41581W        W13841   3.652  39.097   4.603
41582W        W13842  17.844  38.615   2.794
41583W        W13843  28.994  23.831  12.456
41584W        W13844  10.622  12.075  11.200
41585W        W13845  30.736  28.379  11.674
41586W        W13846  22.030   5.311  13.735
41587W        W13847  17.622  37.511  14.693
41588W        W13848  12.644  30.921   2.724
41589W        W13849   1.897  24.508   4.832
41590W        W13850   5.533  38.061   1.442
41591W        W13851  28.200  18.867   4.047
41592W        W13852  21.234  15.136   4.472
41593W        W13853  18.690  22.997  14.411
41594W        W13854  35.567  37.222   4.312
41595W        W13855  10.513  16.542  11.953
41596W        W13856  29.682  36.148  11.573
41597W        W13857  38.971  41.409  14.535
41598W        W13858  34.139  24.698   4.214
41599W        W13859  41.266  19.224   1.701
41600W        W13860  37.367   4.668   9.938
41601W        W13861  18.358  33.111   3.300
41602W        W13862  36.221  39.007   3.227
41603W        W13863  36.577   7.336   2.290
41604W        W13864  20.872  41.578   4.794
41605W        W13865   2.285   5.185  14.552
41606W        W13866   0.278  24.536   1.960
41607W        W13867  34.637  24.193  11.596
41608W        W13868  20.163  19.018   0.275
41609W        W13869  30.086  28.672   3.277
41610W        W13870  29.202  34.024  10.906
41611W        W13871  41.925  19.881   3.135
41612W        W13872  29.730  32.304  13.243
41613W        W13873  22.126  30.468   1.345
41614W        W13874   6.744  26.566   4.723
41615W        W13875   9.117  35.891   1.277
41616W        W13876  38.100  18.069  14.207
41617W        W13877  12.229   5.816   2.891
41618W        W13878  19.498   7.205   2.727
41619W        W13879  42.451   0.450  10.785
41620W        W13880  22.430  29.496   4.875
41621W        W13881  23.453  38.478  13.329
41622W        W13882  29.421  34.914   2.414
41623W        W13883  30.054  15.176  10.684
41624W        W13884  22.784  37.435   1.815
41625W        W13885   8.343  26.027   5.367
41626W        W13886   6.376  12.646   4.518
41627W        W13887  30.896  36.016   5.040
41628W        W13888   4.548  26.476   2.284
41629W        W13889  29.700  34.468  12.467
41630W        W13890  26.566  44.956  10.461
41631W        W13891  23.196  26.235  12.962
41632W        W13892  13.057  27.683  14.122
41633W        W13893  25.507   0.302  12.913
41634W        W13894   6.698  29.714   4.156
41635W        W13895   8.979  37.576  13.367
41636W        W13896  23.674   6.885  13.499
41637W        W13897   8.389   2.512   3.260
41638W        W13898  33.455  39.073   4.659
41639W        W13899  39.437  41.276   4.381
41640W        W13900   5.610  14.180  12.233
41641W        W13901  25.530  31.553   4.145
41642W        W13902  36.874   5.317  14.982
41643W        W13903  44.143  36.401  10.146
41644W        W13904  17.560  42.945  11.528
41645W        W13905   0.170   8.529   5.036
41646W        W13906  22.701  31.650   0.420
41647W        W13907  14.646  25.013   0.281
41648W        W13908  28.208  37.706   2.926
41649W        W13909  15.526  16.844  11.011
41650W        W13910  30.038  15.329  14.337
41651W        W13911  10.766  12.080   1.669
41652W        W13912  31.931  29.033  11.568
41653W        W13913  40.477  34.738   4.497
41654W        W13914   4.742  31.438  14.441
41655W        W13915  26.669  31.700   1.848
41656W        W13916  15.711  39.978   3.814
41657W        W13917  24.995  21.936   3.186
41658W        W13918  19.085  22.993  13.466
41659W        W13919   7.832  36.319  11.171
41660W        W13920  13.780   7.711   2.487
41661W        W13921  11.132  26.872   0.875
41662W        W13922  19.186  29.570  14.972
41663W        W13923   2.037  41.083   1.436
41664W        W13924  13.119  22.062  13.328
41665W        W13925  28.662  44.432  13.488
41666W        W13926  27.595  35.805   0.532
41667W        W13927   3.245  31.885   4.615
41668W        W13928   1.004   6.672   3.677
41669W        W13929  33.745   3.401  13.235
41670W        W13930  33.910  13.094   4.353
41671W        W13931  23.645  11.870   0.413
41672W        W13932  36.950  40.662  12.594
41673W        W13933   2.103  29.875   0.986
41674W        W13934   4.737  24.478   0.956
41675W        W13935  37.429  26.575   4.322
41676W        W13936  13.297  43.862   0.665
41677W        W13937  34.495  20.099   1.144
41678W        W13938  34.134  23.426  12.006
41679W        W13939  16.405  23.673  14.880
41680W        W13940  16.222  18.567   4.666
41681W        W13941  12.162  17.081  14.017
41682W        W13942  30.236  20.959  13.998
41683W        W13943   3.797   7.633   4.491
41684W        W13944  40.899  26.364   0.792
41685W        W13945  35.962  16.224  12.427
41686W        W13946  22.125  16.823   0.423
41687W        W13947   6.436  16.851  12.981
41688W        W13948   5.992  18.148  12.829
41689W        W13949  34.489  16.654  11.987
41690W        W13950  23.721  30.392  13.032
41691W        W13951  16.121   2.050   0.107
41692W        W13952  16.412  20.152   1.903
41693W        W13953   1.699   1.920  12.301
41694W        W13954  40.490  36.119   2.800
41695W        W13955  35.483   9.336  10.706
41696W        W13956  33.530  25.051  10.593
41697W        W13957  14.740  23.171  13.783
41698W        W13958  24.513  35.756  12.506
41699W        W13959  15.549  25.050   0.228
41700W        W13960  33.509  14.677   4.651
41701W        W13961  24.089  44.256   4.217
41702W        W13962  15.881  10.672  13.557
41703W        W13963  27.691   9.731   1.785
41704W        W13964   7.784   3.005   1.237
41705W        W13965   8.193  44.946   2.663
41706W        W13966  41.820  34.194   4.094
41707W        W13967  13.209  41.600   2.441
41708W        W13968  13.783  19.330   0.958
41709W        W13969  35.560  31.208   4.170
41710W        W13970  24.813  43.982   2.346
41711W        W13971  44.173  44.484   5.042
41712W        W13972   6.790  42.060   0.757
41713W        W13973  13.734  39.688  12.964
41714W        W13974  19.705  44.376  10.820
41715W        W13975  18.530  19.166   2.663
41716W        W13976  13.974  12.730  14.217
41717W        W13977  17.743  31.382   2.074
41718W        W13978  30.041  25.308  14.563
41719W        W13979   8.843  12.147   4.293
41720W        W13980  32.603  18.118   4.178
41721W        W13981   3.405  26.218   3.130
41722W        W13982  25.360   5.150   2.416
41723W        W13983  16.644  32.602   2.924
41724W        W13984  36.179  27.210   2.275
41725W        W13985  34.843   0.270  14.463
41726W        W13986   8.590   1.514  13.545
41727W        W13987   4.775  10.806  11.218
41728W        W13988  43.169  15.693   3.739
41729W        W13989  39.352  39.323  14.532
41730W        W13990  41.055  38.574  14.929
41731W        W13991  16.127   4.920   0.579
41732W        W13992   6.628   8.706   2.627
41733W        W13993  16.762  20.796  11.548
41734W        W13994  23.233  25.894  11.057
41735W        W13995  34.424  27.110  13.080
41736W        W13996  16.000   1.540   1.692
41737W        W13997  33.128  26.204  11.216
41738W        W13998   1.655   3.653  12.104
41739W        W13999   9.740  11.051  13.710
41740W        W14000  16.733   0.449   4.541
41741W        W14001  42.923  13.845  10.542
41742W        W14002  31.641  24.992  14.935
41743W        W14003  12.468  33.273   4.935
41744W        W14004  33.080  19.159   4.670
41745W        W14005   9.872  28.753  11.561
41746W        W14006  19.550  19.273   4.786
41747W        W14007  35.177   7.831  14.116
41748W        W14008  19.293  40.868  11.809
41749W        W14009  20.129  25.242   3.746
41750W        W14010  34.910  14.821  11.259
41751W        W14011   1.022  28.870  14.359
41752W        W14012   8.706  18.268   4.108
41753W        W14013   5.747  39.617   3.340
41754W        W14014  36.911  16.873   0.827
41755W        W14015   4.650  32.061  13.080
41756W        W14016  44.090   8.720   1.467
41757W        W14017  13.212  38.117  13.262
41758W        W14018  20.237  17.075  13.927
41759W        W14019   8.469  16.768   2.324
41760W        W14020  14.908  41.476  11.606
41761W        W14021  10.319  36.587  14.402
41762W        W14022  34.474  39.494   0.238
41763W        W14023  33.328  17.829   1.009
41764W        W14024  40.586  14.761  10.670
41765W        W14025  23.101  33.363   4.219
41766W        W14026  13.571  34.303  12.201
41767W        W14027  25.897  21.629  12.987
41768W        W14028  21.707  25.695  11.935
41769W        W14029  16.149  27.440  12.119
41770W        W14030  44.342  22.734  11.094
41771W        W14031  14.318  34.928  14.942
41772W        W14032  25.990  40.732  11.527
41773W        W14033  19.540  22.477   4.705
41774W        W14034  36.296  25.261  12.891
41775W        W14035  20.725  13.192  10.940
41776W        W14036  23.742   2.677   4.701
41777W        W14037  15.564   6.897  13.508
41778W        W14038  10.729  15.215  12.717
41779W        W14039  27.083   2.198   1.331
41780W        W14040  44.634  17.195   1.591
41781W        W14041  13.269  23.648  14.891
41782W        W14042  11.314  17.145  11.031
41783W        W14043  12.238  20.519  13.904
41784W        W14044  33.123  21.818   3.885
41785W        W14045  39.876   6.387   4.613
41786W        W14046  37.327  19.695   3.636
41787W        W14047  23.581  24.207  14.483
41788W        W14048  10.878  13.190  12.169
41789W        W14049  16.746  35.458   0.296
41790W        W14050  31.288   4.256  13.029
41791W        W14051   8.341  13.368   2.302
41792W        W14052   7.224  31.831   3.660
41793W        W14053  26.510  42.013  13.311
41794W        W14054   7.521  21.121  11.503
41795W        W14055   3.762   4.198  12.683
41796W        W14056  31.974   5.900  13.984
41797W        W14057  31.611   2.427   1.418
41798W        W14058  21.278   5.450  14.263
41799W        W14059  36.568   3.395   1.372
41800W        W14060  26.135   4.037  12.080
41801W        W14061  18.353  38.464  11.438
41802W        W14062   8.083  40.803  13.914
41803W        W14063  39.344  33.663   1.373
41804W        W14064  26.021  17.046  11.565
41805W        W14065   1.727   9.643   1.873
41806W        W14066  11.828  37.594   4.999
41807W        W14067  19.052   4.533  11.522
41808W        W14068  22.196   7.515  11.484
41809W        W14069  16.766   3.426  12.067
41810W        W14070   6.395  28.414   5.150
41811W        W14071  23.783   0.487  14.397
41812W        W14072  26.172  38.112   3.109
41813W        W14073  13.511  35.981  14.550
41814W        W14074  28.123  14.097  12.772
41815W        W14075   2.998   0.741   0.931
41816W        W14076  28.677  31.806   2.383
41817W        W14077  29.704   0.324  11.984
41818W        W14078  34.100  44.486  11.120
41819W        W14079  30.224  24.550   0.594
41820W        W14080  15.734   0.389   3.306
41821W        W14081  21.303  12.308   1.706
41822W        W14082   4.498  26.251   3.883
41823W        W14083  42.653   5.229  12.750
41824W        W14084  27.350  43.579  13.491
41825W        W14085   2.820  28.576  13.362
41826W        W14086  16.903   7.187  13.418
41827W        W14087  13.265  39.497  14.453
41828W        W14088  27.863  33.648   1.810
41829W        W14089  20.777  44.277   5.018
41830W        W14090  14.047  33.624   4.639
41831W        W14091  37.524  17.624   4.538
41832W        W14092  24.890  26.810  12.374
41833W        W14093  30.591   7.308   0.725
41834W        W14094   4.354  15.596   4.727
41835W        W14095  28.939  31.196  12.935
41836W        W14096  18.212  21.834   1.762
41837W        W14097  35.628  42.932  11.110
41838W        W14098   8.374  13.882   2.372
41839W        W14099  44.979  43.301   0.460
41840W        W14100  32.530  27.073  14.184
41841W        W14101  19.412   5.185  10.210
41842W        W14102  27.027  17.079   3.728
41843W        W14103  28.494  32.191  13.549
41844W        W14104  26.964   2.910   3.748
41845W        W14105  17.105  32.556  13.999
41846W        W14106  28.209  36.605  11.525
41847W        W14107  15.849  40.366   0.039
41848W        W14108  13.272  30.671   5.155
41849W        W14109  33.662   1.969  11.619
41850W        W14110   5.784  16.132  11.647
41851W        W14111   4.282  20.545   3.179
41852W        W14112  25.135   8.728   0.236
41853W        W14113  19.054  34.535   1.206
41854W        W14114  16.330   3.009   3.766
41855W        W14115  34.581  40.868   0.202
41856W        W14116  40.493  14.177  12.059
41857W        W14117  23.184  10.358   3.571
41858W        W14118  24.484  37.302   3.101
41859W        W14119  36.061  22.047   1.594
41860W        W14120  11.347   9.586  14.441
41861W        W14121  31.884  43.468  11.565
41862W        W14122   9.647   2.978   1.779
41863W        W14123  16.287  24.622   1.296
41864W        W14124  39.450  18.595   2.671
41865W        W14125  26.288   4.335  12.493
41866W        W14126  26.619  34.152   1.848
41867W        W14127  13.183  43.030  13.040
41868W        W14128  19.160  42.059  14.817
41869W        W14129   5.941  20.404   3.476
41870W        W14130  19.659   7.466   0.736
41871W        W14131  31.260  23.280  14.882
41872W        W14132  33.188  41.071   3.625
41873W        W14133   4.850  24.768   0.105
41874W        W14134   6.262  34.574   4.649
41875W        W14135  43.315   1.517  11.463
41876W        W14136  26.751  36.433  11.668
41877W        W14137  43.784   0.210   4.079
41878W        W14138  14.407   1.031  14.974
41879W        W14139  41.277  25.919   1.368
41880W        W14140  44.210  32.531  12.691
41881W        W14141  32.595   7.693   1.389
41882W        W14142  26.491  24.267   2.223
41883W        W14143  43.586  27.196  14.537
41884W        W14144  29.762  43.895   4.460
41885W        W14145  13.861  35.027   3.890
41886W        W14146  24.747  19.434   3.507
41887W        W14147  19.469  44.816   2.143
41888W        W14148  34.134  12.225  14.807
41889W        W14149  21.516  38.947   4.940
41890W        W14150   2.744  17.174  10.781
41891W        W14151   0.515   7.611  11.236
41892W        W14152  16.575  10.174   0.075
41893W        W14153  12.678  30.717   5.048
41894W        W14154  27.588  30.144   5.146
41895W        W14155  19.995  11.398  10.630
41896W        W14156  23.897   3.209   0.884
41897W        W14157  42.973  12.065   4.754
41898W        W14158  41.008  34.268   1.235
41899W        W14159   7.653  23.125   4.307
41900W        W14160  10.938  11.182  14.195
41901W        W14161  25.466   6.419  13.034
41902W        W14162   8.440  35.003   4.989
41903W        W14163   9.075  27.644   1.669
41904W        W14164  21.104  25.472  14.527
41905W        W14165  19.866  14.385   3.179
41906W        W14166   9.396  33.911   3.314
41907W        W14167  30.165  27.125   2.334
41908W        W14168  10.239  24.094  11.564
41909W        W14169   3.263   9.649  13.853
41910W        W14170  37.106   8.428   3.889
41911W        W14171  37.345  41.934  11.195
41912W        W14172  19.515  32.925  14.145
41913W        W14173  39.911   7.523  12.334
41914W        W14174  17.255  33.234   0.955
41915W        W14175  33.650  12.686   4.562
41916W        W14176  11.159  30.483   0.786
41917W        W14177  38.364  29.969   2.416
41918W        W14178   6.469  13.874  14.408
41919W        W14179  17.180  29.935   3.264
41920W        W14180  25.939   2.780  13.458
41921W        W14181  42.883   1.188   0.920
41922W        W14182  20.584   1.263   0.238
41923W        W14183  41.566  12.149  14.755
41924W        W14184  35.239  14.247   3.670
41925W        W14185   4.856  28.363   0.256
41926W        W14186  21.979  34.243   3.208
41927W        W14187  42.500  34.046   3.059
41928W        W14188   4.659  15.052   0.897
41929W        W14189  10.622  27.670  14.403
41930W        W14190  28.651   9.816   1.738
41931W        W14191  16.879  22.592  13.782
41932W        W14192  29.136   4.834  11.628
41933W        W14193   6.138  14.433  12.365
41934W        W14194  39.270  12.088   3.056
41935W        W14195  34.035  31.091  12.403
41936W        W14196  37.959  18.037   4.735
41937W        W14197  31.930   3.181   5.049
41938W        W14198  38.443  39.380   2.892
41939W        W14199  20.158  43.818   3.248
41940W        W14200  35.519  18.969  14.977
41941W        W14201   5.704   3.501   1.807
41942W        W14202   7.280  39.809  14.826
41943W        W14203  14.946  23.307   4.150
41944W        W14204   0.409  17.162   1.343
41945W        W14205  39.464  19.293  10.551
41946W        W14206   6.146  16.717   1.317
41947W        W14207  14.651  38.396  11.421
41948W        W14208  16.038  17.464   1.892
41949W        W14209  21.717  35.478   0.265
41950W        W14210  17.620  30.290  12.975
41951W        W14211  13.250  28.004   4.940
41952W        W14212  29.015  21.485  14.110
41953W        W14213  38.785  40.008  14.420
41954W        W14214  43.053  37.967  14.035
41955W        W14215  20.285  17.173   2.869
41956W        W14216  13.775  32.564   1.797
41957W        W14217   6.844  25.966  12.933
41958W        W14218  44.129  16.136   3.156
41959W        W14219  16.738  35.104   4.584
41960W        W14220  32.649  31.607   4.145
41961W        W14221  34.057  21.471  14.709
41962W        W14222  29.641   9.648   0.292
41963W        W14223  37.590   3.458  11.185
41964W        W14224   1.325  16.419   0.372
41965W        W14225   2.162  42.270  11.139
41966W        W14226   3.194  31.054   0.463
41967W        W14227  39.596  36.650  12.617
41968W        W14228   7.848  18.637  12.716
41969W        W14229  41.782  22.254  13.782
41970W        W14230   1.884  28.481  13.978
41971W        W14231  25.064  18.160   4.646
41972W        W14232  43.412  39.808   2.235
41973W        W14233  10.903  22.086   2.822
41974W        W14234  12.839  22.243  11.928
41975W        W14235  29.467  35.898   4.990
41976W        W14236  16.112  41.821   1.491
41977W        W14237  36.184  36.513  11.402
41978W        W14238  40.941  11.256   2.766
41979W        W14239  18.946  16.879  11.525
41980W        W14240  10.359  14.942  11.088
41981W        W14241  41.589   2.274  11.617
41982W        W14242  26.660   0.478   1.455
41983W        W14243  41.204   0.348  13.209
41984W        W14244  28.721   4.504   3.907
41985W        W14245   4.037  20.981   1.243
41986W        W14246  20.524  20.979  10.969
41987W        W14247  32.094  13.782   0.504
41988W        W14248  33.132  21.267  13.344
41989W        W14249  39.598  13.897   3.148
41990W        W14250  40.569  41.470   3.142
41991W        W14251  42.973   9.375   1.391
41992W        W14252  35.325  26.037   3.356
41993W        W14253  11.957   0.500   1.490
41994W        W14254  36.168  23.010  12.957
41995W        W14255   0.868  35.615   2.854
41996W        W14256  24.076  38.864   0.484
41997W        W14257   8.885   7.392   3.645
41998W        W14258  29.110  22.737   1.969
41999W        W14259  32.757  17.800   4.558
42000W        W14260  44.354   1.627   5.003
42001W        W14261   2.336  18.271  12.986
42002W        W14262  41.364  22.837   2.859
42003W        W14263  32.237   6.142  10.707
42004W        W14264  37.070  18.512  13.553
42005W        W14265  42.629  12.119  12.104
42006W        W14266  44.900  11.137   2.184
42007W        W14267  23.712   8.623  11.512
42008W        W14268  25.516  28.688   2.716
42009W        W14269   9.389  28.951  11.534
42010W        W14270  42.079  20.136   3.557
42011W        W14271   6.708  33.579  11.442
42012W        W14272  40.498  18.072  12.065
42013W        W14273  27.077  31.391   3.449
42014W        W14274  19.602  44.847  10.460
42015W        W14275  27.967  39.074   2.472
42016W        W14276  31.176  27.374   0.851
42017W        W14277   4.000  27.513  10.084
42018W        W14278  23.487  42.435   4.464
42019W        W14279  33.620  19.868   4.981
42020W        W14280  28.479  17.211   4.645
42021W        W14281  18.267  26.906   3.066
42022W        W14282  25.182  12.390   4.749
42023W        W14283  19.155  17.906   4.618
42024W        W14284  26.667   4.218   3.703
42025W        W14285  35.154  12.051  11.664
42026W        W14286  15.959  16.601   0.864
42027W        W14287  27.065  11.148   4.559
42028W        W14288  16.525  16.254  12.004
42029W        W14289   4.962   1.722  12.401
42030W        W14290  37.233   3.530   5.138
42031W        W14291  25.747  38.512  14.463
42032W        W14292   9.884  42.330  14.394
42033W        W14293   9.709   7.707   2.797
42034W        W14294   3.133  14.108   3.741
42035W        W14295  22.713  32.963   0.243
42036W        W14296  25.198  26.964  10.385
42037W        W14297   3.403  12.298  10.523
42038W        W14298  16.826  39.642  10.814
42039W        W14299  33.987  14.260   0.371
42040W        W14300  26.697  23.310  11.660
42041W        W14301  10.123  44.801   4.342
42042W        W14302   4.191  17.689  14.449
42043W        W14303  21.405  39.846   2.872
42044W        W14304   3.253  39.768  12.063
42045W        W14305  16.369  44.517  14.315
42046W        W14306  21.666  30.406  10.899
42047W        W14307  24.574   5.261   4.078
42048W        W14308  35.887  24.673  11.011
42049W        W14309   3.300  32.625  13.250
42050W        W14310  40.442  19.931   4.937
42051W        W14311  16.273  27.438  12.630
42052W        W14312  10.654  44.123  10.159
42053W        W14313  14.782   7.604   2.247
42054W        W14314   6.257  34.518  11.072
42055W        W14315  43.325   7.928  12.513
42056W        W14316  20.386  43.750  11.165
42057W        W14317   1.300  44.513  10.792
42058W        W14318   8.658   0.382  11.875
42059W        W14319  37.680  28.124  13.538
42060W        W14320  43.997  20.331   3.325
42061W        W14321  21.031  30.874  11.136
42062W        W14322  17.411   2.248   4.908
42063W        W14323   6.382  25.552  14.331
42064W        W14324  27.219  17.055  13.090
42065W        W14325  17.736  26.910  11.265
42066W        W14326  26.134  26.566  12.680
42067W        W14327  33.620  33.913   1.543
42068W        W14328   7.446  19.738  13.844
42069W        W14329  38.343  40.731  11.582
42070W        W14330   7.775  39.363  13.565
42071W        W14331   9.334  14.598   1.436
42072W        W14332  18.782  41.336   4.545
42073W        W14333   7.872  36.268   4.549
42074W        W14334  29.638  36.790  10.662
42075W        W14335  31.944  35.034   4.597
42076W        W14336  21.443   7.883   4.198
42077W        W14337  13.722   2.259   1.326
42078W        W14338  20.276  42.585  10.844
42079W        W14339  22.854   7.140   4.666
42080W        W14340  26.036   8.234  13.459
42081W        W14341  14.059  15.631   2.292
42082W        W14342  33.608  36.161  10.901
42083W        W14343  28.923  16.132   2.704
42084W        W14344  32.965  15.065  11.164
42085W        W14345  30.978  38.467   0.038
42086W        W14346   7.404  11.680   4.562
42087W        W14347  12.635   1.725   1.159
42088W        W14348   3.683   7.632  13.377
42089W        W14349   1.798  34.568   0.916
42090W        W14350  19.330  21.567  14.111
42091W        W14351  41.734  23.542   1.100
42092W        W14352  16.036  26.583  13.964
42093W        W14353  27.679   9.554   3.827
42094W        W14354   5.263   3.390  14.419
42095W        W14355  18.830   5.612   1.119
42096W        W14356   0.456  30.889  14.973
42097W        W14357   9.745   3.488  14.487
42098W        W14358   8.651  13.172  12.888
42099W        W14359  25.659  27.237   4.418
42100W        W14360  40.443   1.376  11.106
42101W        W14361   5.893   0.851  13.149
42102W        W14362  15.257  43.297  10.650
42103W        W14363  17.699  30.491  11.694
42104W        W14364  31.073  27.816   1.719
42105W        W14365   5.924  33.587   2.209
42106W        W14366  36.499  33.905   4.722
42107W        W14367  32.006  33.030   0.220
42108W        W14368  22.052   7.354  14.994
42109W        W14369  38.806   8.457  13.042
42110W        W14370   5.935   9.762   4.533
42111W        W14371  33.509  13.908  12.569
42112W        W14372   9.041  28.721  12.607
42113W        W14373  15.569  27.480   4.800
42114W        W14374  31.351  33.428   1.786
42115W        W14375   7.448  25.986  14.724
42116W        W14376  44.752  41.237   3.558
42117W        W14377  20.987  22.515  12.181
42118W        W14378  13.585  17.333  11.053
42119W        W14379  10.166   1.917   3.443
42120W        W14380  27.722  39.421  14.293
42121W        W14381  29.446   4.756  10.663
42122W        W14382  17.107  33.546  12.029
42123W        W14383  27.043  43.947  13.009
42124W        W14384   7.871  31.114   2.191
42125W        W14385  24.761  42.736   1.674
42126W        W14386  43.936  31.543   0.913
42127W        W14387  30.359  23.106   2.176
42128W        W14388  28.053   7.458  14.297
42129W        W14389   0.420  35.779   3.752
42130W        W14390  36.405  29.043   3.765
42131W        W14391  37.948   0.685  13.543
42132W        W14392   5.367  19.836  10.695
42133W        W14393  26.670  10.922   3.958
42134W        W14394  37.343  43.504  13.387
42135W        W14395   5.830  40.989   0.158
42136W        W14396  10.775  39.258   2.363
42137W        W14397   6.662   6.199  11.551
42138W        W14398   1.520  35.044  10.612
42139W        W14399  42.291   3.048  10.632
42140W        W14400  34.027   1.046  12.043
42141W        W14401   2.459  21.910   1.918
42142W        W14402  35.528  42.414  11.095
42143W        W14403   3.189   7.795  12.685
42144W        W14404  27.616  26.659  12.569
42145W        W14405  19.997  36.099   4.284
42146W        W14406   5.429  13.181  13.876
42147W        W14407  36.919  29.250  14.915
42148W        W14408  13.732   5.912   0.956
42149W        W14409   1.218   6.642   3.213
42150W        W14410  17.759  36.562   3.257
42151W        W14411  10.672  12.787   1.169
42152W        W14412  39.610  15.657   4.102
42153W        W14413  44.331   9.870  13.916
42154W        W14414  13.309  23.691  13.001
42155W        W14415  15.841   1.935  11.442
42156W        W14416  26.693  44.978   1.425
42157W        W14417  30.008   2.423   4.101
42158W        W14418   7.347  38.034   4.523
42159W        W14419  28.647  15.526  11.588
42160W        W14420  11.730   6.256  13.820
42161W        W14421  23.172   6.530   1.753
42162W        W14422  27.562   0.471  13.486
42163W        W14423  17.170  17.292  14.365
42164W        W14424   2.285  34.596  10.747
42165W        W14425   4.407  22.629  11.435
42166W        W14426  34.826   6.184   2.349
42167W        W14427  18.316  38.066  13.809
42168W        W14428  32.989  12.723  10.539
42169W        W14429  33.313   2.059  14.778
42170W        W14430   0.482  14.230   4.639
42171W        W14431   0.411  24.604  11.215
42172W        W14432  28.602  35.087  14.475
42173W        W14433  26.439  38.197   3.889
42174W        W14434  12.081   2.962   2.314
42175W        W14435   9.884  40.923   1.282
42176W        W14436  36.169  18.181   3.092
42177W        W14437  32.028   6.908  13.939
42178W        W14438   1.382  11.878  12.135
42179W        W14439  41.931  12.793   2.848
42180W        W14440  25.062  38.798   0.308
42181W        W14441  26.614  36.620   2.523
42182W        W14442  17.009  16.033  10.160
42183W        W14443  14.746  29.759  10.938
42184W        W14444  44.879   4.504   0.575
42185W        W14445   6.844   0.011   1.766
42186W        W14446  38.359  40.059  12.348
42187W        W14447  44.905  22.899  11.918
42188W        W14448  29.287  29.497  11.009
42189W        W14449   7.937  11.201   0.329
42190W        W14450  28.587  23.234  13.903
42191W        W14451  36.926  26.228   4.639
42192W        W14452  13.990  35.227  14.051
42193W        W14453  40.915  11.811   3.541
42194W        W14454  36.912   3.274   0.433
42195W        W14455  33.174   8.633  10.798
42196W        W14456  23.717  31.962  13.594
42197W        W14457  29.619  13.126   3.543
42198W        W14458  22.154  23.748  10.418
42199W        W14459  21.806  13.848  13.614
42200W        W14460  41.887   3.197  11.964
42201W        W14461  24.481  14.449   1.426
42202W        W14462  11.855   9.163   1.362
42203W        W14463  20.213  25.137   3.248
42204W        W14464  17.375  10.199  14.346
42205W        W14465  40.367  26.193  13.892
42206W        W14466   5.816  10.642   0.739
42207W        W14467   5.689  31.938  14.993
42208W        W14468  13.266   1.924  11.365
42209W        W14469   6.965  36.452  13.839
42210W        W14470  18.133  42.319  13.091
42211W        W14471  16.692  24.166  14.042
42212W        W14472  21.685  13.353  13.533
42213W        W14473  30.065  12.330   4.650
42214W        W14474  40.867  41.080  12.545
42215W        W14475  17.596   0.899  12.329
42216W        W14476  37.473   6.228  12.504
42217W        W14477  43.399  34.654   0.959
42218W        W14478   1.000  28.546   1.323
42219W        W14479  32.627  10.964   0.947
42220W        W14480   8.713  37.509  14.648
42221W        W14481  41.610  36.563   2.907
42222W        W14482   8.312   9.382  11.452
42223W        W14483  15.292  44.481   0.940
42224W        W14484  14.326  33.305   4.262
42225W        W14485  34.497  31.878   4.093
42226W        W14486  16.425  24.982  11.672
42227W        W14487  21.248  29.247  14.532
42228W        W14488  43.508  22.433   3.380
42229W        W14489   9.396  25.919  13.859
42230W        W14490   7.428  33.426  12.880
42231W        W14491  22.508  17.239   0.168
42232W        W14492  30.503  31.335   2.222
42233W        W14493  37.931  44.267  10.844
42234W        W14494   0.929  42.198   2.284
42235W        W14495  41.245  12.842  14.677
42236W        W14496  21.443  11.415  14.447
42237W        W14497  20.217  10.210   2.814
42238W        W14498  35.977  18.035   5.483
42239W        W14499  21.995  34.306   2.279
42240W        W14500  27.955  23.540   2.352
42241W        W14501  15.933  13.892  11.149
42242W        W14502  35.304  22.719   4.207
42243W        W14503  14.853  39.773   0.767
42244W        W14504  37.622  19.313  14.579
42245W        W14505  42.369  25.066   3.596
42246W        W14506   5.915  39.199  12.064
42247W        W14507  12.504  34.926  11.952
42248W        W14508  25.010  44.172   0.011
42249W        W14509  25.278  15.060  12.500
42250W        W14510  18.295   4.949  10.596
42251W        W14511  24.675  14.865   3.613
42252W        W14512  39.968  18.609   2.452
42253W        W14513  19.789  24.591   4.364
42254W        W14514  23.123   7.708  10.487
42255W        W14515   2.015  40.532   2.547
42256W        W14516  16.849   5.441  14.992
42257W        W14517  10.175  25.942  13.729
42258W        W14518  31.540  38.972   0.520
42259W        W14519   0.812   4.940  13.506
42260W        W14520  16.222  36.990  14.364
42261W        W14521  22.590  15.771   1.869
42262W        W14522  10.906  29.077  14.327
42263W        W14523  37.476  27.013  10.579
42264W        W14524  12.650   7.607  11.111
42265W        W14525  40.702  37.002  11.170
42266W        W14526  12.408  38.491   2.372
42267W        W14527   6.000  36.582  13.398
42268W        W14528  37.042  35.533   4.777
42269W        W14529  41.028  17.081  13.454
42270W        W14530  40.007  29.528  13.413
42271W        W14531  17.346  24.571  14.221
42272W        W14532  22.672  35.392  10.558
42273W        W14533  20.751  20.942  10.266
42274W        W14534  32.960  16.389   1.975
42275W        W14535  28.793   4.536   1.887
42276W        W14536  38.968   9.221   2.621
42277W        W14537  17.179  38.480   3.869
42278W        W14538  29.559   7.894   1.446
42279W        W14539  23.120  26.595   3.353
42280W        W14540  14.864  23.268  14.727
42281W        W14541  10.259  19.249  10.374
42282W        W14542  39.462  42.140   4.642
42283W        W14543   0.587  33.707   1.838
42284W        W14544   0.845  30.399  13.462
42285W        W14545  29.793  13.367  12.935
42286W        W14546  24.743   3.763   1.379
42287W        W14547  20.843  29.203   4.150
42288W        W14548  15.773  32.439  11.191
42289W        W14549   8.698   5.365  12.110
42290W        W14550   9.729   1.726  12.270
42291W        W14551  14.639  25.271  11.157
42292W        W14552  30.941   3.895  13.899
42293W        W14553  15.748  29.914   5.276
42294W        W14554  17.186  35.445  13.316
42295W        W14555  11.498  39.922  14.565
42296W        W14556  25.410  25.688  12.462
42297W        W14557  22.692  24.349   1.683
42298W        W14558  18.219  32.495   1.832
42299W        W14559  35.246   8.276   3.889
42300W        W14560  11.891  10.858  12.501
42301W        W14561   5.883  12.839   3.571
42302W        W14562   7.238  30.814   3.714
42303W        W14563  24.013  12.221   3.182
42304W        W14564  20.094  15.072  11.101
42305W        W14565  32.593  19.053  11.249
42306W        W14566  31.224   1.583  11.328
42307W        W14567   5.262  24.331  11.516
42308W        W14568  41.653  27.472  12.029
42309W        W14569   7.735   2.895  12.979
42310W        W14570   1.220  19.018  12.886
42311W        W14571   4.735   4.147   4.089
42312W        W14572   8.919  34.581  13.998
42313W        W14573   2.339   4.533  14.807
42314W        W14574  20.228  12.580   5.039
42315W        W14575  37.717  41.818  12.975
42316W        W14576  38.805  10.258   2.067
42317W        W14577  31.947  29.983   2.473
42318W        W14578  23.404  20.845  10.658
42319W        W14579  10.873  40.552  12.134
42320W        W14580  12.437  13.670  12.080
42321W        W14581  30.178  13.720   1.909
42322W        W14582   2.799  35.986  10.404
42323W        W14583   0.522   0.843   0.566
42324W        W14584   5.241   6.736  11.234
42325W        W14585   9.317  13.575   1.293
42326W        W14586  19.317  32.324   0.932
42327W        W14587   8.184  27.659  12.000
42328W        W14588  17.512  38.261  10.526
42329W        W14589  14.131  10.730   1.424
42330W        W14590  13.842  16.384   1.994
42331W        W14591  14.055   1.770   0.379
42332W        W14592  23.251  11.833  11.714
42333W        W14593  34.007  40.361   2.684
42334W        W14594  40.857   1.319   0.859
42335W        W14595  28.913  13.384   3.865
42336W        W14596  10.600   0.273  10.993
42337W        W14597   5.295  33.581  10.804
42338W        W14598   3.156  17.535   3.541
42339W        W14599  12.073  24.010   1.361
42340W        W14600  16.668  15.382  11.971
42341W        W14601  43.938   7.941   2.612
42342W        W14602   1.761  17.214   2.735
42343W        W14603   6.353  26.530  12.397
42344W        W14604  14.651  14.599  13.435
42345W        W14605  36.350  19.107   2.387
42346W        W14606   4.821  36.440  12.377
42347W        W14607   0.897  19.050   1.164
42348W        W14608  26.206  26.952   1.751
42349W        W14609  18.832  15.743  14.323
42350W        W14610  20.729  30.471   1.131
42351W        W14611   9.899  13.329  10.720
42352W        W14612  23.613  43.448   4.187
42353W        W14613  31.961  23.279   0.415
42354W        W14614  11.876  15.852   0.129
42355W        W14615  33.888  35.760   1.374
42356W        W14616  35.957  44.857  11.699
42357W        W14617  40.540  41.047  11.973
42358W        W14618  43.768  44.522  13.331
42359W        W14619  14.389  20.594   0.935
42360W        W14620  26.602   3.455  13.497
42361W        W14621   4.923  11.461  12.029
42362W        W14622  40.582   8.286   0.944
42363W        W14623  41.614  36.593  12.119
42364W        W14624  29.962   9.606   3.947
42365W        W14625  43.478   4.464   4.999
42366W        W14626  30.765  17.607   1.917
42367W        W14627  24.947  34.198   3.242
42368W        W14628  19.141  38.419  10.700
42369W        W14629  11.818  32.007   3.254
42370W        W14630  28.936  27.714   2.408
42371W        W14631  36.560   8.105   9.797
42372W        W14632  25.325  36.990  11.170
42373W        W14633   4.389  25.496  13.133
42374W        W14634   3.780  30.865   3.318
42375W        W14635  31.292  19.371  11.099
42376W        W14636  26.084  24.607  11.630
42377W        W14637   9.587  28.732   2.787
42378W        W14638  40.840  34.082   0.367
42379W        W14639  34.895   7.758  11.350
42380W        W14640  19.198  42.190   3.264
42381W        W14641  43.455   6.680  13.016
42382W        W14642   5.722   0.445   1.165
42383W        W14643  27.049  14.142   4.983
42384W        W14644  40.631  33.190   4.269
42385W        W14645  16.217   5.679   3.406
42386W        W14646  12.083  12.732   3.257
42387W        W14647  12.967  25.687   2.677
42388W        W14648  20.769  33.509  14.439
42389W        W14649   0.875  41.384  10.829
42390W        W14650  34.155  24.541  12.918
42391W        W14651  43.588  14.356   3.927
42392W        W14652  28.405  33.834  13.921
42393W        W14653  22.678  44.378   0.403
42394W        W14654  39.559  11.914   1.262
42395W        W14655   6.742  19.944  11.167
42396W        W14656  24.240  25.462   4.187
42397W        W14657  42.207  36.917  13.048
42398W        W14658  34.034  29.314  13.037
42399W        W14659  31.971  30.123  12.433
42400W        W14660  34.138  34.327  11.583
42401W        W14661   8.237  18.793   1.798
42402W        W14662   5.269   1.295  10.674
42403W        W14663  39.588   9.307  13.556
42404W        W14664  30.192  26.245  10.704
42405W        W14665   5.870  44.549  13.133
42406W        W14666  17.219  20.300  12.357
42407W        W14667  21.749   8.238  10.690
42408W        W14668   0.719  33.192   1.885
42409W        W14669  13.552  39.715  11.968
42410W        W14670  38.425  15.791  11.988
42411W        W14671  30.699  13.299   5.211
42412W        W14672   6.200  23.015  11.598
42413W        W14673   3.220  17.870  14.304
42414W        W14674  33.645  26.991  14.990
42415W        W14675  10.345  16.764   0.954
42416W        W14676  13.542  30.344  13.842
42417W        W14677  39.098  22.331  13.793
42418W        W14678  27.766  33.334   0.568
42419W        W14679  33.672  26.058   0.924
42420W        W14680  21.701  24.486  14.023
42421W        W14681  32.880  16.229   2.790
42422W        W14682  25.079  11.142   0.900
42423W        W14683  40.517  21.756  11.132
42424W        W14684   0.432  11.966   3.776
42425W        W14685  29.625  10.115   2.336
42426W        W14686   5.831  36.132   2.191
42427W        W14687  31.634  41.428   1.362
42428W        W14688  22.840  26.646   0.836
42429W        W14689  31.557   1.149  11.185
42430W        W14690   6.770  36.510  12.864
42431W        W14691   5.389  31.125  14.016
42432W        W14692  26.436  26.793  11.534
42433W        W14693   0.897  26.744   0.826
42434W        W14694  41.435  10.206   4.580
42435W        W14695  22.278   0.531   0.734
42436W        W14696  21.170  26.764  10.692
42437W        W14697  28.707   2.025  14.275
42438W        W14698  12.570   6.503   4.105
42439W        W14699  15.621  13.085   1.743
42440W        W14700  13.398  41.706  10.318
42441W        W14701  40.014   9.486   3.580
42442W        W14702  37.898  41.063  13.422
42443W        W14703  16.069  44.156  13.441
42444W        W14704  30.012  11.168   1.546
42445W        W14705  17.556   0.050   1.177
42446W        W14706  17.623   7.519   0.673
42447W        W14707  14.620  39.858   4.340
42448W        W14708  40.408  12.388   2.323
42449W        W14709   5.953  26.410   0.840
42450W        W14710  35.155   7.384   3.698
42451W        W14711  44.592  12.324   3.907
42452W        W14712   3.680  13.768   0.439
42453W        W14713  23.487  42.088   2.946
42454W        W14714  17.493  21.548   1.280
42455W        W14715  32.564  26.338  13.932
42456W        W14716   3.746  14.755   0.398
42457W        W14717   0.509  40.532  14.340
42458W        W14718  23.660   0.427  12.028
42459W        W14719  32.526  43.520   0.904
42460W        W14720  16.545  16.663   4.691
42461W        W14721   9.967  37.143   4.606
42462W        W14722   4.324   9.920   3.259
42463W        W14723  34.482  39.471  11.497
42464W        W14724  20.605  34.478  13.558
42465W        W14725   4.219  12.400   4.135
42466W        W14726   2.813  20.174   3.234
42467W        W14727  34.761  14.437   5.371
42468W        W14728   4.008   3.480   1.240
42469W        W14729   9.568  32.510  10.582
42470W        W14730  13.090  30.574   4.657
42471W        W14731  22.096  11.842   3.709
42472W        W14732   3.739   2.464  13.382
42473W        W14733  27.089  43.414   1.544
42474W        W14734  25.489   3.394   4.251
42475W        W14735  44.996  13.098   0.001
42476W        W14736  40.577  10.266   0.541
42477W        W14737  21.289  21.235   3.725
42478W        W14738  40.093  24.178  12.430
42479W        W14739  28.034  17.745  13.438
42480W        W14740  37.815  12.102   0.943
42481W        W14741   8.234   8.978   3.731
42482W        W14742   1.852  42.306  14.845
42483W        W14743  21.043   1.255   2.841
42484W        W14744  15.858  40.332  10.647
42485W        W14745  10.776  43.269  14.753
42486W        W14746  11.265  31.947   3.232
42487W        W14747  31.251   3.734   4.647
42488W        W14748  20.445  20.719  12.073
42489W        W14749   6.543  24.239   4.729
42490W        W14750  18.167  22.351   4.062
42491W        W14751  32.356   7.933  11.849
42492W        W14752  39.433   5.742   2.880
42493W        W14753   0.794  41.000  14.101
42494W        W14754  24.657  19.776  13.828
42495W        W14755  27.164  35.836  10.926
42496W        W14756  26.985   6.330   4.583
42497W        W14757  22.159  23.507   0.386
42498W        W14758  14.861  12.141   1.755
42499W        W14759  30.602  44.265   2.830
42500W        W14760   9.974  19.601  13.317
42501W        W14761  41.932  25.642   4.820
42502W        W14762  20.568  35.964  12.420
42503W        W14763  15.784   1.779  14.413
42504W        W14764  38.994   9.778   5.412
42505W        W14765  37.893   8.730  12.987
42506W        W14766  17.163  26.938   2.354
42507W        W14767  12.205  21.735  13.126
42508W        W14768  34.938  11.878  13.293
42509W        W14769  15.896  20.084   1.851
42510W        W14770  18.922  30.139   2.237
42511W        W14771  32.106  29.619  12.454
42512W        W14772  11.593  28.863   4.964
42513W        W14773   6.323   4.487  11.189
42514W        W14774  28.922   3.439   2.684
42515W        W14775   6.928  36.842   1.868
42516W        W14776  25.114   0.209   1.008
42517W        W14777  44.986  16.532   4.219
42518W        W14778   5.871  42.313   3.887
42519W        W14779  20.829   0.290   4.170
42520W        W14780  31.590  14.449   1.141
42521W        W14781  10.494  10.211   3.650
42522W        W14782  34.603   2.408  11.809
42523W        W14783  24.994   9.160   0.458
42524W        W14784  23.190  25.717  12.216
42525W        W14785  35.436   4.046   1.203
42526W        W14786  17.175  20.706   4.340
42527W        W14787  40.428  21.857  13.784
42528W        W14788  23.647  15.289   2.234
42529W        W14789  24.591  43.271   3.492
42530W        W14790  19.842  35.876   3.114
42531W        W14791  22.532  12.850  13.926
42532W        W14792   5.635  38.471  14.396
42533W        W14793   9.300   3.503   2.209
42534W        W14794  12.442  33.514  10.555
42535W        W14795  22.109   7.847   4.666
42536W        W14796  40.440   8.355   2.409
42537W        W14797  35.268  22.269   0.565
42538W        W14798  40.791  43.036   2.440
42539W        W14799  30.657  41.389   1.965
42540W        W14800  42.858  25.000   1.298
42541W        W14801  25.127  30.867  10.756
42542W        W14802   1.813  39.368   2.458
42543W        W14803  36.429  37.138   4.941
42544W        W14804   7.776  12.344   1.842
42545W        W14805  37.827  31.561   4.822
42546W        W14806  16.626  28.746   2.759
42547W        W14807  17.390  27.078  12.066
42548W        W14808  11.894  17.420  13.350
42549W        W14809  15.792  15.708   3.562
42550W        W14810   0.464  23.138   2.377
42551W        W14811  23.215  11.085  12.061
42552W        W14812   0.679  28.445   1.823
42553W        W14813  14.404  40.316   2.348
42554W        W14814  32.138   2.413  13.378
42555W        W14815   1.365  23.788   0.479
42556W        W14816  33.105  23.408  11.012
42557W        W14817  41.579  34.562   1.847
42558W        W14818  16.111   5.913   0.209
42559W        W14819  24.560  42.303   3.315
42560W        W14820  17.220  12.483  14.471
42561W        W14821  18.771  27.260   1.633
42562W        W14822   1.464  25.793   0.312
42563W        W14823  42.447  36.238   1.807
42564W        W14824  40.893   6.374   0.537
42565W        W14825   9.761  18.129   1.291
42566W        W14826  11.240  36.119   4.858
42567W        W14827   1.228   0.085   1.315
42568W        W14828   5.767   0.743   4.153
42569W        W14829  27.586   8.488   2.428
42570W        W14830  22.627  41.557   4.161
42571W        W14831  13.430  21.294  12.489
42572W        W14832   9.804   3.737   1.303
42573W        W14833   6.861   8.923   1.345
42574W        W14834   8.931  11.745   2.740
42575W        W14835  39.655  11.300   3.318
42576W        W14836   0.541  18.020   5.090
42577W        W14837  16.500  38.990  14.836
42578W        W14838  41.000  21.590   4.695
42579W        W14839  26.508  31.488   2.308
42580W        W14840  15.015  12.283   4.457
42581W        W14841  23.179  35.271   2.891
42582W        W14842  16.557  33.089   2.677
42583W        W14843  25.938   5.265  11.143
42584W        W14844  39.337  20.628  13.837
42585W        W14845   3.314  19.910  14.076
42586W        W14846   2.768   2.566   3.237
42587W        W14847   8.749  30.665   2.974
42588W        W14848  18.222  36.473   0.438
42589W        W14849   4.947  20.188   2.360
42590W        W14850  23.102  16.618   1.924
42591W        W14851  16.156  16.691  12.690
42592W        W14852  28.270  15.340  13.410
42593W        W14853  20.797  12.411  12.341
42594W        W14854  17.205  19.814   0.864
42595W        W14855  22.067  22.665   5.110
42596W        W14856  39.921  39.524   0.562
42597W        W14857  44.982  24.888   4.713
42598W        W14858  33.056  25.039  12.564
42599W        W14859  12.674  25.977   0.221
42600W        W14860  41.300  33.569  14.385
42601W        W14861  41.532  22.695   3.383
42602W        W14862  40.805  22.554   4.549
42603W        W14863  21.328   7.064   2.978
42604W        W14864  39.316  38.472  11.920
42605W        W14865  39.637  35.197   0.416
42606W        W14866  16.300  10.790   1.575
42607W        W14867   4.985  42.457  11.542
42608W        W14868  40.862  29.667   0.690
42609W        W14869   8.336  43.827  12.532
42610W        W14870   7.572  44.000  13.447
42611W        W14871  27.023  31.861  12.893
42612W        W14872  36.873  18.695  12.581
42613W        W14873   9.183  34.327   3.070
42614W        W14874  31.902   5.579   4.077
42615W        W14875  19.600  37.645   2.722
42616W        W14876   9.437  18.325  13.504
42617W        W14877  21.769  42.723  13.860
42618W        W14878  26.556  23.294   3.190
42619W        W14879  21.684  34.045  13.834
42620W        W14880  36.978  40.108  10.717
42621W        W14881  43.134  35.950  11.586
42622W        W14882  10.671  10.259  14.520
42623W        W14883  22.192  43.409  10.709
42624W        W14884  44.219  26.976   4.902
42625W        W14885  37.893  27.606   2.197
42626W        W14886  25.730  11.878   4.098
42627W        W14887  22.599  16.813  14.828
42628W        W14888   9.318  24.959   4.143
42629W        W14889  30.488   5.957  13.310
42630W        W14890  17.592  27.255  14.403
42631W        W14891  41.118   8.348  12.938
42632W        W14892  35.455  41.279   1.896
42633W        W14893  40.281  44.076  12.057
42634W        W14894  12.515  31.462  14.227
42635W        W14895  42.398  18.354   1.433
42636W        W14896  40.944  18.576   1.255
42637W        W14897  25.549  43.225   0.777
42638W        W14898  44.429  12.813   3.902
42639W        W14899   5.131  11.292   0.354
42640W        W14900  28.088  11.302  14.329
42641W        W14901  27.941  44.918  10.631
42642W        W14902  30.568  40.872   0.857
42643W        W14903  40.097  24.649  11.089
42644W        W14904  44.809  32.821  13.387
42645W        W14905  20.938  24.987  14.380
42646W        W14906  30.486  38.373  13.402
42647W        W14907   9.436  20.806   0.454
42648W        W14908   4.259  30.242  11.185
42649W        W14909  21.623  37.423  12.177
42650W        W14910   7.221   3.645   2.666
42651W        W14911  21.006  33.136  11.297
42652W        W14912  37.581  44.726   2.281
42653W        W14913  15.139  19.495  11.650
42654W        W14914   3.822  35.640  10.658
42655W        W14915  31.516  28.236  14.925
42656W        W14916  21.335  39.868  11.548
42657W        W14917  20.135  43.182  12.478
42658W        W14918  14.844   1.490   3.748
42659W        W14919   2.952  39.823   2.665
42660W        W14920  39.952  30.147  12.492
42661W        W14921  13.991   0.088  13.918
42662W        W14922  40.513  27.523  13.924
42663W        W14923  16.304  15.113   5.398
42664W        W14924   6.295  28.742  13.432
42665W        W14925  29.867  30.753  14.724
42666W        W14926  42.311  18.564  10.613
42667W        W14927  27.932  25.589   4.576
42668W        W14928   7.245  32.394  10.655
42669W        W14929  12.309  34.447  11.984
42670W        W14930  11.103  37.998  13.851
42671W        W14931  41.676  33.993   2.670
42672W        W14932  29.421  32.603  14.760
42673W        W14933   5.973  25.599  14.028
42674W        W14934  36.190   9.206   2.645
42675W        W14935  13.436  13.680  11.858
42676W        W14936  34.924  27.178  13.849
42677W        W14937  23.703  12.217  11.210
42678W        W14938  26.202   9.814  14.063
42679W        W14939  28.513  17.939  14.734
42680W        W14940  26.223  35.986   3.140
42681W        W14941  18.221  32.217   3.497
42682W        W14942   6.888  32.363  14.270
42683W        W14943   9.825  38.524  10.688
42684W        W14944   2.124  10.919  13.804
42685W        W14945  38.857   6.786   4.298
42686W        W14946  44.034  24.696  12.459
42687W        W14947   8.418  37.987  11.238
42688W        W14948  13.187  23.197  12.989
42689W        W14949   1.042   2.793   3.602
42690W        W14950  26.151   8.845  12.360
42691W        W14951   1.171  33.031  11.583
42692W        W14952   4.006  37.579   0.239
42693W        W14953  25.195   8.850   2.145
42694W        W14954  19.098  12.312   1.358
42695W        W14955  25.779  15.953  12.185
42696W        W14956  43.905   7.896  12.056
42697W        W14957  37.834   0.372  14.547
42698W        W14958  30.714  15.757  11.113
42699W        W14959  22.260  28.325   1.959
42700W        W14960  41.471   8.601  13.287
42701W        W14961  22.573  31.191  12.574
42702W        W14962  10.471  33.211   3.977
42703W        W14963  16.542   1.574   2.731
42704W        W14964  28.512  14.775  12.170
42705W        W14965   6.647  20.235  13.894
42706W        W14966  10.327   1.399  11.484
42707W        W14967  36.027  43.935  11.215
42708W        W14968  12.591  38.725  11.791
42709W        W14969  27.046  28.471  14.302
42710W        W14970  15.269   7.881   4.071
42711W        W14971   6.591  17.442   4.259
42712W        W14972  27.880  20.850   4.918
42713W        W14973  39.579  44.855   1.817
42714W        W14974  40.509  32.070  13.064
42715W        W14975  26.355  17.955   0.024
42716W        W14976  14.099  24.073  13.307
42717W        W14977  15.741  40.392   2.884
42718W        W14978  16.738  23.704   1.181
42719W        W14979  40.512  13.715   1.458
42720W        W14980  11.761  39.040  11.609
42721W        W14981  10.194  42.029  10.711
42722W        W14982  32.626  12.521  14.951
42723W        W14983   9.056   8.311  11.156
42724W        W14984  27.800  26.902  14.940
42725W        W14985  10.726  44.207  11.982
42726W        W14986   3.835   7.920  13.779
42727W        W14987  30.914  21.614  11.489
42728W        W14988   6.243   9.955   0.974
42729W        W14989   7.803  28.234   4.140
42730W        W14990  22.379  40.938  11.388
42731W        W14991  24.459  31.973   0.911
42732W        W14992  15.203  23.228  10.730
42733W        W14993  21.528  40.482  13.816
42734W        W14994  29.166   1.800  12.908
42735W        W14995  32.625   3.215   1.744
42736W        W14996  43.218   2.683  12.926
42737W        W14997   9.770  28.916   2.287
42738W        W14998  18.657   2.949   3.375
42739W        W14999  43.382  10.171  11.188
42740W        W15000  19.653  41.955  14.938
42741W        W15001   5.468  18.709  12.514
42742W        W15002  20.643  24.087  12.535
42743W        W15003  35.408  14.314  12.451
42744W        W15004  33.615  15.335  10.168
42745W        W15005  23.595  14.725  13.533
42746W        W15006  28.260  18.763   1.750
42747W        W15007  32.546   0.247   4.332
42748W        W15008  41.386  10.671  12.320
42749W        W15009  18.814  30.520  12.111
42750W        W15010  16.552  19.527   4.104
42751W        W15011  43.657  18.476   5.187
42752W        W15012  10.223  27.291  14.461
42753W        W15013  20.481   2.219   0.366
42754W        W15014  12.534  10.877   0.434
42755W        W15015   6.848  31.253   2.024
42756W        W15016  41.879  20.256  12.515
42757W        W15017  37.806  33.357  14.711
42758W        W15018   3.909  11.994   4.293
42759W        W15019  18.200  13.826   1.437
42760W        W15020  33.630  14.800   0.066
42761W        W15021  44.488  10.162   4.547
42762W        W15022  14.462   4.271  13.065
42763W        W15023  17.739  12.795  11.410
42764W        W15024  32.477  15.294  13.396
42765W        W15025  15.538   1.572  12.883
42766W        W15026  25.857  19.465   4.153
42767W        W15027   6.839  14.338  12.778
42768W        W15028  29.048  10.866  13.121
42769W        W15029  24.412  27.509   0.812
42770W        W15030  35.673  27.990  13.467
42771W        W15031  33.470  20.641   0.689
42772W        W15032  41.957  31.355   1.875
42773W        W15033  25.101  13.338   4.402
42774W        W15034   0.479  10.567   4.050
42775W        W15035   4.732  40.941   2.123
42776W        W15036   6.637  30.958  10.767
42777W        W15037  24.739  36.006   3.823
42778W        W15038  24.775  27.501  11.421
42779W        W15039   0.725  43.360   1.246
42780W        W15040  32.422  33.478   1.727
42781W        W15041  32.584  29.702  14.398
42782W        W15042  39.869  36.260  14.040
42783W        W15043  26.503  23.160   5.035
42784W        W15044  33.992   7.006  11.174
42785W        W15045  12.704   1.212   0.284
42786W        W15046   5.399  37.056  14.365
42787W        W15047  10.254  10.854   2.171
42788W        W15048  30.543  15.143  13.296
42789W        W15049   4.957   5.691  12.513
42790W        W15050  42.492  15.187   2.596
42791W        W15051   3.955  13.838   4.845
42792W        W15052  13.189  19.730  12.588
42793W        W15053  32.698  42.689   2.219
42794W        W15054   1.871  15.382   0.448
42795W        W15055  20.717   2.415  11.069
42796W        W15056   9.894  21.385  13.557
42797W        W15057  33.072  42.484  13.485
42798W        W15058  25.625  14.128  11.563
42799W        W15059  26.893  31.588  12.476
42800W        W15060  44.898   5.597   3.799
42801W        W15061  15.948  43.291  13.989
42802W        W15062  20.602  31.448   4.103
42803W        W15063  29.129   0.072   1.845
42804W        W15064  44.522   8.883  11.592
42805W        W15065  15.351  27.107   1.408
42806W        W15066   1.756  20.344  13.033
42807W        W15067  27.435  12.279  11.215
42808W        W15068  22.508  28.389   2.400
42809W        W15069  44.472  25.136  10.585
42810W        W15070  42.632   4.408  10.430
42811W        W15071  44.209  21.792  11.497
42812W        W15072   1.770   8.215  10.619
42813W        W15073  22.006  29.339   5.133
42814W        W15074  36.439  42.732   3.136
42815W        W15075  43.011  11.114  14.328
42816W        W15076   2.947  27.032   2.389
42817W        W15077  37.315  33.702   0.818
42818W        W15078   8.941  12.571  14.110
42819W        W15079  44.457  27.484   2.882
42820W        W15080   2.759   4.919  13.314
42821W        W15081  12.807  38.385  14.518
42822W        W15082  23.659  33.025  11.182
42823W        W15083  18.060   2.348   0.013
42824W        W15084  27.907  32.426   4.293
42825W        W15085   5.786  28.515   3.726
42826W        W15086   2.631  16.126   3.695
42827W        W15087  44.265  11.001   0.732
42828W        W15088  36.627  27.488  14.064
42829W        W15089  23.164   5.885   3.325
42830W        W15090  40.483   8.413   0.425
42831W        W15091   6.238  28.013   4.222
42832W        W15092  43.862   4.667  12.761
42833W        W15093  21.039   5.101   1.282
42834W        W15094  24.413  31.602  14.936
42835W        W15095  15.116  23.097  12.649
42836W        W15096  24.463  29.341   3.607
42837W        W15097  17.793   8.518   4.704
42838W        W15098  14.154   9.941   2.422
42839W        W15099  31.631   8.722  11.034
42840W        W15100  14.924  16.805   9.698
42841W        W15101  16.958  14.676   3.186
42842W        W15102   1.366   3.811   3.248
42843W        W15103   4.742   8.741  10.798
42844W        W15104  44.477   6.535  12.860
42845W        W15105   7.257  14.890   4.172
42846W        W15106   5.549   3.670  11.593
42847W        W15107  34.656  29.227   0.280
42848W        W15108  31.770  23.244  14.931
42849W        W15109   8.953   3.385  13.772
42850W        W15110  19.703  32.648  14.589
42851W        W15111  29.719  34.580   1.296
42852W        W15112  24.544  23.549   0.793
42853W        W15113   9.284  36.285   3.252
42854W        W15114   3.008  27.507  14.937
42855W        W15115  29.157  35.381  12.375
42856W        W15116  41.068  10.257   0.344
42857W        W15117  35.469  10.721   4.055
42858W        W15118   6.438  18.108   2.687
42859W        W15119  34.572   5.454  14.509
42860W        W15120  36.749  37.142   3.326
42861W        W15121  35.028  39.323   2.696
42862W        W15122   5.306  21.745  13.380
42863W        W15123   0.582  29.625   1.360
42864W        W15124  13.821  29.676  12.465
42865W        W15125  21.658  34.305   2.678
42866W        W15126  41.042   5.358   1.622
42867W        W15127   6.255  31.728  14.324
42868W        W15128  11.356  26.572   2.269
42869W        W15129  44.864  26.839   2.728
42870W        W15130   1.418  16.851   1.132
42871W        W15131  26.353  19.008  13.315
42872W        W15132  41.423  13.719   1.022
42873W        W15133   3.206  33.026  14.094
42874W        W15134  15.321   9.229   4.060
42875W        W15135  34.048  17.845  12.333
42876W        W15136  34.355  33.515  12.000
42877W        W15137  36.993  24.011   1.902
42878W        W15138  25.169  44.471  13.033
42879W        W15139  30.885   2.131  10.622
42880W        W15140  28.893  22.805  14.766
42881W        W15141  22.198  24.165   2.313
42882W        W15142  36.389   3.116   1.887
42883W        W15143  13.234  42.012  13.017
42884W        W15144  31.675  44.295   2.135
42885W        W15145  43.035  37.298  14.463
42886W        W15146  23.070   8.417  13.760
42887W        W15147  38.300  42.862   2.452
42888W        W15148  10.266  22.430  13.795
42889W        W15149  33.840  15.511   3.378
42890W        W15150  28.709   4.730  13.994
42891W        W15151  16.505  38.492   1.589
42892W        W15152  32.881   9.641   1.653
42893W        W15153  36.259  30.459  11.014
42894W        W15154  16.668  15.215   2.787
42895W        W15155  31.396  43.410  11.673
42896W        W15156  41.803   6.910  12.146
42897W        W15157  42.563  12.115   3.155
42898W        W15158  24.510  37.410  11.162
42899W        W15159  13.377  19.880  13.600
42900W        W15160   8.357  35.411  12.108
42901W        W15161  42.870  40.552  13.005
42902W        W15162  13.561   6.834   2.272
42903W        W15163  17.158  37.425   4.858
42904W        W15164   4.016  17.115   3.270
42905W        W15165  15.822  16.706  14.479
42906W        W15166   5.942  28.027   3.796
42907W        W15167  14.007  11.186  10.822
42908W        W15168  37.135  19.539  11.598
42909W        W15169   8.909   7.771  11.814
42910W        W15170  20.189  39.594  14.789
42911W        W15171  17.783  20.805  14.749
42912W        W15172  33.639  40.412   0.206
42913W        W15173   5.423  17.045   3.605
42914W        W15174  37.486  27.199   3.244
42915W        W15175  16.128  44.188   1.264
42916W        W15176   9.175  23.001   0.033
42917W        W15177  24.231   8.299  12.053
42918W        W15178  26.988   4.171   0.409
42919W        W15179  23.723  14.608   3.676
42920W        W15180  18.443  10.785   2.736
42921W        W15181  30.085  32.868  12.419
42922W        W15182  16.787  17.363  12.518
42923W        W15183  36.192   1.246   1.626
42924W        W15184  38.641  18.195   2.448
42925W        W15185  17.618  10.288   3.115
42926W        W15186  14.915   0.191   4.014
42927W        W15187  39.564   7.448  14.057
42928W        W15188  12.951   1.026  14.004
42929W        W15189  16.315  23.958   4.311
42930W        W15190   5.238  10.387   0.239
42931W        W15191  20.589  19.123   1.805
42932W        W15192   1.847  18.895   3.233
42933W        W15193  26.607  22.825  12.423
42934W        W15194  38.963   5.961   2.934
42935W        W15195   3.690  36.411   0.786
42936W        W15196  13.337  38.097   0.642
42937W        W15197   5.201  43.273  12.376
42938W        W15198  21.971  21.098  11.459
42939W        W15199  18.922  31.265   4.047
42940W        W15200  17.374  26.188   2.997
42941W        W15201   4.737   9.151  14.824
42942W        W15202  44.870  40.312  11.528
42943W        W15203  34.083  22.465  10.815
42944W        W15204  20.360  41.641   2.824
42945W        W15205  24.765  32.114   1.309
42946W        W15206  44.008  13.998  14.142
42947W        W15207  42.242  12.189   1.177
42948W        W15208  35.879  21.141   1.960
42949W        W15209  38.961  17.982  13.088
42950W        W15210   4.696  17.053   4.075
42951W        W15211  33.969  28.067   0.976
42952W        W15212   4.759  35.159  11.507
42953W        W15213  15.121  42.842   1.293
42954W        W15214  38.448  32.707   2.322
42955W        W15215  20.118  38.676  11.686
42956W        W15216  27.896  28.855  13.496
42957W        W15217   9.103   7.279   4.092
42958W        W15218   0.016   6.804   0.774
42959W        W15219  12.754  38.840  14.760
42960W        W15220  16.199  30.355   1.018
42961W        W15221  36.398  40.550   4.114
42962W        W15222  33.159  11.907   4.198
42963W        W15223  28.600  18.019  12.402
42964W        W15224  28.394  36.010   0.983
42965W        W15225  35.434  27.287   1.006
42966W        W15226  31.054   4.959   3.269
42967W        W15227   8.116  11.124  11.568
42968W        W15228  15.439  20.859  12.565
42969W        W15229   0.961  14.720  14.701
42970W        W15230  29.711   2.915  12.369
42971W        W15231   2.464  44.284  14.831
42972W        W15232  21.377  24.243  11.972
42973W        W15233   6.304  32.187  12.340
42974W        W15234  19.624  31.998   3.339
42975W        W15235   1.545  24.002  13.980
42976W        W15236  28.816  43.239   1.311
42977W        W15237  21.555  29.981   2.471
42978W        W15238  23.293  11.577  12.175
42979W        W15239   4.770  14.280   4.601
42980W        W15240   7.589   7.773  11.060
42981W        W15241  27.310  18.134  10.711
42982W        W15242  23.479  40.210  12.140
42983W        W15243  24.080  18.525   1.137
42984W        W15244  31.342  23.074   1.243
42985W        W15245  36.311  20.889  10.522
42986W        W15246  28.610  42.035   4.757
42987W        W15247   1.961  33.582  14.962
42988W        W15248  13.443  38.466   2.272
42989W        W15249  12.274   2.490   2.246
42990W        W15250   7.852  37.608  10.629
42991W        W15251   2.422  30.546   2.940
42992W        W15252  37.035  35.557  11.470
42993W        W15253  39.549  23.715   3.700
42994W        W15254  39.038  44.265   2.920
42995W        W15255  10.607   5.838  10.738
42996W        W15256  36.438  18.177   0.155
42997W        W15257   1.190  29.032  13.601
42998W        W15258  17.728  29.975  11.707
42999W        W15259  42.328   2.087  13.166
43000W        W15260  34.929   7.849   4.605
43001W        W15261  27.466   7.260   0.461
43002W        W15262   4.703  18.915   4.692
43003W        W15263  31.099  25.067   3.662
43004W        W15264  12.322  29.098   2.231
43005W        W15265   8.800  40.608  12.958
43006W        W15266  32.564  37.546   3.474
43007W        W15267  25.675   3.861  11.366
43008W        W15268  30.602  22.277  10.358
43009W        W15269  42.908   7.375  10.473
43010W        W15270   6.665  33.599  12.476
43011W        W15271  29.581  39.630  12.928
43012W        W15272  14.888  15.103  11.088
43013W        W15273  28.095  26.014   1.239
43014W        W15274  18.980  22.698   2.765
43015W        W15275   2.129   4.640   0.953
43016W        W15276  31.914  31.108   3.192
43017W        W15277  30.024  30.181  14.548
43018W        W15278  43.807   8.320   3.367
43019W        W15279  31.186  11.779  10.646
43020W        W15280  21.770  13.754  11.582
43021W        W15281  34.510  12.130   2.928
43022W        W15282  38.587  26.481  13.543
43023W        W15283  14.825   8.588   3.347
43024W        W15284   0.593  35.010   1.690
43025W        W15285  38.885  18.302   0.471
43026W        W15286  36.278  27.379  11.950
43027W        W15287   3.289  23.440   4.828
43028W        W15288  25.580  35.528  13.277
43029W        W15289   5.578  27.867  13.408
43030W        W15290  29.911  37.037   0.846
43031W        W15291  44.910  41.049   0.007
43032W        W15292  19.211  19.336   1.694
43033W        W15293  29.651  36.983   2.885
43034W        W15294  18.621  32.954   4.680
43035W        W15295  14.062  28.393  12.209
43036W        W15296  24.768  19.938   3.307
43037W        W15297  41.027  13.641  14.426
43038W        W15298  30.015   8.446  14.350
43039W        W15299  44.494  28.777  11.559
43040W        W15300   6.873  42.167  13.880
43041W        W15301  11.282  14.259  14.467
43042W        W15302  34.672  19.759   0.390
43043W        W15303   6.236  27.154   3.606
43044W        W15304   4.822  33.064  14.696
43045W        W15305   3.711  19.194   1.835
43046W        W15306  24.584  30.053   2.847
43047W        W15307  19.712  33.961  13.955
43048W        W15308  23.511  19.548   2.161
43049W        W15309  23.478  37.127  14.804
43050W        W15310  44.842  18.859  12.134
43051W        W15311  11.755  21.208  11.066
43052W        W15312  38.981   9.664  13.506
43053W        W15313  28.908   0.021   4.078
43054W        W15314  30.042  41.531   3.724
43055W        W15315  32.212  26.570  13.322
43056W        W15316  40.085  42.129  13.554
43057W        W15317  11.733  43.988   2.737
43058W        W15318  41.282  16.503   3.008
43059W        W15319  25.181  12.298   0.392
43060W        W15320  32.841  18.157   1.276
43061W        W15321  44.445  36.339   0.972
43062W        W15322  39.335  42.279   3.814
43063W        W15323   0.676  20.652   0.044
43064W        W15324  40.540  18.792   2.415
43065W        W15325  44.479  20.314   1.211
43066W        W15326   4.808  40.197   4.374
43067W        W15327   3.789  13.259  11.492
43068W        W15328   6.400  43.500  12.462
43069W        W15329  25.940  13.910  14.569
43070W        W15330   0.358  40.273  10.579
43071W        W15331  40.800   2.085   0.507
43072W        W15332   4.393  44.105   3.909
43073W        W15333  22.436   0.287  13.754
43074W        W15334  32.891   3.121  13.420
43075W        W15335  26.186  19.101   2.346
43076W        W15336  36.504  10.648  12.459
43077W        W15337  19.296   5.667  13.066
43078W        W15338   6.313  31.998   1.364
43079W        W15339  24.687  23.163   4.170
43080W        W15340   7.333  31.083   1.270
43081W        W15341  14.151  14.296   0.899
43082W        W15342   5.862  13.930   2.716
43083W        W15343  20.415  19.760  14.872
43084W        W15344  39.290  25.607  10.639
43085W        W15345  35.929  21.104   4.384
43086W        W15346  24.072   9.393   1.237
43087W        W15347  10.331  34.295   1.966
43088W        W15348  36.402  40.854   4.569
43089W        W15349  33.357  16.234  13.335
43090W        W15350  31.840  22.482  13.435
43091W        W15351  23.451   8.794  11.047
43092W        W15352  29.443  18.147   1.349
43093W        W15353  26.709   6.272  14.751
43094W        W15354   3.751   6.855   0.983
43095W        W15355   9.674  38.757   1.847
43096W        W15356  25.447   4.584  11.168
43097W        W15357   8.721  35.329   0.460
43098W        W15358  22.364   9.377  10.847
43099W        W15359  28.914  41.338   0.341
43100W        W15360  17.209  39.279  10.721
43101W        W15361  16.161  16.292  14.948
43102W        W15362  33.222  12.279  14.345
43103W        W15363  44.251  43.571   2.626
43104W        W15364  25.461  10.180  13.011
43105W        W15365  19.455  18.726   0.380
43106W        W15366  42.324  18.741  13.738
43107W        W15367  40.013  27.900   0.839
43108W        W15368  10.341  14.114   4.217
43109W        W15369  41.398  40.063   0.851
43110W        W15370  13.587  39.971  13.403
43111W        W15371  42.567  23.938   0.931
43112W        W15372  22.753  13.243  12.423
43113W        W15373  18.273  28.473   0.899
43114W        W15374  32.558  32.383   3.012
43115W        W15375  41.276  25.003  14.918
43116W        W15376  29.125  34.799   4.108
43117W        W15377  17.150  42.982   1.266
43118W        W15378   6.420   0.018  11.132
43119W        W15379  36.461  37.440   1.189
43120W        W15380   2.333  29.002  12.774
43121W        W15381  29.954  25.799  12.931
43122W        W15382  15.001  38.432  12.598
43123W        W15383  28.701  24.494   3.150
43124W        W15384  33.043  29.173   3.994
43125W        W15385  24.760  12.744   1.373
43126W        W15386  12.143   7.381   4.572
43127W        W15387  39.782  39.629   2.859
43128W        W15388  17.653   4.077   4.738
43129W        W15389  27.260   4.407   4.560
43130W        W15390  33.960  38.117  14.966
43131W        W15391  40.924  25.392   2.780
43132W        W15392  40.542   7.798   0.068
43133W        W15393  29.563  15.647   0.649
43134W        W15394  17.367   7.238   5.466
43135W        W15395  39.987  17.864   4.453
43136W        W15396  38.426  26.325  14.913
43137W        W15397  42.851  44.189  10.815
43138W        W15398  38.425   2.186  13.087
43139W        W15399   3.409   1.835   4.631
43140W        W15400  22.237  44.322   3.598
43141W        W15401  17.304  41.280   3.784
43142W        W15402  27.665  23.770  10.335
43143W        W15403   1.475   8.688  14.336
43144W        W15404  36.325  22.512   3.349
43145W        W15405  33.636  39.951   2.787
43146W        W15406   5.203  37.934   0.440
43147W        W15407  20.063  37.155   4.154
43148W        W15408   3.302   2.689   4.239
43149W        W15409  34.011   5.529  11.600
43150W        W15410  44.558  30.523   0.715
43151W        W15411  19.869  21.083   5.044
43152W        W15412  15.235  34.160  14.537
43153W        W15413  21.739  41.405   3.703
43154W        W15414   7.874  28.161   1.473
43155W        W15415  32.719   7.801  14.761
43156W        W15416   4.350  27.539  14.290
43157W        W15417  28.439  41.510   2.782
43158W        W15418  24.669   3.708  12.024
43159W        W15419   3.719   2.385  12.520
43160W        W15420  15.320  14.811   3.817
43161W        W15421   9.936   8.227   2.895
43162W        W15422  34.107  24.196  11.497
43163W        W15423  40.296  25.441   2.171
43164W        W15424   6.198  26.656   1.333
43165W        W15425  42.066  37.269   2.215
43166W        W15426  27.447  44.269   2.853
43167W        W15427  33.906  43.409   1.286
43168W        W15428  11.073  25.667  14.000
43169W        W15429  26.357   4.730  10.019
43170W        W15430  23.509  17.213   1.204
43171W        W15431  42.613   9.025   1.290
43172W        W15432  33.073  43.847   3.925
43173W        W15433  20.349  18.547   2.719
43174W        W15434  39.413  15.188  14.959
43175W        W15435  39.899  31.935   4.075
43176W        W15436  38.138  14.134  12.882
43177W        W15437   0.010   8.865  12.594
43178W        W15438  34.361  10.589   4.150
43179W        W15439  34.931   3.801  14.965
43180W        W15440  14.152  39.166  14.869
43181W        W15441   4.776   5.058   1.855
43182W        W15442   0.091  25.115   3.172
43183W        W15443  21.544  40.948   4.626
43184W        W15444   3.587  21.964  14.745
43185W        W15445  43.379  37.562   4.658
43186W        W15446  11.114  23.716   4.085
43187W        W15447  12.585  16.205  11.539
43188W        W15448  23.054  32.045   0.520
43189W        W15449  40.326   0.113  12.057
43190W        W15450  35.378  18.154   1.856
43191W        W15451   0.979  12.685  13.099
43192W        W15452   9.758  15.023  11.547
43193W        W15453  39.268  30.947   4.101
43194W        W15454  32.497   5.590  13.038
43195W        W15455   7.923  26.435   4.533
43196W        W15456  28.635   1.664  12.847
43197W        W15457  43.545  11.275   0.199
43198W        W15458   6.953   8.717   0.215
43199W        W15459  43.345  16.633   0.418
43200W        W15460  10.865   6.370   4.649
43201W        W15461   0.889  28.358  11.157
43202W        W15462  12.204  43.206   4.067
43203W        W15463  26.792  14.250   3.148
43204W        W15464   5.756  13.683   4.169
43205W        W15465   3.510   9.890  14.281
43206W        W15466   3.766  37.335   0.658
43207W        W15467  35.830  20.231   3.164
43208W        W15468  20.165  44.143  10.937
43209W        W15469   5.284  26.089   9.784
43210W        W15470  41.464  39.541   3.294
43211W        W15471  13.101  20.231   1.461
43212W        W15472  26.947  41.089   3.676
43213W        W15473  27.429   3.834   0.356
43214W        W15474   6.645  19.871   4.083
43215W        W15475   5.735  43.306   4.128
43216W        W15476  41.467  36.528  11.264
43217W        W15477  35.036  33.464   4.660
43218W        W15478   2.309  34.690   0.308
43219W        W15479  21.238   6.717   0.419
43220W        W15480   9.414  15.553   1.515
43221W        W15481   9.189   5.143  11.971
43222W        W15482  39.898  13.240   3.871
43223W        W15483  40.448  18.330   2.221
43224W        W15484  37.036  27.389   2.773
43225W        W15485  23.663  43.343  12.498
43226W        W15486  39.826  44.463  14.059
43227W        W15487  20.959   4.564  11.647
43228W        W15488  13.307  32.605  11.065
43229W        W15489  27.383  37.368  13.782
43230W        W15490  38.772  37.034   2.135
43231W        W15491   9.652   2.477   1.880
43232W        W15492  22.223  16.135  13.847
43233W        W15493  24.160  27.953  14.864
43234W        W15494  10.570  44.370  12.920
43235W        W15495   4.650   6.447   2.849
43236W        W15496  44.257   3.248  10.681
43237W        W15497  15.247  30.395   0.848
43238W        W15498  42.060  33.318   4.173
43239W        W15499  40.420  11.372  11.573
43240W        W15500   3.965  41.297   2.485
43241W        W15501  22.199   8.332   2.424
43242W        W15502   0.924   7.910   2.811
43243W        W15503  23.146  28.053  13.603
43244W        W15504  34.564  25.614   2.423
43245W        W15505  15.361   3.668  12.603
43246W        W15506  44.472  34.115  10.733
43247W        W15507  24.117  24.714  13.920
43248W        W15508  38.238   5.739  14.185
43249W        W15509  12.655  43.204  10.578
43250W        W15510   2.861  24.717  11.591
43251W        W15511  17.746  17.832   3.152
43252W        W15512  41.518   9.745   0.807
43253W        W15513  24.147   5.816  10.576
43254W        W15514   4.703  13.607   2.264
43255W        W15515  30.977  22.782   5.025
43256W        W15516  23.576  44.543  14.496
43257W        W15517  20.763  29.499   4.796
43258W        W15518  15.857  32.144  13.581
43259W        W15519  27.151  36.922  12.104
43260W        W15520  19.706  40.595   3.374
43261W        W15521  22.093  41.155   3.214
43262W        W15522  20.754  10.218  10.113
43263W        W15523  31.775  36.992  11.265
43264W        W15524   4.033   2.494   1.728
43265W        W15525  44.951  33.980   3.652
43266W        W15526  27.609  35.113  14.543
43267W        W15527  26.703  40.478  14.836
43268W        W15528  35.996  23.137  14.877
43269W        W15529  35.144  14.229  12.879
43270W        W15530   7.794  19.829   2.298
43271W        W15531  44.718  34.429   4.525
43272W        W15532  16.479  23.688   3.078
43273W        W15533  24.405  30.783   1.071
43274W        W15534  28.999  14.013   5.298
43275W        W15535   2.019  30.705  13.629
43276W        W15536  26.441  19.619  13.423
43277W        W15537  19.887   1.783   3.850
43278W        W15538  43.473  30.019  11.296
43279W        W15539  25.465  13.908   1.416
43280W        W15540   7.416  42.340   0.899
43281W        W15541  15.348  35.146   1.311
43282W        W15542  15.219  44.217  11.611
43283W        W15543  13.550   7.429  10.670
43284W        W15544  42.576  17.674  14.802
43285W        W15545  34.146  32.636  11.095
43286W        W15546   4.741   2.207  13.556
43287W        W15547  17.086  41.501   2.054
43288W        W15548  19.326  43.950  13.838
43289W        W15549  30.470   2.635   1.253
43290W        W15550  26.007  11.157   1.665
43291W        W15551  17.543  26.589  11.619
43292W        W15552  38.575  29.883   3.699
43293W        W15553  27.393  13.716   4.894
43294W        W15554  14.378  36.942   2.196
43295W        W15555   1.220  17.150  12.519
43296W        W15556  43.568  11.209  12.186
43297W        W15557  42.968  31.502  10.782
43298W        W15558  42.749  31.699  14.820
43299W        W15559  31.574  28.651  11.609
43300W        W15560   3.153   4.728   0.493
43301W        W15561   9.933  18.753   0.392
43302W        W15562  15.729   7.947   2.342
43303W        W15563  15.009  38.893  12.020
43304W        W15564  34.082  36.032  10.746
43305W        W15565  25.715   3.873  14.923
43306W        W15566  40.367  27.904   2.083
43307W        W15567   0.837  16.276   3.441
43308W        W15568   2.323  19.605   2.809
43309W        W15569  15.894  25.064   4.219
43310W        W15570  34.348   0.370  14.408
43311W        W15571  28.998  22.729   3.453
43312W        W15572  41.414  32.632  13.929
43313W        W15573   0.445   2.770  11.296
43314W        W15574   9.177  17.712   0.113
43315W        W15575  17.847  27.979   0.385
43316W        W15576  40.747   5.357  12.885
43317W        W15577  19.090  35.449   3.707
43318W        W15578  40.075  40.439  13.395
43319W        W15579   3.490  14.711  13.418
43320W        W15580  19.168  35.043   2.503
43321W        W15581  30.430  43.551  11.963
43322W        W15582  21.583  15.730  13.807
43323W        W15583   6.940  17.719   2.361
43324W        W15584  25.771  20.123  11.929
43325W        W15585  30.817   7.624  13.114
43326W        W15586   3.313  36.058  13.556
43327W        W15587  31.667  26.975   1.771
43328W        W15588  38.071  27.959   9.953
43329W        W15589  40.342  30.231  14.238
43330W        W15590  28.695  24.166   0.759
43331W        W15591  10.044  16.354  10.080
43332W        W15592  16.077  43.913   4.560
43333W        W15593  42.244   3.477   4.153
43334W        W15594  34.627   9.283   2.459
43335W        W15595  40.780  37.822  13.488
43336W        W15596  30.086  16.959   2.783
43337W        W15597  44.083   1.266   3.630
43338W        W15598  37.977  34.506  13.405
43339W        W15599  21.502   1.551   1.511
43340W        W15600   3.844  15.306   4.579
43341W        W15601   1.704  17.896  13.476
43342W        W15602  35.105  36.484   2.159
43343W        W15603  19.771  11.389  11.096
43344W        W15604   1.025  33.375  13.993
43345W        W15605  38.093  26.872   1.449
43346W        W15606  30.407  39.555  13.778
43347W        W15607  37.463  27.563  12.835
43348W        W15608   3.334   5.749   0.426
43349W        W15609   1.674  34.845   3.610
43350W        W15610  12.573  12.695   4.052
43351W        W15611  19.274  29.684  10.803
43352W        W15612   4.902  27.662   3.296
43353W        W15613  30.606  11.735   3.288
43354W        W15614  40.326  25.479   3.596
43355W        W15615  11.890  44.977  11.277
43356W        W15616  33.586   6.796   2.883
43357W        W15617  40.470   0.900  12.632
43358W        W15618  12.235  10.364   2.443
43359W        W15619  16.300  17.601   3.283
43360W        W15620  42.082  41.568  14.045
43361W        W15621  41.397  33.109  14.129
43362W        W15622   6.374  28.016  10.984
43363W        W15623   0.508  22.382   1.214
43364W        W15624  44.372   9.243  11.206
43365W        W15625  21.234  35.463   3.127
43366W        W15626  29.962  19.091  12.037
43367W        W15627  25.179   8.395   3.848
43368W        W15628  33.488  27.909   1.115
43369W        W15629  28.427  31.448   2.738
43370W        W15630  18.269  28.526  12.964
43371W        W15631  43.306  16.544   2.636
43372W        W15632   5.281   1.139   0.329
43373W        W15633  26.143  19.946  12.480
43374W        W15634  23.919  38.258  14.196
43375W        W15635   9.392  34.433  11.598
43376W        W15636  39.934  22.768   3.553
43377W        W15637  33.630  15.256   4.834
43378W        W15638  34.999  41.569   0.270
43379W        W15639  23.524  27.735   4.568
43380W        W15640  40.043  24.543  12.988
43381W        W15641   4.903  15.297   3.593
43382W        W15642   5.468   2.343   1.895
43383W        W15643  39.825  27.980   1.732
43384W        W15644   3.455  42.286  10.896
43385W        W15645  23.002  21.032   0.642
43386W        W15646  13.626  26.453   2.714
43387W        W15647  18.690  12.249  12.009
43388W        W15648   5.052  43.569  10.082
43389W        W15649  26.519   1.947  13.205
43390W        W15650  41.341   9.339  11.276
43391W        W15651   6.959  43.194   2.723
43392W        W15652  11.096  15.141   2.185
43393W        W15653  10.192  20.091   1.837
43394W        W15654   1.121  37.903  11.947
43395W        W15655  23.382  19.752   4.085
43396W        W15656  29.441  29.229   4.154
43397W        W15657  17.191  16.319  14.327
43398W        W15658  23.701   4.700   2.258
43399W        W15659  38.743  12.574   1.912
43400W        W15660   3.187  40.603   0.665
43401W        W15661  42.270  24.668  10.484
43402W        W15662  37.381  19.271  14.102
43403W        W15663  22.409  14.539   2.177
43404W        W15664  27.091  22.060  13.339
43405W        W15665  12.618   1.406   3.239
43406W        W15666  29.719  37.998   2.723
43407W        W15667  10.612  26.011  10.691
43408W        W15668  11.382   1.268  14.262
43409W        W15669   2.829  17.536  14.290
43410W        W15670  25.752   6.977  13.842
43411W        W15671  32.517  33.224  10.535
43412W        W15672   4.335  32.569  12.782
43413W        W15673  32.136  14.913   2.192
43414W        W15674  15.242   0.071   0.091
43415W        W15675   1.315  25.499  14.912
43416W        W15676  19.599  41.008   3.668
43417W        W15677  26.793  35.679   1.684
43418W        W15678  39.070   9.413  13.977
43419W        W15679  37.092  41.781  14.978
43420W        W15680   3.244   0.351   1.319
43421W        W15681   0.721   1.184   0.921
43422W        W15682  19.055  40.342  12.102
43423W        W15683   8.440  29.833  12.953
43424W        W15684   4.295  38.814  14.954
43425W        W15685   2.754   8.703  11.623
43426W        W15686   6.178  33.704   2.704
43427W        W15687  35.600  24.726   1.788
43428W        W15688  34.082  32.495  13.499
43429W        W15689  10.139   7.573  10.779
43430W        W15690   5.340  31.995   1.761
43431W        W15691  37.609   7.760  10.626
43432W        W15692  34.828   5.916  11.133
43433W        W15693  10.909  34.002  11.090
43434W        W15694  26.376  40.053   5.009
43435W        W15695   8.881   4.209   0.271
43436W        W15696  39.919  35.577  14.685
43437W        W15697  33.716   3.863   0.374
43438W        W15698   2.038  16.700  12.149
43439W        W15699  37.442  10.796  13.576
43440W        W15700  19.314   4.431   4.525
43441W        W15701  18.659   1.408   0.849
43442W        W15702   3.856  30.534  11.062
43443W        W15703  41.366  13.460  14.060
43444W        W15704  41.323   2.903   4.120
43445W        W15705  36.743   2.912   1.236
43446W        W15706  13.769  11.565  14.506
43447W        W15707  26.466   3.525  11.498
43448W        W15708  10.329  26.694   3.711
43449W        W15709  19.331  13.730   4.138
43450W        W15710  28.935  32.658  11.228
43451W        W15711  18.803  19.637  10.979
43452W        W15712  39.774  30.967   2.662
43453W        W15713  41.820  44.007   0.342
43454W        W15714  40.631  30.581  14.512
43455W        W15715   7.662  39.550   3.535
43456W        W15716  33.535  15.174   2.000
43457W        W15717  21.779  38.089   3.698
43458W        W15718  20.119   9.138  14.383
43459W        W15719   9.206  13.002   5.078
43460W        W15720  24.583  28.410  11.605
43461W        W15721  41.777  24.495   1.771
43462W        W15722  30.933  15.829   3.293
43463W        W15723   1.286  34.779  12.801
43464W        W15724  24.719   4.873   4.881
43465W        W15725   1.194  33.426  12.046
43466W        W15726  39.289   7.985  13.850
43467W        W15727  24.700  24.656  13.066
43468W        W15728  18.130  16.293  11.995
43469W        W15729  44.680  22.879   0.340
43470W        W15730  43.593   4.501   0.430
43471W        W15731   2.016  20.130   4.647
43472W        W15732  13.802  17.338  10.127
43473W        W15733  16.777  12.994  12.530
43474W        W15734  39.484  14.747   4.448
43475W        W15735   4.665  11.056   1.738
43476W        W15736  19.634  29.268   1.354
43477W        W15737  23.978  29.338  11.202
43478W        W15738  41.849   8.154   1.423
43479W        W15739  44.952   5.176   4.082
43480W        W15740  23.562  23.706   1.699
43481W        W15741  34.433   2.850  12.056
43482W        W15742  31.581  34.908   2.221
43483W        W15743   6.948  26.052   3.670
43484W        W15744  42.409  32.060   1.255
43485W        W15745   6.253  26.694   3.349
43486W        W15746   1.031  22.289   0.562
43487W        W15747   6.812  31.926  12.427
43488W        W15748  17.720  26.680  12.099
43489W        W15749   6.388  36.601   4.578
43490W        W15750   5.139  10.332  13.716
43491W        W15751  34.057   7.848  13.055
43492W        W15752  20.906   1.256   3.339
43493W        W15753  42.876  20.883  11.901
43494W        W15754  15.412  24.754  12.464
43495W        W15755  22.612  37.973  10.548
43496W        W15756  17.343  18.198   1.420
43497W        W15757   9.277  41.422  10.343
43498W        W15758   4.963  37.805   2.813
43499W        W15759  32.912   1.256   0.246
43500W        W15760  12.771  17.632  13.103
43501W        W15761  21.064  23.241   3.703
43502W        W15762  44.488  44.020  13.435
43503W        W15763  12.651   0.881   3.281
43504W        W15764   8.613   1.318  12.675
43505W        W15765  21.276  38.137   3.799
43506W        W15766   7.913  20.864  11.869
43507W        W15767   2.653  22.804  11.524
43508W        W15768  25.632  19.095   0.994
43509W        W15769  25.103  26.921  11.912
43510W        W15770  38.441   6.545   5.112
43511W        W15771  26.661  11.326   2.396
43512W        W15772  13.545   0.154   0.391
43513W        W15773  40.835  30.874  13.955
43514W        W15774  24.362   8.067   2.764
43515W        W15775  17.393  23.033  14.576
43516W        W15776   9.655  30.512  14.705
43517W        W15777  41.314  25.982  11.688
43518W        W15778  23.613  17.634   3.859
43519W        W15779  25.617   5.221   3.796
43520W        W15780  38.598   2.695  11.656
43521W        W15781  37.955  43.290  11.069
43522W        W15782  29.056  30.933  11.391
43523W        W15783   3.805  33.068   0.714
43524W        W15784   8.400  14.343   3.263
43525W        W15785  38.910  23.548   1.290
43526W        W15786  11.444  31.877  11.017
43527W        W15787  14.611   0.976   0.463
43528W        W15788  18.455  40.074  10.932
43529W        W15789  35.461  16.515  14.815
43530W        W15790  39.743  29.044  14.523
43531W        W15791  23.052   2.788  14.400
43532W        W15792   3.707  22.254   4.525
43533W        W15793  23.813  42.048   4.209
43534W        W15794  19.088  24.862  11.134
43535W        W15795  28.705  19.568   1.284
43536W        W15796  35.141  15.779  10.275
43537W        W15797   8.144  12.284  11.999
43538W        W15798  21.098  39.727  14.231
43539W        W15799   3.792  21.051   2.621
43540W        W15800  12.770  29.678  10.565
43541W        W15801  42.838  21.554  14.312
43542W        W15802  13.242  16.387   4.948
43543W        W15803  20.804  38.907  10.776
43544W        W15804  31.469  29.974   1.755
43545W        W15805  23.555  13.589   4.397
43546W        W15806  15.853  10.876   0.976
43547W        W15807  13.527  18.847   3.699
43548W        W15808   6.264  10.496  11.077
43549W        W15809   9.414   8.903  11.120
43550W        W15810  10.572  42.702  14.024
43551W        W15811  26.271   1.497  11.495
43552W        W15812  20.520  21.887   3.842
43553W        W15813  23.022  37.970  11.677
43554W        W15814  11.036  18.668  11.888
43555W        W15815  28.172   6.452   4.660
43556W        W15816  33.253  10.383  11.108
43557W        W15817   2.818  33.241   4.787
43558W        W15818  19.093  18.566   0.012
43559W        W15819  31.245   0.927   0.693
43560W        W15820   7.866  21.046   0.742
43561W        W15821  16.129  34.454  10.602
43562W        W15822  12.699  18.094  13.375
43563W        W15823   6.369  17.409  11.316
43564W        W15824  26.624  26.279  10.198
43565W        W15825  28.075  24.312   2.891
43566W        W15826  14.820   6.750   0.345
43567W        W15827  29.778  19.396  11.152
43568W        W15828   7.845  24.912  10.948
43569W        W15829  22.828   7.353  10.195
43570W        W15830  34.511  18.072  10.931
43571W        W15831  27.952  44.254   2.303
43572W        W15832  30.111  29.162   2.322
43573W        W15833  24.350  29.377  11.549
43574W        W15834  34.813   4.648  13.999
43575W        W15835  40.000   7.210  14.171
43576W        W15836  20.209  32.899  14.851
43577W        W15837  16.741  38.339  11.080
43578W        W15838  25.830  33.142  13.481
43579W        W15839  14.629  27.913   4.053
43580W        W15840  18.712  40.406   4.602
43581W        W15841   5.321  18.483  12.047
43582W        W15842   1.431  27.114  14.576
43583W        W15843  26.685  38.044   3.171
43584W        W15844  18.483  41.976   0.778
43585W        W15845  27.003  44.268   3.164
43586W        W15846  11.696  33.608   1.284
43587W        W15847  27.205  14.597  13.539
43588W        W15848  43.483   7.449   1.444
43589W        W15849  20.642   2.942  10.912
43590W        W15850   4.701  19.064   0.060
43591W        W15851  16.966  28.042  13.357
43592W        W15852  34.675  42.500  11.186
43593W        W15853   1.367  20.729  12.231
43594W        W15854  24.783  31.655   3.352
43595W        W15855  26.236  10.610  14.278
43596W        W15856  38.390  26.912  10.619
43597W        W15857  10.942  16.463  14.717
43598W        W15858  13.615  18.370   3.843
43599W        W15859  23.147   7.417  13.999
43600W        W15860   0.175  32.024  12.581
43601W        W15861  39.953  39.061  13.369
43602W        W15862  17.765  24.226   3.914
43603W        W15863  18.315  15.091  12.779
43604W        W15864  24.555  27.020   4.879
43605W        W15865  31.754  16.514  11.592
43606W        W15866   3.107  38.074   3.935
43607W        W15867  20.508  20.280   1.311
43608W        W15868   6.801  19.739   2.297
43609W        W15869  10.236  32.763   3.325
43610W        W15870   1.823  13.612   1.856
43611W        W15871   4.770   6.629  10.750
43612W        W15872  19.817  14.045   2.773
43613W        W15873  43.340   4.855  11.061
43614W        W15874   0.430  38.337   1.443
43615W        W15875  12.311  12.271  10.641
43616W        W15876  34.027  14.166   2.939
43617W        W15877   5.247  18.962  13.406
43618W        W15878   2.928   8.396   3.588
43619W        W15879  10.632  43.436  13.487
43620W        W15880  11.615  39.416   0.367
43621W        W15881  13.522   7.472  14.840
43622W        W15882  41.572  12.505   1.593
43623W        W15883   8.785  28.087  14.233
43624W        W15884  40.255  25.662   0.862
43625W        W15885  19.513   5.761  14.256
43626W        W15886  30.141   2.414   0.346
43627W        W15887  44.803   8.438   0.354
43628W        W15888  31.641  40.082  12.628
43629W        W15889  24.511  40.589   4.596
43630W        W15890  12.494  36.879   1.725
43631W        W15891   2.767  13.337  14.267
43632W        W15892  12.143  15.161  10.877
43633W        W15893  25.474  20.341   1.746
43634W        W15894  26.490  33.782  13.298
43635W        W15895  28.060   3.163   1.297
43636W        W15896  33.374  15.651   2.232
43637W        W15897  28.140  28.560  12.445
43638W        W15898  28.710  13.209  14.341
43639W        W15899   6.108  17.160  14.031
43640W        W15900   9.743  23.035  11.436
43641W        W15901  25.723  41.462  11.061
43642W        W15902  29.897   4.875  12.923
43643W        W15903  42.291   1.355   2.613
43644W        W15904  44.839  10.849  14.940
43645W        W15905  17.756   5.864   2.128
43646W        W15906  17.069  41.649   3.491
43647W        W15907  22.930  11.076  11.260
43648W        W15908  42.867  32.194  14.923
43649W        W15909  34.840  15.996  10.650
43650W        W15910  39.498  37.030   0.690
43651W        W15911  31.133  36.469  12.436
43652W        W15912  40.841  16.189  10.727
43653W        W15913   5.244  34.089  11.538
43654W        W15914  17.678  15.340  12.070
43655W        W15915  32.938  43.291   3.226
43656W        W15916   1.005  17.283  10.655
43657W        W15917   1.428  40.077   4.528
43658W        W15918  20.540   4.846  14.253
43659W        W15919  36.073  26.230   1.274
43660W        W15920  32.847   7.488   0.352
43661W        W15921  16.346  12.197  10.814
43662W        W15922  19.559   6.137   0.436
43663W        W15923  34.181  11.057   4.298
43664W        W15924   0.806   0.224   3.202
43665W        W15925  33.820  43.585   2.837
43666W        W15926   7.954  11.354   3.610
43667W        W15927  20.475  15.041   2.811
43668W        W15928  41.609  19.170   2.125
43669W        W15929  23.887  10.299  13.990
43670W        W15930  11.916  40.450   1.381
43671W        W15931  12.599  21.321  14.640
43672W        W15932  40.208  20.457   3.074
43673W        W15933  20.892  44.204  12.435
43674W        W15934  18.242  43.498  13.820
43675W        W15935   8.839   6.773   0.620
43676W        W15936   4.258  34.638   3.266
43677W        W15937  43.970  38.930  13.378
43678W        W15938  42.069   6.865   0.505
43679W        W15939   3.914   7.967   4.078
43680W        W15940  25.165  34.906  14.831
43681W        W15941  27.465  17.630  14.795
43682W        W15942  42.857  33.953  14.452
43683W        W15943  42.798   8.320   0.390
43684W        W15944  27.021  23.508   2.103
43685W        W15945  32.588  34.600   2.220
43686W        W15946  27.479  22.951  11.991
43687W        W15947  26.051   6.217   4.349
43688W        W15948   5.782  21.227  12.569
43689W        W15949  42.423  34.416   0.285
43690W        W15950  37.609  43.706   1.386
43691W        W15951  30.380  34.857   3.822
43692W        W15952  21.114  19.150  13.787
43693W        W15953  35.920  30.413   3.838
43694W        W15954  43.477  30.115  13.077
43695W        W15955  29.239   6.524  14.454
43696W        W15956  24.086   9.889   4.960
43697W        W15957   5.387   4.901  13.440
43698W        W15958  15.269  29.614   3.395
43699W        W15959  13.766  25.570  13.995
43700W        W15960   3.237  44.426   0.346
43701W        W15961  35.186   0.069   0.414
43702W        W15962  34.592  33.030   2.308
43703W        W15963  35.181  19.287   2.751
43704W        W15964  25.416  23.999   3.329
43705W        W15965  14.054  25.981   0.110
43706W        W15966  28.125   7.466  13.749
43707W        W15967   0.492  40.424  11.080
43708W        W15968  15.979  18.907   5.026
43709W        W15969  11.842  36.030   4.995
43710W        W15970  29.040  19.764   3.248
43711W        W15971  44.777  31.628  13.779
43712W        W15972  14.555  38.525  12.362
43713W        W15973  30.861  32.761  13.041
43714W        W15974  32.078  14.181   1.253
43715W        W15975  33.710  22.378  11.179
43716W        W15976  36.340  37.396   1.682
43717W        W15977  10.781  35.016  12.159
43718W        W15978  14.159  26.594  12.947
43719W        W15979  35.609  41.286   3.687
43720W        W15980  24.265  34.642   1.726
43721W        W15981  17.648   1.756  13.998
43722W        W15982  28.730  11.062   3.183
43723W        W15983  31.581   4.410   0.263
43724W        W15984   6.638  18.609   3.898
43725W        W15985  43.255  37.833   0.557
43726W        W15986  25.754  29.592  12.527
43727W        W15987  37.060  23.061  12.957
43728W        W15988   2.386  20.788   3.462
43729W        W15989  39.153   9.564   4.195
43730W        W15990   0.003   6.300   4.272
43731W        W15991  12.153   8.767  13.770
43732W        W15992   2.528  15.325  11.080
43733W        W15993  29.102  35.858  12.097
43734W        W15994  11.570   2.580   0.294
43735W        W15995  27.591  38.815  13.805
43736W        W15996   2.478  19.604  12.965
43737W        W15997   6.377  29.022   1.419
43738W        W15998  11.472  40.529   2.716
43739W        W15999  26.722   1.268   1.550
43740W        W16000   8.238  29.027  10.359
43741W        W16001  15.045  10.907  12.462
43742W        W16002   3.904  16.533  11.704
43743W        W16003   4.679  39.334   0.594
43744W        W16004   7.672  30.150   2.219
43745W        W16005  17.908   6.196   3.321
43746W        W16006  17.043  26.354   4.979
43747W        W16007  37.475  35.968  14.105
43748W        W16008  34.140  40.071  13.290
43749W        W16009  43.496  34.635   5.100
43750W        W16010  11.761  31.850   1.229
43751W        W16011   8.089  39.135   3.695
43752W        W16012   1.311  11.624   3.937
43753W        W16013  40.643  38.060   0.437
43754W        W16014  43.777  26.090   4.678
43755W        W16015  43.181  20.047  12.075
43756W        W16016  12.209  33.909   4.259
43757W        W16017  33.545  44.452   2.954
43758W        W16018  27.064  18.573  10.530
43759W        W16019   1.876   1.224   4.733
43760W        W16020   4.047  13.788   1.668
43761W        W16021  10.259  43.515  12.498
43762W        W16022  15.594  31.989   4.462
43763W        W16023  15.237  39.995   1.718
43764W        W16024  30.914  21.747   0.183
43765W        W16025  37.591  41.092   1.173
43766W        W16026  30.472  37.849  13.412
43767W        W16027  24.217  25.395   0.894
43768W        W16028  31.893  38.270   2.362
43769W        W16029   7.202  19.318  11.646
43770W        W16030  20.792  42.955  13.786
43771W        W16031  20.678  40.911  13.402
43772W        W16032   4.114  32.435   1.208
43773W        W16033   7.399  32.609   4.193
43774W        W16034  31.298  38.315   5.129
43775W        W16035  40.839  43.018  11.631
43776W        W16036  20.703  34.118  10.700
43777W        W16037  24.346   8.343   0.303
43778W        W16038   2.919   3.806   3.625
43779W        W16039  40.286  29.952  12.866
43780W        W16040   2.674   7.712   1.264
43781W        W16041  22.783  21.798   4.129
43782W        W16042  13.214  27.557   1.865
43783W        W16043  23.545   7.218   1.770
43784W        W16044  16.300  39.383  14.319
43785W        W16045  37.494  32.475   3.875
43786W        W16046  44.317  21.094  11.902
43787W        W16047  17.295   0.631  12.008
43788W        W16048  29.927  29.718  11.618
43789W        W16049   2.019   1.808  11.919
43790W        W16050   5.271  16.294   4.166
43791W        W16051  29.632  10.334  12.064
43792W        W16052  43.992  33.091  13.440
43793W        W16053   0.384  31.166   1.327
43794W        W16054  28.730   0.953   0.269
43795W        W16055   6.860  32.441   0.701
43796W        W16056  16.101  26.179   4.769
43797W        W16057  17.094  42.422   3.127
43798W        W16058  11.197  32.501  14.730
43799W        W16059  27.446  16.211  11.426
43800W        W16060  40.345  35.564  14.083
43801W        W16061  28.375  38.653  11.629
43802W        W16062  24.776   9.317  12.101
43803W        W16063  38.987  33.359   4.491
43804W        W16064  34.967  21.569   3.731
43805W        W16065  20.589  30.477  13.336
43806W        W16066   2.241  24.296  11.088
43807W        W16067  28.360  34.492   3.619
43808W        W16068  35.544   6.818   2.219
43809W        W16069  24.247  36.035   4.746
43810W        W16070  35.469  37.862   1.939
43811W        W16071  36.142  19.623  13.122
43812W        W16072   6.522  18.769  14.782
43813W        W16073  13.278  12.778  12.242
43814W        W16074  17.262  42.532  11.938
43815W        W16075  22.496  20.934  12.561
43816W        W16076  19.526   1.400  11.602
43817W        W16077   0.684  13.404  14.383
43818W        W16078  35.957  13.893   2.097
43819W        W16079  10.482  44.393  10.613
43820W        W16080   5.124  27.024   2.775
43821W        W16081   6.113  15.820   0.852
43822W        W16082   5.748  35.374   4.579
43823W        W16083   2.882   2.663  12.038
43824W        W16084  31.742  41.954  12.542
43825W        W16085  24.419   5.538   2.277
43826W        W16086  24.519   8.344  12.496
43827W        W16087  28.407  28.566   3.599
43828W        W16088  16.373   3.261   1.500
43829W        W16089  44.970  42.908  14.831
43830W        W16090  14.357  17.591   9.991
43831W        W16091  42.728  10.451  13.512
43832W        W16092  27.975  41.690  14.649
43833W        W16093  38.957   2.898   4.740
43834W        W16094  33.553  30.145  13.492
43835W        W16095  19.486  13.811  12.554
43836W        W16096  26.349  37.838   3.511
43837W        W16097  22.577   5.046  14.774
43838W        W16098  32.471  44.385   3.767
43839W        W16099  22.013  28.815   5.134
43840W        W16100  36.328  18.550  14.241
43841W        W16101  37.455  43.389   4.041
43842W        W16102   7.935  27.676   3.236
43843W        W16103  28.375  13.606   3.069
43844W        W16104  27.711  28.005   4.602
43845W        W16105   9.912  19.323   4.596
43846W        W16106  43.322  36.077  13.973
43847W        W16107  21.156  10.502  14.100
43848W        W16108  11.702  17.264   3.295
43849W        W16109  13.221  38.300   4.103
43850W        W16110  32.148  41.291   2.226
43851W        W16111  15.302   7.964  11.109
43852W        W16112  37.468  26.985  14.874
43853W        W16113   4.370  34.957  12.654
43854W        W16114  33.872   8.406   2.296
43855W        W16115   6.264  29.892  10.834
43856W        W16116  25.183   3.227   4.667
43857W        W16117  11.690  22.599   3.617
43858W        W16118  22.133  17.138   1.169
43859W        W16119  44.115   7.024  11.687
43860W        W16120   3.384   0.522  10.744
43861W        W16121  24.951   7.392  14.506
43862W        W16122   7.373  19.526  10.732
43863W        W16123  30.162   1.378  10.762
43864W        W16124  32.370  38.915  11.202
43865W        W16125   1.385  27.387  12.941
43866W        W16126  20.537  33.699   3.781
43867W        W16127  33.508   3.917   3.673
43868W        W16128  13.186  31.072   2.401
43869W        W16129  19.973  34.085  11.222
43870W        W16130  25.319  13.124   0.787
43871W        W16131   6.779  33.920   2.225
43872W        W16132   8.342   0.733   0.085
43873W        W16133   2.547  33.179   2.109
43874W        W16134  27.895  18.233  13.594
43875W        W16135  10.424  14.842   0.356
43876W        W16136  12.527  43.773  14.916
43877W        W16137  41.286  17.104   1.713
43878W        W16138  22.258  12.093   4.161
43879W        W16139  39.088   0.623   0.234
43880W        W16140   7.914   0.835  14.805
43881W        W16141   6.926   6.735  14.488
43882W        W16142  44.397  37.543  12.492
43883W        W16143   6.365  30.405   3.804
43884W        W16144   8.280  21.741  13.358
43885W        W16145  25.761  12.206   1.885
43886W        W16146   7.638  18.681  10.458
43887W        W16147  30.722  10.561  12.370
43888W        W16148   6.142  16.393  14.473
43889W        W16149  30.843  10.859   2.677
43890W        W16150   7.673  12.188  12.892
43891W        W16151  14.873   0.331  12.519
43892W        W16152  41.223  25.328  12.577
43893W        W16153  18.141  19.234   3.523
43894W        W16154  21.573  39.641  14.004
43895W        W16155  26.475  31.321  12.402
43896W        W16156  27.469  32.919   2.343
43897W        W16157   0.809   7.997   0.459
43898W        W16158  21.080   1.791   1.204
43899W        W16159   3.015  40.015  13.346
43900W        W16160  35.319  40.526   3.206
43901W        W16161  33.324  35.951  13.866
43902W        W16162  32.725   6.285  10.691
43903W        W16163  43.944  21.090   4.553
43904W        W16164  10.268   7.894   2.514
43905W        W16165  29.583  21.454   4.715
43906W        W16166  28.710  22.192  13.994
43907W        W16167  24.980  20.750  14.518
43908W        W16168  34.399  19.515   2.293
43909W        W16169   3.355   0.379   0.221
43910W        W16170  10.539  19.092  13.997
43911W        W16171  41.223   0.981  10.950
43912W        W16172  14.123  28.052   3.176
43913W        W16173  14.167  33.038   2.346
43914W        W16174  28.092  10.101   0.731
43915W        W16175  31.929  11.855  13.506
43916W        W16176  41.970  22.398   3.298
43917W        W16177  26.108  24.244   0.654
43918W        W16178  25.244  23.193  11.470
43919W        W16179   8.774   6.457   3.270
43920W        W16180  29.639  35.953   1.543
43921W        W16181   7.716  41.577  14.039
43922W        W16182   7.396  41.258  14.928
43923W        W16183  18.762  44.856   1.412
43924W        W16184  40.004  24.017   3.433
43925W        W16185   0.936  22.621   2.297
43926W        W16186   5.788  33.885  13.904
43927W        W16187  16.546  19.593  11.676
43928W        W16188  43.660   7.853  14.424
43929W        W16189  30.044  36.374  13.958
43930W        W16190  38.589  29.526  11.102
43931W        W16191   9.394  41.457   2.225
43932W        W16192   1.254  44.771   1.717
43933W        W16193  10.097  11.289   3.244
43934W        W16194  30.685  27.571  12.661
43935W        W16195  16.110  42.047  12.410
43936W        W16196  40.076   6.011  12.499
43937W        W16197  29.740  40.965   0.252
43938W        W16198  39.504  31.802  14.728
43939W        W16199  33.025  36.119  10.472
43940W        W16200  23.223  37.484   0.395
43941W        W16201  16.576  19.962  12.112
43942W        W16202  13.456   7.116  10.275
43943W        W16203  40.511  40.386  14.935
43944W        W16204  35.831   2.277  11.108
43945W        W16205  27.501  23.361   4.562
43946W        W16206  11.207  25.021   4.065
43947W        W16207  38.124  10.726   4.672
43948W        W16208  21.531  22.037  10.985
43949W        W16209  25.410  19.972   0.356
43950W        W16210  14.330   0.128  13.055
43951W        W16211  12.850  37.899  14.784
43952W        W16212  14.926  20.957  12.615
43953W        W16213  37.309   9.929   2.407
43954W        W16214  10.132   1.907  11.527
43955W        W16215  12.184  14.140  12.076
43956W        W16216   0.781  23.379  10.704
43957W        W16217  38.087  15.312   2.844
43958W        W16218  19.122  36.518   3.315
43959W        W16219  31.532  28.511   3.651
43960W        W16220  32.175  35.540  12.502
43961W        W16221  33.806  20.162  14.135
43962W        W16222  44.314   5.805   3.196
43963W        W16223  23.203  10.147  11.249
43964W        W16224  43.314   2.016   3.153
43965W        W16225   8.111  41.829   4.290
43966W        W16226  23.347  38.318   1.357
43967W        W16227   4.933  29.518  13.798
43968W        W16228  43.673  44.853  11.411
43969W        W16229  40.922  41.697   4.437
43970W        W16230  28.175   5.363   4.225
43971W        W16231  28.708  37.786   0.960
43972W        W16232  13.726   8.682  14.888
43973W        W16233  29.231  14.574   4.157
43974W        W16234   6.861  19.454   0.926
43975W        W16235  44.962  25.105  10.739
43976W        W16236   5.719  32.880  11.218
43977W        W16237   7.289  18.774  13.438
43978W        W16238   2.456  39.582   2.775
43979W        W16239  24.120  27.057  13.378
43980W        W16240  29.103  44.403  13.806
43981W        W16241  30.981  30.843   2.200
43982W        W16242  38.817  23.875  11.131
43983W        W16243  44.583  40.618   5.176
43984W        W16244   8.444  39.113  12.033
43985W        W16245   9.677  41.554   0.391
43986W        W16246  31.583  38.382   0.231
43987W        W16247   0.013  14.852  13.125
43988W        W16248   8.880  21.400  13.187
43989W        W16249  32.972  32.487  10.526
43990W        W16250  30.105  26.019  12.483
43991W        W16251  19.038   9.310  13.323
43992W        W16252  35.037  10.057  13.825
43993W        W16253   1.379  44.178  14.743
43994W        W16254  12.391  17.253  13.589
43995W        W16255  37.857   2.206  13.133
43996W        W16256  32.538  44.415   4.903
43997W        W16257  42.729  40.848  11.187
43998W        W16258   7.390  37.886  10.662
43999W        W16259   3.476   1.883  12.342
44000W        W16260   1.987  42.697  12.914
44001W        W16261  27.046  25.290   1.829
44002W        W16262  27.659  31.536   2.238
44003W        W16263  27.645   6.437   0.182
44004W        W16264  14.539   8.671  10.075
44005W        W16265  40.721   3.752   0.728
44006W        W16266  42.055   6.221   3.600
44007W        W16267  12.176  14.118   0.552
44008W        W16268  25.893   9.645   3.917
44009W        W16269  13.384  19.361  11.261
44010W        W16270  34.095  40.265   1.663
44011W        W16271  33.903   1.582   1.212
44012W        W16272  13.285  16.910  14.323
44013W        W16273  38.624   1.494   1.477
44014W        W16274  14.780   0.822  12.610
44015W        W16275  29.974   1.720   1.163
44016W        W16276   4.074  35.461   3.057
44017W        W16277   5.661  26.081   5.181
44018W        W16278  26.199  16.766  10.564
44019W        W16279   1.261   4.598   1.061
44020W        W16280  26.298  27.960   4.145
44021W        W16281  38.840   4.665  13.459
44022W        W16282  24.037   9.784   1.596
44023W        W16283   8.591  14.159  14.056
44024W        W16284  19.531  33.998   1.200
44025W        W16285   6.378  24.666   3.938
44026W        W16286  44.862  40.284   0.472
44027W        W16287  27.308  26.585   3.725
44028W        W16288  23.240  22.763  14.688
44029W        W16289  17.831  23.711  13.987
44030W        W16290  36.308  19.708   3.742
44031W        W16291  22.107  43.124   2.393
44032W        W16292  36.012  18.850   1.870
44033W        W16293  42.914  11.577   1.923
44034W        W16294  36.741  30.730  10.994
44035W        W16295  19.335  42.303   0.236
44036W        W16296  16.326  10.812  11.082
44037W        W16297  43.282  30.592  13.134
44038W        W16298   1.866  16.683   2.764
44039W        W16299  21.219  35.579  13.937
44040W        W16300  24.391  25.163   0.366
44041W        W16301  41.826  13.346   3.710
44042W        W16302  12.169   6.273  13.533
44043W        W16303  18.065  39.577  12.720
44044W        W16304  41.810  43.530  12.336
44045W        W16305  31.157  23.978   3.187
44046W        W16306  32.372  31.553   4.600
44047W        W16307   3.357  27.209  12.948
44048W        W16308   7.411  27.618   3.277
44049W        W16309  17.504   0.717   4.365
44050W        W16310  17.670  36.618   1.887
44051W        W16311  40.304  26.923   3.578
44052W        W16312  27.761  37.471   2.826
44053W        W16313  38.945  23.103  12.625
44054W        W16314   4.941  21.588   4.808
44055W        W16315  41.801  10.580  14.052
44056W        W16316  38.223  38.765   4.259
44057W        W16317  28.610  18.757  13.030
44058W        W16318  25.197  25.509  13.134
44059W        W16319  21.648  28.615   4.527
44060W        W16320   1.281  26.897  12.765
44061W        W16321   4.402  35.650   1.031
44062W        W16322   9.329   5.872   3.910
44063W        W16323  33.598  14.639  12.909
44064W        W16324  24.150  19.537  14.529
44065W        W16325  25.010  34.944   2.398
44066W        W16326  12.165  36.615  13.858
44067W        W16327  44.782  24.421   0.243
44068W        W16328  23.230  20.534  12.926
44069W        W16329  41.430  29.524   1.345
44070W        W16330  36.821  32.821   4.302
44071W        W16331  36.816   9.944  14.351
44072W        W16332  31.596   9.364   4.670
44073W        W16333  23.838   6.774  12.059
44074W        W16334  33.472  37.485   1.783
44075W        W16335  38.392   2.972   4.019
44076W        W16336  33.663  21.582  10.698
44077W        W16337  44.938   8.617  13.995
44078W        W16338   3.781  29.885   2.328
44079W        W16339  15.623  24.660  13.802
44080W        W16340  37.917  13.447   2.831
44081W        W16341  41.405   0.736  11.355
44082W        W16342  30.239  38.386   1.479
44083W        W16343  16.283  25.656  13.631
44084W        W16344   1.970  39.415   1.004
44085W        W16345  27.462  38.917   0.249
44086W        W16346  13.754  10.249   1.293
44087W        W16347  20.370  18.582  11.843
44088W        W16348  14.192  30.947   4.545
44089W        W16349  17.136  44.097   0.357
44090W        W16350  23.543  29.587  11.072
44091W        W16351   5.192  19.228  11.622
44092W        W16352  23.622  36.259  13.042
44093W        W16353  16.985  36.153  12.961
44094W        W16354  14.818  25.048  13.373
44095W        W16355  27.811  33.998   1.319
44096W        W16356   5.248  24.509  12.434
44097W        W16357  18.576  18.280   2.754
44098W        W16358  11.855  31.584   0.803
44099W        W16359  27.052  18.709   4.638
44100W        W16360  12.397  14.201  13.484
44101W        W16361  17.545  36.934  13.979
44102W        W16362   6.991  40.268  14.772
44103W        W16363  36.125   5.436  14.611
44104W        W16364  32.298  21.636   0.934
44105W        W16365  35.509  40.771   1.798
44106W        W16366  42.347  26.474  14.844
44107W        W16367  17.300  14.440   2.824
44108W        W16368  10.273  25.396  13.805
44109W        W16369   1.805  13.668  13.414
44110W        W16370   8.446   4.223  10.757
44111W        W16371  19.273  34.096   3.667
44112W        W16372  39.932  14.664   1.353
44113W        W16373   0.388   2.815   2.936
44114W        W16374  36.072  40.453   4.612
44115W        W16375  30.919  21.698  10.937
44116W        W16376  14.217   7.078   2.707
44117W        W16377  16.800   6.961   0.917
44118W        W16378  32.034   3.220   0.681
44119W        W16379  41.343   8.709   0.715
44120W        W16380  13.790   7.403  11.506
44121W        W16381  35.188  19.158  12.886
44122W        W16382   1.503  13.642   0.576
44123W        W16383  29.206  43.007  14.118
44124W        W16384  17.184   3.432  11.167
44125W        W16385  12.357  13.891   3.903
44126W        W16386  43.444  41.323   2.087
44127W        W16387  29.129  11.088  12.254
44128W        W16388  25.600  11.977   1.446
44129W        W16389  31.560   7.828   4.091
44130W        W16390  34.968   3.381   4.690
44131W        W16391  29.896  33.170  13.862
44132W        W16392  24.760  41.265   3.239
44133W        W16393  28.554  20.237   3.877
44134W        W16394  28.110  29.291  14.024
44135W        W16395  42.122  30.474  11.943
44136W        W16396  31.529  21.290   1.853
44137W        W16397  41.254   7.135  10.762
44138W        W16398   5.998  13.640  12.892
44139W        W16399  16.520  17.083   0.559
44140W        W16400  22.291  13.829  11.616
44141W        W16401  13.279  34.137   3.228
44142W        W16402   9.845  23.877  10.894
44143W        W16403  20.051  20.775   0.872
44144W        W16404  30.343  37.921  11.161
44145W        W16405  14.984  20.186  14.980
44146W        W16406  12.709  16.633   5.203
44147W        W16407   3.500  10.653  11.087
44148W        W16408  38.749  39.639   4.483
44149W        W16409  36.933  43.283   2.766
44150W        W16410  42.795  23.208  14.803
44151W        W16411   4.365  24.593   0.040
44152W        W16412  15.855  40.861   1.734
44153W        W16413  30.195  36.134  11.072
44154W        W16414  38.638  36.367   2.404
44155W        W16415  25.960  30.486  12.463
44156W        W16416  35.675  19.858   0.646
44157W        W16417  28.992  23.159  11.259
44158W        W16418   0.754   2.818   2.592
44159W        W16419   1.462  34.577  12.377
44160W        W16420  40.420   5.603  11.644
44161W        W16421  33.956  19.544   4.277
44162W        W16422  21.506  13.788  11.146
44163W        W16423  29.050  26.600   1.030
44164W        W16424   3.331  23.773   1.157
44165W        W16425  31.689   2.004  14.223
44166W        W16426  29.581  42.207   1.831
44167W        W16427  24.964  12.225   3.765
44168W        W16428  18.171  40.524  12.101
44169W        W16429   8.710  11.266  10.716
44170W        W16430  32.932  11.617   3.814
44171W        W16431  28.152   3.235  11.941
44172W        W16432  38.855   6.034   1.227
44173W        W16433  23.981   6.223  13.006
44174W        W16434   2.534  23.579  14.517
44175W        W16435  22.677  27.560  13.908
44176W        W16436  16.150  18.972  10.699
44177W        W16437  26.643  11.838   3.525
44178W        W16438  24.449  40.541  11.944
44179W        W16439  26.521  25.606  10.706
44180W        W16440  14.800  27.697   2.462
44181W        W16441  44.217  39.135  14.045
44182W        W16442  41.287  39.820   2.873
44183W        W16443   8.943  20.824   3.277
44184W        W16444   5.773   7.719   1.205
44185W        W16445   2.248  40.805   0.699
44186W        W16446  29.409  42.886  13.105
44187W        W16447  20.801  21.891  14.377
44188W        W16448  39.373  29.009   0.500
44189W        W16449  43.962  30.949  12.805
44190W        W16450  27.385  14.681   3.669
44191W        W16451  21.238  42.782  14.896
44192W        W16452  21.944  41.458   1.335
44193W        W16453  34.945   2.084  10.055
44194W        W16454  20.015   5.870  14.481
44195W        W16455  33.503  34.925   4.618
44196W        W16456  37.715   7.901   3.645
44197W        W16457  12.978  26.790   5.317
44198W        W16458  16.533  20.198  13.977
44199W        W16459  42.031  24.026   1.874
44200W        W16460  42.109  21.337  13.536
44201W        W16461  37.968  22.251   0.977
44202W        W16462  16.866  13.583   1.898
44203W        W16463  26.080  16.270  13.580
44204W        W16464   9.419  27.269  14.944
44205W        W16465  38.867  36.809  11.104
44206W        W16466  42.046   1.443  12.575
44207W        W16467  25.076   8.354   0.968
44208W        W16468  24.801  16.736   4.090
44209W        W16469  16.622  14.006  11.397
44210W        W16470   8.483   2.147  11.640
44211W        W16471  29.141  34.632   3.243
44212W        W16472   9.856  42.784  13.366
44213W        W16473  25.214  30.522   4.593
44214W        W16474  13.635  27.922   1.850
44215W        W16475  31.046   8.046   4.147
44216W        W16476  20.418  42.737   4.710
44217W        W16477   3.468  17.381   0.010
44218W        W16478   3.198  35.038   2.786
44219W        W16479  33.187  42.987  11.240
44220W        W16480  23.432   9.834  14.840
44221W        W16481  44.372  26.490  14.912
44222W        W16482  44.523  20.457  12.970
44223W        W16483  43.177  28.817   5.104
44224W        W16484  15.643  37.152  11.032
44225W        W16485  34.906   1.334   3.118
44226W        W16486   0.241  26.983   0.953
44227W        W16487  12.191  18.583   3.769
44228W        W16488  42.381  14.363  14.976
44229W        W16489  15.327  30.864  11.458
44230W        W16490  40.059  24.486  13.999
44231W        W16491  37.005   3.452  12.624
44232W        W16492  20.031  11.809  12.875
44233W        W16493  34.629  21.128   3.775
44234W        W16494  43.359  17.054   3.826
44235W        W16495  12.864  23.076  13.971
44236W        W16496   5.656  20.628  12.495
44237W        W16497  24.791  20.279  14.517
44238W        W16498  30.106   3.257  13.044
44239W        W16499   4.938   4.146   3.608
44240W        W16500  23.904  22.928   0.266
44241W        W16501  29.341  42.317  12.610
44242W        W16502  36.953  14.254  13.977
44243W        W16503  19.107  26.026   1.831
44244W        W16504  16.507  14.069   0.785
44245W        W16505  33.603  19.089  12.478
44246W        W16506  43.862  40.003   1.296
44247W        W16507  20.741  14.118   4.153
44248W        W16508   5.985  11.513  11.165
44249W        W16509  27.659  43.763   3.731
44250W        W16510  27.936  41.599  10.286
44251W        W16511   5.336  11.254  12.334
44252W        W16512   6.346   4.435  12.578
44253W        W16513  20.355  44.379   0.943
44254W        W16514   7.357   0.570  13.530
44255W        W16515   3.411  44.181  14.357
44256W        W16516   8.505  23.113  11.163
44257W        W16517  30.382   4.804   4.415
44258W        W16518   4.384   6.176   4.870
44259W        W16519  11.670  26.719  14.307
44260W        W16520  33.558  10.108  13.523
44261W        W16521   6.682  25.061   4.210
44262W        W16522   4.814  24.001  14.803
44263W        W16523  42.034   0.932   2.470
44264W        W16524  24.601   6.765  14.343
44265W        W16525  31.138  29.135   1.397
44266W        W16526  14.210   2.027   2.255
44267W        W16527  23.783  10.855   1.354
44268W        W16528  13.581  16.833  10.900
44269W        W16529  17.518  22.198  14.887
44270W        W16530  23.409  18.127   2.199
44271W        W16531  43.825  34.709  12.746
44272W        W16532  10.523   1.656   3.190
44273W        W16533  32.009  40.050  10.679
44274W        W16534  10.682  18.647   1.743
44275W        W16535  26.122  32.532  12.494
44276W        W16536  23.576  25.162   4.956
44277W        W16537  32.011  30.826   4.941
44278W        W16538  27.581  30.357  13.385
44279W        W16539  31.846   5.668  13.537
44280W        W16540  38.738  34.578  13.927
44281W        W16541  16.732  33.962  10.987
44282W        W16542  31.103  35.060   2.331
44283W        W16543  14.637  32.139  10.833
44284W        W16544  43.373   7.380  14.330
44285W        W16545   4.329   0.740   0.477
44286W        W16546  37.084  31.108   0.805
44287W        W16547  33.098   5.472   2.095
44288W        W16548  26.517  39.902   4.514
44289W        W16549  13.105  11.319  12.445
44290W        W16550  17.217  15.850   0.046
44291W        W16551  27.132  27.537  11.460
44292W        W16552  33.081  10.818   3.224
44293W        W16553  44.602  18.757   2.481
44294W        W16554   2.751  22.915  13.623
44295W        W16555   3.509  32.465  14.810
44296W        W16556  20.545  10.727  14.084
44297W        W16557  16.633  20.770   0.307
44298W        W16558  18.958   5.385   3.440
44299W        W16559  40.294  14.719   2.776
44300W        W16560  11.622   0.733   3.597
44301W        W16561  11.880  32.431   2.332
44302W        W16562  20.988  17.929   1.524
44303W        W16563   4.327  36.309   3.207
44304W        W16564  24.219  33.746   3.560
44305W        W16565  43.066   1.418   3.726
44306W        W16566  26.241  13.184  11.003
44307W        W16567  43.426  12.245   3.114
44308W        W16568  26.602  36.884  13.620
44309W        W16569   6.750  15.331   2.935
44310W        W16570  43.974  12.678   3.642
44311W        W16571  24.057  35.561   4.824
44312W        W16572  10.714  35.393  12.967
44313W        W16573  32.165  10.923  12.663
44314W        W16574  13.933  24.096   0.298
44315W        W16575  36.850  33.671  13.124
44316W        W16576  19.548  15.635   4.404
44317W        W16577  12.345  39.530  14.609
44318W        W16578   5.639  37.042   0.098
44319W        W16579  44.225  13.284   3.753
44320W        W16580   4.417  32.540  14.241
44321W        W16581  27.112  39.117  11.550
44322W        W16582  37.826  41.587  13.463
44323W        W16583   3.282  44.065   3.209
44324W        W16584  44.727  33.012  14.370
44325W        W16585  34.808   8.218  13.282
44326W        W16586  12.238  37.333   1.759
44327W        W16587  15.734  34.846  12.052
44328W        W16588  42.865  24.308  14.829
44329W        W16589  21.924  34.862  11.632
44330W        W16590  39.053  25.486  13.000
44331W        W16591  20.964  35.668  14.398
44332W        W16592  19.802  31.464   2.216
44333W        W16593  29.941  23.515   3.898
44334W        W16594  19.184  29.403  11.240
44335W        W16595  36.428   2.918  10.820
44336W        W16596  16.821  15.066   0.752
44337W        W16597  38.882  25.579  14.557
44338W        W16598  13.294  19.866  13.083
44339W        W16599  43.784   6.324   4.374
44340W        W16600  10.973   6.903   1.286
44341W        W16601  44.467  40.532  11.787
44342W        W16602   5.803   8.307   2.804
44343W        W16603  35.374  32.516  13.990
44344W        W16604  44.575  38.174  13.949
44345W        W16605   0.017  37.372   1.979
44346W        W16606   8.801   0.224   0.380
44347W        W16607  25.302  27.612  13.392
44348W        W16608  29.432  19.199  12.549
44349W        W16609  44.515  22.340  14.443
44350W        W16610  35.882  27.746  11.615
44351W        W16611  21.016   6.080   2.770
44352W        W16612  29.396   0.948   1.441
44353W        W16613  22.958  10.118  13.471
44354W        W16614  20.610  15.155  11.132
44355W        W16615  33.870  27.227   2.342
44356W        W16616   8.733  30.062  14.865
44357W        W16617   0.836  34.156   3.667
44358W        W16618   9.578  12.686   2.664
44359W        W16619  26.645   9.976   2.204
44360W        W16620  37.854  19.922   1.392
44361W        W16621  11.081  22.304   4.115
44362W        W16622  40.512  30.162   2.449
44363W        W16623  29.170  24.044  14.406
44364W        W16624   3.904  36.896   1.023
44365W        W16625  26.499   2.901   3.444
44366W        W16626  36.481  38.791   3.609
44367W        W16627  24.321   4.692   1.278
44368W        W16628   6.193  42.826  13.345
44369W        W16629  42.468  22.059  13.523
44370W        W16630  38.964  29.973   3.258
44371W        W16631  29.951   8.490  14.872
44372W        W16632   7.278  33.305   1.010
44373W        W16633  23.989   0.809   2.572
44374W        W16634  16.606  11.394   1.279
44375W        W16635  34.420  38.737  13.119
44376W        W16636  29.898  14.720   1.852
44377W        W16637  39.976  39.393   3.267
44378W        W16638  16.061  33.828   2.488
44379W        W16639  36.815   7.455  12.167
44380W        W16640  27.645   3.064   4.550
44381W        W16641  20.129  27.985  12.642
44382W        W16642  20.656   0.406  11.578
44383W        W16643   3.622  37.059  14.030
44384W        W16644  20.572  19.522   3.540
44385W        W16645   7.652  16.695   0.244
44386W        W16646  29.097  43.527  11.481
44387W        W16647  42.785  11.259   3.205
44388W        W16648  30.977  24.231  14.918
44389W        W16649  16.808  17.158   2.332
44390W        W16650  16.249  23.244   3.662
44391W        W16651  36.419  41.431   1.918
44392W        W16652  44.648  29.881  11.966
44393W        W16653  37.545  22.606   3.357
44394W        W16654  29.001   1.788   1.937
44395W        W16655   6.227  10.686   3.640
44396W        W16656  34.859  30.535   1.716
44397W        W16657  42.612   8.370   4.006
44398W        W16658  19.939  13.685  13.576
44399W        W16659  40.886  41.054  13.515
44400W        W16660   5.168  24.557   2.289
44401W        W16661  29.407   0.746  11.965
44402W        W16662  35.613  13.716   0.566
44403W        W16663  38.415  10.758   0.053
44404W        W16664  32.931  36.124  11.615
44405W        W16665   3.656  28.433   2.275
44406W        W16666   0.623  29.992   4.859
44407W        W16667   2.438  34.749  13.490
44408W        W16668  16.768  12.526  14.849
44409W        W16669  44.099  12.437  12.631
44410W        W16670  20.226  35.533  12.156
44411W        W16671  12.837  15.691   0.938
44412W        W16672  40.103  16.186   4.650
44413W        W16673  35.799  15.104  12.953
44414W        W16674  31.923  33.546  14.726
44415W        W16675   1.372  13.674  13.099
44416W        W16676  42.513   5.887   1.334
44417W        W16677  29.714  32.631  10.208
44418W        W16678  43.746  43.718  13.911
44419W        W16679  30.640  11.522  13.161
44420W        W16680  13.700  35.577   1.298
44421W        W16681  24.579  14.314  13.347
44422W        W16682  29.327   2.901  12.925
44423W        W16683   4.960   7.514   4.612
44424W        W16684  19.006  33.820  11.448
44425W        W16685  28.190  37.769  13.344
44426W        W16686  22.634  27.995  11.160
44427W        W16687  41.994  29.910   0.164
44428W        W16688   0.887  38.983  12.706
44429W        W16689  29.001  24.094  10.666
44430W        W16690  39.268   5.680   0.045
44431W        W16691  34.847  23.627   4.285
44432W        W16692   3.504  21.227   1.843
44433W        W16693  24.618  26.570   4.605
44434W        W16694  32.962  43.385  13.082
44435W        W16695   1.890   4.176  13.908
44436W        W16696  20.794   3.810   3.547
44437W        W16697   9.776  10.363   0.921
44438W        W16698  26.916   9.321   1.380
44439W        W16699  32.976  25.437  13.896
44440W        W16700  41.671   4.979  14.718
44441W        W16701  28.414  19.363   0.880
44442W        W16702  15.228   9.873   1.272
44443W        W16703  26.578   4.538  11.379
44444W        W16704  30.681   3.951  13.416
44445W        W16705   5.720  23.850  12.012
44446W        W16706   4.288  22.541  10.917
44447W        W16707  35.011  40.453  10.148
44448W        W16708  36.654  12.874  12.164
44449W        W16709  44.798   3.693   0.922
44450W        W16710   9.576  17.658  11.010
44451W        W16711  31.852   8.856  13.818
44452W        W16712  36.512   2.415   4.282
44453W        W16713  43.005  28.679  12.919
44454W        W16714  25.357  13.342  14.877
44455W        W16715  36.543  18.701   5.087
44456W        W16716  27.721  25.610  12.967
44457W        W16717  22.244  31.460  10.611
44458W        W16718  16.317   4.155   4.465
44459W        W16719   6.467  20.609  12.066
44460W        W16720   2.268  44.493   0.290
44461W        W16721   0.728  20.411  11.145
44462W        W16722   1.050  16.144   1.824
44463W        W16723   0.506   2.663  13.909
44464W        W16724  11.868  39.906  14.194
44465W        W16725  25.675  18.020  14.359
44466W        W16726   0.786  14.805  11.930
44467W        W16727  40.085  22.920   4.024
44468W        W16728  26.434  43.484  13.479
44469W        W16729  35.995  16.350   4.926
44470W        W16730  29.642   2.791   4.092
44471W        W16731   6.922  39.748   1.953
44472W        W16732  15.522  34.925  11.393
44473W        W16733  25.326   6.173   3.223
44474W        W16734  43.075   9.938   2.749
44475W        W16735  19.898   8.330   5.843
44476W        W16736  24.447  21.163  11.604
44477W        W16737  29.645   2.242  14.464
44478W        W16738  25.481  40.016  11.558
44479W        W16739  16.437  42.275   2.148
44480W        W16740  37.418  23.778   3.082
44481W        W16741   9.727  22.049   3.547
44482W        W16742  12.828  36.047  13.490
44483W        W16743  30.546  27.978  10.623
44484W        W16744  21.471  43.787  12.131
44485W        W16745  13.169  21.266   9.792
44486W        W16746   6.516  11.349  11.135
44487W        W16747  21.740  40.292  10.682
44488W        W16748  28.968  31.946   4.159
44489W        W16749  30.595   7.458   2.650
44490W        W16750  15.796  11.394   0.974
44491W        W16751   6.571   6.828  11.079
44492W        W16752  17.267  10.905   1.011
44493W        W16753   5.709  22.597  13.328
44494W        W16754  40.292   2.717   1.668
44495W        W16755  31.015  41.435  11.708
44496W        W16756  24.304  26.169  10.244
44497W        W16757  19.286  11.848  14.952
44498W        W16758   3.675  38.209  12.523
44499W        W16759  32.424  12.064   1.679
44500W        W16760  42.251  40.777  12.965
44501W        W16761   0.467  19.815   4.459
44502W        W16762   9.281  14.460  14.569
44503W        W16763  20.272  44.015  14.117
44504W        W16764  18.657  21.035   0.857
44505W        W16765  11.930  39.339   3.768
44506W        W16766  30.673   3.496   0.764
44507W        W16767   1.360  40.827  14.480
44508W        W16768  41.305  40.903  13.092
44509W        W16769  26.706  41.123   0.870
44510W        W16770  40.285  26.694  14.055
44511W        W16771   4.368   4.690   2.726
44512W        W16772   8.735  21.063  11.252
44513W        W16773  39.665  33.046  13.438
44514W        W16774  40.398  27.784   1.197
44515W        W16775  11.176  36.555  12.616
44516W        W16776   8.204  24.775   4.527
44517W        W16777  17.761  13.982  11.142
44518W        W16778  21.367  17.569  12.086
44519W        W16779   1.158  16.296  11.530
44520W        W16780  16.206  36.957  10.841
44521W        W16781  41.513  33.483  13.810
44522W        W16782   2.426  44.322  12.761
44523W        W16783  24.449   1.263   0.458
44524W        W16784  27.076  26.030  11.715
44525W        W16785  35.300  21.944  13.705
44526W        W16786  30.347  24.715   4.145
44527W        W16787  37.559  32.514  14.124
44528W        W16788   4.005  14.580  12.590
44529W        W16789  22.771  30.687  14.330
44530W        W16790  24.107  34.534   3.028
44531W        W16791  14.537  20.187   1.278
44532W        W16792   0.466   9.464   3.706
44533W        W16793   8.375   9.254  14.127
44534W        W16794  34.143  34.383  10.716
44535W        W16795  41.520  36.287   3.324
44536W        W16796  17.221   0.901   0.491
44537W        W16797  25.165  15.542   0.373
44538W        W16798  43.054  23.260  13.280
44539W        W16799  29.668  34.481  14.921
44540W        W16800  42.257  24.515  13.032
44541W        W16801   4.732  32.168  12.577
44542W        W16802  21.230   0.241  14.940
44543W        W16803  19.645  36.347   3.134
44544W        W16804  37.138   7.771   1.222
44545W        W16805  32.690  21.189   3.315
44546W        W16806  41.574  21.230  11.984
44547W        W16807   0.277  13.686  14.446
44548W        W16808  28.241   7.158  13.326
44549W        W16809  36.984  44.475  13.755
44550W        W16810  43.458  42.773   4.221
44551W        W16811  31.900  20.298   0.420
44552W        W16812  25.490  44.444   3.373
44553W        W16813  31.982  10.339   5.037
44554W        W16814  34.841  44.833   2.322
44555W        W16815  10.268  11.914   3.766
44556W        W16816  28.978  41.396   2.682
44557W        W16817  38.957  32.924   2.960
44558W        W16818  39.769   5.635   3.265
44559W        W16819  39.353  30.635   4.587
44560W        W16820  12.154  16.197  12.999
44561W        W16821  11.870  29.889   1.163
44562W        W16822  14.178  38.284  13.125
44563W        W16823  43.182   9.747   3.254
44564W        W16824  21.014  24.228   2.490
44565W        W16825  21.701  22.293  14.537
44566W        W16826  21.706   8.345   4.135
44567W        W16827   3.434  24.054   2.069
44568W        W16828  20.761   6.181  12.967
44569W        W16829   2.013  33.030   3.045
44570W        W16830   9.879  35.666   1.649
44571W        W16831  38.430  40.407   2.667
44572W        W16832  39.785  15.936   1.169
44573W        W16833   8.471   3.589  13.924
44574W        W16834  28.391   1.411   4.249
44575W        W16835  27.911  24.046   4.260
44576W        W16836   8.825  31.612  10.584
44577W        W16837   2.422   0.814  13.498
44578W        W16838  17.516  31.041  14.397
44579W        W16839  17.408  14.360  11.164
44580W        W16840  30.016  29.507   0.971
44581W        W16841  41.049  34.530  10.503
44582W        W16842   7.204  31.357   0.841
44583W        W16843   7.860  22.648  10.706
44584W        W16844  25.717   7.911   4.158
44585W        W16845   4.509   8.921  12.142
44586W        W16846  25.583  36.689  12.891
44587W        W16847  29.721  32.905  11.914
44588W        W16848  23.079   2.607   2.117
44589W        W16849   8.086   2.868  10.745
44590W        W16850  19.599  18.290   2.924
44591W        W16851   9.657  16.584   0.412
44592W        W16852  16.016   8.264   1.466
44593W        W16853   8.504  19.755  10.749
44594W        W16854  38.332  44.503  13.129
44595W        W16855  38.331  30.570  11.324
44596W        W16856  15.246  25.673   0.711
44597W        W16857  14.390  11.738   4.270
44598W        W16858  31.148  34.084   0.872
44599W        W16859  42.365  33.386   0.422
44600W        W16860   1.190  21.752  13.378
44601W        W16861   8.292  13.274   4.580
44602W        W16862  11.864   0.758  14.814
44603W        W16863   0.419  21.763  11.163
44604W        W16864  28.154  36.975   4.599
44605W        W16865  30.630  30.344   5.104
44606W        W16866  28.393  13.625   0.368
44607W        W16867  22.793  19.063  12.948
44608W        W16868  26.273  12.214  14.870
44609W        W16869  40.571  28.406  14.874
44610W        W16870  44.528  17.532  14.971
44611W        W16871   9.929  17.261  13.776
44612W        W16872   8.762   5.169  10.750
44613W        W16873   5.012  34.870   0.716
44614W        W16874   8.772  34.035  14.854
44615W        W16875   5.308  41.412  13.948
44616W        W16876  43.993  37.015  11.621
44617W        W16877   8.886   3.190   4.309
44618W        W16878   6.427   6.299   1.363
44619W        W16879  23.408  43.023   2.114
44620W        W16880  33.148  31.671   4.164
44621W        W16881  35.410  29.008  12.024
44622W        W16882   6.870  29.238   9.837
44623W        W16883  41.000  33.167  11.526
44624W        W16884  13.676  21.013  12.093
44625W        W16885  40.898  21.739  12.948
44626W        W16886   9.262  17.261   1.478
44627W        W16887  30.537  38.604  11.724
44628W        W16888  39.901  17.806   3.673
44629W        W16889  14.870  43.519  13.427
44630W        W16890  23.052   9.904   3.794
44631W        W16891   9.155  15.241   0.337
44632W        W16892  38.252   5.658   0.289
44633W        W16893   7.363   7.805  13.916
44634W        W16894   0.258  39.744  10.461
44635W        W16895   4.336  29.598  10.638
44636W        W16896  31.512   4.849   0.540
44637W        W16897   9.669   8.429   4.698
44638W        W16898  21.229  31.895   1.415
44639W        W16899   6.558  43.425  14.268
44640W        W16900  29.482  31.363  10.851
44641W        W16901  10.270   6.257  10.693
44642W        W16902  10.745  25.430   0.947
44643W        W16903  41.774  40.379   1.053
44644W        W16904  11.372  16.034   2.274
44645W        W16905  24.682  26.082  10.591
44646W        W16906  12.323  33.352  11.028
44647W        W16907  38.927  19.351  10.339
44648W        W16908  36.014  33.974  13.365
44649W        W16909  12.272   9.596  13.480
44650W        W16910  28.125  20.744  13.303
44651W        W16911  26.287  40.201  11.080
44652W        W16912  36.524   2.495   3.742
44653W        W16913  34.122  40.888  12.845
44654W        W16914  37.328  23.412   0.820
44655W        W16915   2.941  16.323   4.604
44656W        W16916   6.852  17.245   3.842
44657W        W16917   0.473  43.937  11.711
44658W        W16918  37.575  26.132   4.589
44659W        W16919  23.802  44.931   2.474
44660W        W16920  24.562  13.814   2.386
44661W        W16921  43.162  36.500   0.182
44662W        W16922  20.102  34.771  13.782
44663W        W16923  20.067  19.384  14.753
44664W        W16924   2.104  37.850  11.739
44665W        W16925  17.753  16.969  13.712
44666W        W16926  12.668  41.303  13.119
44667W        W16927  42.800   6.439   4.751
44668W        W16928   5.042  34.492   3.768
44669W        W16929  35.444   4.457   1.960
44670W        W16930   7.478  42.391   3.070
44671W        W16931  11.702  28.729   2.750
44672W        W16932   2.342  13.605  11.061
44673W        W16933  28.230  18.492  13.904
44674W        W16934  24.064  25.574  14.545
44675W        W16935   1.772   9.638   2.846
44676W        W16936  30.008  31.862  13.387
44677W        W16937  26.673  14.061   0.225
44678W        W16938  42.978   4.745  11.920
44679W        W16939  26.673  17.178   1.017
44680W        W16940  10.414  28.794   4.251
44681W        W16941  44.335   8.642   1.956
44682W        W16942  44.162  11.124  13.382
44683W        W16943  35.624  35.492  13.866
44684W        W16944  35.438  20.028   2.909
44685W        W16945  25.848  36.323   3.147
44686W        W16946  17.183  43.625   3.860
44687W        W16947  17.631  30.559   4.103
44688W        W16948  41.808  30.412  12.855
44689W        W16949  12.670   0.886  12.224
44690W        W16950  43.275   8.876   3.541
44691W        W16951  36.592  20.159   3.827
44692W        W16952  33.938  29.957  10.625
44693W        W16953   9.689   4.894  12.082
44694W        W16954  19.159  37.960  10.970
44695W        W16955  19.068  21.169  13.921
44696W        W16956   4.032   0.994  11.586
44697W        W16957  12.893  11.348  14.726
44698W        W16958  34.974  31.564   2.806
44699W        W16959  29.745  33.097  14.490
44700W        W16960  27.066  42.995   3.717
44701W        W16961  27.557  42.476  10.731
44702W        W16962   2.809   3.404  14.252
44703W        W16963  31.607  10.631   2.399
44704W        W16964  35.705  13.261   5.078
44705W        W16965  32.999  22.137  14.407
44706W        W16966  21.971  42.447  10.767
44707W        W16967  10.928   8.363   2.858
44708W        W16968  14.558  20.763   3.316
44709W        W16969  27.808  35.455  13.360
44710W        W16970  36.677   0.352  11.233
44711W        W16971  31.038   1.661  13.885
44712W        W16972   5.355  44.883   1.657
44713W        W16973  11.398  43.810   1.742
44714W        W16974  29.845  39.098  11.207
44715W        W16975  37.126  15.464   1.803
44716W        W16976  18.694   8.702  10.437
44717W        W16977   1.540  22.491   2.599
44718W        W16978   9.944   2.152   0.626
44719W        W16979   9.391  43.904  12.545
44720W        W16980  17.413  42.986   0.359
44721W        W16981  34.564  10.293  12.951
44722W        W16982   4.317   1.948  14.318
44723W        W16983  16.597   3.877  10.666
44724W        W16984  13.412  26.903  14.415
44725W        W16985  19.150  21.249   2.182
44726W        W16986  24.934  15.322   2.776
44727W        W16987  35.534  41.037  12.686
44728W        W16988  29.457  37.930  11.073
44729W        W16989   9.264   6.165  14.994
44730W        W16990  34.049  27.012  12.326
44731W        W16991  29.691   5.451   0.337
44732W        W16992  38.994  39.504  11.574
44733W        W16993  19.218  40.884  11.303
44734W        W16994  40.517  38.904  11.275
44735W        W16995  19.190  30.945   1.700
44736W        W16996  38.130  28.328   3.389
44737W        W16997   3.779   6.233  12.550
44738W        W16998  19.034  39.350  10.625
44739W        W16999  42.730  11.027  12.567
44740W        W17000  22.431  22.274  13.025
44741W        W17001  23.232  39.419   0.012
44742W        W17002  18.178  35.361   3.354
44743W        W17003  42.904  25.349   1.679
44744W        W17004   9.285  44.188  10.291
44745W        W17005  19.661  29.436  11.111
44746W        W17006  27.467  10.230  13.870
44747W        W17007  41.963  33.897  14.574
44748W        W17008  42.935  43.844  14.643
44749W        W17009  15.125  40.758   1.255
44750W        W17010   1.004  27.538   0.128
44751W        W17011   6.371   8.181  10.916
44752W        W17012  38.632  41.853   0.876
44753W        W17013  18.561   7.132  14.579
44754W        W17014   3.162  37.816  10.771
44755W        W17015   4.926  35.090   0.245
44756W        W17016   1.736   9.107  12.569
44757W        W17017  13.227  11.764  11.685
44758W        W17018  23.927  21.245   4.564
44759W        W17019  12.689  21.269   5.070
44760W        W17020  43.420  24.840  13.869
44761W        W17021   0.821  17.597  11.879
44762W        W17022  34.433  10.180  14.687
44763W        W17023  40.893  44.669   1.770
44764W        W17024  43.039  25.109   3.458
44765W        W17025  16.394  37.976  11.837
44766W        W17026  42.896  31.087   2.851
44767W        W17027  18.713  11.832   5.072
44768W        W17028  20.611  20.799   1.349
44769W        W17029  12.512   6.331  11.529
44770W        W17030  13.598  15.019  10.790
44771W        W17031   9.803  24.691  12.237
44772W        W17032   9.864  16.821  11.374
44773W        W17033   2.404  25.981   4.329
44774W        W17034  19.769  26.528   4.635
44775W        W17035  14.724  27.168  14.835
44776W        W17036   0.647  14.244   5.122
44777W        W17037  23.598  32.187  10.603
44778W        W17038   9.401  33.130   0.886
44779W        W17039  31.008  34.370  10.989
44780W        W17040  22.171  20.877  12.973
44781W        W17041  19.139  41.484   0.749
44782W        W17042   7.128  29.392   2.260
44783W        W17043  31.825  33.899  11.338
44784W        W17044  17.479  29.583   2.357
44785W        W17045  35.807  37.506  14.878
44786W        W17046  16.851  15.637  11.062
44787W        W17047  12.601  21.787   0.048
44788W        W17048  15.632  12.867  11.620
44789W        W17049  22.676  34.966   2.241
44790W        W17050  42.577  10.061   1.368
44791W        W17051  44.915  17.169   3.051
44792W        W17052  20.144  26.601   1.159
44793W        W17053   2.927  44.516  11.444
44794W        W17054  24.714  28.797  10.675
44795W        W17055  26.603  21.187  14.301
44796W        W17056  39.930  38.979  12.399
44797W        W17057  39.881  11.682  14.209
44798W        W17058  35.577  28.491  13.427
44799W        W17059  38.834   0.467   4.330
44800W        W17060   1.274  44.552   1.233
44801W        W17061  19.388  44.025   0.180
44802W        W17062  26.323  29.429   1.615
44803W        W17063  19.452  26.407   0.581
44804W        W17064  18.128  20.023  13.440
44805W        W17065  11.773  41.069  11.587
44806W        W17066   2.311  18.768   0.440
44807W        W17067  43.770  14.284   1.352
44808W        W17068  15.343   6.256   3.371
44809W        W17069  43.841   3.453   3.153
44810W        W17070  30.450   6.774  10.766
44811W        W17071  40.597   8.754  13.327
44812W        W17072  14.714  43.460  10.578
44813W        W17073  16.167  15.083   2.801
44814W        W17074  16.399  42.022  14.784
44815W        W17075   3.915  36.827   1.929
44816W        W17076  14.089  16.101  10.682
44817W        W17077  25.401  21.395  11.721
44818W        W17078  21.062  16.336   2.297
44819W        W17079   6.629  41.489   4.155
44820W        W17080  32.181  22.173   2.304
44821W        W17081  41.863  17.095  11.177
44822W        W17082  10.689  39.569   2.782
44823W        W17083  38.704  11.134  13.030
44824W        W17084  27.434  15.062  14.653
44825W        W17085  16.697   0.874   0.482
44826W        W17086  41.232  12.564   4.895
44827W        W17087  13.186  19.261   1.718
44828W        W17088   9.440  30.739  12.001
44829W        W17089  34.488   9.195   0.840
44830W        W17090  27.876  32.557   4.798
44831W        W17091  23.103  12.278   0.764
44832W        W17092  11.578  21.862  13.936
44833W        W17093  13.987  18.568   0.739
44834W        W17094   3.783  32.833  11.605
44835W        W17095  37.550   0.223  11.049
44836W        W17096  33.573  28.601   2.667
44837W        W17097  16.761  37.114  11.633
44838W        W17098   2.924  14.754   2.368
44839W        W17099  37.484   9.868   1.572
44840W        W17100  12.693   2.841  10.622
44841W        W17101  24.252  29.017  14.023
44842W        W17102  38.001   7.027  10.590
44843W        W17103  10.755   3.751  13.806
44844W        W17104  12.359  31.625  14.694
44845W        W17105  34.168  10.188  10.815
44846W        W17106  30.329   4.132  10.661
44847W        W17107  13.863   7.715  12.878
44848W        W17108  11.683  36.385   0.971
44849W        W17109   5.869   5.367   0.116
44850W        W17110   1.182  36.555   1.076
44851W        W17111  38.919   2.251  14.958
44852W        W17112  27.666  20.710  14.850
44853W        W17113  15.229  25.334   2.667
44854W        W17114   8.619  13.778  10.681
44855W        W17115   7.395   6.168  12.016
44856W        W17116  28.478  27.431  13.356
44857W        W17117  29.321  15.186  11.983
44858W        W17118  15.097   7.436  11.972
44859W        W17119   2.853  21.086  10.445
44860W        W17120  30.933  30.476   1.819
44861W        W17121  22.369  39.364   1.538
44862W        W17122  23.627  41.967   1.058
44863W        W17123  29.595  30.874  10.679
44864W        W17124  34.660   7.786  13.921
44865W        W17125  15.999  12.566  14.313
44866W        W17126  24.147   4.440   2.564
44867W        W17127  15.462  28.907  14.005
44868W        W17128  26.015  34.691  13.503
44869W        W17129  17.166  21.558  12.409
44870W        W17130  15.705  11.960   0.119
44871W        W17131   3.862  35.573  14.705
44872W        W17132  32.854  28.090   0.128
44873W        W17133   8.599   5.889  13.650
44874W        W17134   7.670  19.324   2.271
44875W        W17135  12.614  32.019   1.687
44876W        W17136  28.617  12.686   2.932
44877W        W17137   0.796  26.506  11.517
44878W        W17138  28.847  26.582  13.477
44879W        W17139   5.192  15.845   0.840
44880W        W17140  10.950   0.841   0.693
44881W        W17141  43.380  20.602   4.083
44882W        W17142  36.379   3.924   3.333
44883W        W17143  43.367  36.955   0.408
44884W        W17144  19.934  14.398   2.195
44885W        W17145  29.725  27.953   1.410
44886W        W17146  35.128  36.927  11.697
44887W        W17147  16.770  20.474   0.706
44888W        W17148  43.882  22.097   0.889
44889W        W17149  20.022  43.724  13.393
44890W        W17150  36.840  24.771   1.127
44891W        W17151  42.367  29.495   4.205
44892W        W17152   8.669  27.970  13.318
44893W        W17153   7.286   0.858   4.599
44894W        W17154  28.952  30.071   4.472
44895W        W17155  24.029  34.972   2.695
44896W        W17156   1.806  36.602  11.910
44897W        W17157  34.566  30.134   1.605
44898W        W17158  43.153   1.130  12.896
44899W        W17159  42.432   8.897   3.297
44900W        W17160  16.844  32.946  14.311
44901W        W17161  25.746  17.284   0.921
44902W        W17162  40.810   8.168  12.478
44903W        W17163   3.781   4.909  10.662
44904W        W17164   5.358  30.225  13.054
44905W        W17165   7.351  24.591   3.929
44906W        W17166   1.904   4.748   0.040
44907W        W17167   9.065  12.824  12.952
44908W        W17168  37.407  30.542   4.040
44909W        W17169  19.087  44.249   3.315
44910W        W17170  26.956  37.812  11.943
44911W        W17171  33.823  12.869  14.330
44912W        W17172  31.638  24.702   0.439
44913W        W17173  20.270  11.245  12.043
44914W        W17174  37.143   9.117  11.946
44915W        W17175  30.163  24.204   2.668
44916W        W17176   0.220  24.553   4.383
44917W        W17177  27.844  41.918  13.877
44918W        W17178  35.551  22.664  12.581
44919W        W17179  21.216  12.720   0.754
44920W        W17180   2.333  14.270   4.057
44921W        W17181  39.458  20.961  12.872
44922W        W17182  27.719  21.057   1.667
44923W        W17183  32.487  21.313   2.869
44924W        W17184   2.285  24.184   2.918
44925W        W17185  35.549  34.486   3.180
44926W        W17186  35.905   0.252   3.651
44927W        W17187   6.463   1.966   5.054
44928W        W17188   2.063  43.276   3.622
44929W        W17189  32.965  28.547   1.339
44930W        W17190  38.067  17.660   4.370
44931W        W17191  13.203   2.253   4.851
44932W        W17192  13.146  30.192  13.502
44933W        W17193  44.753  42.287  12.673
44934W        W17194   4.284  23.783  12.236
44935W        W17195  42.223  28.954  14.292
44936W        W17196  37.374  35.136   3.300
44937W        W17197  34.918  13.017  11.817
44938W        W17198  11.244  11.621  13.337
44939W        W17199   8.881  32.543   3.645
44940W        W17200  22.253   2.952   1.886
44941W        W17201  33.046  20.452  10.783
44942W        W17202  21.334  15.158  11.607
44943W        W17203  25.963  20.557   1.733
44944W        W17204   9.918   4.431   0.043
44945W        W17205   5.863   6.712   4.636
44946W        W17206  14.195  28.362  14.768
44947W        W17207  14.781   1.809  10.826
44948W        W17208  27.464  30.595  12.508
44949W        W17209   3.638   4.721   4.517
44950W        W17210  33.328  23.073  11.658
44951W        W17211   3.524  37.149   3.180
44952W        W17212   8.864   7.284   0.771
44953W        W17213   0.432  24.042   0.389
44954W        W17214  34.457  12.219   0.254
44955W        W17215  22.647  40.540  13.518
44956W        W17216  35.291  13.352  12.956
44957W        W17217   0.840  31.146  12.897
44958W        W17218   5.815  41.481   3.749
44959W        W17219  38.018   7.865   2.181
44960W        W17220  31.087   9.117  12.550
44961W        W17221  38.731  14.260  11.992
44962W        W17222  17.987  37.950   4.552
44963W        W17223   0.857   7.192  12.454
44964W        W17224  34.185  21.577  12.026
44965W        W17225  22.591  41.302   3.127
44966W        W17226  12.328  36.277  12.569
44967W        W17227  32.884   8.248  12.838
44968W        W17228  36.996   2.773   3.567
44969W        W17229  38.351   3.489   0.900
44970W        W17230  40.428  27.263  13.475
44971W        W17231  26.064  32.998  13.017
44972W        W17232   4.402   6.817  14.769
44973W        W17233  15.716   5.201  11.402
44974W        W17234  13.094  28.949   1.520
44975W        W17235   8.239  15.837   4.104
44976W        W17236  11.694  44.870   0.719
44977W        W17237  25.617  30.080  12.442
44978W        W17238  36.934  10.465   4.617
44979W        W17239   5.841   2.612  11.954
44980W        W17240  23.294  17.191  14.068
44981W        W17241  42.632  12.780   2.369
44982W        W17242  14.147  33.202  11.088
44983W        W17243  39.575  44.973  12.703
44984W        W17244  32.614  32.867   3.209
44985W        W17245  41.121  14.112   1.755
44986W        W17246   1.806  23.288   1.937
44987W        W17247  44.262  14.343  12.152
44988W        W17248  16.476  39.581  12.517
44989W        W17249  42.575  34.174  13.365
44990W        W17250  21.262  44.175   2.723
44991W        W17251   1.163  23.292   0.424
44992W        W17252  23.766  43.077  10.124
44993W        W17253  21.673  29.130   2.392
44994W        W17254  29.854   8.592   0.914
44995W        W17255  18.336  34.468  14.039
44996W        W17256  30.240  42.475   1.212
44997W        W17257  38.206  17.636  14.863
44998W        W17258   1.747  14.887   0.402
44999W        W17259   9.851  43.956  11.627
45000W        W17260  20.518  38.748   0.381
45001W        W17261  41.483   2.344   3.561
45002W        W17262  10.785   3.954   4.883
45003W        W17263  10.500   5.769   4.919
45004W        W17264  16.060  41.355   1.829
45005W        W17265  34.010  12.629   1.552
45006W        W17266  16.604   1.903  14.983
45007W        W17267  22.652  39.537  10.383
45008W        W17268  22.634  32.870   4.101
45009W        W17269   7.459  40.619  13.647
45010W        W17270  24.062  44.417   0.748
45011W        W17271   4.748   6.918  11.211
45012W        W17272  27.153  33.299  14.473
45013W        W17273   3.268   1.408  10.784
45014W        W17274   9.571   5.906  12.147
45015W        W17275   2.118  18.027   3.597
45016W        W17276  17.819  17.288  10.636
45017W        W17277  39.641  22.710   2.551
45018W        W17278  23.471  41.049   1.291
45019W        W17279  30.537   2.538   3.367
45020W        W17280  10.039  26.229  11.086
45021W        W17281   5.277  35.940   3.731
45022W        W17282  33.830   1.809   4.406
45023W        W17283  38.452  39.566   3.794
45024W        W17284  18.023   4.375  14.816
45025W        W17285  33.684   4.994  14.768
45026W        W17286   3.540  15.430  10.978
45027W        W17287  13.093   8.679  14.244
45028W        W17288  33.700   9.984   0.865
45029W        W17289  25.124  27.609   1.716
45030W        W17290  14.049  31.603   0.440
45031W        W17291   5.166  16.100  10.717
45032W        W17292  30.669  26.578  13.503
45033W        W17293  19.821   7.680   4.496
45034W        W17294  30.000   4.864   2.561
45035W        W17295  13.458   6.198  10.741
45036W        W17296  22.680  12.864   1.681
45037W        W17297  24.496  28.566  14.011
45038W        W17298   3.821   3.260   0.802
45039W        W17299   1.882  29.996  10.849
45040W        W17300  20.050   4.716  14.423
45041W        W17301  25.449  42.372   4.161
45042W        W17302  35.974  29.196   3.542
45043W        W17303  20.088  18.080   3.748
45044W        W17304  12.631  22.502   4.490
45045W        W17305  23.817   0.726  10.831
45046W        W17306  17.557  13.225  14.840
45047W        W17307   6.959  24.245   0.215
45048W        W17308  36.850  44.943  13.483
45049W        W17309   6.270   8.057  14.779
45050W        W17310   5.857  18.844   2.822
45051W        W17311   0.774  22.730   1.822
45052W        W17312  25.645  19.266   2.164
45053W        W17313  24.916  34.499   1.219
45054W        W17314   2.897  22.493  11.112
45055W        W17315  30.444  30.483   4.371
45056W        W17316  41.204   9.230   1.913
45057W        W17317  15.887  26.098   1.658
45058W        W17318  41.842  16.624   2.266
45059W        W17319   4.807  38.800   2.644
45060W        W17320  34.623  19.278   0.558
45061W        W17321  43.492  29.046  10.727
45062W        W17322  15.619   6.250   0.297
45063W        W17323  31.012  19.479  14.763
45064W        W17324   8.714   4.737   2.397
45065W        W17325  22.291  26.018  10.565
45066W        W17326   9.552  17.972  11.644
45067W        W17327  22.788  28.444  14.523
45068W        W17328  10.053  11.315   0.569
45069W        W17329  25.678   1.894  14.268
45070W        W17330  21.096  22.690  12.936
45071W        W17331  40.019  31.109  13.485
45072W        W17332  29.477  41.020   3.608
45073W        W17333  26.635  34.985  11.485
45074W        W17334   3.503  32.137   0.269
45075W        W17335   8.677  20.137  11.632
45076W        W17336  25.642  25.351   2.856
45077W        W17337  15.139  35.599   1.351
45078W        W17338   0.277  41.853   4.450
45079W        W17339   7.171   5.275  12.846
45080W        W17340  24.499  39.799  12.636
45081W        W17341  44.329  35.805  14.973
45082W        W17342   0.759  29.901  12.206
45083W        W17343  18.793  13.108  10.852
45084W        W17344  15.840   8.734  13.398
45085W        W17345  38.532   7.109  10.690
45086W        W17346   0.893  27.582   1.955
45087W        W17347  19.731  19.991  12.939
45088W        W17348  42.425   0.666   1.792
45089W        W17349  32.323  20.548  13.428
45090W        W17350   3.229  15.068  13.094
45091W        W17351  12.569   8.947   1.866
45092W        W17352  17.725   0.481  13.358
45093W        W17353   4.521  22.670   4.645
45094W        W17354  44.719   7.278   0.785
45095W        W17355  44.832  10.747   3.770
45096W        W17356   2.034  21.585  13.781
45097W        W17357  24.254  31.683   1.377
45098W        W17358  42.004  37.192  11.196
45099W        W17359  21.811  33.961   4.268
45100W        W17360   8.461  16.235   3.895
45101W        W17361  40.805  24.972  13.173
45102W        W17362  28.180  41.790   1.923
45103W        W17363  29.761  22.982   3.188
45104W        W17364  32.854  37.281   3.793
45105W        W17365   7.405  44.432   0.455
45106W        W17366  42.254  34.415   4.301
45107W        W17367  40.538  42.573   2.193
45108W        W17368  34.592  16.678   1.864
45109W        W17369  37.816  22.083   1.865
45110W        W17370  32.289  25.987  12.967
45111W        W17371  41.570  25.061   2.766
45112W        W17372  35.051  37.584   0.904
45113W        W17373  34.329  33.419  14.060
45114W        W17374  10.359  27.463   1.191
45115W        W17375  35.151  37.374  13.375
45116W        W17376  41.342   3.267  11.179
45117W        W17377  32.071  19.292  11.932
45118W        W17378  17.658  10.949  11.059
45119W        W17379  38.916  16.957   0.259
45120W        W17380  13.348   2.211   0.967
45121W        W17381  41.046  36.883   4.433
45122W        W17382   2.315   4.204   0.741
45123W        W17383   5.117  12.707   1.106
45124W        W17384  40.863  30.967   2.412
45125W        W17385  12.642  31.319  11.406
45126W        W17386  27.406  41.351   4.202
45127W        W17387  34.280   9.266   4.543
45128W        W17388   4.265   2.769   0.261
45129W        W17389  21.369  20.149  10.539
45130W        W17390  33.471  20.141   0.836
45131W        W17391   1.052   2.423   1.420
45132W        W17392  28.208  43.559  14.506
45133W        W17393  11.668  15.048   2.782
45134W        W17394  18.163   9.191   2.751
45135W        W17395   9.759  16.635   1.815
45136W        W17396  23.448  24.454  13.959
45137W        W17397  25.455  33.406   1.427
45138W        W17398  21.500   1.859   3.764
45139W        W17399  41.446  31.962   1.193
45140W        W17400  30.450   5.739  14.026
45141W        W17401  22.648  15.261   0.795
45142W        W17402  35.148  16.837  13.506
45143W        W17403  40.852   6.152   5.175
45144W        W17404  26.219   4.289   2.823
45145W        W17405  19.136  11.801   1.503
45146W        W17406  23.347   4.865   3.664
45147W        W17407   3.756  34.491   0.392
45148W        W17408  32.457  26.382  11.985
45149W        W17409  27.697  11.623  10.548
45150W        W17410  34.984  44.234  11.643
45151W        W17411   3.475  23.816  14.844
45152W        W17412   1.830   5.778   3.614
45153W        W17413  31.730   7.403  12.078
45154W        W17414  44.454  28.398  14.944
45155W        W17415  28.795  17.280   1.539
45156W        W17416  23.008  34.581   2.314
45157W        W17417  43.376   2.290  10.713
45158W        W17418  37.010  33.348  11.598
45159W        W17419   6.736  27.181   2.913
45160W        W17420  15.213   4.928   0.377
45161W        W17421  19.657  40.732  14.801
45162W        W17422  30.127   5.262   0.545
45163W        W17423  27.016  33.552   2.177
45164W        W17424  35.114  43.815  12.492
45165W        W17425  34.410  42.691  12.081
45166W        W17426   9.597  42.266  11.583
45167W        W17427   3.691  33.475  10.763
45168W        W17428  20.225  13.259  12.553
45169W        W17429  26.320  15.094  12.508
45170W        W17430   2.597   9.455  12.130
45171W        W17431  15.711  41.531   0.820
45172W        W17432  42.788  26.110   4.493
45173W        W17433  32.117  30.440  10.262
45174W        W17434  31.892  40.355   2.162
45175W        W17435   4.683  19.125  12.849
45176W        W17436   7.477   1.924  11.110
45177W        W17437  12.303   2.316  13.596
45178W        W17438  21.322   6.712  11.980
45179W        W17439  29.176  21.522  12.619
45180W        W17440  14.424  38.895  11.419
45181W        W17441  11.313   8.995  11.128
45182W        W17442  29.528  21.671  10.915
45183W        W17443  20.967  33.103   0.789
45184W        W17444   0.970  16.747   1.767
45185W        W17445  14.372  36.100  12.953
45186W        W17446  23.771  43.273   3.633
45187W        W17447  28.320  24.757   2.899
45188W        W17448  41.910   0.336   4.641
45189W        W17449   2.970  16.550  13.959
45190W        W17450   7.228  13.598  13.947
45191W        W17451  29.539  28.597  10.739
45192W        W17452  15.921  38.793   3.220
45193W        W17453  36.972   3.243   4.372
45194W        W17454  29.509  37.484   0.091
45195W        W17455   1.688  28.670  10.727
45196W        W17456  29.859   1.732  14.839
45197W        W17457  12.451  39.804   1.903
45198W        W17458  19.026  34.172   0.457
45199W        W17459  44.205  43.343   2.150
45200W        W17460  13.458  34.802  12.276
45201W        W17461   6.171   4.639   1.462
45202W        W17462  42.399  19.306  14.464
45203W        W17463   6.090  26.756  10.371
45204W        W17464  17.220  26.539   4.109
45205W        W17465  23.180  28.892  12.434
45206W        W17466  32.795  10.578   0.201
45207W        W17467   2.711   9.548  11.227
45208W        W17468  16.720  24.669   2.622
45209W        W17469  14.934   3.395  11.138
45210W        W17470   8.254  10.278  11.532
45211W        W17471  19.327  41.633  10.897
45212W        W17472  28.738  37.029   2.952
45213W        W17473   5.759  21.866   2.212
45214W        W17474   3.188  11.327   0.702
45215W        W17475  12.135  11.221  13.115
45216W        W17476  16.691   7.502  14.488
45217W        W17477  30.221   1.283   1.338
45218W        W17478  16.537  17.586   3.774
45219W        W17479  17.706   8.935   4.379
45220W        W17480   0.885  40.898   0.429
45221W        W17481  18.945  11.435   2.394
45222W        W17482  13.791  38.401  11.001
45223W        W17483  14.109   2.252  13.124
45224W        W17484   0.954  39.562  14.079
45225W        W17485   9.878  11.598   3.640
45226W        W17486  35.045  26.144  11.151
45227W        W17487  10.122   6.928  13.722
45228W        W17488  32.589  43.482   1.793
45229W        W17489   0.008  40.463  14.499
45230W        W17490  20.959  30.592   1.805
45231W        W17491   7.445  11.324   2.330
45232W        W17492   7.592   4.555  12.126
45233W        W17493  22.531   7.753   4.366
45234W        W17494  22.449  15.343   1.300
45235W        W17495  11.330   4.632  12.948
45236W        W17496  12.592  40.300   1.933
45237W        W17497  15.793   1.571   3.668
45238W        W17498  17.641  39.897  12.073
45239W        W17499  14.847  16.145   2.346
45240W        W17500   2.923  33.058  11.676
45241W        W17501  19.323  26.008   3.779
45242W        W17502   2.826   9.392   0.780
45243W        W17503   7.388  34.271   3.463
45244W        W17504  39.585   6.249   0.696
45245W        W17505  17.833  18.237   1.202
45246W        W17506   5.454  39.165  12.865
45247W        W17507  17.616  31.645   1.624
45248W        W17508  17.631  25.723  11.835
45249W        W17509  15.232  13.867  13.719
45250W        W17510  14.685  22.252   3.162
45251W        W17511  16.345  41.898   3.523
45252W        W17512  23.772  24.654  14.316
45253W        W17513  24.000  21.805   1.224
45254W        W17514  31.017  10.844  13.923
45255W        W17515  44.545  15.144   1.943
45256W        W17516  20.086  26.291  14.006
45257W        W17517  33.611  29.972  11.556
45258W        W17518  41.731  33.413   2.211
45259W        W17519  43.801  15.878   3.832
45260W        W17520  20.499  30.844  11.112
45261W        W17521  12.515   4.162   4.680
45262W        W17522  17.666   7.833  12.519
45263W        W17523  25.451  44.263   0.841
45264W        W17524  19.424   7.018   0.812
45265W        W17525   6.791   3.238   0.072
45266W        W17526   7.556  13.636   2.635
45267W        W17527   7.250  25.608   3.698
45268W        W17528  34.502  25.700   4.271
45269W        W17529  21.154   7.644   1.360
45270W        W17530  19.538  22.686   4.198
45271W        W17531   9.234  37.631  10.697
45272W        W17532  39.306  43.332   1.740
45273W        W17533  34.304  38.979  10.865
45274W        W17534  18.421  37.576   1.709
45275W        W17535  17.185  26.593  11.977
45276W        W17536   6.951  35.488  14.070
45277W        W17537  31.930   7.410   1.745
45278W        W17538  15.695  41.991   1.834
45279W        W17539  41.058  11.661  10.823
45280W        W17540  43.150  40.716  13.819
45281W        W17541  44.795   7.171  14.854
45282W        W17542  25.016  27.965   4.618
45283W        W17543   8.627  10.345   4.897
45284W        W17544  11.844  44.440  13.499
45285W        W17545  35.849   6.546   1.248
45286W        W17546  16.843  43.898   0.879
45287W        W17547  13.793  39.542  14.265
45288W        W17548  11.202  31.762  12.035
45289W        W17549  29.482  22.557   3.363
45290W        W17550  19.406  15.586   3.178
45291W        W17551  35.491  41.754   3.958
45292W        W17552  17.703  24.681   4.670
45293W        W17553   3.528  31.061   2.900
45294W        W17554  42.125  39.364   0.825
45295W        W17555  10.284  37.488   1.489
45296W        W17556  10.840  42.760   3.700
45297W        W17557  39.255  18.168   0.837
45298W        W17558   2.187  32.633   3.318
45299W        W17559  20.135  15.111  12.702
45300W        W17560  22.565   3.440  11.622
45301W        W17561  16.765  35.614   4.480
45302W        W17562  23.185   4.231  14.301
45303W        W17563   7.818  32.513   2.138
45304W        W17564  24.069  36.257  12.752
45305W        W17565  12.658   0.695   0.248
45306W        W17566   4.152  38.330  12.902
45307W        W17567  27.588  18.993   2.204
45308W        W17568  18.578  29.436   2.320
45309W        W17569   3.361  14.045   1.903
45310W        W17570   8.770   5.904  14.143
45311W        W17571  14.762  34.386  10.981
45312W        W17572   4.968  11.769  13.860
45313W        W17573   5.003  39.851   4.064
45314W        W17574  33.340  22.023  11.397
45315W        W17575  38.428  34.397  14.322
45316W        W17576  12.751  33.724  12.195
45317W        W17577  43.368  10.456   1.864
45318W        W17578  33.997  23.317  11.050
45319W        W17579  32.534   6.976  11.981
45320W        W17580   2.142  33.381   5.080
45321W        W17581  26.686  17.452  14.195
45322W        W17582  44.977   5.048   2.857
45323W        W17583   1.172  18.061   3.961
45324W        W17584  13.681  25.801  10.650
45325W        W17585  33.926   1.685  10.404
45326W        W17586  37.735  33.267   4.177
45327W        W17587  12.002  35.606  11.572
45328W        W17588  40.388  27.993  14.035
45329W        W17589   5.246  22.123   4.162
45330W        W17590  38.613  37.412   1.421
45331W        W17591  30.460  39.101  13.966
45332W        W17592  37.474  24.638  13.849
45333W        W17593  20.438  11.385  14.586
45334W        W17594  37.564  40.611  10.878
45335W        W17595  36.923  29.863   4.536
45336W        W17596  19.313  26.048   0.242
45337W        W17597  15.538   0.496  13.059
45338W        W17598  23.687  13.727   3.853
45339W        W17599   9.162  44.848  12.286
45340W        W17600  43.194   5.588  12.112
45341W        W17601  38.842  34.472  12.929
45342W        W17602  27.099  14.752  14.018
45343W        W17603  37.673  22.683  10.262
45344W        W17604   5.505   0.859  10.866
45345W        W17605  41.489  16.595  10.694
45346W        W17606  19.495  11.704   2.772
45347W        W17607  27.101  14.712  12.255
45348W        W17608  30.543   1.262  11.145
45349W        W17609  16.703  30.343   0.291
45350W        W17610  35.050  37.586  14.266
45351W        W17611  26.524  26.568   0.062
45352W        W17612  42.380   3.896  13.130
45353W        W17613  23.180  44.250  14.655
45354W        W17614  12.056  33.923  13.943
45355W        W17615  39.879   0.978   2.329
45356W        W17616   6.702   5.341   1.390
45357W        W17617  26.106  43.013   1.742
45358W        W17618  25.319  22.496  12.969
45359W        W17619  26.203  40.867   2.659
45360W        W17620   1.011   1.257  14.392
45361W        W17621   4.472  38.368  11.573
45362W        W17622  31.626  40.085  11.632
45363W        W17623   0.643  36.757  12.449
45364W        W17624  21.221  33.112   3.093
45365W        W17625  43.945  22.695   2.790
45366W        W17626   0.677  36.067   4.108
45367W        W17627  36.431  24.731   2.805
45368W        W17628  16.812  23.480  14.066
45369W        W17629   1.457  27.135  10.606
45370W        W17630  38.658  23.987  13.486
45371W        W17631   0.840   5.216  14.256
45372W        W17632   6.865   5.438   3.129
45373W        W17633  42.630   2.816  10.941
45374W        W17634  32.664  34.166   0.354
45375W        W17635  23.207  16.682  12.363
45376W        W17636  20.236  37.766   1.874
45377W        W17637   0.648  16.142  11.625
45378W        W17638  40.946  20.831  12.430
45379W        W17639  14.281  20.272   2.534
45380W        W17640  10.826   8.420  11.876
45381W        W17641  25.641  41.930  14.905
45382W        W17642   7.130  25.878  12.489
45383W        W17643  32.501  17.033   1.627
45384W        W17644  44.421   7.811   4.486
45385W        W17645   5.310   4.470   2.799
45386W        W17646  20.718  24.686   0.878
45387W        W17647   4.040  23.019   3.091
45388W        W17648  35.384  36.115  11.757
45389W        W17649   6.214  14.990   2.325
45390W        W17650   7.411  21.300   0.761
45391W        W17651  15.469  38.032  12.279
45392W        W17652  35.804   8.772  13.967
45393W        W17653   5.324   4.390   4.867
45394W        W17654  14.801   0.233  14.892
45395W        W17655  36.114  37.393   4.592
45396W        W17656  38.689   9.379  13.196
45397W        W17657  14.751   7.425  11.490
45398W        W17658   1.844  19.100  13.881
45399W        W17659   5.200   9.677  12.031
45400W        W17660  35.564  12.582   0.957
45401W        W17661  15.174  37.107   0.558
45402W        W17662  34.846  43.222  11.705
45403W        W17663  17.396  30.266   3.595
45404W        W17664  38.683  27.922  13.439
45405W        W17665  12.785   1.297   2.424
45406W        W17666  10.703  25.811  14.880
45407W        W17667  27.156   6.922  12.222
45408W        W17668  29.300  33.920  14.377
45409W        W17669  28.918  38.755  11.085
45410W        W17670  13.121  18.753   3.404
45411W        W17671   0.314  29.914  12.510
45412W        W17672   9.682   1.093  14.408
45413W        W17673   3.843  44.200   0.925
45414W        W17674  23.077  27.748   0.993
45415W        W17675  20.663  19.332  12.045
45416W        W17676  23.600  40.471  10.141
45417W        W17677   5.810  39.719  12.042
45418W        W17678  29.278  17.648  11.708
45419W        W17679   1.772  43.504  14.300
45420W        W17680  43.701  41.049  12.051
45421W        W17681   2.428  15.508  10.524
45422W        W17682  19.653   7.425   5.324
45423W        W17683  30.134  29.335  14.194
45424W        W17684  33.950   0.023  11.981
45425W        W17685   2.337  39.625   4.151
45426W        W17686  21.087   1.062  11.598
45427W        W17687  38.984   9.738  10.992
45428W        W17688  28.988  15.601   1.854
45429W        W17689  31.033  26.815   1.692
45430W        W17690   5.686  27.495  11.576
45431W        W17691  32.554  24.089   2.890
45432W        W17692  14.690  27.620   1.967
45433W        W17693  34.152  42.211   2.871
45434W        W17694  24.498  44.057   3.240
45435W        W17695  34.604   4.385   2.788
45436W        W17696  29.522   6.611   4.947
45437W        W17697  17.198  40.397  13.363
45438W        W17698  22.936   9.698  11.185
45439W        W17699  42.900  18.250   1.405
45440W        W17700  27.250  21.670   2.172
45441W        W17701  43.691  10.042   2.000
45442W        W17702  12.210   2.979   4.677
45443W        W17703  13.359  36.643  14.502
45444W        W17704  42.713  28.363   3.589
45445W        W17705  37.834  25.682  14.738
45446W        W17706   8.729   8.263   2.202
45447W        W17707  31.404   8.322  10.765
45448W        W17708  35.871  16.394  13.858
45449W        W17709  20.742   6.695  14.908
45450W        W17710   8.428  38.637   3.719
45451W        W17711  18.931  32.001   2.909
45452W        W17712  30.936  17.909  11.126
45453W        W17713  30.653   9.708   1.718
45454W        W17714   1.368  33.101   4.550
45455W        W17715  25.952  22.471   4.596
45456W        W17716   3.409  40.624   4.531
45457W        W17717   4.844  26.039  12.025
45458W        W17718  15.555  17.690  10.661
45459W        W17719   1.474  29.463   0.772
45460W        W17720  15.162   8.748   0.834
45461W        W17721  38.016  11.670   1.208
45462W        W17722   8.093  31.528   2.669
45463W        W17723  41.978  22.554  14.641
45464W        W17724  33.908   2.341   4.238
45465W        W17725  39.297  23.477   3.247
45466W        W17726  37.755  38.797   4.576
45467W        W17727  38.438  32.572   1.810
45468W        W17728  12.923   0.390   1.621
45469W        W17729  18.267   7.083   0.006
45470W        W17730  10.823  36.875   4.428
45471W        W17731  40.729  43.415   2.107
45472W        W17732  23.235  44.951   3.307
45473W        W17733   9.412   2.483  11.412
45474W        W17734  19.206  30.047  14.746
45475W        W17735   1.738  19.091  12.826
45476W        W17736  28.653  28.673  12.814
45477W        W17737   6.271  11.369  13.041
45478W        W17738  34.491   3.009   2.690
45479W        W17739  15.772   5.040  14.470
45480W        W17740  14.481  35.047   5.347
45481W        W17741  43.011  27.180   4.136
45482W        W17742  15.975  20.582  14.394
45483W        W17743   7.651  43.216  12.013
45484W        W17744  32.940  43.987  12.932
45485W        W17745  37.372   2.288  12.914
45486W        W17746  12.955   9.462   4.266
45487W        W17747  30.945  33.717   4.935
45488W        W17748  41.956  21.350   4.971
45489W        W17749  28.755   5.096   1.634
45490W        W17750  38.988   7.137   2.913
45491W        W17751  27.162  40.760   2.811
45492W        W17752  24.406  25.919   3.484
45493W        W17753  22.535  44.725  12.467
45494W        W17754   7.950  24.158  12.027
45495W        W17755  27.694  24.576   0.189
45496W        W17756  34.511  32.825   1.791
45497W        W17757  30.676  23.211  13.083
45498W        W17758  20.323  16.990  12.538
45499W        W17759  30.885  43.611  14.846
45500W        W17760   2.770  29.616  10.719
45501W        W17761  35.519  22.642  14.419
45502W        W17762   6.693   2.698   4.106
45503W        W17763  16.808  12.640   2.779
45504W        W17764  38.377  32.630  13.764
45505W        W17765  30.235  18.342  11.059
45506W        W17766  43.701   8.664   3.791
45507W        W17767  11.459   0.761  13.010
45508W        W17768  31.032   6.938  11.591
45509W        W17769  20.547  13.726   3.864
45510W        W17770  44.036  39.676  14.022
45511W        W17771  43.671  38.955  11.091
45512W        W17772   4.218   8.680  13.986
45513W        W17773  36.876  12.461  11.940
45514W        W17774  13.628  44.749   1.931
45515W        W17775  15.710  30.156   4.038
45516W        W17776   2.957  25.497  12.362
45517W        W17777  22.166   8.771   2.699
45518W        W17778  33.413   9.682  12.612
45519W        W17779  20.824  39.974  11.557
45520W        W17780  15.721  10.246   5.272
45521W        W17781  19.713  31.942  10.673
45522W        W17782  10.712  19.288   2.627
45523W        W17783   5.239   2.972   4.229
45524W        W17784  27.438   3.481   2.722
45525W        W17785  13.736  37.410  13.445
45526W        W17786  43.262   5.227  14.003
45527W        W17787   3.699  11.575  14.883
45528W        W17788   6.835   8.801   3.735
45529W        W17789  26.900   3.376   0.818
45530W        W17790   8.279  28.114  10.795
45531W        W17791  41.835  43.221  10.591
45532W        W17792  16.855  26.670  11.017
45533W        W17793  10.131   7.330  11.986
45534W        W17794  19.041   7.211   1.773
45535W        W17795   0.967  28.026   1.721
45536W        W17796   3.732  16.641   4.130
45537W        W17797  16.364   4.484   1.815
45538W        W17798  44.405  32.675   1.313
45539W        W17799  33.505  16.541   1.884
45540W        W17800  39.646  41.961   1.950
45541W        W17801  29.322  16.060   2.239
45542W        W17802  38.912   7.843   2.240
45543W        W17803  21.143  32.863   2.630
45544W        W17804  26.050  34.136   0.841
45545W        W17805  32.664  38.936   3.727
45546W        W17806  23.876  19.560   4.177
45547W        W17807  16.093  25.253   3.206
45548W        W17808  15.032  12.394  12.615
45549W        W17809  14.419  39.613  14.945
45550W        W17810  43.798  30.628   3.695
45551W        W17811  17.587  34.923  13.391
45552W        W17812  24.707  34.151  11.601
45553W        W17813   6.862  24.706   4.677
45554W        W17814   5.658  12.736   0.516
45555W        W17815  38.247  11.869   2.736
45556W        W17816  33.784   1.289  12.468
45557W        W17817  31.659  11.131   2.724
45558W        W17818  43.582   4.437   4.460
45559W        W17819  22.209  33.036   0.336
45560W        W17820  36.054  15.836   4.896
45561W        W17821  22.769   1.151   4.516
45562W        W17822  33.359  25.038   2.657
45563W        W17823  23.562   9.744   0.911
45564W        W17824  32.277  35.399   4.912
45565W        W17825  27.563  27.707  12.356
45566W        W17826  15.626  20.045  11.957
45567W        W17827  16.746   7.628  10.728
45568W        W17828  12.314  30.377  11.529
45569W        W17829  23.308  18.624   0.507
45570W        W17830  10.939  20.684   1.559
45571W        W17831  41.576  17.719  13.996
45572W        W17832  39.285  12.354   1.281
45573W        W17833   6.948  18.026  10.665
45574W        W17834  39.349  30.595  11.229
45575W        W17835  39.753   7.271  11.937
45576W        W17836  32.935  25.388  14.692
45577W        W17837   5.457   6.991  14.352
45578W        W17838  27.168  19.619  12.450
45579W        W17839  23.912  34.367   1.203
45580W        W17840   9.450  32.414   2.779
45581W        W17841   0.052   0.258   1.811
45582W        W17842  25.772   9.195  11.144
45583W        W17843  12.841  17.111  14.065
45584W        W17844  24.123  31.138  14.991
45585W        W17845  35.202  13.379  11.589
45586W        W17846   5.525  27.237  14.296
45587W        W17847  40.958   1.855  14.174
45588W        W17848  37.544  26.740   0.353
45589W        W17849  34.258  26.174   4.137
45590W        W17850   3.579  32.287  10.791
45591W        W17851  15.380  19.501  12.803
45592W        W17852   1.983  18.135   1.227
45593W        W17853  14.122  32.302   4.137
45594W        W17854  14.094   6.803  10.973
45595W        W17855  18.683   9.429   5.012
45596W        W17856  39.411   2.964   4.182
45597W        W17857  32.062  20.568  14.812
45598W        W17858  42.481  19.741   0.106
45599W        W17859   6.465  32.059   3.161
45600W        W17860   5.757  30.476  14.354
45601W        W17861  31.242  18.707   3.170
45602W        W17862  29.525  44.975  13.185
45603W        W17863  13.392  19.255   2.753
45604W        W17864  43.152   3.442  12.055
45605W        W17865   3.305   7.953  11.661
45606W        W17866   6.617  21.149  10.535
45607W        W17867  21.940   8.365  11.687
45608W        W17868  17.212  37.438  13.470
45609W        W17869  37.000   0.037   3.039
45610W        W17870   0.305  27.178   1.470
45611W        W17871  13.291   8.199  14.020
45612W        W17872  27.578  15.727   1.331
45613W        W17873  29.455  33.995  12.502
45614W        W17874  28.603  26.223   4.638
45615W        W17875  17.034   2.239  12.048
45616W        W17876  11.579  29.901   4.827
45617W        W17877  12.738   7.939   4.175
45618W        W17878  25.693  21.839  10.637
45619W        W17879   5.832  18.678   1.316
45620W        W17880  40.062  35.313   0.701
45621W        W17881  36.855  19.245   1.148
45622W        W17882  26.539  34.006   0.678
45623W        W17883  16.833  36.221  11.975
45624W        W17884  20.701  29.690  14.928
45625W        W17885  24.912  31.006  14.442
45626W        W17886  37.393  11.370  11.944
45627W        W17887  32.517   9.704   2.384
45628W        W17888   9.615  22.374   2.550
45629W        W17889  24.493   3.313   1.476
45630W        W17890  43.974  30.012   4.456
45631W        W17891  20.696  34.028   1.830
45632W        W17892  14.211  24.270  12.861
45633W        W17893  42.352  12.581   0.310
45634W        W17894  44.276  34.405   3.701
45635W        W17895  19.623  34.705   4.193
45636W        W17896  12.306  14.319   5.094
45637W        W17897  23.514   2.173   4.734
45638W        W17898  41.122  30.897   4.974
45639W        W17899  22.284  16.783  13.372
45640W        W17900   3.959  17.276   3.780
45641W        W17901  44.077  16.346   1.551
45642W        W17902  14.843  22.290  10.261
45643W        W17903  33.443  34.453   0.229
45644W        W17904  18.098  10.109   3.214
45645W        W17905  39.557  18.052  11.934
45646W        W17906  22.606  29.488  11.888
45647W        W17907  15.819  26.679   0.314
45648W        W17908  26.296  43.538   0.369
45649W        W17909  32.067  32.901  10.644
45650W        W17910   1.771   2.009  11.481
45651W        W17911  30.419   3.044   4.577
45652W        W17912  40.871  34.614  13.355
45653W        W17913   9.838  11.920  13.473
45654W        W17914   8.348  21.512   4.175
45655W        W17915  17.832  33.655   1.615
45656W        W17916  21.738  36.937  13.819
45657W        W17917  34.281  37.418  10.705
45658W        W17918  27.902   0.647  12.473
45659W        W17919  29.973  39.309  14.643
45660W        W17920  33.610  24.067  11.368
45661W        W17921   6.469   0.410   0.774
45662W        W17922  32.699  12.309  11.140
45663W        W17923   6.302  10.180   3.657
45664W        W17924  23.961  10.343   1.296
45665W        W17925  39.964  35.148  12.910
45666W        W17926  14.406   0.384  13.948
45667W        W17927  43.397  41.545  10.758
45668W        W17928  35.591   9.307   0.537
45669W        W17929  39.987  31.117  10.715
45670W        W17930  28.010  32.910   0.725
45671W        W17931   2.166  35.337   4.207
45672W        W17932  22.598  20.442  13.458
45673W        W17933  33.353   2.297   5.018
45674W        W17934   8.450  43.208   3.716
45675W        W17935  39.833  21.531  10.734
45676W        W17936  40.049   6.377   2.799
45677W        W17937  13.133  13.036   1.349
45678W        W17938   2.047  15.628  14.984
45679W        W17939  44.003   5.598  12.727
45680W        W17940  18.456  41.760  10.708
45681W        W17941  14.174  26.924  14.888
45682W        W17942  13.918  28.744  12.618
45683W        W17943   5.635  23.195   0.409
45684W        W17944  10.132  24.056  12.990
45685W        W17945  43.382  13.454   3.647
45686W        W17946  39.844  43.474   4.454
45687W        W17947  15.458   6.659  14.382
45688W        W17948  20.001   4.391  14.862
45689W        W17949  40.410  24.043   4.560
45690W        W17950  26.468  14.722   1.430
45691W        W17951  39.627  40.309  12.578
45692W        W17952   3.886   9.705   4.555
45693W        W17953  26.269  39.230   3.785
45694W        W17954  37.001   9.289   3.876
45695W        W17955  27.138   5.358   2.439
45696W        W17956  15.464  13.257  11.929
45697W        W17957  28.004  39.502  14.703
45698W        W17958  16.246  16.105   0.873
45699W        W17959  40.215  23.600   0.854
45700W        W17960  29.181  33.566  10.646
45701W        W17961  14.783  20.470   2.471
45702W        W17962   3.572  42.450   4.808
45703W        W17963  25.450  39.859   1.726
45704W        W17964   5.762  31.437  14.340
45705W        W17965  21.231  41.057   0.359
45706W        W17966   1.422  37.445   4.635
45707W        W17967  21.099  10.676  12.244
45708W        W17968  40.305  38.034  10.752
45709W        W17969  21.117   0.576   4.531
45710W        W17970  26.056   4.170   0.235
45711W        W17971  14.760  14.585  12.900
45712W        W17972  15.052   6.876  13.412
45713W        W17973  32.587   1.331  10.893
45714W        W17974   8.681  19.369   3.577
45715W        W17975  16.111   2.519   0.352
45716W        W17976  22.660  18.049   3.128
45717W        W17977  11.686   0.007  13.612
45718W        W17978  35.145   0.536   3.044
45719W        W17979  18.146  27.865   1.847
45720W        W17980  42.745   8.197   3.085
45721W        W17981  32.833  20.295   2.691
45722W        W17982   1.696  35.181   4.091
45723W        W17983   1.049  17.118  13.830
45724W        W17984  31.104  23.502  13.032
45725W        W17985   2.230  21.189  11.102
45726W        W17986  15.157  31.202   3.316
45727W        W17987   2.336  11.242   4.180
45728W        W17988  30.187  31.925   1.366
45729W        W17989  15.813  43.893   2.182
45730W        W17990  25.450  12.454   2.814
45731W        W17991   7.651  19.896   5.008
45732W        W17992  43.086  43.382  13.429
45733W        W17993  39.112  36.777  10.649
45734W        W17994  17.308  31.261  11.409
45735W        W17995  12.627  31.969   3.722
45736W        W17996  17.098  13.363  11.005
45737W        W17997  23.999  11.349  11.621
45738W        W17998  41.762  42.736  10.773
45739W        W17999   0.254  24.248  12.518
45740W        W18000  37.090  13.341  14.031
45741W        W18001  34.571  23.433   2.605
45742W        W18002   0.163   2.519  14.485
45743W        W18003   8.427  10.710   4.551
45744W        W18004  24.694  33.332  11.969
45745W        W18005   0.840  11.182   2.460
45746W        W18006  25.220  23.167   4.825
45747W        W18007  34.880  23.718   1.250
45748W        W18008   9.104  25.559   1.310
45749W        W18009  42.856   9.739   2.332
45750W        W18010  30.660  13.679   4.102
45751W        W18011   2.725  19.069   2.195
45752W        W18012  13.607  29.442   0.592
45753W        W18013  19.804   1.902   2.074
45754W        W18014   7.345  21.944   0.052
45755W        W18015  16.629  28.562   3.647
45756W        W18016  41.728  16.851  11.622
45757W        W18017  35.271   1.385   0.402
45758W        W18018  10.128  22.204   0.393
45759W        W18019  13.357  40.215   4.110
45760W        W18020   0.936  33.711   5.023
45761W        W18021  35.237  32.084   3.667
45762W        W18022  44.070  40.166   1.889
45763W        W18023  23.470  30.255  10.341
45764W        W18024  30.569   6.439  11.160
45765W        W18025  33.976  25.595  11.949
45766W        W18026  19.074  22.639  12.009
45767W        W18027   9.132  28.078  13.533
45768W        W18028   2.180  36.815  11.634
45769W        W18029  35.564  16.072  13.527
45770W        W18030  12.704  28.967  12.159
45771W        W18031  27.626  40.975  13.463
45772W        W18032  16.280  37.874   3.151
45773W        W18033   3.226   7.097   3.630
45774W        W18034   1.640  39.561   4.582
45775W        W18035   0.056  30.825  11.118
45776W        W18036  13.007   0.488  10.716
45777W        W18037  23.046  14.709  14.210
45778W        W18038   6.476  16.227   4.672
45779W        W18039  36.379  10.943  11.066
45780W        W18040   1.890  37.114  11.973
45781W        W18041  40.776  18.296  12.442
45782W        W18042   4.759  21.070   1.849
45783W        W18043   4.472  23.226   2.206
45784W        W18044  39.265   3.154  11.982
45785W        W18045  23.476   5.328   4.769
45786W        W18046  33.105  19.560   5.005
45787W        W18047  39.524  43.500   3.131
45788W        W18048  11.852  42.069   1.365
45789W        W18049  22.004  25.780   5.486
45790W        W18050  28.674  43.309  11.669
45791W        W18051   1.488  38.469  12.949
45792W        W18052  25.974   9.321  14.057
45793W        W18053  33.837  30.425   2.049
45794W        W18054  11.025   6.848  13.771
45795W        W18055   6.987  17.037   0.335
45796W        W18056   4.950  12.451  11.879
45797W        W18057  36.893  20.395  11.218
45798W        W18058  44.195  17.046   1.873
45799W        W18059   6.253  10.457   0.936
45800W        W18060  32.598  40.709   2.158
45801W        W18061   3.441  24.941  13.143
45802W        W18062  38.504  16.034   1.278
45803W        W18063   0.511   3.673   2.674
45804W        W18064  35.661   3.943   2.812
45805W        W18065  28.599  11.232  12.904
45806W        W18066   7.358   7.250  11.109
45807W        W18067  32.424   6.247   4.542
45808W        W18068  27.278  42.491   2.460
45809W        W18069  23.139  32.554  13.737
45810W        W18070  35.923   8.589  11.466
45811W        W18071  40.546  32.906  11.412
45812W        W18072  34.580   1.972  12.610
45813W        W18073  44.346  24.911  14.048
45814W        W18074  35.999  39.652  11.106
45815W        W18075  11.318  18.641   4.205
45816W        W18076  35.567   5.451  11.263
45817W        W18077  23.749  21.220   1.242
45818W        W18078  40.876  28.911  12.967
45819W        W18079  13.652  25.095  14.933
45820W        W18080  22.242  43.007  11.979
45821W        W18081  30.071   8.132  12.191
45822W        W18082  27.406  22.501   0.324
45823W        W18083   9.455  30.254   4.975
45824W        W18084  40.353  21.064   4.176
45825W        W18085  22.097  17.150  14.345
45826W        W18086  20.649  13.059  12.878
45827W        W18087  33.634  44.373  13.368
45828W        W18088  41.872  31.648  13.531
45829W        W18089  44.559  15.294   2.965
45830W        W18090  16.090  11.073  14.248
45831W        W18091   1.156  32.650   0.389
45832W        W18092  42.461  27.698   4.156
45833W        W18093  43.062  11.119   0.244
45834W        W18094   1.623  20.156   0.878
45835W        W18095   2.673  27.909   1.426
45836W        W18096  30.843  44.008  14.460
45837W        W18097  31.549  36.084  13.985
45838W        W18098  18.471  40.322  14.566
45839W        W18099  42.272   7.436   3.673
45840W        W18100  33.350  44.306   4.183
45841W        W18101  35.931  40.969   3.268
45842W        W18102  34.556  21.223  13.958
45843W        W18103   9.790  39.412  13.228
45844W        W18104  34.304  19.224  11.638
45845W        W18105  20.725  35.634  12.049
45846W        W18106  22.485  44.205   4.551
45847W        W18107   9.962   5.331  14.403
45848W        W18108  44.733  18.473  14.318
45849W        W18109  35.502  20.140  11.405
45850W        W18110  42.835  14.294  10.786
45851W        W18111  14.827  22.578   3.601
45852W        W18112  24.064  36.307   1.909
45853W        W18113  34.341  37.512   0.783
45854W        W18114  38.836  33.589   0.673
45855W        W18115  40.312  27.345   4.370
45856W        W18116  21.765  36.052  13.362
45857W        W18117   0.242  11.687   1.902
45858W        W18118  15.692  28.450   1.721
45859W        W18119  33.035  31.101   2.050
45860W        W18120   7.373  11.910   4.094
45861W        W18121  38.163  18.729  11.068
45862W        W18122  18.220  21.319   1.752
45863W        W18123  20.225   6.086  12.432
45864W        W18124  40.648  14.362   4.897
45865W        W18125   2.386  26.690  11.176
45866W        W18126  33.494   1.393   0.900
45867W        W18127  41.217  35.161  12.507
45868W        W18128  21.254  33.434   2.272
45869W        W18129  28.406  28.913   4.244
45870W        W18130  38.594  41.057   3.461
45871W        W18131  18.997  10.532   0.359
45872W        W18132  18.550  15.661   4.308
45873W        W18133  42.636  24.739   2.169
45874W        W18134  21.316  21.146   9.788
45875W        W18135  25.986  36.483   1.830
45876W        W18136  37.743  16.735   2.825
45877W        W18137  10.182  41.396  10.923
45878W        W18138  34.218  36.548   1.133
45879W        W18139  18.201  16.752  13.854
45880W        W18140  39.766  20.647  10.772
45881W        W18141  17.577  30.584  12.529
45882W        W18142  19.869   8.865  12.349
45883W        W18143  37.680  23.530   2.037
45884W        W18144  17.656  35.587   3.438
45885W        W18145  24.028  24.168  11.376
45886W        W18146  32.116   4.222  14.109
45887W        W18147  39.015   0.470  13.829
45888W        W18148  12.619  19.009   3.199
45889W        W18149  25.557  20.056   4.765
45890W        W18150  31.542   5.202   3.358
45891W        W18151  40.625  21.549  13.384
45892W        W18152  24.767   1.272   0.970
45893W        W18153  21.843   8.709   1.524
45894W        W18154   7.313  28.812  14.827
45895W        W18155   4.608  23.721   2.166
45896W        W18156  10.291  31.009   3.648
45897W        W18157  17.238   3.103   4.617
45898W        W18158  41.160  21.743  12.493
45899W        W18159  22.227  17.273   4.377
45900W        W18160  15.072  13.742  10.666
45901W        W18161  29.913  23.861  13.330
45902W        W18162  35.081  31.398  11.414
45903W        W18163  15.692  37.552   3.669
45904W        W18164  39.581  22.550  13.870
45905W        W18165  12.142  30.370   1.121
45906W        W18166   1.148   3.322   3.196
45907W        W18167  28.144   4.853  13.362
45908W        W18168   3.857   0.528   0.311
45909W        W18169   3.959  42.398  11.667
45910W        W18170  35.588  33.977  12.116
45911W        W18171  33.994  30.439  10.834
45912W        W18172  31.427   7.820  11.422
45913W        W18173  36.086  42.524  14.453
45914W        W18174  28.135  14.680  13.564
45915W        W18175  29.699   0.503   1.385
45916W        W18176  37.472  27.135  13.094
45917W        W18177  10.349  25.096  14.361
45918W        W18178   5.297  36.393   3.200
45919W        W18179  22.661  43.672   4.639
45920W        W18180  44.112  23.241  14.006
45921W        W18181   5.826   1.523  12.433
45922W        W18182  31.946  32.573  12.367
45923W        W18183  40.992   7.346  11.163
45924W        W18184  34.381  38.056   4.142
45925W        W18185  40.454   3.343   0.013
45926W        W18186  21.233  31.990   3.568
45927W        W18187   3.938  23.927  12.559
45928W        W18188   1.690  11.782   0.757
45929W        W18189  30.487  20.115   3.744
45930W        W18190  31.723  29.743   3.129
45931W        W18191  39.487  13.638   1.288
45932W        W18192  19.253  12.261  11.163
45933W        W18193  25.682   5.007   2.052
45934W        W18194  17.772  18.389   0.300
45935W        W18195  39.736  17.348  14.112
45936W        W18196  36.658  10.689   3.551
45937W        W18197  35.475   9.736  12.908
45938W        W18198  22.986  26.147  11.952
45939W        W18199   6.451   9.799  12.750
45940W        W18200   3.016   3.187   1.242
45941W        W18201   7.984  41.961  14.320
45942W        W18202  18.217  24.298  11.620
45943W        W18203   2.870  39.787   2.153
45944W        W18204  41.301  27.776  13.560
45945W        W18205  29.100  29.518   2.892
45946W        W18206  44.078  43.970  12.034
45947W        W18207  34.968  29.828  13.386
45948W        W18208   6.323   2.557   2.271
45949W        W18209  34.176  22.963  10.745
45950W        W18210   4.345   9.191  14.025
45951W        W18211  39.532  38.498   2.544
45952W        W18212   1.995  16.047   3.802
45953W        W18213  14.417  20.979  10.816
45954W        W18214  35.560  22.410  12.099
45955W        W18215   1.842  42.338  10.735
45956W        W18216   2.168   1.917  14.950
45957W        W18217  38.307   7.413   1.709
45958W        W18218  28.441  24.891   3.394
45959W        W18219  12.329  16.072   2.289
45960W        W18220  21.222  36.900  11.223
45961W        W18221  30.882  10.209  11.551
45962W        W18222   9.251  40.564   4.693
45963W        W18223   0.914   3.142  10.133
45964W        W18224  11.444  13.846   1.501
45965W        W18225  13.281  13.637  12.335
45966W        W18226  32.354  36.568  13.784
45967W        W18227   7.800  24.692   1.700
45968W        W18228   4.860  14.033  14.943
45969W        W18229  18.787  30.080   0.738
45970W        W18230   8.349  33.927  11.260
45971W        W18231   3.842  42.387  14.051
45972W        W18232  40.803  43.529  12.479
45973W        W18233  39.785   6.109  11.429
45974W        W18234  31.908  34.344   1.674
45975W        W18235  13.279  12.621  13.988
45976W        W18236  15.953  12.220   4.842
45977W        W18237   0.807  41.476   3.660
45978W        W18238  44.002  17.679  13.881
45979W        W18239  38.367  43.853   3.878
45980W        W18240  19.581  26.419   3.235
45981W        W18241  17.536   0.016   3.746
45982W        W18242   6.710  27.314  14.686
45983W        W18243  22.416   4.605   1.211
45984W        W18244  40.629   8.202   3.726
45985W        W18245  22.435   8.149  14.855
45986W        W18246  24.029  39.817  10.610
45987W        W18247   8.877  41.256  11.159
45988W        W18248  29.552  38.739   3.161
45989W        W18249  36.822   0.150   2.423
45990W        W18250  13.719  38.510   4.162
45991W        W18251  33.502  38.295  13.581
45992W        W18252   4.601  29.104   3.835
45993W        W18253  10.401  38.747  11.883
45994W        W18254  40.384  35.647   4.881
45995W        W18255  25.973   2.306  14.335
45996W        W18256  44.896  38.940  13.011
45997W        W18257  42.036  16.637  14.271
45998W        W18258   8.700   0.211   1.324
45999W        W18259  19.781  11.648   0.935
46000W        W18260   9.447  24.181  13.838
46001W        W18261  32.189  43.032   3.836
46002W        W18262  28.108   6.660  13.108
46003W        W18263  31.226   2.770   3.342
46004W        W18264  30.391   1.913   3.879
46005W        W18265   9.129   4.414   1.605
46006W        W18266  30.549   9.715  14.503
46007W        W18267  44.678  34.296   0.350
46008W        W18268  14.054  24.707  11.576
46009W        W18269  37.964  43.720   0.111
46010W        W18270  36.656  20.665   0.911
46011W        W18271  15.630  30.054  13.286
46012W        W18272  20.493  13.751  12.428
46013W        W18273  39.279  20.020   0.917
46014W        W18274  18.845  40.169   0.955
46015W        W18275  10.281  15.621   2.565
46016W        W18276  34.517  14.234   4.846
46017W        W18277  34.839  24.727   1.512
46018W        W18278  40.696  20.159   1.386
46019W        W18279  25.576   7.328   0.793
46020W        W18280   0.767   8.283  13.008
46021W        W18281  16.627  33.195   4.680
46022W        W18282  41.878   9.807  10.662
46023W        W18283  34.457  23.075  13.264
46024W        W18284  41.685  43.087   4.119
46025W        W18285  39.621  18.839   1.244
46026W        W18286  13.841  40.590  14.357
46027W        W18287  27.597  34.228  10.669
46028W        W18288  43.361   1.475  10.954
46029W        W18289  39.920  32.427  12.092
46030W        W18290  18.726  42.715   1.656
46031W        W18291   8.872   3.232   3.805
46032W        W18292  20.238  41.250  12.639
46033W        W18293  25.581   4.224   1.990
46034W        W18294  26.538  28.208  12.446
46035W        W18295  31.477  42.475  10.830
46036W        W18296  16.744  43.009  14.969
46037W        W18297   9.714   9.827  13.352
46038W        W18298  44.072  27.332  11.170
46039W        W18299  27.479  36.641  13.087
46040W        W18300  43.838  28.684  13.361
46041W        W18301  12.069  24.955  10.950
46042W        W18302  32.144  24.802  12.444
46043W        W18303  28.378  42.015  11.097
46044W        W18304  31.366  24.814  11.177
46045W        W18305  38.267   3.387  11.960
46046W        W18306  19.313  23.157   4.238
46047W        W18307  41.015  13.824   1.333
46048W        W18308  31.694  44.297  14.342
46049W        W18309  31.053  18.851  14.587
46050W        W18310  41.939  33.555   2.836
46051W        W18311  41.482  27.701   1.727
46052W        W18312  43.906  38.825  14.321
46053W        W18313  10.848  13.366  14.700
46054W        W18314  27.551  16.807  12.176
46055W        W18315   8.118   3.880  10.971
46056W        W18316  36.569  24.189   3.577
46057W        W18317   5.659   8.530   4.112
46058W        W18318  43.788  25.646   3.894
46059W        W18319  24.584   0.864  14.891
46060W        W18320  43.716  41.691  11.159
46061W        W18321  35.939  14.666   3.392
46062W        W18322  31.398  13.785   2.750
46063W        W18323  42.348  20.542   3.149
46064W        W18324   5.954  40.083   2.550
46065W        W18325  29.107  11.373  14.299
46066W        W18326  14.650  28.207   0.294
46067W        W18327   4.716  44.919  13.097
46068W        W18328  25.552  18.628   0.770
46069W        W18329  12.931  42.857  14.977
46070W        W18330   0.925  25.653   1.879
46071W        W18331  31.181  36.800  11.583
46072W        W18332  25.265  44.259   1.640
46073W        W18333   0.054  21.767   2.864
46074W        W18334  26.503   6.311  14.277
46075W        W18335  31.781  44.836  14.983
46076W        W18336  17.494  22.924  12.540
46077W        W18337  10.921  37.031  13.917
46078W        W18338  43.947   8.848   3.362
46079W        W18339  25.209  27.970   3.218
46080W        W18340  44.959  28.162   4.543
46081W        W18341  39.000  10.385  11.435
46082W        W18342  25.013   8.905   2.708
46083W        W18343  36.756  16.127  13.954
46084W        W18344  40.585  37.007   3.969
46085W        W18345  44.849  43.459  10.478
46086W        W18346  42.485  40.591  12.539
46087W        W18347  31.454  10.882   3.273
46088W        W18348  14.657  38.804   1.925
46089W        W18349   4.226  22.206   4.583
46090W        W18350  35.308   1.822  11.949
46091W        W18351  29.690  20.111  13.936
46092W        W18352  38.742  37.367   3.813
46093W        W18353  31.983  15.385   1.683
46094W        W18354  12.311   3.188   4.175
46095W        W18355  20.448   2.248  11.915
46096W        W18356   9.822  16.827   0.933
46097W        W18357  33.526  20.599   0.186
46098W        W18358  30.794  10.342   0.862
46099W        W18359  17.100   4.875  11.942
46100W        W18360  34.619   7.088   4.140
46101W        W18361   0.675   2.791  11.782
46102W        W18362  10.909  24.179   4.291
46103W        W18363   2.697   9.838   4.712
46104W        W18364  18.156  32.922  12.587
46105W        W18365  44.046   0.412   1.897
46106W        W18366   1.184  44.946  14.525
46107W        W18367  22.205  24.492   2.738
46108W        W18368  41.093  17.486  11.921
46109W        W18369   0.495  11.700   0.045
46110W        W18370  12.135  18.777   4.243
46111W        W18371  25.167   9.732  14.303
46112W        W18372   5.120  12.543   4.136
46113W        W18373   3.870  40.899  12.503
46114W        W18374  14.107  25.907  12.302
46115W        W18375   6.868  11.638  14.217
46116W        W18376  16.226   7.648   2.913
46117W        W18377   7.489   9.178  14.241
46118W        W18378  12.178   5.884  13.872
46119W        W18379  12.168  24.767  13.610
46120W        W18380   3.053  37.071   3.781
46121W        W18381  25.636  15.664   1.677
46122W        W18382   4.883  33.091   1.580
46123W        W18383  35.105  16.329  13.494
46124W        W18384  19.201  43.514   2.786
46125W        W18385  34.474   9.733   4.698
46126W        W18386  35.540  14.276   4.646
46127W        W18387  17.687  33.674   0.730
46128W        W18388  12.647  39.004   1.800
46129W        W18389  11.760  41.624   1.625
46130W        W18390  42.766  24.954   3.904
46131W        W18391  30.622  39.084  11.616
46132W        W18392  44.859  10.855   1.741
46133W        W18393  37.362   5.818  14.316
46134W        W18394  30.439  44.306   3.680
46135W        W18395  19.722  37.383  14.974
46136W        W18396  18.825  29.736  14.562
46137W        W18397  22.532  34.373  11.424
46138W        W18398  15.531  31.977   0.975
46139W        W18399  21.650  12.765   2.536
46140W        W18400  30.460  41.447  11.612
46141W        W18401   8.818  24.669   0.881
46142W        W18402   5.160  37.036   2.557
46143W        W18403  36.713  28.709  14.838
46144W        W18404  19.370   3.099   2.362
46145W        W18405  37.565  19.302   4.391
46146W        W18406   3.719  44.291   3.653
46147W        W18407  21.074  35.927  12.487
46148W        W18408   9.403  17.491   1.951
46149W        W18409  33.809   1.790   0.409
46150W        W18410  28.424  23.007  12.027
46151W        W18411   2.766  16.221   0.301
46152W        W18412  39.623  42.433   2.243
46153W        W18413  33.665  12.895  13.164
46154W        W18414  31.391  15.600   4.074
46155W        W18415   1.445   5.005  10.936
46156W        W18416  16.140  37.463   3.438
46157W        W18417  19.844  24.751  10.674
46158W        W18418  29.161   8.884  14.445
46159W        W18419  10.359  43.344   0.327
46160W        W18420  43.732   5.304   3.298
46161W        W18421   7.128  29.971  13.519
46162W        W18422  43.950  23.589   0.837
46163W        W18423  26.437  26.625  14.575
46164W        W18424   0.568  39.580  13.403
46165W        W18425  12.324  20.606   4.596
46166W        W18426  38.365  17.533   2.714
46167W        W18427  32.017  14.219  13.679
46168W        W18428  37.573  30.726   4.521
46169W        W18429  40.147  42.024  14.831
46170W        W18430  30.294  24.662  11.961
46171W        W18431   3.143  16.121  11.440
46172W        W18432  14.840   8.286  14.786
46173W        W18433   1.718  39.550  11.046
46174W        W18434  37.643  33.457  13.305
46175W        W18435  37.929   2.222   0.488
46176W        W18436  35.500  41.810  14.546
46177W        W18437  10.151  22.941  13.886
46178W        W18438  22.117  22.019  11.662
46179W        W18439   1.002   2.384   4.723
46180W        W18440  33.801  14.178  13.439
46181W        W18441   9.849   3.568  12.718
46182W        W18442   5.619  23.051   3.612
46183W        W18443  20.659  14.680  11.727
46184W        W18444   4.322   2.137   2.586
46185W        W18445   8.688  11.394   5.056
46186W        W18446   2.387   3.195  11.514
46187W        W18447  30.972  14.060  13.608
46188W        W18448  24.298  34.435  12.537
46189W        W18449  13.304  22.467  14.544
46190W        W18450   3.453  11.748   4.137
46191W        W18451  26.939  35.446   3.717
46192W        W18452  28.619  33.403   0.001
46193W        W18453  11.302  39.283  10.832
46194W        W18454  21.492  32.978   2.153
46195W        W18455  19.823  19.936  10.789
46196W        W18456  22.159  33.873  13.036
46197W        W18457   6.366  11.857   4.168
46198W        W18458  22.442  18.738  14.990
46199W        W18459  26.480  34.457   0.950
46200W        W18460  33.700  41.749   5.348
46201W        W18461  30.671  15.360   0.880
46202W        W18462  22.382  29.205   0.484
46203W        W18463  34.919   7.201   3.281
46204W        W18464  17.998   3.431  14.808
46205W        W18465  20.228  40.607   2.690
46206W        W18466  25.240  10.081   0.079
46207W        W18467  27.928  33.675  12.118
46208W        W18468  27.780  26.450   4.535
46209W        W18469   8.007  41.975  13.366
46210W        W18470   3.302  44.858   1.475
46211W        W18471   5.012  28.376   3.235
46212W        W18472  24.744  34.118  12.421
46213W        W18473  42.013   2.841  13.590
46214W        W18474  12.736  11.094   2.691
46215W        W18475  23.099  18.815   1.772
46216W        W18476  31.488   6.832  14.800
46217W        W18477   3.287  31.394  11.235
46218W        W18478  32.443  37.503  11.563
46219W        W18479  12.636   4.726  13.677
46220W        W18480  31.936   7.893   4.503
46221W        W18481  13.273  34.197  14.296
46222W        W18482  13.468  12.724   4.395
46223W        W18483  20.218  37.843  12.905
46224W        W18484   3.459  36.138   3.340
46225W        W18485  20.791  44.968  12.862
46226W        W18486  32.025  13.725   1.514
46227W        W18487   2.444  11.216  14.803
46228W        W18488  38.552   5.583   3.220
46229W        W18489  27.437  38.803  14.738
46230W        W18490  22.126  16.073   2.339
46231W        W18491  14.977  18.708   4.905
46232W        W18492   4.023   1.160  12.977
46233W        W18493   2.897  41.793   1.313
46234W        W18494  32.004   1.649   3.397
46235W        W18495  29.502   9.707   4.600
46236W        W18496   2.686  17.517  12.025
46237W        W18497  23.519  16.259  12.718
46238W        W18498  16.360   4.976   1.500
46239W        W18499  26.228  28.066  14.376
46240W        W18500  10.949  33.135  11.120
46241W        W18501  25.463   6.354   2.182
46242W        W18502   8.962  17.295   0.363
46243W        W18503   4.314   2.697  13.760
46244W        W18504  36.461  32.520  12.500
46245W        W18505  39.487   0.217   2.743
46246W        W18506   3.697   5.726  12.552
46247W        W18507   6.816  37.928   1.507
46248W        W18508  38.825  11.472   4.655
46249W        W18509  39.068   8.667   1.258
46250W        W18510  23.690  43.559  12.020
46251W        W18511  13.650   1.681   3.701
46252W        W18512  38.602  29.540  12.617
46253W        W18513  33.650  17.787  12.033
46254W        W18514  31.896  33.960   2.381
46255W        W18515  38.464  28.348  13.181
46256W        W18516  12.074  15.813  12.451
46257W        W18517  34.105  25.234  10.621
46258W        W18518  25.713  13.428  14.484
46259W        W18519  32.467  41.705   2.202
46260W        W18520  19.027  21.779   3.276
46261W        W18521   2.249  25.035   1.209
46262W        W18522  37.273  21.518  11.386
46263W        W18523  12.737  40.913   3.429
46264W        W18524  11.336  15.644  11.511
46265W        W18525  25.040  26.979   0.422
46266W        W18526  44.547  21.695   2.935
46267W        W18527  13.230  43.415  14.329
46268W        W18528  26.599  27.236  14.410
46269W        W18529   1.522  14.633   2.330
46270W        W18530  39.376  26.668  11.362
46271W        W18531  31.961  11.289   1.715
46272W        W18532   2.750  39.374  14.008
46273W        W18533  25.746   0.454  11.549
46274W        W18534  20.063  22.720  14.387
46275W        W18535  37.765  12.922   3.558
46276W        W18536   0.744   9.087   2.341
46277W        W18537  13.866  10.749  12.793
46278W        W18538  19.296  18.752   0.879
46279W        W18539  23.642   6.349   3.905
46280W        W18540   7.711   1.995   0.388
46281W        W18541  31.551  25.726   0.418
46282W        W18542   3.481  33.928  11.988
46283W        W18543  40.742  23.645  10.257
46284W        W18544   2.238  39.702  14.883
46285W        W18545  17.781  30.606   3.604
46286W        W18546   3.207   0.009   3.130
46287W        W18547  15.344   8.834   3.175
46288W        W18548  33.923  12.325   2.970
46289W        W18549  37.246  18.576  14.697
46290W        W18550  12.140  33.511   4.601
46291W        W18551   6.643  22.130   3.833
46292W        W18552   2.876  29.453   0.565
46293W        W18553  17.597  40.753   1.806
46294W        W18554  23.158  34.861  12.961
46295W        W18555  22.483  38.583   2.336
46296W        W18556   3.652  32.123   1.163
46297W        W18557  35.541  19.227   4.501
46298W        W18558  20.097  39.506   1.235
46299W        W18559  22.543  39.525  13.796
46300W        W18560   6.182  29.871   2.470
46301W        W18561  30.992  22.493  13.082
46302W        W18562  35.562   1.389   4.533
46303W        W18563  28.212  12.162   1.843
46304W        W18564  42.328  36.834   2.346
46305W        W18565  38.923  14.064  11.041
46306W        W18566   2.361  25.649  11.369
46307W        W18567   7.410   3.679   3.768
46308W        W18568  41.805  42.038  13.968
46309W        W18569   6.275  29.522  10.009
46310W        W18570  23.458  44.317   4.601
46311W        W18571  20.774  18.369   2.439
46312W        W18572  19.090  32.141  13.064
46313W        W18573   3.813  31.690   1.868
46314W        W18574   1.798  16.368   0.611
46315W        W18575  10.292  14.061  13.525
46316W        W18576  15.096  12.137   2.787
46317W        W18577  18.556  16.042  11.756
46318W        W18578  38.361   9.699  10.698
46319W        W18579  20.968  14.612  10.883
46320W        W18580   2.399  36.121  13.687
46321W        W18581  36.334  12.504  13.427
46322W        W18582  15.727  44.579   3.842
46323W        W18583  12.925   5.434   3.564
46324W        W18584  10.268  39.567  12.504
46325W        W18585  23.143  41.632   4.906
46326W        W18586  38.486   7.490   2.337
46327W        W18587  33.015  14.009  12.535
46328W        W18588  23.654   2.722  12.872
46329W        W18589  21.077   7.509   2.879
46330W        W18590  35.510  13.656  13.304
46331W        W18591  31.329   1.239  14.049
46332W        W18592   9.430  25.959   1.134
46333W        W18593  35.100  17.430  12.912
46334W        W18594  18.581  26.442  13.897
46335W        W18595  24.028   1.083   3.026
46336W        W18596   6.672  20.515  14.321
46337W        W18597   4.108   5.908   4.001
46338W        W18598  24.676  26.206  11.781
46339W        W18599  34.726   6.073   9.835
46340W        W18600  27.238   6.446  14.789
46341W        W18601  40.423  15.181  14.988
46342W        W18602  18.015  21.183  12.412
46343W        W18603  38.047  18.623   3.455
46344W        W18604  16.972   9.812  11.884
46345W        W18605  41.675  16.841   2.897
46346W        W18606  31.085  43.570  14.332
46347W        W18607   9.193   2.200   1.723
46348W        W18608   7.262  30.457  13.521
46349W        W18609   4.797  10.906   3.857
46350W        W18610  40.228   0.214  10.679
46351W        W18611  38.883   4.008  12.141
46352W        W18612  23.725  22.202   4.192
46353W        W18613   8.161  24.462  11.665
46354W        W18614   7.881  19.147   4.649
46355W        W18615  21.807   2.210  12.938
46356W        W18616   5.230  44.923   1.159
46357W        W18617  26.108  31.200   1.195
46358W        W18618  38.032  23.726  11.516
46359W        W18619   0.814   1.917   4.527
46360W        W18620   5.882  31.496   1.752
46361W        W18621  21.198  14.806   2.621
46362W        W18622  30.146  31.908  11.217
46363W        W18623  30.114  33.369   1.291
46364W        W18624  15.259  38.277  14.180
46365W        W18625  35.025   8.195  11.617
46366W        W18626   0.888  33.529   0.979
46367W        W18627  26.082   2.790   3.138
46368W        W18628  27.310  28.089   4.217
46369W        W18629   4.921  15.260   1.310
46370W        W18630   8.301   7.547  14.884
46371W        W18631   2.780  13.585  10.738
46372W        W18632  43.217  41.424  12.010
46373W        W18633   9.236  32.906  13.889
46374W        W18634  40.503  39.440  10.631
46375W        W18635  23.199  16.084   1.818
46376W        W18636  39.922  21.630  12.057
46377W        W18637  40.560  13.817   2.350
46378W        W18638  37.075  42.777   1.675
46379W        W18639  16.856  41.123  14.437
46380W        W18640  19.581  29.352   4.203
46381W        W18641  31.760  26.393   9.983
46382W        W18642   2.448   2.949  11.041
46383W        W18643   3.416  19.642  14.538
46384W        W18644  21.810   8.565   4.823
46385W        W18645   1.948  17.740   0.881
46386W        W18646  23.303  34.359   3.583
46387W        W18647  39.363  43.500  10.890
46388W        W18648  18.044  13.369   1.240
46389W        W18649  10.863  39.935   3.302
46390W        W18650  40.564  24.657  14.104
46391W        W18651  13.265  10.868  11.270
46392W        W18652  13.695  16.505   9.667
46393W        W18653  30.678  12.656   1.828
46394W        W18654  15.109  18.695   2.661
46395W        W18655  25.211  12.370  13.928
46396W        W18656  36.094  34.404  14.552
46397W        W18657  21.357  30.969   0.032
46398W        W18658  22.132  19.000   2.303
46399W        W18659  10.161  42.565  14.793
46400W        W18660  43.186  27.607   1.220
46401W        W18661   4.887  39.888   1.209
46402W        W18662  14.304  30.385  13.428
46403W        W18663  35.650  31.525   2.018
46404W        W18664   7.175  10.227   4.612
46405W        W18665  42.441  15.873  14.087
46406W        W18666  35.855  21.461  10.279
46407W        W18667  34.352  20.308   4.631
46408W        W18668  26.021  42.666   5.146
46409W        W18669  30.372   0.280  12.998
46410W        W18670  13.357  42.484  14.355
46411W        W18671  13.018   5.142  12.405
46412W        W18672   9.719  41.356  11.129
46413W        W18673  29.694  31.462  11.850
46414W        W18674   0.637  16.608  14.282
46415W        W18675  36.658  28.417   2.902
46416W        W18676  27.678  19.098  11.501
46417W        W18677  40.963  35.608   3.309
46418W        W18678   5.324  42.375  12.882
46419W        W18679  18.269  17.049   2.667
46420W        W18680   7.297  26.913  14.962
46421W        W18681   7.910  36.438   3.953
46422W        W18682  36.823   6.261   2.123
46423W        W18683  25.597  28.588   4.774
46424W        W18684  30.182  19.165   2.833
46425W        W18685  37.434  14.294   1.292
46426W        W18686   4.291  42.764   1.207
46427W        W18687  29.557  14.665   1.444
46428W        W18688  17.510  36.860  13.122
46429W        W18689  32.611  42.447  10.652
46430W        W18690  23.785  22.340   2.695
46431W        W18691  33.323  16.340   3.716
46432W        W18692   3.854  24.036   4.271
46433W        W18693   7.886  37.346   3.068
46434W        W18694  31.941   1.890  13.468
46435W        W18695  27.622  25.433   0.620
46436W        W18696  36.383   7.699  13.339
46437W        W18697  44.790  26.992   0.698
46438W        W18698  28.026   9.634   3.455
46439W        W18699   8.591  12.112   3.430
46440W        W18700  32.084  24.226   1.785
46441W        W18701  34.973  14.717  12.757
46442W        W18702  27.763  26.293  13.515
46443W        W18703  11.775  23.091   3.859
46444W        W18704  18.699  23.221  13.946
46445W        W18705  29.559  41.225   1.887
46446W        W18706  12.616   3.487   3.866
46447W        W18707  41.516  40.141   4.185
46448W        W18708  26.948  31.041   0.320
46449W        W18709  36.378  24.768   1.353
46450W        W18710  44.888  17.399   0.349
46451W        W18711   6.672  25.154  13.547
46452W        W18712  40.047   0.392   0.284
46453W        W18713  44.977  37.901  13.004
46454W        W18714  37.233   8.042   3.592
46455W        W18715  41.938  27.113  13.751
46456W        W18716  10.148  20.035  13.044
46457W        W18717  35.996   2.515   0.541
46458W        W18718  12.821  41.320   4.316
46459W        W18719  15.727  27.987   3.042
46460W        W18720  31.915  42.415  11.116
46461W        W18721  29.430  40.039   2.291
46462W        W18722  34.843  13.424   2.690
46463W        W18723  44.044  13.226  13.844
46464W        W18724   8.301  30.734   2.097
46465W        W18725  28.547  41.317  14.087
46466W        W18726  43.609  17.321  13.841
46467W        W18727  33.684  38.629  11.831
46468W        W18728  38.733   9.764   2.393
46469W        W18729  36.555   5.072   9.969
46470W        W18730  27.844  31.837  10.966
46471W        W18731  41.261   8.592   3.721
46472W        W18732  44.010   2.774  10.853
46473W        W18733  42.009   5.617   4.781
46474W        W18734  23.949  26.228  12.343
46475W        W18735  14.062  30.879  11.895
46476W        W18736  25.145   6.185  13.949
46477W        W18737  38.822  17.034  12.162
46478W        W18738  26.025  27.923   3.227
46479W        W18739  14.622  17.507  10.457
46480W        W18740   4.854  27.126   2.367
46481W        W18741   1.675  15.405  10.881
46482W        W18742  11.234  30.263   1.253
46483W        W18743   5.025   4.324  10.217
46484W        W18744  43.982  40.963   2.329
46485W        W18745  36.950  25.122   3.064
46486W        W18746  22.125  18.104   1.915
46487W        W18747  43.988  40.282   0.323
46488W        W18748  33.328  33.511   3.281
46489W        W18749  30.215  20.714  11.968
46490W        W18750  39.448  23.255  13.464
46491W        W18751   9.849  36.485  11.160
46492W        W18752  39.099  43.352  12.874
46493W        W18753  40.383   3.433   1.463
46494W        W18754  36.584  13.233  12.556
46495W        W18755  28.480  43.521  14.026
46496W        W18756  43.514  41.943  14.943
46497W        W18757   0.078  40.110   1.316
46498W        W18758  19.766   1.973  14.886
46499W        W18759  31.299  36.750   0.649
46500W        W18760  36.669  18.751   3.753
46501W        W18761   0.899  38.566   1.404
46502W        W18762  38.785  10.931   4.076
46503W        W18763  22.070  41.700   2.658
46504W        W18764  35.500   9.864  13.999
46505W        W18765  24.171  23.180   2.475
46506W        W18766   4.226  18.286  11.662
46507W        W18767  16.303  10.034   0.880
46508W        W18768  21.622  14.135  14.869
46509W        W18769  34.480   6.723   0.964
46510W        W18770  30.487  25.984  14.995
46511W        W18771  29.553  36.366   3.636
46512W        W18772  34.795  16.515  10.659
46513W        W18773  20.193  19.234   0.751
46514W        W18774  14.863  29.982   0.140
46515W        W18775  18.505  36.963  10.973
46516W        W18776   8.712  41.036   0.700
46517W        W18777  31.890  40.801  11.039
46518W        W18778  14.284   9.251   3.192
46519W        W18779  41.311  31.608  13.926
46520W        W18780  26.887  16.282  12.962
46521W        W18781  16.687  44.529  14.692
46522W        W18782  12.703  40.770  13.086
46523W        W18783  32.387  29.772  11.985
46524W        W18784  12.917  44.794   2.255
46525W        W18785   2.490  44.989   1.821
46526W        W18786  14.158  16.362  13.413
46527W        W18787  44.989  17.061  11.626
46528W        W18788  12.637  31.106   1.821
46529W        W18789  27.089   5.798   2.142
46530W        W18790   6.355  10.424  12.066
46531W        W18791  40.746  27.612   4.556
46532W        W18792  28.474  25.994  13.896
46533W        W18793  28.692  23.245   2.266
46534W        W18794   0.774   0.280   2.317
46535W        W18795  24.634  33.095  11.500
46536W        W18796  27.528   2.955   1.252
46537W        W18797  22.169  36.962  11.150
46538W        W18798  32.280   0.968   1.633
46539W        W18799  33.525   3.999  10.096
46540W        W18800  28.238  43.280  10.260
46541W        W18801  10.109   9.175  12.353
46542W        W18802  14.752  44.375   0.996
46543W        W18803  41.498  21.344  14.371
46544W        W18804   6.206  29.979   1.439
46545W        W18805  38.851  33.163   9.924
46546W        W18806  16.034  15.011  14.396
46547W        W18807  25.217  33.994  11.570
46548W        W18808  29.444  42.317  10.692
46549W        W18809  21.057   6.010   4.609
46550W        W18810  25.707  31.441   1.609
46551W        W18811   7.989  19.778  13.346
46552W        W18812   6.369  12.576  10.660
46553W        W18813  27.888  42.055   9.969
46554W        W18814  39.307   3.674  13.903
46555W        W18815  34.446  10.581  12.519
46556W        W18816   7.952  42.826   5.005
46557W        W18817  33.028  34.908   4.410
46558W        W18818  11.825  12.250   1.434
46559W        W18819  41.836  31.780  11.996
46560W        W18820  27.945   2.636   2.963
46561W        W18821  38.414  28.219  12.144
46562W        W18822  39.734  41.211   1.785
46563W        W18823   8.548  33.104   2.826
46564W        W18824   5.917   8.391  14.935
46565W        W18825   9.977  17.326  11.025
46566W        W18826  25.523  40.270  12.881
46567W        W18827   4.787   0.881   2.301
46568W        W18828  36.383  12.171  14.971
46569W        W18829  30.734  16.988   4.598
46570W        W18830   5.422  14.654   1.153
46571W        W18831  21.267   9.533   4.050
46572W        W18832  41.678  10.783   2.196
46573W        W18833  28.488  30.896  13.416
46574W        W18834  10.135  24.113   2.180
46575W        W18835  37.088   1.962   2.328
46576W        W18836  33.132  29.916   4.104
46577W        W18837  38.134   0.331   0.805
46578W        W18838  25.704   8.421   3.884
46579W        W18839  29.566   8.886   3.256
46580W        W18840  41.316  31.861  11.979
46581W        W18841  10.131  11.299  11.624
46582W        W18842  30.792  41.877  11.668
46583W        W18843  26.652  38.023  12.991
46584W        W18844  41.488  26.583  10.622
46585W        W18845  23.074  19.591   1.288
46586W        W18846   8.175  13.891   3.257
46587W        W18847  23.954  15.525  13.587
46588W        W18848   6.708  32.693  11.253
46589W        W18849   6.311  11.828  12.055
46590W        W18850  39.008  30.249  13.337
46591W        W18851  25.189  44.485   2.680
46592W        W18852  40.081   5.223  11.576
46593W        W18853  37.368   9.807  12.491
46594W        W18854  33.197  22.416  11.099
46595W        W18855  39.979  32.486   4.134
46596W        W18856  41.438   7.503   0.850
46597W        W18857   6.720  37.128   3.779
46598W        W18858   6.458  21.336  10.047
46599W        W18859  26.176  32.956   2.066
46600W        W18860  12.298   7.659   4.170
46601W        W18861   7.728  36.398  12.028
46602W        W18862  34.511   6.326  12.645
46603W        W18863  34.588  30.909   2.339
46604W        W18864  17.992  43.683  11.813
46605W        W18865  18.338   8.865   0.269
46606W        W18866   3.392  32.146  13.388
46607W        W18867  30.035   1.057   1.781
46608W        W18868  26.465  27.503   2.371
46609W        W18869   6.064  24.788  12.008
46610W        W18870  15.268  35.371  13.697
46611W        W18871  20.885   2.819  14.801
46612W        W18872  14.615  28.429   5.114
46613W        W18873  19.239  33.938  12.333
46614W        W18874  24.990  29.177   4.330
46615W        W18875  34.473  18.035  11.919
46616W        W18876   5.291  19.284   2.829
46617W        W18877  12.331  22.198  13.753
46618W        W18878  24.964  19.214   3.010
46619W        W18879   4.374  36.523   0.014
46620W        W18880   9.321   7.954   0.389
46621W        W18881  20.909  31.599   3.716
46622W        W18882  42.178  32.663  14.687
46623W        W18883  15.214   0.478  10.969
46624W        W18884  34.401  28.920  11.049
46625W        W18885  16.625  30.848  11.160
46626W        W18886  26.123  41.807  13.601
46627W        W18887   5.759   9.565   4.099
46628W        W18888  32.409   8.594   4.313
46629W        W18889   0.913  22.630   3.260
46630W        W18890  27.322  35.920   4.965
46631W        W18891   8.883  25.760   1.799
46632W        W18892  18.764  31.385   0.800
46633W        W18893  44.325   6.985   1.509
46634W        W18894  37.186  20.658   5.202
46635W        W18895   7.209   4.663   2.865
46636W        W18896   6.734  16.250  10.933
46637W        W18897   3.495  20.230   0.026
46638W        W18898   5.256  35.126  14.098
46639W        W18899  13.581  14.852  10.309
46640W        W18900  43.419  20.285   4.879
46641W        W18901  19.961  16.346   0.396
46642W        W18902   2.308  23.737   3.731
46643W        W18903  42.049  12.058  10.756
46644W        W18904  22.800  18.742   4.624
46645W        W18905  31.987  32.034  12.097
46646W        W18906  36.064  15.194   2.677
46647W        W18907  16.099  16.321   2.781
46648W        W18908  15.121  21.473  13.896
46649W        W18909   0.433  30.912   3.833
46650W        W18910  40.165  32.061   4.487
46651W        W18911   2.885  14.217   2.177
46652W        W18912  20.803  16.609   3.115
46653W        W18913  12.946  16.604  14.042
46654W        W18914  30.886  17.574  11.539
46655W        W18915  37.401  36.640  13.377
46656W        W18916  14.235   3.252   2.252
46657W        W18917  17.889  33.143  13.555
46658W        W18918  24.218   8.765  11.508
46659W        W18919   3.359  38.533   3.997
46660W        W18920  43.926  38.667  12.079
46661W        W18921  22.417  27.025   1.854
46662W        W18922  14.936  19.726   5.026
46663W        W18923  13.189  30.640   2.690
46664W        W18924  24.527  39.035   0.221
46665W        W18925  37.762  43.869   2.800
46666W        W18926   6.344   6.331   4.841
46667W        W18927  16.814  28.740  12.993
46668W        W18928  12.398   6.330  13.072
46669W        W18929  23.008  19.684  11.217
46670W        W18930   3.434  25.723  14.778
46671W        W18931   0.389  40.489   2.873
46672W        W18932  20.056  37.928   2.766
46673W        W18933  27.677  31.068  12.483
46674W        W18934  32.358  35.162   3.131
46675W        W18935   0.780  41.461   1.441
46676W        W18936   2.875  26.042  14.054
46677W        W18937   4.640  44.695   5.075
46678W        W18938  30.456  18.866   0.128
46679W        W18939  42.061   8.690  12.532
46680W        W18940  31.099  12.240   3.857
46681W        W18941  16.634  24.120  11.138
46682W        W18942   3.897  15.824   4.621
46683W        W18943  11.296  28.690   1.381
46684W        W18944  26.933  15.314   5.030
46685W        W18945  44.391  28.977   3.688
46686W        W18946  13.106  25.697   0.347
46687W        W18947   1.365  26.136  12.363
46688W        W18948  43.833  33.324   0.885
46689W        W18949  30.407  42.922  12.951
46690W        W18950  27.750  15.856  12.598
46691W        W18951   5.214  39.279   0.436
46692W        W18952  35.578   3.161  13.413
46693W        W18953  32.456  35.514  14.933
46694W        W18954   8.342  41.486  10.432
46695W        W18955   7.300  34.107  11.161
46696W        W18956  37.638  31.976   0.394
46697W        W18957   9.220  20.563  14.071
46698W        W18958   0.866  36.079   3.625
46699W        W18959  23.177  31.664  11.117
46700W        W18960   9.677  44.221  13.792
46701W        W18961  22.100  22.351  12.045
46702W        W18962  22.659  44.488   4.103
46703W        W18963  34.948  42.047  11.844
46704W        W18964  19.612  13.836   0.844
46705W        W18965  44.900  36.559   4.135
46706W        W18966  12.712  21.738   1.578
46707W        W18967  15.819  14.758   4.046
46708W        W18968   0.161  28.383   1.779
46709W        W18969  14.319   2.949   0.938
46710W        W18970  13.327  17.708   2.457
46711W        W18971   3.652   8.800   3.752
46712W        W18972  30.585  18.701   2.400
46713W        W18973  41.532  25.731  12.503
46714W        W18974  36.018  16.288   0.670
46715W        W18975  39.402  29.635   0.754
46716W        W18976  24.521   5.871  12.532
46717W        W18977  14.080  32.317   2.809
46718W        W18978  39.688  32.996  12.560
46719W        W18979  12.289  29.416  10.576
46720W        W18980  18.698  34.410  10.982
46721W        W18981  36.813  20.260   2.099
46722W        W18982  10.328  23.247  13.479
46723W        W18983  14.582  32.514  13.321
46724W        W18984  29.978   5.152  11.239
46725W        W18985  11.081  21.661   0.971
46726W        W18986  35.592  18.146   0.146
46727W        W18987  14.803  12.603   1.978
46728W        W18988  42.565  13.741  10.904
46729W        W18989   6.594  36.185   4.796
46730W        W18990  42.960  13.072   1.902
46731W        W18991  31.796  16.120  12.467
46732W        W18992  21.115   9.874   0.329
46733W        W18993  31.594  43.580  14.227
46734W        W18994  15.811   5.334  14.039
46735W        W18995  42.992  36.226  10.902
46736W        W18996  22.204  31.004   0.847
46737W        W18997  21.386  10.584   1.518
46738W        W18998  21.159  31.972  12.054
46739W        W18999  25.920   7.231  14.246
46740W        W19000  11.558  11.100  14.879
46741W        W19001  41.257  14.237   0.365
46742W        W19002  40.750  26.670   3.526
46743W        W19003   9.401  19.749   0.357
46744W        W19004  36.525  41.629   2.398
46745W        W19005  31.954   9.147  11.576
46746W        W19006  38.228  24.711  11.392
46747W        W19007  34.086   8.589  11.943
46748W        W19008  12.632  34.813  13.932
46749W        W19009  13.082  26.195   0.492
46750W        W19010  19.807  22.088   0.385
46751W        W19011   3.497  18.865   3.698
46752W        W19012  43.111  30.621  13.612
46753W        W19013  17.753  33.077   2.119
46754W        W19014  12.164  43.349   3.149
46755W        W19015  32.482  23.137   0.527
46756W        W19016  11.344  39.034  11.299
46757W        W19017   5.653  27.523  13.863
46758W        W19018  32.627  38.600  13.941
46759W        W19019  15.732   3.304   2.917
46760W        W19020  42.384  27.467  11.217
46761W        W19021  31.687  21.679  12.480
46762W        W19022  43.620  29.605   3.723
46763W        W19023   7.452  21.712   3.685
46764W        W19024   3.306  41.772  10.717
46765W        W19025  38.242   9.328  13.429
46766W        W19026  44.685   5.303  10.944
46767W        W19027  25.793  15.253  11.519
46768W        W19028  42.356  43.950  10.670
46769W        W19029  14.246  32.477   1.988
46770W        W19030  40.350  34.052   1.843
46771W        W19031  44.725  13.393  12.943
46772W        W19032  20.158  27.049   0.894
46773W        W19033  43.808  44.424  12.262
46774W        W19034  33.610   5.510   2.170
46775W        W19035  21.311  30.499   3.167
46776W        W19036  11.389  31.455   3.920
46777W        W19037  19.648  33.442  10.498
46778W        W19038  35.459  11.860  13.013
46779W        W19039  11.126  42.906  11.045
46780W        W19040   1.910  21.102  14.638
46781W        W19041  16.773   1.763   4.253
46782W        W19042   3.378   1.340   4.497
46783W        W19043  11.615  30.392   0.455
46784W        W19044  38.440   8.267   4.626
46785W        W19045  40.846   5.139  13.893
46786W        W19046  23.566   3.446   2.161
46787W        W19047  10.241  10.436   0.411
46788W        W19048  10.545  20.978   2.753
46789W        W19049  41.873  34.867   2.196
46790W        W19050  10.110   2.047  12.028
46791W        W19051  22.995  29.122  11.965
46792W        W19052  18.657  25.784   1.808
46793W        W19053   4.729  34.036  11.573
46794W        W19054   8.999  16.826   1.265
46795W        W19055  18.146  14.183  14.340
46796W        W19056  14.641  16.670   0.923
46797W        W19057   7.627  25.590  11.779
46798W        W19058  17.373   2.891   0.711
46799W        W19059   5.663  41.369   0.469
46800W        W19060   1.311   5.686  13.432
46801W        W19061  32.567  20.429  14.862
46802W        W19062  12.840  39.501   2.501
46803W        W19063  35.444  40.704  14.027
46804W        W19064  20.311   7.303   2.360
46805W        W19065   0.679   5.914   3.071
46806W        W19066  33.847   9.121   1.420
46807W        W19067  34.877  38.107   0.814
46808W        W19068  44.805  17.487  14.544
46809W        W19069  34.061   0.236   3.351
46810W        W19070  41.533  23.646  13.261
46811W        W19071  31.558   2.682  10.558
46812W        W19072  44.928  16.247  10.405
46813W        W19073   9.766   2.182   2.310
46814W        W19074  44.226  40.032   3.157
46815W        W19075   6.287  35.938  12.523
46816W        W19076  18.830   6.898  14.972
46817W        W19077  39.269  20.020  13.129
46818W        W19078  16.703  24.968  11.148
46819W        W19079  42.438  16.776  14.945
46820W        W19080  39.456   8.880  10.660
46821W        W19081   9.598  21.254   3.091
46822W        W19082  14.644  32.994   2.599
46823W        W19083   5.824   6.133  14.556
46824W        W19084  42.503  13.066   2.940
46825W        W19085  28.651  20.174  11.294
46826W        W19086  28.361  20.650   0.402
46827W        W19087  16.288  42.908  14.760
46828W        W19088  25.115   4.819  13.604
46829W        W19089  13.824  22.411  12.185
46830W        W19090  13.299  39.597  13.245
46831W        W19091   4.828  37.561   0.401
46832W        W19092  34.816  12.082  12.044
46833W        W19093  31.047   0.250  13.949
46834W        W19094  30.214  18.542   0.502
46835W        W19095  19.799  13.907   2.274
46836W        W19096  10.510  33.508   0.629
46837W        W19097  31.091  30.297   3.277
46838W        W19098  33.793  36.266   1.248
46839W        W19099  39.412  31.865  14.201
46840W        W19100  23.690  41.127   1.767
46841W        W19101   6.603  28.059   3.265
46842W        W19102  41.986  15.759   1.910
46843W        W19103   9.376  27.598  13.437
46844W        W19104  15.837  39.394  12.032
46845W        W19105  24.402  36.035   2.868
46846W        W19106  27.080  17.002  12.206
46847W        W19107  22.799   6.864  12.018
46848W        W19108   5.913  34.473  13.087
46849W        W19109  27.952   5.790   1.751
46850W        W19110  17.404  29.464  14.531
46851W        W19111  40.071  39.136  10.602
46852W        W19112   9.033   1.096  12.517
46853W        W19113  34.890  32.019  13.398
46854W        W19114   0.423  19.701   2.702
46855W        W19115  30.579  26.166  11.094
46856W        W19116   5.275  14.595  11.000
46857W        W19117  44.147  19.427   2.191
46858W        W19118  16.652   7.287  13.911
46859W        W19119  40.407  34.380  13.122
46860W        W19120  20.946   0.394   3.087
46861W        W19121   3.726  39.610   4.556
46862W        W19122  23.413  38.865  11.922
46863W        W19123  13.489  41.180  13.024
46864W        W19124  25.624  25.746  12.934
46865W        W19125  37.966  26.181  14.746
46866W        W19126  12.511  33.437   3.184
46867W        W19127  18.624  18.957  11.970
46868W        W19128  16.690  33.686   0.940
46869W        W19129   2.858   3.002   2.902
46870W        W19130  41.093  16.441  10.350
46871W        W19131  28.182  24.250  11.028
46872W        W19132  34.654  23.071  13.745
46873W        W19133  21.106   9.130   3.747
46874W        W19134  17.394   9.280   4.721
46875W        W19135   9.926  19.525   1.195
46876W        W19136  35.042  17.134   1.019
46877W        W19137  36.485   1.672   0.866
46878W        W19138  28.929  35.109   2.308
46879W        W19139  27.501  37.828  12.550
46880W        W19140   2.913  39.868  12.458
46881W        W19141   8.888   3.433  11.667
46882W        W19142  17.017  14.986   4.650
46883W        W19143  26.197   4.411   1.841
46884W        W19144  43.504  16.629  13.395
46885W        W19145   6.777  34.991  11.555
46886W        W19146  28.432  37.752   1.402
46887W        W19147  13.228  17.546  12.883
46888W        W19148  21.556  40.066  12.842
46889W        W19149  17.186  28.469  11.042
46890W        W19150  32.236  15.326   0.776
46891W        W19151  28.584  12.060   0.359
46892W        W19152   3.147  17.258   4.201
46893W        W19153  20.023  16.101   3.608
46894W        W19154   2.383  37.962   3.220
46895W        W19155  43.274   2.151  13.631
46896W        W19156   4.168   7.872  12.816
46897W        W19157  10.773  24.573  11.784
46898W        W19158  11.461  15.684   4.134
46899W        W19159  36.031  31.735   0.374
46900W        W19160  31.917  24.663  11.970
46901W        W19161  19.505  14.729   4.461
46902W        W19162  16.231  27.104   0.529
46903W        W19163  19.355  20.733  13.995
46904W        W19164   5.802  23.990  13.289
46905W        W19165   2.166  28.159  13.042
46906W        W19166   8.884   0.858   3.661
46907W        W19167  43.502   8.185   4.259
46908W        W19168  12.864  29.642   3.770
46909W        W19169  29.533  41.875  14.851
46910W        W19170  33.716  21.088   0.821
46911W        W19171  31.650  37.343  12.592
46912W        W19172  32.649  31.523   1.805
46913W        W19173  11.682  40.869  14.813
46914W        W19174  25.600  36.409  10.762
46915W        W19175   0.032   8.266   1.974
46916W        W19176  11.154  42.302   4.582
46917W        W19177  10.702  41.917   1.962
46918W        W19178  33.100   3.025   3.416
46919W        W19179   2.837  23.214   4.756
46920W        W19180   0.341  11.712  12.634
46921W        W19181  32.335  26.603   3.575
46922W        W19182  13.674   5.485  14.169
46923W        W19183   2.424  40.331   0.900
46924W        W19184  18.039  39.491   2.561
46925W        W19185   0.827   4.382  12.966
46926W        W19186  14.635  24.204   2.341
46927W        W19187  16.619  41.607  14.514
46928W        W19188   9.428  34.939   2.319
46929W        W19189   3.426  23.080  11.846
46930W        W19190   4.826  16.038   4.099
46931W        W19191   4.300  44.740   4.391
46932W        W19192  36.951   8.752   4.230
46933W        W19193   3.533  44.987   1.041
46934W        W19194  15.062  21.038   4.803
46935W        W19195  11.385  35.368  12.008
46936W        W19196  20.155  31.311   3.899
46937W        W19197   6.876  17.190  10.733
46938W        W19198  11.817   3.330   3.365
46939W        W19199  17.649  11.128   4.238
46940W        W19200  24.275   9.075   0.537
46941W        W19201   4.770   6.447  13.939
46942W        W19202  15.855   3.376  14.110
46943W        W19203  14.362  35.651  12.068
46944W        W19204   2.825   3.483   0.858
46945W        W19205  12.219  21.442  13.951
46946W        W19206  29.496  38.397   3.642
46947W        W19207  22.035  16.680   1.829
46948W        W19208  25.452  25.143   2.385
46949W        W19209  38.140   4.450  14.567
46950W        W19210  40.209  19.319   2.987
46951W        W19211  29.724   4.714   0.801
46952W        W19212   3.994   6.684  11.947
46953W        W19213  33.866  23.855   0.356
46954W        W19214  18.716  43.099  10.986
46955W        W19215  21.140  22.035   1.355
46956W        W19216  24.553  40.731   2.826
46957W        W19217  13.134  31.022   9.750
46958W        W19218   3.431   3.148   4.469
46959W        W19219  37.808  39.412  11.656
46960W        W19220  34.032  37.792   4.426
46961W        W19221  14.025  43.756  11.943
46962W        W19222  11.117   0.888   1.177
46963W        W19223  23.140  11.223  12.548
46964W        W19224  11.248  28.883   3.178
46965W        W19225  39.936  38.059  13.148
46966W        W19226  35.053   5.420   0.208
46967W        W19227  33.928  16.958  12.361
46968W        W19228  39.412  30.901   2.279
46969W        W19229  44.950  19.862  11.148
46970W        W19230  18.647  24.744   1.927
46971W        W19231   6.409  21.990  11.604
46972W        W19232  22.144  23.077   3.158
46973W        W19233  17.826  30.094   2.415
46974W        W19234  21.128   4.751  10.833
46975W        W19235   8.091  32.048  14.663
46976W        W19236  37.472  30.369   0.533
46977W        W19237   8.320  41.951   0.155
46978W        W19238  36.614  22.453  11.644
46979W        W19239  16.847   7.298   5.527
46980W        W19240  18.071   5.127  11.521
46981W        W19241  22.031  43.525  14.061
46982W        W19242  34.629  39.919   0.981
46983W        W19243  16.381  22.610  13.707
46984W        W19244   3.947  24.646   2.916
46985W        W19245   7.971  28.532  11.553
46986W        W19246  15.022  17.740  12.774
46987W        W19247   5.002   7.208   3.782
46988W        W19248   6.416  38.581   0.343
46989W        W19249  24.800   5.796   1.963
46990W        W19250  36.620  12.246  13.081
46991W        W19251   2.844  11.842  12.515
46992W        W19252   7.900  23.636   3.537
46993W        W19253  11.878  36.414  12.913
46994W        W19254   6.857   7.224  11.217
46995W        W19255  26.642  13.913   1.822
46996W        W19256   5.690  30.679   1.451
46997W        W19257  44.286   9.164   2.590
46998W        W19258  34.176  13.888   2.143
46999W        W19259  37.613   4.937  13.014
47000W        W19260  41.073  12.368  14.826
47001W        W19261   3.709  38.442   0.583
47002W        W19262  24.613  20.726  11.832
47003W        W19263   7.569  29.965   3.681
47004W        W19264  23.799  19.254  13.926
47005W        W19265  23.479   3.247   1.176
47006W        W19266  44.749  38.446  13.564
47007W        W19267  37.498  37.816   0.774
47008W        W19268  23.562  25.699  10.447
47009W        W19269  34.581  17.575   3.003
47010W        W19270  27.581  36.994  10.755
47011W        W19271  42.443   7.821   2.281
47012W        W19272  13.114  10.300  13.397
47013W        W19273   6.789   6.939  12.081
47014W        W19274   2.736  37.561  14.833
47015W        W19275  24.929  39.076   4.581
47016W        W19276  18.682  20.675  10.601
47017W        W19277  24.722  40.090   3.771
47018W        W19278  35.854  18.409  14.020
47019W        W19279   7.769  29.543  14.535
47020W        W19280  22.093  43.077   3.424
47021W        W19281  29.350  44.833  13.647
47022W        W19282  19.554   6.438  10.665
47023W        W19283  40.922  28.908  11.992
47024W        W19284  10.350  36.681  12.545
47025W        W19285  24.748  38.612   1.545
47026W        W19286   3.959  10.276   3.009
47027W        W19287   0.619  39.984  14.511
47028W        W19288  26.013  38.244   3.582
47029W        W19289  20.998  34.380   1.367
47030W        W19290  34.711  27.704   4.921
47031W        W19291  21.230   9.758   3.188
47032W        W19292  32.193  27.950  11.548
47033W        W19293  26.022   0.775  10.814
47034W        W19294   9.296  25.990  12.954
47035W        W19295  37.584  38.778  11.714
47036W        W19296  25.898  27.728  14.107
47037W        W19297   8.299  37.431  14.247
47038W        W19298   5.015  18.800  13.951
47039W        W19299  43.901   6.586  13.895
47040W        W19300  40.894   2.449  13.293
47041W        W19301  35.503  42.407   4.610
47042W        W19302   7.073   0.327  10.688
47043W        W19303  28.195   5.833   0.762
47044W        W19304   4.219  42.870  12.872
47045W        W19305  33.532  35.133  13.090
47046W        W19306  28.941  19.879   4.595
47047W        W19307  11.111  18.722  12.381
47048W        W19308  12.692  30.707  10.601
47049W        W19309  44.700   7.370  13.044
47050W        W19310  16.074   3.217   3.323
47051W        W19311   0.307  18.495  12.955
47052W        W19312  11.784  43.868   0.799
47053W        W19313   6.812  13.978  13.162
47054W        W19314   1.681  31.672   1.131
47055W        W19315   1.698  28.488  12.480
47056W        W19316  33.413   6.210   3.662
47057W        W19317  13.312  32.463  11.549
47058W        W19318  15.663   8.886  13.888
47059W        W19319  16.668  19.862   0.705
47060W        W19320  26.999  29.948  12.085
47061W        W19321  27.891  19.312   0.929
47062W        W19322  22.041  26.040  13.496
47063W        W19323  37.536  37.918   1.699
47064W        W19324  13.690  39.290  14.706
47065W        W19325  14.365  20.857  11.733
47066W        W19326  25.421  39.396   4.879
47067W        W19327   5.877  40.937   0.687
47068W        W19328  10.868  24.542  13.253
47069W        W19329  24.504  36.272  12.460
47070W        W19330  19.964  39.627   0.266
47071W        W19331  22.006   7.501   0.924
47072W        W19332   3.913  15.703  14.336
47073W        W19333  26.489  24.469   3.854
47074W        W19334  16.289  31.120   3.085
47075W        W19335  42.111  24.169   0.980
47076W        W19336  17.700   5.386  14.856
47077W        W19337  27.400  13.661  11.491
47078W        W19338  17.488  31.842   3.841
47079W        W19339  38.606   5.374   0.545
47080W        W19340  35.329  30.742  14.804
47081W        W19341  14.605  32.867   4.087
47082W        W19342  21.453   0.835   4.834
47083W        W19343  31.780   4.333   3.772
47084W        W19344   7.013   4.686  14.283
47085W        W19345   5.712  13.784  13.964
47086W        W19346  11.309  37.518  13.704
47087W        W19347  18.314  32.063   2.125
47088W        W19348  44.399  27.167   1.997
47089W        W19349  16.527  18.163  11.339
47090W        W19350  42.318  24.546   3.676
47091W        W19351  17.329  26.119  12.168
47092W        W19352  42.013   6.794  11.170
47093W        W19353  13.560  27.777  10.182
47094W        W19354   5.367  19.643   0.924
47095W        W19355  30.927  37.637   1.325
47096W        W19356  25.731   1.193   0.984
47097W        W19357  44.879   1.588   2.731
47098W        W19358  15.588  19.178   1.489
47099W        W19359   8.005  14.244  11.910
47100W        W19360  25.683  12.706   4.153
47101W        W19361  41.347  24.028  11.979
47102W        W19362  16.897  28.883   2.337
47103W        W19363  12.172  16.600  10.841
47104W        W19364  22.180  10.170  12.042
47105W        W19365   6.353   8.946   4.618
47106W        W19366  39.576   1.149  14.874
47107W        W19367  28.764  44.884  14.300
47108W        W19368  12.021  20.544  14.361
47109W        W19369  41.950  40.822   2.235
47110W        W19370  18.845  31.251  14.036
47111W        W19371  20.927  41.919  11.145
47112W        W19372  34.434  15.837   1.419
47113W        W19373  44.682  27.399  13.900
47114W        W19374  24.686  30.384   0.374
47115W        W19375  21.668  37.082  14.318
47116W        W19376   8.747  14.668  14.033
47117W        W19377   3.012  27.861   0.935
47118W        W19378  22.474  40.291   0.398
47119W        W19379  35.772   7.143   1.278
47120W        W19380  16.601  36.432   4.078
47121W        W19381  40.818  14.323   1.278
47122W        W19382  30.064  10.937   2.182
47123W        W19383  14.521  12.409  12.586
47124W        W19384  22.937  21.025  11.688
47125W        W19385  34.970  20.069  13.381
47126W        W19386  37.333  19.135   0.906
47127W        W19387   4.929  20.462   0.468
47128W        W19388  15.052  39.015   4.062
47129W        W19389  34.629  14.365  14.837
47130W        W19390  19.268  40.020  11.507
47131W        W19391  32.992   1.755  14.476
47132W        W19392   6.360  25.648  12.630
47133W        W19393   4.055  38.636   2.210
47134W        W19394  17.743  11.981  14.247
47135W        W19395  26.994  21.991   2.734
47136W        W19396  34.991   1.907   3.776
47137W        W19397   0.790  41.383  13.319
47138W        W19398  28.461   6.420  12.510
47139W        W19399  26.947  26.689  11.514
47140W        W19400  25.995  35.883  14.925
47141W        W19401   4.984  30.156   4.838
47142W        W19402   2.463  32.392  13.835
47143W        W19403  28.525  19.749  11.589
47144W        W19404  22.368  32.565  14.429
47145W        W19405   9.683  26.427   1.858
47146W        W19406  21.310  15.265   1.754
47147W        W19407  14.170   7.577   2.776
47148W        W19408   9.015  32.160   3.998
47149W        W19409  13.133   6.307  14.320
47150W        W19410  36.772  28.172   0.900
47151W        W19411  37.562  44.032  11.635
47152W        W19412  23.223  14.486  11.230
47153W        W19413  21.115   3.569  11.750
47154W        W19414   8.331   3.331   0.355
47155W        W19415  24.002   7.201  10.648
47156W        W19416  28.175   4.470  12.620
47157W        W19417  36.567  26.537  13.302
47158W        W19418   4.235  34.951   2.808
47159W        W19419  25.589  41.118  13.298
47160W        W19420  18.723  25.159   0.391
47161W        W19421  28.617   1.419  11.433
47162W        W19422  44.785   8.211  13.614
47163W        W19423  41.745  26.083   0.480
47164W        W19424  40.619  35.353   0.063
47165W        W19425  44.959   4.925  11.749
47166W        W19426  35.554  17.637   2.774
47167W        W19427  28.099   9.054  12.781
47168W        W19428  37.447  31.649  12.214
47169W        W19429  42.334  44.399  13.278
47170W        W19430  40.143  44.860   4.971
47171W        W19431  39.689  11.383   1.980
47172W        W19432  17.559   9.588   0.923
47173W        W19433   0.724  35.339   0.624
47174W        W19434  26.456  16.260   3.701
47175W        W19435  17.293  36.112   2.794
47176W        W19436  24.247  36.434  13.544
47177W        W19437  18.433   5.008  11.172
47178W        W19438   2.789   3.761  14.982
47179W        W19439   2.822  38.469  14.022
47180W        W19440  40.396  21.660  12.914
47181W        W19441  20.558   1.047   2.778
47182W        W19442  35.681   8.036   4.078
47183W        W19443   7.602  22.961  11.496
47184W        W19444  20.001  42.332  11.190
47185W        W19445  11.376  20.788   1.857
47186W        W19446  17.542   2.151  11.973
47187W        W19447  28.679  39.059   0.325
47188W        W19448  43.371  33.942  14.561
47189W        W19449  25.513  42.544  14.225
47190W        W19450  21.496  22.693  11.296
47191W        W19451   8.721   5.889  11.015
47192W        W19452  33.893  31.340   2.147
47193W        W19453  24.574  37.774   2.121
47194W        W19454   8.639  32.666   1.312
47195W        W19455  20.425  21.274   1.428
47196W        W19456  11.874  23.107   2.833
47197W        W19457   8.531   2.211   0.537
47198W        W19458  39.553   6.730   0.875
47199W        W19459  41.951   3.695  11.933
47200W        W19460  18.611  21.268   0.361
47201W        W19461  44.901  21.269   1.484
47202W        W19462  32.407  20.354  12.628
47203W        W19463  24.042   2.241  13.077
47204W        W19464  33.563   0.465   4.250
47205W        W19465  39.304   0.826  10.969
47206W        W19466  13.517  18.159  14.999
47207W        W19467  19.931  25.998  11.652
47208W        W19468  31.027  34.306  10.489
47209W        W19469   8.686  31.944  12.124
47210W        W19470  24.074   5.951   2.329
47211W        W19471  14.608   4.141   1.944
47212W        W19472  21.452  14.612  11.086
47213W        W19473  42.455  30.851   2.700
47214W        W19474  26.757  29.570   3.655
47215W        W19475  40.368  21.118   5.035
47216W        W19476  15.175  20.031  14.089
47217W        W19477  40.447  30.270  13.680
47218W        W19478   4.027  34.172  11.065
47219W        W19479  15.316  39.465   2.860
47220W        W19480  14.208  16.485   5.023
47221W        W19481  42.464  39.787   2.364
47222W        W19482   7.191  18.094  12.026
47223W        W19483  43.725   0.583  11.145
47224W        W19484  14.122  39.832  10.543
47225W        W19485   6.802  19.612  10.697
47226W        W19486  32.120  25.682  11.647
47227W        W19487  42.242  16.177   3.627
47228W        W19488  34.927  10.823  13.343
47229W        W19489  38.826   4.275  13.112
47230W        W19490  31.570  18.797  13.765
47231W        W19491   0.902  39.338   3.126
47232W        W19492  25.186  23.179   0.682
47233W        W19493  43.433  31.566   4.536
47234W        W19494  31.807  21.537   1.002
47235W        W19495  11.121   7.141   4.331
47236W        W19496  38.699  37.298  11.145
47237W        W19497  39.010   7.224   0.749
47238W        W19498  22.446  23.992  13.824
47239W        W19499   5.514  32.987   0.362
47240W        W19500  39.625  29.902   1.343
47241W        W19501  15.520   8.927  11.424
47242W        W19502  44.986  43.049  12.565
47243W        W19503  19.776  43.865  10.760
47244W        W19504  39.946  44.509   1.936
47245W        W19505   7.707   1.195  10.634
47246W        W19506  13.934   9.228  12.088
47247W        W19507   3.835  24.945  11.697
47248W        W19508   1.413  29.121  10.747
47249W        W19509  26.688  24.474   4.832
47250W        W19510   1.242  14.774  10.735
47251W        W19511   9.811  40.195   4.098
47252W        W19512  28.129  35.772   3.177
47253W        W19513   6.088   7.473   0.419
47254W        W19514  35.528  14.870  14.035
47255W        W19515  44.852  11.593  13.439
47256W        W19516  42.784  38.764   4.843
47257W        W19517   9.647  29.107  14.844
47258W        W19518  16.722   4.525   1.438
47259W        W19519   1.021   0.417   4.534
47260W        W19520  31.244  29.544  12.822
47261W        W19521  40.458  22.902  12.186
47262W        W19522  29.164  25.597  13.157
47263W        W19523  12.693   6.299  13.524
47264W        W19524  13.052  33.383   4.692
47265W        W19525  18.352  10.836  11.482
47266W        W19526  38.517  32.121   4.720
47267W        W19527  24.611   3.377  14.241
47268W        W19528   3.215  38.355   0.936
47269W        W19529  28.875  42.991  14.506
47270W        W19530  39.413  13.404   4.005
47271W        W19531  32.955  15.028  13.440
47272W        W19532  32.241  19.395   1.041
47273W        W19533  29.513   3.265  14.641
47274W        W19534  14.650  18.144  13.371
47275W        W19535  23.099  13.329   0.353
47276W        W19536  24.087  38.947  10.118
47277W        W19537  29.253  17.682   3.604
47278W        W19538  15.650  16.765  12.781
47279W        W19539  42.352  30.056  14.787
47280W        W19540  24.189  38.503   0.144
47281W        W19541   9.840  25.180   1.242
47282W        W19542   5.241  14.264   4.397
47283W        W19543  12.588   0.939   1.576
47284W        W19544  18.857  31.024  14.824
47285W        W19545  43.863  12.314  10.419
47286W        W19546  42.499  23.225   3.163
47287W        W19547  30.485   0.768   1.850
47288W        W19548  27.648   5.423  14.405
47289W        W19549   4.894  28.587  13.363
47290W        W19550  39.383  40.193  14.028
47291W        W19551  32.318  31.614  12.289
47292W        W19552  30.400  13.193   4.114
47293W        W19553   4.175   9.863   2.776
47294W        W19554  23.505  38.840   4.175
47295W        W19555  14.227  35.099  11.308
47296W        W19556  23.520  27.482  12.378
47297W        W19557  19.700  10.172   4.569
47298W        W19558  22.998  39.511   2.294
47299W        W19559  27.576   9.095   4.459
47300W        W19560  12.057   4.321  13.620
47301W        W19561   8.384   2.495   2.362
47302W        W19562   6.869  22.009  13.509
47303W        W19563  37.931  37.277  12.878
47304W        W19564  16.243  39.263   1.215
47305W        W19565  10.781  41.390  13.742
47306W        W19566  19.544  30.965   3.285
47307W        W19567  14.530   2.662   4.193
47308W        W19568  10.689   7.354   1.262
47309W        W19569  44.521  15.590   0.813
47310W        W19570  25.299  43.513   3.405
47311W        W19571   4.319  31.155  13.467
47312W        W19572   6.210  30.338   2.874
47313W        W19573  44.722  13.794  10.969
47314W        W19574  12.884  39.463   1.970
47315W        W19575   2.857  40.553  11.911
47316W        W19576   7.195  41.053  10.645
47317W        W19577  40.326  41.219  11.536
47318W        W19578  20.923  34.536   0.322
47319W        W19579  23.203  41.300   0.197
47320W        W19580  12.222  42.368   3.673
47321W        W19581  34.470  24.953   4.531
47322W        W19582   4.687  19.955   4.614
47323W        W19583  19.772  16.030   1.692
47324W        W19584  20.288  32.345   4.035
47325W        W19585   4.786   4.269  10.712
47326W        W19586  25.219  22.077   2.762
47327W        W19587  38.826  33.131  11.678
47328W        W19588  24.052   6.493   4.697
47329W        W19589  18.234  10.627   2.291
47330W        W19590  39.918  28.135   2.807
47331W        W19591  39.614  33.929  14.966
47332W        W19592   3.732  30.602   4.642
47333W        W19593  24.587  44.977   1.188
47334W        W19594  10.093   2.820  12.951
47335W        W19595  40.143   0.921   0.269
47336W        W19596  25.704  19.261  14.760
47337W        W19597  23.758  26.979  14.364
47338W        W19598  22.801  44.164  10.987
47339W        W19599  13.730   4.370  12.397
47340W        W19600  18.102  14.139   4.607
47341W        W19601   3.172   6.207  11.356
47342W        W19602  42.673  15.383   3.806
47343W        W19603  28.387  43.459  12.116
47344W        W19604  34.835  41.367   2.090
47345W        W19605  32.012  43.323   2.811
47346W        W19606  23.118  38.551  11.561
47347W        W19607  35.919   5.687  12.832
47348W        W19608  27.461  12.703   4.114
47349W        W19609  29.479  14.736   0.862
47350W        W19610  28.558   7.285   4.749
47351W        W19611   0.986   6.206   3.383
47352W        W19612  16.491   3.407   1.010
47353W        W19613  40.325   3.129  12.432
47354W        W19614  19.074   6.797   2.210
47355W        W19615  44.020   4.900   0.207
47356W        W19616  32.365  26.402   4.040
47357W        W19617  40.320  25.045   4.689
47358W        W19618   1.447  21.938  12.979
47359W        W19619  36.703   7.865   2.299
47360W        W19620   4.977   2.281   2.766
47361W        W19621  15.864  14.333  10.125
47362W        W19622  37.255  28.357  12.748
47363W        W19623  16.675  13.388   1.429
47364W        W19624  36.694  35.051  14.522
47365W        W19625  15.201  20.160   4.855
47366W        W19626  13.344  10.266   3.664
47367W        W19627  34.817   8.130  14.298
47368W        W19628  43.815  44.353   3.171
47369W        W19629  30.358   6.665  11.603
47370W        W19630  35.863  19.238   2.378
47371W        W19631  20.765   5.334  14.272
47372W        W19632  14.754  16.562  10.410
47373W        W19633   7.138  13.817   2.407
47374W        W19634  12.483   0.267  10.650
47375W        W19635   4.266  26.146   2.009
47376W        W19636  38.296   6.648  10.840
47377W        W19637  31.819   2.444  12.920
47378W        W19638   5.510  17.892   4.591
47379W        W19639  26.687  19.271   3.112
47380W        W19640  26.302  25.446   3.054
47381W        W19641  18.197   1.233   1.011
47382W        W19642  23.697  41.036  11.608
47383W        W19643  20.796  36.075  12.909
47384W        W19644  31.413  21.535   1.364
47385W        W19645   8.708  14.671  10.801
47386W        W19646  40.368  41.744  11.602
47387W        W19647  30.713  24.108  14.450
47388W        W19648  29.100  10.128  10.703
47389W        W19649  40.813  35.390   0.612
47390W        W19650   7.429  18.056  12.911
47391W        W19651   0.905  26.219   0.819
47392W        W19652  32.151  39.017   1.336
47393W        W19653  40.735  27.693   3.678
47394W        W19654  17.135  33.985   2.716
47395W        W19655  12.393  30.124   4.968
47396W        W19656   4.943   8.735  11.851
47397W        W19657   9.269  23.161  13.543
47398W        W19658  28.979  28.513   1.824
47399W        W19659  17.753  42.783   2.266
47400W        W19660   6.692  25.959   4.132
47401W        W19661  44.478   0.376   3.631
47402W        W19662  17.701   4.586   4.671
47403W        W19663  20.685  31.314   3.313
47404W        W19664  40.893  37.602  12.005
47405W        W19665  24.090   3.373  14.977
47406W        W19666   9.752  31.155  12.921
47407W        W19667  31.138  40.188  14.381
47408W        W19668  35.591  23.652   0.535
47409W        W19669  29.674   5.989  11.017
47410W        W19670  32.619   3.827   3.620
47411W        W19671   6.893  44.509   5.013
47412W        W19672  41.476  26.455   0.242
47413W        W19673  28.955   2.486   2.767
47414W        W19674  28.512   1.909  12.400
47415W        W19675  32.872  13.527   1.701
47416W        W19676  25.583  37.142   4.160
47417W        W19677  27.676  13.896  13.923
47418W        W19678  11.283  21.337   0.392
47419W        W19679  25.307  13.214   3.530
47420W        W19680  28.942   6.916  14.244
47421W        W19681   0.059  18.294   0.506
47422W        W19682  44.378  32.411  11.141
47423W        W19683  15.024  25.142   1.418
47424W        W19684  19.625   0.349   1.350
47425W        W19685  30.389  42.897   4.749
47426W        W19686  21.048  33.585  13.998
47427W        W19687  36.625  30.520   2.295
47428W        W19688  40.172  32.263  10.308
47429W        W19689  35.110  36.446  13.873
47430W        W19690  14.371  10.868  11.941
47431W        W19691  41.259  31.146  11.178
47432W        W19692  35.831  41.704   2.836
47433W        W19693  18.632   6.118   0.388
47434W        W19694   6.794  42.053   3.440
47435W        W19695  24.140  29.885  12.364
47436W        W19696  21.248   9.784   2.244
47437W        W19697  31.389  31.679  10.469
47438W        W19698   0.428  39.323  10.719
47439W        W19699  39.908  20.476  14.095
47440W        W19700  10.247  33.390   2.105
47441W        W19701  36.814  41.806  14.541
47442W        W19702  38.816   7.450  14.409
47443W        W19703  19.739   7.273   1.216
47444W        W19704  39.447  41.075  13.440
47445W        W19705  36.843  21.328  14.984
47446W        W19706  34.002  28.913   2.788
47447W        W19707   2.837  32.425  13.419
47448W        W19708  41.966  35.488   1.894
47449W        W19709  34.088   0.295  11.454
47450W        W19710  18.580  16.175   3.541
47451W        W19711  10.378   9.214  11.033
47452W        W19712  43.937   3.882  12.070
47453W        W19713  18.457   4.583   4.576
47454W        W19714  18.816  42.492   0.400
47455W        W19715   4.633  42.095   0.421
47456W        W19716   0.239  17.310   2.634
47457W        W19717   2.415  23.085   2.270
47458W        W19718  22.792  25.917  13.116
47459W        W19719  10.003  29.510  14.931
47460W        W19720  19.361  16.129  14.804
47461W        W19721   8.876  18.025  14.833
47462W        W19722  27.171  41.822   4.240
47463W        W19723  20.169  17.284  14.550
47464W        W19724  23.517  20.723  13.341
47465W        W19725  34.517  44.371   1.387
47466W        W19726  33.480  34.150  12.530
47467W        W19727  44.500   7.785   0.828
47468W        W19728  20.073  42.617  11.609
47469W        W19729  18.068  32.116  12.965
47470W        W19730   6.427   7.680   0.082
47471W        W19731  33.520  29.075  13.027
47472W        W19732   9.844  12.328   3.152
47473W        W19733  41.389  32.900   1.246
47474W        W19734   6.158  12.366   3.172
47475W        W19735  12.239  38.169  13.428
47476W        W19736  23.623  13.857  12.571
47477W        W19737  21.687  25.029  13.900
47478W        W19738  29.454  20.983  14.355
47479W        W19739  10.359  42.932   2.983
47480W        W19740  28.930  38.222   0.803
47481W        W19741   2.250  35.631   4.639
47482W        W19742   1.398  37.843   0.950
47483W        W19743   1.225  44.534  12.084
47484W        W19744  40.493  19.516  12.521
47485W        W19745  18.670  36.351  11.713
47486W        W19746   3.972   8.133  14.632
47487W        W19747  32.934   1.395   4.098
47488W        W19748  32.066  27.451   2.379
47489W        W19749  23.793  19.255   4.601
47490W        W19750  30.008   6.803   3.674
47491W        W19751  21.846  43.399  13.576
47492W        W19752  21.538  40.766  10.710
47493W        W19753  35.664  34.757  11.839
47494W        W19754  30.200  25.240   0.942
47495W        W19755  25.995  24.063   2.322
47496W        W19756  38.007  16.685  10.560
47497W        W19757  25.656  43.530   4.604
47498W        W19758   7.954   1.306   0.031
47499W        W19759  33.590   7.438  11.170
47500W        W19760  18.283   4.053  10.787
47501W        W19761  40.486  30.026   0.757
47502W        W19762  40.807  31.185  12.616
47503W        W19763  30.166  24.242  11.139
47504W        W19764  16.214  37.731   1.450
47505W        W19765  39.635  28.821   4.542
47506W        W19766  40.269  15.956  14.262
47507W        W19767  12.608  21.414  11.274
47508W        W19768  38.877  38.288   2.292
47509W        W19769   6.610   0.892   4.412
47510W        W19770  38.147   1.307  11.622
47511W        W19771   2.868  18.223  14.395
47512W        W19772  15.551  22.713  11.558
47513W        W19773  34.602  12.317  10.783
47514W        W19774  38.968  39.532  12.507
47515W        W19775  34.835  27.946   1.292
47516W        W19776  11.389  22.289   1.929
47517W        W19777  42.615  22.032  14.941
47518W        W19778  14.761  26.671  12.564
47519W        W19779  21.584   8.288   1.727
47520W        W19780  40.429   7.420  14.366
47521W        W19781  23.796   8.207   0.364
47522W        W19782   2.778  15.764   2.071
47523W        W19783   0.945   2.298   3.782
47524W        W19784  15.655  34.104   3.198
47525W        W19785   4.408  42.330   2.593
47526W        W19786  23.734  32.967   4.461
47527W        W19787  19.272  13.835   2.252
47528W        W19788  26.161  40.073  14.030
47529W        W19789  40.193  19.249  13.276
47530W        W19790   9.284  28.503   0.450
47531W        W19791  25.163  37.613   0.284
47532W        W19792  38.918  30.300  10.708
47533W        W19793   5.857   9.654   1.171
47534W        W19794  31.542  18.754  11.161
47535W        W19795  37.357  39.931  14.002
47536W        W19796   0.077  17.576  12.627
47537W        W19797  10.685  11.628  14.234
47538W        W19798   9.282  33.458  14.782
47539W        W19799   1.671  14.162  13.414
47540W        W19800  24.947  15.550  14.453
47541W        W19801   2.907  22.530  13.924
47542W        W19802  11.708  24.887  14.105
47543W        W19803  29.691   6.473   0.459
47544W        W19804  12.751   1.210   1.164
47545W        W19805  20.035  44.726  12.587
47546W        W19806   7.915   0.468   2.772
47547W        W19807  11.766  26.686  13.411
47548W        W19808  30.490  18.509   1.488
47549W        W19809   4.331  20.771   4.623
47550W        W19810  10.107  25.923  12.969
47551W        W19811  29.249  14.730   0.390
47552W        W19812  37.429  44.358   5.032
47553W        W19813  26.691  34.074   2.677
47554W        W19814   2.179  28.895   3.474
47555W        W19815  14.680   5.229   0.281
47556W        W19816   7.544   2.247   0.843
47557W        W19817  16.118  13.406  11.115
47558W        W19818  35.254  10.205   1.796
47559W        W19819  27.895   4.045   0.414
47560W        W19820  29.963  34.401   2.133
47561W        W19821  30.352  21.949  14.962
47562W        W19822  24.133  23.684   0.518
47563W        W19823  15.215  43.429   1.879
47564W        W19824   8.427  10.767   1.722
47565W        W19825  36.312  11.885  11.062
47566W        W19826   3.274  29.545   2.770
47567W        W19827   1.380   5.645  12.907
47568W        W19828  33.714  19.454  10.076
47569W        W19829   0.556  42.400   0.397
47570W        W19830  27.954  15.726   0.057
47571W        W19831  31.251  35.922   3.146
47572W        W19832   0.447  24.888   3.506
47573W        W19833  30.668  31.703  13.911
47574W        W19834  42.491  16.572  13.319
47575W        W19835  11.614   8.715   3.424
47576W        W19836  33.213  20.449   1.476
47577W        W19837  32.148  17.960   0.544
47578W        W19838   5.046  13.509  10.589
47579W        W19839  30.677  19.763  11.066
47580W        W19840  26.378  24.683  12.479
47581W        W19841  24.736  40.477   1.701
47582W        W19842  14.207  25.479  14.287
47583W        W19843  19.211  38.498   2.196
47584W        W19844   2.211  34.987  12.730
47585W        W19845   8.224  40.366   1.408
47586W        W19846  43.695  28.897  12.001
47587W        W19847  28.771  41.390   3.156
47588W        W19848  27.963   3.224  14.910
47589W        W19849  15.847  29.825  13.852
47590W        W19850   3.305  15.092  13.961
47591W        W19851   8.731  10.254   3.817
47592W        W19852  35.098  17.779   9.837
47593W        W19853   2.900  34.968   4.699
47594W        W19854  16.533  37.516   1.052
47595W        W19855  14.555   7.589  10.589
47596W        W19856  33.635  38.578  11.330
47597W        W19857  38.409  27.670   4.006
47598W        W19858   5.566  29.928   3.619
47599W        W19859  20.923  21.582   3.234
47600W        W19860  12.290  43.899   0.869
47601W        W19861  41.503  13.103   1.929
47602W        W19862   5.388  29.088  14.325
47603W        W19863  33.428  18.522  13.880
47604W        W19864  30.184  44.313   3.185
47605W        W19865  13.884  24.491   3.825
47606W        W19866  15.744  29.844  11.088
47607W        W19867  24.013  17.872  14.861
47608W        W19868  33.478  40.592   3.415
47609W        W19869  31.328   5.843   2.313
47610W        W19870  16.300  11.759  11.389
47611W        W19871   7.633  38.637  11.700
47612W        W19872  32.456  22.624   0.716
47613W        W19873   0.814  25.639   4.594
47614W        W19874  35.847  19.612  10.649
47615W        W19875   3.955   9.900   1.471
47616W        W19876  10.175   8.387   4.631
47617W        W19877   5.291  15.772  11.940
47618W        W19878  11.592  42.312   1.782
47619W        W19879  10.292  24.025  10.694
47620W        W19880  14.190  21.264  10.433
47621W        W19881   0.493  35.764  11.958
47622W        W19882  25.237  32.569   4.888
47623W        W19883  36.646  21.335  12.923
47624W        W19884  37.898   6.643  12.991
47625W        W19885  18.776  18.255   4.446
47626W        W19886  42.981  10.243  13.002
47627W        W19887  33.275  25.500   2.426
47628W        W19888   4.553  37.880  13.842
47629W        W19889  41.876  32.623  10.642
47630W        W19890  10.404  14.264   2.923
47631W        W19891  43.673  14.674   2.149
47632W        W19892   7.071  14.637  14.772
47633W        W19893  39.976  20.684   1.973
47634W        W19894  11.547  13.038  14.392
47635W        W19895   8.594  13.648   0.750
47636W        W19896  14.808   7.163  14.967
47637W        W19897   5.375  44.197  14.434
47638W        W19898  24.418  26.532  11.476
47639W        W19899  39.102  37.431   1.285
47640W        W19900  28.113  11.716  11.407
47641W        W19901  13.033  42.314  11.821
47642W        W19902  15.843  41.040  13.175
47643W        W19903   7.867  11.550  13.278
47644W        W19904   1.514  38.123   4.175
47645W        W19905  31.395  26.245   1.289
47646W        W19906  35.617  36.822  10.813
47647W        W19907   9.552  44.463  11.583
47648W        W19908   9.730  18.043   2.267
47649W        W19909  25.318  37.121   2.786
47650W        W19910  18.526   8.659   5.446
47651W        W19911  23.216  10.863  11.605
47652W        W19912  16.386  32.758  14.416
47653W        W19913  14.301  34.090  12.490
47654W        W19914  39.007  38.484  11.515
47655W        W19915  18.771  25.450   0.838
47656W        W19916  18.722  42.883  14.655
47657W        W19917  34.545  13.156  13.599
47658W        W19918  43.512  36.535  14.799
47659W        W19919  42.251  12.293  14.031
47660W        W19920   9.094  15.144   4.345
47661W        W19921  29.024  22.549   4.310
47662W        W19922   3.885  30.938  10.720
47663W        W19923  39.023   2.412  11.566
47664W        W19924  43.090  10.312   1.307
47665W        W19925   4.899  22.503   0.272
47666W        W19926  10.126  25.004   1.648
47667W        W19927  13.210  24.536   2.228
47668W        W19928  37.829   4.750   3.401
47669W        W19929  42.465  34.691  14.867
47670W        W19930  24.254  36.940  11.979
47671W        W19931  40.546  26.510  13.084
47672W        W19932  29.967   6.655  11.955
47673W        W19933   8.996  22.955  11.074
47674W        W19934  35.840   6.807   3.470
47675W        W19935  12.546  11.328   0.178
47676W        W19936  24.190  12.618  11.135
47677W        W19937  29.139  21.506   3.772
47678W        W19938  39.384  24.311  14.318
47679W        W19939  11.887  25.591  12.937
47680W        W19940  43.178  36.643  13.213
47681W        W19941  23.585  27.240  11.108
47682W        W19942  28.443  12.767  11.571
47683W        W19943  31.145  15.685  13.315
47684W        W19944   4.253   8.811  10.609
47685W        W19945  17.176  30.554   2.285
47686W        W19946  42.044  42.692  11.194
47687W        W19947  15.241  17.645   3.164
47688W        W19948  32.006  21.684   0.486
47689W        W19949  29.357  23.270  14.902
47690W        W19950  14.779  16.703  11.473
47691W        W19951  25.253  44.466  14.363
47692W        W19952   8.657  26.121  11.482
47693W        W19953  42.251  30.724  13.495
47694W        W19954  35.107  11.135  10.752
47695W        W19955  13.701  32.938   1.012
47696W        W19956  39.388  19.022   3.685
47697W        W19957  32.166  24.835   0.983
47698W        W19958  36.437  25.365   5.230
47699W        W19959   9.814  26.392   4.150
47700W        W19960   9.166  33.039  11.633
47701W        W19961   1.214  40.096   2.566
47702W        W19962   7.644  15.774   1.358
47703W        W19963  40.444  37.837  13.100
47704W        W19964  10.402  22.140   3.812
47705W        W19965  33.578   9.362   3.322
47706W        W19966  33.909  29.627   4.048
47707W        W19967  15.624   7.500  13.980
47708W        W19968  29.384  22.063  12.997
47709W        W19969  14.082  43.883  13.559
47710W        W19970   7.435  16.839   2.264
47711W        W19971  28.865   8.788  12.015
47712W        W19972  39.582  36.612   0.379
47713W        W19973  12.022   8.804  11.903
47714W        W19974  21.407  12.749   5.096
47715W        W19975  19.191  32.359   1.737
47716W        W19976  18.636  43.529  10.702
47717W        W19977  22.954  25.612  11.380
47718W        W19978  13.833   0.347   4.158
47719W        W19979  28.500  27.648  10.416
47720W        W19980  11.037   2.875   2.312
47721W        W19981  16.554  26.045   1.274
47722W        W19982  23.450  14.857   0.520
47723W        W19983  21.510  12.286   4.430
47724W        W19984  37.969  18.602   2.926
47725W        W19985  33.950  42.968  12.036
47726W        W19986  41.277  31.374   4.848
47727W        W19987   1.657  13.088  14.302
47728W        W19988  23.399   5.731   1.344
47729W        W19989  22.732  42.185   1.399
47730W        W19990  40.280  19.930   3.658
47731W        W19991  13.735   8.981   2.749
47732W        W19992  43.771  18.824  10.648
47733W        W19993  12.834   1.764   2.177
47734W        W19994  42.840  40.855  11.707
47735W        W19995  40.691  25.021  13.664
47736W        W19996  31.723  17.960   0.248
47737W        W19997  36.353   6.461  14.382
47738W        W19998  16.122   1.915   2.101
47739W        W19999  26.235  33.031   3.951
47740W        W20000  12.368  38.547  13.763
47741W        W20001   8.890  18.065   2.578
47742W        W20002  26.677  26.519   2.412
47743W        W20003  29.945  25.123   5.134
47744W        W20004  13.391   7.268   3.134
47745W        W20005   4.464  38.166   4.572
47746W        W20006  12.229   9.643  14.454
47747W        W20007   5.092  40.502  14.780
47748W        W20008  35.423  18.256  13.436
47749W        W20009  26.815  25.651   0.462
47750W        W20010  19.473  37.514   3.663
47751W        W20011  30.851  22.123  14.848
47752W        W20012  27.925  43.839  10.695
47753W        W20013  25.097  23.236   2.247
47754W        W20014  27.487  29.958   2.413
47755W        W20015  15.075  14.404   9.791
47756W        W20016  33.823   4.488   4.205
47757W        W20017  12.703  36.385  12.236
47758W        W20018  18.093  18.816   1.189
47759W        W20019  41.039  11.242   0.421
47760W        W20020  35.377  35.956  12.257
47761W        W20021  13.886  33.598  11.765
47762W        W20022  10.877  32.993   3.339
47763W        W20023  44.009  21.044   2.819
47764W        W20024  33.434  36.759  14.455
47765W        W20025   5.948  15.789  13.134
47766W        W20026  39.699  25.611   4.228
47767W        W20027  17.178   4.766   4.622
47768W        W20028   7.141   8.381   2.199
47769W        W20029  16.744   1.360  12.610
47770W        W20030   0.458   9.844   2.335
47771W        W20031  22.427  27.246   0.349
47772W        W20032  30.671  19.164   2.699
47773W        W20033   3.419   2.781  10.779
47774W        W20034  15.568  40.668  12.494
47775W        W20035  14.767  38.012   0.079
47776W        W20036  20.151  36.621  13.460
47777W        W20037  23.252   4.014  14.769
47778W        W20038  28.994  21.549   1.297
47779W        W20039  24.602  44.850   0.134
47780W        W20040   9.357  31.656  10.727
47781W        W20041  12.328   7.200  13.579
47782W        W20042  44.644  39.821   2.734
47783W        W20043  30.921  25.207   2.666
47784W        W20044  28.106  40.782   2.679
47785W        W20045  14.629  24.494   0.416
47786W        W20046   6.442  17.639  13.564
47787W        W20047  26.525  44.564   4.123
47788W        W20048  30.726   2.954   3.141
47789W        W20049  37.275  43.433  14.669
47790W        W20050  42.592  40.390   0.548
47791W        W20051  24.611  23.811   3.356
47792W        W20052  44.781  17.084  14.949
47793W        W20053  32.131  43.904   3.409
47794W        W20054  31.508  26.203   2.203
47795W        W20055  31.400  25.940   1.699
47796W        W20056  23.999  43.201   0.700
47797W        W20057  43.670  31.392   1.338
47798W        W20058   0.169   8.484   3.755
47799W        W20059  10.253  30.149  12.127
47800W        W20060  33.934  40.196  14.829
47801W        W20061  14.740   3.369   4.588
47802W        W20062  38.452  20.003   3.428
47803W        W20063  23.639  25.672   1.315
47804W        W20064  17.159   5.394   4.746
47805W        W20065   5.245   5.677  13.898
47806W        W20066  26.488  31.401   0.917
47807W        W20067  21.596   3.924   4.843
47808W        W20068  23.009   7.726   3.259
47809W        W20069  10.501  27.031   2.408
47810W        W20070  10.055  23.585   2.267
47811W        W20071   7.776   0.534  11.159
47812W        W20072  19.587  18.236   3.729
47813W        W20073   0.183  43.383  14.927
47814W        W20074  16.574   6.670  11.563
47815W        W20075  21.185  26.552   2.372
47816W        W20076  22.089  31.788   3.300
47817W        W20077  43.418  28.541   0.021
47818W        W20078  44.844  23.756  14.337
47819W        W20079  27.607  34.987  11.202
47820W        W20080  40.052  31.057   3.083
47821W        W20081   4.479  16.221  14.972
47822W        W20082  33.270  16.272   1.091
47823W        W20083  37.069   1.287  13.576
47824W        W20084   1.533  39.998   2.146
47825W        W20085   8.269  21.487  13.845
47826W        W20086  38.312  21.114  14.606
47827W        W20087   4.788   5.486   2.800
47828W        W20088  21.303  11.600  13.388
47829W        W20089  20.865  38.883   0.779
47830W        W20090  17.436  24.236   1.737
47831W        W20091  14.763  22.122   0.814
47832W        W20092  15.374   3.916  13.062
47833W        W20093  12.330   1.984   2.284
47834W        W20094  30.209   4.617   1.748
47835W        W20095  27.075  44.245   2.208
47836W        W20096  20.418  22.117  12.921
47837W        W20097  21.529  39.822  14.505
47838W        W20098  29.777  30.059  13.804
47839W        W20099   0.789  30.164   3.374
47840W        W20100  22.131   7.444  12.978
47841W        W20101   4.621   5.457   4.085
47842W        W20102  39.244  44.421  11.924
47843W        W20103   2.544   4.312   3.062
47844W        W20104  41.917  30.298  14.841
47845W        W20105   6.219  44.026  10.755
47846W        W20106  28.276  29.519   0.838
47847W        W20107   2.779  39.341   2.444
47848W        W20108  29.665   7.297  12.235
47849W        W20109  29.660  12.676  10.688
47850W        W20110  24.216   5.732  12.115
47851W        W20111   1.464  39.210   2.088
47852W        W20112  29.494  35.900   3.858
47853W        W20113  41.917  39.640  13.446
47854W        W20114  25.934   7.401  13.616
47855W        W20115   5.666  39.748   2.836
47856W        W20116  33.624  29.614  12.926
47857W        W20117  21.655  42.508   1.709
47858W        W20118  36.424  25.650  12.061
47859W        W20119   3.766  28.537  11.675
47860W        W20120  14.754  40.439   1.407
47861W        W20121  23.546   7.159   2.293
47862W        W20122  35.704  29.810   2.383
47863W        W20123  33.308   0.062   4.465
47864W        W20124   7.112  25.472   5.012
47865W        W20125   0.236  28.492  10.865
47866W        W20126  23.169  14.564   2.767
47867W        W20127  28.937   0.337   4.498
47868W        W20128  28.049   5.831  12.492
47869W        W20129  25.505   3.753  14.446
47870W        W20130  21.763  11.420   4.390
47871W        W20131  15.130  31.795   4.139
47872W        W20132   6.443  34.157  13.368
47873W        W20133  40.711   4.904  14.350
47874W        W20134   6.548  41.569  14.982
47875W        W20135  19.238  35.744  13.204
47876W        W20136  34.095   6.708   4.027
47877W        W20137  26.015  35.981  10.737
47878W        W20138  38.261  29.131  11.015
47879W        W20139   1.889  27.080   3.647
47880W        W20140  34.077  10.084  12.957
47881W        W20141  30.654  41.908   4.029
47882W        W20142  26.672  39.070   1.676
47883W        W20143  33.610  35.763   5.017
47884W        W20144  24.458  10.132   1.307
47885W        W20145  18.304   4.452  10.426
47886W        W20146  25.998  30.426  13.360
47887W        W20147   7.748  33.036   2.295
47888W        W20148  29.576  43.387   3.755
47889W        W20149  40.211  11.315   1.810
47890W        W20150  31.020  10.915   1.633
47891W        W20151   6.118  16.630   0.390
47892W        W20152   4.719   7.338   4.202
47893W        W20153  12.094  20.741   3.641
47894W        W20154  17.751   0.876   0.368
47895W        W20155   9.594  29.572  14.613
47896W        W20156  26.947  27.643   4.181
47897W        W20157  18.076  14.539   0.687
47898W        W20158  40.741  23.553   0.883
47899W        W20159  29.370  19.576   4.519
47900W        W20160  14.242  41.703   0.001
47901W        W20161  13.337  32.645   2.302
47902W        W20162  30.253   1.781  13.521
47903W        W20163  44.912  25.009   3.665
47904W        W20164  39.789  22.008   1.481
47905W        W20165  21.152  27.738  12.883
47906W        W20166  24.212   4.582   3.549
47907W        W20167  34.618  26.242  10.876
47908W        W20168  32.972   3.253  14.334
47909W        W20169  24.666   9.593   3.271
47910W        W20170   9.170  40.507  14.402
47911W        W20171   6.673   6.750   1.208
47912W        W20172  18.565  32.518   2.200
47913W        W20173   5.384   8.463  14.513
47914W        W20174  24.983  10.459  13.035
47915W        W20175  26.559   2.955   2.931
47916W        W20176  28.699  13.196   3.028
47917W        W20177  35.914  20.567  10.683
47918W        W20178  18.662  39.248  11.568
47919W        W20179  12.765  28.203   1.518
47920W        W20180  44.331   8.306  13.878
47921W        W20181  19.745  34.837  12.408
47922W        W20182  42.821  36.094  13.914
47923W        W20183  43.998  10.832   2.079
47924W        W20184  22.300  19.295   4.147
47925W        W20185  27.876  13.650   4.716
47926W        W20186   1.538  10.481  12.428
47927W        W20187  14.354  30.806   5.053
47928W        W20188   4.282  40.521   2.951
47929W        W20189  12.677   8.450   1.761
47930W        W20190   1.284  10.724   0.306
47931W        W20191   6.304  19.628  12.531
47932W        W20192   4.781  13.683   3.238
47933W        W20193  21.151  44.242  11.098
47934W        W20194  40.190  21.211  11.644
47935W        W20195  33.982  19.823   1.392
47936W        W20196  33.439   3.765   4.168
47937W        W20197  32.486  30.558   1.860
47938W        W20198   5.691   6.555  10.767
47939W        W20199  25.800   4.871  10.817
47940W        W20200  29.027  28.580  10.597
47941W        W20201  26.772  32.428   0.504
47942W        W20202  27.114  38.422  10.510
47943W        W20203  17.139  39.265   2.282
47944W        W20204  25.178  32.106  13.557
47945W        W20205   1.032  15.828  11.792
47946W        W20206  38.681  24.439   4.119
47947W        W20207   8.140  38.341  11.013
47948W        W20208  20.909  21.127   2.257
47949W        W20209  24.606   1.359  14.975
47950W        W20210  44.950   7.168   3.207
47951W        W20211  43.494   3.749  10.456
47952W        W20212  29.615  24.983   1.383
47953W        W20213   5.988  43.247  11.104
47954W        W20214  13.893  15.094  12.091
47955W        W20215  42.384  44.480   3.003
47956W        W20216   1.856  44.234  12.879
47957W        W20217  32.930  18.819   4.077
47958W        W20218  39.739  32.124   3.599
47959W        W20219  37.186  43.325   1.432
47960W        W20220  35.116  42.918   3.350
47961W        W20221  39.912  44.974   3.933
47962W        W20222   5.477   2.006   2.268
47963W        W20223  37.334  27.680  11.339
47964W        W20224  32.085  10.787   1.578
47965W        W20225  38.451  12.234  12.401
47966W        W20226  29.623  44.954   2.565
47967W        W20227  33.413  14.781  12.034
47968W        W20228  23.699  16.348  10.733
47969W        W20229  21.601  13.548   0.917
47970W        W20230  15.761  35.094  13.744
47971W        W20231  10.854  29.545   4.455
47972W        W20232  19.083  24.762   1.203
47973W        W20233  29.115  12.871   2.955
47974W        W20234  26.148  43.710  10.466
47975W        W20235   9.676  15.239   2.203
47976W        W20236   9.704  16.218  10.432
47977W        W20237  15.088  24.684   3.162
47978W        W20238  26.089  27.546   4.429
47979W        W20239  42.610  31.526  11.166
47980W        W20240   1.052   4.215  13.432
47981W        W20241  43.324  12.612  14.842
47982W        W20242  27.994   0.089   0.572
47983W        W20243  32.689  30.959  13.816
47984W        W20244  15.309   5.763  12.770
47985W        W20245   2.309  21.526   4.158
47986W        W20246   4.477   3.205  14.788
47987W        W20247  29.672  35.519  13.152
47988W        W20248  18.063  23.297  10.755
47989W        W20249  30.429  43.875  14.192
47990W        W20250  23.982  24.178   0.479
47991W        W20251  33.801  25.511   4.561
47992W        W20252   4.896   8.644  14.443
47993W        W20253  23.014   8.242  12.332
47994W        W20254  41.899  15.865   2.750
47995W        W20255  10.933   8.207  13.249
47996W        W20256  14.743   7.811   4.048
47997W        W20257  24.691  21.168  14.433
47998W        W20258   6.435  18.174  11.635
47999W        W20259   9.704  27.604   0.411
48000W        W20260  27.319   2.245   4.218
48001W        W20261   8.258   2.271   4.864
48002W        W20262  27.459  25.392  13.349
48003W        W20263  28.732  29.105   1.393
48004W        W20264  33.387  38.713  14.499
48005W        W20265  32.131  38.131   0.280
48006W        W20266  31.231  25.359   1.806
48007W        W20267  21.698   1.775   3.301
48008W        W20268   8.306  29.923  11.444
48009W        W20269  42.327  29.983  11.134
48010W        W20270   8.239  23.755  12.163
48011W        W20271  25.503   9.108   0.389
48012W        W20272  32.794  24.113   4.156
48013W        W20273  19.694   8.341  14.816
48014W        W20274  30.862  42.922   3.119
48015W        W20275  39.429  41.056  12.507
48016W        W20276  31.362  16.811   3.367
48017W        W20277  42.881  10.806  13.921
48018W        W20278  37.509  15.634  11.921
48019W        W20279   9.950  11.224  12.458
48020W        W20280   7.923  22.729  14.274
48021W        W20281  36.819  38.755  12.557
48022W        W20282   7.730  40.027   3.707
48023W        W20283  36.495   3.264  10.435
48024W        W20284   4.725  37.395   5.411
48025W        W20285   1.180  21.082  11.108
48026W        W20286  33.820  18.117   2.894
48027W        W20287  24.148  18.318   4.664
48028W        W20288  26.226  30.581   3.776
48029W        W20289   9.188   7.079  11.411
48030W        W20290  30.668  34.863  13.323
48031W        W20291  24.400  26.872   1.891
48032W        W20292  10.867  35.814   4.610
48033W        W20293  11.743  17.151   1.812
48034W        W20294  18.616   4.220   2.425
48035W        W20295  10.527  14.619  13.375
48036W        W20296  12.191  29.415   1.804
48037W        W20297  39.234   4.788   3.253
48038W        W20298  16.222  18.174  13.811
48039W        W20299  12.625  31.993  11.675
48040W        W20300  17.185   3.278  14.312
48041W        W20301  43.324   8.251   0.415
48042W        W20302   4.323  11.665   2.234
48043W        W20303  17.495  21.748   4.613
48044W        W20304   9.755  41.816  10.885
48045W        W20305   1.769   1.969  12.809
48046W        W20306   0.735  23.504  13.142
48047W        W20307  17.535  12.884   3.663
48048W        W20308  25.049  34.595  13.049
48049W        W20309  36.635  39.347  10.412
48050W        W20310  28.997   1.640   1.013
48051W        W20311  26.118  40.166   3.073
48052W        W20312   0.847  12.571   4.041
48053W        W20313  38.827  19.392   2.005
48054W        W20314  19.724  19.347  13.853
48055W        W20315  36.824  38.347  14.989
48056W        W20316  20.287  11.834  10.550
48057W        W20317  39.998  34.119   2.225
48058W        W20318  33.129  15.762  12.561
48059W        W20319  34.891   1.520   0.036
48060W        W20320  17.925  43.006   4.581
48061W        W20321   1.461  30.983  11.114
48062W        W20322  23.280   2.193  11.104
48063W        W20323  44.204  43.065   3.675
48064W        W20324  37.195   7.877  13.492
48065W        W20325   6.491  21.189  11.509
48066W        W20326  12.134  30.553   4.752
48067W        W20327  42.438  37.524  12.418
48068W        W20328  19.758   8.647   4.806
48069W        W20329  39.722   4.844  11.484
48070W        W20330  41.867  18.306  11.055
48071W        W20331   7.812  19.110   1.770
48072W        W20332   6.796  24.646   3.636
48073W        W20333   2.779  44.882   1.381
48074W        W20334  12.566  27.144  12.449
48075W        W20335  43.229  30.443   0.425
48076W        W20336  28.310  43.722  13.413
48077W        W20337  39.391  19.418  11.852
48078W        W20338  15.812  11.402   0.078
48079W        W20339  12.377  28.452  11.473
48080W        W20340   0.812  39.379  11.961
48081W        W20341  11.863  11.173   4.693
48082W        W20342  21.743  21.484   2.263
48083W        W20343  27.494  18.360  13.955
48084W        W20344  23.188  23.584   0.287
48085W        W20345  11.910  30.161   2.785
48086W        W20346   1.708  36.383   0.877
48087W        W20347  24.037  43.756   4.113
48088W        W20348   8.000  31.949  11.088
48089W        W20349  33.614  43.510   0.300
48090W        W20350   1.408   5.972  14.959
48091W        W20351  17.765  38.398  13.467
48092W        W20352   4.158   7.790  10.579
48093W        W20353  11.648  34.919  10.799
48094W        W20354   6.795  13.838   0.499
48095W        W20355   8.693  20.355   3.298
48096W        W20356  33.393  37.729  10.831
48097W        W20357   4.687  35.473  10.264
48098W        W20358  40.446  33.875  11.147
48099W        W20359  32.804  33.569  14.864
48100W        W20360  42.283  40.518   0.997
48101W        W20361  23.533  34.627   4.183
48102W        W20362  33.554  11.417   1.698
48103W        W20363  30.805   0.353  14.397
48104W        W20364   2.718  19.005   3.696
48105W        W20365  16.171  40.951   1.202
48106W        W20366  27.662  20.773   2.582
48107W        W20367  32.454  26.594   2.168
48108W        W20368   8.238  39.520  14.280
48109W        W20369   0.922  27.566  11.149
48110W        W20370  29.862   9.107  13.999
48111W        W20371  11.727  30.101  10.584
48112W        W20372  13.593  39.382   4.686
48113W        W20373  36.792   3.750  12.989
48114W        W20374  44.363   9.679  14.430
48115W        W20375  30.224  28.584   4.083
48116W        W20376   2.868  25.780  11.504
48117W        W20377  39.846  10.897  11.163
48118W        W20378  33.427   1.880  13.747
48119W        W20379  41.306  36.628   0.560
48120W        W20380  10.355  31.986   4.588
48121W        W20381  39.764  24.768   3.560
48122W        W20382  25.481  33.472  13.274
48123W        W20383  40.429  42.988   4.596
48124W        W20384  42.954  32.034   3.318
48125W        W20385  34.481  12.636   1.831
48126W        W20386  31.607  17.360  12.925
48127W        W20387  39.981  31.636  10.656
48128W        W20388   2.924  11.440   3.210
48129W        W20389  33.202  25.168   3.137
48130W        W20390  31.347   7.380  10.609
48131W        W20391  39.391  23.155  11.577
48132W        W20392  44.355  39.387   1.383
48133W        W20393  28.906  22.222   3.365
48134W        W20394  28.909  16.670   0.320
48135W        W20395   4.993  27.114   4.600
48136W        W20396  35.374  24.416   4.887
48137W        W20397  30.957  38.931  13.919
48138W        W20398  38.845  22.299  12.909
48139W        W20399  18.647  38.775  10.242
48140W        W20400  24.731  42.072   0.247
48141W        W20401  19.954  44.407  14.012
48142W        W20402  16.639  18.295   2.154
48143W        W20403  42.923  10.941  13.432
48144W        W20404   5.200  14.124  10.747
48145W        W20405  32.407  44.504   2.701
48146W        W20406  17.012  43.279   4.969
48147W        W20407   7.619  42.196  12.103
48148W        W20408   5.565  41.497   3.291
48149W        W20409  13.311  19.775  11.616
48150W        W20410  10.920  31.603  13.612
48151W        W20411  19.711  18.985   5.182
48152W        W20412  24.090  11.192   0.695
48153W        W20413  33.056  20.480   0.439
48154W        W20414  12.649  23.283   3.858
48155W        W20415  44.800  24.034   1.198
48156W        W20416  22.254  29.292   1.829
48157W        W20417  32.396   4.521  12.000
48158W        W20418  30.974  39.016  11.979
48159W        W20419  36.858   2.321  13.052
48160W        W20420  25.010  38.302  10.925
48161W        W20421  17.563  10.425   2.619
48162W        W20422   4.867  27.638   5.627
48163W        W20423  25.508  39.585   4.021
48164W        W20424  32.752  38.371   0.377
48165W        W20425  15.723  37.038   3.688
48166W        W20426  11.653   1.272   1.810
48167W        W20427   3.846  22.182  12.972
48168W        W20428  10.803  22.452   1.470
48169W        W20429  17.004  33.542  10.206
48170W        W20430  22.919  34.352  13.871
48171W        W20431   1.320  30.475  10.900
48172W        W20432  33.698  27.927   3.255
48173W        W20433   8.185   9.823  13.407
48174W        W20434  32.439  12.892  12.545
48175W        W20435   8.848  32.453  14.371
48176W        W20436   7.278  25.529  14.433
48177W        W20437  37.369  20.258  11.078
48178W        W20438  28.000   8.709  12.395
48179W        W20439  36.756   0.153   0.774
48180W        W20440  10.113  41.419  11.446
48181W        W20441  44.483  29.194  10.736
48182W        W20442   4.372  25.681   2.238
48183W        W20443   6.729  37.590   0.401
48184W        W20444  31.926  30.493   2.424
48185W        W20445  11.543   0.392  11.018
48186W        W20446  30.644   5.453  13.260
48187W        W20447  33.067  42.772  14.040
48188W        W20448  18.090   7.201  11.938
48189W        W20449  28.514  36.398  14.735
48190W        W20450  30.546  24.600  13.694
48191W        W20451  17.221  33.629   1.277
48192W        W20452  26.078  22.956   1.158
48193W        W20453  28.197  15.638  12.465
48194W        W20454  23.123  12.268   4.193
48195W        W20455   4.112  40.305   4.076
48196W        W20456  27.728  30.252  14.588
48197W        W20457  42.886  35.160  13.534
48198W        W20458  29.046   5.508  14.115
48199W        W20459  14.630  19.192  12.464
48200W        W20460   4.846   6.305   2.332
48201W        W20461   6.140  16.705   4.024
48202W        W20462  11.622  32.144  11.419
48203W        W20463   0.736   0.230   9.976
48204W        W20464  20.503  43.316  14.013
48205W        W20465   8.380  14.247  11.505
48206W        W20466  26.545  32.591   3.953
48207W        W20467  27.665  40.082  11.068
48208W        W20468  42.865  22.456   1.332
48209W        W20469  32.496  12.680   4.015
48210W        W20470  24.547  13.393  14.405
48211W        W20471  10.198  13.873  12.811
48212W        W20472  36.871  14.755  14.265
48213W        W20473  15.723  27.456  11.830
48214W        W20474  19.327   3.781   2.663
48215W        W20475  30.464  41.533  12.503
48216W        W20476  42.693  28.688   0.432
48217W        W20477  44.213  31.433   2.215
48218W        W20478   4.921  39.461   4.390
48219W        W20479   1.107  27.515   4.453
48220W        W20480  37.456  31.709  10.784
48221W        W20481  10.804  31.518  13.112
48222W        W20482   1.900  27.074  14.038
48223W        W20483   0.844  11.769   4.588
48224W        W20484  36.393  30.718  14.508
48225W        W20485  43.810  25.572   4.649
48226W        W20486  35.686  28.541   2.954
48227W        W20487  40.627  33.386   9.668
48228W        W20488  12.189  39.035  11.097
48229W        W20489  22.502  32.901   0.755
48230W        W20490  42.317  13.898   1.774
48231W        W20491  39.426  23.128   4.709
48232W        W20492  12.501  24.872   1.748
48233W        W20493  36.937  11.128   1.750
48234W        W20494  41.284  30.037  10.515
48235W        W20495  13.518  31.992  14.668
48236W        W20496  15.477   9.660  11.854
48237W        W20497  20.077  27.216  12.067
48238W        W20498  28.868  23.781   2.744
48239W        W20499  25.040  35.325   2.779
48240W        W20500  18.825  21.225  13.456
48241W        W20501   4.830  21.685  11.132
48242W        W20502  39.709   7.962   3.717
48243W        W20503  25.768  14.576  13.624
48244W        W20504  25.578   2.944   4.005
48245W        W20505  40.708  16.692   1.276
48246W        W20506   1.452  10.751   3.429
48247W        W20507  21.095  32.107   3.085
48248W        W20508  40.613  10.197  10.593
48249W        W20509  11.674   0.247  12.230
48250W        W20510   0.117  31.058   2.298
48251W        W20511   1.307  11.227   1.232
48252W        W20512  25.445  24.439  12.154
48253W        W20513  27.037  15.217   0.905
48254W        W20514  16.534  18.517   4.246
48255W        W20515   5.688  27.213  14.789
48256W        W20516   0.439  38.294  13.089
48257W        W20517  34.967  22.807  13.441
48258W        W20518   6.615  16.737   2.753
48259W        W20519  39.541   1.286   3.799
48260W        W20520   1.828  37.624  12.124
48261W        W20521  12.669  35.086  14.821
48262W        W20522  11.279  28.769   9.985
48263W        W20523  20.068   0.553  14.642
48264W        W20524  30.036  31.963   0.863
48265W        W20525  23.073  36.397  11.413
48266W        W20526  17.251  29.243  11.560
48267W        W20527  10.914  40.950  12.501
48268W        W20528  15.651  22.753   4.238
48269W        W20529  15.382   6.313  10.645
48270W        W20530  23.571   1.849   2.499
48271W        W20531  36.941  18.766   9.855
48272W        W20532  29.119   8.357  10.666
48273W        W20533  42.813  11.109   1.790
48274W        W20534  24.601   9.455   0.358
48275W        W20535  36.965  18.508  12.120
48276W        W20536   4.214  39.882  14.873
48277W        W20537  25.787  18.775   2.263
48278W        W20538  26.590  28.240   2.894
48279W        W20539  20.149  40.458  13.932
48280W        W20540   8.488  26.008   1.613
48281W        W20541  36.320  31.362   2.855
48282W        W20542  38.382  44.976   3.425
48283W        W20543   0.373  36.489  14.094
48284W        W20544  20.051  10.720   4.576
48285W        W20545   8.300   1.820   1.153
48286W        W20546  40.058   9.583   4.494
48287W        W20547  16.998   6.357   0.764
48288W        W20548  16.239  17.714  13.589
48289W        W20549  33.647  40.701  12.905
48290W        W20550  35.008  26.746  14.915
48291W        W20551  39.056  15.358  12.461
48292W        W20552  43.415  20.128   1.230
48293W        W20553  11.096  37.833  10.417
48294W        W20554  43.239  18.477   1.831
48295W        W20555  36.388  27.128   4.464
48296W        W20556  12.190   2.339  12.598
48297W        W20557   3.245  33.869  14.824
48298W        W20558  38.444  19.672   0.704
48299W        W20559  44.960  34.041  10.905
48300W        W20560  30.946  13.897  13.126
48301W        W20561  40.510   8.409   3.275
48302W        W20562  26.935  30.640  14.959
48303W        W20563  20.677  40.367   2.168
48304W        W20564  25.639   7.868  13.504
48305W        W20565  13.533  24.732  11.576
48306W        W20566  26.192  32.631   2.694
48307W        W20567  27.013  27.538  13.347
48308W        W20568  35.417   5.081   4.826
48309W        W20569   5.170  44.589  11.123
48310W        W20570  20.424  44.318   2.402
48311W        W20571  21.097  22.667  14.279
48312W        W20572  19.884  16.118   9.998
48313W        W20573  37.008  33.850   4.348
48314W        W20574  29.675  24.703  14.777
48315W        W20575  42.694  33.647  11.142
48316W        W20576  21.128  16.314  14.507
48317W        W20577  30.552  38.612  13.849
48318W        W20578  32.008  28.870   4.730
48319W        W20579  12.431  14.624  14.339
48320W        W20580  26.754  22.696   5.040
48321W        W20581  27.277  17.176   3.291
48322W        W20582  40.104  39.930  10.637
48323W        W20583   1.957   4.795  14.538
48324W        W20584  13.441  12.955   0.753
48325W        W20585  41.325   5.485   2.663
48326W        W20586  43.053   3.104   3.545
48327W        W20587   6.469  31.155   3.220
48328W        W20588  41.544  19.645   4.186
48329W        W20589  43.639  19.947   3.330
48330W        W20590  17.002  38.271  10.654
48331W        W20591  11.055  34.245  12.507
48332W        W20592  16.689  39.106   3.691
48333W        W20593  38.799  33.939   2.006
48334W        W20594  14.979   7.760  12.360
48335W        W20595  27.598   3.895  11.382
48336W        W20596  24.352  16.769  14.439
48337W        W20597  35.919  28.023   2.614
48338W        W20598  33.126  38.742   1.353
48339W        W20599  26.781  15.565   2.602
48340W        W20600  26.506  25.623   0.914
48341W        W20601   4.797  23.663  11.067
48342W        W20602  43.432  42.404  10.800
48343W        W20603  38.865  14.766   1.388
48344W        W20604  25.550  17.130   2.756
48345W        W20605  42.883  15.783   0.744
48346W        W20606   8.698  39.119  13.093
48347W        W20607  36.908   6.198  12.923
48348W        W20608  35.842  12.927  12.537
48349W        W20609  15.820   1.009  12.457
48350W        W20610   1.314  37.019  14.950
48351W        W20611   5.162  31.067  14.855
48352W        W20612  33.514  34.656   4.157
48353W        W20613   8.940  28.629  13.503
48354W        W20614  37.530   8.252  13.728
48355W        W20615   1.284  44.457  13.855
48356W        W20616  26.416  11.848  13.546
48357W        W20617  12.998  33.618   3.201
48358W        W20618  39.049  38.008  12.801
48359W        W20619   8.159  11.346   3.125
48360W        W20620  19.252  13.338  12.521
48361W        W20621  40.881  15.258  13.634
48362W        W20622  33.059  26.208  14.062
48363W        W20623   3.382  26.035   4.627
48364W        W20624  36.017  25.973  11.979
48365W        W20625  17.508  26.102  10.962
48366W        W20626  23.982  39.651   3.788
48367W        W20627  43.211  40.904  12.074
48368W        W20628  19.105  23.337   0.353
48369W        W20629   5.957   7.273   2.265
48370W        W20630  13.236  18.257   1.655
48371W        W20631  30.913   3.050   4.715
48372W        W20632  16.680  30.634   2.206
48373W        W20633  28.465   8.756   0.978
48374W        W20634  33.435   3.268  12.855
48375W        W20635  31.652   7.851  14.795
48376W        W20636  21.341  12.748  11.537
48377W        W20637  15.577  23.230  14.150
48378W        W20638   7.191  22.777  12.031
48379W        W20639  21.646  28.677   3.687
48380W        W20640  38.563  22.131   2.841
48381W        W20641  26.554  43.987  10.847
48382W        W20642  15.612  10.172   1.121
48383W        W20643  21.078  44.022   3.404
48384W        W20644  35.112   8.953   0.994
48385W        W20645   4.745  10.281  14.026
48386W        W20646   8.631  25.276  13.056
48387W        W20647   5.314   7.771  11.801
48388W        W20648  24.238  13.740   3.788
48389W        W20649  22.080   9.699   4.610
48390W        W20650  44.849   9.285   4.632
48391W        W20651  35.688  39.248   3.741
48392W        W20652  29.679   5.343  12.902
48393W        W20653  36.169  14.228  11.918
48394W        W20654  38.351  12.251   2.387
48395W        W20655  41.543  26.986  11.897
48396W        W20656  33.098   4.844   0.833
48397W        W20657  14.814  42.359  14.286
48398W        W20658  19.865  18.127  13.016
48399W        W20659  38.957  43.905   4.823
48400W        W20660  21.614  30.256  12.941
48401W        W20661  30.983  44.725  12.729
48402W        W20662   5.671  35.305  11.276
48403W        W20663  30.055  35.615  11.064
48404W        W20664  25.861  31.341  12.135
48405W        W20665  39.335   5.692   0.562
48406W        W20666  36.892   7.468   4.047
48407W        W20667  36.009   6.328  13.552
48408W        W20668  21.184  42.266   3.647
48409W        W20669  15.677   5.280   4.643
48410W        W20670  31.756  26.103  13.014
48411W        W20671  33.010  33.558   2.882
48412W        W20672   8.762  10.198   0.726
48413W        W20673  35.634   3.169  11.675
48414W        W20674   6.658  13.165  13.285
48415W        W20675  23.768   1.345   2.654
48416W        W20676  39.556  35.127   3.663
48417W        W20677  19.691  37.397   3.201
48418W        W20678  40.336  41.278  12.517
48419W        W20679  39.910  36.294   0.975
48420W        W20680  15.452  23.715   0.365
48421W        W20681  27.997  14.245  11.428
48422W        W20682   6.230  25.167   1.201
48423W        W20683  33.126  24.155  11.543
48424W        W20684  22.392  19.854   2.292
48425W        W20685   7.678  16.637  14.458
48426W        W20686  42.046  41.384  10.985
48427W        W20687  23.241   1.426  12.319
48428W        W20688  27.494  24.818  12.474
48429W        W20689   3.237  10.260  14.575
48430W        W20690  27.538   6.247  10.618
48431W        W20691  33.044  43.510  12.080
48432W        W20692  43.709  10.953  10.693
48433W        W20693  41.234   4.721   2.683
48434W        W20694  28.638  38.281  10.703
48435W        W20695  14.802   9.605   1.910
48436W        W20696  14.551  40.407   3.666
48437W        W20697  21.728  33.190   0.349
48438W        W20698  26.117  43.256  10.708
48439W        W20699  44.934  36.829  13.848
48440W        W20700  16.569  21.288   3.980
48441W        W20701  32.969   1.997   3.381
48442W        W20702   5.122   1.285   1.214
48443W        W20703  40.391   8.298   4.167
48444W        W20704   5.830  26.621  13.309
48445W        W20705   0.905  29.495   5.209
48446W        W20706  32.538  39.353  13.390
48447W        W20707  44.094  36.272   3.247
48448W        W20708  34.688  10.128  10.816
48449W        W20709  34.295  40.980  14.439
48450W        W20710  27.987  39.023   1.965
48451W        W20711  24.703   2.719  12.950
48452W        W20712  14.642  30.081   9.598
48453W        W20713   7.897  32.924  11.986
48454W        W20714  39.551   8.596   2.891
48455W        W20715  35.890  33.527   0.559
48456W        W20716  11.207  39.397  12.578
48457W        W20717  27.468   0.435  13.988
48458W        W20718  43.030   2.786  11.316
48459W        W20719   9.601  22.717   4.635
48460W        W20720  44.842  40.811   0.466
48461W        W20721  22.420   5.961   3.707
48462W        W20722   3.507  18.530  10.796
48463W        W20723  30.354  13.199   2.241
48464W        W20724  24.824  33.608  11.539
48465W        W20725  19.915  21.926  12.832
48466W        W20726   4.964   9.863  12.477
48467W        W20727  35.017  22.719   4.644
48468W        W20728  36.467  10.214  14.784
48469W        W20729  35.010  33.198   4.195
48470W        W20730  19.718  16.712   1.234
48471W        W20731  19.712  16.643   2.299
48472W        W20732  32.191  22.658   4.152
48473W        W20733  27.715  15.358  12.429
48474W        W20734  11.809  10.819  11.146
48475W        W20735   6.247  22.266  11.160
48476W        W20736  41.386  35.881  14.817
48477W        W20737   5.666  23.689   2.340
48478W        W20738  25.073  18.247  12.121
48479W        W20739  36.852  25.742   1.287
48480W        W20740  41.392  44.333   3.273
48481W        W20741  30.190  25.627   1.333
48482W        W20742  15.558  34.759   4.416
48483W        W20743   8.395  22.073  12.007
48484W        W20744  37.385  14.894   3.767
48485W        W20745  33.500   6.117  11.189
48486W        W20746   1.455  24.492  12.745
48487W        W20747   2.416   6.399   4.702
48488W        W20748   2.322   5.170   4.694
48489W        W20749  10.657  30.487  14.077
48490W        W20750  43.872  25.147   1.814
48491W        W20751  41.926  15.092  12.909
48492W        W20752  18.163   6.670   3.985
48493W        W20753  20.796  11.174   3.690
48494W        W20754  43.828  24.160   1.227
48495W        W20755  11.526  30.229   1.954
48496W        W20756  30.166  36.472  10.679
48497W        W20757  32.503  39.016  12.980
48498W        W20758  19.476  10.417   4.093
48499W        W20759  43.277  38.635   3.369
48500W        W20760  43.485  11.266   4.529
48501W        W20761  43.794  27.519  13.486
48502W        W20762  44.986  22.467  14.022
48503W        W20763  17.695  16.369  14.442
48504W        W20764  21.138  22.283   1.875
48505W        W20765  30.845  33.420   3.536
48506W        W20766  15.020  28.472   1.266
48507W        W20767  34.677  20.756  10.216
48508W        W20768  22.846  38.204   1.455
48509W        W20769  20.104  10.433   0.310
48510W        W20770   2.087  18.594   0.985
48511W        W20771   8.847   9.694   2.412
48512W        W20772   8.349  36.549   1.369
48513W        W20773  44.981   5.338   0.205
48514W        W20774  20.322  24.618  13.616
48515W        W20775  33.800  18.110   9.992
48516W        W20776  34.034  28.155   1.812
48517W        W20777  35.974   2.700  13.994
48518W        W20778  16.837  22.233  11.566
48519W        W20779  17.261  12.916  13.419
48520W        W20780  10.633   9.705   3.644
48521W        W20781  10.333  23.049   0.875
48522W        W20782  18.571  22.499   0.651
48523W        W20783   3.740  31.397   2.318
48524W        W20784  24.847  26.773  13.720
48525W        W20785   1.749  12.518  11.584
48526W        W20786  41.817  18.162   2.299
48527W        W20787  36.796   5.426   1.428
48528W        W20788   1.021  25.894   1.245
48529W        W20789   2.362  14.880   2.682
48530W        W20790  43.755   8.344   2.275
48531W        W20791  33.240  24.709   4.868
48532W        W20792   9.396  33.120   4.323
48533W        W20793  12.098   3.295  11.029
48534W        W20794  12.498   4.124  11.464
48535W        W20795  15.531  16.043   4.210
48536W        W20796  26.054   1.986   4.832
48537W        W20797  33.046  20.651  11.617
48538W        W20798   9.173  41.299   0.449
48539W        W20799  18.685  32.881  14.789
48540W        W20800   3.210  41.618  12.418
48541W        W20801  12.885  38.953  10.419
48542W        W20802  30.223   6.109  14.492
48543W        W20803  10.195  15.332   1.577
48544W        W20804  35.850  30.957  14.355
48545W        W20805  25.178  31.915  11.957
48546W        W20806  23.232  13.639  13.906
48547W        W20807  31.578   2.409   1.954
48548W        W20808  12.673  29.958  14.339
48549W        W20809  37.814  12.542  12.481
48550W        W20810   5.466  41.847  12.753
48551W        W20811  43.561   7.587  12.956
48552W        W20812  22.532  31.010  12.072
48553W        W20813  29.016  39.800  12.998
48554W        W20814  41.836  41.091   3.586
48555W        W20815  11.894   2.215  11.844
48556W        W20816  10.733  39.353  11.511
48557W        W20817  14.117  38.887   3.993
48558W        W20818  41.792  30.480   2.154
48559W        W20819  35.627  10.675  11.451
48560W        W20820  41.330  37.410  12.165
48561W        W20821  38.597   5.367  11.920
48562W        W20822  18.244  24.506   1.722
48563W        W20823  36.307  21.238  10.124
48564W        W20824  15.600  17.568   9.816
48565W        W20825   8.544   5.013   4.679
48566W        W20826  40.555  11.611  10.770
48567W        W20827  36.735  38.941   4.774
48568W        W20828  41.121  37.102   3.259
48569W        W20829  35.039  13.097   3.668
48570W        W20830  37.644  16.345   1.425
48571W        W20831  39.834  34.394  10.741
48572W        W20832  26.034  24.487   2.062
48573W        W20833  21.225  19.013   1.269
48574W        W20834  40.876  21.707  10.742
48575W        W20835  39.144  29.043  11.958
48576W        W20836  18.031  27.207  13.477
48577W        W20837  14.389  12.383   1.750
48578W        W20838   5.469  29.459   0.765
48579W        W20839   4.596  28.067   3.225
48580W        W20840  40.288  20.312  14.480
48581W        W20841  36.288  15.062   0.034
48582W        W20842   4.493   0.050   1.803
48583W        W20843  14.823  31.417   2.300
48584W        W20844  37.403   8.448  12.400
48585W        W20845  22.263  25.523   1.349
48586W        W20846  42.358  17.909  14.387
48587W        W20847  31.966  27.000   4.114
48588W        W20848  15.948  18.011   3.253
48589W        W20849  23.086   3.279   2.918
48590W        W20850  17.526  18.630   1.894
48591W        W20851  31.916  26.100   4.063
48592W        W20852  17.664  17.712  11.735
48593W        W20853  14.429   9.734  10.072
48594W        W20854  27.229  13.105  11.549
48595W        W20855  14.866  34.130   0.449
48596W        W20856  14.117  21.343   3.270
48597W        W20857  28.829   0.621   3.266
48598W        W20858   1.309  42.786  13.065
48599W        W20859  27.511  43.094  14.873
48600W        W20860  40.871  20.162   4.197
48601W        W20861  23.509  22.457  12.449
48602W        W20862   0.502  22.792   4.593
48603W        W20863   6.836  41.786  10.699
48604W        W20864  11.621  16.604  12.214
48605W        W20865  10.613  44.766  11.132
48606W        W20866   7.383  44.365  10.682
48607W        W20867  44.956  42.149   0.773
48608W        W20868   3.110  18.437   4.263
48609W        W20869   7.552  19.246  13.456
48610W        W20870  14.810  33.019   3.089
48611W        W20871  11.750  32.969   4.132
48612W        W20872  27.722  11.320   2.267
48613W        W20873  39.842  43.410  11.081
48614W        W20874  37.638  30.425   2.123
48615W        W20875  24.032  36.507  13.999
48616W        W20876  29.943   4.841  10.823
48617W        W20877  14.796  31.217   3.688
48618W        W20878  25.208   6.301  14.846
48619W        W20879  26.030   2.652   4.084
48620W        W20880  26.732  21.657  14.792
48621W        W20881  44.426  43.265  10.751
48622W        W20882  38.936  18.701   3.324
48623W        W20883  22.129  43.252   1.903
48624W        W20884   5.716  17.839  14.436
48625W        W20885  29.013  17.143   1.067
48626W        W20886  11.879  26.255   4.577
48627W        W20887  29.490   2.526   2.806
48628W        W20888  14.232  12.642  11.504
48629W        W20889   8.353  23.676   2.177
48630W        W20890  29.111  19.544  12.822
48631W        W20891   3.600   5.113  13.387
48632W        W20892  14.250   3.682   3.514
48633W        W20893   0.909  29.119  12.595
48634W        W20894   1.056  32.073   4.251
48635W        W20895  43.891  34.479  12.078
48636W        W20896  20.050  31.767   1.480
48637W        W20897  22.565  18.539   5.059
48638W        W20898  39.819  37.135  10.958
48639W        W20899   5.242  31.148   4.919
48640W        W20900   1.321  15.835  14.456
48641W        W20901  23.763  23.123  13.416
48642W        W20902  11.344  38.971   4.127
48643W        W20903  43.212  17.861  12.557
48644W        W20904  22.439  34.774  11.734
48645W        W20905  26.557  15.627   1.376
48646W        W20906   3.405  11.271   4.383
48647W        W20907  43.858  30.114  10.684
48648W        W20908  32.664  41.712   0.188
48649W        W20909  33.018  20.821   4.147
48650W        W20910  12.759   0.386   3.410
48651W        W20911  43.259  30.004  10.836
48652W        W20912   8.389  29.044   1.186
48653W        W20913  41.439   5.633  13.413
48654W        W20914  10.371  29.231  10.653
48655W        W20915  32.974   0.486   2.327
48656W        W20916  15.082   6.671  11.542
48657W        W20917  25.683   4.794   0.408
48658W        W20918  20.970  11.549  10.831
48659W        W20919  13.589  40.515   1.812
48660W        W20920  33.022   5.429   4.371
48661W        W20921  38.493  27.935  10.749
48662W        W20922   0.037  25.449   1.339
48663W        W20923  44.159  19.201   4.255
48664W        W20924  36.613  44.817   2.785
48665W        W20925  22.605  32.112   0.255
48666W        W20926  38.869  26.168  11.900
48667W        W20927  37.401  42.972   3.687
48668W        W20928  20.581   5.673  11.533
48669W        W20929  18.851  36.275  13.038
48670W        W20930  43.939  24.178   1.788
48671W        W20931  44.920  25.975   0.554
48672W        W20932  29.067  35.732  14.714
48673W        W20933  11.931  24.064   4.633
48674W        W20934  32.812  39.975   1.353
48675W        W20935  33.000  13.970  14.904
48676W        W20936  12.903   7.465   0.992
48677W        W20937   7.269  24.549   3.428
48678W        W20938  21.324   2.313   1.794
48679W        W20939  38.322   9.226   1.960
48680W        W20940  22.257  30.478   0.848
48681W        W20941  38.339  43.930  10.715
48682W        W20942   4.741  25.189  13.362
48683W        W20943  40.034  36.812  14.816
48684W        W20944  40.272  33.900   1.358
48685W        W20945  11.265  18.639  13.574
48686W        W20946   9.102  10.675   2.898
48687W        W20947   2.232  23.067   1.269
48688W        W20948  15.106  32.187   3.178
48689W        W20949  20.952   9.853  13.341
48690W        W20950   7.786  40.283   2.271
48691W        W20951  13.635  28.864   4.653
48692W        W20952   9.092  43.101   4.145
48693W        W20953  41.047  26.261   4.229
48694W        W20954  38.419  15.598  14.517
48695W        W20955  21.510  33.349   3.663
48696W        W20956  34.474  35.131   2.384
48697W        W20957  35.337  35.389  10.674
48698W        W20958  23.385  41.368  12.876
48699W        W20959  18.818  38.300   2.878
48700W        W20960   6.752  10.105   4.246
48701W        W20961   8.683  34.847  13.615
48702W        W20962   4.165  16.536  10.764
48703W        W20963  19.685  35.394  11.678
48704W        W20964   4.200  43.305   1.196
48705W        W20965  26.928  31.877   3.609
48706W        W20966   4.693  30.530  14.338
48707W        W20967  12.225   5.186   0.859
48708W        W20968   7.312  44.955  12.374
48709W        W20969  20.672  24.756   2.082
48710W        W20970  11.658  33.074  10.609
48711W        W20971  15.358   3.974   3.519
48712W        W20972  23.409  17.216   3.535
48713W        W20973  42.455  38.497  14.877
48714W        W20974  25.480   0.786   2.780
48715W        W20975   8.104  15.252   0.734
48716W        W20976  15.435   4.397   4.562
48717W        W20977  40.866  36.532  14.884
48718W        W20978  17.214   7.849   3.349
48719W        W20979  31.886  26.585   3.807
48720W        W20980   6.435  44.604   9.926
48721W        W20981   0.941  24.849   0.684
48722W        W20982  27.390  10.642  11.686
48723W        W20983  36.431   0.884  13.319
48724W        W20984  21.398  22.057   9.820
48725W        W20985  22.243   1.246   4.508
48726W        W20986  32.828  26.169  12.647
48727W        W20987  26.972  34.550   2.343
48728W        W20988  43.841  29.240   0.975
48729W        W20989  21.275  20.050  14.785
48730W        W20990  34.588   2.397  12.311
48731W        W20991  36.624  26.314   1.370
48732W        W20992  10.138  29.136  13.462
48733W        W20993  43.284  36.156   3.217
48734W        W20994   0.960  23.152  10.257
48735W        W20995  29.017   2.487  12.062
48736W        W20996   0.328  38.960  12.499
48737W        W20997  27.773   5.325  13.541
48738W        W20998  18.705  10.910   3.251
48739W        W20999  21.081  24.035   3.246
48740W        W21000   8.093   5.634   4.149
48741W        W21001  15.781   5.955   2.652
48742W        W21002   7.956  23.208   0.460
48743W        W21003  37.598  27.058   0.790
48744W        W21004  12.823   2.659   5.007
48745W        W21005  26.589  41.857  13.820
48746W        W21006  39.875  26.158   3.482
48747W        W21007   7.707  38.360  13.489
48748W        W21008  11.808  23.883   0.010
48749W        W21009  25.132  19.315   4.423
48750W        W21010  19.033  35.073  13.235
48751W        W21011   0.394   1.245   0.208
48752W        W21012  40.524  34.492   2.103
48753W        W21013  24.435  15.228  13.846
48754W        W21014  40.007  19.601   4.207
48755W        W21015  18.044  14.650   4.270
48756W        W21016  36.385  18.194   2.613
48757W        W21017  36.424  24.969  13.288
48758W        W21018  20.489   9.256  14.003
48759W        W21019   3.784  19.092   0.109
48760W        W21020   2.424   1.648  11.011
48761W        W21021  34.870   9.741  13.391
48762W        W21022  31.590  37.456   4.689
48763W        W21023  11.896   2.009  13.213
48764W        W21024   6.468   3.946   0.539
48765W        W21025  43.509  16.959   1.860
48766W        W21026   1.255   9.146  11.494
48767W        W21027  32.688  38.546   1.668
48768W        W21028   6.920  14.672  11.996
48769W        W21029  21.255  29.619  11.621
48770W        W21030   9.985   6.003   3.353
48771W        W21031   2.560  40.682  14.885
48772W        W21032   4.120  41.733  12.434
48773W        W21033  37.486  18.191   4.502
48774W        W21034  15.129  33.171  14.245
48775W        W21035   1.870   5.369   4.511
48776W        W21036   9.802  43.671   4.887
48777W        W21037  13.559  11.347  13.635
48778W        W21038  32.653  38.393   2.996
48779W        W21039  18.785  39.929   3.798
48780W        W21040   2.675  33.440  10.454
48781W        W21041  15.045  11.686  12.918
48782W        W21042  18.488  34.962  10.550
48783W        W21043  24.635  24.955  13.478
48784W        W21044  34.119  32.717  14.385
48785W        W21045  10.581   3.478  11.141
48786W        W21046  12.525  33.161  12.157
48787W        W21047  21.661   8.175  12.132
48788W        W21048  35.453  26.465   3.652
48789W        W21049  11.992   5.202   3.739
48790W        W21050   2.084  25.017  11.604
48791W        W21051  34.645  34.311  14.073
48792W        W21052   5.005   6.593   0.369
48793W        W21053  29.796   2.218  12.902
48794W        W21054  36.506  29.129  11.561
48795W        W21055  25.565  13.287  12.660
48796W        W21056   1.448  24.249   4.791
48797W        W21057  29.177  29.030   4.567
48798W        W21058  42.730  35.672   0.535
48799W        W21059  18.171   4.999  13.699
48800W        W21060  42.564  32.986  11.079
48801W        W21061  16.676  22.197  11.085
48802W        W21062  22.158  11.331  14.963
48803W        W21063   2.963   1.912  10.570
48804W        W21064  22.718   6.743   1.835
48805W        W21065   8.404  41.361  10.930
48806W        W21066  30.342   0.936   3.039
48807W        W21067  27.545  10.395   2.579
48808W        W21068   4.244  32.449   1.689
48809W        W21069  40.764  39.495  10.181
48810W        W21070  37.385  40.469  14.841
48811W        W21071  14.230  37.972  14.301
48812W        W21072  26.338  13.098   0.037
48813W        W21073  15.815  21.060   3.618
48814W        W21074  11.365  29.597  12.589
48815W        W21075  27.256  39.811   9.847
48816W        W21076  18.173   1.153  14.348
48817W        W21077  29.566   5.422   2.422
48818W        W21078  35.429  14.161  13.327
48819W        W21079   4.356  44.393  11.645
48820W        W21080  34.009  28.158  14.793
48821W        W21081  35.096  38.362   3.288
48822W        W21082   3.330  30.722  11.927
48823W        W21083  27.418  20.686  10.527
48824W        W21084  23.215  30.606   2.869
48825W        W21085  22.990  18.081  14.054
48826W        W21086   9.441   2.298  12.900
48827W        W21087   1.742  31.457   1.588
48828W        W21088  19.510  43.305   1.295
48829W        W21089  24.571  18.958   0.429
48830W        W21090   4.397  18.260   2.773
48831W        W21091   8.692  19.111   3.139
48832W        W21092  28.379  17.620   1.536
48833W        W21093  36.895  11.399   3.891
48834W        W21094  43.394  44.242  12.520
48835W        W21095   1.317   1.505   3.746
48836W        W21096  23.505  35.125  11.945
48837W        W21097  29.549  44.906  14.616
48838W        W21098  21.747  10.896   1.322
48839W        W21099  30.355  15.244  14.830
48840W        W21100  41.923  34.838   4.723
48841W        W21101   9.983  29.672   4.913
48842W        W21102  16.628  42.171  14.352
48843W        W21103   7.791   1.874  13.829
48844W        W21104  36.862  27.261   1.222
48845W        W21105  37.438  23.697  10.807
48846W        W21106  20.507   7.164  11.172
48847W        W21107  41.298  35.301  13.789
48848W        W21108  21.102  33.644  11.342
48849W        W21109   7.137  43.388  13.571
48850W        W21110  39.444   0.271   0.115
48851W        W21111  37.828  13.567  13.905
48852W        W21112  26.239  37.830  14.687
48853W        W21113  24.691   1.824   3.550
48854W        W21114  37.950  12.091   1.515
48855W        W21115  17.662   3.794   1.630
48856W        W21116   3.189  37.163  14.307
48857W        W21117  25.063  21.413   3.194
48858W        W21118  35.066  34.604  11.597
48859W        W21119   1.526  21.313   4.540
48860W        W21120  22.078  17.240  11.565
48861W        W21121  14.752  35.934   3.841
48862W        W21122  32.419  22.510  14.826
48863W        W21123  30.314   7.722   2.235
48864W        W21124  30.424  24.403  12.377
48865W        W21125  10.340  38.953   2.252
48866W        W21126  23.199  40.237   2.852
48867W        W21127  34.622  43.433  10.958
48868W        W21128   8.588  16.112   2.869
48869W        W21129  15.071   3.819   1.927
48870W        W21130   2.943  20.259  13.360
48871W        W21131   9.737   0.986  10.668
48872W        W21132  20.775  34.900  13.281
48873W        W21133  19.200   2.864  14.731
48874W        W21134  32.002  27.402  12.292
48875W        W21135  10.461   0.872  12.778
48876W        W21136  22.292  34.952  11.283
48877W        W21137  10.417  28.918   1.165
48878W        W21138   6.327  31.214  13.422
48879W        W21139   4.237  34.039  12.428
48880W        W21140   8.910  43.628   2.882
48881W        W21141  41.022  22.746  12.907
48882W        W21142  23.591  16.224   3.175
48883W        W21143   2.508  21.638  12.828
48884W        W21144  41.386  15.013   3.098
48885W        W21145  21.220  38.550   1.316
48886W        W21146  29.026  20.571   1.725
48887W        W21147   6.876  24.330  14.211
48888W        W21148   2.930  31.488  14.453
48889W        W21149  19.741  23.756   2.363
48890W        W21150  44.728   2.340  11.728
48891W        W21151   7.684  23.137   1.731
48892W        W21152  38.569  35.906   0.744
48893W        W21153  14.640   4.620   4.087
48894W        W21154  19.844   4.822   2.856
48895W        W21155  33.909  34.866  12.870
48896W        W21156  33.509  33.986   3.105
48897W        W21157  27.628  33.073  11.466
48898W        W21158  37.586  30.000   0.981
48899W        W21159  21.452  19.836   4.055
48900W        W21160   1.978  28.534  11.163
48901W        W21161  43.295  24.063  13.482
48902W        W21162   0.660  42.859  11.178
48903W        W21163  39.034   2.623   4.258
48904W        W21164   0.033  22.198  10.676
48905W        W21165  11.314   2.948   0.009
48906W        W21166  17.842  36.759  11.669
48907W        W21167  36.897  15.818   3.663
48908W        W21168  24.534  34.395  12.037
48909W        W21169  37.985  23.720   5.129
48910W        W21170  28.781  21.436  14.975
48911W        W21171   0.650  24.193   0.845
48912W        W21172  19.947   5.341   3.708
48913W        W21173  37.344   9.130   5.074
48914W        W21174  23.010   3.725  13.451
48915W        W21175  24.142   6.349   1.770
48916W        W21176   8.432   9.150   2.887
48917W        W21177  38.296  20.650  13.912
48918W        W21178  31.214  11.412   0.478
48919W        W21179  31.451  42.126  12.153
48920W        W21180  28.660  26.500  12.031
48921W        W21181  16.198   6.838   3.687
48922W        W21182  30.850  33.990  12.463
48923W        W21183  38.274   2.740  12.561
48924W        W21184  14.141  34.088  14.767
48925W        W21185  22.667  39.996  13.585
48926W        W21186   9.112  25.532  12.094
48927W        W21187  44.466   0.127  12.859
48928W        W21188  27.427  26.581   1.887
48929W        W21189  25.203  31.917  14.402
48930W        W21190  17.737  23.483   0.390
48931W        W21191  13.496  30.896   4.652
48932W        W21192   1.943  26.712   0.798
48933W        W21193  28.562  36.406  13.763
48934W        W21194   1.172  31.357  14.742
48935W        W21195  36.867  35.879   4.410
48936W        W21196   8.352  31.823  10.729
48937W        W21197  30.009  42.456   1.722
48938W        W21198  19.746  37.858   0.232
48939W        W21199  39.943   5.342   0.287
48940W        W21200  16.817  35.456  14.569
48941W        W21201  25.189  44.281   3.869
48942W        W21202   4.438  10.874  14.774
48943W        W21203  42.741  21.989  13.979
48944W        W21204  27.326  24.441   1.909
48945W        W21205   8.692  11.210   1.941
48946W        W21206  36.897  40.379   4.133
48947W        W21207  22.254  38.499  11.124
48948W        W21208  27.969  21.245  10.740
48949W        W21209  38.278  38.256   4.120
48950W        W21210  41.287  17.128   4.746
48951W        W21211  23.149  40.497  12.428
48952W        W21212  36.521   6.984  13.013
48953W        W21213  20.099  25.083  11.251
48954W        W21214  20.479  44.207  13.532
48955W        W21215  28.579  32.131   0.802
48956W        W21216  39.043  17.348   2.713
48957W        W21217  12.826  14.090  11.097
48958W        W21218  21.714  28.155   2.723
48959W        W21219  43.987  38.637  12.958
48960W        W21220  10.184  36.964   3.473
48961W        W21221  36.054   1.770   2.346
48962W        W21222  15.530  11.408  11.644
48963W        W21223  13.172  31.997  11.651
48964W        W21224  28.649  38.978  14.402
48965W        W21225  26.946  26.751  10.715
48966W        W21226   3.173  31.977  12.943
48967W        W21227  24.578   5.632   0.190
48968W        W21228   6.809  28.205   2.817
48969W        W21229  31.212  41.200  10.392
48970W        W21230  19.276   5.310   5.115
48971W        W21231  18.587  42.830  11.925
48972W        W21232  33.990   4.385  14.339
48973W        W21233  23.139  24.678  11.885
48974W        W21234  28.140   0.404  10.725
48975W        W21235  21.513  23.055   0.862
48976W        W21236  39.138  22.569  11.099
48977W        W21237   5.278   7.209  12.090
48978W        W21238  11.102  34.549   2.960
48979W        W21239   4.671  22.014  14.082
48980W        W21240   0.308  22.923  14.492
48981W        W21241  29.161   9.802   1.687
48982W        W21242   1.529  21.514  13.884
48983W        W21243  34.400  37.618   2.834
48984W        W21244  28.634   7.876  14.437
48985W        W21245  33.198  33.230  13.580
48986W        W21246  31.374  11.125  13.676
48987W        W21247   0.220  22.182   3.799
48988W        W21248  12.656  33.418   2.271
48989W        W21249  43.729  15.386   2.975
48990W        W21250  39.575  37.105  11.467
48991W        W21251  26.723  16.023  14.290
48992W        W21252  28.170  40.385   4.196
48993W        W21253   4.181  27.792  10.977
48994W        W21254  17.228   9.234  14.699
48995W        W21255  32.999  13.941  11.926
48996W        W21256   9.196   1.970   1.238
48997W        W21257  14.254  15.660  10.950
48998W        W21258  19.114  17.397   4.679
48999W        W21259  30.161   5.459   3.257
49000W        W21260  12.153  31.628  13.825
49001W        W21261   0.563   1.888  10.853
49002W        W21262  26.156  38.527   0.872
49003W        W21263  34.119  26.774  14.902
49004W        W21264  26.672   9.797   9.915
49005W        W21265  34.550  44.215   2.281
49006W        W21266  11.610  44.857   2.910
49007W        W21267  32.134  31.525   1.762
49008W        W21268   6.187  25.629   4.649
49009W        W21269  37.926  19.189  11.170
49010W        W21270   8.727  18.243  13.930
49011W        W21271  41.315  10.485  14.427
49012W        W21272  10.680  34.944  10.728
49013W        W21273  10.066  16.210   1.763
49014W        W21274  10.832  34.964  14.454
49015W        W21275  39.047  12.819   1.011
49016W        W21276  21.737   7.568  13.753
49017W        W21277  30.532  37.944   0.696
49018W        W21278  41.569  22.969   1.776
49019W        W21279  18.178  43.529  10.423
49020W        W21280  13.607  32.925  14.960
49021W        W21281  22.162  17.751  11.283
49022W        W21282   3.759  26.999  13.890
49023W        W21283   6.861   0.833  13.089
49024W        W21284  42.511  43.205   3.197
49025W        W21285  40.759   3.928   2.153
49026W        W21286  29.631  29.398   0.659
49027W        W21287   6.330  40.184  13.585
49028W        W21288  21.162  42.342  10.968
49029W        W21289  14.676  25.655   1.354
49030W        W21290  16.788   0.257   0.938
49031W        W21291  30.473   0.854   0.019
49032W        W21292  11.715   9.958   1.691
49033W        W21293  14.605   3.104  11.657
49034W        W21294  38.917  35.561  11.610
49035W        W21295  29.889  25.017  12.546
49036W        W21296   4.862   4.812  13.467
49037W        W21297  10.379  18.021  12.589
49038W        W21298   7.443  39.064   3.179
49039W        W21299  38.842   9.613  14.868
49040W        W21300  30.386  21.210  12.009
49041W        W21301  30.389  36.788   0.826
49042W        W21302   8.688  30.642  11.511
49043W        W21303  39.778  16.471   4.334
49044W        W21304  10.959  35.718  11.145
49045W        W21305  29.755   2.371   1.258
49046W        W21306  23.673  29.002  13.880
49047W        W21307  43.323  17.921  14.428
49048W        W21308  10.216  16.714   4.655
49049W        W21309  42.509  41.270  13.887
49050W        W21310   9.649  11.212   1.409
49051W        W21311  28.752  23.637  10.655
49052W        W21312   7.532  15.015  12.982
49053W        W21313  13.721  14.124  11.904
49054W        W21314   4.115   9.552  11.592
49055W        W21315  34.933  13.128   2.265
49056W        W21316  44.811  44.965   2.790
49057W        W21317  39.561  24.116  14.767
49058W        W21318  41.809  38.023  10.957
49059W        W21319  14.322  29.476   1.293
49060W        W21320   8.477   7.391   2.183
49061W        W21321  37.009  11.872   1.381
49062W        W21322   1.445  40.119  12.107
49063W        W21323   5.343  36.558  11.628
49064W        W21324  12.220  33.650   0.566
49065W        W21325   1.714  17.719   1.388
49066W        W21326   7.757  10.197   1.666
49067W        W21327  26.074  25.475  14.998
49068W        W21328  20.694  22.819  10.720
49069W        W21329  12.637  33.487  11.745
49070W        W21330  17.558  16.809   3.071
49071W        W21331  12.197   8.163   0.013
49072W        W21332   1.763  14.952  11.169
49073W        W21333  40.529  14.603  14.966
49074W        W21334   9.385  10.788   1.547
49075W        W21335  35.049   5.941   3.711
49076W        W21336  10.942  14.125  11.388
49077W        W21337  36.315  28.193   4.255
49078W        W21338  12.789  28.896   3.117
49079W        W21339   5.579  29.743  12.929
49080W        W21340  20.592  37.174  13.533
49081W        W21341  34.537   1.594  11.325
49082W        W21342   6.252  33.631  11.157
49083W        W21343  28.694  26.904   1.973
49084W        W21344  16.118  24.254   1.803
49085W        W21345  38.861  27.705  13.950
49086W        W21346   3.279  12.702  13.876
49087W        W21347  25.914  40.860   3.550
49088W        W21348  39.404  22.797  12.514
49089W        W21349  27.521  39.591  13.420
49090W        W21350  19.590  42.573   3.948
49091W        W21351  40.466  16.767  14.888
49092W        W21352  19.968  10.353  10.718
49093W        W21353  15.580  24.265  12.553
49094W        W21354  11.098   9.248  11.539
49095W        W21355  33.768  37.341   4.585
49096W        W21356  36.331  42.781   1.284
49097W        W21357  13.489   3.486   3.288
49098W        W21358   0.327  20.684   4.464
49099W        W21359  22.051  44.716   4.376
49100W        W21360  14.642  24.600   4.586
49101W        W21361  27.747  36.649   4.632
49102W        W21362  18.468  18.837  13.865
49103W        W21363  19.190  29.292  14.532
49104W        W21364  29.362   7.177  14.414
49105W        W21365  12.518   2.806  12.949
49106W        W21366  43.516  23.891  13.936
49107W        W21367  15.722  33.683   2.862
49108W        W21368  19.776  16.439  13.066
49109W        W21369  35.594  16.967   3.576
49110W        W21370  22.632  16.645   2.879
49111W        W21371   6.222  41.236  14.320
49112W        W21372  24.248  39.220   3.819
49113W        W21373  44.514   3.686  10.799
49114W        W21374   3.479  18.153  11.174
49115W        W21375   0.230   2.182  11.657
49116W        W21376   1.433  28.531  14.472
49117W        W21377  24.540   1.294  13.888
49118W        W21378  36.595  29.577  12.468
49119W        W21379  44.843   6.277   1.562
49120W        W21380  29.685  24.161   3.492
49121W        W21381  43.301   1.483   3.259
49122W        W21382  10.393  33.490   2.647
49123W        W21383  19.306  43.661  11.559
49124W        W21384  16.279   7.816   1.283
49125W        W21385  40.620  19.583  13.439
49126W        W21386  38.963  28.083  11.970
49127W        W21387  35.466  42.577  13.473
49128W        W21388  17.735   5.314  13.668
49129W        W21389  10.803   0.414  14.493
49130W        W21390   0.888  33.932  11.179
49131W        W21391  18.158  14.818   3.776
49132W        W21392   8.603   0.334  14.874
49133W        W21393  35.451   0.479  11.342
49134W        W21394  18.815  11.675  13.513
49135W        W21395  31.143   1.049  12.820
49136W        W21396  10.958  18.888   0.861
49137W        W21397  32.298  16.520   3.710
49138W        W21398  39.531  10.229  14.909
49139W        W21399  38.764   3.346   3.800
49140W        W21400  40.509  41.002   2.884
49141W        W21401  32.974  28.764  11.571
49142W        W21402  26.172  19.636  13.896
49143W        W21403  44.872  33.575   1.265
49144W        W21404  42.454  26.795  12.078
49145W        W21405  28.950  29.736   3.857
49146W        W21406  34.596  24.547   2.859
49147W        W21407  19.021  14.750   0.309
49148W        W21408  42.079  29.473  13.258
49149W        W21409  35.492  18.906  10.182
49150W        W21410  42.182   5.428  12.864
49151W        W21411  12.800  15.233   3.609
49152W        W21412  29.056  21.901  14.914
49153W        W21413  33.862  26.021  13.102
49154W        W21414  15.394   1.296  12.470
49155W        W21415  24.022   5.911   3.159
49156W        W21416  10.596  18.656  12.178
49157W        W21417  36.466  20.857  12.853
49158W        W21418  42.281  10.084   2.276
49159W        W21419  27.516  42.547  14.904
49160W        W21420  20.553  11.181   2.402
49161W        W21421   4.392  25.912   4.750
49162W        W21422  33.989  35.443   4.894
49163W        W21423  25.586  22.727   1.730
49164W        W21424   5.472  39.775  11.621
49165W        W21425  25.999  11.630  12.417
49166W        W21426   3.796   1.407  12.524
49167W        W21427  13.390  40.727  11.160
49168W        W21428   3.546  20.711  11.074
49169W        W21429  43.719  36.590  13.071
49170W        W21430   9.716   5.665  11.190
49171W        W21431   0.621   6.982   9.983
49172W        W21432  11.588  39.379  12.941
49173W        W21433  23.424  30.061  12.401
49174W        W21434   4.802  21.965   0.504
49175W        W21435   4.368  43.744   4.268
49176W        W21436  41.336  37.270  14.739
49177W        W21437   0.718  24.400  10.777
49178W        W21438  15.466  17.672   0.274
49179W        W21439   4.807  23.439   2.532
49180W        W21440   4.411   7.427  12.951
49181W        W21441  21.027   4.766  14.956
49182W        W21442   3.235  16.774   4.127
49183W        W21443  13.608  43.484  14.727
49184W        W21444  15.288   2.723   4.833
49185W        W21445  10.152  41.191  13.009
49186W        W21446  32.667  31.664  14.595
49187W        W21447  14.493  16.898  12.462
49188W        W21448  41.800  41.276  12.511
49189W        W21449  18.473  31.784   5.053
49190W        W21450  32.647  13.659   4.450
49191W        W21451  18.257  23.212   3.617
49192W        W21452  11.769  37.451  13.958
49193W        W21453   6.295  40.339  13.087
49194W        W21454  23.280  38.386  14.293
49195W        W21455   8.153  33.119  11.574
49196W        W21456  24.939  38.584   2.014
49197W        W21457  39.404  41.483   3.374
49198W        W21458  16.746  14.579   3.642
49199W        W21459   4.048   5.704  14.373
49200W        W21460   5.867  29.119   4.190
49201W        W21461  24.109  24.196   2.119
49202W        W21462  24.114  44.687   5.208
49203W        W21463   0.050  24.662   0.619
49204W        W21464  25.594  29.347  12.973
49205W        W21465   6.335  22.929   4.450
49206W        W21466  17.079  31.734  11.443
49207W        W21467  15.704  36.494   0.459
49208W        W21468  15.970  41.100  13.656
49209W        W21469   9.595  14.322   4.938
49210W        W21470  33.047  16.395  12.952
49211W        W21471  12.332  22.573   1.296
49212W        W21472   6.994   4.808   4.176
49213W        W21473  44.424  15.563   1.661
49214W        W21474  21.782  37.054  11.869
49215W        W21475   3.925  44.404   2.664
49216W        W21476  17.270  22.111  10.248
49217W        W21477  26.131  21.025  12.307
49218W        W21478  12.085  10.208   4.203
49219W        W21479  39.953  30.858  11.169
49220W        W21480  26.239  30.483   4.799
49221W        W21481  29.692  33.419   0.390
49222W        W21482   7.686  24.894   1.237
49223W        W21483  18.449   2.753  10.854
49224W        W21484   7.492  17.202   0.303
49225W        W21485   6.806  14.210   0.996
49226W        W21486  18.795  39.336  11.074
49227W        W21487  34.166   9.454  11.081
49228W        W21488   1.384   9.193   4.107
49229W        W21489   9.890  34.926   3.112
49230W        W21490  43.571   9.200   1.985
49231W        W21491  32.232   3.906  10.391
49232W        W21492  43.236  16.861  12.920
49233W        W21493   4.304  10.875   3.144
49234W        W21494  35.742  32.047   3.770
49235W        W21495  18.924  10.209  13.870
49236W        W21496   3.732  33.909  12.444
49237W        W21497   4.758  41.805   2.392
49238W        W21498  14.958  10.316   3.754
49239W        W21499  36.966  38.851   3.781
49240W        W21500  32.334  11.286  10.721
49241W        W21501   7.717  12.890   1.858
49242W        W21502  34.492  27.146   0.640
49243W        W21503  20.939  22.195  11.312
49244W        W21504   2.976   1.399  12.954
49245W        W21505  33.928  41.746   0.955
49246W        W21506  17.792  33.629   2.162
49247W        W21507  44.329  29.700   1.050
49248W        W21508  18.120  32.792   0.583
49249W        W21509  32.025  42.324  13.464
49250W        W21510  13.035   9.266   3.777
49251W        W21511   8.966  28.702  11.681
49252W        W21512  25.708   5.370  14.727
49253W        W21513  20.192  15.852   3.192
49254W        W21514  38.776  23.036   1.413
49255W        W21515  42.585   3.272   3.831
49256W        W21516   3.869  16.332   4.695
49257W        W21517  15.792  23.439  13.166
49258W        W21518  29.552  35.437   3.626
49259W        W21519   9.959  17.818  14.445
49260W        W21520  13.449  16.454  10.131
49261W        W21521  28.767  21.991   2.892
49262W        W21522   9.176  39.902   2.150
49263W        W21523  33.551  38.274   3.157
49264W        W21524  15.518  33.605  10.579
49265W        W21525  18.617  21.773  12.526
49266W        W21526   6.437  23.674   1.885
49267W        W21527  24.526   2.650   0.371
49268W        W21528   9.681  14.213  13.449
49269W        W21529   1.683  32.115  12.332
49270W        W21530  42.518  11.145  14.483
49271W        W21531   6.750  23.752   4.665
49272W        W21532  13.295  15.201   2.370
49273W        W21533  17.171  23.670  10.568
49274W        W21534  26.885  35.919  10.509
49275W        W21535   7.005  29.457  13.040
49276W        W21536  27.908  17.552   1.339
49277W        W21537  30.474  22.142  11.526
49278W        W21538   9.686  19.795  12.950
49279W        W21539  35.962  10.128   4.591
49280W        W21540  36.161   0.449  11.110
49281W        W21541  25.151  23.550   4.102
49282W        W21542  29.720  33.546   3.633
49283W        W21543  27.102   0.581   1.776
49284W        W21544  15.287  13.059  13.287
49285W        W21545  28.213  19.019   1.274
49286W        W21546  41.137  32.238   2.698
49287W        W21547   7.841  34.353  12.124
49288W        W21548  37.598   5.902   2.842
49289W        W21549   2.753  13.100  11.644
49290W        W21550  20.726  28.446  11.145
49291W        W21551  20.304  12.135  11.957
49292W        W21552  29.242  35.785  11.181
49293W        W21553   8.752  27.294   1.879
49294W        W21554   1.654  29.863   0.446
49295W        W21555  41.440  36.816   1.940
49296W        W21556  40.080  18.716   4.234
49297W        W21557  19.678  38.149  11.227
49298W        W21558  43.683  42.459   3.804
49299W        W21559  32.617  28.207   2.227
49300W        W21560   0.727  41.604  14.854
49301W        W21561  12.071  12.669  13.790
49302W        W21562  13.382  20.236  12.711
49303W        W21563  29.553  40.732   1.746
49304W        W21564  33.974  36.452   2.483
49305W        W21565  16.981  20.664   1.133
49306W        W21566  27.526  27.206  11.411
49307W        W21567  20.219  37.261   1.939
49308W        W21568   4.752  10.323   0.425
49309W        W21569  30.519   4.096  11.511
49310W        W21570  37.740  14.214  11.888
49311W        W21571  25.329  39.668  10.288
49312W        W21572  40.035  11.918   3.627
49313W        W21573  34.051  11.746  11.586
49314W        W21574  43.498  10.788   2.262
49315W        W21575  24.583  11.972  11.760
49316W        W21576  37.915  25.988  12.788
49317W        W21577  34.467  33.875   1.857
49318W        W21578  31.076  20.203   2.163
49319W        W21579  26.737  13.099  11.071
49320W        W21580   5.390  37.532   2.086
49321W        W21581  35.119  34.491   0.331
49322W        W21582  30.127   7.673   3.578
49323W        W21583  20.465  27.245   2.276
49324W        W21584  36.725  14.036  10.436
49325W        W21585  19.602  11.335  10.254
49326W        W21586  32.815  26.702  14.428
49327W        W21587  40.852  43.945   2.981
49328W        W21588  31.174  32.009   4.660
49329W        W21589   6.243  13.353   0.665
49330W        W21590  42.908  20.050  11.583
49331W        W21591  14.665  16.561  10.912
49332W        W21592  38.852   6.132  12.919
49333W        W21593   7.768  12.942   0.949
49334W        W21594   4.384  14.163   3.397
49335W        W21595   7.546   4.237  12.880
49336W        W21596   3.511  12.838   2.815
49337W        W21597  43.555   9.124   5.033
49338W        W21598  19.043  19.342  14.398
49339W        W21599   4.881  21.541   3.670
49340W        W21600  37.815  22.696  14.869
49341W        W21601  13.828  23.732  12.146
49342W        W21602  19.270  10.598  12.935
49343W        W21603  39.614  18.992   2.354
49344W        W21604  16.319  33.202  12.775
49345W        W21605  42.723   4.399  13.633
49346W        W21606  34.109  42.771  12.503
49347W        W21607  25.800  23.309   1.887
49348W        W21608   8.701  39.326  14.041
49349W        W21609  41.334  16.977  11.988
49350W        W21610   6.137  20.066   0.022
49351W        W21611  16.868  26.963  10.577
49352W        W21612  36.232   2.616   1.841
49353W        W21613   8.185  26.761  12.858
49354W        W21614   4.896  35.402  13.809
49355W        W21615  28.404  37.061   3.342
49356W        W21616  30.433  22.749   4.232
49357W        W21617  23.297   8.152   0.237
49358W        W21618  19.506  25.121   1.914
49359W        W21619  12.835   0.494   4.356
49360W        W21620  14.237  39.083  10.989
49361W        W21621  21.184  14.914   3.670
49362W        W21622  29.232  31.508  12.080
49363W        W21623  19.305  18.560  12.137
49364W        W21624  38.522  27.738  12.574
49365W        W21625  23.574  15.737   1.951
49366W        W21626  23.052   4.150   2.747
49367W        W21627  24.065  23.527   0.996
49368W        W21628   5.182  27.138  14.768
49369W        W21629   2.244  22.514  13.307
49370W        W21630  36.701  20.653   4.649
49371W        W21631  44.308  12.590   1.912
49372W        W21632  24.951  44.256   0.644
49373W        W21633  20.750  31.073  12.956
49374W        W21634   2.822  42.942  14.027
49375W        W21635  20.445  33.972  13.463
49376W        W21636   2.587   8.948   2.766
49377W        W21637  11.733  41.869   4.818
49378W        W21638  10.764  28.851  11.775
49379W        W21639  30.754   3.847   3.326
49380W        W21640  35.156  36.555   1.290
49381W        W21641  31.604  36.151  13.189
49382W        W21642  38.457  39.282  13.576
49383W        W21643  39.067  18.262   2.141
49384W        W21644  41.696  25.562   3.083
49385W        W21645   7.643  21.712   0.936
49386W        W21646  43.904  10.482  10.472
49387W        W21647  43.058   9.537   4.581
49388W        W21648  12.583  22.681  12.939
49389W        W21649  16.078  18.777   1.460
49390W        W21650  22.020   3.461   3.700
49391W        W21651   1.967  42.421   4.735
49392W        W21652  23.063  40.541   3.266
49393W        W21653   6.812  31.567   4.342
49394W        W21654  36.365  23.737   1.440
49395W        W21655  28.882  29.132  12.922
49396W        W21656  30.059  29.636   0.458
49397W        W21657  39.822  43.484  13.364
49398W        W21658  30.707  40.519  12.996
49399W        W21659  30.925  39.510  12.006
49400W        W21660  30.110  21.429   2.758
49401W        W21661   9.614  44.349   0.996
49402W        W21662  26.149  14.717  14.045
49403W        W21663   6.918  32.515   4.322
49404W        W21664  24.774  44.926  13.245
49405W        W21665  44.195  35.907   4.133
49406W        W21666   2.803  29.077  14.946
49407W        W21667   1.891  34.315  12.438
49408W        W21668   9.111  23.261   3.218
49409W        W21669  15.961  34.970  10.638
49410W        W21670   6.049  28.082  13.373
49411W        W21671  24.006  17.660   1.172
49412W        W21672  44.378  30.132   2.772
49413W        W21673  41.832   7.315   0.174
49414W        W21674  27.124  21.508   3.612
49415W        W21675  13.110  34.271  10.320
49416W        W21676  26.699  27.228   2.816
49417W        W21677  39.517  13.310   4.522
49418W        W21678   6.223  12.877   3.157
49419W        W21679  43.565  16.432   1.634
49420W        W21680  15.352   2.366  13.786
49421W        W21681  43.315   6.490   3.539
49422W        W21682  35.421  34.098   2.189
49423W        W21683  25.895  28.232  14.010
49424W        W21684   6.059   7.300  11.695
49425W        W21685  24.620  43.942   0.289
49426W        W21686  32.021  12.837   1.643
49427W        W21687  41.124  26.880  14.029
49428W        W21688  32.286  13.468  11.580
49429W        W21689  43.261  29.620   3.286
49430W        W21690  40.854  15.614   4.565
49431W        W21691  23.497  20.519   5.331
49432W        W21692  10.508  12.246  13.976
49433W        W21693  37.963  14.241   4.300
49434W        W21694  29.177   4.911   1.924
49435W        W21695  15.801  21.270   4.939
49436W        W21696  19.353   3.665  10.332
49437W        W21697  29.182  23.917  11.966
49438W        W21698  31.846  13.313  13.284
49439W        W21699  18.014  42.044  14.395
49440W        W21700  16.280   2.257   1.135
49441W        W21701  28.805  26.602   3.707
49442W        W21702  18.241  12.207   1.930
49443W        W21703  11.544  14.055   3.684
49444W        W21704  35.473  31.078   2.710
49445W        W21705  27.354  23.814   4.884
49446W        W21706  35.643  44.515  13.550
49447W        W21707  33.553  25.093  14.738
49448W        W21708  42.244  39.280  12.069
49449W        W21709  19.188  23.726   1.231
49450W        W21710   1.940  40.648   3.669
49451W        W21711   7.326   9.303   3.257
49452W        W21712  16.641   9.128   2.856
49453W        W21713  33.877  20.526   4.659
49454W        W21714   3.599  28.181   3.282
49455W        W21715   4.679  26.441  13.931
49456W        W21716   5.445  30.037  14.443
49457W        W21717  12.096  33.070  13.636
49458W        W21718  41.397  44.278   0.172
49459W        W21719   1.471  29.184  12.071
49460W        W21720  30.321   5.654   4.578
49461W        W21721  15.480  20.030   0.089
49462W        W21722  21.948  29.120   2.871
49463W        W21723  35.893  42.576  10.766
49464W        W21724  17.869  33.886  12.857
49465W        W21725   4.897  30.907   3.127
49466W        W21726  37.512  35.660   4.110
49467W        W21727  15.094  29.546   2.288
49468W        W21728  41.361  34.772   3.629
49469W        W21729  18.523  43.917   3.711
49470W        W21730  24.244  27.953  11.929
49471W        W21731  21.744  23.138  11.163
49472W        W21732   5.044  32.611  14.157
49473W        W21733  40.448   0.598   0.546
49474W        W21734  32.646  18.697  14.617
49475W        W21735  18.030  18.957  13.475
49476W        W21736  20.415  15.105   3.989
49477W        W21737  16.131   7.873  13.406
49478W        W21738  24.703  19.710  11.504
49479W        W21739   5.218  44.792   0.666
49480W        W21740  33.561  13.136   2.689
49481W        W21741  38.351  17.634  11.555
49482W        W21742   2.707  39.924  14.312
49483W        W21743  16.216  33.059  10.652
49484W        W21744   0.459   1.426   4.034
49485W        W21745  13.795  43.740   0.547
49486W        W21746  42.069  40.328   0.060
49487W        W21747  15.834  13.610  12.026
49488W        W21748  13.057  16.402   1.679
49489W        W21749   9.372   7.905  11.111
49490W        W21750   5.253  16.486  12.501
49491W        W21751  35.988  11.073  13.971
49492W        W21752  33.102   6.185   1.920
49493W        W21753  38.993  21.003  13.474
49494W        W21754   2.452   1.037   3.121
49495W        W21755   0.693   3.145   4.009
49496W        W21756  41.879  33.143  10.601
49497W        W21757  17.712  42.531  12.939
49498W        W21758  27.139  24.115   0.413
49499W        W21759  43.745  26.529  13.482
49500W        W21760  16.559   2.767   0.292
49501W        W21761   4.118  24.050  14.279
49502W        W21762  40.849  15.738   5.073
49503W        W21763   2.847  36.543   0.060
49504W        W21764  40.506  20.524   0.307
49505W        W21765  21.694  27.610   5.355
49506W        W21766  23.112   2.982   2.480
49507W        W21767  20.135   5.847   3.107
49508W        W21768  31.797   9.745   0.261
49509W        W21769  18.850  18.718   2.791
49510W        W21770  16.195   2.895   4.501
49511W        W21771  34.810  40.343  11.921
49512W        W21772  27.593  25.457  10.730
49513W        W21773  25.606  10.595   1.684
49514W        W21774  12.235  18.904   1.898
49515W        W21775  31.543   1.877  12.169
49516W        W21776  20.718  32.332  11.968
49517W        W21777  40.967  17.593  14.616
49518W        W21778  24.088   4.272  14.305
49519W        W21779  44.086  21.935  12.722
49520W        W21780  39.253   4.380   4.075
49521W        W21781   8.818  21.112  10.741
49522W        W21782  39.049  39.428   1.742
49523W        W21783  28.177   7.956  14.209
49524W        W21784  28.041  17.960   3.651
49525W        W21785   9.662  44.013   0.227
49526W        W21786  38.852  36.512   1.869
49527W        W21787  10.037  19.965  11.620
49528W        W21788  23.531  33.508  12.888
49529W        W21789   6.487  42.805   4.562
49530W        W21790  43.969  23.497   2.430
49531W        W21791   4.278  27.127   0.978
49532W        W21792   0.898  20.499   3.196
49533W        W21793  13.292   4.814  14.425
49534W        W21794  19.995   0.529   0.155
49535W        W21795   2.483  17.737   0.836
49536W        W21796   2.487   6.323  14.452
49537W        W21797   3.676  33.198  11.208
49538W        W21798  39.970  11.118  11.615
49539W        W21799  36.014  33.072  14.774
49540W        W21800  25.945  29.933  12.018
49541W        W21801  38.489  19.646  14.412
49542W        W21802  32.358  39.575  11.558
49543W        W21803  10.974  15.743  14.798
49544W        W21804  12.415   6.704  13.693
49545W        W21805   3.916   9.604   3.174
49546W        W21806  22.616   2.441   4.240
49547W        W21807  11.673  41.418  14.330
49548W        W21808   4.742  29.463  13.317
49549W        W21809  29.408   2.920  13.725
49550W        W21810  40.117  38.597  10.609
49551W        W21811   1.273  35.799  12.922
49552W        W21812  19.042  11.267  14.752
49553W        W21813  30.042  42.132  14.729
49554W        W21814  21.139  13.806   4.588
49555W        W21815  18.198  28.765   4.654
49556W        W21816  29.633  13.568   2.698
49557W        W21817   3.986  42.041   4.752
49558W        W21818   8.230  39.451  11.175
49559W        W21819  43.453   2.238   2.651
49560W        W21820  42.031  28.472  13.156
49561W        W21821  12.232   2.885  12.481
49562W        W21822  26.214   6.013  14.881
49563W        W21823  37.334  11.760  14.447
49564W        W21824  23.713  44.739  14.971
49565W        W21825  17.230  41.015  14.064
49566W        W21826  42.550  12.621   1.252
49567W        W21827   8.293  18.494  14.854
49568W        W21828  17.621  13.718  10.695
49569W        W21829  25.197  43.944  13.036
49570W        W21830  32.280  10.145  14.679
49571W        W21831  19.736  26.424   2.357
49572W        W21832  37.839  20.727   1.674
49573W        W21833   1.416   1.259  13.250
49574W        W21834   7.823  30.975  14.092
49575W        W21835  18.844  25.003  13.900
49576W        W21836  42.270   4.828  12.102
49577W        W21837   5.212  39.294  13.930
49578W        W21838   0.792  15.045  10.534
49579W        W21839   3.503  29.008   0.262
49580W        W21840  28.556  11.390   4.618
49581W        W21841   7.960   0.879  14.306
49582W        W21842  25.614  26.500   2.349
49583W        W21843  29.134   9.614  10.461
49584W        W21844   9.321  17.472   3.298
49585W        W21845   0.460  37.488   2.349
49586W        W21846  43.524  40.512   0.185
49587W        W21847  37.876  36.030   4.700
49588W        W21848  19.545  22.800  13.725
49589W        W21849  16.447  25.710  11.179
49590W        W21850  16.712  24.855   3.742
49591W        W21851  23.120  30.179  12.010
49592W        W21852   1.875  20.625  13.442
49593W        W21853   3.326  17.963   3.338
49594W        W21854  31.915  40.537  13.797
49595W        W21855  36.281  18.647   0.378
49596W        W21856  18.581  25.780  11.664
49597W        W21857   5.686   9.693  14.146
49598W        W21858  43.983  27.882  14.819
49599W        W21859  41.100  11.249   1.418
49600W        W21860   3.850   1.171  11.143
49601W        W21861  39.160   3.368   2.465
49602W        W21862  15.077  10.426   0.435
49603W        W21863  17.314  44.838   2.568
49604W        W21864  35.319  30.938  14.279
49605W        W21865  15.551  39.059   4.146
49606W        W21866   5.006   5.177  14.563
49607W        W21867  40.930  25.864   0.946
49608W        W21868  10.291   0.298   4.308
49609W        W21869  30.337   8.646   0.717
49610W        W21870  39.481  44.530  14.417
49611W        W21871  41.341  30.244   1.955
49612W        W21872   8.846  10.762  11.429
49613W        W21873  25.311  26.653   3.880
49614W        W21874  35.301  12.274   1.348
49615W        W21875  20.326   7.381  10.719
49616W        W21876   5.981   4.229  12.888
49617W        W21877   8.822   0.804  14.795
49618W        W21878   9.304  27.392  13.900
49619W        W21879  37.784  33.486  12.815
49620W        W21880  12.236  21.729   0.413
49621W        W21881  26.179   6.293   0.873
49622W        W21882  11.394  15.150   1.776
49623W        W21883  14.595   0.947  13.073
49624W        W21884  13.310  16.738  11.629
49625W        W21885   0.212  23.584   3.182
49626W        W21886   6.556   0.468   1.687
49627W        W21887  35.925   0.392  11.569
49628W        W21888  27.295  27.012  14.069
49629W        W21889  20.204  34.148  12.029
49630W        W21890  29.114  24.906   3.177
49631W        W21891  29.725   5.206  11.993
49632W        W21892   6.287  19.018   0.374
49633W        W21893   7.718  18.519  14.740
49634W        W21894  41.240  21.015  14.053
49635W        W21895  29.535  13.057  14.838
49636W        W21896  43.275  34.660   3.892
49637W        W21897   8.275   1.621  14.774
49638W        W21898   0.180  22.723   1.004
49639W        W21899  21.234   6.372  11.608
49640W        W21900   9.649  10.620  13.992
49641W        W21901  18.232  35.519   2.824
49642W        W21902  11.258  35.873   2.740
49643W        W21903  18.982  24.987  14.393
49644W        W21904  15.312  25.526   0.215
49645W        W21905   1.194   1.114  10.592
49646W        W21906   5.247  12.293   3.291
49647W        W21907  18.570  10.852   1.000
49648W        W21908  26.388  24.207  11.546
49649W        W21909  25.482  36.126   1.905
49650W        W21910   3.257   8.384  10.690
49651W        W21911  38.345  25.566   0.377
49652W        W21912  16.224  40.044   0.581
49653W        W21913  29.615  21.702  12.397
49654W        W21914  17.305  35.575  14.401
49655W        W21915   3.020  27.315  12.499
49656W        W21916  42.995  25.070  10.786
49657W        W21917  11.786   7.956  14.035
49658W        W21918  29.075  39.914   4.909
49659W        W21919  16.154  41.085   3.217
49660W        W21920  40.482   1.780  10.816
49661W        W21921  40.957   1.362  11.158
49662W        W21922  31.212  31.131   0.215
49663W        W21923   7.792  28.431   3.669
49664W        W21924  11.228   5.977  12.627
49665W        W21925  38.320  28.206  12.684
49666W        W21926  25.088  35.158   1.947
49667W        W21927  16.732  34.759  12.036
49668W        W21928  35.420   2.815   1.380
49669W        W21929  26.279  18.614   2.138
49670W        W21930   2.222  40.137   4.143
49671W        W21931  16.753   5.603   4.976
49672W        W21932  21.797  36.942   4.637
49673W        W21933  24.283   9.307   1.775
49674W        W21934   9.803   9.137   2.721
49675W        W21935   6.712  13.030   4.676
49676W        W21936  12.158  30.010  13.035
49677W        W21937  16.747  37.796   1.429
49678W        W21938  35.632  35.647   1.205
49679W        W21939  34.024  16.929  14.751
49680W        W21940  38.371  43.291   1.770
49681W        W21941  35.530   2.932  10.751
49682W        W21942  16.348  19.174   3.765
49683W        W21943   7.392  44.214   1.310
49684W        W21944  42.842  30.204  14.908
49685W        W21945  11.123  16.243   0.530
49686W        W21946  30.093  43.665  12.508
49687W        W21947  32.874  30.473   0.883
49688W        W21948  18.094  15.166  14.307
49689W        W21949  22.991  29.680  13.824
49690W        W21950  18.524  11.132   2.353
49691W        W21951   3.225  20.148  12.890
49692W        W21952  35.219  44.808  12.396
49693W        W21953   0.894  18.994  14.193
49694W        W21954  29.663  37.495  13.113
49695W        W21955  21.262  27.889   1.335
49696W        W21956  28.232  30.849   3.222
49697W        W21957  21.821   4.018  14.845
49698W        W21958  17.981  41.544  10.548
49699W        W21959  36.490  42.023  12.356
49700W        W21960  11.064   5.239   1.533
49701W        W21961  35.907  40.014  12.840
49702W        W21962  31.418   5.915   3.645
49703W        W21963  19.091  42.793   2.406
49704W        W21964   7.737  40.963  11.047
49705W        W21965   0.897  35.632  10.655
49706W        W21966  29.474  41.831   1.445
49707W        W21967  30.783  17.176   2.198
49708W        W21968   0.377  21.292  10.989
49709W        W21969  26.939  43.422  12.332
49710W        W21970  23.524  27.786   5.470
49711W        W21971  25.826  32.898   2.437
49712W        W21972   4.344  12.854   3.645
49713W        W21973  25.301  17.605   0.229
49714W        W21974  18.787  21.076  14.359
49715W        W21975  18.033  17.390  11.103
49716W        W21976   8.972   0.404   2.937
49717W        W21977  20.862  11.756   3.154
49718W        W21978   6.186   9.636   2.789
49719W        W21979  39.283   6.697  12.261
49720W        W21980   1.727  24.671  14.726
49721W        W21981  10.398   2.366   0.766
49722W        W21982   8.336  11.225  13.373
49723W        W21983  27.751  21.726   2.264
49724W        W21984   6.090  28.238  10.205
49725W        W21985  39.055  22.179   0.106
49726W        W21986   1.750  31.217  12.924
49727W        W21987  25.487  16.810   3.143
49728W        W21988  31.278  44.718   4.888
49729W        W21989  39.030   6.938   1.192
49730W        W21990   2.278  33.414   4.240
49731W        W21991  33.618  15.557  14.478
49732W        W21992  37.291  11.248  11.436
49733W        W21993  15.046  28.179  11.102
49734W        W21994  17.729   7.277  10.719
49735W        W21995  18.997  33.096   3.740
49736W        W21996  20.717   2.082  10.663
49737W        W21997  12.396  41.022  11.103
49738W        W21998  30.654   4.323   1.801
49739W        W21999  35.858  19.851  14.580
49740W        W22000  39.387  36.165   0.192
49741W        W22001  43.571   1.895  11.155
49742W        W22002  21.846  28.280  13.468
49743W        W22003  20.281  33.881  11.586
49744W        W22004  29.938  21.264   3.489
49745W        W22005  42.247  40.509   1.932
49746W        W22006  32.606  33.210  11.279
49747W        W22007  36.616  35.134  13.041
49748W        W22008   8.769  18.767  13.917
49749W        W22009  40.263  17.062  10.323
49750W        W22010  29.578  21.925  14.273
49751W        W22011   3.180  19.596   4.173
49752W        W22012  30.522   0.597  10.552
49753W        W22013  36.889  14.242   4.162
49754W        W22014  19.606  22.109  14.895
49755W        W22015  19.735  15.854   3.970
49756W        W22016  22.744  26.834  12.239
49757W        W22017  17.342  32.891  14.307
49758W        W22018   0.833  16.274  13.442
49759W        W22019  27.421   8.311  14.300
49760W        W22020  12.348   2.335  11.659
49761W        W22021  33.842  17.077  11.417
49762W        W22022  26.154  41.634   1.556
49763W        W22023  13.159  35.312  11.534
49764W        W22024   5.989  23.702   2.830
49765W        W22025  11.595   4.180   4.566
49766W        W22026  20.782  30.965  10.689
49767W        W22027  32.878  35.923   0.411
49768W        W22028  36.516  35.370   3.587
49769W        W22029  41.495  27.612  11.546
49770W        W22030  19.265  24.443   2.603
49771W        W22031  18.631   4.521  11.185
49772W        W22032  19.027   2.339  14.814
49773W        W22033  15.599  29.590   2.089
49774W        W22034  38.559  25.501   3.342
49775W        W22035  44.413  20.215  11.648
49776W        W22036   2.517  24.644   2.684
49777W        W22037  44.740  35.558  12.474
49778W        W22038  41.995   8.924  14.413
49779W        W22039  25.480  24.300  13.914
49780W        W22040   4.944  38.308   2.658
49781W        W22041  40.566   4.448   4.249
49782W        W22042  43.423  21.194   1.287
49783W        W22043  28.468  30.065  11.111
49784W        W22044   1.852  33.462   1.417
49785W        W22045  16.483  31.659  10.750
49786W        W22046  27.211   7.884   1.219
49787W        W22047   6.898  37.493   3.407
49788W        W22048  30.999  25.665   0.767
49789W        W22049  17.555  11.474  11.037
49790W        W22050  21.744  39.666   2.119
49791W        W22051   4.318  17.238   0.151
49792W        W22052   7.388  40.443   2.774
49793W        W22053  11.139   3.744  14.493
49794W        W22054  33.236  44.732   3.906
49795W        W22055  21.618  12.262  10.702
49796W        W22056   3.660  24.420  13.386
49797W        W22057   8.912  35.610  14.074
49798W        W22058   9.575   7.227   2.706
49799W        W22059  32.337  39.585   4.350
49800W        W22060  23.144   8.313   2.073
49801W        W22061  30.871  16.242  11.580
49802W        W22062  21.138  38.205   2.927
49803W        W22063  14.963   7.756  14.939
49804W        W22064   5.028   0.484   3.093
49805W        W22065  34.465  16.693  14.925
49806W        W22066  10.917  28.041  10.238
49807W        W22067  14.294  12.376  11.074
49808W        W22068  12.722   8.420  11.597
49809W        W22069   0.850  14.929   1.222
49810W        W22070  21.496   5.745   2.796
49811W        W22071  25.394  44.445   4.924
49812W        W22072  21.822  34.845  12.437
49813W        W22073  29.022  20.515  12.397
49814W        W22074  10.085   8.314  11.135
49815W        W22075  31.694  27.501   0.817
49816W        W22076  19.001  31.433   0.344
49817W        W22077  24.584  41.071  11.550
49818W        W22078  10.641  17.273  11.562
49819W        W22079  10.426  42.780   0.409
49820W        W22080  18.790  12.226   3.791
49821W        W22081  16.013  16.809  14.944
49822W        W22082   0.467  28.556   0.907
49823W        W22083  22.522  18.970  10.201
49824W        W22084  31.439  25.517  14.068
49825W        W22085   8.689  34.791  14.463
49826W        W22086  44.880  14.780   3.686
49827W        W22087  19.940  24.232  10.678
49828W        W22088  38.546  38.412  10.290
49829W        W22089  28.889  10.257   1.880
49830W        W22090  18.645  12.100   2.850
49831W        W22091  44.950   9.933  14.406
49832W        W22092  28.428   7.278   4.244
49833W        W22093  21.436   6.792   0.933
49834W        W22094  38.338  10.088   0.472
49835W        W22095   1.138  20.059  11.152
49836W        W22096  33.769   7.701  11.931
49837W        W22097  32.975  19.812  11.390
49838W        W22098  15.241  41.530   2.433
49839W        W22099  12.775  25.662  14.337
49840W        W22100   1.741  29.038   2.666
49841W        W22101  29.960  44.936   0.901
49842W        W22102  30.919  12.847  13.984
49843W        W22103  32.698   2.801   2.197
49844W        W22104   3.798  27.127   9.802
49845W        W22105  43.910  18.063   2.322
49846W        W22106  11.327  16.678   3.833
49847W        W22107  35.362  30.222   4.069
49848W        W22108   5.951  11.340   2.322
49849W        W22109  39.402   7.734   2.436
49850W        W22110  33.488  41.019   4.832
49851W        W22111  13.045   1.549  10.580
49852W        W22112  27.073  21.260  11.086
49853W        W22113  41.226   0.045  12.102
49854W        W22114  42.846  34.825   3.658
49855W        W22115   7.844  40.073   0.891
49856W        W22116  16.467   2.990  14.254
49857W        W22117  18.537  33.391   2.723
49858W        W22118   6.237   7.264   4.136
49859W        W22119  40.714  30.512  11.527
49860W        W22120   4.705  16.115  11.712
49861W        W22121   0.043   6.800   3.555
49862W        W22122  35.317  31.976   2.738
49863W        W22123  32.852  11.211   4.146
49864W        W22124   0.354   1.867   0.924
49865W        W22125   4.789   0.997   1.758
49866W        W22126  17.355  13.152  11.511
49867W        W22127  30.395  34.135   0.367
49868W        W22128   3.344  24.877  11.622
49869W        W22129  44.082   8.457   0.038
49870W        W22130   1.236  12.297  11.840
49871W        W22131  43.305  12.534  11.532
49872W        W22132  11.677   2.128  10.968
49873W        W22133  31.798  22.532  14.403
49874W        W22134  27.587  23.219  11.579
49875W        W22135  42.544  17.645  12.910
49876W        W22136   1.625  18.008   4.301
49877W        W22137   0.957  11.091   0.475
49878W        W22138  39.193  31.484   4.730
49879W        W22139  15.223  29.207  14.346
49880W        W22140   0.721  44.325   3.570
49881W        W22141  26.512  21.168   2.317
49882W        W22142  17.576   9.815   4.002
49883W        W22143  17.375   3.654   3.866
49884W        W22144  16.039  32.097  10.719
49885W        W22145  14.212  36.919  12.347
49886W        W22146   9.297  10.246  10.387
49887W        W22147  25.683   8.291   2.435
49888W        W22148   6.072  20.481  13.507
49889W        W22149  43.244  22.795  10.242
49890W        W22150  40.733  35.156  13.385
49891W        W22151  14.421   8.202   4.195
49892W        W22152  43.415  13.097   1.166
49893W        W22153  27.564   2.314  10.733
49894W        W22154   0.202  26.379   4.168
49895W        W22155  32.547  19.126   4.636
49896W        W22156  13.987  31.181   4.946
49897W        W22157   4.775   2.738   4.343
49898W        W22158  42.263  31.970   3.923
49899W        W22159  29.709   6.200   0.913
49900W        W22160  19.254  31.665  10.733
49901W        W22161  24.279  11.175  13.870
49902W        W22162  20.173  20.821   2.245
49903W        W22163  23.353  13.537  11.119
49904W        W22164  21.561  25.840   3.911
49905W        W22165  21.748  13.154  13.997
49906W        W22166  26.441  33.404  14.759
49907W        W22167  37.011  41.932  12.418
49908W        W22168  22.721  21.241   1.596
49909W        W22169   0.927  27.067   4.658
49910W        W22170  23.539   5.747  13.482
49911W        W22171   3.406  35.337  12.426
49912W        W22172  18.552  30.895   0.825
49913W        W22173  29.644  14.406  14.423
49914W        W22174   6.451   2.127  14.572
49915W        W22175  22.142  43.674   1.544
49916W        W22176   5.281  11.701   3.696
49917W        W22177  38.499  17.319  10.216
49918W        W22178  30.419  11.150   2.597
49919W        W22179  37.960  14.032   4.780
49920W        W22180   0.857  21.534  14.412
49921W        W22181  10.035  36.657   4.414
49922W        W22182   9.762   6.448   1.696
49923W        W22183  35.507  36.000   4.241
49924W        W22184   7.259   1.124  13.338
49925W        W22185  28.493  12.821   4.763
49926W        W22186  21.434  44.304  13.962
49927W        W22187  17.609  37.116  11.349
49928W        W22188   7.917   5.628  13.101
49929W        W22189  23.664  19.511  14.734
49930W        W22190  30.846  26.276  12.751
49931W        W22191   7.777  37.381  12.965
49932W        W22192   5.432  42.176  10.747
49933W        W22193  19.643   8.844  14.965
49934W        W22194   7.431   8.813   2.222
49935W        W22195  32.539  19.569  11.360
49936W        W22196  18.731  30.701   1.439
49937W        W22197  28.979  31.061  14.301
49938W        W22198  35.946  15.284   0.373
49939W        W22199  21.771  29.556   0.813
49940W        W22200  40.861  19.038   0.804
49941W        W22201   3.167  30.072   2.952
49942W        W22202  17.593  11.200  13.451
49943W        W22203   7.568   8.815   3.116
49944W        W22204   2.419  34.345  11.659
49945W        W22205   4.713  11.779   4.704
49946W        W22206  43.944   5.797   1.227
49947W        W22207  24.125  37.910   4.174
49948W        W22208  10.231  43.629   1.201
49949W        W22209  19.266  30.607   2.290
49950W        W22210  23.043  31.538   0.806
49951W        W22211  25.787   5.312   1.121
49952W        W22212  37.057  27.381   1.672
49953W        W22213  35.574  28.639   4.302
49954W        W22214   5.551  44.484  13.531
49955W        W22215  14.712  38.456   0.833
49956W        W22216  32.338  29.583   3.682
49957W        W22217  10.124   0.517  11.008
49958W        W22218  32.822  31.094   1.570
49959W        W22219  16.328  34.491   3.740
49960W        W22220   5.345   3.192  11.591
49961W        W22221  37.917  36.528  10.644
49962W        W22222  15.173   8.854   2.288
49963W        W22223  36.787  31.181  12.154
49964W        W22224   3.955  10.163  12.806
49965W        W22225  29.862  34.850  13.882
49966W        W22226  29.117   2.343   3.907
49967W        W22227  44.949   5.125   3.556
49968W        W22228  12.456  12.610   2.889
49969W        W22229  25.968  12.913   0.498
49970W        W22230   2.738   8.857   0.681
49971W        W22231  13.884  21.179   0.733
49972W        W22232  17.234   7.075   1.508
49973W        W22233   7.305  34.326  11.645
49974W        W22234  34.396  39.892   1.429
49975W        W22235  44.268  42.510  12.797
49976W        W22236  26.672  17.620   4.159
49977W        W22237   5.273  13.250  13.391
49978W        W22238   7.919  31.871  12.599
49979W        W22239  16.579   0.740   1.002
49980W        W22240   6.983   3.905  11.621
49981W        W22241  12.252  20.537   1.307
49982W        W22242  41.076  34.153  12.615
49983W        W22243   1.464   8.685  12.502
49984W        W22244   0.078  27.517  11.698
49985W        W22245  25.524  25.134   0.343
49986W        W22246  16.784  42.806  12.131
49987W        W22247   5.326  19.388   1.395
49988W        W22248  28.545   5.948  14.743
49989W        W22249  34.365  42.155  12.029
49990W        W22250  30.875  36.399  12.005
49991W        W22251  34.390  12.195  14.338
49992W        W22252  32.511  36.539  14.944
49993W        W22253   2.965   9.544   1.636
49994W        W22254  36.010  20.212  12.517
49995W        W22255  14.623  17.183  11.610
49996W        W22256  43.863  29.137  14.977
49997W        W22257  16.492  36.687   3.644
49998W        W22258  44.439   4.773   1.493
49999W        W22259  26.893   3.229   4.141
50000W        W22260  19.608  42.515   1.856
50001W        W22261  29.753  12.919  11.143
50002W        W22262  42.549  39.382  14.000
50003W        W22263  43.900  29.598   0.258
50004W        W22264  43.550  26.726  13.919
50005W        W22265  34.690  43.013   3.033
50006W        W22266  12.316   0.235   3.933
50007W        W22267  31.541   6.171   4.903
50008W        W22268   3.806  41.804   1.694
50009W        W22269  36.672  35.038   2.462
50010W        W22270  41.569  22.008   2.674
50011W        W22271  10.784  14.355  14.279
50012W        W22272  11.884   1.657  11.059
50013W        W22273   3.334   3.243   2.885
50014W        W22274  32.487  24.120   0.511
50015W        W22275  17.550  18.712   2.425
50016W        W22276  30.428  16.071   4.227
50017W        W22277  14.251  17.762   3.919
50018W        W22278  32.831  12.194  10.634
50019W        W22279  15.075   8.356   2.421
50020W        W22280  38.552  42.945  12.429
50021W        W22281  10.737  20.528  12.614
50022W        W22282   4.430   3.962  10.999
50023W        W22283  13.676  18.625  14.769
50024W        W22284   0.517  29.160   4.754
50025W        W22285  26.029  13.745  12.688
50026W        W22286  42.228  27.824  12.061
50027W        W22287  42.283  31.501  13.057
50028W        W22288  40.517  26.886   3.096
50029W        W22289  24.705  22.060   2.699
50030W        W22290  22.717  29.594   2.764
50031W        W22291   6.778  24.088  13.259
50032W        W22292  24.711  31.759   2.360
50033W        W22293  22.586  23.065  11.551
50034W        W22294  38.190  24.293   1.339
50035W        W22295   1.999  37.049   3.670
50036W        W22296   8.669  19.879   1.864
50037W        W22297  44.284   6.198  10.724
50038W        W22298  38.021  39.973  11.969
50039W        W22299  31.578   1.948   1.148
50040W        W22300   8.782  24.474   1.447
50041W        W22301  31.080  36.893  13.891
50042W        W22302  35.390   4.625  14.653
50043W        W22303  21.719  25.196   4.581
50044W        W22304  28.889  11.204  11.469
50045W        W22305  19.786  43.435  12.205
50046W        W22306  19.074   6.293  10.932
50047W        W22307  13.614  14.144   3.984
50048W        W22308  33.192  14.880  12.622
50049W        W22309  39.251   1.733  12.334
50050W        W22310  40.884  44.956   1.206
50051W        W22311  19.753  15.189   4.564
50052W        W22312  43.442   8.323  14.471
50053W        W22313   1.871  17.085  13.555
50054W        W22314  37.916  22.678  10.720
50055W        W22315  33.359  28.830  13.952
50056W        W22316  13.226  41.768  14.465
50057W        W22317  16.674  30.502   0.831
50058W        W22318   7.432  13.160  12.891
50059W        W22319  43.305  27.486  11.558
50060W        W22320  36.576  20.016  10.588
50061W        W22321  42.303  32.328  10.511
50062W        W22322  43.179   0.552  13.033
50063W        W22323  21.516  11.416   2.432
50064W        W22324  44.365  17.215   4.608
50065W        W22325  16.632  33.604   4.357
50066W        W22326  16.313   8.768   1.638
50067W        W22327  21.321   3.763  13.941
50068W        W22328  31.420  18.048  14.405
50069W        W22329   1.868  15.267  13.815
50070W        W22330  12.857  20.638  11.602
50071W        W22331   0.102  11.414   0.309
50072W        W22332  35.022  29.542   0.138
50073W        W22333   7.664   5.323   4.184
50074W        W22334  19.770  38.995   2.748
50075W        W22335   7.060  15.774   4.597
50076W        W22336   0.935  37.871   3.253
50077W        W22337  24.147  34.077   0.372
50078W        W22338  24.458   8.178   1.762
50079W        W22339   6.168  29.968   1.974
50080W        W22340  23.041  38.812   2.809
50081W        W22341  35.010  39.642  10.967
50082W        W22342  23.398  16.295   0.717
50083W        W22343   2.389  21.026   4.261
50084W        W22344  38.601   8.374  11.615
50085W        W22345  17.916  26.024  14.121
50086W        W22346  38.386  15.025   4.578
50087W        W22347  22.262  28.452  14.482
50088W        W22348   5.230  16.609   1.441
50089W        W22349  41.461  10.157  14.864
50090W        W22350  38.871  17.679  10.879
50091W        W22351  31.693  17.451   0.172
50092W        W22352  40.627  30.974   3.791
50093W        W22353   8.692  19.854  12.055
50094W        W22354  41.316  11.047  14.341
50095W        W22355  22.006  17.648   0.706
50096W        W22356  19.826  42.987   1.840
50097W        W22357   2.951  36.389  13.398
50098W        W22358  22.038  35.807   0.004
50099W        W22359  26.163  23.087  12.411
50100W        W22360   1.386  14.638  13.958
50101W        W22361  28.179  26.872  14.056
50102W        W22362   4.276   0.823  14.519
50103W        W22363   9.372   3.697  14.773
50104W        W22364  43.981  32.117  11.127
50105W        W22365  31.607  31.454   0.396
50106W        W22366   8.125  22.627   0.303
50107W        W22367   3.850  23.821   0.236
50108W        W22368  28.923  14.907   3.818
50109W        W22369   8.186  33.918  12.980
50110W        W22370  19.162  27.747   3.065
50111W        W22371   4.323  20.936  12.894
50112W        W22372  29.278  40.020   0.642
50113W        W22373  32.345   2.924  14.920
50114W        W22374  34.438  38.843  13.617
50115W        W22375  27.654  10.891  11.006
50116W        W22376  32.013   2.246   0.728
50117W        W22377  22.994   5.428  14.812
50118W        W22378  29.049  23.154   0.674
50119W        W22379  44.506  11.899   0.847
50120W        W22380  24.645  42.231  14.760
50121W        W22381  12.838   1.005  14.832
50122W        W22382  22.717  31.006   1.651
50123W        W22383   4.909   9.655   2.383
50124W        W22384  26.767  14.694   2.856
50125W        W22385   9.777   6.863  12.246
50126W        W22386  23.962  38.514  13.361
50127W        W22387  44.434  36.227   1.508
50128W        W22388   1.390   6.956  14.806
50129W        W22389  38.308  43.401  12.411
50130W        W22390  35.384  11.817   4.930
50131W        W22391  28.413  43.460   1.040
50132W        W22392  10.313  44.931  14.547
50133W        W22393  15.368  38.682   2.433
50134W        W22394   8.007  19.631  12.816
50135W        W22395  31.170  17.631   1.586
50136W        W22396  30.468   8.902   2.900
50137W        W22397  28.029   3.923  13.481
50138W        W22398   6.785   4.915   3.093
50139W        W22399  22.568  30.734   1.214
50140W        W22400  27.474  41.910  13.490
50141W        W22401  24.030  10.371  12.960
50142W        W22402  12.690  11.814   4.582
50143W        W22403  38.983   2.600   3.365
50144W        W22404  41.507  41.128  12.102
50145W        W22405  23.176  32.166   0.027
50146W        W22406   0.467  13.834  13.943
50147W        W22407  39.567  44.262   4.197
50148W        W22408  13.065   1.801   5.086
50149W        W22409   3.353  14.964   1.122
50150W        W22410  33.387  43.507   3.651
50151W        W22411  27.335  33.811   0.010
50152W        W22412  24.624  30.645  13.544
50153W        W22413  20.222  18.374   3.327
50154W        W22414  21.727  34.432   1.008
50155W        W22415  33.950  31.608   4.505
50156W        W22416  36.878  32.077  10.232
50157W        W22417  28.268  35.702  11.523
50158W        W22418  37.084  24.589  14.657
50159W        W22419  24.112  20.082   0.241
50160W        W22420  16.741  16.397   1.206
50161W        W22421   7.607  44.814   0.818
50162W        W22422  38.875  29.121  10.256
50163W        W22423  30.588  18.506   0.960
50164W        W22424  29.434  26.005  11.992
50165W        W22425  25.400  30.899   3.414
50166W        W22426   1.956  34.965   4.507
50167W        W22427  15.016   3.011  12.002
50168W        W22428  26.985  20.133   3.586
50169W        W22429  11.513  21.162  12.638
50170W        W22430  16.359  28.957  12.920
50171W        W22431   0.521  27.990   3.263
50172W        W22432  37.403  44.166  11.112
50173W        W22433  39.696  14.344  13.010
50174W        W22434  29.417   2.289   3.262
50175W        W22435  38.525  38.208   1.340
50176W        W22436  37.447  33.187   0.889
50177W        W22437  31.615   0.085  13.387
50178W        W22438  15.903  26.710   4.974
50179W        W22439  22.647  16.808   0.442
50180W        W22440  10.334  15.333   4.996
50181W        W22441  39.501  15.061  11.570
50182W        W22442  35.549  38.877  12.844
50183W        W22443  28.998  41.121   1.343
50184W        W22444  15.665  15.190   4.295
50185W        W22445  25.133  16.172   4.634
50186W        W22446  18.547  20.033  11.177
50187W        W22447  17.525   5.855   0.622
50188W        W22448   7.110  28.072   3.222
50189W        W22449  14.820  20.077  14.476
50190W        W22450  36.933   7.807  10.039
50191W        W22451  25.082   5.888  11.239
50192W        W22452  29.920  35.618  12.382
50193W        W22453  38.867  37.509  13.603
50194W        W22454  28.635  15.260   3.589
50195W        W22455  14.560  17.843   1.816
50196W        W22456  14.282  11.591  10.647
50197W        W22457  41.699  12.378  12.024
50198W        W22458   3.191  30.974  12.959
50199W        W22459  30.718  19.470   1.412
50200W        W22460  16.352  44.403  13.081
50201W        W22461  38.869  40.785   0.369
50202W        W22462  33.994  38.784  12.807
50203W        W22463  15.344  44.621   2.793
50204W        W22464  43.597  24.078  13.065
50205W        W22465  38.409  24.568   4.541
50206W        W22466  19.543   7.166   3.683
50207W        W22467  42.508  17.525   4.617
50208W        W22468  21.495   6.657  10.634
50209W        W22469   1.772  18.231   1.686
50210W        W22470  20.626  10.184  12.934
50211W        W22471  14.531  15.227  14.764
50212W        W22472  14.667  31.219  12.625
50213W        W22473  39.034  12.358   0.779
50214W        W22474  10.617   9.691   0.858
50215W        W22475  30.069  43.376  12.965
50216W        W22476   7.700  44.095   3.206
50217W        W22477  27.184  33.853   2.573
50218W        W22478  39.405  27.669   2.208
50219W        W22479   6.356  31.646   4.101
50220W        W22480  36.231  21.433   3.624
50221W        W22481  24.291  23.729  12.929
50222W        W22482  26.018  17.767   0.910
50223W        W22483  33.486  40.065  11.287
50224W        W22484  23.654  25.703   0.285
50225W        W22485  38.882  29.793  10.763
50226W        W22486   3.368  13.121  14.210
50227W        W22487  39.889   4.370  14.080
50228W        W22488  23.493  29.513  14.529
50229W        W22489  17.122  25.179   1.834
50230W        W22490  22.449  25.532  11.413
50231W        W22491   1.188  30.114   0.300
50232W        W22492   0.026  44.680   2.427
50233W        W22493  29.442  40.380   3.772
50234W        W22494  29.004  42.451  10.407
50235W        W22495  38.847   3.086   3.355
50236W        W22496  34.097   7.704   0.754
50237W        W22497   1.285  37.564  13.966
50238W        W22498   0.487  23.126  11.083
50239W        W22499   8.602  14.815   4.982
50240W        W22500   9.905  37.862   2.841
50241W        W22501  36.559  32.397   2.861
50242W        W22502   6.882  27.999   1.372
50243W        W22503  30.459  31.991  14.330
50244W        W22504  37.009   0.175   1.663
50245W        W22505  21.500  38.988  10.218
50246W        W22506  21.110  41.979  11.991
50247W        W22507   9.497   7.276   1.691
50248W        W22508  14.893  32.082   2.676
50249W        W22509   9.821  34.702  11.961
50250W        W22510  38.371  16.640   3.635
50251W        W22511  44.304  18.981  12.999
50252W        W22512  21.896  37.459   2.907
50253W        W22513  41.497  15.096  12.053
50254W        W22514  11.552   1.671  13.009
50255W        W22515  42.702  31.522  13.951
50256W        W22516  13.185  32.337  12.069
50257W        W22517  38.529   7.401  14.979
50258W        W22518  29.707   1.484   4.661
50259W        W22519   6.775  20.162  11.648
50260W        W22520  30.533  40.118  11.554
50261W        W22521  12.075   3.400  13.129
50262W        W22522  39.340  12.794  14.476
50263W        W22523  18.843  18.659  10.934
50264W        W22524  44.811  28.557  13.187
50265W        W22525  35.217  16.042  13.922
50266W        W22526   0.755  28.761  11.504
50267W        W22527  33.326  24.400  11.066
50268W        W22528  27.873  28.591   0.208
50269W        W22529  41.731  41.074  10.203
50270W        W22530  36.007  11.024   4.055
50271W        W22531  40.845   9.244   3.599
50272W        W22532  34.839  29.061  11.876
50273W        W22533  15.188   5.303  12.560
50274W        W22534  31.129  22.547  11.132
50275W        W22535   2.579  40.872  12.196
50276W        W22536  11.594  29.243   3.651
50277W        W22537  27.019  11.428  13.084
50278W        W22538  11.654  35.883   2.399
50279W        W22539  34.869  27.967  11.616
50280W        W22540  31.545  37.650   0.755
50281W        W22541   9.202   5.956   2.328
50282W        W22542  36.973   2.814   3.028
50283W        W22543  27.216  23.998  11.433
50284W        W22544  15.414  44.409  14.506
50285W        W22545  11.531   3.716   2.733
50286W        W22546  17.220   4.710   1.590
50287W        W22547  21.206  39.648  11.996
50288W        W22548  11.624   7.798   2.344
50289W        W22549  22.228  17.598   1.474
50290W        W22550  27.749   1.045   2.283
50291W        W22551   7.361  20.106  12.081
50292W        W22552   1.238   5.819  13.944
50293W        W22553  43.861  43.388   3.468
50294W        W22554  12.614  14.118   4.315
50295W        W22555  34.049  38.420  14.125
50296W        W22556  26.636  34.181   4.472
50297W        W22557  30.952  26.389  14.398
50298W        W22558  35.959  13.648  10.712
50299W        W22559  33.858  23.635  10.658
50300W        W22560  12.974  13.238   3.397
50301W        W22561  37.343  31.412  14.513
50302W        W22562  25.564  11.803  14.716
50303W        W22563  33.588   0.467  13.932
50304W        W22564  10.969  37.476  11.737
50305W        W22565  13.669  14.198   4.500
50306W        W22566  42.992  12.072   0.708
50307W        W22567  36.578   8.633  10.791
50308W        W22568  26.631   1.531  13.571
50309W        W22569  39.482  13.402   3.139
50310W        W22570  16.396  28.034  10.716
50311W        W22571  36.927  33.349  13.516
50312W        W22572  14.850   3.544   2.891
50313W        W22573  11.396   3.835  11.181
50314W        W22574  41.442   1.990  14.327
50315W        W22575  43.550  25.059   0.791
50316W        W22576   4.313   5.487  11.021
50317W        W22577  25.608  35.212  12.860
50318W        W22578  36.771  43.719   0.408
50319W        W22579  43.692  35.401  11.578
50320W        W22580  29.511  28.924  11.573
50321W        W22581  27.479   2.346   1.989
50322W        W22582  23.063  33.525  12.532
50323W        W22583  18.190  12.672   4.553
50324W        W22584  36.272  31.184  12.072
50325W        W22585  11.876  12.878  11.727
50326W        W22586   7.701  36.911   3.820
50327W        W22587  43.329  30.383   1.285
50328W        W22588   4.759  17.868  13.789
50329W        W22589  44.874  27.658   4.475
50330W        W22590  30.845   9.308   3.635
50331W        W22591   8.200  18.761  13.411
50332W        W22592  20.780  39.372   2.213
50333W        W22593  19.692  42.005   3.215
50334W        W22594   9.586  22.079  12.946
50335W        W22595  19.591   9.340   0.567
50336W        W22596   3.343  31.163  14.361
50337W        W22597   3.525  42.277  12.835
50338W        W22598  43.073   9.604   0.555
50339W        W22599  33.285  36.676   4.055
50340W        W22600  25.456  38.544   1.984
50341W        W22601   4.681  21.993  11.613
50342W        W22602  31.363  16.239   0.995
50343W        W22603  19.980   9.451   1.818
50344W        W22604  15.566  14.133   1.695
50345W        W22605  41.525  20.164   0.966
50346W        W22606  28.057  29.999   0.781
50347W        W22607  10.384   7.084   1.897
50348W        W22608  32.382  26.811   3.127
50349W        W22609  38.764  41.803   2.678
50350W        W22610  31.855  40.550   4.128
50351W        W22611  37.922  44.208   0.030
50352W        W22612  39.627   0.450   4.519
50353W        W22613  17.550  38.835  14.858
50354W        W22614  11.092  38.693   1.656
50355W        W22615   6.353  41.080  14.898
50356W        W22616   5.823  13.864  11.592
50357W        W22617  20.058  27.558   3.427
50358W        W22618   1.339   8.632   0.756
50359W        W22619  23.977   6.260   2.785
50360W        W22620  41.691  22.076   2.120
50361W        W22621  30.141  23.241   3.503
50362W        W22622  16.209  35.993  12.727
50363W        W22623  27.947  31.674   3.708
50364W        W22624  32.562   1.918  14.193
50365W        W22625  38.519  43.786  13.782
50366W        W22626   9.579  28.398   4.690
50367W        W22627  29.100  33.837   4.352
50368W        W22628  42.420  38.093  11.124
50369W        W22629  27.954  22.200  12.272
50370W        W22630   9.299  28.059   4.370
50371W        W22631  28.469   3.831  13.227
50372W        W22632  32.449  14.589  12.903
50373W        W22633  13.612  29.715   5.093
50374W        W22634   0.227  37.315   0.475
50375W        W22635   1.632  35.004  11.533
50376W        W22636  22.736   0.262   3.747
50377W        W22637   7.733  32.382   0.309
50378W        W22638  29.644  12.120   3.195
50379W        W22639  27.997  19.691  11.588
50380W        W22640  10.538  36.357   2.800
50381W        W22641  21.292   6.830  13.327
50382W        W22642  27.470   6.699   2.584
50383W        W22643  29.158  37.137  14.438
50384W        W22644  24.722  12.151   0.957
50385W        W22645  26.382  33.560  10.712
50386W        W22646   1.352  28.711   2.780
50387W        W22647  12.781   7.423   4.242
50388W        W22648  35.020   0.235   2.613
50389W        W22649  15.743  27.645  12.344
50390W        W22650  35.697  31.988  10.767
50391W        W22651  11.207   2.461  10.826
50392W        W22652   6.754   7.970   4.268
50393W        W22653  23.240   3.513   3.383
50394W        W22654  18.775  38.033   3.766
50395W        W22655  17.464  30.674  14.772
50396W        W22656   0.386  31.865   3.712
50397W        W22657  29.606  16.471  13.905
50398W        W22658  12.752  25.789  12.861
50399W        W22659  33.880  29.419  13.610
50400W        W22660   4.666   1.923  14.689
50401W        W22661  26.538   3.431   3.146
50402W        W22662  28.493   0.925   4.805
50403W        W22663  15.575   4.403  11.907
50404W        W22664  12.787  30.197  12.896
50405W        W22665   0.756  40.817   3.169
50406W        W22666  23.076  15.663   2.106
50407W        W22667  34.789  35.629   4.458
50408W        W22668  20.663  20.686   2.755
50409W        W22669   3.838  41.444  10.487
50410W        W22670   2.509   4.795   0.615
50411W        W22671  44.287  37.492  10.770
50412W        W22672   9.942   1.624  11.148
50413W        W22673  37.045   3.752   2.654
50414W        W22674  30.331   4.923   2.153
50415W        W22675  42.273  26.275  12.101
50416W        W22676  41.357   8.807   1.246
50417W        W22677  38.473  24.732   1.278
50418W        W22678  44.009   4.347   0.700
50419W        W22679  34.847   9.751   2.910
50420W        W22680  19.091  13.797   1.729
50421W        W22681  44.302  33.287   5.182
50422W        W22682  24.656  33.453   3.585
50423W        W22683  15.077  33.383  10.458
50424W        W22684  29.965  17.629   4.373
50425W        W22685  29.706  36.681  11.555
50426W        W22686  18.556  16.294   0.192
50427W        W22687  43.194  31.385   2.208
50428W        W22688  43.165  26.985  12.643
50429W        W22689  15.817  42.842   2.295
50430W        W22690   3.955  39.137   2.236
50431W        W22691   8.631   3.946  12.598
50432W        W22692   5.179  22.243   1.305
50433W        W22693  15.227  21.242   1.859
50434W        W22694  33.044  43.557   2.343
50435W        W22695   7.710   1.750   0.891
50436W        W22696   1.793  42.303   3.347
50437W        W22697  12.163  43.145   1.955
50438W        W22698  12.574  24.895  11.051
50439W        W22699  31.518  19.065   2.882
50440W        W22700  30.883  20.816   1.339
50441W        W22701   4.788  15.614  11.925
50442W        W22702   8.963  39.560  11.690
50443W        W22703  16.750  16.131   0.756
50444W        W22704  41.562  28.147  13.819
50445W        W22705  43.784   1.213  12.646
50446W        W22706  12.241  20.226  10.896
50447W        W22707   1.318  36.046  13.910
50448W        W22708  31.693  38.549  11.259
50449W        W22709  40.321  15.580   2.295
50450W        W22710   0.514   5.438   4.696
50451W        W22711  41.519  11.973  14.234
50452W        W22712  30.036  14.866   0.006
50453W        W22713  17.503  36.931  14.947
50454W        W22714  16.356  21.191   0.784
50455W        W22715   8.052  27.277  12.849
50456W        W22716   2.857  25.688   2.231
50457W        W22717   9.293  30.281  12.171
50458W        W22718  41.564  13.282  12.175
50459W        W22719  11.635  36.314   2.690
50460W        W22720  18.841  29.091   3.762
50461W        W22721  35.125   8.737  12.456
50462W        W22722  25.999   4.439   0.696
50463W        W22723  27.652  39.511   0.867
50464W        W22724  11.151  29.103   5.062
50465W        W22725  11.823  10.233   4.679
50466W        W22726  40.915  28.953  13.952
50467W        W22727  33.379  27.455   0.910
50468W        W22728  26.100  22.986  11.111
50469W        W22729  13.172   6.176  11.176
50470W        W22730  24.138  10.670   4.566
50471W        W22731  11.315  26.500  10.397
50472W        W22732  24.078  20.314  10.593
50473W        W22733  10.083  11.197   1.076
50474W        W22734  24.241  34.485  11.561
50475W        W22735   9.517  43.722  10.496
50476W        W22736   6.217  30.652  12.036
50477W        W22737  16.134   6.809  10.532
50478W        W22738  43.203   9.749  12.947
50479W        W22739  20.509  41.096  11.435
50480W        W22740  37.539  22.243  14.786
50481W        W22741  23.780  39.848  11.910
50482W        W22742   0.964  28.554   0.774
50483W        W22743  17.384  14.843   4.994
50484W        W22744  22.326   1.198  11.665
50485W        W22745  25.355  24.970   4.585
50486W        W22746   5.499  32.841   3.678
50487W        W22747   2.332  43.359   3.182
50488W        W22748  19.533  27.075   0.239
50489W        W22749  12.303  29.724   3.265
50490W        W22750  41.233  39.020   1.268
50491W        W22751  16.190  10.215  13.391
50492W        W22752  10.184  10.660  11.095
50493W        W22753  16.754  20.520  12.844
50494W        W22754  27.548  11.301   4.726
50495W        W22755  21.510  22.520  10.821
50496W        W22756   8.227   2.238   1.446
50497W        W22757  36.323  42.082   2.516
50498W        W22758  20.421  39.132   4.215
50499W        W22759  29.291  30.208  13.806
50500W        W22760  15.065  42.348   1.818
50501W        W22761  13.147  28.087   1.841
50502W        W22762  19.987  26.523   0.676
50503W        W22763  20.278  40.363  14.502
50504W        W22764  12.292  30.218   2.403
50505W        W22765  30.947  38.890   4.404
50506W        W22766   7.714   4.647  10.981
50507W        W22767   1.021  14.931  14.226
50508W        W22768  39.517   8.355  11.367
50509W        W22769  12.835  32.478  11.727
50510W        W22770  34.183   6.161  14.881
50511W        W22771  29.384   3.343  10.467
50512W        W22772   9.521   1.925   0.426
50513W        W22773  19.840   5.711   0.290
50514W        W22774  13.178   2.511   2.161
50515W        W22775  26.638  22.960   4.187
50516W        W22776  14.655  16.701   5.170
50517W        W22777  36.437  24.404   2.319
50518W        W22778  13.117  10.996  13.019
50519W        W22779  23.913  23.285  12.808
50520W        W22780  24.771  26.224   0.819
50521W        W22781  29.081  30.859   0.927
50522W        W22782  44.251  23.127   0.464
50523W        W22783  40.425  22.061   3.289
50524W        W22784  23.581  19.784   0.660
50525W        W22785   3.763  12.953   4.520
50526W        W22786  37.800  41.537   1.757
50527W        W22787  15.286  12.926  13.889
50528W        W22788  28.636  20.388   0.940
50529W        W22789  38.025  41.939   0.987
50530W        W22790  13.844  31.641  14.911
50531W        W22791  40.823  43.531  11.584
50532W        W22792  31.196   7.012   1.233
50533W        W22793  17.044  31.458   2.770
50534W        W22794  36.582  31.910   2.204
50535W        W22795   9.630  29.401   3.996
50536W        W22796   2.219  27.191  11.181
50537W        W22797  16.812  24.058  12.615
50538W        W22798  39.277  40.349   0.303
50539W        W22799  17.737  17.263  11.499
50540W        W22800  37.889  44.976   0.519
50541W        W22801  18.450  19.438   3.096
50542W        W22802  41.639  10.358   3.049
50543W        W22803  26.954  34.909   0.344
50544W        W22804  23.027  44.898   4.428
50545W        W22805  40.578  21.124  14.856
50546W        W22806  19.769  14.228   0.486
50547W        W22807  20.238  10.955  14.860
50548W        W22808  28.653  41.973  14.854
50549W        W22809  21.222  36.427  11.022
50550W        W22810  21.553  18.557  10.676
50551W        W22811  34.616  35.535   0.258
50552W        W22812  15.109   6.006   3.943
50553W        W22813  10.658   3.276   1.616
50554W        W22814  12.711  43.232   0.362
50555W        W22815  16.196  35.347   0.351
50556W        W22816  34.047  42.121   4.209
50557W        W22817  33.554  40.511   2.917
50558W        W22818   5.851  19.642  10.692
50559W        W22819   0.477  14.445  11.656
50560W        W22820  42.329  34.570   9.862
50561W        W22821  12.800  44.013   2.899
50562W        W22822   8.763  39.611   2.787
50563W        W22823  23.731  32.918   3.610
50564W        W22824   8.525  44.424   1.793
50565W        W22825  31.254  26.451  14.862
50566W        W22826  36.102  21.595  13.872
50567W        W22827  23.497   4.555   4.217
50568W        W22828  31.123  41.752  11.292
50569W        W22829  19.791  43.901   4.243
50570W        W22830  14.771  19.446  12.025
50571W        W22831  43.368  25.240   1.934
50572W        W22832  35.020  44.740  11.508
50573W        W22833   6.581  22.459   3.037
50574W        W22834  11.873  43.806  10.433
50575W        W22835  44.784  36.490  12.312
50576W        W22836  28.667  23.968  11.965
50577W        W22837   6.566   2.447   2.725
50578W        W22838  12.936  20.204   2.301
50579W        W22839   6.923   4.440  11.666
50580W        W22840   1.044  23.885  14.021
50581W        W22841   0.679  24.705  11.651
50582W        W22842  20.250  36.992  13.126
50583W        W22843  19.485  15.838   2.722
50584W        W22844  13.813  39.523   0.158
50585W        W22845  32.501  20.124   0.844
50586W        W22846  19.660   8.403  12.129
50587W        W22847  42.937   3.220  11.046
50588W        W22848  28.537  23.731  13.725
50589W        W22849   1.333   6.742   4.076
50590W        W22850  34.386   2.171   3.317
50591W        W22851   2.246  25.014   0.305
50592W        W22852  25.236  36.195  14.229
50593W        W22853  33.042  39.743   0.428
50594W        W22854  33.887   6.428   3.650
50595W        W22855   6.343   9.377   3.290
50596W        W22856   0.905  30.544   4.214
50597W        W22857  13.815  39.134   0.565
50598W        W22858  32.398   9.625   1.881
50599W        W22859  21.775  26.173  11.145
50600W        W22860  13.593  33.862   2.496
50601W        W22861  24.477  22.800  13.799
50602W        W22862  21.817  34.500  14.261
50603W        W22863  19.313  14.285   4.242
50604W        W22864  14.570  10.612  12.348
50605W        W22865  23.242  43.806  12.153
50606W        W22866  28.187  15.027   3.384
50607W        W22867  38.223  36.047   1.657
50608W        W22868  15.251  36.812   2.383
50609W        W22869  11.326  25.762  11.502
50610W        W22870   9.979  44.356   1.970
50611W        W22871  20.553  22.934   0.222
50612W        W22872  30.610  26.153   2.402
50613W        W22873   4.929   4.832   0.900
50614W        W22874  37.503  23.320  13.042
50615W        W22875  29.088  28.949   0.030
50616W        W22876  28.653  39.499  14.533
50617W        W22877   8.895   2.390  13.476
50618W        W22878   6.660   9.974  14.951
50619W        W22879  21.557   8.752   2.480
50620W        W22880  12.231   7.011  10.832
50621W        W22881  26.144   0.709  11.313
50622W        W22882  35.201   9.091   0.267
50623W        W22883  30.986  27.935  12.422
50624W        W22884  13.729  22.882  13.802
50625W        W22885  42.579   0.241   1.015
50626W        W22886  14.675  41.948  11.506
50627W        W22887  42.524  37.175  13.364
50628W        W22888  20.801  42.480  14.045
50629W        W22889  10.892   9.849  13.803
50630W        W22890  25.227  28.867  13.851
50631W        W22891   5.811  42.688  12.624
50632W        W22892  25.465  34.471   4.089
50633W        W22893  24.974  21.088  11.702
50634W        W22894  33.980  29.518  10.926
50635W        W22895  25.717  13.952   3.693
50636W        W22896   7.690   4.742  10.471
50637W        W22897  12.774   0.935   0.717
50638W        W22898  13.762  43.047  12.371
50639W        W22899  38.334  16.630   4.697
50640W        W22900  34.325  25.482   3.811
50641W        W22901   0.393  42.915   1.303
50642W        W22902  18.754   6.990   4.445
50643W        W22903  43.801  18.941   4.574
50644W        W22904  13.737  23.516  11.287
50645W        W22905  40.984  18.572  14.013
50646W        W22906   7.221  11.406   0.012
50647W        W22907  24.062  40.394  11.547
50648W        W22908  14.735  22.840   4.075
50649W        W22909  40.849  12.731   2.683
50650W        W22910  18.076   1.027  12.432
50651W        W22911  23.238   6.814  11.098
50652W        W22912  26.159  28.521  11.597
50653W        W22913  39.293  19.159   1.975
50654W        W22914  25.485   2.260   2.237
50655W        W22915  10.746  28.128   0.725
50656W        W22916  34.151   0.812  14.598
50657W        W22917  25.048  31.474  11.470
50658W        W22918  41.515  16.581   0.974
50659W        W22919  40.743  43.001  12.500
50660W        W22920  31.445   4.824  12.177
50661W        W22921  20.626  41.078  11.916
50662W        W22922  26.991  15.676  14.595
50663W        W22923  37.910   2.009  10.482
50664W        W22924  19.307  16.565  11.319
50665W        W22925  13.421  40.921  14.277
50666W        W22926  37.833   2.939  11.820
50667W        W22927  18.631   7.318  13.638
50668W        W22928   8.904  41.757  11.067
50669W        W22929  12.157  19.034   3.438
50670W        W22930  19.713  39.292   4.481
50671W        W22931  22.738  43.638  11.474
50672W        W22932  36.532   3.685  13.444
50673W        W22933  13.867  39.396   4.124
50674W        W22934  18.897  10.377  12.663
50675W        W22935   4.711   2.328   3.219
50676W        W22936  17.432  35.101   3.307
50677W        W22937  12.167  44.949   1.421
50678W        W22938  36.583  35.538   2.659
50679W        W22939  35.954   5.631  14.141
50680W        W22940  17.241  34.935  11.975
50681W        W22941  26.785  38.032  13.484
50682W        W22942   9.814   5.267  13.343
50683W        W22943  26.591  36.433   2.998
50684W        W22944  26.057  35.150  12.580
50685W        W22945   3.448  10.713   4.509
50686W        W22946  43.997  28.922   1.353
50687W        W22947  28.097  11.736   0.971
50688W        W22948  29.590  18.648   1.391
50689W        W22949  18.089  33.963  11.505
50690W        W22950  16.167  26.072  10.522
50691W        W22951  38.698  25.807  13.811
50692W        W22952  15.810  18.223  14.137
50693W        W22953   4.906  39.305  14.702
50694W        W22954  20.427  43.253  10.980
50695W        W22955   9.415  22.723   0.415
50696W        W22956  25.480  21.641  14.567
50697W        W22957  43.945  21.675   1.561
50698W        W22958   3.736  36.091  10.440
50699W        W22959   4.079  22.699   3.751
50700W        W22960   3.416  38.579   3.389
50701W        W22961  22.454  23.941   0.429
50702W        W22962   0.616   8.953   3.731
50703W        W22963  15.317   2.309  12.497
50704W        W22964  14.697   4.134  11.469
50705W        W22965  37.069  30.906   4.535
50706W        W22966   1.825  14.970  14.536
50707W        W22967  16.687  13.334   0.415
50708W        W22968  35.904   8.530  14.915
50709W        W22969   8.966  37.376  12.110
50710W        W22970  38.480   2.286   0.312
50711W        W22971  22.709  34.491  10.484
50712W        W22972  22.550  10.781   2.606
50713W        W22973  27.064  39.857  13.514
50714W        W22974  34.664  31.443   1.835
50715W        W22975  27.516   1.368   0.872
50716W        W22976   8.694  40.113  12.990
50717W        W22977   3.626   6.711   2.296
50718W        W22978   8.472   6.412  13.401
50719W        W22979  42.759  35.890  10.593
50720W        W22980  34.678  24.893  12.116
50721W        W22981  13.522  28.516  10.722
50722W        W22982   6.147  15.203  13.764
50723W        W22983  25.886   4.475  12.112
50724W        W22984  35.567   1.765   2.092
50725W        W22985  23.267   5.417   0.909
50726W        W22986  17.490  21.762   2.914
50727W        W22987  15.976  35.010  11.639
50728W        W22988  38.579   8.073  10.814
50729W        W22989  12.264  21.661  14.434
50730W        W22990  38.915  40.558  14.890
50731W        W22991  34.537  43.234   4.368
50732W        W22992  38.939  38.077  10.293
50733W        W22993   0.432  22.737  13.465
50734W        W22994   3.357  32.923  14.580
50735W        W22995  28.378  44.495  11.178
50736W        W22996  36.436   5.251   2.516
50737W        W22997  27.152  18.561   0.463
50738W        W22998  29.363   8.906  12.124
50739W        W22999  39.087  39.944   1.716
50740W        W23000  36.853   4.110   1.927
50741W        W23001  42.667  44.523   1.312
50742W        W23002  30.919  20.777   0.431
50743W        W23003  14.120  13.122   0.498
50744W        W23004   7.864   6.846  12.055
50745W        W23005  38.508  34.860  12.986
50746W        W23006   1.265   4.503  12.210
50747W        W23007  37.926  44.866   1.025
50748W        W23008   6.971   0.399   0.703
50749W        W23009   7.911   9.805   2.643
50750W        W23010  26.919  25.154   2.312
50751W        W23011  42.008  28.551   1.970
50752W        W23012  35.145  22.965  11.496
50753W        W23013  16.102  39.459  11.595
50754W        W23014  30.492  12.219   0.481
50755W        W23015   1.555  44.368   2.787
50756W        W23016  20.376  41.347  13.529
50757W        W23017  15.124   8.192  11.570
50758W        W23018  17.658   5.750   1.151
50759W        W23019  32.619  41.830  13.467
50760W        W23020  20.094  12.549   3.972
50761W        W23021  19.093   7.116   4.072
50762W        W23022  24.014   8.941  14.333
50763W        W23023  35.051  25.423  13.448
50764W        W23024   1.178   3.160   2.707
50765W        W23025  32.833  35.436  13.758
50766W        W23026  24.943  19.638  11.956
50767W        W23027  26.311  33.930   4.171
50768W        W23028  24.047  35.956  12.337
50769W        W23029   7.943  30.102   4.245
50770W        W23030  10.161  34.378  14.571
50771W        W23031  17.294   6.719  12.788
50772W        W23032  28.417  29.639  14.282
50773W        W23033  17.296   4.216  11.219
50774W        W23034  41.410   7.397   1.352
50775W        W23035  43.759  34.536  10.579
50776W        W23036  35.067   2.699  10.677
50777W        W23037  26.552   9.183  11.573
50778W        W23038  28.417  31.068   1.064
50779W        W23039  40.289   1.260   4.802
50780W        W23040  41.293  15.794   4.772
50781W        W23041  36.161  16.780  12.572
50782W        W23042  27.988   2.916   3.609
50783W        W23043  40.018   4.194  14.947
50784W        W23044   2.136  40.613   0.248
50785W        W23045  18.732  42.213  14.604
50786W        W23046  20.593   1.369  12.992
50787W        W23047  17.975  26.116  14.777
50788W        W23048  28.572  10.703  14.870
50789W        W23049   4.189  13.637  13.999
50790W        W23050  39.965   9.482  13.911
50791W        W23051  16.233  29.444  13.027
50792W        W23052   3.470  20.670   0.873
50793W        W23053  31.576  30.255   2.161
50794W        W23054   2.299  26.148  10.863
50795W        W23055  21.181   5.428  11.940
50796W        W23056   3.839   9.988   4.129
50797W        W23057  36.274  37.116  13.897
50798W        W23058  19.800  31.120  12.511
50799W        W23059  25.330  17.478   1.485
50800W        W23060  40.090  16.664  10.629
50801W        W23061  34.197  16.538  12.484
50802W        W23062   9.660  29.074   0.776
50803W        W23063  11.742  38.840   2.832
50804W        W23064  15.106  31.945   4.618
50805W        W23065  21.186  10.236   3.573
50806W        W23066  19.498  17.711   0.377
50807W        W23067   7.158   5.388  12.342
50808W        W23068   6.315  26.969   2.153
50809W        W23069  20.552  14.067  11.999
50810W        W23070   9.761  11.572  13.843
50811W        W23071  36.413  15.796   2.737
50812W        W23072  24.695  29.009  11.650
50813W        W23073  29.816  15.847   3.591
50814W        W23074  18.936   3.110   0.521
50815W        W23075  33.384  34.608  13.363
50816W        W23076  27.800   1.731  13.024
50817W        W23077  13.902  23.180   1.552
50818W        W23078   6.681  37.375   1.684
50819W        W23079  40.255  27.930   0.371
50820W        W23080  42.462  22.686   3.074
50821W        W23081  23.965  32.168   1.943
50822W        W23082  13.381  29.737  13.312
50823W        W23083  10.500  23.200  14.211
50824W        W23084  11.953  43.912   3.246
50825W        W23085   4.318  34.150   0.876
50826W        W23086   0.728  38.510  10.416
50827W        W23087   9.846   6.613  14.563
50828W        W23088  24.384   7.914   3.765
50829W        W23089  31.895  14.234   4.707
50830W        W23090  21.932  27.210   0.478
50831W        W23091  22.085  37.338  13.917
50832W        W23092   5.761  34.094   2.139
50833W        W23093  28.660  23.217   3.660
50834W        W23094  16.185  19.146  14.109
50835W        W23095   6.193   3.867   0.082
50836W        W23096  41.320   9.349  12.007
50837W        W23097  43.245   7.935  11.275
50838W        W23098  15.547  12.165   0.574
50839W        W23099  24.050  17.383   2.748
50840W        W23100  39.943  29.178  11.635
50841W        W23101  30.580  14.784   3.159
50842W        W23102  13.410  39.507   0.508
50843W        W23103  36.294  17.744  12.588
50844W        W23104  43.482  39.280   2.164
50845W        W23105  31.820  14.729   3.673
50846W        W23106   3.994  22.510   2.813
50847W        W23107  23.478   1.895  12.458
50848W        W23108   7.450   9.170   2.753
50849W        W23109  10.677  27.125   4.219
50850W        W23110   5.600  41.302  13.395
50851W        W23111   3.007   3.413   4.621
50852W        W23112  28.605  14.078   4.887
50853W        W23113  30.396  25.016  14.943
50854W        W23114   0.308  32.380   3.640
50855W        W23115   0.001   0.892  12.850
50856W        W23116   9.663  42.067   0.344
50857W        W23117  32.127   5.243  10.817
50858W        W23118  23.988  30.347   4.038
50859W        W23119  11.122  15.528   3.762
50860W        W23120  14.850   9.400   4.113
50861W        W23121  37.388   3.278   4.692
50862W        W23122  36.870  40.667   1.567
50863W        W23123  16.850   8.638   4.452
50864W        W23124   6.481  16.756  13.906
50865W        W23125  22.188  18.184  10.116
50866W        W23126   7.339  33.156  14.244
50867W        W23127  23.234  20.967   9.817
50868W        W23128   1.430  20.678   0.832
50869W        W23129  37.862  12.644   4.522
50870W        W23130   1.732  40.996   3.345
50871W        W23131  38.593  39.819   1.769
50872W        W23132   7.401  20.634   4.603
50873W        W23133  13.877  27.173   4.615
50874W        W23134  10.245  41.563  12.602
50875W        W23135  14.706   7.816   4.972
50876W        W23136   7.891   4.229   2.194
50877W        W23137  33.069  26.145  11.742
50878W        W23138  21.480  32.870  14.446
50879W        W23139  18.518  29.361  13.930
50880W        W23140  41.067  36.057  11.569
50881W        W23141  27.042  40.945  12.574
50882W        W23142  28.316  21.921  13.822
50883W        W23143  28.226  42.305  13.377
50884W        W23144   4.461  30.992   1.841
50885W        W23145   6.872  23.558  14.551
50886W        W23146  37.877  32.491  14.811
50887W        W23147  14.381  36.656   4.766
50888W        W23148  30.996  15.635  12.414
50889W        W23149  27.418  27.958  10.999
50890W        W23150  25.792  41.078   0.360
50891W        W23151  34.538  14.698  10.925
50892W        W23152   8.689  43.445   4.108
50893W        W23153  35.835  14.713  10.964
50894W        W23154  31.612  13.269  12.061
50895W        W23155  42.366   9.709   0.204
50896W        W23156   3.984  35.586  12.992
50897W        W23157  33.988  31.974   4.130
50898W        W23158   5.371  10.873  14.477
50899W        W23159  44.488   0.869  13.960
50900W        W23160  32.129   5.512  10.285
50901W        W23161  23.528   2.716  13.747
50902W        W23162   6.960  17.207  14.417
50903W        W23163  11.683  24.520   4.419
50904W        W23164  34.324  22.535   1.953
50905W        W23165  19.105  25.441   2.652
50906W        W23166   3.764   5.768  11.207
50907W        W23167  18.684   0.766  12.072
50908W        W23168  42.909  36.338  12.872
50909W        W23169  41.130  43.723  13.466
50910W        W23170  19.142  39.467   0.710
50911W        W23171  31.193  28.011  13.433
50912W        W23172   6.785   6.120   4.613
50913W        W23173   5.488   3.454   2.292
50914W        W23174  21.679  20.681  12.971
50915W        W23175  27.716  31.501   0.228
50916W        W23176  17.922  40.010   3.063
50917W        W23177  28.242  40.132  11.956
50918W        W23178  22.664   0.924   0.048
50919W        W23179  13.161   1.960   3.681
50920W        W23180  25.607   6.149  14.284
50921W        W23181  27.668  40.568   4.240
50922W        W23182  31.377  32.412   0.131
50923W        W23183   1.510   5.710  14.528
50924W        W23184  30.168  17.554   3.907
50925W        W23185  37.877  13.061   0.489
50926W        W23186  13.210  15.613  14.397
50927W        W23187  11.362  21.314   3.207
50928W        W23188   2.859  28.641  12.071
50929W        W23189  26.986  38.315  11.907
50930W        W23190  38.867   2.013   2.228
50931W        W23191  43.308  25.862  13.839
50932W        W23192  41.604  32.712   2.319
50933W        W23193  26.261  15.615   2.622
50934W        W23194   6.704  29.470  11.543
50935W        W23195   4.478  40.823  11.171
50936W        W23196  36.106  29.953   0.734
50937W        W23197  36.088  12.128  12.994
50938W        W23198  12.644  13.316  12.577
50939W        W23199  44.266  36.086  10.583
50940W        W23200   0.380  27.502   1.886
50941W        W23201  14.783  24.665   1.357
50942W        W23202  26.194  35.421   0.406
50943W        W23203  44.566   5.623  14.939
50944W        W23204   0.128  42.465   1.160
50945W        W23205  44.324   8.589  13.401
50946W        W23206  18.916  37.095   2.288
50947W        W23207  19.067  13.016  13.842
50948W        W23208  20.124  28.537   1.197
50949W        W23209  42.412  28.671   1.148
50950W        W23210  40.603  39.685  13.567
50951W        W23211  34.073  29.879  14.337
50952W        W23212  24.093  37.060   4.096
50953W        W23213  37.096  38.796  14.880
50954W        W23214  13.697  14.341   1.180
50955W        W23215  20.285  12.091   2.740
50956W        W23216  13.138  20.749   2.181
50957W        W23217  42.952  19.249   0.440
50958W        W23218   9.315  43.424   3.786
50959W        W23219  28.094  43.049  12.296
50960W        W23220  40.832   2.922   3.881
50961W        W23221  38.680  38.888   4.725
50962W        W23222  43.004   5.132   3.748
50963W        W23223  17.661   0.174  13.777
50964W        W23224  14.555  24.568  10.769
50965W        W23225  11.342  14.671  13.836
50966W        W23226  36.479  23.281   1.653
50967W        W23227  12.731  34.627  11.157
50968W        W23228  43.824  36.262  11.093
50969W        W23229  44.224  17.706   4.513
50970W        W23230  21.546  19.738   2.312
50971W        W23231  31.060  38.456   4.079
50972W        W23232  26.706  43.791  12.621
50973W        W23233  27.761  25.196   2.201
50974W        W23234  23.228  33.454   3.653
50975W        W23235  35.259  42.053   0.367
50976W        W23236  28.567   2.965   4.296
50977W        W23237  11.599  24.305  10.358
50978W        W23238  42.260  37.656   2.959
50979W        W23239  37.667  39.936   2.857
50980W        W23240  17.355  10.763  13.259
50981W        W23241  17.244  42.357  12.906
50982W        W23242   9.443  33.486   3.683
50983W        W23243  14.224  28.956   3.303
50984W        W23244   2.970  41.975   4.472
50985W        W23245  21.545  16.085  14.743
50986W        W23246  30.367  37.516   4.016
50987W        W23247  43.825  17.751  14.356
50988W        W23248  14.619  14.153   4.304
50989W        W23249  43.476   6.694   1.689
50990W        W23250  39.392   8.773  11.639
50991W        W23251  14.851  18.458  10.271
50992W        W23252  18.630   5.171   1.332
50993W        W23253   8.930  37.063   4.391
50994W        W23254  18.998  10.723   4.560
50995W        W23255  10.200  29.629  13.309
50996W        W23256  28.007   1.780   1.224
50997W        W23257  41.803  27.643   0.551
50998W        W23258  20.485  41.452   0.290
50999W        W23259  26.675   8.115   1.883
51000W        W23260   7.547  43.003   2.681
51001W        W23261  18.281  22.008  11.291
51002W        W23262  41.495  24.747  13.978
51003W        W23263  37.564  28.699   0.213
51004W        W23264  10.309  29.051  11.561
51005W        W23265  11.046   9.252  12.403
51006W        W23266  29.390  23.562  13.497
51007W        W23267  26.903  37.086  12.513
51008W        W23268   2.455  16.445  11.906
51009W        W23269  15.881  43.719   4.063
51010W        W23270   3.021   9.211   2.673
51011W        W23271   0.896  25.259  10.271
51012W        W23272  24.356  17.142   0.810
51013W        W23273   2.463   3.635  14.552
51014W        W23274  26.238  31.393  13.347
51015W        W23275  18.342  25.122  14.842
51016W        W23276  35.367  36.367  12.598
51017W        W23277  21.152  36.553  13.940
51018W        W23278   9.447   5.623   0.803
51019W        W23279  26.104  36.890  10.624
51020W        W23280  36.857  10.842   4.117
51021W        W23281  25.000  14.037   5.007
51022W        W23282  34.576  22.064   0.239
51023W        W23283  12.058   8.641   3.199
51024W        W23284  44.947  19.179  12.540
51025W        W23285  32.443  31.421   1.331
51026W        W23286  29.803  32.455   4.565
51027W        W23287   1.038  44.743   3.393
51028W        W23288   6.282  14.267  14.051
51029W        W23289  25.249  23.156   1.739
51030W        W23290  35.432   3.035   0.912
51031W        W23291  32.167  38.590   1.630
51032W        W23292  28.899  31.015   0.450
51033W        W23293   3.219  41.398  14.631
51034W        W23294   1.365  29.731  12.124
51035W        W23295  14.227  35.325   1.781
51036W        W23296   2.329  10.218  13.458
51037W        W23297  23.059   1.405  10.719
51038W        W23298  33.489  19.608   4.063
51039W        W23299  28.095  41.056   3.674
51040W        W23300  22.583   0.507  12.926
51041W        W23301  11.913  29.579  14.907
51042W        W23302  13.760  37.948   1.395
51043W        W23303  24.215   6.830   3.277
51044W        W23304  30.073  12.464   0.279
51045W        W23305  32.623  17.889  13.507
51046W        W23306  23.485  19.740  11.026
51047W        W23307  34.367  12.708  14.069
51048W        W23308  10.205  43.358   2.714
51049W        W23309   1.382   3.544  10.763
51050W        W23310  39.472  38.007   2.229
51051W        W23311  32.471  40.853   1.152
51052W        W23312   8.617  24.017  13.513
51053W        W23313  10.983  20.516  14.286
51054W        W23314  18.296  32.151  12.085
51055W        W23315  34.459  10.285  10.384
51056W        W23316  42.779   3.213  10.565
51057W        W23317  20.483  44.498   1.477
51058W        W23318  41.254  18.703   0.853
51059W        W23319  34.032  15.549  12.895
51060W        W23320  34.500  40.915   1.214
51061W        W23321  41.949  43.267  14.423
51062W        W23322  17.729   7.371   1.301
51063W        W23323  10.235   7.431  11.477
51064W        W23324   9.459   2.743  13.692
51065W        W23325  31.792  33.024  11.120
51066W        W23326  39.872  20.222   2.146
51067W        W23327   6.232  17.579   0.338
51068W        W23328  28.026   5.600   2.257
51069W        W23329   6.319  13.575   1.385
51070W        W23330  20.639  33.483  11.468
51071W        W23331   2.020  35.017  10.658
51072W        W23332  39.249   1.407   4.767
51073W        W23333  36.954  25.574  12.114
51074W        W23334  19.272  19.240   0.716
51075W        W23335   1.351  24.371  13.235
51076W        W23336   8.303   8.846  13.408
51077W        W23337  33.315  40.476   0.643
51078W        W23338  19.251  23.520  14.022
51079W        W23339  38.055  12.378   1.963
51080W        W23340  22.190  42.326  11.614
51081W        W23341  38.768   3.546  11.926
51082W        W23342  14.668   5.387   4.570
51083W        W23343  32.531  27.770  13.542
51084W        W23344  29.575  37.739  11.532
51085W        W23345  19.776   9.336  12.146
51086W        W23346  10.243  11.798  11.646
51087W        W23347  14.025  31.321  10.192
51088W        W23348   9.635  27.486  12.085
51089W        W23349  25.263  38.732  14.358
51090W        W23350  37.463  13.210  12.378
51091W        W23351  41.795  44.857   0.801
51092W        W23352  26.153  44.602   2.845
51093W        W23353  41.266   4.939   1.835
51094W        W23354  39.050  25.948   9.918
51095W        W23355  32.902  25.831   2.429
51096W        W23356   2.767  15.069  14.776
51097W        W23357   0.895  39.889   1.730
51098W        W23358  12.205  25.911   0.476
51099W        W23359  39.639  17.330  13.558
51100W        W23360  13.686  27.211   0.975
51101W        W23361  26.202  15.586  11.411
51102W        W23362  35.291  11.386   1.407
51103W        W23363  11.788  26.954  13.847
51104W        W23364  13.648  30.994  13.013
51105W        W23365  25.692  40.844  13.737
51106W        W23366   6.445   1.781   1.294
51107W        W23367  36.842  27.600  11.371
51108W        W23368  16.771  16.414   3.255
51109W        W23369   4.154  14.415   0.673
51110W        W23370  18.609  30.178   4.645
51111W        W23371   2.460  12.051   4.466
51112W        W23372  43.497  21.059   0.279
51113W        W23373  43.096  25.720   4.276
51114W        W23374  33.142  18.484  12.885
51115W        W23375  39.251   8.730   4.620
51116W        W23376  28.454  29.021   0.824
51117W        W23377  11.629  21.053   2.856
51118W        W23378  20.620  41.398   2.385
51119W        W23379  33.117  16.077   2.365
51120W        W23380  17.274   1.303   2.293
51121W        W23381   4.974  42.440  10.762
51122W        W23382   9.466  37.478  12.114
51123W        W23383  28.660  28.071   2.831
51124W        W23384   5.717   0.929  14.465
51125W        W23385  38.576  17.129   2.928
51126W        W23386  21.658  35.409   4.361
51127W        W23387  34.844  23.028  12.017
51128W        W23388  41.694   8.386  13.721
51129W        W23389  44.851  18.548   3.844
51130W        W23390  43.274  35.419  13.312
51131W        W23391   1.382   3.205  12.082
51132W        W23392  34.982  20.838  13.944
51133W        W23393  25.644   6.802   0.917
51134W        W23394   0.202  41.730  10.895
51135W        W23395  35.735   7.936  13.459
51136W        W23396  30.959  37.574   3.641
51137W        W23397  36.323  33.667  12.433
51138W        W23398  15.192  12.002   2.271
51139W        W23399  39.128   7.706  13.447
51140W        W23400  16.979  24.688   4.140
51141W        W23401  27.144   6.653  13.753
51142W        W23402  18.069  33.359  12.283
51143W        W23403  28.425  11.561  12.043
51144W        W23404  20.709  36.894   2.325
51145W        W23405   5.868   0.007   1.386
51146W        W23406  37.577   4.411   1.275
51147W        W23407  22.291   5.707  11.318
51148W        W23408  25.508  34.594  11.087
51149W        W23409  12.358  32.504   2.093
51150W        W23410  38.594  24.736  11.015
51151W        W23411  12.017  15.138   2.384
51152W        W23412  22.784   5.190  13.395
51153W        W23413  27.203  14.231  13.188
51154W        W23414  43.587  34.179  12.966
51155W        W23415   0.971   7.483  11.035
51156W        W23416  17.118  44.033  13.869
51157W        W23417  18.082  32.490  13.927
51158W        W23418   2.850   6.247  14.091
51159W        W23419  12.149  26.496   5.233
51160W        W23420  27.645  16.352  12.430
51161W        W23421   7.830  13.146   2.289
51162W        W23422  36.436  30.472   4.370
51163W        W23423  21.606  11.613   3.639
51164W        W23424  17.188  15.965   1.867
51165W        W23425  19.655   9.197  11.614
51166W        W23426  20.218  16.287  14.444
51167W        W23427   2.704  16.794  13.596
51168W        W23428  37.600  34.013   1.757
51169W        W23429  17.632  39.310   4.484
51170W        W23430  34.297  35.312  10.660
51171W        W23431  29.395  26.398  10.750
51172W        W23432  22.226  20.101  10.175
51173W        W23433  20.447  39.593  13.415
51174W        W23434  31.353  12.067   0.470
51175W        W23435  14.170   9.630   4.553
51176W        W23436  23.202  20.594  13.740
51177W        W23437  20.518  27.000  14.220
51178W        W23438  25.739   2.213  11.171
51179W        W23439  37.680  18.775   3.786
51180W        W23440  30.467  31.128  14.728
51181W        W23441  15.709  19.214  11.538
51182W        W23442  36.300  18.544   4.654
51183W        W23443  37.257  21.158   0.285
51184W        W23444   4.635  21.196   4.548
51185W        W23445  14.223  16.891   4.252
51186W        W23446  43.395  37.564  12.829
51187W        W23447   6.229  19.552   0.440
51188W        W23448  44.999  16.625  14.921
51189W        W23449  30.619   7.803   3.728
51190W        W23450  29.885  27.620   4.055
51191W        W23451  37.335  37.475   2.751
51192W        W23452  11.099   7.325  13.560
51193W        W23453  38.312  40.014  11.078
51194W        W23454   6.282   3.240   1.739
51195W        W23455  25.537   3.786  13.433
51196W        W23456  30.452  26.929   4.791
51197W        W23457  26.256  28.467   4.044
51198W        W23458  17.688  24.923   2.773
51199W        W23459  33.607  35.638   0.951
51200W        W23460   2.026  27.985  11.734
51201W        W23461   0.520  26.400   3.293
51202W        W23462  10.587  39.037   1.711
51203W        W23463   7.820  12.144  13.387
51204W        W23464  30.987  37.844  12.849
51205W        W23465  44.684  26.266  12.952
51206W        W23466  39.568   1.445  13.886
51207W        W23467  22.766   1.912  13.176
51208W        W23468   4.384   7.849  11.956
51209W        W23469   5.297  28.719  11.047
51210W        W23470  32.461  34.122  13.939
51211W        W23471  13.619  21.124   1.204
51212W        W23472  15.135   4.430  13.141
51213W        W23473  21.477   8.142  11.619
51214W        W23474  25.244  17.250   0.988
51215W        W23475   7.341  15.287  13.377
51216W        W23476  38.890  17.182   1.126
51217W        W23477  15.564  12.045  11.176
51218W        W23478   4.385   6.264  13.529
51219W        W23479  35.334  30.185  10.759
51220W        W23480  29.979  33.437  14.930
51221W        W23481  35.754  24.890  14.472
51222W        W23482  30.574  17.147  12.093
51223W        W23483  27.953  19.522  10.275
51224W        W23484  17.917  24.117   4.382
51225W        W23485   0.960  25.496  12.608
51226W        W23486  43.084  20.639  14.327
51227W        W23487  20.213   8.251  14.915
51228W        W23488  25.151  39.229  14.355
51229W        W23489  27.575  31.938  14.460
51230W        W23490  21.292  16.973  12.961
51231W        W23491  11.160  21.708   0.043
51232W        W23492  34.962  30.087   1.960
51233W        W23493  23.791  39.275   0.794
51234W        W23494  21.808   4.078  13.076
51235W        W23495  22.158  36.336  10.512
51236W        W23496  35.010  14.897   0.669
51237W        W23497  23.239  21.685  12.455
51238W        W23498   9.831  38.357   2.753
51239W        W23499  14.939   9.370   2.386
51240W        W23500   5.218  36.536   4.044
51241W        W23501   3.885  34.621   2.623
51242W        W23502  29.966  31.268  14.603
51243W        W23503  21.335  26.987  11.651
51244W        W23504  15.130  10.083  14.161
51245W        W23505  16.021  23.539   4.440
51246W        W23506   0.744  37.632  10.724
51247W        W23507   1.522  23.678   4.379
51248W        W23508  22.016  22.583   4.607
51249W        W23509  31.066  27.004   2.177
51250W        W23510   8.629  34.945   3.213
51251W        W23511   6.666  40.692   1.781
51252W        W23512   4.909  36.001   2.173
51253W        W23513  40.901  17.089  14.956
51254W        W23514   0.014  23.096   4.906
51255W        W23515  31.648  43.078   1.448
51256W        W23516  17.102  20.665   3.329
51257W        W23517  44.884  20.304   4.432
51258W        W23518  43.018  10.325   5.107
51259W        W23519  12.873  34.963   2.207
51260W        W23520  20.077   0.971   2.644
51261W        W23521   0.485   3.276   1.606
51262W        W23522  16.888   6.192   4.124
51263W        W23523  14.000   1.499  13.417
51264W        W23524  14.149   2.347   4.012
51265W        W23525   6.495  12.134   4.601
51266W        W23526   3.242  38.527  14.340
51267W        W23527  44.423  43.187  13.342
51268W        W23528  11.581  42.122   3.310
51269W        W23529  43.103  30.792  11.441
51270W        W23530  14.156  15.279   1.047
51271W        W23531  33.161   9.787  10.196
51272W        W23532  41.874  24.139   0.508
51273W        W23533  38.872  16.858  12.687
51274W        W23534  20.334  23.049  11.923
51275W        W23535  31.688  17.816  12.021
51276W        W23536  10.755   7.861   4.115
51277W        W23537  10.888  10.734  14.414
51278W        W23538  38.156  33.589  13.452
51279W        W23539  22.636  19.290   3.733
51280W        W23540  23.880  15.784   0.916
51281W        W23541   4.335  40.495  13.399
51282W        W23542  34.034  38.326  11.533
51283W        W23543  26.870  24.575   1.402
51284W        W23544  21.716   3.540  14.805
51285W        W23545  38.300  41.763  13.659
51286W        W23546  21.537  12.754   1.591
51287W        W23547   8.413  32.011   3.331
51288W        W23548  26.529  13.155   1.331
51289W        W23549  33.092  29.565  14.545
51290W        W23550  34.341  40.982   3.239
51291W        W23551  22.574  24.593   0.793
51292W        W23552  30.384  12.592  11.546
51293W        W23553  19.125  31.022  12.049
51294W        W23554  11.223   6.679  14.914
51295W        W23555   9.087  27.407  10.693
51296W        W23556  23.760  20.035   2.328
51297W        W23557   6.667  13.616   2.367
51298W        W23558  38.559  30.406   2.609
51299W        W23559   2.321   5.433   1.406
51300W        W23560  44.917  34.001  14.973
51301W        W23561   0.346   9.160  14.038
51302W        W23562  10.880  30.923  13.905
51303W        W23563  23.119   8.755  10.648
51304W        W23564  42.053  41.831  13.093
51305W        W23565  12.679   8.442  14.737
51306W        W23566  38.943  43.376  11.176
51307W        W23567  26.245  13.592   1.878
51308W        W23568  38.070  11.366   2.865
51309W        W23569  37.539  17.844   3.575
51310W        W23570  24.130  38.454  10.412
51311W        W23571  31.510   0.636  14.753
51312W        W23572  36.004  32.034  12.046
51313W        W23573  30.657   9.238   1.467
51314W        W23574  39.276  28.586  13.158
51315W        W23575  26.689  40.860   0.405
51316W        W23576  12.381  36.887  14.881
51317W        W23577   9.395  13.830   4.367
51318W        W23578  15.180  21.484   3.194
51319W        W23579  11.902   7.019  11.855
51320W        W23580  11.644  18.181   1.878
51321W        W23581  13.257  12.283  12.941
51322W        W23582  23.975   2.411   3.877
51323W        W23583  16.850   4.341  10.528
51324W        W23584  30.874   7.543   3.367
51325W        W23585  25.277  40.870  11.961
51326W        W23586  29.113  25.572  12.657
51327W        W23587  14.886  23.564  10.462
51328W        W23588   5.807  33.602   3.258
51329W        W23589  28.889  31.466   4.741
51330W        W23590  32.001  22.507   4.629
51331W        W23591  15.394  18.687  13.462
51332W        W23592   9.633   5.625   4.235
51333W        W23593  32.648  27.022  14.824
51334W        W23594  43.301  10.335   2.369
51335W        W23595   5.401  25.270  12.930
51336W        W23596  40.360  44.107   3.200
51337W        W23597  33.063  34.927  13.019
51338W        W23598  12.563  19.892  11.128
51339W        W23599  17.560  12.696  11.878
51340W        W23600   6.431  32.672  14.433
51341W        W23601  14.285  31.618   4.905
51342W        W23602  14.135  32.626   4.997
51343W        W23603  21.535   4.418   5.005
51344W        W23604  26.015  33.617   0.824
51345W        W23605  17.066  26.197   1.314
51346W        W23606  13.712  18.031   2.344
51347W        W23607  44.052  32.655   0.454
51348W        W23608  13.204   1.423   1.380
51349W        W23609  13.720  24.479   4.354
51350W        W23610  26.105   4.011  12.880
51351W        W23611  30.488  39.608  13.268
51352W        W23612  27.194  23.463   2.946
51353W        W23613   1.368  37.020   0.961
51354W        W23614  16.755  20.369   4.410
51355W        W23615  21.603  10.286   4.895
51356W        W23616   7.751  26.654   0.478
51357W        W23617  13.385   9.008   2.311
51358W        W23618  43.354  15.620   2.713
51359W        W23619  25.447  40.791   3.362
51360W        W23620  23.623   2.418  12.424
51361W        W23621   2.535  38.997  14.334
51362W        W23622  12.333  31.667   2.366
51363W        W23623  13.813   8.306   3.247
51364W        W23624  20.697  15.045  12.118
51365W        W23625  12.441  10.724  13.811
51366W        W23626   4.844  34.185   2.744
51367W        W23627   0.234  35.503  12.340
51368W        W23628   8.909  35.157   3.619
51369W        W23629  38.285  19.136   0.853
51370W        W23630  28.279  39.583   3.729
51371W        W23631  41.965  19.292  12.004
51372W        W23632   2.381  21.282  10.611
51373W        W23633   8.600  16.593   1.856
51374W        W23634  18.491  36.964  13.236
51375W        W23635  20.094  16.830  13.473
51376W        W23636  42.812  42.006   3.770
51377W        W23637  34.043  31.393   0.296
51378W        W23638  43.815  27.215   0.424
51379W        W23639  39.092  16.356   2.725
51380W        W23640  10.295  33.812   1.810
51381W        W23641  18.445   0.432   3.784
51382W        W23642  17.086  22.693  11.612
51383W        W23643  31.602   6.188  12.432
51384W        W23644  13.780  24.235  10.678
51385W        W23645   2.844  38.064  14.695
51386W        W23646  24.143  13.201   0.278
51387W        W23647  33.050  20.438   0.960
51388W        W23648   2.737  32.365  14.293
51389W        W23649  37.695  12.111  14.582
51390W        W23650  42.992  34.808   1.893
51391W        W23651  20.344  22.856   4.138
51392W        W23652   0.076   7.835   4.564
51393W        W23653  30.988  42.025   4.625
51394W        W23654  29.789  28.890   5.425
51395W        W23655  32.090   4.941   0.830
51396W        W23656   0.897  29.233   3.416
51397W        W23657  27.549   0.367   0.490
51398W        W23658  34.124  21.598  11.047
51399W        W23659  35.816  39.436  13.620
51400W        W23660  19.164  10.068  12.982
51401W        W23661  19.299  44.633   3.817
51402W        W23662  43.321   5.766   3.281
51403W        W23663  25.428  14.685   3.156
51404W        W23664   0.889   5.353  10.730
51405W        W23665   8.712   1.799   0.291
51406W        W23666  40.075  22.566  13.754
51407W        W23667  44.194  34.442   4.470
51408W        W23668  36.730   8.243  10.287
51409W        W23669  40.998  30.479   4.691
51410W        W23670  30.071  33.571   3.272
51411W        W23671   8.310  27.588  11.100
51412W        W23672  16.359  12.698   4.177
51413W        W23673  34.350  21.505   5.178
51414W        W23674   6.217  37.683   0.400
51415W        W23675  36.826  30.566  12.814
51416W        W23676   3.301  37.642  14.499
51417W        W23677   7.251  38.480  12.023
51418W        W23678   4.323   4.986  11.136
51419W        W23679  40.806  27.149   3.782
51420W        W23680  37.486  25.989   2.388
51421W        W23681  35.626   7.719   1.307
51422W        W23682  18.504  18.632  12.788
51423W        W23683  39.780  25.046  14.810
51424W        W23684  26.592   9.537  13.860
51425W        W23685  16.023  32.182   0.290
51426W        W23686  15.685   8.385  13.755
51427W        W23687  28.473  13.246  11.354
51428W        W23688  10.806  12.338   3.243
51429W        W23689   0.813  18.168  10.598
51430W        W23690   7.360   3.246   0.745
51431W        W23691  34.421  24.956   1.288
51432W        W23692  25.072   7.952  11.912
51433W        W23693  27.926   2.151   3.117
51434W        W23694   5.360   0.844   3.279
51435W        W23695  35.620   0.906  11.132
51436W        W23696  30.425  24.997  10.761
51437W        W23697  39.775  29.596   3.187
51438W        W23698  41.608   6.890  12.992
51439W        W23699  40.872  37.308   0.669
51440W        W23700  17.518  15.886  14.288
51441W        W23701   6.835  41.551   0.820
51442W        W23702  28.538  28.116   3.789
51443W        W23703  36.530   3.513   5.173
51444W        W23704  42.993  19.382  12.027
51445W        W23705  26.612   0.420   0.038
51446W        W23706  44.430  14.819   3.446
51447W        W23707  13.947   8.657  10.983
51448W        W23708  15.248   0.447   3.180
51449W        W23709  16.789  29.327  13.853
51450W        W23710  13.840  39.983   1.220
51451W        W23711  26.706  16.694  10.520
51452W        W23712  42.511  25.510  12.814
51453W        W23713  18.047  37.807  12.442
51454W        W23714  43.715  37.710   2.844
51455W        W23715  38.492  13.851   2.311
51456W        W23716  17.791  41.432   1.476
51457W        W23717  14.125  28.094   4.091
51458W        W23718  17.153  35.016   2.879
51459W        W23719  29.640   8.602   4.537
51460W        W23720  26.306  28.842  10.279
51461W        W23721  41.583  41.026  14.957
51462W        W23722   6.838  31.409  12.450
51463W        W23723  40.051  26.477   0.905
51464W        W23724  14.272  21.936  10.995
51465W        W23725  24.684  21.196   4.191
51466W        W23726  28.803  34.481   4.382
51467W        W23727  26.925  36.992   0.023
51468W        W23728  17.032  12.154   1.887
51469W        W23729  36.566   1.947   2.182
51470W        W23730  41.857  25.525   1.698
51471W        W23731  19.818  29.539  10.643
51472W        W23732  19.119  15.437  12.989
51473W        W23733  36.586  22.109   2.463
51474W        W23734  29.285  21.303  11.195
51475W        W23735  34.537   9.786   2.132
51476W        W23736  18.471  31.782   4.554
51477W        W23737  23.694  17.382  11.021
51478W        W23738  19.119  23.941  13.516
51479W        W23739  34.924  43.253   4.709
51480W        W23740  23.063  35.114  14.293
51481W        W23741  38.713  11.654  13.279
51482W        W23742  18.103  39.980  14.376
51483W        W23743  15.851  34.993   0.460
51484W        W23744  20.295   0.890   0.460
51485W        W23745   4.720  25.168   3.391
51486W        W23746   7.817  15.149  14.875
51487W        W23747  25.483  38.768  13.884
51488W        W23748   0.391  37.573  12.352
51489W        W23749   4.193   2.418   4.096
51490W        W23750  20.918  13.662   0.788
51491W        W23751  13.169  21.053   5.039
51492W        W23752  25.958  14.222  13.929
51493W        W23753  10.418  19.691   2.422
51494W        W23754  43.933   2.661  14.811
51495W        W23755  22.992  23.764   4.309
51496W        W23756  21.652  10.205   3.869
51497W        W23757  36.724  39.275   3.630
51498W        W23758  38.470  36.077  13.973
51499W        W23759   0.444  35.477  13.252
51500W        W23760  20.144  29.410   1.543
51501W        W23761  26.039   6.214   0.324
51502W        W23762  21.991  33.620   0.447
51503W        W23763   0.081  32.714   0.282
51504W        W23764  16.075  34.907   3.107
51505W        W23765  37.037  40.661  10.939
51506W        W23766  21.197   4.197  13.127
51507W        W23767  31.965  18.592  11.603
51508W        W23768  37.894  42.590   4.522
51509W        W23769  22.312  23.531   1.923
51510W        W23770  33.223   5.299   0.363
51511W        W23771  25.458   7.893   4.597
51512W        W23772  43.515   2.354   4.924
51513W        W23773  21.903  42.409   2.862
51514W        W23774  40.585  21.746   3.680
51515W        W23775   1.678  44.833   1.418
51516W        W23776  33.901   3.564  12.772
51517W        W23777  15.502   7.636   4.449
51518W        W23778  35.629  41.914   0.055
51519W        W23779  41.983   5.587   4.245
51520W        W23780  25.053  12.935  11.199
51521W        W23781  42.361  39.005   0.019
51522W        W23782   2.592  18.720   0.868
51523W        W23783  15.115   0.344  13.355
51524W        W23784  11.162  19.108   1.354
51525W        W23785  40.125  25.453  13.884
51526W        W23786  12.255  26.738  12.322
51527W        W23787  12.871  40.729   1.800
51528W        W23788  22.308  40.562  11.071
51529W        W23789  10.899  20.297   4.532
51530W        W23790   7.706  40.883  12.046
51531W        W23791  43.995  22.263  14.400
51532W        W23792  17.472  15.763  10.245
51533W        W23793  14.035  10.827  14.250
51534W        W23794  20.010   8.323   2.408
51535W        W23795  21.470   1.296  11.916
51536W        W23796  26.274  21.303   2.866
51537W        W23797   0.890  32.624  13.411
51538W        W23798   1.973  25.167  14.483
51539W        W23799  34.282  11.346   4.726
51540W        W23800  18.458   4.711  12.513
51541W        W23801  26.743  33.311   0.340
51542W        W23802  37.565   0.870  12.072
51543W        W23803  42.740  11.561   1.153
51544W        W23804  38.787  22.859   5.053
51545W        W23805  17.148  27.213  13.553
51546W        W23806  30.979  11.690   3.685
51547W        W23807   8.407  15.499  13.018
51548W        W23808  38.502  27.949  11.692
51549W        W23809  34.048  19.175   2.205
51550W        W23810  10.672  42.201  13.113
51551W        W23811   7.295  11.050   1.894
51552W        W23812  30.410  27.549   4.149
51553W        W23813  36.946   4.745   0.287
51554W        W23814  10.182  21.256   4.721
51555W        W23815  28.015  25.917   1.742
51556W        W23816  24.613  27.179  11.063
51557W        W23817   8.700   1.430   1.839
51558W        W23818  31.243  29.825   3.386
51559W        W23819  28.174  17.755   0.950
51560W        W23820  40.927  23.795  10.712
51561W        W23821  44.679  37.325  10.022
51562W        W23822  37.944  18.145   3.226
51563W        W23823  13.784  18.358  12.999
51564W        W23824  36.071   9.246  11.950
51565W        W23825  11.666  26.714  10.101
51566W        W23826  31.945  26.062   4.585
51567W        W23827   5.432  37.543   2.586
51568W        W23828  42.580   8.416  14.894
51569W        W23829   7.776   7.151  14.848
51570W        W23830  20.659  44.791   3.291
51571W        W23831  11.306  38.556   4.429
51572W        W23832  32.890   3.145   3.868
51573W        W23833  20.022  11.586  14.302
51574W        W23834  26.472  23.228  13.337
51575W        W23835  23.149  26.682  13.562
51576W        W23836  29.667  34.005  11.113
51577W        W23837  12.221  43.741  12.851
51578W        W23838   2.776  34.427  10.766
51579W        W23839  26.603  32.547   3.442
51580W        W23840   2.676  31.970  11.561
51581W        W23841   4.749  41.519   3.896
51582W        W23842   1.429  22.659  11.931
51583W        W23843   9.239  35.490   4.594
51584W        W23844   1.083   2.778  12.123
51585W        W23845  13.229  24.661   4.257
51586W        W23846   7.406  28.075   1.263
51587W        W23847  41.752  37.733   3.115
51588W        W23848   0.012  23.588   4.055
51589W        W23849  20.363  29.132   4.010
51590W        W23850  26.066   8.741  13.410
51591W        W23851  28.747   3.957  12.054
51592W        W23852  34.130  42.242  11.581
51593W        W23853  30.955  39.971   3.211
51594W        W23854  31.747  25.226   1.927
51595W        W23855  42.128  13.764   3.821
51596W        W23856  15.638  12.303  11.631
51597W        W23857  29.584  11.172   1.226
51598W        W23858  30.378  42.703   2.654
51599W        W23859  44.461  38.775  13.261
51600W        W23860   1.729  11.682  14.739
51601W        W23861  30.419  12.122   2.322
51602W        W23862  30.729   2.538   4.725
51603W        W23863  43.879  41.973   1.595
51604W        W23864  39.014  26.025  14.338
51605W        W23865  21.287  23.465   5.071
51606W        W23866  34.503  39.002   0.053
51607W        W23867  24.336  27.921  12.922
51608W        W23868  11.591  21.562  10.512
51609W        W23869  26.119  17.554  11.627
51610W        W23870  35.072   5.732   4.464
51611W        W23871   9.342  18.808   3.113
51612W        W23872  31.570  38.247   4.183
51613W        W23873   9.925  23.264   1.710
51614W        W23874  17.742  22.173  13.004
51615W        W23875  30.155  13.511   1.401
51616W        W23876  22.839   9.179  10.721
51617W        W23877  13.452  42.206   3.242
51618W        W23878  22.610  17.091  10.773
51619W        W23879  20.972   3.423  12.575
51620W        W23880  38.495  24.980  10.530
51621W        W23881   1.277  22.009  13.816
51622W        W23882  36.613  16.129  11.200
51623W        W23883   2.872  40.407  13.691
51624W        W23884  31.019  26.914   4.079
51625W        W23885  24.107  19.713   4.643
51626W        W23886  37.911  26.114   1.634
51627W        W23887  41.326  35.414   0.633
51628W        W23888  30.421  23.237   3.063
51629W        W23889   8.904  38.317   3.840
51630W        W23890  15.597  17.732  14.279
51631W        W23891  36.844  41.864   3.653
51632W        W23892  44.133  42.248  11.582
51633W        W23893   3.359   6.281  13.948
51634W        W23894  33.412  19.338  14.568
51635W        W23895  14.573  27.908  10.108
51636W        W23896  33.434   2.428   2.354
51637W        W23897  27.923  42.327   3.132
51638W        W23898  31.206  28.315  11.494
51639W        W23899  34.675  29.633  12.043
51640W        W23900  27.491  11.626   3.024
51641W        W23901   7.146  27.572   4.398
51642W        W23902  31.997  33.361  12.990
51643W        W23903  27.684  23.002  11.130
51644W        W23904  24.069  18.634   1.640
51645W        W23905  24.456  20.542   1.779
51646W        W23906   0.259  26.909   4.135
51647W        W23907   6.339   5.861   4.535
51648W        W23908  44.210   8.494   3.730
51649W        W23909   5.764  37.247   2.843
51650W        W23910   1.786   2.431   3.281
51651W        W23911  21.519  16.696   1.946
51652W        W23912  34.730   2.442   4.515
51653W        W23913   5.365  35.646  12.153
51654W        W23914  31.994  17.225   3.358
51655W        W23915   4.878  21.203   4.079
51656W        W23916  27.370   4.956   1.160
51657W        W23917  34.486  18.015   2.715
51658W        W23918   7.809  14.726   0.330
51659W        W23919  43.320  19.178  11.278
51660W        W23920  26.677  21.449   3.881
51661W        W23921  14.583  16.038  10.833
51662W        W23922   7.884  23.919   5.534
51663W        W23923  13.353  36.822   3.917
51664W        W23924  32.380   8.773  13.793
51665W        W23925  37.903  23.587  13.272
51666W        W23926  21.577   3.727   2.186
51667W        W23927  37.930   9.642  14.790
51668W        W23928   8.319   7.333  13.368
51669W        W23929  16.637  10.189   4.259
51670W        W23930  16.594  12.740  11.530
51671W        W23931   5.038  35.591  11.497
51672W        W23932  41.580  10.732  11.845
51673W        W23933   5.817  19.809  13.191
51674W        W23934   7.380  29.004   0.301
51675W        W23935  30.164  15.677   0.056
51676W        W23936  32.350   6.305   3.494
51677W        W23937  44.948  15.210   4.462
51678W        W23938  21.566   7.396   1.709
51679W        W23939   8.807   2.179   2.348
51680W        W23940   6.760  27.151   1.905
51681W        W23941  22.482  13.386   1.331
51682W        W23942  13.075  32.161   3.376
51683W        W23943  32.478  23.023  14.567
51684W        W23944   3.232   1.505   2.214
51685W        W23945  17.323  43.020   4.608
51686W        W23946  30.326  22.936  14.876
51687W        W23947  17.257  33.392  14.360
51688W        W23948  21.235   9.362  13.425
51689W        W23949   1.968  31.554   2.248
51690W        W23950   4.382  21.473  10.880
51691W        W23951  42.938  29.187   0.386
51692W        W23952  34.363  20.804   9.816
51693W        W23953  24.539  38.234  14.843
51694W        W23954  21.061  39.765  12.836
51695W        W23955  16.705  37.300  12.679
51696W        W23956  41.079  13.499   4.626
51697W        W23957  18.770  44.972  11.082
51698W        W23958  28.644  44.441  14.031
51699W        W23959  18.307   1.969  13.893
51700W        W23960  11.077  43.753   2.156
51701W        W23961  12.753  35.498   2.191
51702W        W23962   9.236  26.024   0.279
51703W        W23963  24.191  21.944   4.180
51704W        W23964  25.600   5.081  14.271
51705W        W23965   9.161  16.147   0.670
51706W        W23966  11.998  38.777  13.477
51707W        W23967  28.528  40.533   0.898
51708W        W23968  16.072  35.104  11.151
51709W        W23969  14.879  36.066  12.794
51710W        W23970   9.179  11.366  14.330
51711W        W23971  44.329  32.813  13.126
51712W        W23972  12.252  13.861   3.391
51713W        W23973  11.122  32.121  14.383
51714W        W23974  21.785  31.595   4.276
51715W        W23975  33.393   1.004  11.001
51716W        W23976  15.669  34.323  11.973
51717W        W23977   4.506  19.641   1.983
51718W        W23978   7.347  36.672   0.442
51719W        W23979  24.645  22.114  12.975
51720W        W23980  39.500  39.993   2.012
51721W        W23981  32.098   6.052   3.101
51722W        W23982  37.923  25.644   0.659
51723W        W23983  11.168  37.036  11.914
51724W        W23984  18.260  17.621  14.932
51725W        W23985  32.084  41.980   0.835
51726W        W23986  18.224  33.032   1.885
51727W        W23987  15.597  18.607   1.748
51728W        W23988   9.980  14.543   0.310
51729W        W23989  13.756  21.649  12.939
51730W        W23990  30.652   4.328  13.813
51731W        W23991  17.848  38.897  13.910
51732W        W23992   3.293  19.748  11.670
51733W        W23993  20.547   1.488  13.880
51734W        W23994  17.791   8.273   0.828
51735W        W23995  14.861  19.648  13.938
51736W        W23996  39.376  11.800  14.487
51737W        W23997  13.560  31.266   2.129
51738W        W23998   1.891  33.685  13.944
51739W        W23999  43.196  42.949  14.117
51740W        W24000  23.122  43.413  14.527
51741W        W24001  24.379  29.286  14.455
51742W        W24002   4.077  36.031   4.719
51743W        W24003   4.433  32.682   4.052
51744W        W24004  35.969  17.502  10.641
51745W        W24005  34.151  35.565  14.038
51746W        W24006  40.918   0.929  14.776
51747W        W24007  19.038  28.690  11.671
51748W        W24008  15.570  17.603   1.650
51749W        W24009  13.619   3.056   0.751
51750W        W24010   1.354   1.199   4.161
51751W        W24011   9.234  30.669  14.452
51752W        W24012  23.527  27.457  11.570
51753W        W24013   3.763   6.535  14.134
51754W        W24014   2.808  19.418   4.493
51755W        W24015  25.707  10.452  11.104
51756W        W24016  42.580  41.016  14.690
51757W        W24017  16.762  28.939   0.352
51758W        W24018  35.064  34.002  12.177
51759W        W24019   4.956  24.183  13.394
51760W        W24020   5.733   5.748  11.070
51761W        W24021   5.744  24.557  12.602
51762W        W24022  42.066  40.594   1.456
51763W        W24023  37.675  11.280   1.019
51764W        W24024  29.521  12.701   3.245
51765W        W24025   6.300  42.210   0.656
51766W        W24026  20.363  44.075   0.491
51767W        W24027  23.517  27.820  13.332
51768W        W24028  31.544  31.954   9.695
51769W        W24029   1.800  41.406  10.898
51770W        W24030  34.489  31.913   9.949
51771W        W24031  22.775  30.159   3.364
51772W        W24032   8.229  31.273  14.141
51773W        W24033  38.585  28.865  14.992
51774W        W24034  31.551  42.412  12.630
51775W        W24035  32.022  10.886   5.060
51776W        W24036  42.425  14.874   3.493
51777W        W24037  27.698  34.201  12.843
51778W        W24038   7.724  24.170   1.716
51779W        W24039  44.731  42.278  14.471
51780W        W24040  26.681  35.186   1.808
51781W        W24041  15.842   6.750   0.301
51782W        W24042  40.051  27.092  11.170
51783W        W24043  10.411  11.748   1.843
51784W        W24044  15.696  19.171  14.331
51785W        W24045  24.592  42.810   3.161
51786W        W24046  43.823  19.181  14.424
51787W        W24047  33.316  16.288  11.960
51788W        W24048   3.867  30.976  12.567
51789W        W24049   9.902  44.859   2.137
51790W        W24050   2.699  35.383   0.880
51791W        W24051  41.115  11.143  12.612
51792W        W24052   1.444   8.399  14.770
51793W        W24053   4.351  24.945  13.613
51794W        W24054  35.050  20.221  11.994
51795W        W24055  14.545  22.729   3.151
51796W        W24056  35.789  29.154   0.549
51797W        W24057  32.186   1.404  13.554
51798W        W24058  44.791  18.598  11.692
51799W        W24059  12.376   0.158  12.626
51800W        W24060  15.564  21.264  12.866
51801W        W24061  40.846  15.807  11.614
51802W        W24062  21.743   0.727  14.996
51803W        W24063   0.937  40.955  13.578
51804W        W24064  15.932  32.073   1.285
51805W        W24065  24.441  22.416   3.622
51806W        W24066   1.518  23.926  12.976
51807W        W24067  18.369  22.882   0.941
51808W        W24068  37.725  18.502   4.852
51809W        W24069   5.379  17.442  13.314
51810W        W24070  34.341  39.414  14.758
51811W        W24071  28.922  26.758  12.646
51812W        W24072   1.497  37.503  12.877
51813W        W24073  16.382  18.665   3.748
51814W        W24074   1.652  30.954  10.626
51815W        W24075   5.409  22.475  14.211
51816W        W24076  15.589   0.521  10.608
51817W        W24077  16.299  40.340  12.021
51818W        W24078  12.675  12.792   1.322
51819W        W24079  34.152  29.067   1.955
51820W        W24080   8.496  44.951  11.600
51821W        W24081   1.347  37.836   1.581
51822W        W24082   1.394   5.299   4.185
51823W        W24083  37.686  42.575  13.342
51824W        W24084   8.369  33.888  10.760
51825W        W24085   1.177  10.266   2.776
51826W        W24086  30.935  44.941  11.004
51827W        W24087  44.311  19.280  14.331
51828W        W24088  34.150  28.499  13.406
51829W        W24089  21.544  13.841  14.439
51830W        W24090  40.925  18.069  10.820
51831W        W24091   4.727  23.536   3.031
51832W        W24092  22.868  21.466   0.278
51833W        W24093  44.042  30.875  11.043
51834W        W24094  29.625  35.467   4.136
51835W        W24095  27.000   8.316   4.324
51836W        W24096  31.894  33.417   1.740
51837W        W24097  36.294  38.315  14.980
51838W        W24098   5.676  14.352  11.641
51839W        W24099   5.742   5.500  12.753
51840W        W24100  34.015   3.887   2.834
51841W        W24101  41.500   7.448  11.080
51842W        W24102  15.959   7.211   2.898
51843W        W24103  34.421  29.296  12.670
51844W        W24104  14.844  15.818  11.590
51845W        W24105  11.075  36.362   2.809
51846W        W24106  41.823  15.736   4.791
51847W        W24107   8.177  20.073  11.526
51848W        W24108   4.726   7.658   0.783
51849W        W24109  44.850  21.590  13.465
51850W        W24110  42.877  23.452  11.046
51851W        W24111  27.662  29.187  10.686
51852W        W24112  39.142  37.435   4.595
51853W        W24113   5.467  18.368  10.864
51854W        W24114  35.056  43.893   1.020
51855W        W24115  33.451  32.006   2.181
51856W        W24116  10.313   1.904   5.037
51857W        W24117   7.074  35.284   1.814
51858W        W24118  27.726   7.893   1.458
51859W        W24119  34.812   7.129  14.526
51860W        W24120   9.171  32.358  12.870
51861W        W24121  23.066  36.379  12.461
51862W        W24122  15.946  29.222  13.855
51863W        W24123  15.653  20.201  14.302
51864W        W24124  23.215   3.644   4.144
51865W        W24125  24.929  25.151   9.970
51866W        W24126  30.355  12.842  13.798
51867W        W24127  23.829  10.922   4.235
51868W        W24128  30.931  39.997  11.864
51869W        W24129  32.162   3.768  12.565
51870W        W24130  35.138  26.462   1.294
51871W        W24131  13.390  39.910   0.146
51872W        W24132  40.293   5.709   1.429
51873W        W24133  15.695   2.233   0.291
51874W        W24134  30.380   1.956   0.196
51875W        W24135  30.437  25.032   2.689
51876W        W24136  26.734  39.431   4.570
51877W        W24137  27.057   5.777   3.716
51878W        W24138  27.826  12.712  13.574
51879W        W24139  36.335  27.996   2.941
51880W        W24140  37.542   0.480  10.570
51881W        W24141  15.815  27.431  11.305
51882W        W24142  37.582   5.425   0.924
51883W        W24143   2.753   4.632   0.180
51884W        W24144  39.340   4.469  13.422
51885W        W24145  44.492  16.110  11.078
51886W        W24146  13.618   2.769   2.044
51887W        W24147  24.066  29.592   4.720
51888W        W24148   2.225  25.552   4.560
51889W        W24149  38.370  14.594   1.277
51890W        W24150   3.211   1.312   0.298
51891W        W24151  12.487  20.433   0.704
51892W        W24152   9.848  29.390   3.172
51893W        W24153  28.490  11.151   2.720
51894W        W24154   5.437  15.787  14.238
51895W        W24155  44.242  10.255   0.289
51896W        W24156   7.009  18.656   4.711
51897W        W24157  40.715   6.668   0.156
51898W        W24158  17.739  38.591  12.958
51899W        W24159  21.691  43.543   1.801
51900W        W24160  28.110  11.856   0.448
51901W        W24161  27.059   9.083  11.906
51902W        W24162  27.637  37.899  10.694
51903W        W24163  21.165  31.205   0.942
51904W        W24164  20.176  16.333   0.911
51905W        W24165  13.948  31.485   3.494
51906W        W24166  18.598  16.709   1.831
51907W        W24167   0.009   0.384  12.526
51908W        W24168  42.904  31.059   0.209
51909W        W24169  33.776  38.518  13.192
51910W        W24170  21.557  30.895  11.098
51911W        W24171  41.029  12.879  12.880
51912W        W24172  34.858  16.995  13.074
51913W        W24173  25.934   2.985  14.781
51914W        W24174  38.303  14.158  13.366
51915W        W24175  18.633  20.226  13.386
51916W        W24176  29.391  38.924   0.827
51917W        W24177  11.591  30.959   3.881
51918W        W24178  27.226  27.319   0.834
51919W        W24179  44.880  11.125   1.294
51920W        W24180  24.243   6.987   2.235
51921W        W24181  11.659  15.146  11.638
51922W        W24182  18.720  18.256   1.801
51923W        W24183  23.802  12.125   4.850
51924W        W24184  17.392  36.926   3.242
51925W        W24185  20.118   4.413  13.995
51926W        W24186  40.358  43.390  13.348
51927W        W24187  43.926  32.980  14.909
51928W        W24188  41.472  42.135   3.227
51929W        W24189  15.516   2.644   2.165
51930W        W24190   3.193   1.457  12.476
51931W        W24191  12.238   0.244   3.431
51932W        W24192  34.950   8.860   3.799
51933W        W24193  31.026   7.295  11.951
51934W        W24194  14.071   8.102   2.798
51935W        W24195  13.127  32.213   4.971
51936W        W24196  28.387  30.558   1.784
51937W        W24197  34.341  39.003   0.933
51938W        W24198  37.956  44.334  14.119
51939W        W24199  40.341   3.386   0.520
51940W        W24200  17.061  37.454   3.831
51941W        W24201   0.878  38.947   4.052
51942W        W24202  21.060   3.683   3.101
51943W        W24203  30.176  26.258   4.110
51944W        W24204  17.295  37.828  14.961
51945W        W24205   6.004  34.055  10.986
51946W        W24206  24.770  26.066   4.435
51947W        W24207  25.117  10.227   2.816
51948W        W24208  43.218  23.321   1.330
51949W        W24209   9.414  37.093   4.605
51950W        W24210  19.613  32.615   1.901
51951W        W24211  24.738  42.451   2.331
51952W        W24212  14.388  29.134   4.952
51953W        W24213  21.446  13.600  13.976
51954W        W24214  39.077   1.007  13.921
51955W        W24215  27.157  29.600  12.449
51956W        W24216  39.674  14.317  14.282
51957W        W24217  20.770  14.141   3.104
51958W        W24218   9.202  44.971   2.722
51959W        W24219   6.830   1.850   2.918
51960W        W24220  26.920  35.343   2.667
51961W        W24221  29.148  29.183   3.718
51962W        W24222   7.316  32.073  12.984
51963W        W24223  39.623  15.400  12.943
51964W        W24224  42.203  37.981   4.093
51965W        W24225  13.719   1.237  14.760
51966W        W24226  14.019  23.751  11.659
51967W        W24227  16.642  34.649   1.810
51968W        W24228  18.815   8.634   4.660
51969W        W24229  27.973   7.140   2.312
51970W        W24230   6.424   0.926  10.105
51971W        W24231  17.145  13.179   3.483
51972W        W24232  26.408  41.374   2.820
51973W        W24233  44.069  41.010  13.932
51974W        W24234   4.952  16.943  12.464
51975W        W24235  34.058   1.677   4.864
51976W        W24236  24.612   6.092  12.075
51977W        W24237   1.350  32.177  11.599
51978W        W24238  32.094   7.304   0.823
51979W        W24239  22.923  13.125   1.248
51980W        W24240  33.624  16.113   2.301
51981W        W24241  35.871  12.396   2.740
51982W        W24242  32.754   6.829  13.409
51983W        W24243  16.386  19.170   1.006
51984W        W24244  16.472  10.667   2.647
51985W        W24245   4.735   9.929  12.020
51986W        W24246  31.075   1.802   1.908
51987W        W24247  30.941  22.337  12.110
51988W        W24248   1.207  23.568  10.978
51989W        W24249  18.642  17.272  14.732
51990W        W24250  29.854  37.354   5.149
51991W        W24251  11.215  39.432   1.198
51992W        W24252  18.683  10.926  14.550
51993W        W24253  16.785  26.019   1.803
51994W        W24254  33.163   8.761  12.848
51995W        W24255  10.218  40.770  12.071
51996W        W24256  34.870  37.779   2.723
51997W        W24257  26.738  21.125   2.783
51998W        W24258  13.271   3.547   2.421
51999W        W24259  34.617  10.503   3.277
52000W        W24260  27.244  37.400   2.772
52001W        W24261   8.375  31.297  14.993
52002W        W24262  16.639  24.059   4.719
52003W        W24263  25.454   7.304  12.825
52004W        W24264  29.301  11.912   3.865
52005W        W24265  29.516   4.205  12.382
52006W        W24266  38.423  26.257  13.038
52007W        W24267  25.584   0.538  13.366
52008W        W24268  31.966  33.440   2.596
52009W        W24269  44.053   9.344  13.181
52010W        W24270  39.159  37.803   0.505
52011W        W24271  41.989  15.793  12.439
52012W        W24272  39.118  31.582  14.516
52013W        W24273  41.481  20.319  14.335
52014W        W24274  28.001  38.529  13.958
52015W        W24275  38.884  13.729   2.638
52016W        W24276   1.482  28.945  11.607
52017W        W24277  33.641  26.805  11.567
52018W        W24278  42.469  21.178  14.408
52019W        W24279  42.353   7.849   3.293
52020W        W24280   1.778  39.042  11.097
52021W        W24281  41.082   5.894   0.396
52022W        W24282  17.560   7.920  11.601
52023W        W24283  14.320  33.896   2.734
52024W        W24284  35.898  27.162   2.731
52025W        W24285  28.423  38.872   4.163
52026W        W24286  27.570  37.346   5.055
52027W        W24287  36.973  13.308  12.200
52028W        W24288  16.749  14.048  13.921
52029W        W24289  27.908  38.860   0.898
52030W        W24290  17.158  11.222   3.824
52031W        W24291  12.950  25.545   0.870
52032W        W24292  18.032  20.534  13.412
52033W        W24293  18.207  20.019  14.844
52034W        W24294  29.195   3.753  14.609
52035W        W24295  11.610  22.965  14.989
52036W        W24296   1.484  13.020  11.252
52037W        W24297  17.396  34.145   0.743
52038W        W24298  10.813  16.610   1.150
52039W        W24299  32.126  36.864   4.909
52040W        W24300  30.198   3.420   3.833
52041W        W24301  39.560   1.336  10.858
52042W        W24302  11.838  35.167   1.280
52043W        W24303   6.726  11.828  10.711
52044W        W24304  26.950  39.987  10.674
52045W        W24305   0.518  32.954   2.320
52046W        W24306   7.498  37.551   2.744
52047W        W24307   9.948  21.515   4.295
52048W        W24308  36.830  42.343  10.699
52049W        W24309  21.113  29.739  13.609
52050W        W24310  16.742   8.027  14.548
52051W        W24311  10.135   5.384   0.338
52052W        W24312  35.881  30.770   4.671
52053W        W24313  22.774   9.488   3.614
52054W        W24314   4.867  32.035   4.625
52055W        W24315   7.571   8.629   0.054
52056W        W24316   9.756   8.060  11.443
52057W        W24317  29.157  32.244   5.204
52058W        W24318  35.363   2.430   2.693
52059W        W24319  40.972  32.748   0.957
52060W        W24320   3.157   3.446   3.320
52061W        W24321   2.787  33.726  13.850
52062W        W24322  43.370   8.374  11.541
52063W        W24323   8.499  36.983   4.116
52064W        W24324  25.208  32.427  11.144
52065W        W24325   8.432   7.858   2.414
52066W        W24326   1.904  37.151   1.832
52067W        W24327  26.075  10.885  11.972
52068W        W24328  13.549  33.502   4.537
52069W        W24329  33.276  27.660   1.777
52070W        W24330  41.862   4.940  12.439
52071W        W24331  21.129  30.295   5.007
52072W        W24332  18.787  10.666  11.249
52073W        W24333  17.789  32.935   0.219
52074W        W24334  20.632   4.821  13.715
52075W        W24335  15.717  43.974   0.467
52076W        W24336   0.693  25.106  14.307
52077W        W24337  28.094  30.708   1.360
52078W        W24338  20.690  31.824   3.226
52079W        W24339  22.030  37.150   4.212
52080W        W24340  19.019  14.722   4.233
52081W        W24341  40.497   6.854  12.493
52082W        W24342  15.879   5.329   0.799
52083W        W24343  31.585  17.906   1.724
52084W        W24344  37.051   8.153  12.976
52085W        W24345  10.689  20.575   0.145
52086W        W24346  14.393   4.372   4.568
52087W        W24347  22.558  36.043   3.044
52088W        W24348  15.854  44.072   1.690
52089W        W24349  18.543  43.494   2.159
52090W        W24350  14.867  19.302   0.935
52091W        W24351   1.895  22.730  14.575
52092W        W24352   7.622  13.436   0.919
52093W        W24353  17.445  27.810   3.615
52094W        W24354  41.443   8.894   4.165
52095W        W24355  39.066  29.278  12.681
52096W        W24356  18.187  29.231   1.998
52097W        W24357  12.058  37.791  11.482
52098W        W24358   4.729  36.026   1.147
52099W        W24359   3.685  23.489  13.466
52100W        W24360  33.794  20.792   2.246
52101W        W24361  42.443  36.187  13.579
52102W        W24362  14.806  28.205   5.548
52103W        W24363  33.280  26.658  14.227
52104W        W24364   5.516  13.715   4.653
52105W        W24365  40.222   7.170   4.027
52106W        W24366  34.984   2.663   0.330
52107W        W24367  23.683  22.089   3.293
52108W        W24368  44.842  29.012  12.501
52109W        W24369  40.457  26.660  10.653
52110W        W24370  26.266   6.846   4.780
52111W        W24371  34.990  39.934  12.141
52112W        W24372  30.429   5.735  12.852
52113W        W24373  22.714  44.819  13.957
52114W        W24374   3.933  41.952  14.357
52115W        W24375  26.736  31.043  10.630
52116W        W24376  34.899  17.826   0.347
52117W        W24377   1.039  20.732  12.638
52118W        W24378   2.550  36.657  11.144
52119W        W24379   9.287   2.347   3.806
52120W        W24380   0.751  12.088   0.303
52121W        W24381  32.456  39.701   2.354
52122W        W24382  18.288  23.623  11.615
52123W        W24383  19.626  40.332  13.989
52124W        W24384   5.750  36.656   3.230
52125W        W24385  24.675  12.690  10.918
52126W        W24386  37.561  21.624  11.807
52127W        W24387  12.671  34.721   2.907
52128W        W24388   4.248  39.808  12.047
52129W        W24389  41.166  42.685  12.601
52130W        W24390  13.162  29.933  11.640
52131W        W24391  13.636   1.269   1.105
52132W        W24392   2.400  14.825  14.460
52133W        W24393  15.971  28.078  13.328
52134W        W24394  12.180  35.135   2.643
52135W        W24395  22.025   5.026   1.886
52136W        W24396  25.180  21.515   2.273
52137W        W24397  19.069  29.948   4.513
52138W        W24398  44.488  24.806  10.173
52139W        W24399  36.156   6.369  11.463
52140W        W24400  27.153   9.342   4.669
52141W        W24401   4.701   6.398  12.016
52142W        W24402  32.402  14.757  12.028
52143W        W24403   1.204  22.962   1.354
52144W        W24404  30.546  29.691   2.785
52145W        W24405  20.772  43.708  14.792
52146W        W24406  41.231  35.634   3.818
52147W        W24407  25.595  16.827  13.775
52148W        W24408  35.436  14.978   0.950
52149W        W24409  32.899  43.431   4.236
52150W        W24410  25.310   0.674  13.778
52151W        W24411  28.433  36.284   2.628
52152W        W24412  43.257  32.001  11.652
52153W        W24413  26.968  20.335  14.298
52154W        W24414  21.522  21.277   5.072
52155W        W24415  16.664  34.223   4.917
52156W        W24416   1.660  16.088   4.220
52157W        W24417  18.524  13.387  13.795
52158W        W24418  31.502  18.556  14.516
52159W        W24419   7.096  40.866  12.968
52160W        W24420   7.917  32.965  13.584
52161W        W24421   2.412  19.030  11.099
52162W        W24422  35.382  19.749  14.401
52163W        W24423  32.237  42.908   2.063
52164W        W24424  11.670   3.399  12.406
52165W        W24425   2.325  41.512   2.681
52166W        W24426   8.208  24.059   4.113
52167W        W24427  15.451  33.622  12.929
52168W        W24428   2.447   7.651  14.419
52169W        W24429   9.224   1.395   3.509
52170W        W24430  10.603  43.307   1.767
52171W        W24431  29.644  23.706  14.969
52172W        W24432  20.129  26.370   2.827
52173W        W24433  26.166  34.413  13.915
52174W        W24434  42.225   6.114  11.896
52175W        W24435   9.417  22.757  10.044
52176W        W24436  10.320   3.726  12.461
52177W        W24437   0.251   7.262  13.952
52178W        W24438  28.606  35.178   1.076
52179W        W24439  38.375   5.625   4.234
52180W        W24440  15.583  38.907  10.472
52181W        W24441  43.516  32.902  13.350
52182W        W24442  19.425  21.241   1.286
52183W        W24443  14.120   0.914  13.338
52184W        W24444  43.091  15.301   1.890
52185W        W24445   1.643  18.741  14.205
52186W        W24446  39.254  31.436   3.256
52187W        W24447  24.578  12.286  14.513
52188W        W24448   9.573  43.201  13.111
52189W        W24449  35.526   6.956   4.289
52190W        W24450  16.863  17.848  11.605
52191W        W24451  12.890  14.968   0.443
52192W        W24452  10.580  39.023   4.569
52193W        W24453  33.473  36.309  14.801
52194W        W24454  29.559  23.109   2.682
52195W        W24455  32.529   6.299   3.990
52196W        W24456   8.376  27.007  14.790
52197W        W24457  14.816  26.666  11.153
52198W        W24458  33.020  24.726   2.895
52199W        W24459  14.955   9.798  13.463
52200W        W24460  15.091  41.026   0.153
52201W        W24461   6.501   5.117  14.849
52202W        W24462  18.248  18.414  12.387
52203W        W24463  17.257  10.645  12.777
52204W        W24464  44.464  15.823  14.601
52205W        W24465  11.076  17.692  12.905
52206W        W24466  12.544   6.889   2.257
52207W        W24467  36.313  15.136   4.100
52208W        W24468  16.348  23.140  10.634
52209W        W24469   2.538   2.039   0.276
52210W        W24470  19.636   3.108  12.468
52211W        W24471  37.988  17.192   3.645
52212W        W24472  27.450  24.704  14.362
52213W        W24473  12.094  26.586   9.859
52214W        W24474  39.963  41.516  14.788
52215W        W24475   1.956   8.324   0.771
52216W        W24476  44.776  43.790  13.940
52217W        W24477  32.995  29.140  13.767
52218W        W24478  17.519  38.967  11.035
52219W        W24479  16.675  44.351   1.150
52220W        W24480  43.948  33.695   4.173
52221W        W24481  24.258  38.527  12.878
52222W        W24482  19.531  20.196   1.465
52223W        W24483  22.559  42.471  14.762
52224W        W24484  28.300  30.422   0.973
52225W        W24485  17.610   9.433   0.015
52226W        W24486  36.041   0.047   0.590
52227W        W24487  15.035   4.937   2.820
52228W        W24488  35.320  43.921  11.931
52229W        W24489  24.962  26.261   1.939
52230W        W24490  37.786  16.518   0.928
52231W        W24491  24.631  41.594  11.616
52232W        W24492  10.740  39.890   0.750
52233W        W24493  37.739  25.455  13.874
52234W        W24494   2.695  35.434   3.316
52235W        W24495   9.431   7.409   2.213
52236W        W24496  35.610  43.046  13.319
52237W        W24497  11.297  44.828  13.282
52238W        W24498  33.736  25.733   2.487
52239W        W24499  18.687  32.498  13.274
52240W        W24500  16.817   5.856  11.975
52241W        W24501  38.831  13.866  14.976
52242W        W24502   2.358  22.694  11.100
52243W        W24503  23.258   1.328   4.628
52244W        W24504   8.308  28.221   4.324
52245W        W24505  33.140  31.118   0.309
52246W        W24506  20.692  16.246   0.949
52247W        W24507  19.114  30.175   3.159
52248W        W24508  15.246   9.689   0.442
52249W        W24509  30.431  40.405  13.972
52250W        W24510  34.067  21.872  14.318
52251W        W24511  13.221  28.635  11.128
52252W        W24512   8.616  26.192  10.520
52253W        W24513  42.239   8.291   3.011
52254W        W24514  30.102  20.175   4.669
52255W        W24515  43.480  13.822   2.146
52256W        W24516  33.178  22.162  13.435
52257W        W24517  23.807  37.462   1.967
52258W        W24518  23.519  26.131   0.663
52259W        W24519  21.404  42.989  12.338
52260W        W24520  15.355  18.218   1.427
52261W        W24521  27.628  41.400   3.685
52262W        W24522  25.460   8.784   3.059
52263W        W24523   5.228  15.684   1.342
52264W        W24524   0.031   2.471  13.098
52265W        W24525  26.145  19.800   1.006
52266W        W24526   3.526   1.403   5.063
52267W        W24527  26.197   1.748  14.505
52268W        W24528  38.205  41.229   3.160
52269W        W24529  28.687  12.541  13.208
52270W        W24530  24.103   1.048  13.559
52271W        W24531   2.302  27.219  13.704
52272W        W24532  31.496   4.135   1.265
52273W        W24533   9.625  15.375  13.426
52274W        W24534  23.996  40.563   3.403
52275W        W24535  17.046  10.292  11.030
52276W        W24536  36.503  36.152   4.657
52277W        W24537  34.452  14.759   1.934
52278W        W24538  22.724   6.729   4.360
52279W        W24539  31.403  14.249   2.003
52280W        W24540  31.207  21.283   9.707
52281W        W24541  29.842  21.256  10.813
52282W        W24542  11.312   8.382  12.092
52283W        W24543  35.928  35.896  14.027
52284W        W24544  16.836  24.567  14.337
52285W        W24545   6.131  23.979   0.317
52286W        W24546  34.294  33.139   2.764
52287W        W24547  30.487  26.088   1.331
52288W        W24548  25.562  12.724   4.666
52289W        W24549  10.728  29.626   1.116
52290W        W24550  29.529   0.827   0.068
52291W        W24551  41.397  16.134   1.237
52292W        W24552  22.585   5.296   2.358
52293W        W24553  43.346   6.417  11.131
52294W        W24554   4.479  27.698  14.772
52295W        W24555   3.213  28.524   3.579
52296W        W24556  32.631  40.055   0.453
52297W        W24557  22.317  11.178  12.082
52298W        W24558   7.387   8.233   1.756
52299W        W24559  28.306  26.835  11.825
52300W        W24560   4.726  19.160   1.988
52301W        W24561  18.305  39.656   3.015
52302W        W24562  41.864  10.315   3.936
52303W        W24563  13.876  40.813  14.843
52304W        W24564  44.275   8.717  12.002
52305W        W24565  18.037   9.320   3.215
52306W        W24566   0.752  23.181  14.509
52307W        W24567  32.052  29.702  12.987
52308W        W24568  17.844  30.732   1.264
52309W        W24569  29.414  43.444   1.952
52310W        W24570  32.426  19.124   2.387
52311W        W24571  40.796   9.835  12.303
52312W        W24572  35.589  42.717   4.160
52313W        W24573   6.274   5.527   0.806
52314W        W24574  18.150  23.213   2.112
52315W        W24575   9.611  43.484  11.569
52316W        W24576  12.213  34.003  10.561
52317W        W24577   9.200  12.438   2.226
52318W        W24578  19.125  23.233   4.773
52319W        W24579  22.681  23.674   1.155
52320W        W24580   7.815  23.752  13.445
52321W        W24581  20.280   1.994   2.825
52322W        W24582  43.626  38.481  11.314
52323W        W24583  31.355  34.370   2.799
52324W        W24584  22.744  19.065  12.394
52325W        W24585  43.573  16.067   2.467
52326W        W24586  40.884   4.423   3.242
52327W        W24587  23.296  24.382   2.935
52328W        W24588  44.135   3.272  13.487
52329W        W24589  35.872  36.878  11.258
52330W        W24590   2.174  31.491   1.284
52331W        W24591  17.685  33.402   1.179
52332W        W24592  29.697  39.594   0.456
52333W        W24593  15.711  14.944   0.402
52334W        W24594  25.538  10.454   1.182
52335W        W24595   8.313  17.215   4.840
52336W        W24596  21.095  40.213   4.483
52337W        W24597  29.133  16.137   3.172
52338W        W24598  16.307  14.667  10.805
52339W        W24599  15.214  30.880   3.740
52340W        W24600  33.031  10.842  12.346
52341W        W24601  38.309  17.704  12.537
52342W        W24602  40.239  39.910  14.880
52343W        W24603  36.033   5.827  10.632
52344W        W24604  38.704   0.772  14.890
52345W        W24605  37.543  15.465   5.268
52346W        W24606   8.878  37.850   3.658
52347W        W24607  44.058  28.727   4.026
52348W        W24608   4.618  20.613   2.422
52349W        W24609   9.274  12.927   4.170
52350W        W24610   2.207  43.445  11.709
52351W        W24611   0.788   5.164  14.795
52352W        W24612  11.116   5.152  10.567
52353W        W24613   3.794  24.087   1.124
52354W        W24614  42.147  15.647  13.216
52355W        W24615   6.777  14.703   4.144
52356W        W24616  12.184  23.067  13.136
52357W        W24617  36.953   3.376  13.617
52358W        W24618  16.234  20.613  13.057
52359W        W24619  24.922  42.747   0.841
52360W        W24620  39.069  17.321  12.504
52361W        W24621  20.130  36.274  14.271
52362W        W24622  31.870  36.868  10.397
52363W        W24623  17.378  30.341   5.082
52364W        W24624  12.988  28.890   4.041
52365W        W24625   2.487   8.397   0.877
52366W        W24626  28.442   6.483   0.653
52367W        W24627  13.064  32.215   0.971
52368W        W24628  38.652   6.409   0.832
52369W        W24629  41.285  41.300  14.450
52370W        W24630  38.622  43.806   2.193
52371W        W24631  17.974  39.792   2.135
52372W        W24632  14.844  33.249   4.369
52373W        W24633  34.808  30.439   3.218
52374W        W24634   8.830  38.771   2.352
52375W        W24635  29.648  20.472  11.136
52376W        W24636  44.454  19.285  12.565
52377W        W24637  36.525  35.685  11.519
52378W        W24638   6.345  15.198   3.298
52379W        W24639  37.978  12.634   2.406
52380W        W24640  33.659  26.025  11.911
52381W        W24641  13.334   0.936  14.885
52382W        W24642  35.021  23.243  14.882
52383W        W24643  36.810   2.563   0.002
52384W        W24644   5.643   5.834   2.332
52385W        W24645   2.011   1.002   3.368
52386W        W24646  20.501  21.147   4.114
52387W        W24647  31.193  28.368   4.170
52388W        W24648   6.688  42.358   4.699
52389W        W24649  33.497   2.853  13.790
52390W        W24650  10.826  14.623  13.836
52391W        W24651  17.262  32.063   1.507
52392W        W24652  28.940  17.189   0.518
52393W        W24653  33.165  23.771   2.453
52394W        W24654  43.814  21.772  14.505
52395W        W24655  26.953  42.915  10.779
52396W        W24656  18.408   2.300   4.901
52397W        W24657   3.720  19.013  12.078
52398W        W24658  36.819   6.659   3.776
52399W        W24659   2.686   5.642   2.634
52400W        W24660  14.142  32.099   4.993
52401W        W24661  43.950  32.575   2.047
52402W        W24662  29.174  22.226  13.428
52403W        W24663  23.091  26.970   2.824
52404W        W24664  36.565  41.572  14.963
52405W        W24665  13.676  41.906  10.711
52406W        W24666  31.921  44.333   2.578
52407W        W24667   1.910  13.856   0.324
52408W        W24668   2.162  25.697  13.920
52409W        W24669   8.627  43.393  12.486
52410W        W24670  30.471  23.794   0.985
52411W        W24671  18.699  29.125   2.781
52412W        W24672  36.360  16.822   4.341
52413W        W24673  23.967  32.064   1.058
52414W        W24674   2.525  35.994  14.322
52415W        W24675  36.164  39.360  10.710
52416W        W24676  41.039  44.706  14.345
52417W        W24677  30.307  39.659   1.306
52418W        W24678  23.542  27.603   1.186
52419W        W24679   3.666   3.200  10.975
52420W        W24680   0.542  30.675   0.462
52421W        W24681  40.227  44.187   9.957
52422W        W24682  18.861  23.626  14.928
52423W        W24683  22.002  10.112  11.210
52424W        W24684  30.010   4.730  13.395
52425W        W24685  14.931  44.853  13.183
52426W        W24686  17.676  12.195  10.338
52427W        W24687  23.615  17.091   2.615
52428W        W24688  10.696  42.891  10.739
52429W        W24689   2.359  11.111   9.929
52430W        W24690  26.521  35.346  11.123
52431W        W24691  21.079  12.465  13.467
52432W        W24692   3.340  15.529  12.416
52433W        W24693  23.792   3.699   0.285
52434W        W24694  42.528  13.616  12.353
52435W        W24695  26.352  33.255  13.413
52436W        W24696  36.374   2.463  13.770
52437W        W24697  25.672  30.177   1.904
52438W        W24698  39.724  19.271   0.231
52439W        W24699  29.546  37.187  11.603
52440W        W24700  40.054  41.258   3.209
52441W        W24701   0.926  22.006   2.800
52442W        W24702  12.365  28.950   4.068
52443W        W24703  37.335  33.572  11.925
52444W        W24704   6.424  23.033   0.267
52445W        W24705  40.781  44.441   3.221
52446W        W24706  33.636  27.833   0.617
52447W        W24707  39.355  42.996   3.123
52448W        W24708  41.754  23.158   2.881
52449W        W24709   4.244   3.574  13.086
52450W        W24710  21.563  27.666  14.453
52451W        W24711  20.579  22.581  11.282
52452W        W24712  38.338  16.231   1.994
52453W        W24713  30.931  10.734   1.163
52454W        W24714  17.321  15.031   3.249
52455W        W24715  12.388   0.915   9.963
52456W        W24716  28.033   2.525  10.873
52457W        W24717   4.212  31.816   4.476
52458W        W24718  36.358   9.802   0.078
52459W        W24719  23.600  17.141   4.561
52460W        W24720  35.078  17.310  11.695
52461W        W24721  15.151  37.805   3.650
52462W        W24722  32.921  29.490   4.373
52463W        W24723  35.014  35.591   2.851
52464W        W24724  36.707  42.326   3.842
52465W        W24725  15.080   7.748  13.577
52466W        W24726  15.258  22.067   4.033
52467W        W24727   8.429  32.367  11.919
52468W        W24728  33.189  13.493  12.523
52469W        W24729  18.503  15.843   2.811
52470W        W24730  43.350  31.094   2.616
52471W        W24731  29.919  22.615  14.817
52472W        W24732  42.993  10.766   4.086
52473W        W24733  41.402   6.223   2.278
52474W        W24734  37.467  10.857  10.593
52475W        W24735   5.177   2.460   4.111
52476W        W24736   9.313   9.301   2.379
52477W        W24737  32.502   8.314   0.526
52478W        W24738  15.264  39.203   2.417
52479W        W24739  21.679  34.033   4.778
52480W        W24740  23.747  20.026   3.211
52481W        W24741  27.216  30.536   3.722
52482W        W24742  18.368  16.407  12.428
52483W        W24743  35.517  44.851  13.969
52484W        W24744  25.611  36.383  11.584
52485W        W24745  12.571  17.178   3.652
52486W        W24746  34.422  11.613   2.154
52487W        W24747  13.007   3.810   4.054
52488W        W24748  27.505   3.427  11.163
52489W        W24749  42.230   5.992   4.039
52490W        W24750  30.454  23.931  10.786
52491W        W24751  30.337  23.769  13.641
52492W        W24752  30.462   4.785  13.617
52493W        W24753  23.167  15.134  14.584
52494W        W24754  10.729  34.419   3.764
52495W        W24755  31.949  10.949   3.741
52496W        W24756  22.504  37.585  13.284
52497W        W24757  41.258   3.157  13.982
52498W        W24758  31.387  28.674   1.284
52499W        W24759  20.041  41.302  13.965
52500W        W24760   1.139  30.958  10.708
52501W        W24761  20.595  34.962  13.770
52502W        W24762  28.559  41.262  11.489
52503W        W24763  13.175  17.272   0.374
52504W        W24764  24.288  39.791  12.077
52505W        W24765  16.841  13.194  11.632
52506W        W24766  33.905  40.654  14.627
52507W        W24767  27.996  37.284  11.147
52508W        W24768  12.397   2.663   2.710
52509W        W24769   0.997  13.860  11.130
52510W        W24770  41.252  25.219   3.152
52511W        W24771   0.278  35.040   2.806
52512W        W24772  30.088   1.723   3.473
52513W        W24773  19.976  29.960   0.255
52514W        W24774  18.777  18.619   1.001
52515W        W24775   1.800  40.783  11.661
52516W        W24776   0.893   2.183  13.955
52517W        W24777  28.658   4.975   0.752
52518W        W24778   3.225  20.309   1.883
52519W        W24779  10.035  32.870  14.840
52520W        W24780   0.731  38.835   2.228
52521W        W24781  26.543  12.653   3.603
52522W        W24782   4.147  15.162   4.159
52523W        W24783  16.208  19.088   4.592
52524W        W24784  40.117  17.192  12.701
52525W        W24785  24.577  18.453  11.981
52526W        W24786  14.360  26.414  14.325
52527W        W24787  10.134  28.442  14.048
52528W        W24788  19.570  20.769   0.603
52529W        W24789  43.542  35.123   0.022
52530W        W24790   2.732  37.806  11.928
52531W        W24791  19.169   8.204  14.805
52532W        W24792  29.920   2.492  12.022
52533W        W24793   0.790   8.439  10.466
52534W        W24794  34.421   8.631  14.750
52535W        W24795  39.302  10.443   2.184
52536W        W24796  22.583  29.217   3.657
52537W        W24797  17.689  24.924   0.436
52538W        W24798   3.843  14.261   3.691
52539W        W24799  38.844  10.251  10.960
52540W        W24800   3.772  25.123  14.007
52541W        W24801  26.333  32.943   3.168
52542W        W24802   0.577   7.822   0.011
52543W        W24803  36.870  13.690   3.489
52544W        W24804  31.979  24.821   3.170
52545W        W24805  11.320  35.305  11.098
52546W        W24806  20.531  15.820   4.629
52547W        W24807  38.829  25.372   2.782
52548W        W24808   6.675  35.769  10.404
52549W        W24809  26.040  27.448   3.443
52550W        W24810  38.361  26.842  14.899
52551W        W24811  12.781  30.647   4.134
52552W        W24812  37.796  22.984   3.628
52553W        W24813  32.807   8.395   1.851
52554W        W24814  24.499  17.642   0.897
52555W        W24815   6.815  20.948  10.998
52556W        W24816  39.751  24.141   2.176
52557W        W24817   1.289  30.448  14.912
52558W        W24818  22.882  39.374   4.867
52559W        W24819  38.027   6.961   4.608
52560W        W24820  26.137  37.706  14.196
52561W        W24821  15.485   3.067  11.774
52562W        W24822  42.951  27.018   3.654
52563W        W24823  26.031  37.420   4.229
52564W        W24824  17.861  15.144   0.932
52565W        W24825   6.142  38.453  14.376
52566W        W24826  10.170   0.215   1.857
52567W        W24827   6.632  35.296   4.189
52568W        W24828   6.874  19.171   3.307
52569W        W24829  24.105  44.388   1.268
52570W        W24830  39.532  17.300   4.157
52571W        W24831  12.104  22.668  13.527
52572W        W24832  20.093  15.581   4.831
52573W        W24833  27.198  31.082  14.882
52574W        W24834   3.842   3.725   3.350
52575W        W24835  33.409  22.627  13.468
52576W        W24836  25.129  33.675  11.962
52577W        W24837   3.190  21.987  11.401
52578W        W24838  39.996  35.965   3.267
52579W        W24839  29.051  20.305   4.301
52580W        W24840  33.493   2.357  13.939
52581W        W24841  43.892  10.172  12.798
52582W        W24842  29.394  17.732   2.739
52583W        W24843  17.636  22.665   0.812
52584W        W24844  26.762  37.061   1.834
52585W        W24845  14.877   9.299  13.552
52586W        W24846  16.248  42.314  14.014
52587W        W24847  40.730   4.979   0.248
52588W        W24848   3.679  26.370   4.336
52589W        W24849  38.017  30.939   5.342
52590W        W24850  38.765  23.104   0.012
52591W        W24851  17.646  16.410  11.399
52592W        W24852  11.614   0.377   0.038
52593W        W24853  37.958  43.832   1.016
52594W        W24854  43.338   2.742   0.556
52595W        W24855  37.538  42.005  12.496
52596W        W24856  37.745   4.387  10.961
52597W        W24857   6.299  24.756  12.970
52598W        W24858   3.034   9.201  11.998
52599W        W24859   4.424  12.892  13.029
52600W        W24860   1.303   5.134  11.428
52601W        W24861  36.397  14.876  14.513
52602W        W24862  12.671  14.309   3.818
52603W        W24863  26.475  32.163   1.910
52604W        W24864   6.765  24.676   2.362
52605W        W24865  44.159  37.801  13.383
52606W        W24866  32.324   8.735  11.579
52607W        W24867  30.944  22.503   0.607
52608W        W24868  41.719  15.563  14.743
52609W        W24869   9.106   6.907   3.724
52610W        W24870  28.475  16.837   4.297
52611W        W24871  40.353  43.364   3.642
52612W        W24872   1.747  29.080   4.380
52613W        W24873  25.166  27.775  12.533
52614W        W24874  13.074  26.085   1.967
52615W        W24875  31.567  13.120   1.659
52616W        W24876  25.820  41.854   1.141
52617W        W24877  27.823  43.890  11.561
52618W        W24878  41.791   8.347   1.920
52619W        W24879   1.866  21.017   4.176
52620W        W24880  30.859  14.332   0.358
52621W        W24881  34.382  36.811  11.172
52622W        W24882  27.977  31.210   1.313
52623W        W24883  14.206  33.998  12.987
52624W        W24884  18.043  13.317   3.786
52625W        W24885  17.782  29.087   4.741
52626W        W24886  36.991   7.316   4.521
52627W        W24887  43.598  20.879   1.902
52628W        W24888  35.477  35.668   0.352
52629W        W24889  32.879  40.339  13.827
52630W        W24890  25.760  25.768   1.622
52631W        W24891   9.921  24.707   3.697
52632W        W24892  11.481  37.532  11.637
52633W        W24893   9.423  24.221  10.963
52634W        W24894   9.299  28.099  12.039
52635W        W24895  14.789   9.825   3.771
52636W        W24896  32.692  15.403   2.809
52637W        W24897  20.703   0.911   2.292
52638W        W24898   3.716   4.402  12.207
52639W        W24899  29.588  19.683   2.642
52640W        W24900  36.485  30.493  11.462
52641W        W24901  39.443  11.875  12.891
52642W        W24902  24.307   6.269  11.604
52643W        W24903  26.172  18.604   3.198
52644W        W24904  12.640  11.128   2.192
52645W        W24905  12.736  35.028  11.526
52646W        W24906  32.474   5.855  11.103
52647W        W24907  26.327   8.240  12.469
52648W        W24908  17.293  14.755  11.455
52649W        W24909  13.804   2.048  13.559
52650W        W24910   6.816  13.173   3.752
52651W        W24911   5.711  12.777  14.027
52652W        W24912  34.859  23.199   1.358
52653W        W24913  18.408   6.615  14.804
52654W        W24914   2.928  10.097   4.171
52655W        W24915  40.127  26.125  14.410
52656W        W24916  41.052  38.358   0.399
52657W        W24917  24.627  23.205  10.698
52658W        W24918  35.448  21.897   2.264
52659W        W24919   2.185  20.253  11.111
52660W        W24920  12.174   4.655   3.882
52661W        W24921  41.063  14.646   4.983
52662W        W24922  12.137  30.138  10.906
52663W        W24923  11.645  40.061   2.094
52664W        W24924   0.357   0.075   1.224
52665W        W24925   9.327  16.491  13.944
52666W        W24926  36.176  10.420  11.066
52667W        W24927  35.506   1.016  12.560
52668W        W24928   3.566  44.026   2.730
52669W        W24929   2.393  20.745  10.929
52670W        W24930   1.427  12.266  14.532
52671W        W24931  20.863  38.952  12.431
52672W        W24932  29.840  31.654  14.941
52673W        W24933  27.460   6.997   1.369
52674W        W24934  43.361  13.193   3.205
52675W        W24935  41.393  28.376   2.625
52676W        W24936  33.754   5.236  12.429
52677W        W24937  26.912  10.564   2.791
52678W        W24938  35.422  33.974  13.849
52679W        W24939  38.670  37.000  13.772
52680W        W24940   5.181  34.626   2.821
52681W        W24941   6.919  16.154   1.017
52682W        W24942  43.053  28.016   1.534
52683W        W24943   0.325  15.539   4.658
52684W        W24944   2.778  13.905  11.949
52685W        W24945  33.514   5.781   2.810
52686W        W24946  23.578  10.628   0.327
52687W        W24947  26.427   6.776  14.535
52688W        W24948   8.831  17.310  11.986
52689W        W24949   6.377  33.179  11.376
52690W        W24950   4.401  30.655   0.918
52691W        W24951  18.957  15.570  12.510
52692W        W24952  44.931  34.956   3.661
52693W        W24953  38.973  11.957   4.513
52694W        W24954  12.536  35.414   4.064
52695W        W24955  39.375  40.868   0.286
52696W        W24956  36.854  14.860   2.046
52697W        W24957   9.866   5.925   3.865
52698W        W24958  36.088   2.115  11.961
52699W        W24959  20.061   5.002   1.246
52700W        W24960   0.423   7.199   1.270
52701W        W24961   3.871  20.730  13.127
52702W        W24962  40.104  38.394   1.499
52703W        W24963   5.214  11.681   4.605
52704W        W24964  38.902   5.303  12.347
52705W        W24965   7.161  41.294  13.761
52706W        W24966  43.533  10.608   1.388
52707W        W24967   0.218  33.482   3.702
52708W        W24968  27.089  38.302  12.887
52709W        W24969  11.076  14.673  13.384
52710W        W24970  37.630  29.490   0.363
52711W        W24971  14.585  17.233  14.796
52712W        W24972  21.715   3.032  12.181
52713W        W24973   8.839  32.978   4.678
52714W        W24974   2.847  43.232  12.474
52715W        W24975  10.793  40.103  10.784
52716W        W24976   1.034  29.097   4.890
52717W        W24977   3.681   0.595  10.285
52718W        W24978   0.999  20.697  10.775
52719W        W24979  29.415  39.077   4.167
52720W        W24980  38.786  43.807  14.488
52721W        W24981  14.131  19.264   1.338
52722W        W24982   1.833  38.471   2.618
52723W        W24983   5.297  33.102   1.241
52724W        W24984  35.284  31.777  12.577
52725W        W24985  43.148   5.741  13.905
52726W        W24986  32.967  19.539   1.040
52727W        W24987  39.802   5.848   0.421
52728W        W24988   8.975  26.505  14.331
52729W        W24989  31.482  31.442   9.692
52730W        W24990  17.128  14.167   1.356
52731W        W24991  29.624  44.605  12.581
52732W        W24992  24.016  31.206  13.576
52733W        W24993  43.805  41.099   2.790
52734W        W24994  13.032  24.147  12.077
52735W        W24995  11.804  33.068   3.622
52736W        W24996  43.197  23.091   4.186
52737W        W24997  21.428  14.689  13.093
52738W        W24998  14.247  37.469  13.493
52739W        W24999  20.842  17.098  11.168
52740W        W25000  16.301   1.526  12.054
52741W        W25001   8.286  29.907  12.453
52742W        W25002  31.597  22.165  10.605
52743W        W25003  23.193  20.314  12.013
52744W        W25004  22.850  43.220   0.498
52745W        W25005  19.479  44.736  14.930
52746W        W25006  39.112  25.057   2.363
52747W        W25007   2.153  21.075  12.443
52748W        W25008  20.434  18.396  12.379
52749W        W25009  26.414  10.804  12.398
52750W        W25010  36.375   9.538  11.023
52751W        W25011  22.767  15.392  14.364
52752W        W25012   0.785   4.876   1.027
52753W        W25013  14.623  21.735   2.340
52754W        W25014   7.440  11.126   0.409
52755W        W25015  14.664  16.153   4.294
52756W        W25016   3.431   3.668   2.604
52757W        W25017   9.119  40.963  10.569
52758W        W25018  42.272  33.009   0.101
52759W        W25019  25.890   5.692   0.169
52760W        W25020  36.833   7.662  13.035
52761W        W25021  34.611  43.440   3.350
52762W        W25022  38.235  29.353  13.929
52763W        W25023  14.173  30.445   4.614
52764W        W25024  21.187  24.924  13.138
52765W        W25025  41.978  44.705  10.583
52766W        W25026  12.811  19.512   4.446
52767W        W25027  33.059  28.662   3.960
52768W        W25028  38.012   8.268   3.857
52769W        W25029  32.925  34.563   0.193
52770W        W25030  31.459  10.986  11.587
52771W        W25031  21.564  19.565   4.483
52772W        W25032   9.872  35.371   1.200
52773W        W25033  16.764  10.144  10.622
52774W        W25034   0.374  26.194  13.785
52775W        W25035  17.515  40.036   2.118
52776W        W25036  16.786  21.333  13.299
52777W        W25037  20.668  20.412  14.060
52778W        W25038  28.273  27.710   3.975
52779W        W25039  17.961  13.515  12.440
52780W        W25040  28.879  33.666  11.086
52781W        W25041  34.096  34.912   1.427
52782W        W25042  29.880  42.806  13.816
52783W        W25043  44.979  42.659   0.695
52784W        W25044   7.777  21.618  10.594
52785W        W25045  41.478  29.627   4.544
52786W        W25046  44.977   2.961  13.348
52787W        W25047  35.648  10.536  12.371
52788W        W25048   2.964  43.225  11.279
52789W        W25049  23.438  23.931  12.739
52790W        W25050  36.050   9.620   4.659
52791W        W25051  27.792  11.692  12.606
52792W        W25052  33.112  24.966  14.964
52793W        W25053   8.905  37.016  14.675
52794W        W25054  39.895  11.192  14.432
52795W        W25055  13.196   3.002   2.254
52796W        W25056  36.800  34.684  13.833
52797W        W25057  10.611  39.321  14.408
52798W        W25058  30.664  38.126   2.186
52799W        W25059  21.575  19.565  10.711
52800W        W25060  20.660   5.247   4.886
52801W        W25061  25.931   2.273   4.417
52802W        W25062  18.631  38.012   0.290
52803W        W25063  10.429  15.809   1.680
52804W        W25064  14.307   6.115  12.095
52805W        W25065  11.207  23.080  11.643
52806W        W25066  11.643   1.226  11.203
52807W        W25067  10.858  30.391  14.963
52808W        W25068  10.406  14.247  10.752
52809W        W25069  21.863  31.188   2.416
52810W        W25070  18.685  22.618  14.778
52811W        W25071   2.720   5.294   2.219
52812W        W25072  31.583  22.118   4.498
52813W        W25073  29.641  25.772  11.585
52814W        W25074  40.296  17.192   1.246
52815W        W25075  31.057  37.981   1.868
52816W        W25076  35.838  33.640  13.931
52817W        W25077  36.275  34.507  11.965
52818W        W25078  19.118  19.982  13.465
52819W        W25079  38.346   8.717  12.017
52820W        W25080   4.876  44.431  12.987
52821W        W25081   7.396  21.985   0.551
52822W        W25082  43.920  10.887   2.595
52823W        W25083  26.259  44.618   5.053
52824W        W25084  33.103  37.502   0.473
52825W        W25085  17.677   5.764   3.136
52826W        W25086  18.992  36.039   0.331
52827W        W25087  39.446   3.224   3.721
52828W        W25088  12.799   2.013  13.285
52829W        W25089  35.567  15.216   3.606
52830W        W25090  31.832   9.304  12.041
52831W        W25091  14.130  27.817   2.139
52832W        W25092  37.847   5.710   4.329
52833W        W25093  36.067  19.943   4.156
52834W        W25094  35.091   3.808   1.515
52835W        W25095  15.256  15.006   4.766
52836W        W25096  25.236  15.736  12.895
52837W        W25097  20.774   5.972  12.450
52838W        W25098  44.944  27.458   0.862
52839W        W25099  29.329  34.431  11.198
52840W        W25100  34.870  44.821  10.060
52841W        W25101   0.413  33.905  14.889
52842W        W25102   3.918   1.230   2.244
52843W        W25103  15.088  15.688   2.197
52844W        W25104  18.729   3.225   4.629
52845W        W25105  40.432  10.090   4.633
52846W        W25106  21.736  12.651   4.709
52847W        W25107  18.690  44.315  14.773
52848W        W25108  43.932  23.680  14.323
52849W        W25109   9.836  38.220   0.507
52850W        W25110  22.282  27.136  14.440
52851W        W25111  23.029  24.258  12.606
52852W        W25112  16.195  36.552  14.039
52853W        W25113   3.174  41.601   4.761
52854W        W25114  26.412   0.239   1.072
52855W        W25115  27.592  44.501   1.239
52856W        W25116  16.466   1.239   0.228
52857W        W25117  13.294   4.436   2.215
52858W        W25118  20.561  43.347   3.480
52859W        W25119   3.271   7.280  13.968
52860W        W25120  12.379  30.596   3.384
52861W        W25121  39.869  23.675  11.919
52862W        W25122  22.677  24.603  13.100
52863W        W25123  11.288  14.642   0.300
52864W        W25124  20.392   5.202  11.581
52865W        W25125  22.571  22.257  14.915
52866W        W25126  40.992  22.387   4.101
52867W        W25127  36.820  33.032   4.820
52868W        W25128  15.234  25.963  11.576
52869W        W25129  41.449  41.413   3.716
52870W        W25130   7.954  25.488  12.561
52871W        W25131  44.232   4.146  11.637
52872W        W25132   8.269  29.042  10.927
52873W        W25133  44.835  33.920  10.416
52874W        W25134  35.017  35.282  11.067
52875W        W25135   2.459   0.195  11.037
52876W        W25136  12.315   1.944  12.933
52877W        W25137  10.574  41.063  10.790
52878W        W25138  41.195  44.797   2.601
52879W        W25139   3.499  23.066  10.480
52880W        W25140   0.317   6.502   3.863
52881W        W25141  10.696  18.369   2.789
52882W        W25142   5.838   0.977   3.678
52883W        W25143  22.521  35.756   0.235
52884W        W25144  11.791  34.585  12.940
52885W        W25145  12.164  12.929   4.261
52886W        W25146  42.899  30.148  10.497
52887W        W25147   2.543   6.656   1.229
52888W        W25148  22.634  42.542  12.965
52889W        W25149  41.846   8.256  12.389
52890W        W25150  34.417  22.082  12.043
52891W        W25151  35.557  27.489  11.305
52892W        W25152  30.961  43.450   4.756
52893W        W25153  23.145  30.442  10.734
52894W        W25154  16.265   4.672   4.594
52895W        W25155  25.518   1.207   3.323
52896W        W25156  10.674  33.669   2.191
52897W        W25157   0.739  31.476   4.980
52898W        W25158  30.513  20.500  13.876
52899W        W25159  32.609  14.436  14.836
52900W        W25160  44.500  32.180  13.680
52901W        W25161  24.132  18.101   0.380
52902W        W25162  30.095  34.614   3.281
52903W        W25163   5.642  31.625   3.198
52904W        W25164  29.421  33.768  12.026
52905W        W25165  43.017  38.282   0.361
52906W        W25166  41.413  21.996   4.018
52907W        W25167  22.755  33.352   0.826
52908W        W25168  20.647  19.641  11.461
52909W        W25169   6.167  29.057   1.892
52910W        W25170  18.462  14.765   4.565
52911W        W25171  25.269  31.706   1.315
52912W        W25172  30.679   8.234   4.946
52913W        W25173  29.929  22.616  13.914
52914W        W25174  15.452  34.442  11.137
52915W        W25175  19.059  33.005  12.478
52916W        W25176  38.383  30.915  12.987
52917W        W25177  32.966  29.619  13.547
52918W        W25178   0.340   1.849   2.918
52919W        W25179  25.594  12.754   3.229
52920W        W25180  15.011   7.132   2.950
52921W        W25181  35.037  10.501  12.925
52922W        W25182   0.887  33.942   4.139
52923W        W25183  43.224  38.072   4.171
52924W        W25184  35.333  42.924   0.414
52925W        W25185  22.214   6.207   2.372
52926W        W25186  40.470  31.393  10.710
52927W        W25187  35.813   4.832   2.018
52928W        W25188  26.857   1.445  13.122
52929W        W25189  18.670   1.892   1.088
52930W        W25190  41.668  26.552   2.271
52931W        W25191  30.584  24.674  13.196
52932W        W25192  16.023  29.903   3.243
52933W        W25193  22.849  12.081   4.919
52934W        W25194   8.397  40.598   3.839
52935W        W25195  39.661  40.047  11.390
52936W        W25196  31.036  38.745  11.544
52937W        W25197   2.659  31.644  12.869
52938W        W25198  37.326  34.545  13.953
52939W        W25199  43.918  35.070   3.704
52940W        W25200  23.305  31.444   1.398
52941W        W25201  21.270  17.487  13.073
52942W        W25202  27.445   9.247   1.356
52943W        W25203  26.022   0.500   0.840
52944W        W25204  23.253  39.120   4.543
52945W        W25205  32.066  20.964  12.591
52946W        W25206  41.761  15.353  13.380
52947W        W25207  15.686  24.566   4.242
52948W        W25208  24.187   2.311   1.003
52949W        W25209  33.037  38.040   3.258
52950W        W25210  42.960  37.473  14.948
52951W        W25211   2.388  21.596  13.368
52952W        W25212  40.867  13.972  13.607
52953W        W25213  36.452  36.908  12.159
52954W        W25214   8.968  16.923   4.076
52955W        W25215  19.524  39.557  10.689
52956W        W25216  36.875  29.137   1.285
52957W        W25217  15.526   3.124   3.371
52958W        W25218  31.668   3.162  11.949
52959W        W25219  42.314  36.200  14.203
52960W        W25220  39.445  37.536   0.891
52961W        W25221   0.947  19.272   1.653
52962W        W25222  38.537  42.635  11.067
52963W        W25223  24.049  33.098  12.606
52964W        W25224  13.322  12.658  10.803
52965W        W25225  33.035  41.717  11.476
52966W        W25226  14.470  39.319   1.348
52967W        W25227   8.566  24.165  10.930
52968W        W25228  38.311   3.622  10.644
52969W        W25229   9.340   9.751  13.816
52970W        W25230  28.230  34.311   2.274
52971W        W25231  34.049  30.997  13.633
52972W        W25232   5.177  14.253  13.465
52973W        W25233  24.233  40.454   1.494
52974W        W25234  39.183  31.589  11.143
52975W        W25235  11.536   8.852  12.058
52976W        W25236  15.949  29.655  13.390
52977W        W25237   3.874  12.839  14.889
52978W        W25238  25.546  42.957  10.142
52979W        W25239  33.954  13.764  13.756
52980W        W25240   2.771  38.531  12.091
52981W        W25241   3.979   3.723  11.032
52982W        W25242  18.755  20.497  11.088
52983W        W25243   5.746   7.952  14.685
52984W        W25244  40.932  44.052   4.157
52985W        W25245  13.347  13.774   3.647
52986W        W25246  15.418  29.324   2.956
52987W        W25247  21.595  13.889   0.396
52988W        W25248  21.912  44.044  11.205
52989W        W25249  23.156  14.153   0.480
52990W        W25250  24.946  41.492  11.211
52991W        W25251  11.729  20.331  13.879
52992W        W25252  18.895  30.527   0.971
52993W        W25253  10.479  28.714  14.344
52994W        W25254  30.059  24.607   0.112
52995W        W25255   3.740   8.452  10.438
52996W        W25256  15.893  20.220  12.591
52997W        W25257   0.278   6.896   1.786
52998W        W25258  21.706  29.645  11.994
52999W        W25259  17.380   5.967  12.889
53000W        W25260  12.727  28.671   1.284
53001W        W25261  29.634   0.728   1.878
53002W        W25262  15.746  25.673  14.518
53003W        W25263  41.762  31.614   1.476
53004W        W25264  21.719  37.144  11.378
53005W        W25265   7.379  36.133   0.416
53006W        W25266  24.176  26.051  10.724
53007W        W25267  31.478  39.431   2.484
53008W        W25268  17.104  16.227   0.382
53009W        W25269  36.958  39.974  14.357
53010W        W25270   6.889   2.608  11.099
53011W        W25271  31.458   8.672   2.698
53012W        W25272  27.563   9.875   3.358
53013W        W25273   7.804  34.555  14.798
53014W        W25274  14.862  23.125   3.160
53015W        W25275  26.962  39.371  11.089
53016W        W25276  20.105  13.718   4.655
53017W        W25277  13.732  36.770   0.797
53018W        W25278   2.807   3.998  11.512
53019W        W25279  12.569  31.192  13.016
53020W        W25280  43.228  15.179   3.855
53021W        W25281  14.207  28.534   0.249
53022W        W25282  21.236  27.773  10.226
53023W        W25283  32.931  41.392   0.832
53024W        W25284   2.938  35.039   2.294
53025W        W25285  15.472  16.245   0.359
53026W        W25286   7.657  42.936   4.026
53027W        W25287  17.772   4.495   3.752
53028W        W25288  33.514  12.407  13.039
53029W        W25289  16.288  34.185  14.387
53030W        W25290  43.025  26.727  13.962
53031W        W25291  12.282  23.974  12.700
53032W        W25292  21.685  37.516  10.615
53033W        W25293  15.678  12.069   1.737
53034W        W25294  28.004  43.983   2.758
53035W        W25295  15.838  14.244  12.051
53036W        W25296  36.590  37.882   2.761
53037W        W25297  12.368  28.066  13.550
53038W        W25298  23.542  19.469  12.948
53039W        W25299  16.983  26.506   0.894
53040W        W25300  25.935   9.671   0.988
53041W        W25301  24.740  24.443  14.437
53042W        W25302  44.032  30.334   4.047
53043W        W25303  13.611  21.167  13.046
53044W        W25304  15.858  39.426  14.591
53045W        W25305   6.245  38.456   4.229
53046W        W25306  26.024  37.818   2.724
53047W        W25307  23.139  21.827  14.989
53048W        W25308  29.955  39.626  13.543
53049W        W25309  11.258   5.685   4.316
53050W        W25310  31.919  26.915  13.000
53051W        W25311  37.413  29.176  10.444
53052W        W25312  29.044  41.274  13.911
53053W        W25313  30.344  15.620   3.304
53054W        W25314  17.625  24.657   0.918
53055W        W25315  34.151  28.190   2.313
53056W        W25316  12.842  40.808   2.731
53057W        W25317  23.529  32.324  11.680
53058W        W25318  10.336  37.403  13.947
53059W        W25319   6.833   4.123   4.586
53060W        W25320  42.783  24.190  11.766
53061W        W25321  38.362  21.560   0.987
53062W        W25322  42.981  34.519  12.713
53063W        W25323  18.262  20.211   0.681
53064W        W25324  40.725  18.650  12.038
53065W        W25325   4.293   3.165   4.581
53066W        W25326   6.402  37.314  13.161
53067W        W25327  37.182   3.135  11.209
53068W        W25328  11.837  30.418   2.322
53069W        W25329  18.000  29.087   3.412
53070W        W25330   5.299  29.744  10.798
53071W        W25331  18.603   9.586  13.245
53072W        W25332  19.153   0.001  12.158
53073W        W25333  28.204  23.443   1.823
53074W        W25334   8.655  14.327   0.397
53075W        W25335  25.119   0.720  10.600
53076W        W25336  29.422  29.909  12.398
53077W        W25337  27.544  18.954   4.535
53078W        W25338  12.149   0.497   0.211
53079W        W25339  37.051  17.295   1.756
53080W        W25340  36.335  29.252   1.303
53081W        W25341  36.440  36.056   4.143
53082W        W25342   9.905  13.190  12.423
53083W        W25343   7.159  23.953  10.802
53084W        W25344  42.171  21.547  11.469
53085W        W25345  18.794  38.167   0.765
53086W        W25346   8.805  30.282   4.464
53087W        W25347  19.534  15.665   4.928
53088W        W25348  11.652  13.617   1.926
53089W        W25349  34.395  17.106  12.230
53090W        W25350  39.902  30.679   3.388
53091W        W25351  25.520  17.099   0.493
53092W        W25352  12.988  13.381  14.344
53093W        W25353  20.059  23.228  14.333
53094W        W25354  39.940  33.505   1.519
53095W        W25355  18.730   1.888  14.782
53096W        W25356   6.529  29.861  13.247
53097W        W25357  38.973   7.759  12.147
53098W        W25358  44.410  41.406  14.067
53099W        W25359  18.713   9.861   3.736
53100W        W25360  19.298  20.650  14.946
53101W        W25361  18.254  10.774  13.338
53102W        W25362  17.819  26.713  12.598
53103W        W25363  29.998  16.796   0.370
53104W        W25364  27.793  29.376  13.599
53105W        W25365   5.282  19.950   4.036
53106W        W25366  19.041   1.052  10.724
53107W        W25367   1.264  11.950   0.458
53108W        W25368  22.054  42.568   3.322
53109W        W25369   7.678  14.900   0.811
53110W        W25370   5.193   5.821  11.595
53111W        W25371   5.896  34.324   3.920
53112W        W25372  29.688  30.882  12.615
53113W        W25373   2.218  25.157   1.779
53114W        W25374  10.613  43.422  10.735
53115W        W25375  41.894  10.451  14.964
53116W        W25376  21.130  13.153  10.565
53117W        W25377  20.116  25.071  13.502
53118W        W25378  36.408   7.494  13.886
53119W        W25379   0.620  31.973  14.209
53120W        W25380  26.516  17.167  10.364
53121W        W25381   6.330  40.484  14.030
53122W        W25382  43.799   0.042  13.394
53123W        W25383  12.661  26.642  14.507
53124W        W25384  39.638  15.846  11.172
53125W        W25385  33.746  10.065   1.857
53126W        W25386  13.811  26.431   3.208
53127W        W25387  15.197  40.005   3.687
53128W        W25388  36.875  12.840  12.621
53129W        W25389  10.269  20.525  13.997
53130W        W25390  17.059  32.303  12.063
53131W        W25391   0.489  27.287   2.376
53132W        W25392  43.615  28.799   0.760
53133W        W25393   5.294  28.013  12.871
53134W        W25394  19.649  21.265  11.339
53135W        W25395  23.964  44.006  11.487
53136W        W25396  32.248   9.036   5.004
53137W        W25397  44.449   3.897  12.095
53138W        W25398  27.059  38.037   0.906
53139W        W25399  44.858  42.477  13.521
53140W        W25400  32.381  44.386   4.283
53141W        W25401  36.633  42.480  13.423
53142W        W25402  19.509  42.757   0.008
53143W        W25403  14.724  19.252   4.106
53144W        W25404  32.321  36.114   2.293
53145W        W25405  17.256   0.398   3.934
53146W        W25406  40.817  18.084   1.387
53147W        W25407  29.890  11.850  14.892
53148W        W25408  21.524  37.642  11.181
53149W        W25409  30.157  25.705  10.729
53150W        W25410  30.409  13.400  14.499
53151W        W25411  41.468  39.517  12.582
53152W        W25412   2.888   0.446   4.231
53153W        W25413  32.036  44.932  14.503
53154W        W25414  39.458  28.237   3.441
53155W        W25415  16.830  23.974   4.249
53156W        W25416  11.874  18.825  11.657
53157W        W25417   3.994  30.145   3.713
53158W        W25418   6.212  27.021  10.782
53159W        W25419  12.813  34.280   1.960
53160W        W25420  26.944  35.421  12.103
53161W        W25421  26.711  18.254   0.288
53162W        W25422   5.389  12.174  11.835
53163W        W25423  38.336  34.651   3.276
53164W        W25424  34.590  32.418  13.541
53165W        W25425  25.574   5.381  13.842
53166W        W25426  24.135   1.070   0.046
53167W        W25427   2.839  35.963   0.305
53168W        W25428  34.977  28.903   1.434
53169W        W25429   9.873  17.977  13.529
53170W        W25430  33.988  18.282  12.619
53171W        W25431  28.599  35.236   1.597
53172W        W25432  37.259  25.640  13.859
53173W        W25433  24.162  33.025  11.285
53174W        W25434   3.225  18.826  12.045
53175W        W25435  21.418  34.032  13.388
53176W        W25436  41.346  21.121  13.121
53177W        W25437   0.942  35.037   2.088
53178W        W25438  29.526  27.014  12.906
53179W        W25439  14.157  17.531   0.500
53180W        W25440  10.727  10.872   0.312
53181W        W25441  38.777  13.819  12.650
53182W        W25442  14.052  28.459  13.722
53183W        W25443  40.799  12.541  13.562
53184W        W25444   4.463  19.350   3.748
53185W        W25445  27.604  13.216   2.162
53186W        W25446  38.861  32.492   1.044
53187W        W25447   9.666  44.920  12.405
53188W        W25448  26.243  35.923  13.944
53189W        W25449  29.070  41.314   4.538
53190W        W25450  39.411   8.320   0.509
53191W        W25451  35.658  34.013  12.970
53192W        W25452  31.916  16.726  13.950
53193W        W25453  20.788  12.557  12.838
53194W        W25454  34.920  32.483   1.721
53195W        W25455  10.362  10.553  13.469
53196W        W25456  28.234   4.514  14.965
53197W        W25457   1.195   5.504  11.106
53198W        W25458  10.639  37.989  14.051
53199W        W25459   2.546  12.406  14.846
53200W        W25460  38.052  39.343  10.763
53201W        W25461  27.680  23.089  13.841
53202W        W25462  12.180  23.077  10.745
53203W        W25463  39.396  34.109  12.632
53204W        W25464  41.517   5.913  14.942
53205W        W25465  36.235   6.880   1.232
53206W        W25466   5.745  27.416   0.805
53207W        W25467  35.908   3.196  13.806
53208W        W25468  38.632   1.255  13.666
53209W        W25469  18.624  26.014   4.176
53210W        W25470  18.283  39.995   1.704
53211W        W25471  35.606   5.814  12.361
53212W        W25472  23.112  29.927  11.565
53213W        W25473   9.440   6.445  12.105
53214W        W25474  39.898  42.418   1.794
53215W        W25475  41.624   0.150   5.228
53216W        W25476   7.962  20.694   2.279
53217W        W25477  36.004  40.298   2.432
53218W        W25478  22.480  40.790   3.225
53219W        W25479  27.548  25.982   4.666
53220W        W25480  27.629  16.428   1.681
53221W        W25481  22.227   2.218   3.326
53222W        W25482  41.515  11.631  12.814
53223W        W25483  17.801   6.663   1.805
53224W        W25484  40.818  24.106   0.408
53225W        W25485  31.934   0.889  11.870
53226W        W25486   7.637   9.798  10.770
53227W        W25487  33.545   0.291  12.078
53228W        W25488   5.927  35.399  14.792
53229W        W25489  33.867  14.024   1.721
53230W        W25490  26.687   6.855   0.924
53231W        W25491   5.012  14.738  13.427
53232W        W25492  34.841   1.806   0.454
53233W        W25493  10.871  43.316   0.287
53234W        W25494  26.021  10.860   3.285
53235W        W25495  43.811  33.334  12.609
53236W        W25496  41.561  30.047  12.557
53237W        W25497  30.446  33.678   4.528
53238W        W25498  30.435  24.253  12.883
53239W        W25499  19.584  19.800  11.660
53240W        W25500   2.636  35.009  10.769
53241W        W25501  19.375  10.069  11.577
53242W        W25502   8.973  25.444  12.583
53243W        W25503   9.346   4.539  13.439
53244W        W25504   3.560  19.247   2.324
53245W        W25505  23.810  11.815  14.516
53246W        W25506  42.829  11.267  13.026
53247W        W25507  19.695   3.168   4.256
53248W        W25508  27.932  23.536  10.729
53249W        W25509   6.555  25.185   0.778
53250W        W25510  43.946   6.908  13.447
53251W        W25511  15.035  27.629  13.137
53252W        W25512  35.416  25.932   4.804
53253W        W25513  37.919  38.406  11.559
53254W        W25514  16.051  32.879  11.245
53255W        W25515  35.041  20.158  14.696
53256W        W25516  19.534  27.651  11.148
53257W        W25517  29.266  29.401   9.745
53258W        W25518  22.489   5.543  13.683
53259W        W25519  44.418  24.714  14.509
53260W        W25520  32.446  23.039  14.051
53261W        W25521  24.534   9.115   2.703
53262W        W25522  20.740  34.543  11.023
53263W        W25523  22.124  10.190   2.575
53264W        W25524   3.165   4.916   3.191
53265W        W25525  19.952  32.889  11.518
53266W        W25526  34.971  25.450   2.124
53267W        W25527  39.932  34.149  11.927
53268W        W25528  40.441  36.528   4.730
53269W        W25529  39.833  18.047   3.235
53270W        W25530  31.945  36.042  12.387
53271W        W25531  10.300  17.019   4.245
53272W        W25532  40.320  23.037  13.110
53273W        W25533   5.421   0.877  14.894
53274W        W25534  15.821  21.227  12.435
53275W        W25535  14.331   2.463  12.687
53276W        W25536  44.149  26.105  12.043
53277W        W25537  39.858  41.427   4.629
53278W        W25538   1.389   7.832  11.574
53279W        W25539  23.946   4.489   0.293
53280W        W25540  22.976  11.375  11.694
53281W        W25541  23.894  34.529  13.852
53282W        W25542  19.357  20.061  10.594
53283W        W25543   6.442  28.625  11.514
53284W        W25544  18.240   8.817  12.426
53285W        W25545  23.227  43.949  13.876
53286W        W25546   1.241   5.257  14.597
53287W        W25547  22.508  11.642  14.757
53288W        W25548  14.096  30.966  13.276
53289W        W25549  42.043  37.159  13.537
53290W        W25550   4.701  18.303   0.865
53291W        W25551  30.091  39.594   3.627
53292W        W25552  18.483  12.238  11.552
53293W        W25553  39.264   8.624  12.185
53294W        W25554  37.512  40.627   5.013
53295W        W25555  30.953  39.911  10.933
53296W        W25556  28.859   7.839  10.690
53297W        W25557  30.047   1.099   2.655
53298W        W25558  28.445  43.841  10.728
53299W        W25559   4.751  33.502  14.438
53300W        W25560   7.691  29.072   3.708
53301W        W25561  34.922  24.704  11.157
53302W        W25562  16.304   9.854  10.710
53303W        W25563  24.268  31.577   4.639
53304W        W25564  19.307  38.922  10.739
53305W        W25565  33.973   3.236   4.772
53306W        W25566  31.619  29.911  12.770
53307W        W25567  12.606  42.327  13.978
53308W        W25568  25.764  17.028  14.198
53309W        W25569  29.676  19.258   4.798
53310W        W25570  28.615  20.184   0.406
53311W        W25571  10.736   0.252   4.913
53312W        W25572  42.269  22.745   4.534
53313W        W25573  11.209   8.266  11.564
53314W        W25574   0.546   4.594  11.183
53315W        W25575  43.674  12.786  11.205
53316W        W25576  28.666  10.830  10.898
53317W        W25577  43.384  19.161  11.770
53318W        W25578  38.031   2.711   3.670
53319W        W25579  10.859  33.256   2.459
53320W        W25580  25.177  21.747  12.413
53321W        W25581   8.147  33.454  11.169
53322W        W25582  43.768  44.024   4.739
53323W        W25583   8.636  36.031  12.835
53324W        W25584  42.133  15.686   0.286
53325W        W25585   4.172  37.842  13.479
53326W        W25586  42.584  20.128   4.861
53327W        W25587  37.094  10.387   0.873
53328W        W25588  26.671  42.247  12.865
53329W        W25589   0.347  21.396   1.188
53330W        W25590  43.917  26.847  11.129
53331W        W25591  44.760  43.542   3.228
53332W        W25592  23.001  11.683   4.608
53333W        W25593   0.394   6.545  13.367
53334W        W25594  21.392  35.937  14.360
53335W        W25595  31.445   7.807  10.919
53336W        W25596   6.574  17.021   1.226
53337W        W25597  32.559  17.537   1.708
53338W        W25598  22.014   7.943   0.655
53339W        W25599  29.401   7.787  11.524
53340W        W25600  18.740  14.134   4.967
53341W        W25601  25.769  30.563   4.562
53342W        W25602   4.213   3.242  10.802
53343W        W25603  40.171  30.024   1.455
53344W        W25604   0.924  33.755  14.902
53345W        W25605  43.062  29.634  14.363
53346W        W25606  13.029   1.040  10.660
53347W        W25607   2.275  14.658   1.301
53348W        W25608  25.060  23.103   3.813
53349W        W25609   3.675  14.190  11.723
53350W        W25610  12.826  17.545   0.799
53351W        W25611  20.175  10.931  12.585
53352W        W25612   0.328   5.942   4.651
53353W        W25613   4.449  44.354   0.291
53354W        W25614  36.453   8.121  10.700
53355W        W25615   3.055  19.077   4.082
53356W        W25616  23.109   4.073  11.136
53357W        W25617  43.631  25.461  12.394
53358W        W25618  20.697   7.594  11.449
53359W        W25619  15.039  12.880   3.716
53360W        W25620  11.860   1.798   0.441
53361W        W25621  40.993  29.672   2.982
53362W        W25622   4.851  19.197  10.968
53363W        W25623  24.771  42.290   1.405
53364W        W25624  38.406  40.511  11.118
53365W        W25625  40.247  12.587  13.489
53366W        W25626   5.010  34.879   1.605
53367W        W25627  12.202   1.141   4.002
53368W        W25628   3.817  40.223  11.328
53369W        W25629  21.668  36.367   1.165
53370W        W25630  35.033   6.403  11.194
53371W        W25631  38.713  15.574   1.360
53372W        W25632  28.084  12.518  10.782
53373W        W25633  22.691   8.398  13.372
53374W        W25634   3.385  35.031   0.511
53375W        W25635  19.245   2.812  11.137
53376W        W25636  20.137  23.190   4.623
53377W        W25637  44.014   0.523   4.578
53378W        W25638  31.962  36.554  11.054
53379W        W25639   7.736  39.434   4.037
53380W        W25640   9.109  25.010   1.930
53381W        W25641  13.191  30.484   1.207
53382W        W25642   4.430   2.285   3.657
53383W        W25643  39.609  40.967   3.403
53384W        W25644  28.113  27.377  11.619
53385W        W25645  32.216   0.233   3.219
53386W        W25646  13.226  43.914  11.646
53387W        W25647   2.386   4.307  13.948
53388W        W25648  11.929  19.333   4.594
53389W        W25649   3.402   0.922   4.852
53390W        W25650  39.490  16.048   2.856
53391W        W25651   9.049  27.626   1.060
53392W        W25652  43.750   0.077   4.592
53393W        W25653  34.992   9.641   2.426
53394W        W25654  22.730  25.758   1.379
53395W        W25655  44.090  42.831  12.421
53396W        W25656   1.911  31.796   0.550
53397W        W25657  33.695  44.870   3.216
53398W        W25658  26.717   3.463  12.400
53399W        W25659   0.172  43.608  11.362
53400W        W25660  36.367  27.187   1.441
53401W        W25661  43.067  34.067  11.938
53402W        W25662  29.526  12.139  14.616
53403W        W25663  26.903  43.276  13.475
53404W        W25664  24.752  21.117  10.705
53405W        W25665  41.263  15.200   1.705
53406W        W25666  35.057  28.629   4.390
53407W        W25667  38.514   5.425  14.530
53408W        W25668   7.889  37.131  10.853
53409W        W25669  15.768  36.853   2.333
53410W        W25670  14.541  14.505  10.326
53411W        W25671   9.345  11.116  13.339
53412W        W25672  31.115  13.388   0.435
53413W        W25673  17.636  31.391   4.726
53414W        W25674  27.771  35.334   0.419
53415W        W25675   6.624  17.784  14.031
53416W        W25676  16.138  23.251   3.152
53417W        W25677  19.110   3.461   1.337
53418W        W25678  19.784  30.519   2.285
53419W        W25679  36.968  32.413  12.538
53420W        W25680  40.423  18.833  10.588
53421W        W25681  41.268  22.229  12.312
53422W        W25682  14.095  37.971  13.525
53423W        W25683  34.049  43.743  10.650
53424W        W25684  31.709   9.865  10.652
53425W        W25685  28.660  24.028  14.403
53426W        W25686  10.737   9.592   1.773
53427W        W25687   8.147  43.313   1.449
53428W        W25688  37.050   7.206   3.631
53429W        W25689   7.795   4.957   0.635
53430W        W25690   5.373  30.688  10.434
53431W        W25691   5.910   6.677  14.511
53432W        W25692  11.287  13.173   4.272
53433W        W25693   0.828  10.535  14.525
53434W        W25694  37.550  38.183  12.588
53435W        W25695  26.863  19.061  10.555
53436W        W25696  30.026  13.886   2.814
53437W        W25697  12.091  34.115  14.874
53438W        W25698   6.958   3.188   3.981
53439W        W25699   9.716   4.963  10.698
53440W        W25700   2.262   1.510   3.004
53441W        W25701  19.809  44.399   0.949
53442W        W25702  15.971  19.868   0.145
53443W        W25703   1.746  14.565   0.792
53444W        W25704  33.869   3.425   1.425
53445W        W25705   3.840   5.978   2.741
53446W        W25706  36.602  42.030   2.082
53447W        W25707  41.418  13.322  14.561
53448W        W25708  41.475   0.445   4.364
53449W        W25709  25.146  25.761   4.133
53450W        W25710  17.970  24.410  12.936
53451W        W25711  13.271  21.960  14.506
53452W        W25712  29.867  39.116   0.885
53453W        W25713  43.085  20.178   2.056
53454W        W25714   7.491  32.081   2.182
53455W        W25715  17.045  37.540  11.512
53456W        W25716  21.147  41.137   4.936
53457W        W25717   9.910   5.927   0.789
53458W        W25718  41.244   3.643  14.998
53459W        W25719  12.881  36.296   3.227
53460W        W25720  34.513   9.340  14.022
53461W        W25721  13.163  15.974  10.827
53462W        W25722  20.212  33.606  11.161
53463W        W25723  26.435  20.744   3.168
53464W        W25724  14.396  41.285  14.303
53465W        W25725  38.303  34.097  13.528
53466W        W25726  15.618  36.858   4.181
53467W        W25727  28.767  21.664  14.526
53468W        W25728  17.134  29.054  14.651
53469W        W25729   5.030  16.309   3.719
53470W        W25730  30.415  44.752   2.769
53471W        W25731   8.715   0.359  12.828
53472W        W25732  19.980  22.181   2.287
53473W        W25733  21.939  12.664  12.412
53474W        W25734  19.314  27.755  12.641
53475W        W25735  26.127  44.095   2.957
53476W        W25736  25.948  14.336   2.752
53477W        W25737  27.780  24.108   1.853
53478W        W25738  22.890  22.547  13.219
53479W        W25739  17.132  25.034  12.982
53480W        W25740  21.102   7.495   4.217
53481W        W25741   9.125  34.989  11.963
53482W        W25742  18.206  26.228  13.198
53483W        W25743  25.902  33.049   3.436
53484W        W25744  39.169  33.019  14.790
53485W        W25745  26.523  16.288   4.533
53486W        W25746  14.142  33.015   0.731
53487W        W25747  36.299  42.524  12.153
53488W        W25748  13.880  44.578  13.937
53489W        W25749   9.326  28.852  13.799
53490W        W25750   6.857   5.167  14.435
53491W        W25751   3.316  18.470   3.353
53492W        W25752  37.988  24.543  13.866
53493W        W25753  12.259   8.806  12.370
53494W        W25754  26.641   3.849   0.788
53495W        W25755  12.244  11.749   0.262
53496W        W25756   6.680   6.603   3.597
53497W        W25757  22.739   7.928  14.446
53498W        W25758  14.310   4.469   0.216
53499W        W25759  27.891   7.146  11.591
53500W        W25760  16.197   6.794   2.663
53501W        W25761  34.911   2.407  11.068
53502W        W25762  18.597   5.733  11.765
53503W        W25763  35.537  18.007   1.367
53504W        W25764  38.429  27.772   0.395
53505W        W25765   1.308   8.756   4.508
53506W        W25766  11.422  31.601  10.581
53507W        W25767  10.840   1.247   4.062
53508W        W25768  14.937   5.740  12.421
53509W        W25769  37.411   1.912  10.647
53510W        W25770  12.458   8.445   2.913
53511W        W25771  34.015   1.073   1.181
53512W        W25772  16.276  22.516  13.213
53513W        W25773  24.166  25.916   2.627
53514W        W25774  20.118  39.435   3.562
53515W        W25775   7.356  13.715  12.934
53516W        W25776  24.623  24.958  14.429
53517W        W25777   0.457  42.676  10.732
53518W        W25778  24.040  29.149  12.860
53519W        W25779  18.724  19.202   1.888
53520W        W25780   1.375   2.288   1.066
53521W        W25781  36.318  30.015   4.127
53522W        W25782  43.969  17.259  14.221
53523W        W25783  17.117  26.357  14.190
53524W        W25784  21.029  26.043   4.070
53525W        W25785  18.290  44.400  10.539
53526W        W25786   5.921  16.195   4.663
53527W        W25787  41.035  40.315   2.255
53528W        W25788  25.429  13.677   2.292
53529W        W25789  35.145   6.977   4.650
53530W        W25790  39.585  15.054   1.371
53531W        W25791  18.490  13.820  13.075
53532W        W25792  34.858  10.239  12.509
53533W        W25793  18.850   4.398   4.157
53534W        W25794  25.511  28.336   5.255
53535W        W25795  21.832  29.616   2.220
53536W        W25796  36.072   9.647   1.763
53537W        W25797  35.668   8.799  12.424
53538W        W25798  37.831   5.717  14.522
53539W        W25799  24.513  30.133  12.042
53540W        W25800   5.985   8.270   3.788
53541W        W25801  12.283  44.919  11.614
53542W        W25802  35.895  15.591   3.443
53543W        W25803  15.901  26.988  11.998
53544W        W25804  22.302   4.833  13.619
53545W        W25805  28.044   6.761   0.819
53546W        W25806  36.527  31.881   0.387
53547W        W25807   9.193   9.221  10.587
53548W        W25808  21.855   0.451  11.428
53549W        W25809  12.401  35.512  14.983
53550W        W25810  38.343  15.894  11.160
53551W        W25811  39.893  33.978  13.307
53552W        W25812  32.638  41.488   3.245
53553W        W25813  43.444  11.114   3.099
53554W        W25814  11.273  19.182   2.779
53555W        W25815  11.149  33.575  11.365
53556W        W25816   6.350   3.286   3.344
53557W        W25817  14.737   0.414   3.084
53558W        W25818  31.971  19.379   4.070
53559W        W25819   3.885   5.233   0.455
53560W        W25820   2.244  14.187   9.794
53561W        W25821  10.590  25.681   1.376
53562W        W25822  11.752  18.371   5.123
53563W        W25823  12.127  31.957   4.917
53564W        W25824   5.577  27.351  13.362
53565W        W25825  42.916  29.275  11.550
53566W        W25826  35.542   5.065   3.619
53567W        W25827  25.468  22.985   9.706
53568W        W25828  11.910   0.821  13.910
53569W        W25829  19.604  20.692  14.512
53570W        W25830  16.218  22.688   3.698
53571W        W25831  17.230  26.288  13.655
53572W        W25832  41.913   3.246   1.415
53573W        W25833  42.910   6.337   2.339
53574W        W25834  44.715  28.245  14.222
53575W        W25835  10.373  43.979  11.660
53576W        W25836   8.018   2.916   0.243
53577W        W25837   4.304  23.197   4.548
53578W        W25838  23.830  34.650  14.381
53579W        W25839  21.628   5.649   0.475
53580W        W25840  22.692  40.325   2.661
53581W        W25841  26.273  37.329  11.512
53582W        W25842  29.179  12.417  13.305
53583W        W25843  34.341  34.609   0.554
53584W        W25844  29.131  31.694  12.919
53585W        W25845   9.815  28.473  11.991
53586W        W25846  42.079  43.500   3.242
53587W        W25847  44.789   5.535   2.675
53588W        W25848  21.562  10.686   3.730
53589W        W25849   3.897   3.916   4.555
53590W        W25850   7.184  37.104   1.504
53591W        W25851  13.879  17.080   1.926
53592W        W25852   9.508  20.199  14.354
53593W        W25853  20.266  22.241   2.740
53594W        W25854  18.452   3.515  14.151
53595W        W25855  39.349  21.592   0.927
53596W        W25856  21.253  31.790   4.996
53597W        W25857  10.677   0.186   1.856
53598W        W25858  19.334  34.447   1.646
53599W        W25859  36.989  22.141   3.599
53600W        W25860  33.102  27.503   3.622
53601W        W25861  10.162  25.722   4.425
53602W        W25862   1.098  41.452   0.205
53603W        W25863  44.667  26.540  11.502
53604W        W25864  30.718  12.735   4.197
53605W        W25865  37.266  33.826  13.403
53606W        W25866  20.677  25.584  11.634
53607W        W25867  25.549  44.875   0.189
53608W        W25868   9.414   1.534   3.029
53609W        W25869  38.627   2.434  12.109
53610W        W25870   8.802  27.739  13.810
53611W        W25871  22.736  16.032  10.313
53612W        W25872   4.353  24.296  13.885
53613W        W25873   7.836  11.080  10.602
53614W        W25874  23.953  19.067  14.838
53615W        W25875   0.740  37.933   4.269
53616W        W25876  25.340   9.318  10.667
53617W        W25877   8.414  11.253  13.883
53618W        W25878  29.581  26.508  13.265
53619W        W25879   2.801   0.070   3.822
53620W        W25880  35.347  23.633  12.623
53621W        W25881  37.414  37.621   5.020
53622W        W25882  16.214  42.325  12.867
53623W        W25883  33.465  19.645   1.306
53624W        W25884  44.459  20.774   0.951
53625W        W25885  39.359   7.903   1.528
53626W        W25886  35.033  30.346  14.941
53627W        W25887  25.419  31.428  11.855
53628W        W25888   1.879  15.891   0.400
53629W        W25889  42.250  20.108  12.868
53630W        W25890  24.625  11.802  13.670
53631W        W25891  15.551   6.439  13.931
53632W        W25892   2.295  13.176   3.253
53633W        W25893  14.461  40.313  14.900
53634W        W25894   0.245  14.734   2.436
53635W        W25895  18.475  39.034  13.516
53636W        W25896  18.095  22.746   2.348
53637W        W25897  14.560  10.455   0.332
53638W        W25898  10.359  34.106   3.331
53639W        W25899   2.277  26.980   1.841
53640W        W25900  16.666  35.669   1.863
53641W        W25901  31.467  10.743   0.366
53642W        W25902  21.717  41.534   1.822
53643W        W25903  15.784  23.225  11.438
53644W        W25904  15.021  31.899   2.161
53645W        W25905  15.743   4.247  11.429
53646W        W25906  31.190  28.880   4.269
53647W        W25907  25.962  37.380  10.522
53648W        W25908  42.792  27.535   3.246
53649W        W25909  41.891  44.392   3.123
53650W        W25910  34.462  30.441  13.312
53651W        W25911  33.356  28.631  14.424
53652W        W25912  28.430   0.448   1.486
53653W        W25913  16.793  27.921  14.713
53654W        W25914  33.125   0.204  10.737
53655W        W25915  10.124  27.565  11.907
53656W        W25916  38.264  13.848   1.826
53657W        W25917  23.573   4.745  12.841
53658W        W25918   4.322  21.586  10.357
53659W        W25919  36.966   2.771   4.080
53660W        W25920  35.336   4.746   3.943
53661W        W25921  43.895   4.409  11.921
53662W        W25922  24.385  28.023   9.493
53663W        W25923   6.688  30.816  13.420
53664W        W25924   3.140  11.589   4.964
53665W        W25925  19.600  22.202  13.558
53666W        W25926  43.653   3.821   1.866
53667W        W25927  38.091   8.355  11.708
53668W        W25928  34.537  16.559   3.931
53669W        W25929  38.534  40.248  10.674
53670W        W25930  25.244  40.370   1.869
53671W        W25931  33.849  38.873  14.301
53672W        W25932   2.921  12.867  14.391
53673W        W25933  30.023  20.841  12.443
53674W        W25934  40.819  40.779  14.838
53675W        W25935  38.935  42.849   1.959
53676W        W25936  23.446  30.860  14.383
53677W        W25937  26.594  37.539   2.474
53678W        W25938  20.618  26.492  14.100
53679W        W25939  32.402  13.352   0.400
53680W        W25940  19.697  44.314   4.980
53681W        W25941   3.714  29.096  12.853
53682W        W25942  27.231  39.606   4.610
53683W        W25943  39.865  38.651   3.704
53684W        W25944  29.494   8.642   3.726
53685W        W25945  28.134  19.582  14.005
53686W        W25946  32.181  19.884  11.125
53687W        W25947  16.816  33.487  11.189
53688W        W25948  25.222  28.965   3.539
53689W        W25949   4.358  40.974   2.695
53690W        W25950  16.041  17.602   4.649
53691W        W25951   6.439  35.657   3.492
53692W        W25952  19.186  27.063  12.180
53693W        W25953  31.181   1.242   1.129
53694W        W25954   8.736   5.147   0.030
53695W        W25955  36.006  42.455  11.250
53696W        W25956  20.509  43.347  14.526
53697W        W25957  21.195   3.081  11.617
53698W        W25958   9.933  36.013   4.855
53699W        W25959   9.946   0.257   3.329
53700W        W25960  35.153  31.330   1.944
53701W        W25961  13.733  27.967  12.912
53702W        W25962  21.663  39.419  10.883
53703W        W25963  15.570   6.660   4.618
53704W        W25964  20.653  37.396  14.030
53705W        W25965  22.927  27.349   0.463
53706W        W25966  24.514   2.847  12.462
53707W        W25967  25.232   3.308   3.442
53708W        W25968   3.369  33.939   1.881
53709W        W25969  34.464  10.179   0.211
53710W        W25970  32.838  22.231  14.932
53711W        W25971   8.608  41.364  11.938
53712W        W25972  38.898  22.094  11.501
53713W        W25973  19.036  16.056   0.224
53714W        W25974  31.460  21.928   3.229
53715W        W25975  37.063  26.545  13.087
53716W        W25976  38.934  10.190  10.092
53717W        W25977  18.020  28.376   1.804
53718W        W25978  31.522  17.065  11.714
53719W        W25979   6.266  15.438  13.320
53720W        W25980  41.817  17.566  13.548
53721W        W25981  10.780  19.662  11.708
53722W        W25982   9.149  14.640   5.028
53723W        W25983  19.371  20.787   2.346
53724W        W25984  40.098  16.565  14.322
53725W        W25985   4.687  44.686  10.349
53726W        W25986  26.603   0.814   1.846
53727W        W25987  18.513  21.266  12.539
53728W        W25988  16.182  29.454   0.794
53729W        W25989   9.180   0.499  13.061
53730W        W25990  24.398   8.783   4.350
53731W        W25991  33.935  15.371  12.430
53732W        W25992  23.183   5.835  14.445
53733W        W25993  12.047  32.946  14.128
53734W        W25994   1.365  18.847   4.524
53735W        W25995  24.786   2.229   2.777
53736W        W25996  17.689  41.285   1.949
53737W        W25997   6.888   5.195   4.537
53738W        W25998  33.106   3.917  11.023
53739W        W25999  43.412  40.988   4.402
53740W        W26000  26.757  34.416   0.258
53741W        W26001  35.443  11.616   1.851
53742W        W26002  20.078  30.316   1.298
53743W        W26003  40.963  35.053   4.964
53744W        W26004   0.738  40.759  11.863
53745W        W26005  17.307  17.735  10.923
53746W        W26006   1.226  20.315   1.727
53747W        W26007  43.808  40.570   2.644
53748W        W26008   0.537  15.209   1.959
53749W        W26009  30.525  37.083  11.484
53750W        W26010  26.491  39.925   1.147
53751W        W26011  25.137  12.093  13.376
53752W        W26012   9.862  33.926   4.640
53753W        W26013  36.413  15.539  12.971
53754W        W26014  39.760  11.671  13.278
53755W        W26015  36.863  28.063   2.253
53756W        W26016  38.742  29.252  14.654
53757W        W26017  37.296  23.517  12.614
53758W        W26018  17.190  34.800   0.467
53759W        W26019  20.863   4.534  13.338
53760W        W26020  20.281  28.701  10.980
53761W        W26021  13.369   0.320  14.448
53762W        W26022  41.443  32.437   0.278
53763W        W26023  15.781  44.075  12.325
53764W        W26024  17.093  24.997   2.346
53765W        W26025   3.112  33.136   4.136
53766W        W26026  12.169  16.700  12.286
53767W        W26027  26.995  26.491  11.995
53768W        W26028  40.552  12.150  13.314
53769W        W26029  23.758  30.162   3.296
53770W        W26030  40.173  29.551   4.636
53771W        W26031  34.094   5.727   2.219
53772W        W26032  42.968  44.765  10.653
53773W        W26033  27.434  13.079  13.768
53774W        W26034  43.490  15.592   4.133
53775W        W26035  33.319  19.149   3.346
53776W        W26036  27.614  26.074   2.477
53777W        W26037  28.034  10.382   2.293
53778W        W26038  22.593  19.693  11.578
53779W        W26039   7.305   5.223   0.687
53780W        W26040  12.235   2.927  14.082
53781W        W26041  14.210  34.896  13.195
53782W        W26042  31.616  30.464   5.052
53783W        W26043  16.827   9.677  13.381
53784W        W26044  35.848  14.773   1.821
53785W        W26045   9.535  34.538  10.208
53786W        W26046  37.834  36.179  12.027
53787W        W26047   6.854   7.473  12.037
53788W        W26048  23.249   5.752   2.785
53789W        W26049  21.501   8.713  10.739
53790W        W26050  11.200  42.196  12.570
53791W        W26051   8.204   4.924   2.468
53792W        W26052   2.291  30.775  12.387
53793W        W26053  16.244  17.639   4.186
53794W        W26054  41.836  35.750   2.677
53795W        W26055  16.766  32.561  11.683
53796W        W26056  13.938   8.221  14.803
53797W        W26057  44.678  28.540   1.690
53798W        W26058  11.725  42.534   0.384
53799W        W26059  27.553  43.789  11.081
53800W        W26060  44.269   8.177   2.215
53801W        W26061   4.006  28.078   2.393
53802W        W26062   8.747  33.863   4.153
53803W        W26063  37.311  41.625  13.270
53804W        W26064  36.438  27.173  11.491
53805W        W26065   5.736  40.340  14.290
53806W        W26066  21.064   1.084  10.701
53807W        W26067  35.083  30.106   1.468
53808W        W26068  39.821  16.147  14.458
53809W        W26069  36.351  15.788   1.344
53810W        W26070  20.170  28.476  12.830
53811W        W26071  21.497  38.153  11.161
53812W        W26072  25.743  29.629   3.684
53813W        W26073   9.904  27.464   3.172
53814W        W26074  26.056  39.025  12.659
53815W        W26075  23.787  44.274   3.780
53816W        W26076   7.710  40.030   2.777
53817W        W26077  35.924  43.515   0.888
53818W        W26078  21.671  24.659   0.805
53819W        W26079  10.164  26.766   4.215
53820W        W26080  12.184   3.889   2.245
53821W        W26081   5.305  36.427  12.584
53822W        W26082  25.473  34.993   1.278
53823W        W26083  14.888   2.238   0.210
53824W        W26084  41.675   0.342  13.031
53825W        W26085   0.311  30.448   3.492
53826W        W26086  21.657  19.626  11.218
53827W        W26087  25.523   3.246  14.251
53828W        W26088  29.389  27.590   4.673
53829W        W26089  22.179  24.761  12.890
53830W        W26090  35.107  32.929   3.205
53831W        W26091  11.330  24.125   3.887
53832W        W26092  24.033  33.888  10.765
53833W        W26093  12.068  30.131   1.932
53834W        W26094  23.047  44.931   1.829
53835W        W26095  12.546  34.570   4.200
53836W        W26096  28.031   1.465   2.238
53837W        W26097   4.928  12.898   1.546
53838W        W26098   0.826  34.629   2.417
53839W        W26099   2.920  17.973  11.890
53840W        W26100  27.194   6.896  10.552
53841W        W26101  15.108   2.642   0.420
53842W        W26102  44.970  38.618  11.049
53843W        W26103  42.876  33.168  12.419
53844W        W26104   9.396  39.890  11.650
53845W        W26105  15.209  26.268  13.479
53846W        W26106  28.041  29.869   5.061
53847W        W26107  11.806  13.572   2.655
53848W        W26108  22.186  22.855  12.424
53849W        W26109  24.023  40.053   3.157
53850W        W26110   2.441  14.563   4.468
53851W        W26111  22.157  20.764   4.657
53852W        W26112  37.806  44.450   1.811
53853W        W26113  36.029   9.922   0.976
53854W        W26114  41.398  38.473   2.696
53855W        W26115  36.476   4.429   3.675
53856W        W26116  22.107  18.476   2.366
53857W        W26117  44.671  43.786   4.640
53858W        W26118  28.458  37.930  12.884
53859W        W26119   0.427  32.488   3.164
53860W        W26120  41.449   7.811   3.141
53861W        W26121  16.310  23.749  12.077
53862W        W26122  29.007  30.958   4.698
53863W        W26123  30.482  30.886   3.762
53864W        W26124  26.896  39.436   1.374
53865W        W26125  20.341  28.624  13.305
53866W        W26126  39.423   9.894   4.511
53867W        W26127  14.291  43.518   2.737
53868W        W26128  17.734   4.282  11.484
53869W        W26129  31.338  41.019   1.463
53870W        W26130  37.628   1.741  11.523
53871W        W26131  28.473  36.836   2.530
53872W        W26132  29.919  30.641   2.632
53873W        W26133   2.460  20.244  11.543
53874W        W26134  31.264  44.424   4.076
53875W        W26135  33.132  26.295  14.569
53876W        W26136  37.299  37.282  11.630
53877W        W26137  23.330  11.617   2.124
53878W        W26138  36.601  14.671   4.196
53879W        W26139  30.153  42.467   3.809
53880W        W26140   7.031  25.865  10.273
53881W        W26141  16.127  12.092  13.405
53882W        W26142  11.307  10.950   1.219
53883W        W26143   7.812  14.611   1.253
53884W        W26144  30.229  40.930  10.768
53885W        W26145  31.139  24.404   1.773
53886W        W26146  21.262  23.172  11.410
53887W        W26147  12.314  13.574  13.853
53888W        W26148  21.560   6.600   0.032
53889W        W26149  22.378   1.714  11.716
53890W        W26150  23.977  31.193   3.634
53891W        W26151   9.737  30.492   4.532
53892W        W26152  37.645   4.342  10.457
53893W        W26153  37.012   1.714   2.773
53894W        W26154  25.500  39.042  14.717
53895W        W26155  10.080  34.173  13.627
53896W        W26156  12.463  12.655   4.588
53897W        W26157  14.758  29.410  12.054
53898W        W26158   1.201  43.426  11.550
53899W        W26159  43.066  12.026  14.373
53900W        W26160  28.929  11.676   4.154
53901W        W26161  37.456  30.900   2.667
53902W        W26162  39.011  28.762  10.670
53903W        W26163  42.058  14.277  11.647
53904W        W26164  40.465  22.076   1.995
53905W        W26165  14.400  36.740   1.670
53906W        W26166   5.988   3.292  12.922
53907W        W26167   1.514  11.431  12.632
53908W        W26168  23.193  16.303  11.474
53909W        W26169  10.106  25.258   0.778
53910W        W26170   3.664  31.803  13.084
53911W        W26171  28.528   5.726   2.772
53912W        W26172  18.565  39.526   0.395
53913W        W26173  19.103  40.811   2.226
53914W        W26174  13.889  20.992  10.740
53915W        W26175  27.507  25.259  12.257
53916W        W26176  29.438  35.971   2.633
53917W        W26177  36.294  18.153  13.846
53918W        W26178  11.205  44.989  13.878
53919W        W26179  30.152   8.306  11.717
53920W        W26180  22.744  42.848   0.110
53921W        W26181  25.035  26.375  12.604
53922W        W26182   7.484  42.376  14.889
53923W        W26183   2.038  24.206  14.032
53924W        W26184  30.478  37.230   2.223
53925W        W26185  20.724   9.836   3.211
53926W        W26186  31.826  15.350  13.970
53927W        W26187  20.344  12.135   3.745
53928W        W26188   9.435   2.114  14.328
53929W        W26189  25.990  29.411   3.298
53930W        W26190  38.026  34.519   4.585
53931W        W26191  13.752  33.387   0.754
53932W        W26192   2.245  17.256   1.824
53933W        W26193  22.531  25.166   4.942
53934W        W26194   0.727  10.224   3.350
53935W        W26195  35.686  11.635   0.716
53936W        W26196   9.135  44.956   1.364
53937W        W26197  42.859  40.798   3.174
53938W        W26198  31.559  32.949  12.418
53939W        W26199   6.317   4.103   1.398
53940W        W26200   0.492  19.021   4.573
53941W        W26201  11.777  38.412   1.453
53942W        W26202  15.130  14.085   4.176
53943W        W26203  31.548  13.705   0.773
53944W        W26204   3.910  11.471   4.278
53945W        W26205  42.670  11.267   2.263
53946W        W26206  28.580  19.547  13.486
53947W        W26207  22.532   9.736  13.421
53948W        W26208  14.552  27.526   4.642
53949W        W26209  30.032  41.043  14.777
53950W        W26210  29.856  22.400  11.904
53951W        W26211  42.858  35.413  10.718
53952W        W26212   8.976  27.892   2.177
53953W        W26213  24.928   0.207  11.224
53954W        W26214  20.059  26.485  13.513
53955W        W26215  36.413  19.957  10.110
53956W        W26216  18.255  35.515  12.217
53957W        W26217  33.071  24.472  12.503
53958W        W26218   6.657  11.742   3.169
53959W        W26219   8.978  39.904   4.106
53960W        W26220  31.055  11.840  11.211
53961W        W26221   0.969   6.662   0.033
53962W        W26222  28.490  22.322   0.725
53963W        W26223  12.457  39.486   0.123
53964W        W26224  14.882  13.707  12.599
53965W        W26225   1.712  44.034  14.275
53966W        W26226  37.904  28.939  14.419
53967W        W26227  27.705  31.956  12.540
53968W        W26228   0.229   6.453   4.729
53969W        W26229  22.473  10.366   1.337
53970W        W26230  10.774  14.657  10.774
53971W        W26231  25.478   1.740  12.773
53972W        W26232   6.508  23.723   2.717
53973W        W26233   7.217  25.507  12.063
53974W        W26234   8.700  11.152  14.333
53975W        W26235  15.330   4.808  12.796
53976W        W26236   3.394   0.952  11.074
53977W        W26237  19.126  22.080   3.681
53978W        W26238   4.910   6.129  12.960
53979W        W26239  38.581  31.456   1.354
53980W        W26240   5.807  32.551  12.939
53981W        W26241  34.028  21.193   9.718
53982W        W26242  27.527  38.315  13.858
53983W        W26243  10.796  10.244   0.374
53984W        W26244  10.843   1.288   0.489
53985W        W26245  19.234  15.664  12.097
53986W        W26246  35.618  16.530   3.836
53987W        W26247  34.924  11.360   1.764
53988W        W26248   9.721  13.101   0.286
53989W        W26249   4.488  23.467   1.705
53990W        W26250  17.273   8.406   1.827
53991W        W26251  32.084  14.370  12.370
53992W        W26252  32.981   3.947  13.079
53993W        W26253   6.178   3.757  13.038
53994W        W26254  18.124  43.277   4.168
53995W        W26255  38.616   0.002  14.750
53996W        W26256  14.133  26.680   4.084
53997W        W26257  43.575  30.839  13.518
53998W        W26258  39.544  36.098   0.655
53999W        W26259  26.051   0.798   3.491
54000W        W26260   3.236  32.514  14.262
54001W        W26261  14.504   3.353  10.300
54002W        W26262  29.156   8.862   2.901
54003W        W26263  16.858  44.592  10.687
54004W        W26264  42.859  22.677   2.665
54005W        W26265  33.937   6.029  11.474
54006W        W26266  44.856  30.151  14.941
54007W        W26267   6.703   5.339  12.603
54008W        W26268   0.358  31.683   0.344
54009W        W26269  26.998  19.010   3.428
54010W        W26270  18.484   1.232  13.931
54011W        W26271  34.079  26.488  12.554
54012W        W26272   8.291  12.456  11.126
54013W        W26273  26.057  42.847  12.614
54014W        W26274   8.440   1.847  10.614
54015W        W26275   5.741  28.542  10.764
54016W        W26276  18.776  10.473  14.309
54017W        W26277   9.145   8.702   3.173
54018W        W26278  23.117  21.311  14.854
54019W        W26279   7.922  39.569   2.698
54020W        W26280  16.103   2.343  11.630
54021W        W26281   2.727  36.010  14.811
54022W        W26282  10.119   5.851   0.108
54023W        W26283   7.505  21.222  14.329
54024W        W26284  43.881  35.782  12.537
54025W        W26285  16.092  37.292   1.202
54026W        W26286  13.940  11.688  12.231
54027W        W26287  42.719  19.831  12.055
54028W        W26288  40.975   4.596  12.564
54029W        W26289  12.385  21.468   3.119
54030W        W26290  27.116  25.090  14.553
54031W        W26291  19.296  17.589  14.651
54032W        W26292  11.039  43.805  10.918
54033W        W26293  12.369  26.745   3.336
54034W        W26294  10.762   1.248   2.747
54035W        W26295   3.819  42.800   1.447
54036W        W26296   7.092  30.095   0.242
54037W        W26297  19.064  39.472   0.220
54038W        W26298  17.532   5.465  12.257
54039W        W26299   3.319  15.808   0.810
54040W        W26300  42.777  18.569  11.394
54041W        W26301  12.099   9.391   3.895
54042W        W26302   0.842  13.626   0.950
54043W        W26303  36.565  33.645   0.305
54044W        W26304  18.230  20.273   1.167
54045W        W26305  23.451  15.616  13.473
54046W        W26306   9.242  39.452   2.876
54047W        W26307   1.943  24.202   4.175
54048W        W26308  32.229   7.395  13.936
54049W        W26309   4.428  39.299  12.069
54050W        W26310  11.020  32.125  11.226
54051W        W26311  38.359  22.291   2.364
54052W        W26312  11.279   3.479  12.071
54053W        W26313  19.694   8.221   3.752
54054W        W26314  25.051  28.862   0.484
54055W        W26315  15.238  27.486  11.649
54056W        W26316  27.075  34.497   1.209
54057W        W26317  35.442  21.528   5.242
54058W        W26318  35.936  42.396   2.360
54059W        W26319   2.688  28.650   3.592
54060W        W26320  26.010  35.314  14.930
54061W        W26321  15.914  29.914   0.872
54062W        W26322  28.192  31.382   3.216
54063W        W26323  23.738  40.018  13.857
54064W        W26324  27.096  12.035  14.474
54065W        W26325  30.356  28.605   0.421
54066W        W26326  42.121  15.269   3.626
54067W        W26327  10.684   5.235   1.913
54068W        W26328  19.901   8.403  12.576
54069W        W26329  18.069   6.189   1.336
54070W        W26330  40.795   5.757   1.849
54071W        W26331  10.573   8.634   3.145
54072W        W26332  22.669  30.228  10.472
54073W        W26333  25.269  27.518  11.300
54074W        W26334   4.608  19.797   2.460
54075W        W26335  16.021  11.794   3.626
54076W        W26336  29.451   2.734  11.969
54077W        W26337  28.909  37.880  12.047
54078W        W26338  14.119  43.972  13.055
54079W        W26339   9.740  18.485  12.392
54080W        W26340  43.395  10.722  13.863
54081W        W26341  29.510   9.423   4.140
54082W        W26342  24.000   4.195   1.175
54083W        W26343  15.190  41.526   4.428
54084W        W26344  36.149   1.209  13.007
54085W        W26345  21.045   2.912  14.278
54086W        W26346  11.863  44.890   2.101
54087W        W26347  42.029  19.203   1.801
54088W        W26348  32.584   6.913  13.892
54089W        W26349   7.662  14.769   3.346
54090W        W26350   6.010  42.957  13.962
54091W        W26351  20.216   4.716  12.086
54092W        W26352  14.128  16.554  11.008
54093W        W26353  17.003  16.852  10.628
54094W        W26354   6.650  39.139   2.718
54095W        W26355   6.364  11.327  12.130
54096W        W26356  11.227  17.882   3.473
54097W        W26357   7.123  30.392  11.595
54098W        W26358  36.063  16.401  14.830
54099W        W26359  14.593  11.128   0.739
54100W        W26360   7.275  12.392  14.787
54101W        W26361   1.478  37.783  14.423
54102W        W26362   4.925  20.982   1.370
54103W        W26363  14.780  17.346   4.604
54104W        W26364  37.971  24.792   0.122
54105W        W26365  32.173  27.128  11.313
54106W        W26366   4.517   7.242   3.733
54107W        W26367  35.707   8.928   0.218
54108W        W26368   9.727  18.249   0.360
54109W        W26369  19.035  26.669   4.769
54110W        W26370  29.896   1.948   0.346
54111W        W26371  24.281  26.033  13.204
54112W        W26372  22.424  44.244   9.866
54113W        W26373  35.081  26.128   3.796
54114W        W26374   6.958   4.490   3.319
54115W        W26375  24.186  21.747  10.658
54116W        W26376  14.730   1.534   2.857
54117W        W26377  24.138  30.572   2.153
54118W        W26378  25.689  35.081   0.331
54119W        W26379  27.380  36.939   4.823
54120W        W26380  33.829  21.975  11.547
54121W        W26381  41.049  39.839   3.431
54122W        W26382  38.797  15.203  12.000
54123W        W26383  23.768  11.744  10.426
54124W        W26384  10.248  19.195  13.160
54125W        W26385  26.107  25.208  14.536
54126W        W26386   1.925  39.854  12.395
54127W        W26387  13.557   5.811  12.418
54128W        W26388   6.286  14.689   0.420
54129W        W26389   4.047  41.716  11.210
54130W        W26390  16.672   4.215   2.354
54131W        W26391  44.269  32.086  10.674
54132W        W26392  32.759  30.487   3.532
54133W        W26393  39.680   6.354   1.708
54134W        W26394  18.742  23.950   5.056
54135W        W26395  30.966   7.928  11.674
54136W        W26396   8.902  40.718   3.680
54137W        W26397  33.029  18.515   2.759
54138W        W26398  42.839  41.694   1.471
54139W        W26399  23.974  18.149   4.185
54140W        W26400  32.646  18.306  11.564
54141W        W26401  10.705  40.767  13.932
54142W        W26402  15.654  10.937  11.767
54143W        W26403  44.563  23.590   1.401
54144W        W26404  41.929  11.527   4.209
54145W        W26405   2.597  20.219   2.618
54146W        W26406  13.302   3.815  11.273
54147W        W26407  35.616  10.257   3.055
54148W        W26408   6.697  11.088  13.110
54149W        W26409  27.725  19.435  12.012
54150W        W26410  28.651  42.214  13.753
54151W        W26411  11.589  26.399   1.407
54152W        W26412  27.970  25.110   0.270
54153W        W26413  37.891  31.629   2.948
54154W        W26414  16.016  14.393   1.763
54155W        W26415  24.929  39.513   4.911
54156W        W26416  42.753  17.945  13.364
54157W        W26417  42.699  25.652   2.268
54158W        W26418  37.845   8.906   0.794
54159W        W26419  34.866  30.482  12.635
54160W        W26420  22.594   3.790   1.786
54161W        W26421   9.873   6.140  14.329
54162W        W26422  21.592  26.405  10.173
54163W        W26423  13.708  38.972   4.381
54164W        W26424  43.105   2.758  10.773
54165W        W26425  13.808  34.366   0.514
54166W        W26426   5.357  39.683  10.704
54167W        W26427  22.716   1.939   3.292
54168W        W26428  15.748  40.367  14.536
54169W        W26429  24.712  43.413  11.600
54170W        W26430  30.427  31.069  12.000
54171W        W26431   2.186  14.444  11.554
54172W        W26432  21.452  22.551  11.874
54173W        W26433   5.486  16.154   1.432
54174W        W26434  30.067   4.643  11.290
54175W        W26435  21.097  42.581  14.454
54176W        W26436  40.089  39.115   3.684
54177W        W26437  13.175  16.746  13.396
54178W        W26438  20.226  13.010   4.155
54179W        W26439  29.285  32.457  10.406
54180W        W26440   9.942  42.924   4.246
54181W        W26441  37.432  39.192   4.414
54182W        W26442  24.532  34.842   1.321
54183W        W26443  11.593  28.696  14.807
54184W        W26444  37.393   2.559   5.292
54185W        W26445   0.708  28.102   0.742
54186W        W26446  20.048  39.008   3.258
54187W        W26447  37.119  41.408   1.378
54188W        W26448  15.841   1.402   2.165
54189W        W26449  32.839   4.742  14.687
54190W        W26450  39.524  12.928   4.130
54191W        W26451  23.518  12.622   0.775
54192W        W26452  39.111  25.564  14.068
54193W        W26453  16.722  31.578  13.372
54194W        W26454  31.959  22.949  12.345
54195W        W26455  43.114  42.415   0.870
54196W        W26456  10.427   5.687  11.470
54197W        W26457  41.781   8.752   2.459
54198W        W26458  10.318   9.334  11.924
54199W        W26459   8.903  15.582   4.549
54200W        W26460  37.323  20.194  10.216
54201W        W26461  16.262  32.505  10.985
54202W        W26462   4.745  13.108   2.364
54203W        W26463  35.039   8.179   3.259
54204W        W26464  33.817  39.029  11.062
54205W        W26465  36.051   0.912  14.541
54206W        W26466  12.961  13.829   1.128
54207W        W26467   8.436  27.697   3.164
54208W        W26468   3.953  28.443  14.428
54209W        W26469   6.259  25.024  11.575
54210W        W26470  15.638  19.981  13.455
54211W        W26471  11.482  12.808   1.717
54212W        W26472   8.577  12.376  13.776
54213W        W26473   4.464  27.033   3.197
54214W        W26474  43.445  36.853  11.777
54215W        W26475  32.904  34.989  14.012
54216W        W26476  44.005  38.391   4.342
54217W        W26477  33.671   7.435   3.802
54218W        W26478  19.668  11.362  12.022
54219W        W26479  18.482  13.401  11.152
54220W        W26480  30.626  18.012   4.767
54221W        W26481   1.373  24.411   1.416
54222W        W26482  14.515  41.963   1.355
54223W        W26483  30.448  11.467   4.557
54224W        W26484   2.921  24.929   2.392
54225W        W26485   6.465  29.379  14.912
54226W        W26486   2.355  39.107   4.137
54227W        W26487   4.865  28.904   0.373
54228W        W26488  41.864  40.475  13.587
54229W        W26489  37.809  36.840   2.283
54230W        W26490  35.794  27.057   4.637
54231W        W26491  35.460  35.030   4.293
54232W        W26492  40.878  35.612  14.661
54233W        W26493  38.409  42.543   0.457
54234W        W26494  18.911   6.285   2.971
54235W        W26495   6.325  34.041  14.679
54236W        W26496  24.719   0.500  11.640
54237W        W26497  27.440   6.259  12.465
54238W        W26498  13.103  20.336  13.251
54239W        W26499  11.813  20.941  13.030
54240W        W26500  32.635  11.667   3.390
54241W        W26501  24.762  18.087   1.088
54242W        W26502  43.360   0.967   1.806
54243W        W26503  35.117  30.690   2.569
54244W        W26504  37.880  17.181  13.806
54245W        W26505  35.938  35.977   3.946
54246W        W26506  27.968   0.376   3.261
54247W        W26507  21.674   0.875   2.247
54248W        W26508   0.700   6.345   1.194
54249W        W26509  41.013  30.080   1.597
54250W        W26510   7.131   3.148   4.493
54251W        W26511  13.074   3.307   3.700
54252W        W26512  15.790  31.084  12.331
54253W        W26513  10.813   5.666   1.670
54254W        W26514  15.271   0.783   3.702
54255W        W26515  24.108  17.884   2.721
54256W        W26516   0.745  15.667   1.801
54257W        W26517  23.162  31.138   2.852
54258W        W26518  10.140  30.162  10.757
54259W        W26519  32.476  40.945   1.664
54260W        W26520  14.998  18.681  10.730
54261W        W26521  32.465  29.261  12.573
54262W        W26522   9.768  21.950  12.440
54263W        W26523  21.915  35.024  10.368
54264W        W26524  14.336   6.937   0.015
54265W        W26525  28.477   0.664  14.251
54266W        W26526  44.163  44.988   3.772
54267W        W26527  37.023   2.970  12.509
54268W        W26528  32.549  22.975   2.063
54269W        W26529  13.997  16.064   0.119
54270W        W26530  31.406  29.126  12.452
54271W        W26531  31.820   7.440   3.320
54272W        W26532   8.136  23.128  14.988
54273W        W26533  38.439  44.811   2.450
54274W        W26534  41.054   2.573   1.441
54275W        W26535  39.337  14.318  11.195
54276W        W26536   4.407  16.051   2.425
54277W        W26537  13.220  29.767   1.761
54278W        W26538  10.106   5.233  12.075
54279W        W26539  38.456  19.971   3.966
54280W        W26540   9.698  14.275   1.212
54281W        W26541  20.782   3.336  14.386
54282W        W26542  44.323  14.092   4.088
54283W        W26543  15.742   3.930   2.228
54284W        W26544  35.322  18.678  12.623
54285W        W26545  42.782  28.106  14.276
54286W        W26546  42.322  36.478   1.370
54287W        W26547  14.010  18.731   3.895
54288W        W26548  33.434  17.960   1.493
54289W        W26549  14.651   7.098  12.825
54290W        W26550  18.032  35.541   2.339
54291W        W26551   6.414  19.719   4.552
54292W        W26552   0.664  39.540   0.879
54293W        W26553  25.015  35.917   4.263
54294W        W26554  30.461  42.265  13.366
54295W        W26555   8.279  32.118  12.888
54296W        W26556   7.462  36.467  14.001
54297W        W26557  23.768  11.917   4.356
54298W        W26558  13.353  32.591   1.296
54299W        W26559  19.096  13.566  11.135
54300W        W26560  25.730  27.165  14.591
54301W        W26561  12.156  29.111  13.466
54302W        W26562  20.797  36.020   4.631
54303W        W26563  11.184   4.313   1.922
54304W        W26564  34.008  40.060  11.135
54305W        W26565  31.364  32.664   4.275
54306W        W26566   0.927  39.856   4.612
54307W        W26567  14.954  34.599   1.758
54308W        W26568  31.479  38.014   4.679
54309W        W26569  38.477  35.571   2.324
54310W        W26570   4.447  22.787   1.418
54311W        W26571  21.796  17.583   1.176
54312W        W26572  26.091   5.246   2.331
54313W        W26573  24.829  17.321   0.685
54314W        W26574  32.329  24.271  13.159
54315W        W26575   9.716  16.212   2.154
54316W        W26576  20.549  25.372   1.419
54317W        W26577  14.625   6.645  10.858
54318W        W26578  32.987  35.135  11.530
54319W        W26579  28.124  16.247  12.627
54320W        W26580  37.561  38.903  13.114
54321W        W26581   6.903  29.248   1.410
54322W        W26582   4.637  27.743  10.306
54323W        W26583   4.358  17.631   1.514
54324W        W26584   9.337  13.125   1.661
54325W        W26585  32.563  15.972   3.682
54326W        W26586  29.443  13.208   1.510
54327W        W26587  11.630  36.001   3.555
54328W        W26588  18.582  23.614  10.294
54329W        W26589  42.081  16.538  11.888
54330W        W26590  39.062  41.735   1.200
54331W        W26591  17.445   2.621   0.270
54332W        W26592  21.251  24.581   1.338
54333W        W26593  19.180   7.145  10.608
54334W        W26594   7.818   4.920  11.829
54335W        W26595  10.353   5.498   4.517
54336W        W26596  40.504  16.103   0.150
54337W        W26597  16.708  40.910   4.116
54338W        W26598  27.089  43.260   4.187
54339W        W26599  16.759   3.193  11.383
54340W        W26600  35.876   3.398  14.740
54341W        W26601  36.469  21.251  10.905
54342W        W26602  36.335  31.077   1.611
54343W        W26603  27.075   8.697   2.153
54344W        W26604  32.772  27.530  11.035
54345W        W26605  39.507   5.230   0.014
54346W        W26606  37.674  12.846  12.085
54347W        W26607  31.564  14.008  13.843
54348W        W26608  35.124  18.121   3.206
54349W        W26609   3.645  16.262  13.477
54350W        W26610   1.614  40.346   0.793
54351W        W26611  32.382   7.439  13.050
54352W        W26612  13.394  34.623  11.124
54353W        W26613  18.048  22.773   1.796
54354W        W26614  13.386  44.321   0.867
54355W        W26615  39.871  14.040  13.415
54356W        W26616   1.467  27.926   2.341
54357W        W26617  13.324  38.989   2.284
54358W        W26618  10.401  31.531  13.483
54359W        W26619  16.122   7.722  14.868
54360W        W26620  41.058  41.084   2.845
54361W        W26621   8.291   5.117   3.539
54362W        W26622   0.216   0.226  14.790
54363W        W26623  13.000  21.289  11.574
54364W        W26624  16.129  35.354   2.185
54365W        W26625   8.327  11.056  10.408
54366W        W26626  13.764  27.252  14.540
54367W        W26627   5.847  31.814   4.617
54368W        W26628  36.052   5.496  12.370
54369W        W26629  33.067  10.672  11.489
54370W        W26630   2.436  23.198  11.853
54371W        W26631  11.684  19.178   3.592
54372W        W26632  34.843  43.011   5.347
54373W        W26633  13.394  23.249   1.759
54374W        W26634  41.732  27.601   1.086
54375W        W26635   4.682  29.418   2.200
54376W        W26636  32.776  44.803  10.749
54377W        W26637  31.962  26.010   0.307
54378W        W26638  23.873  31.793   4.423
54379W        W26639  36.887  29.871   1.756
54380W        W26640  39.119   3.381   1.425
54381W        W26641  44.207  41.300   0.909
54382W        W26642  32.363  43.419   3.501
54383W        W26643  40.325   5.173  14.004
54384W        W26644  23.128   8.280  14.269
54385W        W26645   9.319  33.041   2.365
54386W        W26646  25.329  12.781  11.976
54387W        W26647  26.097  39.307  14.491
54388W        W26648  11.750   9.325   4.782
54389W        W26649  43.986  28.080   3.566
54390W        W26650  28.196  40.872   0.410
54391W        W26651  25.007  18.322   4.144
54392W        W26652  17.073  19.876  11.455
54393W        W26653  14.673   6.748  12.213
54394W        W26654  15.721  13.897  12.437
54395W        W26655  22.622  27.523  11.436
54396W        W26656  12.161   1.223  11.125
54397W        W26657  34.406  20.809   3.315
54398W        W26658  32.786  35.012   0.418
54399W        W26659  10.273  22.720  11.457
54400W        W26660   3.375  25.171  11.185
54401W        W26661  12.037  44.285  13.033
54402W        W26662  36.945   8.756   1.151
54403W        W26663  36.937  34.611   2.224
54404W        W26664  42.930  21.899  11.770
54405W        W26665  27.140  43.698   1.109
54406W        W26666  23.416  34.328  12.393
54407W        W26667  37.968  42.828   0.485
54408W        W26668  37.100  28.608   3.151
54409W        W26669  20.504  27.531   2.702
54410W        W26670  42.328  21.777   2.549
54411W        W26671   2.206  11.999  12.177
54412W        W26672   0.757   7.142  14.926
54413W        W26673  17.646   7.170   1.808
54414W        W26674  35.724  33.709   2.292
54415W        W26675   0.797  22.976   2.757
54416W        W26676  26.657  39.552  13.308
54417W        W26677   5.967  25.939  12.875
54418W        W26678   6.654  24.114   0.838
54419W        W26679   0.039  24.141  13.395
54420W        W26680   1.867  41.314  13.533
54421W        W26681   2.568  40.607   3.119
54422W        W26682  44.487  34.848  14.493
54423W        W26683  22.012   7.212  14.347
54424W        W26684  20.102   9.960  12.953
54425W        W26685   3.406  40.038   2.835
54426W        W26686   3.608  23.911   1.581
54427W        W26687  18.546  22.800   0.243
54428W        W26688  13.338  13.745   4.172
54429W        W26689  30.507  36.811  14.383
54430W        W26690  32.993  28.363   1.899
54431W        W26691   8.584  12.608  11.588
54432W        W26692  28.635  19.447   2.600
54433W        W26693  19.496  25.147   2.830
54434W        W26694  36.843  31.980   0.779
54435W        W26695  17.123   3.261   3.635
54436W        W26696  25.756  27.947  12.103
54437W        W26697  44.230  28.443  11.909
54438W        W26698  19.646  11.454  12.830
54439W        W26699  42.969  34.962  11.956
54440W        W26700  21.889  22.211  10.646
54441W        W26701  17.297   6.248  14.411
54442W        W26702  25.049  43.907  10.735
54443W        W26703   7.785  44.568   1.296
54444W        W26704  40.936  17.218   2.998
54445W        W26705  15.500  33.607   3.318
54446W        W26706  33.677  44.453   3.827
54447W        W26707  40.703  18.448   3.755
54448W        W26708  23.155  18.322  14.500
54449W        W26709  33.292  44.498  13.717
54450W        W26710   5.831  44.279  14.900
54451W        W26711  31.998  21.156   4.667
54452W        W26712  39.229  39.007  10.158
54453W        W26713  20.118  31.526   4.947
54454W        W26714  35.116  36.192   0.803
54455W        W26715  28.806   0.383  14.528
54456W        W26716  12.339   5.206  14.482
54457W        W26717   2.482   6.404   3.522
54458W        W26718  33.509  16.182  12.837
54459W        W26719  20.511   2.557  10.595
54460W        W26720  28.018  21.205   4.548
54461W        W26721  28.550  10.767   3.611
54462W        W26722  15.838  12.811  13.121
54463W        W26723  27.012  15.207   1.842
54464W        W26724  20.740  36.394   4.239
54465W        W26725  17.643  28.008   1.793
54466W        W26726  12.648  16.818  11.056
54467W        W26727  15.550  35.924  14.290
54468W        W26728  20.194   9.328  10.640
54469W        W26729  30.329  32.893  11.488
54470W        W26730  21.646   0.988  10.677
54471W        W26731  16.368   4.463  13.392
54472W        W26732   3.078  43.310   3.886
54473W        W26733   5.153  20.213   3.258
54474W        W26734   1.737  12.260  12.958
54475W        W26735  16.230  32.276  14.433
54476W        W26736   5.954  14.112  11.157
54477W        W26737  27.202  35.798  11.429
54478W        W26738  15.164  31.296   4.032
54479W        W26739  35.764  20.731   3.071
54480W        W26740  21.000  10.237  14.936
54481W        W26741  12.121  36.438  14.799
54482W        W26742  15.285  42.494  11.077
54483W        W26743  14.301  22.707  12.146
54484W        W26744  42.032  13.758  14.354
54485W        W26745  18.119  38.101   3.192
54486W        W26746  22.705   9.228  11.226
54487W        W26747  20.498   8.813   1.075
54488W        W26748  34.895   6.753   1.664
54489W        W26749  43.301  19.702   3.682
54490W        W26750  42.303  23.117  14.623
54491W        W26751  14.062  18.296   2.640
54492W        W26752  10.222  25.422  12.027
54493W        W26753   8.861  34.617   0.946
54494W        W26754  23.540  13.769   4.959
54495W        W26755   2.285  17.812   2.252
54496W        W26756   7.730   2.506   0.443
54497W        W26757  20.410  37.746  12.412
54498W        W26758   5.224  26.203   2.611
54499W        W26759  10.888  33.963   0.335
54500W        W26760  37.494  41.636   4.933
54501W        W26761  10.831  14.801   0.028
54502W        W26762   4.149  16.284   0.419
54503W        W26763  16.976   8.560   2.815
54504W        W26764  32.597  14.778   4.378
54505W        W26765   7.618  13.616  10.636
54506W        W26766  22.051  34.868   0.394
54507W        W26767  32.074  24.970   0.251
54508W        W26768  33.037  10.277   3.977
54509W        W26769  12.842  35.335   3.086
54510W        W26770  12.150  22.785   0.727
54511W        W26771  14.639  37.900   2.320
54512W        W26772  16.156  43.766  12.483
54513W        W26773   8.917  15.484  11.049
54514W        W26774  38.025   9.287   2.821
54515W        W26775  41.611   8.365   1.021
54516W        W26776  10.590  14.783  12.469
54517W        W26777  17.055  30.955  12.042
54518W        W26778  21.567   5.858  13.530
54519W        W26779  12.073  40.413   3.295
54520W        W26780  40.074  18.419  13.997
54521W        W26781  39.225  19.681   2.190
54522W        W26782  22.575  12.865   4.561
54523W        W26783  15.117  26.007   0.313
54524W        W26784  42.541   8.790  12.392
54525W        W26785   5.611   6.669  13.053
54526W        W26786  44.978   3.306  14.959
54527W        W26787  43.862   4.670  14.766
54528W        W26788   8.856  11.369  13.437
54529W        W26789  43.689  28.420  11.840
54530W        W26790  39.105  26.432   4.362
54531W        W26791  22.764  12.168  11.624
54532W        W26792  15.674  36.863  10.605
54533W        W26793  36.089  19.032  12.272
54534W        W26794   7.906  11.072   2.325
54535W        W26795  22.461  19.558  13.064
54536W        W26796  11.264   1.407  10.734
54537W        W26797  43.491  41.421  14.190
54538W        W26798   6.147  30.857   2.875
54539W        W26799   7.680  25.944  12.478
54540W        W26800  32.466  32.485   4.555
54541W        W26801  29.015  43.140  12.019
54542W        W26802  11.754  38.998   5.056
54543W        W26803  23.721  21.209   4.111
54544W        W26804   3.808   2.000   0.475
54545W        W26805  11.754   3.226  14.823
54546W        W26806  41.121  11.740  13.929
54547W        W26807  44.120  33.036  13.962
54548W        W26808  34.986  12.421   4.499
54549W        W26809  32.349  35.648   3.615
54550W        W26810  11.558  15.864  12.509
54551W        W26811   6.635   7.709   1.834
54552W        W26812  44.956  28.554  11.708
54553W        W26813  16.395  13.385   4.661
54554W        W26814   1.783   0.018  13.191
54555W        W26815  13.546  27.605   4.722
54556W        W26816  36.321  19.310   4.113
54557W        W26817   3.756  33.107   0.214
54558W        W26818  36.475   5.868   4.642
54559W        W26819  23.210  16.358   2.857
54560W        W26820  44.951  20.753  11.516
54561W        W26821  14.861  41.583   1.365
54562W        W26822  16.097  36.211   4.110
54563W        W26823   2.301   0.408   0.868
54564W        W26824   7.439  17.251  13.274
54565W        W26825  38.358  32.071  12.537
54566W        W26826  37.338  40.611   1.133
54567W        W26827  19.517  34.185  10.815
54568W        W26828  42.956  40.960   0.863
54569W        W26829  31.311  13.646   3.345
54570W        W26830  40.880  37.965  14.442
54571W        W26831  13.796  28.159   1.419
54572W        W26832  22.856  17.100   1.659
54573W        W26833  31.190  25.932  14.374
54574W        W26834  42.877  21.223   3.288
54575W        W26835  24.915  10.107   3.622
54576W        W26836   6.087   2.919  13.566
54577W        W26837  15.556   3.658   1.239
54578W        W26838   8.825   0.208  10.938
54579W        W26839   4.890  10.336   1.375
54580W        W26840  36.874  19.917  14.870
54581W        W26841  39.870  32.186  10.749
54582W        W26842  17.277  23.807   3.338
54583W        W26843  27.161   2.750  14.574
54584W        W26844  14.666  25.403  12.408
54585W        W26845   5.948  13.113   0.307
54586W        W26846  18.718  35.194   3.262
54587W        W26847  39.793   7.201   4.293
54588W        W26848  31.430  34.411  13.400
54589W        W26849  22.675  42.066   4.266
54590W        W26850   6.113  41.131   2.649
54591W        W26851  44.583  31.112   2.363
54592W        W26852  22.082   7.894  12.516
54593W        W26853  18.167  44.305  14.591
54594W        W26854  34.427  25.542  14.903
54595W        W26855   9.766   2.976  14.406
54596W        W26856  39.341  14.679   0.464
54597W        W26857  31.619  43.925   3.202
54598W        W26858  13.331  37.144  14.639
54599W        W26859   8.349  33.930   3.345
54600W        W26860  36.559  27.575  12.358
54601W        W26861  28.290  21.139   4.125
54602W        W26862  41.752  22.485  10.246
54603W        W26863  15.501   3.767   2.675
54604W        W26864   8.951  22.025  11.960
54605W        W26865  35.552  31.854   1.320
54606W        W26866  18.258  40.538  11.525
54607W        W26867  17.454   5.011  11.161
54608W        W26868  19.334  42.547  13.053
54609W        W26869  15.070   7.217   0.416
54610W        W26870  27.901  28.517   3.710
54611W        W26871  12.212  14.270   2.579
54612W        W26872  18.086  13.245  14.783
54613W        W26873  29.236  16.183  11.165
54614W        W26874   4.712  37.335  12.406
54615W        W26875  40.735  41.730   3.576
54616W        W26876   5.013  21.578  14.727
54617W        W26877  30.108  28.911   3.730
54618W        W26878   6.181  14.778  14.897
54619W        W26879  20.217  15.709   2.280
54620W        W26880   2.386   2.881   3.070
54621W        W26881  19.781  40.609   3.934
54622W        W26882  24.384  22.210   1.352
54623W        W26883  20.157   6.879   4.092
54624W        W26884  31.003  18.229  10.712
54625W        W26885  19.178  27.186   0.778
54626W        W26886  13.234  18.111   2.145
54627W        W26887  28.035  32.425  14.869
54628W        W26888  14.741  34.996   2.926
54629W        W26889  12.288  36.410   1.955
54630W        W26890  35.914  44.320   4.599
54631W        W26891  21.541  31.496   0.707
54632W        W26892   4.607  26.789   1.841
54633W        W26893  25.590  29.208   2.667
54634W        W26894  10.127  26.967   0.450
54635W        W26895  20.116  18.749   5.391
54636W        W26896  27.461  26.451   0.374
54637W        W26897   2.694   4.847   4.173
54638W        W26898  24.657  18.394   4.892
54639W        W26899  14.386  43.257  11.147
54640W        W26900   9.739  40.428   3.197
54641W        W26901  17.718  15.789  10.771
54642W        W26902  38.261  10.220   4.238
54643W        W26903  29.718  37.936   0.780
54644W        W26904  14.259   0.944  12.520
54645W        W26905   5.528  24.077  12.441
54646W        W26906  22.990  37.847  13.987
54647W        W26907   6.891   6.203  14.502
54648W        W26908  31.560   9.208   3.773
54649W        W26909   5.099  13.719  12.735
54650W        W26910  28.433  23.640   3.466
54651W        W26911  13.835  21.991   1.715
54652W        W26912  11.113  12.172  11.129
54653W        W26913  13.866  34.849  10.980
54654W        W26914  33.079  42.029   0.185
54655W        W26915   6.850  34.480  11.926
54656W        W26916  14.662  18.869   1.852
54657W        W26917  36.429   5.837  12.104
54658W        W26918  11.835  20.212   2.396
54659W        W26919  29.275  21.132   2.802
54660W        W26920   5.735  41.029   3.005
54661W        W26921  12.689  14.271   2.359
54662W        W26922  34.933  26.503  12.450
54663W        W26923  26.126  29.156  12.940
54664W        W26924  40.936  31.663   1.169
54665W        W26925  18.576  10.223   0.337
54666W        W26926   7.709  36.631   0.080
54667W        W26927  38.914   2.828   2.910
54668W        W26928   0.793  22.601   4.982
54669W        W26929  35.338  36.441   4.028
54670W        W26930  35.472  31.387   1.514
54671W        W26931  24.528  43.560   4.563
54672W        W26932  37.067  17.019   4.179
54673W        W26933  23.210  31.960   1.508
54674W        W26934  38.271  42.293   1.706
54675W        W26935  44.499  33.995   3.389
54676W        W26936  41.426   0.667   3.574
54677W        W26937  44.942  44.785  13.901
54678W        W26938  13.846  20.751  11.612
54679W        W26939   6.929  11.963  14.643
54680W        W26940  24.048  37.613   4.920
54681W        W26941  28.662  19.558  10.668
54682W        W26942   8.459  40.433   1.876
54683W        W26943  34.020  19.286  12.227
54684W        W26944  19.137   2.122   0.855
54685W        W26945   9.956   0.207   1.359
54686W        W26946  20.683  27.898  10.281
54687W        W26947  39.636  31.996  11.469
54688W        W26948   7.676  35.585   3.323
54689W        W26949  17.333  29.971   4.569
54690W        W26950   2.431  34.965  14.252
54691W        W26951  17.560  37.416   1.199
54692W        W26952   8.954  27.657   4.392
54693W        W26953  24.155  40.995  12.745
54694W        W26954  15.038  11.404  11.654
54695W        W26955  28.654  43.835   3.749
54696W        W26956   2.832  26.755   3.750
54697W        W26957   6.895   8.701  13.504
54698W        W26958   5.457  36.990   0.581
54699W        W26959   9.929  12.826  12.061
54700W        W26960  26.150   4.126  14.082
54701W        W26961  33.195  35.534   1.656
54702W        W26962  18.714  15.110  13.128
54703W        W26963  20.866  22.024   3.478
54704W        W26964   5.334  35.621  13.932
54705W        W26965  34.152   2.855  11.562
54706W        W26966  17.862   4.269   1.728
54707W        W26967  33.460  25.262  13.826
54708W        W26968   5.694   6.282   4.009
54709W        W26969  18.092   4.646  11.422
54710W        W26970  11.305  17.461   1.944
54711W        W26971  21.996  21.241   0.203
54712W        W26972  11.243  28.164   1.406
54713W        W26973  18.539  33.825  14.801
54714W        W26974  40.734  30.259   3.968
54715W        W26975  11.764  17.712   2.088
54716W        W26976  18.008  12.092   3.402
54717W        W26977   8.212   4.970  11.088
54718W        W26978  27.164  28.544   0.329
54719W        W26979  37.032  28.243  14.829
54720W        W26980  41.438  27.372   0.343
54721W        W26981  33.086  10.749   4.164
54722W        W26982   1.922  25.241  12.199
54723W        W26983  21.135   5.951  13.270
54724W        W26984  36.973   9.944   3.699
54725W        W26985  12.949  19.555  14.076
54726W        W26986   9.670  15.742  12.098
54727W        W26987   5.739  39.321  10.765
54728W        W26988   6.983  18.783  13.856
54729W        W26989  10.111   7.168   0.403
54730W        W26990  22.223   2.347  12.659
54731W        W26991  13.553   7.890   0.991
54732W        W26992  25.184  29.896   0.170
54733W        W26993   5.462  37.032   4.744
54734W        W26994  38.107  39.757   3.062
54735W        W26995  36.895   5.352  13.564
54736W        W26996  44.411  43.071   1.229
54737W        W26997  17.719  35.581   0.316
54738W        W26998   3.386  21.471   0.503
54739W        W26999  21.068  39.061   1.244
54740W        W27000  35.404  27.364   3.643
54741W        W27001  42.001  18.121  10.613
54742W        W27002  28.467  20.065  13.419
54743W        W27003  18.889  41.476   3.553
54744W        W27004  19.735  13.372   4.043
54745W        W27005  33.538  38.031   2.673
54746W        W27006  24.264  11.892  14.284
54747W        W27007  17.652   7.663   5.601
54748W        W27008  19.996  22.662   4.492
54749W        W27009  42.850  16.756   0.300
54750W        W27010  15.664  35.114   4.851
54751W        W27011   2.950  24.595   0.907
54752W        W27012   2.903  33.642   3.832
54753W        W27013  18.239  42.813   3.567
54754W        W27014   6.912   7.965   3.129
54755W        W27015   5.887   1.814  12.850
54756W        W27016  24.726  41.729   4.128
54757W        W27017   4.348  35.645  14.882
54758W        W27018  31.495  37.304  12.102
54759W        W27019  43.267  43.990   4.526
54760W        W27020  12.489   6.412   0.016
54761W        W27021  29.207  39.330   0.304
54762W        W27022   8.243  16.077  11.635
54763W        W27023  28.810  24.124   4.492
54764W        W27024   0.880  13.244   4.633
54765W        W27025  18.262  14.139  11.104
54766W        W27026  29.394  30.559   2.617
54767W        W27027   7.969  36.822  11.255
54768W        W27028   0.255   4.292   3.708
54769W        W27029  11.405   3.287   4.760
54770W        W27030   1.320   5.727   4.498
54771W        W27031  36.635  36.055  10.607
54772W        W27032  18.508  40.814   3.910
54773W        W27033  10.346  30.479   3.870
54774W        W27034  20.981   0.748   2.702
54775W        W27035  12.719  26.067   1.275
54776W        W27036  40.568   5.942   0.492
54777W        W27037  14.471  33.561  13.046
54778W        W27038  37.838  24.666   1.233
54779W        W27039   7.294   8.545   3.637
54780W        W27040   0.351  24.986   1.352
54781W        W27041  34.496  42.099   1.644
54782W        W27042  40.062  16.572  13.507
54783W        W27043   0.550   9.229   4.168
54784W        W27044  34.449  35.287   4.693
54785W        W27045   6.501  31.682  13.365
54786W        W27046   3.287  24.391  14.183
54787W        W27047   2.021  12.374   0.448
54788W        W27048  16.656  28.839   4.109
54789W        W27049  16.249  23.679   1.335
54790W        W27050  12.673  25.766   2.267
54791W        W27051  38.383  16.661   3.096
54792W        W27052   1.525  30.388   2.141
54793W        W27053  44.476  36.838  14.981
54794W        W27054   2.429  16.268  12.807
54795W        W27055   9.386  42.072  12.049
54796W        W27056  32.835  11.927  14.074
54797W        W27057  25.936  18.955   4.009
54798W        W27058  11.855  40.054  11.562
54799W        W27059  38.580  13.236  14.315
54800W        W27060  38.931  24.278  13.918
54801W        W27061  33.557   6.808   1.543
54802W        W27062  24.626  24.204   4.324
54803W        W27063   7.357   0.745   3.208
54804W        W27064  40.393   7.397   3.538
54805W        W27065  20.697  37.356  12.139
54806W        W27066  17.914  37.074   3.302
54807W        W27067   1.569  36.433  11.487
54808W        W27068  25.435   4.260  13.611
54809W        W27069   5.175   0.491  11.020
54810W        W27070  41.636  12.324   3.782
54811W        W27071  24.136  21.270  13.732
54812W        W27072  22.253  11.400   4.642
54813W        W27073   2.833  11.364   2.181
54814W        W27074   3.734  14.655   3.374
54815W        W27075  32.489  13.802  11.910
54816W        W27076  16.760  23.246   1.417
54817W        W27077  25.841  39.296  13.068
54818W        W27078   4.613  21.223   0.029
54819W        W27079   3.464  29.893   1.042
54820W        W27080  31.589  15.257  11.951
54821W        W27081  28.198  28.958   0.376
54822W        W27082  22.485   8.846  10.929
54823W        W27083  11.553  17.716   3.135
54824W        W27084  27.380  12.253   3.849
54825W        W27085  36.528   2.275   4.816
54826W        W27086  11.233  19.316   1.877
54827W        W27087  16.762  39.340  14.014
54828W        W27088   9.454  25.604  13.431
54829W        W27089  30.857  39.903   0.750
54830W        W27090  23.533  22.573   3.092
54831W        W27091  15.245   6.941  11.085
54832W        W27092  27.994  24.434   3.917
54833W        W27093   4.267  36.105   3.893
54834W        W27094  12.888  35.558  11.134
54835W        W27095  30.667  32.906   0.102
54836W        W27096  17.117  10.243   1.704
54837W        W27097  20.527  42.013   3.710
54838W        W27098  34.431  41.368  14.902
54839W        W27099  42.012  25.566  12.634
54840W        W27100  42.705  30.324   2.326
54841W        W27101  40.812  36.784   0.766
54842W        W27102  13.809  27.139   2.408
54843W        W27103  29.733  37.767   1.785
54844W        W27104  15.154  35.980   0.077
54845W        W27105  31.927  30.118  14.833
54846W        W27106  14.588  31.220   4.751
54847W        W27107  41.768   7.668   1.579
54848W        W27108  18.564  23.616  11.198
54849W        W27109  29.678   3.706  14.432
54850W        W27110  42.433  39.326   1.256
54851W        W27111  11.848   8.004  12.211
54852W        W27112  21.162  38.394  11.591
54853W        W27113  36.339  41.306  13.465
54854W        W27114   2.526  21.575  13.899
54855W        W27115  39.936   7.737  12.796
54856W        W27116   5.468   7.421   4.666
54857W        W27117  34.644  26.748  13.971
54858W        W27118   1.907  31.704   3.247
54859W        W27119  37.790   1.026  12.592
54860W        W27120   6.119  22.387  10.247
54861W        W27121  32.127   9.648   3.339
54862W        W27122  38.003  10.246  10.971
54863W        W27123  12.657  36.104  14.457
54864W        W27124  35.980  43.792  12.548
54865W        W27125   3.710  27.941   2.809
54866W        W27126  31.205   0.402   3.248
54867W        W27127  21.527   0.286  13.883
54868W        W27128   5.196  15.285  11.716
54869W        W27129   5.756  36.056  11.477
54870W        W27130   2.895  19.858   4.769
54871W        W27131  42.435  38.386   1.743
54872W        W27132  34.010  36.350  13.069
54873W        W27133   6.380  26.471   2.389
54874W        W27134  31.544  11.282  14.165
54875W        W27135   2.904  18.175  12.355
54876W        W27136  42.451   9.361  12.875
54877W        W27137   8.818  21.050   0.706
54878W        W27138  18.701   7.406   0.022
54879W        W27139  36.856  39.250  14.804
54880W        W27140   6.954  18.997   3.776
54881W        W27141   3.266  35.391  11.935
54882W        W27142  38.822   0.148  13.458
54883W        W27143   2.700  37.139  11.142
54884W        W27144  40.453  34.617   3.983
54885W        W27145  30.251  11.803  12.953
54886W        W27146   1.696  12.271   0.928
54887W        W27147   9.618  41.934   2.450
54888W        W27148   2.411  34.885   4.184
54889W        W27149   3.759  36.168   1.243
54890W        W27150  29.577  39.000   1.317
54891W        W27151  35.926  18.819   0.856
54892W        W27152   3.246  36.173  11.647
54893W        W27153   0.533  19.607   1.740
54894W        W27154  33.828  28.286  13.074
54895W        W27155   2.013  17.532  13.848
54896W        W27156  42.887  37.601   4.211
54897W        W27157  14.148  40.072  11.035
54898W        W27158  37.581  21.734   4.164
54899W        W27159  14.279  41.728   2.343
54900W        W27160  33.026  42.955  12.792
54901W        W27161  28.929  11.673   3.585
54902W        W27162  27.512   5.409  13.070
54903W        W27163  39.908  41.424  14.282
54904W        W27164   7.266  29.622  11.674
54905W        W27165  33.639   8.261   9.800
54906W        W27166  39.770   9.813  12.543
54907W        W27167  35.357  18.527  14.070
54908W        W27168  22.412  39.406   0.250
54909W        W27169  32.964   5.678  12.813
54910W        W27170  42.439  44.982   1.452
54911W        W27171  44.989   0.752  13.993
54912W        W27172  37.886  11.708  14.290
54913W        W27173  26.124  15.692   0.247
54914W        W27174  13.660  10.684   2.458
54915W        W27175  30.338  33.126   1.895
54916W        W27176   8.748  19.676  14.378
54917W        W27177  24.465  26.533  10.593
54918W        W27178  22.383  30.542   2.228
54919W        W27179  39.853  11.382  12.043
54920W        W27180  34.581  33.011  12.927
54921W        W27181  44.245  43.267  11.593
54922W        W27182  31.476  33.290  14.706
54923W        W27183  20.333  30.400   3.141
54924W        W27184  33.914   5.927   1.735
54925W        W27185  11.374  37.466  12.118
54926W        W27186  43.539   2.990   3.298
54927W        W27187  23.325  10.855   4.262
54928W        W27188  36.145  26.717   0.456
54929W        W27189   9.126  29.760  14.728
54930W        W27190  44.328  40.503  12.314
54931W        W27191  37.129  41.917   1.265
54932W        W27192   7.631  31.472  12.454
54933W        W27193   2.299   8.726   1.230
54934W        W27194  24.549  21.216   1.700
54935W        W27195  41.375   5.270   3.555
54936W        W27196  31.416   6.004  11.569
54937W        W27197  10.091   7.554   4.927
54938W        W27198  24.279  11.578  13.387
54939W        W27199  41.314   4.811  10.662
54940W        W27200  15.418  17.310  13.939
54941W        W27201  25.497  21.680   3.181
54942W        W27202   3.060  33.826  14.307
54943W        W27203  39.927  18.365   4.623
54944W        W27204  36.497   2.159  11.598
54945W        W27205  31.227  25.590   1.308
54946W        W27206   5.060  43.515   2.290
54947W        W27207  14.716  15.328   1.780
54948W        W27208  28.355   1.235  12.848
54949W        W27209  34.859  29.537  12.502
54950W        W27210  40.597  34.700  10.703
54951W        W27211  37.868  35.614   3.740
54952W        W27212  12.291  35.810  14.163
54953W        W27213  31.972  16.263  11.983
54954W        W27214   0.245  27.084  11.971
54955W        W27215  41.480  13.377  10.676
54956W        W27216  25.492  11.948   2.707
54957W        W27217  35.290  43.943  11.356
54958W        W27218  37.125  37.954   3.746
54959W        W27219   5.930  15.683   0.361
54960W        W27220  13.814   0.712  11.708
54961W        W27221   3.976   9.181   3.602
54962W        W27222  27.837   5.776  12.944
54963W        W27223   8.283  34.111  11.725
54964W        W27224  36.901  40.261   0.287
54965W        W27225  40.847  28.988   1.775
54966W        W27226  40.766   2.633  12.823
54967W        W27227  35.920  36.470  12.661
54968W        W27228  31.615  14.197   2.973
54969W        W27229  16.361  32.365   4.744
54970W        W27230  38.282  29.740   1.752
54971W        W27231  31.299  13.400  12.484
54972W        W27232  30.519  28.687   2.705
54973W        W27233  23.172  41.042   0.863
54974W        W27234   5.953  35.875   2.833
54975W        W27235  22.111  36.268   3.234
54976W        W27236  15.439  16.768  12.311
54977W        W27237  42.304  17.231  13.969
54978W        W27238  44.576  37.004  14.355
54979W        W27239  21.043   1.988  13.316
54980W        W27240  15.457   9.727  13.470
54981W        W27241  29.467  39.207  12.200
54982W        W27242  32.545   7.176   2.291
54983W        W27243  43.307  11.557  14.301
54984W        W27244  30.936  44.585   0.160
54985W        W27245   3.945   0.263  11.978
54986W        W27246  41.487  32.474  11.572
54987W        W27247  15.584  25.634  12.540
54988W        W27248  30.532  35.493  13.083
54989W        W27249  16.173  14.129   4.201
54990W        W27250   4.829  26.957   3.758
54991W        W27251   8.110   1.130   3.609
54992W        W27252  32.792  14.196  12.998
54993W        W27253   6.698  10.194  11.061
54994W        W27254  15.763  19.764   2.239
54995W        W27255  37.477   9.126   2.596
54996W        W27256  19.373  35.669   4.954
54997W        W27257  37.474  21.167   3.228
54998W        W27258  11.602   8.719   0.482
54999W        W27259  22.853  24.107   4.713
55000W        W27260  33.146  42.529  12.522
55001W        W27261  17.295  38.634   0.301
55002W        W27262  33.578  12.313  13.954
55003W        W27263  23.510  22.053   4.641
55004W        W27264  31.433  25.981   0.853
55005W        W27265   2.782   8.624  13.921
55006W        W27266  33.453  36.626   0.435
55007W        W27267   3.480  17.662   0.672
55008W        W27268   6.138  11.277   0.239
55009W        W27269  21.835  43.366  12.232
55010W        W27270  27.044   1.821  11.879
55011W        W27271  44.370  41.760  13.287
55012W        W27272  19.241  25.992  13.001
55013W        W27273  25.575  43.869   4.202
55014W        W27274  16.811  18.201   4.552
55015W        W27275  13.334  42.957  14.080
55016W        W27276  19.236  22.177   1.673
55017W        W27277  11.679  41.977   2.394
55018W        W27278  26.725  41.133  12.020
55019W        W27279  36.810   2.318  13.563
55020W        W27280   3.887  37.387  12.091
55021W        W27281  22.978  26.629   2.462
55022W        W27282   9.884  42.523   0.264
55023W        W27283   9.880  36.422   0.412
55024W        W27284  42.926   9.819  14.807
55025W        W27285  18.816  39.500   4.081
55026W        W27286  11.668   7.188  10.266
55027W        W27287  43.563   6.323  10.012
55028W        W27288  11.965  19.222   4.023
55029W        W27289  33.857  14.627  10.357
55030W        W27290   8.710   5.490  14.628
55031W        W27291  41.888  42.627  11.840
55032W        W27292  15.151  17.781  11.002
55033W        W27293  33.044  24.669   0.862
55034W        W27294  42.949  23.318   1.806
55035W        W27295  34.436  21.733  12.455
55036W        W27296  30.561  38.343  14.313
55037W        W27297  27.664   5.392   3.287
55038W        W27298  26.660  40.466   1.852
55039W        W27299  25.669  29.846   3.232
55040W        W27300  19.345  42.747  12.574
55041W        W27301   9.053  34.391   0.296
55042W        W27302   5.853  41.006   4.014
55043W        W27303  27.741  26.562   2.299
55044W        W27304  14.200  44.563   2.849
55045W        W27305  11.262  39.237   4.569
55046W        W27306   1.909  36.784  13.863
55047W        W27307  43.229   4.933   4.164
55048W        W27308  13.690  11.368   4.201
55049W        W27309  31.841   8.625  11.506
55050W        W27310  38.906   5.760  12.574
55051W        W27311   1.943  33.955   1.680
55052W        W27312  37.163   5.705  10.124
55053W        W27313  18.593   1.026  13.448
55054W        W27314  30.160  18.326  14.068
55055W        W27315  27.312  23.919   1.921
55056W        W27316  36.395  40.040   3.281
55057W        W27317  18.474   7.821  12.871
55058W        W27318  30.416  39.101  14.815
55059W        W27319  16.380  33.203   3.186
55060W        W27320  36.624  44.951   1.974
55061W        W27321   0.927  32.513  12.512
55062W        W27322  35.045   7.037   0.311
55063W        W27323  19.670  39.330   1.464
55064W        W27324  23.521  25.730   2.311
55065W        W27325  17.102  18.506   2.287
55066W        W27326  33.017  34.418  12.974
55067W        W27327  32.899   4.746  14.168
55068W        W27328  41.491   3.760   2.790
55069W        W27329   2.436   6.130   3.064
55070W        W27330  16.725  21.019  14.353
55071W        W27331  38.511   8.388   4.132
55072W        W27332  40.534   4.733   3.694
55073W        W27333  43.254  40.093  14.550
55074W        W27334  43.495  15.306  12.859
55075W        W27335  37.587   8.178   5.144
55076W        W27336  14.305  24.575  12.040
55077W        W27337  41.077  10.187  12.591
55078W        W27338  43.421  14.818  11.979
55079W        W27339  14.274  27.116  12.882
55080W        W27340  18.464  10.857   3.710
55081W        W27341  20.426  26.041  11.534
55082W        W27342  22.993  22.787   4.687
55083W        W27343  41.517  17.363   0.328
55084W        W27344   7.686  37.873   1.265
55085W        W27345  41.235  10.428   4.142
55086W        W27346  22.703  21.975  10.648
55087W        W27347   6.019  42.003   2.713
55088W        W27348  20.934  40.633   0.391
55089W        W27349  34.294  17.061  11.209
55090W        W27350  22.734  23.182   2.088
55091W        W27351  28.933   0.581  13.985
55092W        W27352   5.739  22.245   3.366
55093W        W27353  40.709   9.142   1.744
55094W        W27354  39.297  22.957  13.907
55095W        W27355  35.460  37.242  12.964
55096W        W27356  21.812   1.413  10.961
55097W        W27357  34.335   4.959   3.133
55098W        W27358   1.291   4.932   3.398
55099W        W27359  14.172  34.560  11.484
55100W        W27360   0.933  14.458   3.896
55101W        W27361  44.542  44.853   2.296
55102W        W27362   6.317  27.942  14.199
55103W        W27363  19.028  29.211  10.785
55104W        W27364  35.873  17.166   2.750
55105W        W27365  30.585  33.830   2.337
55106W        W27366  31.556  26.498   0.727
55107W        W27367  21.545  37.278   1.538
55108W        W27368  44.928  32.941  14.839
55109W        W27369  32.907  38.424   0.931
55110W        W27370  28.408  26.552  14.382
55111W        W27371  13.753  44.767   3.759
55112W        W27372   8.480  35.168  13.237
55113W        W27373  12.784  23.144   0.502
55114W        W27374  29.445  23.704   3.638
55115W        W27375  20.950  31.332  13.728
55116W        W27376  43.384   2.770   2.615
55117W        W27377  37.397   5.963  10.571
55118W        W27378   4.149  11.114  12.514
55119W        W27379  34.568   8.597   4.097
55120W        W27380  32.757  19.737  13.249
55121W        W27381   7.874   4.255  14.540
55122W        W27382  22.892  23.642  10.729
55123W        W27383  28.041  18.751  10.558
55124W        W27384   1.706  38.395  13.433
55125W        W27385   8.705  43.346  13.475
55126W        W27386  42.482  10.974  10.955
55127W        W27387  28.039  13.051  10.497
55128W        W27388  37.006  22.242  14.849
55129W        W27389  41.824   4.293   1.096
55130W        W27390  30.371  15.749   2.402
55131W        W27391   4.244  12.075   3.757
55132W        W27392  41.844  11.650   3.201
55133W        W27393  28.211   3.037   3.163
55134W        W27394  10.750   2.667  13.806
55135W        W27395  21.715  34.582  13.771
55136W        W27396  20.058  24.802   0.302
55137W        W27397  31.922   3.240   4.551
55138W        W27398  30.132  25.680   4.210
55139W        W27399  12.319  11.669  11.459
55140W        W27400  12.192  28.911  13.973
55141W        W27401  37.430  25.268   3.190
55142W        W27402  39.242  13.173   1.371
55143W        W27403  12.710   7.723   2.638
55144W        W27404  16.090  34.982   1.804
55145W        W27405   4.768  22.929   0.972
55146W        W27406   7.776   0.236   2.330
55147W        W27407  18.716  32.589   1.702
55148W        W27408  28.134   8.917  13.269
55149W        W27409  33.251  29.777  12.586
55150W        W27410  15.177  12.437   1.443
55151W        W27411  37.476   7.285  11.028
55152W        W27412  31.499  34.417  10.743
55153W        W27413   6.262  42.251   3.271
55154W        W27414  10.821  11.816   3.209
55155W        W27415  17.675  35.438  13.442
55156W        W27416   9.540  34.408   4.189
55157W        W27417  11.357  31.899  12.541
55158W        W27418   6.426  32.133  13.572
55159W        W27419  21.339  23.715   1.686
55160W        W27420  24.942  20.161   0.359
55161W        W27421  11.793   8.996  12.507
55162W        W27422   5.939  12.721  12.973
55163W        W27423  42.300  34.126  12.912
55164W        W27424  23.997  25.957   4.262
55165W        W27425   5.486  30.916  14.486
55166W        W27426  13.855  40.332   4.160
55167W        W27427  30.225  27.122  11.167
55168W        W27428  27.199  31.792   3.150
55169W        W27429  38.526   0.268  13.873
55170W        W27430  14.048  44.161   4.520
55171W        W27431  12.761  21.829  14.556
55172W        W27432   6.309  28.531   1.868
55173W        W27433  38.822  12.900  12.552
55174W        W27434  18.032   3.756  14.348
55175W        W27435   7.093   8.470   1.348
55176W        W27436  20.028  39.391   0.732
55177W        W27437  40.005   3.512  12.563
55178W        W27438   3.501  27.393  10.268
55179W        W27439  30.448   0.575   0.650
55180W        W27440  13.652  28.093  11.104
55181W        W27441  17.637  25.256  12.089
55182W        W27442  22.235  19.004   1.416
55183W        W27443   3.936  14.367   4.174
55184W        W27444   0.571  15.004  13.074
55185W        W27445  36.534  18.651   2.840
55186W        W27446  38.589  35.617   0.270
55187W        W27447  15.147  30.434   4.598
55188W        W27448  13.468  22.010   1.196
55189W        W27449   5.940   9.163  11.984
55190W        W27450  33.161   6.736   4.376
55191W        W27451  19.103  37.498  12.626
55192W        W27452  33.025  20.632   4.624
55193W        W27453  25.589  42.425  14.710
55194W        W27454   7.201  44.845   2.732
55195W        W27455   8.049  12.381   4.583
55196W        W27456  25.676  40.753   4.264
55197W        W27457  27.700  30.468  11.161
55198W        W27458   4.228  40.786   4.243
55199W        W27459  20.048  19.704   4.198
55200W        W27460   9.307  37.380   1.994
55201W        W27461  31.443  18.316   1.187
55202W        W27462  41.903  32.670   0.149
55203W        W27463   6.473  37.179  11.872
55204W        W27464  14.273  32.663  11.071
55205W        W27465  40.296  42.537  14.773
55206W        W27466  15.542  22.477   1.733
55207W        W27467  15.536  31.005  13.287
55208W        W27468  22.446   0.344  11.984
55209W        W27469  10.084   2.426   3.238
55210W        W27470  28.053  30.910   5.054
55211W        W27471  20.258  24.519   0.694
55212W        W27472  17.793  43.081  12.455
55213W        W27473   6.824  40.830   3.097
55214W        W27474  36.434  13.584   0.329
55215W        W27475   0.248   9.279  12.406
55216W        W27476  33.414  33.673  12.873
55217W        W27477  29.148  23.760  14.834
55218W        W27478   4.807  34.383  13.962
55219W        W27479  33.215  36.450  10.813
55220W        W27480  11.157  30.155   0.385
55221W        W27481  43.078   2.442  14.045
55222W        W27482  28.975  21.127  14.512
55223W        W27483  14.371  20.257  11.041
55224W        W27484   4.415   7.169   4.601
55225W        W27485   3.679  24.747  11.225
55226W        W27486  39.708  44.017   3.743
55227W        W27487  22.019  22.274   5.447
55228W        W27488  18.917   2.959   2.566
55229W        W27489  13.080  11.378   2.445
55230W        W27490  33.663  31.408  10.842
55231W        W27491  18.989  37.022  11.161
55232W        W27492   8.752  29.525   0.043
55233W        W27493  26.828  34.947   1.271
55234W        W27494   0.469   8.632  13.960
55235W        W27495  32.620   9.285   1.368
55236W        W27496  26.036   5.717   4.151
55237W        W27497  15.402  29.898   0.840
55238W        W27498  41.739  10.591   1.226
55239W        W27499  13.084  12.169  11.992
55240W        W27500  42.853  21.667  10.906
55241W        W27501   8.698   0.033   4.680
55242W        W27502  20.284  32.018   0.300
55243W        W27503   8.213  35.457   0.498
55244W        W27504  24.261  19.113   2.273
55245W        W27505  29.419  38.859  10.937
55246W        W27506  27.161  11.780  14.001
55247W        W27507  44.026   7.486  10.581
55248W        W27508   2.665  44.729  11.851
55249W        W27509  26.606  20.197  10.363
55250W        W27510  28.898  30.583   0.116
55251W        W27511   8.165   0.426   1.944
55252W        W27512  10.881  15.449  11.188
55253W        W27513  15.724   4.536   3.137
55254W        W27514  42.525  16.766  10.682
55255W        W27515  38.450  38.202  10.880
55256W        W27516  31.881  13.807  11.561
55257W        W27517  40.043  28.953  14.964
55258W        W27518  38.987  42.378  14.195
55259W        W27519  29.831  24.698   4.277
55260W        W27520  18.295  39.345  11.173
55261W        W27521   2.862  30.123  14.861
55262W        W27522  31.537  13.649   3.797
55263W        W27523   9.767  13.089   5.039
55264W        W27524  37.609  38.420  10.710
55265W        W27525   1.937  38.778   0.499
55266W        W27526  44.356  27.844   3.265
55267W        W27527  34.966  24.043  12.544
55268W        W27528   3.668  17.151   4.238
55269W        W27529  20.257  30.860  13.144
55270W        W27530  16.943   9.484   3.134
55271W        W27531  25.931  16.136  14.031
55272W        W27532  30.741  13.349  14.074
55273W        W27533  41.978  27.967  13.273
55274W        W27534  10.133  37.459   3.259
55275W        W27535   9.902  25.136  14.071
55276W        W27536   8.921  19.144   4.027
55277W        W27537  15.578  13.207   4.414
55278W        W27538  28.192  24.406   3.419
55279W        W27539  32.142  15.961  14.533
55280W        W27540  36.070  34.767  11.534
55281W        W27541  11.272  10.267   1.818
55282W        W27542  32.009   9.603   0.726
55283W        W27543  10.408  36.095  11.654
55284W        W27544  16.190  31.488  13.903
55285W        W27545  15.981  24.907  14.338
55286W        W27546  10.460  24.174   0.355
55287W        W27547  11.631  26.720  11.641
55288W        W27548  43.592   6.967   0.306
55289W        W27549  41.547   3.269   3.680
55290W        W27550  18.223  19.597   3.881
55291W        W27551  32.391  39.990  12.094
55292W        W27552  16.194   9.247   1.875
55293W        W27553  35.770  38.277  14.933
55294W        W27554  38.999  41.917   1.680
55295W        W27555   7.653   3.857   3.318
55296W        W27556  29.843  17.493  11.637
55297W        W27557  32.993  24.085   0.202
55298W        W27558  39.073  42.700   1.495
55299W        W27559  28.129  43.121  11.426
55300W        W27560  40.111  21.765  14.231
55301W        W27561   0.688  20.163  14.845
55302W        W27562  28.909  38.335   2.786
55303W        W27563  18.832   8.692   0.331
55304W        W27564   0.755   5.214  12.376
55305W        W27565  11.446  19.435   2.341
55306W        W27566  21.793  17.565  14.348
55307W        W27567  20.735  29.491  13.353
55308W        W27568  27.824  15.317  11.561
55309W        W27569  21.175  36.869  14.357
55310W        W27570   0.901  11.170   4.542
55311W        W27571  33.443  16.095  11.516
55312W        W27572  31.556  17.577   2.676
55313W        W27573  12.245  41.390   3.668
55314W        W27574  40.217   4.801   4.140
55315W        W27575  19.871  30.480  14.342
55316W        W27576  29.480   6.029  12.396
55317W        W27577  19.645  12.669  13.510
55318W        W27578  32.294   1.175  13.046
55319W        W27579  40.752  33.200   0.717
55320W        W27580  16.372  26.112   3.344
55321W        W27581  19.101  30.964   2.697
55322W        W27582  24.967  36.080  13.689
55323W        W27583  13.598  42.815   2.329
55324W        W27584  12.930   2.945  14.988
55325W        W27585  13.699   6.398  11.153
55326W        W27586  30.102  33.649  12.957
55327W        W27587   2.181  15.378   0.838
55328W        W27588   0.499  38.273   2.797
55329W        W27589  11.594  37.969  13.939
55330W        W27590  33.511  16.688   0.312
55331W        W27591   6.862  35.567   4.586
55332W        W27592   4.313  40.123   2.611
55333W        W27593  32.930  12.064   0.397
55334W        W27594   9.284  14.292  11.599
55335W        W27595  38.169  43.011   3.347
55336W        W27596  29.656   3.970  11.730
55337W        W27597   8.256  10.083   0.932
55338W        W27598  19.860  35.210  13.564
55339W        W27599  16.049   1.873  13.124
55340W        W27600  22.170  43.875  12.944
55341W        W27601  24.544  19.997   1.859
55342W        W27602   7.329  12.403   3.138
55343W        W27603  40.572  31.424   0.234
55344W        W27604   0.690  28.997   0.690
55345W        W27605  18.205   3.333  11.949
55346W        W27606  16.746   8.196   3.114
55347W        W27607  35.193  39.943   1.002
55348W        W27608  12.204   9.410  12.993
55349W        W27609  34.614  36.973  10.738
55350W        W27610  12.595   4.808  11.980
55351W        W27611  42.213  29.061   2.879
55352W        W27612  31.088   2.467  13.483
55353W        W27613  31.088  22.639   9.632
55354W        W27614  30.573   5.269   2.454
55355W        W27615  31.996  26.280  10.523
55356W        W27616  30.884   4.390   2.339
55357W        W27617  25.645  22.644   2.620
55358W        W27618   0.488  16.017   4.788
55359W        W27619  24.002  26.296  11.163
55360W        W27620  34.851   6.973   1.216
55361W        W27621  28.704  34.039   4.633
55362W        W27622  16.962  34.143   3.168
55363W        W27623  31.337  38.991   3.657
55364W        W27624  10.638  22.273   0.455
55365W        W27625  39.914  35.540   1.661
55366W        W27626   0.537   5.122  11.011
55367W        W27627   8.396  36.160   1.700
55368W        W27628  14.122  18.167   1.016
55369W        W27629  26.605  41.578   3.782
55370W        W27630  39.971   0.154  12.417
55371W        W27631  34.922  21.572   0.239
55372W        W27632  29.872   6.710   2.197
55373W        W27633  34.431   4.921   0.788
55374W        W27634   2.106   6.675   0.283
55375W        W27635  44.352  14.834  11.998
55376W        W27636  40.108  14.235  13.847
55377W        W27637  15.185  36.090  11.862
55378W        W27638   6.993  11.125  14.074
55379W        W27639  24.420   3.377  11.707
55380W        W27640  24.060  10.356  14.486
55381W        W27641  35.624  12.361  12.997
55382W        W27642   2.783  33.735   1.082
55383W        W27643  39.800  21.575   3.721
55384W        W27644  33.964   8.307   3.316
55385W        W27645  28.381  18.183  13.382
55386W        W27646  41.049  30.176  12.615
55387W        W27647  44.394  14.417  11.672
55388W        W27648  31.122  25.269  11.127
55389W        W27649  41.817  24.727  13.162
55390W        W27650  25.520  20.964  10.215
55391W        W27651  42.260   8.873  12.975
55392W        W27652  22.215  26.940   1.346
55393W        W27653  12.442   2.230   1.830
55394W        W27654  31.455  30.131   2.647
55395W        W27655  44.841  44.299   4.621
55396W        W27656  12.966   9.829   1.515
55397W        W27657   7.715  20.175  13.935
55398W        W27658  24.286  44.727  13.233
55399W        W27659  23.229  35.382  12.977
55400W        W27660  35.005  10.707   3.592
55401W        W27661  16.601  13.370   2.343
55402W        W27662  28.584  42.497  14.773
55403W        W27663   0.353  11.120  12.645
55404W        W27664  15.954  39.658  12.464
55405W        W27665   3.072  30.516   0.246
55406W        W27666  10.803  38.160  13.130
55407W        W27667   3.798  40.410  14.521
55408W        W27668  36.911  27.051  13.928
55409W        W27669  37.938   9.776   0.333
55410W        W27670  22.065  13.281   1.001
55411W        W27671  21.652  38.554   4.071
55412W        W27672  42.113  13.296   2.682
55413W        W27673  37.372  31.602  11.716
55414W        W27674  18.831   7.027  10.237
55415W        W27675  43.339  14.702   3.618
55416W        W27676  21.715   4.792   3.678
55417W        W27677  18.188  26.589  14.590
55418W        W27678  35.478  25.019  12.887
55419W        W27679  30.767  43.939   4.783
55420W        W27680  15.540  37.061  13.657
55421W        W27681  37.912  17.574   1.634
55422W        W27682  20.316  37.052  11.964
55423W        W27683   9.728  36.288   3.552
55424W        W27684  17.449  36.615  11.963
55425W        W27685  36.501  28.245  14.376
55426W        W27686  40.521  20.046  12.462
55427W        W27687  18.695  30.348  12.595
55428W        W27688  34.551  44.528  11.536
55429W        W27689   3.326   6.927  13.025
55430W        W27690   1.165   6.647   1.435
55431W        W27691  34.487   3.387  13.862
55432W        W27692   8.276   7.634   3.249
55433W        W27693  23.039  23.945  11.138
55434W        W27694  19.538   6.691  14.439
55435W        W27695  19.344  18.293  11.137
55436W        W27696   9.761   2.576  12.608
55437W        W27697  14.252   4.340  12.212
55438W        W27698  31.243  27.005  14.864
55439W        W27699  26.645  21.210   3.312
55440W        W27700  15.199  24.183   3.179
55441W        W27701  18.586  27.529   4.700
55442W        W27702  26.851  24.015   5.072
55443W        W27703   6.751   1.525  12.227
55444W        W27704  11.585  18.110  11.219
55445W        W27705   3.475   8.189   1.015
55446W        W27706  25.785  40.371   3.423
55447W        W27707  20.722  10.982  11.101
55448W        W27708  30.443  14.635  13.083
55449W        W27709   8.184  24.405   0.861
55450W        W27710  29.404   1.449  12.560
55451W        W27711  23.000  14.217   3.574
55452W        W27712   9.126  27.408  12.083
55453W        W27713  33.105  16.870  10.344
55454W        W27714  36.514  31.473  11.085
55455W        W27715  40.507   6.627   2.793
55456W        W27716  33.486   1.462   2.742
55457W        W27717   5.978  26.684   4.266
55458W        W27718  25.441  20.508   3.147
55459W        W27719  30.564  26.966   1.961
55460W        W27720  21.510  41.358  11.526
55461W        W27721  33.404  40.462   4.412
55462W        W27722   0.563  33.408  14.982
55463W        W27723  24.217  14.634   3.640
55464W        W27724   6.651  23.125   0.770
55465W        W27725  22.500  38.125   0.833
55466W        W27726  27.812  27.068   4.928
55467W        W27727  33.156  31.090  11.500
55468W        W27728   1.393  10.215   0.035
55469W        W27729  10.295  35.280   0.376
55470W        W27730  38.947  36.134  13.027
55471W        W27731  36.307   4.819  14.462
55472W        W27732  37.060   9.426   4.687
55473W        W27733  39.771  21.085  11.338
55474W        W27734  40.549  28.524  11.043
55475W        W27735  34.125  17.726  10.754
55476W        W27736  18.949   0.398  13.977
55477W        W27737  36.048  16.267  13.404
55478W        W27738  37.319   3.703  12.952
55479W        W27739   8.456  35.422   3.731
55480W        W27740  15.645  37.142  12.446
55481W        W27741  13.485   0.058  13.988
55482W        W27742  42.296  28.170   2.713
55483W        W27743  22.087  25.252  14.172
55484W        W27744   7.883  30.466   1.281
55485W        W27745  21.553  29.036  10.828
55486W        W27746  38.554   4.497  11.936
55487W        W27747  10.839   1.921   1.294
55488W        W27748  16.831  13.743  14.828
55489W        W27749  44.948  29.069  11.592
55490W        W27750   9.274  44.281   0.593
55491W        W27751  26.356  36.985   4.141
55492W        W27752  16.866  17.951   3.654
55493W        W27753   0.849  34.891  14.374
55494W        W27754   2.359  15.410  13.545
55495W        W27755   3.202   8.465  14.472
55496W        W27756  28.929  45.000  10.799
55497W        W27757  10.698  36.948   1.605
55498W        W27758  14.148  40.083   0.810
55499W        W27759   8.392  41.445   0.808
55500W        W27760  26.193  30.366  11.138
55501W        W27761  12.159  17.989  14.823
55502W        W27762  10.401  16.773  11.516
55503W        W27763  26.656  30.630  14.146
55504W        W27764  20.030   6.265  10.887
55505W        W27765   1.572  44.131   1.331
55506W        W27766  16.000  10.481   1.296
55507W        W27767  38.368  19.525   2.207
55508W        W27768  37.148  10.628  14.931
55509W        W27769   5.211   9.802   4.652
55510W        W27770  38.938  16.229  12.056
55511W        W27771  44.657   5.345  11.909
55512W        W27772   2.807  21.585  10.633
55513W        W27773  12.579  40.387   3.423
55514W        W27774  21.566   5.997   4.049
55515W        W27775  31.127  16.767   2.211
55516W        W27776  42.799  13.999  13.852
55517W        W27777  16.065  14.201  14.925
55518W        W27778  14.033   8.228   1.752
55519W        W27779   1.485   3.048   3.741
55520W        W27780  15.712  17.971   2.362
55521W        W27781  38.630  31.571   4.250
55522W        W27782  36.579  27.721  13.235
55523W        W27783   3.809  42.402   3.235
55524W        W27784  41.992  11.219  14.478
55525W        W27785  32.312  21.795   2.801
55526W        W27786  19.613  39.928  12.781
55527W        W27787  41.907  17.315   1.800
55528W        W27788  31.417  38.491   3.698
55529W        W27789  12.411  18.055  12.086
55530W        W27790  33.164  21.714  13.024
55531W        W27791  31.516  10.622   3.733
55532W        W27792  16.048  42.238  11.538
55533W        W27793  10.182  20.971   1.776
55534W        W27794  28.633   7.734  11.936
55535W        W27795  25.675  10.944   3.865
55536W        W27796   0.898  19.274  14.644
55537W        W27797  43.360  12.636  12.879
55538W        W27798  10.883  14.035   2.910
55539W        W27799  39.533  12.803   0.466
55540W        W27800  21.270   5.902   2.346
55541W        W27801  33.421  26.493  12.016
55542W        W27802  31.461  43.223   4.513
55543W        W27803  36.988  35.264   3.768
55544W        W27804  23.144  19.292  12.118
55545W        W27805   4.951  27.332  10.175
55546W        W27806   1.971  40.556  10.760
55547W        W27807  37.169  26.091  12.106
55548W        W27808   6.085  23.004  13.519
55549W        W27809  43.372   2.173   0.404
55550W        W27810   3.076  16.365   3.797
55551W        W27811  32.361  13.991  11.440
55552W        W27812  33.455  35.395   2.537
55553W        W27813  14.718  17.365  12.565
55554W        W27814   9.933   4.778   1.817
55555W        W27815  23.801  25.714   0.783
55556W        W27816  19.891   1.029  11.733
55557W        W27817  40.799   4.325  11.154
55558W        W27818  30.591  24.289   4.362
55559W        W27819  27.168  36.230  13.318
55560W        W27820  22.325  39.357   3.418
55561W        W27821  17.149  12.881  14.798
55562W        W27822   7.356  21.283   2.807
55563W        W27823   4.886   6.277  13.462
55564W        W27824  32.577   4.823  11.105
55565W        W27825  24.638  21.149  12.101
55566W        W27826  34.949   0.723   1.402
55567W        W27827  34.424  23.848  13.990
55568W        W27828  20.683  39.593  13.937
55569W        W27829   9.175  10.973   2.488
55570W        W27830  43.730  34.876   3.252
55571W        W27831  20.468  16.306   3.413
55572W        W27832   1.011  18.616   2.981
55573W        W27833   5.955  14.903  12.491
55574W        W27834   8.261  35.477   4.737
55575W        W27835  22.426   6.031  13.580
55576W        W27836  27.468  35.608  12.989
55577W        W27837  39.928  22.089   4.314
55578W        W27838  43.525  16.148  11.048
55579W        W27839  24.596   6.972  14.834
55580W        W27840  33.639  41.493  11.268
55581W        W27841  26.628   2.932   1.958
55582W        W27842  26.726  29.478  12.123
55583W        W27843  15.530   0.754  14.336
55584W        W27844  26.237  13.361  13.356
55585W        W27845  34.759  14.361  10.067
55586W        W27846  32.469  26.334   4.548
55587W        W27847  31.590  31.736  11.787
55588W        W27848   4.253   2.347   1.265
55589W        W27849   1.205  14.629   1.468
55590W        W27850  26.803   7.558  10.827
55591W        W27851  30.663  39.471   0.963
55592W        W27852   8.843  23.719   1.932
55593W        W27853  17.707   8.956   4.989
55594W        W27854  33.221  40.272  10.460
55595W        W27855  35.424  12.108   3.630
55596W        W27856   8.908  14.699   4.565
55597W        W27857  24.245  21.499  12.360
55598W        W27858   4.746  35.588   0.216
55599W        W27859   4.381   9.456   3.429
55600W        W27860  11.117  43.338  10.732
55601W        W27861  38.792  18.198  12.193
55602W        W27862   2.233   5.610  13.889
55603W        W27863  28.154   1.931  12.023
55604W        W27864   7.185   3.174  10.601
55605W        W27865   7.374  16.207  12.026
55606W        W27866  40.827  36.155  14.499
55607W        W27867  11.952  27.636   1.005
55608W        W27868  14.166  20.535  10.655
55609W        W27869  34.142  23.246  11.524
55610W        W27870   0.422  39.529  11.210
55611W        W27871  20.552  39.638   4.318
55612W        W27872  29.479  41.568   3.643
55613W        W27873   9.268  27.019  11.753
55614W        W27874  44.334  31.166   2.819
55615W        W27875   2.182  39.906  14.390
55616W        W27876  20.564   6.154   0.305
55617W        W27877  42.305  22.886  13.797
55618W        W27878  10.203  16.795  12.785
55619W        W27879  21.041  25.515   1.434
55620W        W27880  25.538  13.603  13.498
55621W        W27881  30.141  41.232  14.282
55622W        W27882  15.622   4.190   1.320
55623W        W27883   8.777  43.153  14.523
55624W        W27884  17.847  24.003   0.311
55625W        W27885  17.857   9.933   1.862
55626W        W27886  24.756   2.540   4.091
55627W        W27887  19.736  29.624  14.911
55628W        W27888   8.647  14.884   4.115
55629W        W27889  14.340   9.359  14.436
55630W        W27890   6.966  38.065   4.041
55631W        W27891  30.152  41.309   0.236
55632W        W27892  32.076  36.669   3.684
55633W        W27893  33.094  41.376   4.641
55634W        W27894  43.519  41.531   5.076
55635W        W27895  12.875  44.318  13.328
55636W        W27896  25.026  30.058   0.635
55637W        W27897  14.172  23.988   2.179
55638W        W27898  21.511  22.053   5.385
55639W        W27899   1.544   0.995   2.401
55640W        W27900  18.051   6.334  12.187
55641W        W27901   6.348   0.643   4.907
55642W        W27902  26.725  13.687  10.463
55643W        W27903  29.856  20.042   1.485
55644W        W27904  19.525  12.022   1.227
55645W        W27905  37.871  23.493   3.723
55646W        W27906  18.222  32.635   3.156
55647W        W27907  38.865   8.910   3.138
55648W        W27908  22.526  17.785   0.734
55649W        W27909  17.888   7.707  12.037
55650W        W27910  38.391  34.592  14.806
55651W        W27911  44.742   2.815  11.471
55652W        W27912  25.254   9.744   2.631
55653W        W27913  10.906   6.733  11.959
55654W        W27914  41.951  33.383   0.787
55655W        W27915  23.517  36.716  13.288
55656W        W27916  40.998   9.180  12.450
55657W        W27917  20.957  27.716   1.716
55658W        W27918   0.195  18.719  14.264
55659W        W27919   3.409  34.840  14.553
55660W        W27920   5.495  44.581   4.545
55661W        W27921   3.228  28.933  11.056
55662W        W27922  42.330  28.197   1.731
55663W        W27923  31.152  26.853   0.734
55664W        W27924   4.494   4.404  11.976
55665W        W27925   6.927  44.059   0.800
55666W        W27926   1.258   0.803   2.792
55667W        W27927  41.202  36.745  14.553
55668W        W27928   8.448   9.110   0.815
55669W        W27929  25.143   7.389   0.503
55670W        W27930  23.807  32.116   3.168
55671W        W27931  10.787  21.368  14.395
55672W        W27932  29.237  35.294  14.511
55673W        W27933  17.595  33.439  12.088
55674W        W27934  18.975   9.681  14.768
55675W        W27935  37.908  13.870  11.017
55676W        W27936  35.080  15.784   3.846
55677W        W27937  29.938  44.206   3.625
55678W        W27938   9.541   6.864  13.055
55679W        W27939   0.226  39.597  14.502
55680W        W27940  13.298  17.521  14.934
55681W        W27941  14.301   7.982   1.365
55682W        W27942  22.039  25.242  11.579
55683W        W27943  26.626  10.862   0.949
55684W        W27944  34.293  36.471  14.434
55685W        W27945  37.969  37.932   4.351
55686W        W27946   6.755  25.513  11.842
55687W        W27947  28.541  27.684  10.921
55688W        W27948   5.745  11.165   4.183
55689W        W27949  39.272  13.226   2.354
55690W        W27950  30.520  22.712   1.286
55691W        W27951   6.182   6.336   1.856
55692W        W27952   9.204   9.770  10.686
55693W        W27953  27.855  34.480   3.562
55694W        W27954  10.316   3.970   0.385
55695W        W27955   6.918  14.163   4.132
55696W        W27956   4.544  12.874   1.896
55697W        W27957  35.458  36.116   2.320
55698W        W27958  17.948  24.092   2.602
55699W        W27959  42.473  37.830  10.696
55700W        W27960   5.800   2.748  14.393
55701W        W27961  28.027  23.816  13.743
55702W        W27962  15.286  11.756   1.702
55703W        W27963  16.049  20.370  13.913
55704W        W27964  30.379  27.424   4.644
55705W        W27965  38.701  44.366  12.751
55706W        W27966  17.202  15.935   4.575
55707W        W27967  30.838   6.471  11.593
55708W        W27968  27.883  36.770  12.533
55709W        W27969  35.191   4.359  14.248
55710W        W27970  37.862  31.466   1.986
55711W        W27971  42.997  41.674  14.071
55712W        W27972  40.316  13.854   2.798
55713W        W27973  37.916  35.296  13.978
55714W        W27974  10.691  19.509  14.576
55715W        W27975  22.802  34.579   1.787
55716W        W27976  19.798  17.661  11.941
55717W        W27977  25.683   5.911   1.977
55718W        W27978   5.430  31.190  12.817
55719W        W27979  29.534   2.878  10.654
55720W        W27980  33.398   1.308   3.244
55721W        W27981  25.087  27.929  10.505
55722W        W27982  39.040   2.661  11.040
55723W        W27983  12.130  39.519   4.368
55724W        W27984   4.886  35.887  14.034
55725W        W27985   3.468   6.110  13.429
55726W        W27986  25.051  41.132  13.245
55727W        W27987  19.069  31.857   1.009
55728W        W27988  23.542  34.575  14.968
55729W        W27989  13.789  41.442  10.907
55730W        W27990   0.481  34.306   3.131
55731W        W27991  24.951  25.671  10.719
55732W        W27992   4.408  24.130  11.866
55733W        W27993  22.838   4.930   3.633
55734W        W27994  18.086  37.756   2.352
55735W        W27995  44.242  21.110  10.993
55736W        W27996  40.972  15.807  12.500
55737W        W27997   2.110  33.458   1.876
55738W        W27998  32.974  30.152  10.820
55739W        W27999   2.075  10.677   4.252
55740W        W28000  14.738   4.224   3.273
55741W        W28001  32.660   0.540  13.610
55742W        W28002  32.885  23.285  13.961
55743W        W28003   0.154  29.047  12.067
55744W        W28004  40.563  44.431  13.847
55745W        W28005  38.877  34.935  13.583
55746W        W28006  42.870  33.371   5.015
55747W        W28007   7.247  26.627  14.306
55748W        W28008  39.447   0.818   2.060
55749W        W28009  36.049  32.578   4.637
55750W        W28010  28.421  33.021  11.879
55751W        W28011  39.558  34.364  13.048
55752W        W28012  34.455  18.550  10.664
55753W        W28013   2.151   9.423  11.500
55754W        W28014   1.260  16.337   4.421
55755W        W28015  40.124  34.580   3.547
55756W        W28016  40.292  29.836  13.875
55757W        W28017  22.756   8.198   3.184
55758W        W28018  38.329  38.374   1.812
55759W        W28019  41.743   0.975  11.067
55760W        W28020  12.691  19.681  12.460
55761W        W28021  40.926   7.642  11.579
55762W        W28022  14.743  41.362   3.692
55763W        W28023  18.286  22.099  11.816
55764W        W28024  42.343  40.634  14.265
55765W        W28025  40.788  36.833   3.530
55766W        W28026  33.039  27.094  11.118
55767W        W28027  15.254  34.498   4.934
55768W        W28028   6.810   3.119  11.170
55769W        W28029  24.490  40.120   1.974
55770W        W28030  32.176  23.041   3.791
55771W        W28031   9.754  17.458  13.345
55772W        W28032  14.243  23.818   1.652
55773W        W28033   2.306  18.311   2.378
55774W        W28034  21.241  15.560  10.621
55775W        W28035  25.679  34.381   2.770
55776W        W28036  28.086  37.519   2.425
55777W        W28037  16.109  33.952   1.995
55778W        W28038  17.525  35.034  12.409
55779W        W28039  32.043  14.160  14.711
55780W        W28040   6.956  38.069  12.822
55781W        W28041  41.064  15.292   0.656
55782W        W28042  29.218  12.910  12.383
55783W        W28043   1.015  16.752  12.800
55784W        W28044  21.813  27.757  13.493
55785W        W28045  38.000  28.853   3.303
55786W        W28046  26.189  37.462   1.659
55787W        W28047  26.431   2.834  14.815
55788W        W28048  44.788  40.515  12.576
55789W        W28049  30.010  18.334  12.666
55790W        W28050  10.659  27.379   2.073
55791W        W28051  40.886   1.265  13.470
55792W        W28052  16.649  23.561  12.652
55793W        W28053  21.408  28.178  12.781
55794W        W28054  15.871  28.077  10.627
55795W        W28055   6.741  29.394  10.700
55796W        W28056   8.918   4.770   1.910
55797W        W28057   8.212  25.583  13.979
55798W        W28058  21.042   5.176   3.161
55799W        W28059  24.727   3.402  13.243
55800W        W28060  15.775  21.086  13.313
55801W        W28061  32.483  24.496   4.305
55802W        W28062  34.428  34.957   3.080
55803W        W28063  39.019  31.537  14.013
55804W        W28064  44.751  20.651  14.713
55805W        W28065  27.719   2.762  10.517
55806W        W28066   0.516  18.149   1.958
55807W        W28067   1.298  38.335   3.747
55808W        W28068  27.091   9.872  13.971
55809W        W28069  34.403  34.850   4.394
55810W        W28070  30.305  17.201   1.235
55811W        W28071  16.683  25.361  11.447
55812W        W28072  22.583  19.658   2.759
55813W        W28073   6.658   4.771   0.225
55814W        W28074  26.960  35.054   2.241
55815W        W28075   3.228   6.416   3.077
55816W        W28076  36.357  29.438   0.793
55817W        W28077  17.658  32.840  13.912
55818W        W28078   4.892  39.156   3.378
55819W        W28079  24.174  34.285  14.514
55820W        W28080  27.043  43.720   2.260
55821W        W28081  25.638  29.464  12.037
55822W        W28082  11.249  19.575   3.759
55823W        W28083   2.754  25.994  11.055
55824W        W28084  14.594  39.013   0.077
55825W        W28085  38.394  36.147   0.334
55826W        W28086  25.555   1.084  10.039
55827W        W28087  44.443  27.722   0.795
55828W        W28088  10.887  30.498  12.084
55829W        W28089  21.371  18.327   4.277
55830W        W28090   5.856  42.505  10.661
55831W        W28091  30.749   3.824  10.671
55832W        W28092   0.757  43.771  14.063
55833W        W28093  35.381  17.826   2.296
55834W        W28094   0.536  26.641  12.743
55835W        W28095   7.467  11.668  12.080
55836W        W28096  25.322   8.610  14.746
55837W        W28097  26.805   1.502  11.519
55838W        W28098  20.823  17.699  12.884
55839W        W28099  13.148   9.364  13.483
55840W        W28100  41.819  39.569   3.735
55841W        W28101  31.980  18.162  13.785
55842W        W28102  38.015  28.216  14.846
55843W        W28103  16.067  27.047   3.701
55844W        W28104  43.813  44.095  10.813
55845W        W28105  11.118   0.281  13.039
55846W        W28106  41.208  17.632  11.438
55847W        W28107  43.841  19.498  14.849
55848W        W28108  38.540   7.375  13.967
55849W        W28109   2.276  29.690  13.433
55850W        W28110  14.638  43.400   0.225
55851W        W28111  41.435   3.474   1.383
55852W        W28112  32.228  18.362  12.034
55853W        W28113  28.120   3.049  10.674
55854W        W28114   4.912  41.493   4.399
55855W        W28115  20.670  19.328   4.994
55856W        W28116  14.773  17.425  10.962
55857W        W28117   2.027  27.737  10.854
55858W        W28118  19.767  39.522  11.194
55859W        W28119  37.134  19.572   9.760
55860W        W28120  24.709  13.035   4.298
55861W        W28121   3.448  35.651   1.409
55862W        W28122  43.044   8.790  11.493
55863W        W28123  39.114  35.520   0.394
55864W        W28124   3.750  40.305   3.681
55865W        W28125  13.019   9.915   0.989
55866W        W28126  35.044   8.579   1.416
55867W        W28127  43.958  14.825   4.742
55868W        W28128  21.113  37.512   1.393
55869W        W28129  30.594  23.768  11.251
55870W        W28130  34.431  17.073  13.363
55871W        W28131  10.171  36.532  14.954
55872W        W28132  25.504  34.857  13.447
55873W        W28133  21.670  30.124   1.994
55874W        W28134  19.551  39.458   2.861
55875W        W28135   8.376  44.019   2.759
55876W        W28136  28.231  40.306   2.813
55877W        W28137   1.230   2.947  14.394
55878W        W28138  19.041  12.082   0.338
55879W        W28139   5.720  17.506   4.281
55880W        W28140   2.285  34.139   0.343
55881W        W28141  29.920  18.077   0.521
55882W        W28142   2.803  36.855  10.718
55883W        W28143  13.612   4.288  10.585
55884W        W28144  18.478  10.252  11.136
55885W        W28145   4.397  22.118  13.097
55886W        W28146  19.661   4.480   3.193
55887W        W28147  40.304  33.593   2.455
55888W        W28148  24.677  38.847   0.673
55889W        W28149  12.930  34.756  13.456
55890W        W28150   1.488   1.314   2.801
55891W        W28151  35.543  27.557  13.124
55892W        W28152   4.994   3.442   1.267
55893W        W28153  35.321  24.927  11.521
55894W        W28154  32.924   7.901  14.280
55895W        W28155  18.275  18.512  10.530
55896W        W28156  22.657  36.460  11.720
55897W        W28157  31.105   7.435  11.475
55898W        W28158  34.509  20.497   5.070
55899W        W28159  35.343  41.053   4.605
55900W        W28160  25.261  35.024  11.213
55901W        W28161   0.995  34.782  12.371
55902W        W28162  27.127  37.833  14.324
55903W        W28163   2.791   6.748   2.582
55904W        W28164  15.538  35.896   3.314
55905W        W28165  27.942  24.857   3.599
55906W        W28166  41.402   0.083   1.362
55907W        W28167  26.571  29.088   1.922
55908W        W28168  44.910  29.376   1.661
55909W        W28169   3.265  10.797  14.426
55910W        W28170   3.835  14.086  12.661
55911W        W28171  44.001  17.472   4.084
55912W        W28172  42.017  15.660   4.320
55913W        W28173  29.870  17.821   0.040
55914W        W28174  42.037  22.135   1.727
55915W        W28175  37.380  36.383  10.654
55916W        W28176  35.163  42.400   3.295
55917W        W28177  38.452  24.471  10.595
55918W        W28178  44.934  29.718   4.305
55919W        W28179  13.055  43.558   4.609
55920W        W28180  23.639  41.754   3.343
55921W        W28181  32.825   7.603   2.231
55922W        W28182   6.484   8.374  14.436
55923W        W28183  13.176  21.785   3.376
55924W        W28184  26.424  31.000  14.468
55925W        W28185  25.054  27.939   2.256
55926W        W28186  23.791  34.974   3.592
55927W        W28187  12.200   4.343  14.119
55928W        W28188   4.952  16.104   0.087
55929W        W28189  38.900   8.735  11.832
55930W        W28190  20.556  28.150   3.706
55931W        W28191  43.015  31.612   3.655
55932W        W28192   6.438  10.272  13.020
55933W        W28193  13.347  15.174   0.400
55934W        W28194  10.897  21.742  11.190
55935W        W28195  15.263  28.721  12.121
55936W        W28196  21.132  25.697   1.908
55937W        W28197   2.287  39.918  10.790
55938W        W28198  29.079  19.537  13.327
55939W        W28199  41.956   0.753  12.959
55940W        W28200  37.797   9.462   5.076
55941W        W28201  31.214   0.657   5.160
55942W        W28202  42.526   6.755  12.569
55943W        W28203  28.071  34.149  10.881
55944W        W28204   0.818  16.853   3.666
55945W        W28205   6.453  21.320   1.901
55946W        W28206   5.386  17.315  14.598
55947W        W28207  29.415   1.895   0.201
55948W        W28208  11.907  44.471   2.657
55949W        W28209  43.574  42.683  10.392
55950W        W28210  38.070  41.324   1.321
55951W        W28211   3.408  13.294   2.598
55952W        W28212  14.887  20.991  14.415
55953W        W28213   6.905  41.933  14.335
55954W        W28214  22.104  10.824   2.322
55955W        W28215  26.040  44.052  13.118
55956W        W28216  14.412  37.579   4.539
55957W        W28217  21.029  15.783   0.923
55958W        W28218  28.566  32.213   9.811
55959W        W28219  43.840  32.952  12.949
55960W        W28220   6.683  25.048   3.321
55961W        W28221  29.053  13.835   2.679
55962W        W28222  39.759  16.988   1.446
55963W        W28223  33.028   0.329   4.109
55964W        W28224  19.740   2.542   5.057
55965W        W28225   0.223  13.424   2.318
55966W        W28226  44.463  40.752  10.371
55967W        W28227  12.305  29.947   1.465
55968W        W28228  31.168  13.250   1.329
55969W        W28229  27.708  27.880   2.406
55970W        W28230  18.272  21.383   4.915
55971W        W28231   4.693  16.892  12.922
55972W        W28232  23.677  20.240  14.806
55973W        W28233  30.223  14.179  13.998
55974W        W28234  19.415  13.834  14.797
55975W        W28235  44.546  23.756   4.205
55976W        W28236  27.216  41.425   1.856
55977W        W28237  27.507  24.213   2.327
55978W        W28238  33.141  38.615   3.245
55979W        W28239   3.590  42.871   3.281
55980W        W28240  13.134   4.651  12.903
55981W        W28241  35.516   5.170  13.030
55982W        W28242   6.907  27.987   0.846
55983W        W28243  10.296  35.801  11.169
55984W        W28244  11.398  25.417   3.810
55985W        W28245  32.496  28.070  12.229
55986W        W28246  19.614  38.003  10.741
55987W        W28247  33.892  43.230  11.559
55988W        W28248  18.757   7.287   2.206
55989W        W28249  32.121  24.517  14.533
55990W        W28250  21.237  30.405  11.168
55991W        W28251  30.705  24.749   4.537
55992W        W28252  34.698   8.668   1.043
55993W        W28253  33.635  38.300   1.338
55994W        W28254  35.432  43.519   1.045
55995W        W28255  19.791   7.738   1.630
55996W        W28256   7.895  40.909   3.096
55997W        W28257   9.197  30.396  10.709
55998W        W28258  25.557  35.499   1.149
55999W        W28259   2.818  33.695   1.599
56000W        W28260   0.020   9.711  14.877
56001W        W28261   0.397  12.912   0.490
56002W        W28262  21.848  21.741   0.327
56003W        W28263  14.144  21.023   1.193
56004W        W28264  41.286  25.113   0.430
56005W        W28265  18.654  32.628  11.359
56006W        W28266   2.431  23.000  13.236
56007W        W28267  13.895  20.085  14.902
56008W        W28268   6.789   0.747   3.388
56009W        W28269  21.594  11.246  12.408
56010W        W28270  31.343  43.449   3.281
56011W        W28271  44.686   8.838  13.006
56012W        W28272  30.529   7.185   1.570
56013W        W28273  19.995   9.217   0.872
56014W        W28274  19.166  12.491   2.282
56015W        W28275   1.262  33.420  10.965
56016W        W28276   4.968  12.328  10.284
56017W        W28277  20.059  22.073  10.882
56018W        W28278  29.108   3.478  11.743
56019W        W28279  20.631   2.136  12.454
56020W        W28280  36.816   3.705  12.048
56021W        W28281  22.078  14.283   3.909
56022W        W28282  31.039  13.064  14.451
56023W        W28283  30.722  18.538   4.673
56024W        W28284  20.470  19.673  12.383
56025W        W28285  34.501  21.576  14.395
56026W        W28286  39.405  25.699  14.519
56027W        W28287  28.611  26.511  13.916
56028W        W28288  29.842  36.461  11.997
56029W        W28289  30.381  43.240  12.491
56030W        W28290  11.974  42.265   4.124
56031W        W28291  27.813  19.280   3.373
56032W        W28292  23.715  24.685   4.589
56033W        W28293  15.273  12.587  13.494
56034W        W28294  22.294  31.552  11.628
56035W        W28295   5.937   9.777   0.158
56036W        W28296  39.318  38.775   0.478
56037W        W28297  19.062  30.202  14.271
56038W        W28298  36.885  42.858   0.397
56039W        W28299  39.848  33.984   1.706
56040W        W28300  42.927  25.113  12.999
56041W        W28301  19.232  16.552  12.339
56042W        W28302  37.028  32.193   2.112
56043W        W28303  41.907  14.197   2.177
56044W        W28304  31.564  28.617   4.519
56045W        W28305  43.420  13.280   0.672
56046W        W28306  28.114   3.577  10.613
56047W        W28307  42.515  38.392  10.478
56048W        W28308  18.036   8.662  11.973
56049W        W28309  25.022   5.375  12.884
56050W        W28310  22.911  37.580  12.028
56051W        W28311  19.316  16.191   1.870
56052W        W28312   7.223   9.857   4.133
56053W        W28313  17.856   6.058  13.061
56054W        W28314   0.766  34.879  10.202
56055W        W28315   6.155  18.689   3.737
56056W        W28316   5.793  36.403   0.346
56057W        W28317   0.842  30.956   1.281
56058W        W28318  32.403  16.637  12.178
56059W        W28319   0.975   2.880  13.472
56060W        W28320  39.845  13.244  11.581
56061W        W28321  15.020   6.907   0.843
56062W        W28322  15.802  25.569  13.508
56063W        W28323  13.016  21.193   4.100
56064W        W28324   6.427   5.221   3.334
56065W        W28325  18.008  27.530   2.737
56066W        W28326  34.284  31.433  13.530
56067W        W28327  44.720   6.372   2.077
56068W        W28328  33.178   7.871  10.737
56069W        W28329  44.733  42.452  14.958
56070W        W28330   1.691  39.042  14.081
56071W        W28331  34.083  30.676  11.517
56072W        W28332  30.086  41.577  14.697
56073W        W28333   7.585  29.652  11.001
56074W        W28334  12.096  40.201   1.822
56075W        W28335  17.622  42.034   0.320
56076W        W28336   3.515  42.848   1.894
56077W        W28337  29.264  29.042  10.591
56078W        W28338  16.626  14.855  13.064
56079W        W28339  43.282  23.757  11.068
56080W        W28340   1.801  25.581  11.476
56081W        W28341  30.598   6.313   0.735
56082W        W28342  34.954  38.321   4.643
56083W        W28343  10.322   1.677  14.980
56084W        W28344  26.497  41.034   5.161
56085W        W28345  29.539  15.608  12.132
56086W        W28346  21.378  44.399  14.787
56087W        W28347  14.792  24.055   2.855
56088W        W28348   3.010  14.826  13.497
56089W        W28349  10.224   1.769  13.581
56090W        W28350   2.301   5.756   3.394
56091W        W28351  40.789   1.396  12.055
56092W        W28352  24.028  43.193  11.010
56093W        W28353  20.893  44.500   2.338
56094W        W28354  33.469  25.994   0.301
56095W        W28355  42.571  15.171   1.447
56096W        W28356  30.014   4.166  11.094
56097W        W28357  40.195   0.958  11.014
56098W        W28358   5.855  22.273   0.376
56099W        W28359  31.965  13.107  12.812
56100W        W28360   6.743  29.189  12.040
56101W        W28361   6.151  33.409   4.134
56102W        W28362  20.789  21.242   9.848
56103W        W28363  13.420  25.484   2.587
56104W        W28364  15.564  29.570  10.678
56105W        W28365  38.520   8.641   2.662
56106W        W28366  41.741  30.994   2.289
56107W        W28367   7.728  15.184   3.045
56108W        W28368  39.745  29.817  13.964
56109W        W28369  43.481  34.657   4.348
56110W        W28370  35.533  36.978   1.915
56111W        W28371  29.172   4.264   4.195
56112W        W28372   4.704  43.490  13.431
56113W        W28373  17.963  42.430  14.872
56114W        W28374  32.071  34.158  11.707
56115W        W28375  26.197  16.718   1.567
56116W        W28376  40.852  12.161   4.234
56117W        W28377   5.241  39.016  13.320
56118W        W28378   6.851  25.491   1.063
56119W        W28379  25.793   1.487   1.725
56120W        W28380   7.913   8.759  11.435
56121W        W28381  44.757   9.871   3.251
56122W        W28382  30.070  23.746   4.341
56123W        W28383   2.376  44.174   4.089
56124W        W28384  28.969   3.204   3.646
56125W        W28385  35.871  42.214   3.763
56126W        W28386  37.056   0.478   3.337
56127W        W28387  19.667  18.820  14.505
56128W        W28388  14.011   9.883  11.010
56129W        W28389  26.699  43.436   1.191
56130W        W28390   2.985  21.175   1.779
56131W        W28391  42.039  19.182  14.018
56132W        W28392   0.093   8.815   4.607
56133W        W28393  24.411  30.614   4.218
56134W        W28394   7.140   1.393  13.842
56135W        W28395  15.990  34.633   4.114
56136W        W28396  44.060   4.886   3.180
56137W        W28397  40.880  31.476   4.562
56138W        W28398  12.451  20.029  14.885
56139W        W28399  25.907  39.584   3.709
56140W        W28400  30.358  25.674   2.228
56141W        W28401  32.499  32.865  10.934
56142W        W28402   6.185  10.295   2.322
56143W        W28403  22.582  15.992   3.007
56144W        W28404  26.898  31.467   0.623
56145W        W28405   1.358  38.394   4.602
56146W        W28406  31.234  10.326   1.240
56147W        W28407  31.504  41.750   1.842
56148W        W28408   5.415   9.719   2.349
56149W        W28409   4.522  10.566   1.635
56150W        W28410  23.500  26.028  14.685
56151W        W28411  43.323  38.871  11.560
56152W        W28412  15.049  36.724   2.848
56153W        W28413  39.888   5.377   2.815
56154W        W28414   4.086   6.252   0.340
56155W        W28415  15.729  28.877  11.312
56156W        W28416  37.574  16.861  12.043
56157W        W28417  38.863  11.508  12.211
56158W        W28418   7.207  33.653   0.551
56159W        W28419  26.488  42.536  13.258
56160W        W28420  28.681  15.865  13.899
56161W        W28421  35.933  14.600  14.262
56162W        W28422   7.338  11.812   1.404
56163W        W28423  42.982  10.715   2.094
56164W        W28424  25.455  26.724   4.440
56165W        W28425  14.200  20.736  12.964
56166W        W28426  22.702  43.687   0.281
56167W        W28427   2.557  38.884  12.430
56168W        W28428  31.995  27.938  12.408
56169W        W28429  43.225  39.566   1.807
56170W        W28430  21.212  30.209  14.973
56171W        W28431   0.154   5.277   1.863
56172W        W28432  41.986  33.596   1.778
56173W        W28433  30.587   4.246   2.760
56174W        W28434  17.907  32.351   2.262
56175W        W28435  11.936  43.416   3.606
56176W        W28436  35.240  27.662   0.694
56177W        W28437  43.981  33.976   4.619
56178W        W28438   6.506   4.972   1.856
56179W        W28439  44.661  13.550  12.014
56180W        W28440  23.611  20.295   1.428
56181W        W28441  29.945   6.692   2.705
56182W        W28442  40.981  40.221   3.098
56183W        W28443  26.162  25.770  14.010
56184W        W28444  15.363   6.050   0.947
56185W        W28445  23.189  25.920   4.628
56186W        W28446  25.194  24.075  10.590
56187W        W28447   8.745  24.175  11.534
56188W        W28448  34.466  19.372   4.579
56189W        W28449  38.140  11.843   4.140
56190W        W28450  10.268   6.717   4.353
56191W        W28451   8.142  12.862   0.303
56192W        W28452  19.064  36.610   5.003
56193W        W28453  37.983  29.712   1.334
56194W        W28454   7.973  16.224   3.746
56195W        W28455   6.659  34.634  13.482
56196W        W28456  34.950  16.304   0.657
56197W        W28457   6.472  39.144  13.479
56198W        W28458  43.036  43.878   3.129
56199W        W28459  21.444  10.146  11.447
56200W        W28460  14.650  35.956   4.388
56201W        W28461  21.736  19.778   1.354
56202W        W28462  31.844  36.945  12.244
56203W        W28463   2.691   3.963   1.602
56204W        W28464  21.565   2.912  14.253
56205W        W28465  29.404   1.950   3.695
56206W        W28466   6.164  36.919   1.388
56207W        W28467  22.010  31.501   1.706
56208W        W28468  26.198  24.060  13.379
56209W        W28469  34.737  10.893  14.694
56210W        W28470  31.918   3.368  13.351
56211W        W28471  24.732  15.782   0.994
56212W        W28472  14.426  22.555  13.581
56213W        W28473  33.969   3.612  13.935
56214W        W28474  20.279  15.775  10.142
56215W        W28475  11.538  19.340  10.770
56216W        W28476  19.574  34.944  11.440
56217W        W28477  17.330  42.896   3.138
56218W        W28478  43.460   6.246  14.817
56219W        W28479  15.177  36.530   1.950
56220W        W28480  16.627   6.821   2.382
56221W        W28481  40.145  23.460  12.859
56222W        W28482  19.976  20.088  10.279
56223W        W28483   0.772   3.558   0.148
56224W        W28484  21.210   1.986   4.177
56225W        W28485  40.553   4.797   1.191
56226W        W28486  19.275  17.980  14.986
56227W        W28487  10.615  21.497   2.771
56228W        W28488  42.156  13.769  11.558
56229W        W28489   8.927  38.149   4.512
56230W        W28490  26.361  13.234   0.538
56231W        W28491   9.720  18.976  11.622
56232W        W28492   8.260  44.712  12.461
56233W        W28493   9.088  24.236  12.886
56234W        W28494  28.849  12.332   0.728
56235W        W28495  10.939  19.521   2.245
56236W        W28496  41.070  38.404   3.563
56237W        W28497  35.132  15.795   2.102
56238W        W28498   9.303  21.605   4.125
56239W        W28499  15.644   8.135  12.287
56240W        W28500  44.193  42.013  12.876
56241W        W28501  42.733  38.313  11.465
56242W        W28502   9.230  42.427   1.473
56243W        W28503  35.418  24.526   2.244
56244W        W28504  20.540   1.922  11.116
56245W        W28505   1.526  36.800   1.792
56246W        W28506  24.318  10.730   2.047
56247W        W28507  39.685  41.046  14.922
56248W        W28508  16.056  21.210   2.234
56249W        W28509  32.939  39.889  14.068
56250W        W28510  22.514   7.805   3.402
56251W        W28511  18.187  20.804  10.568
56252W        W28512  18.289  33.885   1.498
56253W        W28513  27.464  11.066   1.450
56254W        W28514  33.027  18.655   4.548
56255W        W28515   4.792   9.991   0.963
56256W        W28516  29.183  36.647   2.230
56257W        W28517  36.209  20.807  11.014
56258W        W28518  38.479   4.565  10.180
56259W        W28519  30.926   9.093  13.862
56260W        W28520  33.471  13.198   4.584
56261W        W28521  10.691  10.962  12.954
56262W        W28522   6.224   4.472   4.533
56263W        W28523  40.015   8.560   2.239
56264W        W28524  33.626  11.223   2.162
56265W        W28525   9.653  18.135  13.077
56266W        W28526  31.021  34.231   4.949
56267W        W28527  30.148  19.178   3.673
56268W        W28528  36.505  13.179   3.748
56269W        W28529   2.922  15.312  10.553
56270W        W28530  42.898  29.383   5.077
56271W        W28531  41.636  13.905   0.203
56272W        W28532  42.043  36.000   0.156
56273W        W28533  22.519   5.799  12.710
56274W        W28534   5.610  20.989  14.893
56275W        W28535  42.085  20.571  13.039
56276W        W28536  36.376  14.132   2.309
56277W        W28537  26.129  11.730   3.801
56278W        W28538  28.572  17.076  14.245
56279W        W28539   8.443  34.406  13.952
56280W        W28540  18.011  36.983  13.071
56281W        W28541  17.121   1.750   3.305
56282W        W28542  23.392  34.113   3.135
56283W        W28543   0.919  27.718  12.141
56284W        W28544  24.753  21.286   1.219
56285W        W28545  19.602   5.117  11.096
56286W        W28546  34.138  21.758   4.775
56287W        W28547   1.220  22.966  12.882
56288W        W28548   2.452  41.758  14.235
56289W        W28549  10.721  26.965   2.862
56290W        W28550  41.407  30.135  13.063
56291W        W28551  17.308   2.275   4.347
56292W        W28552  39.780   0.924   4.312
56293W        W28553  26.535  42.281   0.733
56294W        W28554  35.338  37.906   3.376
56295W        W28555  28.234  38.784   3.282
56296W        W28556  17.013   7.973  11.660
56297W        W28557  41.920  34.832  14.171
56298W        W28558  16.819  39.850   2.797
56299W        W28559  16.665  22.965   4.635
56300W        W28560   1.330  34.460   1.643
56301W        W28561  37.224  12.879   1.263
56302W        W28562  43.415  38.614  14.374
56303W        W28563  26.580  25.253  12.483
56304W        W28564  42.369   8.176  13.352
56305W        W28565  13.717   6.534  14.924
56306W        W28566  26.525  19.290  14.563
56307W        W28567   7.745  26.788   2.272
56308W        W28568  38.451  19.374  11.886
56309W        W28569  40.109   3.943  13.883
56310W        W28570  21.471   0.569   2.757
56311W        W28571  24.742  24.497   2.770
56312W        W28572  20.487  25.504   0.077
56313W        W28573   6.991  21.797  14.019
56314W        W28574   4.369  44.393  14.784
56315W        W28575  20.577  18.231  10.571
56316W        W28576   1.017  14.889  13.307
56317W        W28577  15.247   1.818   4.609
56318W        W28578  38.090  37.480  11.979
56319W        W28579  11.607  21.096   0.062
56320W        W28580  29.435  33.355  10.232
56321W        W28581  13.501   4.382   4.849
56322W        W28582  16.698   1.396  14.775
56323W        W28583   9.115  23.574  12.416
56324W        W28584   1.879  39.909  11.896
56325W        W28585  27.014   4.782   2.590
56326W        W28586  36.434  15.609   3.527
56327W        W28587  24.061  38.064  13.142
56328W        W28588  16.457   1.175  13.017
56329W        W28589  25.743   1.096  12.582
56330W        W28590  36.625  36.082  13.476
56331W        W28591   5.946  44.721   2.363
56332W        W28592  31.668  10.190   2.736
56333W        W28593  29.507  13.082   2.517
56334W        W28594   0.552  16.735  12.465
56335W        W28595   0.169  15.595   2.468
56336W        W28596  14.602   8.259  11.531
56337W        W28597  20.725  15.789  13.767
56338W        W28598  22.507  41.950   1.817
56339W        W28599  25.870  22.685  13.855
56340W        W28600  27.420   3.244   4.122
56341W        W28601  16.151  29.620  14.809
56342W        W28602  21.653   0.863   1.634
56343W        W28603  42.378   3.828   3.793
56344W        W28604  31.858  10.202  14.995
56345W        W28605  15.091  22.580   3.158
56346W        W28606  23.285  22.428   0.865
56347W        W28607  17.387  36.097   1.361
56348W        W28608  21.656  34.075  10.683
56349W        W28609   5.427  15.016  12.138
56350W        W28610   1.508  23.397   1.464
56351W        W28611  36.468  16.112   4.740
56352W        W28612  30.542  40.781  14.809
56353W        W28613  30.606   4.963   3.574
56354W        W28614  21.051  18.082   1.024
56355W        W28615  14.396   3.345  11.189
56356W        W28616  35.886  17.711   4.585
56357W        W28617   8.075  27.157   3.269
56358W        W28618  26.203   9.098  14.990
56359W        W28619  43.598  12.335  12.512
56360W        W28620  28.128  25.900  12.411
56361W        W28621  30.427   6.156  11.597
56362W        W28622  28.889  28.602   1.308
56363W        W28623  40.046  10.812  12.036
56364W        W28624  37.132  14.406  11.108
56365W        W28625  22.690  10.480   3.582
56366W        W28626  10.730  29.353  11.640
56367W        W28627  11.674  31.426   4.795
56368W        W28628  23.537   5.658  14.784
56369W        W28629  38.071   1.692   0.740
56370W        W28630  19.521  41.631   0.294
56371W        W28631  10.290  22.271   1.520
56372W        W28632  15.320  11.558   4.225
56373W        W28633  13.368  31.462  14.768
56374W        W28634  22.503   7.627  14.821
56375W        W28635  38.692  24.700   1.874
56376W        W28636  30.456  16.525   3.903
56377W        W28637  25.371  36.815   0.792
56378W        W28638  44.917  31.457   4.587
56379W        W28639   1.317  24.641   1.890
56380W        W28640  32.933  44.836   0.323
56381W        W28641  11.913  12.564   2.802
56382W        W28642  20.293  23.734  12.943
56383W        W28643  30.494  18.220   2.189
56384W        W28644  17.078  40.033   2.400
56385W        W28645  28.695   0.824   2.191
56386W        W28646  14.396  11.095   4.887
56387W        W28647   4.759  14.704  12.977
56388W        W28648  44.694  25.139  12.366
56389W        W28649  37.313   2.525  11.209
56390W        W28650  43.452  11.663   1.918
56391W        W28651  28.259  20.478  11.050
56392W        W28652  35.901  14.364   2.313
56393W        W28653   6.290   3.396  13.764
56394W        W28654  36.122  16.066  11.064
56395W        W28655  20.976  32.785  11.681
56396W        W28656  28.216  27.145   1.924
56397W        W28657   8.450  37.252   2.721
56398W        W28658  20.243  25.962   0.099
56399W        W28659  11.817  18.563   2.919
56400W        W28660   9.315  17.317   9.538
56401W        W28661   2.249  36.956  14.614
56402W        W28662  42.955  35.376  12.278
56403W        W28663  10.908  11.323  12.507
56404W        W28664  26.895   2.984  12.245
56405W        W28665  21.158   4.329   2.648
56406W        W28666  14.117  14.355   1.466
56407W        W28667  28.243  21.196   0.805
56408W        W28668  13.337   0.279  12.572
56409W        W28669  35.465  22.655   0.913
56410W        W28670  44.085  43.645  10.731
56411W        W28671  42.855   4.841  13.983
56412W        W28672  27.686  25.381   3.383
56413W        W28673  19.196  27.414   2.685
56414W        W28674  42.482  18.957  11.001
56415W        W28675  20.760  24.759   4.140
56416W        W28676   4.390  29.190   2.554
56417W        W28677   1.017  15.440   4.060
56418W        W28678  20.253  28.762   4.831
56419W        W28679  11.828  17.910  13.493
56420W        W28680  39.590   5.729  11.150
56421W        W28681  26.022   5.963  12.506
56422W        W28682  39.281   2.244   3.535
56423W        W28683  25.132  12.621  13.452
56424W        W28684  29.304  14.834  11.617
56425W        W28685  23.471   6.689  13.943
56426W        W28686   5.325  36.682  13.023
56427W        W28687  29.250   2.359   1.336
56428W        W28688  21.189  26.852   5.550
56429W        W28689  29.525  11.505  11.611
56430W        W28690  28.560  17.754   4.264
56431W        W28691  31.464  18.250   3.237
56432W        W28692   1.005  35.268  12.576
56433W        W28693  21.545  38.997  13.564
56434W        W28694  40.386  39.551   0.805
56435W        W28695  14.683  19.757  11.604
56436W        W28696   3.331  40.720  10.769
56437W        W28697   5.121  33.083  13.969
56438W        W28698  11.629  17.281   2.332
56439W        W28699  13.023  27.210   2.731
56440W        W28700  28.997  38.480  13.251
56441W        W28701  25.494  27.396   1.357
56442W        W28702   6.422   1.533   2.931
56443W        W28703  30.688  10.152   1.327
56444W        W28704  13.261  15.857   4.819
56445W        W28705  29.518  24.970  14.317
56446W        W28706  24.284  40.186   0.907
56447W        W28707  38.620  37.386  11.947
56448W        W28708  40.219   5.774   0.125
56449W        W28709  24.410   1.796  11.835
56450W        W28710  14.038  35.804   1.859
56451W        W28711  10.117  21.928  13.657
56452W        W28712  36.495  34.696  13.376
56453W        W28713   8.713  16.380  14.504
56454W        W28714   4.199  14.603   0.176
56455W        W28715  27.869  44.762  12.474
56456W        W28716   3.839  20.711  12.618
56457W        W28717  29.375  43.243  12.363
56458W        W28718  32.605  33.594  10.940
56459W        W28719  43.739  16.817  12.944
56460W        W28720  31.917  13.100   4.541
56461W        W28721  18.523  43.696  12.529
56462W        W28722  29.610  41.513  12.010
56463W        W28723  14.247  43.003  14.045
56464W        W28724  28.463  33.921   3.092
56465W        W28725  42.113  21.384   1.516
56466W        W28726  37.073  12.969  13.104
56467W        W28727  29.910  41.108   1.105
56468W        W28728  29.634  41.896  12.482
56469W        W28729   6.487  18.900   3.113
56470W        W28730  20.063   1.814  10.177
56471W        W28731   2.228  12.767  11.617
56472W        W28732  15.303  18.089   4.310
56473W        W28733  23.003  40.315  13.845
56474W        W28734  39.686  33.083  14.853
56475W        W28735  28.940   7.752  13.594
56476W        W28736  42.876   7.568  14.384
56477W        W28737   9.444  17.834  14.303
56478W        W28738  40.981  28.927   4.889
56479W        W28739  13.159   7.923  13.334
56480W        W28740  31.441  16.840  13.806
56481W        W28741  18.534  12.135  10.618
56482W        W28742  24.261   0.342   2.634
56483W        W28743  28.634  34.317  11.652
56484W        W28744  10.457  37.392  11.923
56485W        W28745  15.104  25.713  13.374
56486W        W28746  16.420  43.496  14.112
56487W        W28747  20.511  12.609  11.960
56488W        W28748  39.570   7.152   3.845
56489W        W28749  37.907  29.174  10.635
56490W        W28750  26.600  33.864  12.470
56491W        W28751   7.353   0.010   3.928
56492W        W28752  41.412  43.942  10.795
56493W        W28753  10.033  42.178   2.626
56494W        W28754  14.507  18.339  14.733
56495W        W28755  16.347  25.025  12.546
56496W        W28756  28.590  13.867   0.791
56497W        W28757  39.862  23.753  11.004
56498W        W28758   8.155  20.342   1.894
56499W        W28759  12.732   6.290   3.152
56500W        W28760   4.318  27.756  13.774
56501W        W28761  12.817   3.290   2.429
56502W        W28762   4.918  33.960  14.227
56503W        W28763   3.789  33.121  13.357
56504W        W28764  14.711  14.412   0.333
56505W        W28765  15.803   4.803  12.146
56506W        W28766  22.450  22.559  11.690
56507W        W28767  13.094   4.325  14.442
56508W        W28768  30.121  31.464  12.135
56509W        W28769  12.310  29.724   2.236
56510W        W28770   5.606   8.082  12.087
56511W        W28771   7.212  20.003  13.032
56512W        W28772  21.143  17.021  11.595
56513W        W28773  17.331  42.485   2.234
56514W        W28774  27.620  22.042  10.792
56515W        W28775  35.944  32.585  11.127
56516W        W28776   6.427  36.312  11.588
56517W        W28777   1.340  38.564   2.796
56518W        W28778  28.765  22.155   0.327
56519W        W28779   4.315   3.106   2.734
56520W        W28780  25.776   2.825  13.945
56521W        W28781  27.628  29.048   3.154
56522W        W28782   3.685  10.867  12.645
56523W        W28783  23.248  20.732   1.004
56524W        W28784  13.635  15.783  14.925
56525W        W28785  37.542  13.638   2.381
56526W        W28786   7.717  21.259   1.175
56527W        W28787   2.291  44.457   0.832
56528W        W28788  41.937  14.687   4.942
56529W        W28789   2.344  31.213  12.643
56530W        W28790  15.236   0.341   1.896
56531W        W28791  34.401  44.298   3.456
56532W        W28792  30.615  34.634   1.493
56533W        W28793  24.922  34.059  12.892
56534W        W28794  26.515  42.675  10.031
56535W        W28795  42.061   3.324   0.894
56536W        W28796  15.206  35.043   3.636
56537W        W28797   8.717  23.634   0.018
56538W        W28798  33.510  32.178   4.125
56539W        W28799  38.559  34.600   4.218
56540W        W28800  11.228  11.812   3.572
56541W        W28801  35.446  17.839  11.096
56542W        W28802  26.952   0.309   4.001
56543W        W28803  27.597  14.928  10.962
56544W        W28804  10.005   6.863  11.785
56545W        W28805  28.920  29.833  11.049
56546W        W28806  33.462  14.848  11.080
56547W        W28807  42.995  28.040   3.270
56548W        W28808  40.234   4.916   1.607
56549W        W28809   6.711   2.202  12.939
56550W        W28810   0.758   6.139  11.766
56551W        W28811  32.375  26.060   1.749
56552W        W28812  33.836  16.207  13.453
56553W        W28813  15.171  41.041   3.692
56554W        W28814  41.880  28.964   4.682
56555W        W28815  12.846  39.817  13.148
56556W        W28816  37.931  43.225   0.186
56557W        W28817  39.559  33.923  12.180
56558W        W28818   7.681  23.486   1.349
56559W        W28819   1.926   0.727  13.448
56560W        W28820  33.112  20.009   1.215
56561W        W28821  32.485  21.275  13.872
56562W        W28822  21.166  36.533   1.474
56563W        W28823  43.188  21.465   4.623
56564W        W28824  33.706   6.773   2.073
56565W        W28825  11.086  40.576   4.486
56566W        W28826  34.742   1.425   2.637
56567W        W28827  36.027  27.677  13.957
56568W        W28828  17.936  41.887   1.654
56569W        W28829  22.051   7.957   1.166
56570W        W28830  15.190  31.941  10.553
56571W        W28831  18.878   9.910   0.698
56572W        W28832  32.905   7.713  11.562
56573W        W28833  44.542   9.144  12.060
56574W        W28834  11.113   0.077  10.971
56575W        W28835  27.920  12.614  11.779
56576W        W28836  40.853   5.850  12.950
56577W        W28837  42.490  34.781   1.144
56578W        W28838  38.599   9.018   5.170
56579W        W28839   4.649  29.146  14.961
56580W        W28840  39.921  37.115  12.124
56581W        W28841  42.320  26.130   3.648
56582W        W28842   5.316  24.576   0.500
56583W        W28843  14.131  13.615  10.062
56584W        W28844  16.485  21.831   2.732
56585W        W28845  11.033  22.774   3.235
56586W        W28846  31.553  20.759   4.563
56587W        W28847  43.022   3.245   4.072
56588W        W28848  39.821   4.746   1.245
56589W        W28849  13.780  22.204   3.338
56590W        W28850  37.857  12.860   1.942
56591W        W28851  25.479  28.057   1.040
56592W        W28852  30.550   4.836  12.072
56593W        W28853   3.742  21.164  12.375
56594W        W28854  38.716   6.025  12.115
56595W        W28855   9.956  37.866   1.295
56596W        W28856  39.382  34.876  11.139
56597W        W28857  38.714   6.293   4.466
56598W        W28858   4.999  26.628   2.473
56599W        W28859  13.160  41.303   2.945
56600W        W28860  26.520  16.895   2.948
56601W        W28861  12.168   9.582   0.476
56602W        W28862  20.695  12.783   4.449
56603W        W28863  15.833  35.499   3.151
56604W        W28864  27.193  30.449  11.157
56605W        W28865  17.818  43.029  13.000
56606W        W28866  24.096  26.235   3.825
56607W        W28867  30.616   0.357  12.559
56608W        W28868  39.596  13.896   0.855
56609W        W28869  41.793   0.026  12.639
56610W        W28870   1.450  17.212   3.334
56611W        W28871   5.397  42.752  10.662
56612W        W28872  13.494  23.414   1.262
56613W        W28873  22.768  12.906   0.303
56614W        W28874   3.334  31.090   2.421
56615W        W28875   9.130  19.427  11.135
56616W        W28876  44.567  29.771   1.497
56617W        W28877  43.490   7.351   3.202
56618W        W28878   6.648  21.575  13.687
56619W        W28879  40.152  32.981   4.315
56620W        W28880  27.170  16.046   1.712
56621W        W28881  42.281   5.642   0.911
56622W        W28882   5.045  44.333  13.473
56623W        W28883  30.580  34.280  11.218
56624W        W28884  12.351  29.813  13.959
56625W        W28885   7.410   0.743  10.720
56626W        W28886   6.253  40.595  10.475
56627W        W28887  10.885   7.699   0.311
56628W        W28888  32.610  43.901   4.226
56629W        W28889  17.751  13.096  13.529
56630W        W28890  39.944  23.127   2.361
56631W        W28891  41.985  12.451  14.885
56632W        W28892   7.766  14.621   2.234
56633W        W28893  13.332  14.087  14.353
56634W        W28894  26.791  40.650  11.831
56635W        W28895  11.822  38.030   2.384
56636W        W28896   0.411  18.060  10.911
56637W        W28897  16.286  27.445   4.005
56638W        W28898  23.733  10.229   0.806
56639W        W28899  11.910   9.704  12.443
56640W        W28900   1.895  41.755  14.536
56641W        W28901  42.511  34.412  12.491
56642W        W28902  14.223   7.914   2.340
56643W        W28903  44.946  30.168  13.987
56644W        W28904  12.576  27.305  10.179
56645W        W28905   0.015  39.844   1.773
56646W        W28906   3.352  41.910   1.969
56647W        W28907  10.816  24.680   3.847
56648W        W28908  29.565  33.654   4.563
56649W        W28909  14.513  44.500   1.970
56650W        W28910   1.721  20.515   4.198
56651W        W28911  27.975   8.856   4.187
56652W        W28912   6.681  35.136  14.698
56653W        W28913  19.536  26.412  13.011
56654W        W28914  11.023   8.247   3.811
56655W        W28915  19.308  42.010  12.910
56656W        W28916  23.161   1.928  10.662
56657W        W28917  44.394  13.600  11.565
56658W        W28918  20.297  26.555   0.249
56659W        W28919  23.459   1.391   1.282
56660W        W28920  23.565   0.898   0.868
56661W        W28921   7.819  17.782  13.081
56662W        W28922  21.239  21.709  10.697
56663W        W28923  10.764   7.654  11.201
56664W        W28924  34.611  36.549  14.895
56665W        W28925  11.365  20.460   1.319
56666W        W28926  18.175  31.476   1.394
56667W        W28927  37.882  24.840   2.291
56668W        W28928  21.960   3.882   0.725
56669W        W28929   1.805  15.151   4.054
56670W        W28930  44.679  25.735  11.288
56671W        W28931   3.847  21.248   3.110
56672W        W28932   3.011  25.049  13.558
56673W        W28933   3.553  21.168   1.326
56674W        W28934  22.312  15.068  11.433
56675W        W28935   8.143   1.737   2.170
56676W        W28936   1.009  31.461   2.663
56677W        W28937  29.721  32.923   3.386
56678W        W28938   6.217  39.008   0.598
56679W        W28939   5.912  27.985  13.867
56680W        W28940  39.057  31.803   0.288
56681W        W28941  17.196  26.875  14.454
56682W        W28942   4.784   2.886  10.812
56683W        W28943   5.953  21.602  14.265
56684W        W28944  11.737  28.088  12.391
56685W        W28945  36.824   1.350   1.741
56686W        W28946   6.010   3.700   0.550
56687W        W28947   2.183  30.055  13.095
56688W        W28948  17.358  15.499   2.059
56689W        W28949   6.848  12.286   0.032
56690W        W28950   5.529  28.747  12.923
56691W        W28951  36.589  41.842   1.235
56692W        W28952  39.985   7.236   3.215
56693W        W28953  40.066  36.428  10.749
56694W        W28954   7.319  19.079  12.992
56695W        W28955   8.473  15.570   0.993
56696W        W28956  41.819  12.905   4.146
56697W        W28957  26.988  16.878   2.037
56698W        W28958  41.908   2.166   2.910
56699W        W28959  23.727  39.258   1.690
56700W        W28960  34.404  16.280   2.806
56701W        W28961  26.131  27.604  11.044
56702W        W28962  23.906  41.877  10.806
56703W        W28963  18.169   4.890  14.195
56704W        W28964  12.580  21.099   2.809
56705W        W28965  44.187   5.855   2.694
56706W        W28966   0.479  36.847   0.496
56707W        W28967  24.453  13.133   3.856
56708W        W28968  31.048  30.935  11.615
56709W        W28969  14.681  10.804   2.815
56710W        W28970  33.896  40.502  13.760
56711W        W28971  26.394  16.231  12.788
56712W        W28972  20.590  28.653   1.894
56713W        W28973  10.870   5.157   0.654
56714W        W28974  32.187   7.852   1.677
56715W        W28975   9.276  42.921  10.686
56716W        W28976  38.675  27.100   2.374
56717W        W28977  12.272  42.717  12.857
56718W        W28978  10.741  36.049   4.138
56719W        W28979   5.891  27.008  11.599
56720W        W28980  39.395  16.281   3.301
56721W        W28981  39.470  24.553   2.333
56722W        W28982  37.278  32.344  14.505
56723W        W28983  15.776  43.198   3.161
56724W        W28984  17.634  12.720  14.738
56725W        W28985  25.704   2.745   4.467
56726W        W28986  25.031  37.404  10.950
56727W        W28987  24.083  33.540  12.011
56728W        W28988  23.113   8.671   0.192
56729W        W28989  38.378  13.642   0.039
56730W        W28990  40.127  13.541  13.422
56731W        W28991  18.056  37.544   3.162
56732W        W28992  17.505   2.669   4.622
56733W        W28993  14.114  25.528  10.658
56734W        W28994  10.288  34.380   1.448
56735W        W28995   9.800   0.908  14.928
56736W        W28996  11.959  32.514   4.294
56737W        W28997  19.500  12.188  10.714
56738W        W28998  23.066  10.261  12.581
56739W        W28999  38.607   6.881   3.204
56740W        W29000  28.536  23.230  11.556
56741W        W29001  30.149  29.668  13.010
56742W        W29002  26.014   1.197  11.143
56743W        W29003  32.066  39.447   0.636
56744W        W29004   9.214  43.322   0.255
56745W        W29005  21.139  12.618   2.632
56746W        W29006   5.343   9.356  10.817
56747W        W29007   7.908  29.154   0.304
56748W        W29008  38.243   3.468   4.049
56749W        W29009  39.371  42.647  14.553
56750W        W29010  28.082   2.253  14.844
56751W        W29011  16.668  36.514   0.260
56752W        W29012  29.017  15.621  11.950
56753W        W29013  39.183  19.351   5.046
56754W        W29014   4.560   4.782  12.344
56755W        W29015  17.885  21.722  11.027
56756W        W29016  26.545  18.259  11.599
56757W        W29017  36.832  11.116   0.394
56758W        W29018  41.421  29.709   2.321
56759W        W29019  10.772  22.076   4.635
56760W        W29020   4.786  41.616   0.360
56761W        W29021  44.876  33.247  11.608
56762W        W29022  22.701   3.636   1.287
56763W        W29023  27.481  20.495   4.809
56764W        W29024   3.360  27.230   1.744
56765W        W29025  19.553  43.527   1.783
56766W        W29026  17.767  44.617  13.820
56767W        W29027   2.952  30.100   1.351
56768W        W29028  32.540  20.085   5.035
56769W        W29029  39.856   2.492   1.856
56770W        W29030  10.043   4.319  11.179
56771W        W29031  29.031  16.276  11.652
56772W        W29032  18.638  25.451  13.773
56773W        W29033  17.086  15.148   1.816
56774W        W29034  43.774  44.440  14.885
56775W        W29035  38.451   1.313  11.184
56776W        W29036  26.865   1.792  10.676
56777W        W29037   3.155  30.624  12.541
56778W        W29038  43.620   1.748   0.252
56779W        W29039  38.431   6.993  13.619
56780W        W29040  41.938  13.057  11.089
56781W        W29041  21.095  15.856   4.157
56782W        W29042  12.257  21.559   1.344
56783W        W29043  10.201  37.845  11.953
56784W        W29044  39.627  15.087   2.800
56785W        W29045  42.306  42.248  11.254
56786W        W29046   9.258  26.734   3.497
56787W        W29047   2.314  23.609  12.166
56788W        W29048  25.493  11.355  14.989
56789W        W29049  37.949  35.579   2.389
56790W        W29050  28.629  14.032  14.078
56791W        W29051  31.357  25.529  12.076
56792W        W29052  29.614   8.857   5.007
56793W        W29053  15.863  31.589   0.889
56794W        W29054  21.521   1.946   4.590
56795W        W29055  21.055  37.327   2.413
56796W        W29056  24.077  22.599   2.355
56797W        W29057  32.089   9.284   1.400
56798W        W29058  10.725  14.300  12.323
56799W        W29059  36.804  38.555  14.035
56800W        W29060  10.865  36.768  14.453
56801W        W29061   6.125  17.556   1.952
56802W        W29062  25.457   0.061  12.464
56803W        W29063   2.887  19.743   0.894
56804W        W29064  39.923  16.246  11.923
56805W        W29065   6.195  31.091   2.393
56806W        W29066  18.053   3.716   4.265
56807W        W29067   5.639   8.289  11.620
56808W        W29068   4.260  37.791  10.852
56809W        W29069  21.927  32.341  11.015
56810W        W29070  40.290  31.913  13.501
56811W        W29071   5.657   7.884  13.347
56812W        W29072  31.978  28.739  11.972
56813W        W29073  10.335   9.086   2.918
56814W        W29074  21.358  12.527   0.293
56815W        W29075  43.530  26.335  10.474
56816W        W29076  29.794  25.868   3.502
56817W        W29077  27.661   2.981   3.209
56818W        W29078  40.808   1.266   4.605
56819W        W29079   8.935   5.659  10.611
56820W        W29080  14.723  34.144   4.491
56821W        W29081  36.598  35.412   4.502
56822W        W29082  11.870  12.075   0.930
56823W        W29083  27.871  42.407   1.124
56824W        W29084  32.590  31.800  13.969
56825W        W29085  23.634  40.057   0.363
56826W        W29086  12.196  29.925   5.421
56827W        W29087  42.913  20.239  13.530
56828W        W29088  29.961  15.034   1.404
56829W        W29089  13.618  38.596  10.556
56830W        W29090  42.495  30.592   0.774
56831W        W29091  30.045   8.950  14.447
56832W        W29092  11.016  32.718   2.738
56833W        W29093  22.114   7.869  10.535
56834W        W29094  21.533  34.526   3.150
56835W        W29095  31.570   9.674   1.745
56836W        W29096  28.415  10.261  13.552
56837W        W29097  11.888   0.501   2.168
56838W        W29098  11.068  34.762  12.530
56839W        W29099  30.113  37.883   1.471
56840W        W29100   6.284  29.434  11.083
56841W        W29101  10.605  22.711  14.101
56842W        W29102  28.977  17.280  14.469
56843W        W29103  14.327  31.366   2.404
56844W        W29104  27.929  43.346   0.796
56845W        W29105  36.485  12.188  12.570
56846W        W29106  19.629  38.031   1.772
56847W        W29107  11.720  18.403  13.505
56848W        W29108   6.616  41.259  13.623
56849W        W29109  35.647  34.480   0.441
56850W        W29110  38.576  18.552   4.212
56851W        W29111  22.725  17.762  12.479
56852W        W29112  17.249  27.122   4.667
56853W        W29113   7.726  18.303   2.422
56854W        W29114  18.652  28.860  13.033
56855W        W29115  25.441  30.075  11.464
56856W        W29116  40.829  23.564   3.097
56857W        W29117  20.119   5.162   1.737
56858W        W29118  21.853   5.520  14.183
56859W        W29119  22.622   2.835   2.243
56860W        W29120  22.496  40.505   4.044
56861W        W29121  11.883  14.131  14.388
56862W        W29122  43.346  26.030  14.780
56863W        W29123  40.546  16.267  13.386
56864W        W29124  36.159  33.288  11.567
56865W        W29125  29.326  11.881  10.166
56866W        W29126  39.058   5.664  12.006
56867W        W29127  34.167  25.262   4.880
56868W        W29128  25.313  16.806   4.079
56869W        W29129  17.603   9.718  11.222
56870W        W29130  14.768  31.651  10.659
56871W        W29131  27.886  14.808  14.510
56872W        W29132   5.274  10.414  14.213
56873W        W29133  19.335   2.648  13.059
56874W        W29134  18.152   7.690   1.243
56875W        W29135   5.405   8.551   3.086
56876W        W29136  21.289  39.009   2.560
56877W        W29137  17.753  31.630   0.721
56878W        W29138  18.736   1.265   4.870
56879W        W29139   8.283  16.090   0.210
56880W        W29140  34.935  14.589   3.133
56881W        W29141  16.930  26.080  13.041
56882W        W29142  40.949  33.541  14.781
56883W        W29143  17.782  36.335   4.695
56884W        W29144  39.819  44.490   2.435
56885W        W29145   5.967  31.591  13.411
56886W        W29146  36.819   3.454  14.557
56887W        W29147  36.143   9.220   0.293
56888W        W29148  39.515  13.023   2.778
56889W        W29149  40.522   0.105   0.384
56890W        W29150   8.578  43.014  12.827
56891W        W29151  28.650   8.997   4.643
56892W        W29152  36.590  24.625   4.099
56893W        W29153  42.778  23.903   2.365
56894W        W29154  33.457  27.867  10.465
56895W        W29155  19.999  41.577   0.440
56896W        W29156  14.835  43.342   3.084
56897W        W29157  16.789   6.781  12.005
56898W        W29158  16.268  23.727   2.245
56899W        W29159  36.545   0.915   1.828
56900W        W29160  25.774  36.337   4.533
56901W        W29161   8.876  20.588   4.892
56902W        W29162   6.665  29.732   3.220
56903W        W29163  36.324  42.008   3.998
56904W        W29164  31.440  40.470  11.932
56905W        W29165  34.963  33.920   2.015
56906W        W29166  20.939  42.527   3.279
56907W        W29167  26.930  21.643  13.054
56908W        W29168  13.195  36.678   0.005
56909W        W29169  27.770  36.161   2.254
56910W        W29170  23.201  20.606  10.195
56911W        W29171  34.228   3.438   2.676
56912W        W29172  36.829  38.476  11.909
56913W        W29173   1.883   1.217  14.570
56914W        W29174  37.608  10.437   0.019
56915W        W29175  21.457  15.225   2.851
56916W        W29176  35.897  33.950  12.516
56917W        W29177  19.516  35.011  10.429
56918W        W29178   0.502  43.789   0.852
56919W        W29179  18.794   3.759   3.570
56920W        W29180  15.602  24.140  13.966
56921W        W29181  23.529  41.392   2.391
56922W        W29182   0.445  41.167   4.014
56923W        W29183  14.266  27.597   4.217
56924W        W29184  30.457  11.978   4.518
56925W        W29185  24.496  31.611   2.835
56926W        W29186  27.728  16.690   0.808
56927W        W29187   5.942  37.532  12.958
56928W        W29188   1.520  43.441   2.763
56929W        W29189  11.062  30.694  13.471
56930W        W29190  11.127  32.094  12.976
56931W        W29191  41.068  14.846  11.846
56932W        W29192   1.138   1.031   1.191
56933W        W29193  13.674  37.135   4.337
56934W        W29194  20.658  20.661   2.234
56935W        W29195  41.316  29.428   4.078
56936W        W29196  13.050  10.200   1.874
56937W        W29197  32.396  20.002  13.501
56938W        W29198  17.520  20.539  14.387
56939W        W29199  12.727  42.290  10.778
56940W        W29200  11.655  34.852   0.329
56941W        W29201  21.074   9.107  10.723
56942W        W29202  19.794  35.891  14.954
56943W        W29203  36.398  10.744  11.944
56944W        W29204  28.340  26.129   2.922
56945W        W29205  24.685  27.723   1.972
56946W        W29206  37.548  38.910   1.838
56947W        W29207   6.124  18.602   0.698
56948W        W29208  38.568  26.823   5.232
56949W        W29209  41.467   8.335  11.126
56950W        W29210  25.786  36.630  12.041
56951W        W29211  25.176  42.856   4.146
56952W        W29212   1.356  32.457   4.434
56953W        W29213  17.143  38.398   4.933
56954W        W29214  29.051   4.816  14.943
56955W        W29215  27.434  21.058   3.740
56956W        W29216   4.790  18.083   1.885
56957W        W29217   4.960   4.349   0.181
56958W        W29218  27.274  28.760   2.344
56959W        W29219  43.999   3.353  11.998
56960W        W29220  15.577  27.411   1.832
56961W        W29221  34.935   8.204  13.791
56962W        W29222  33.548  38.562   2.684
56963W        W29223   2.724  25.003  14.973
56964W        W29224  37.654  38.378   2.360
56965W        W29225  37.426  33.970  11.630
56966W        W29226   7.257  19.863   3.697
56967W        W29227  16.762  10.879   3.248
56968W        W29228  32.090  35.801  11.105
56969W        W29229   6.730  34.982   2.573
56970W        W29230   8.906  25.550  11.133
56971W        W29231   1.585   4.817   1.424
56972W        W29232  27.068  37.566   0.689
56973W        W29233  25.931  18.238  14.793
56974W        W29234  35.532  37.094  14.308
56975W        W29235   3.821  10.738   3.845
56976W        W29236  25.620  42.381   0.215
56977W        W29237  18.237  35.146  13.922
56978W        W29238   8.672  22.498  12.015
56979W        W29239  19.603  39.894   3.168
56980W        W29240  23.124  36.855  13.892
56981W        W29241  33.855  35.492   0.503
56982W        W29242  22.245   8.763   5.133
56983W        W29243  29.889  41.023  12.947
56984W        W29244  30.885  40.543   2.131
56985W        W29245  43.984  29.090   3.406
56986W        W29246  15.686   1.666   4.842
56987W        W29247   1.751  19.849  13.287
56988W        W29248  33.662  28.546   4.802
56989W        W29249  42.390  16.083  13.200
56990W        W29250   3.890   2.344   3.678
56991W        W29251  21.738  35.444   3.295
56992W        W29252   5.385   3.852  12.368
56993W        W29253   9.093  41.041  13.823
56994W        W29254  12.293  15.317  12.492
56995W        W29255  42.950  26.543   1.929
56996W        W29256   2.713  24.908   5.121
56997W        W29257  19.377  29.041   3.799
56998W        W29258  12.190  43.317  11.549
56999W        W29259  15.048  17.275   2.819
57000W        W29260  29.507   0.396   4.515
57001W        W29261  40.765  15.137   3.781
57002W        W29262  12.054  10.674   4.536
57003W        W29263  14.848  43.230  12.914
57004W        W29264   2.799  15.826  10.705
57005W        W29265  17.805  35.313   3.009
57006W        W29266   1.273  40.529   4.335
57007W        W29267  37.489  18.144   1.723
57008W        W29268  29.302  30.201  11.944
57009W        W29269   0.719   8.396  11.488
57010W        W29270  33.642   4.119  12.676
57011W        W29271  30.194  43.859   1.971
57012W        W29272  39.271  13.264   0.367
57013W        W29273  36.910  43.740  12.590
57014W        W29274  35.862  23.510  12.525
57015W        W29275  28.505   3.474   1.353
57016W        W29276  41.547   2.424   4.061
57017W        W29277  35.955   6.626  14.011
57018W        W29278   5.185  12.352  11.024
57019W        W29279  33.980  27.720   2.335
57020W        W29280   1.119  32.879  13.838
57021W        W29281  15.323  36.467   4.723
57022W        W29282  25.984  15.652  14.219
57023W        W29283  10.672  30.419  10.644
57024W        W29284   8.782  29.883  11.200
57025W        W29285  18.579   9.731  11.074
57026W        W29286  31.373  16.172  13.359
57027W        W29287  31.432  43.693  12.078
57028W        W29288   8.173  22.548  12.045
57029W        W29289  24.785   4.632   0.465
57030W        W29290  13.580  33.924  13.982
57031W        W29291  26.508  22.516  12.827
57032W        W29292  10.844  33.756   2.674
57033W        W29293  30.663  13.350   1.242
57034W        W29294  31.115  17.183   1.822
57035W        W29295  15.623  28.139  11.079
57036W        W29296  28.537  30.905   4.472
57037W        W29297  10.001  43.647  12.065
57038W        W29298  32.895  38.357  13.528
57039W        W29299  30.438   6.799  13.990
57040W        W29300  15.374   1.288   4.566
57041W        W29301  22.721  19.220   0.953
57042W        W29302  40.789  14.800  13.839
57043W        W29303  28.147  36.516   2.243
57044W        W29304  44.444  14.641  10.781
57045W        W29305  37.021   3.269  13.113
57046W        W29306  27.791  24.132  10.696
57047W        W29307  32.740  13.620  12.314
57048W        W29308  20.627  10.143  11.407
57049W        W29309   5.706  24.127   2.673
57050W        W29310   0.949  37.965  13.949
57051W        W29311  16.716   6.364   5.482
57052W        W29312   6.143  23.097  10.705
57053W        W29313   7.887  25.807   5.201
57054W        W29314  39.236  28.471  14.468
57055W        W29315  44.365  23.495  13.487
57056W        W29316   4.874  17.640  13.339
57057W        W29317   1.287  41.241  11.573
57058W        W29318  18.143  23.644   3.365
57059W        W29319  37.962  27.185  14.822
57060W        W29320  31.400  19.713   1.948
57061W        W29321  10.369  10.292   4.805
57062W        W29322  23.730  28.128  10.723
57063W        W29323   5.262   9.409  12.600
57064W        W29324   6.686  33.622  11.948
57065W        W29325  42.827  28.165  12.935
57066W        W29326  31.904  23.801   4.516
57067W        W29327  11.319   6.489  13.494
57068W        W29328  20.783  16.246   4.336
57069W        W29329   8.619  22.843   1.897
57070W        W29330  13.306  41.422   3.454
57071W        W29331   9.144  37.648  12.517
57072W        W29332   4.769  30.133   2.632
57073W        W29333  22.335  41.289   4.495
57074W        W29334  38.458  44.993  11.258
57075W        W29335  17.265  17.295  10.597
57076W        W29336  43.698  11.410  12.634
57077W        W29337  36.685   9.282   2.548
57078W        W29338  24.114  25.553  12.153
57079W        W29339   7.136  35.616   1.411
57080W        W29340  40.084  13.458  14.261
57081W        W29341  30.333  14.345   2.864
57082W        W29342  15.542  21.227  13.752
57083W        W29343   6.551  32.081   5.000
57084W        W29344  41.120   0.059  10.846
57085W        W29345  10.152  23.207  12.538
57086W        W29346  34.543   1.819   2.362
57087W        W29347  27.194  10.733  12.899
57088W        W29348   8.859  38.551   0.560
57089W        W29349  20.746  28.297   4.194
57090W        W29350  16.634  13.356  10.742
57091W        W29351   3.760   8.313   5.210
57092W        W29352   1.478  30.915  14.782
57093W        W29353  30.619   1.730   2.161
57094W        W29354   3.376  23.386  11.407
57095W        W29355  29.501  20.331  13.489
57096W        W29356  38.800  32.173   1.804
57097W        W29357   0.352   7.456  11.710
57098W        W29358  35.905   6.698  12.934
57099W        W29359  43.327   9.895   4.351
57100W        W29360   0.668   2.967   4.935
57101W        W29361   5.309  20.047  11.153
57102W        W29362  29.352   6.525  12.569
57103W        W29363  33.331   2.032   0.321
57104W        W29364  41.273  30.117  14.089
57105W        W29365  37.491  23.460  12.144
57106W        W29366  25.886  36.952  14.378
57107W        W29367   2.121  10.854  14.976
57108W        W29368  31.790  37.910   3.825
57109W        W29369  39.969  20.045   2.620
57110W        W29370   5.991   9.667  11.590
57111W        W29371   4.023  34.310   1.282
57112W        W29372  14.324  32.644  12.404
57113W        W29373  35.473  38.352   2.446
57114W        W29374  15.130   6.449  13.083
57115W        W29375  30.856  32.924  11.404
57116W        W29376  40.930   7.884  12.050
57117W        W29377  25.312  26.562  13.565
57118W        W29378  29.891  34.074   0.542
57119W        W29379  32.552  25.280   1.292
57120W        W29380  26.595  44.585   3.321
57121W        W29381  26.987   5.740   1.139
57122W        W29382   0.416  24.250   2.847
57123W        W29383   9.340   0.730  10.398
57124W        W29384  27.139   2.664  12.604
57125W        W29385  33.135  13.184   1.956
57126W        W29386  22.597   2.523   4.848
57127W        W29387  28.428  15.334  12.085
57128W        W29388  39.311   0.690   2.569
57129W        W29389  22.952  19.705   3.179
57130W        W29390  21.085  27.246  10.682
57131W        W29391  31.602  30.503  10.090
57132W        W29392  18.747  34.829   4.191
57133W        W29393  18.687  39.862  13.744
57134W        W29394  40.930  41.818  13.854
57135W        W29395   5.502  21.515  12.907
57136W        W29396  19.004   9.881  12.510
57137W        W29397  19.094   0.555  10.766
57138W        W29398   6.690  15.478  14.368
57139W        W29399   3.868  23.475  11.504
57140W        W29400  43.602  20.592  14.387
57141W        W29401  42.970  25.606  12.557
57142W        W29402  36.314  12.944   9.984
57143W        W29403   8.188   4.599  13.907
57144W        W29404   7.212  25.988  11.048
57145W        W29405   9.386  39.689  12.506
57146W        W29406  39.052   0.307  11.426
57147W        W29407  38.226  25.329   9.851
57148W        W29408  22.152  32.521   1.773
57149W        W29409  13.109   8.226   2.042
57150W        W29410  33.345  41.047  10.535
57151W        W29411   9.689  43.475   0.390
57152W        W29412  19.695  36.894  13.446
57153W        W29413  43.585  17.807   2.679
57154W        W29414   0.700  38.291  12.495
57155W        W29415  16.282   1.034  14.792
57156W        W29416  27.218  43.234   0.337
57157W        W29417   9.139  43.903  12.108
57158W        W29418  13.373  27.620   0.029
57159W        W29419  19.981  15.053   2.730
57160W        W29420   9.099  27.534  14.357
57161W        W29421  29.162  39.478   4.618
57162W        W29422  35.820  43.030   0.328
57163W        W29423   9.928  31.919  12.268
57164W        W29424  23.924  41.475  12.901
57165W        W29425  29.571  40.377  11.350
57166W        W29426  35.504  42.759  12.880
57167W        W29427  32.749  12.825  11.001
57168W        W29428   1.946  21.034   3.279
57169W        W29429  14.051  29.126  13.067
57170W        W29430  24.502  17.072  12.889
57171W        W29431  39.587   5.789  12.085
57172W        W29432  22.188  28.324   2.810
57173W        W29433  24.471  42.967  11.577
57174W        W29434  10.138  42.534  10.726
57175W        W29435  16.186  38.751   1.263
57176W        W29436  38.166  32.844   3.297
57177W        W29437   5.294   7.494  14.274
57178W        W29438  16.127   0.705  13.855
57179W        W29439  23.243  10.428   2.709
57180W        W29440  29.551  35.368  10.983
57181W        W29441   0.712   4.435  10.250
57182W        W29442   8.782  44.957   0.850
57183W        W29443  38.075  37.036  10.664
57184W        W29444  24.514  33.170   2.372
57185W        W29445  18.294   9.813   0.093
57186W        W29446  15.980  35.902  11.208
57187W        W29447  24.689  36.660  10.781
57188W        W29448  31.278   2.378   2.374
57189W        W29449  20.568  12.287  13.483
57190W        W29450  16.748  25.846  11.584
57191W        W29451  22.657  19.493  12.102
57192W        W29452   2.182  38.906   3.690
57193W        W29453  13.991  18.535  10.560
57194W        W29454  18.088  10.138   0.462
57195W        W29455  27.767  17.008   2.236
57196W        W29456  29.023  15.218   3.213
57197W        W29457  22.163  14.141   0.045
57198W        W29458  27.967  33.890   0.831
57199W        W29459   6.426  42.876   1.756
57200W        W29460  18.218  29.470   2.661
57201W        W29461   6.458  24.809  11.130
57202W        W29462  23.422  30.288   1.473
57203W        W29463   4.358  14.219   2.879
57204W        W29464  36.704  34.158   2.336
57205W        W29465   2.238  31.677  11.895
57206W        W29466  33.343  24.132  12.870
57207W        W29467  13.105  34.480  12.436
57208W        W29468   3.358   4.503   4.133
57209W        W29469  23.457  19.220   1.762
57210W        W29470  16.125   5.405   0.345
57211W        W29471   4.174  15.266  13.408
57212W        W29472   7.186  32.045  11.909
57213W        W29473   2.962  10.036  11.182
57214W        W29474   3.641  25.424   2.844
57215W        W29475  44.797  34.814   2.835
57216W        W29476  19.782  18.086   0.172
57217W        W29477  42.893   7.958   0.045
57218W        W29478  11.305  44.432   4.163
57219W        W29479  17.013  30.567   1.258
57220W        W29480   5.952  41.141   2.145
57221W        W29481  19.212  28.632  13.969
57222W        W29482  37.951  12.606  10.685
57223W        W29483  14.699  10.209   4.171
57224W        W29484  37.402  13.590  13.001
57225W        W29485  42.134  11.008  12.533
57226W        W29486   5.696   2.779   3.529
57227W        W29487   3.880   8.716   3.306
57228W        W29488  32.511  17.798  11.511
57229W        W29489   1.889  41.502   4.561
57230W        W29490  21.556   6.256   0.475
57231W        W29491  26.011  25.291   0.501
57232W        W29492   0.493  43.351  11.064
57233W        W29493  42.475  27.490  11.718
57234W        W29494  30.087  17.284  12.039
57235W        W29495  43.327  27.181  14.046
57236W        W29496  40.878  21.102   2.649
57237W        W29497  27.685  26.498   0.843
57238W        W29498  29.057  18.136   2.682
57239W        W29499  24.543   0.388  13.980
57240W        W29500   3.401   2.224  10.629
57241W        W29501   7.755  22.441   4.646
57242W        W29502  33.137  18.288   0.269
57243W        W29503   3.762  21.112  11.377
57244W        W29504  10.035  30.599   1.574
57245W        W29505  24.237  22.973  10.281
57246W        W29506  33.282  14.809   2.278
57247W        W29507   7.820  39.787   2.247
57248W        W29508  36.533   4.467  14.045
57249W        W29509  36.418  37.536  11.422
57250W        W29510  30.723  39.823   2.779
57251W        W29511  23.395  13.740   0.276
57252W        W29512   5.716  22.032   4.407
57253W        W29513  22.015  31.114  13.432
57254W        W29514  31.197  30.525  14.875
57255W        W29515   2.830   1.641   0.441
57256W        W29516   3.520  25.547   0.244
57257W        W29517  33.821   1.316  14.274
57258W        W29518  42.366   3.484  10.334
57259W        W29519   0.472   5.158   4.253
57260W        W29520  37.556   1.045  13.396
57261W        W29521   2.171  40.570  12.479
57262W        W29522  39.445   5.294  10.738
57263W        W29523   7.981  23.262  13.519
57264W        W29524  36.578  26.054   0.917
57265W        W29525  16.917   0.771   2.290
57266W        W29526  38.122  39.838   0.760
57267W        W29527  43.057   0.229   4.072
57268W        W29528  39.562  40.124   4.497
57269W        W29529   3.253  11.564  14.584
57270W        W29530  20.998  42.091  14.382
57271W        W29531  20.088  30.885   1.643
57272W        W29532  19.055  21.307   1.662
57273W        W29533   9.158  10.594  11.065
57274W        W29534  11.228   8.762  11.637
57275W        W29535   9.408  27.438   3.035
57276W        W29536  25.450   6.330   2.717
57277W        W29537  24.153   2.065  14.717
57278W        W29538  39.996  34.787   0.900
57279W        W29539   5.540   9.438   0.401
57280W        W29540   1.609  37.938  11.798
57281W        W29541   8.689  10.243   4.368
57282W        W29542  40.027  17.956  14.800
57283W        W29543  21.011  21.187   4.167
57284W        W29544   9.762  36.586  12.011
57285W        W29545  36.034  23.505   2.970
57286W        W29546   3.171  32.498   1.334
57287W        W29547  23.553  18.739  10.538
57288W        W29548  17.540  10.260  13.847
57289W        W29549  22.748  32.407  14.849
57290W        W29550  10.921   0.237  12.508
57291W        W29551  23.599  26.930   5.065
57292W        W29552  32.983  31.185   4.008
57293W        W29553  13.354  12.424   0.708
57294W        W29554   3.441  29.301   4.619
57295W        W29555  23.073  20.275  12.498
57296W        W29556   8.204  12.658   0.808
57297W        W29557   5.622  44.836  10.599
57298W        W29558   6.333  40.726   0.881
57299W        W29559  29.606   9.203   2.050
57300W        W29560  31.480  24.178  12.428
57301W        W29561  21.499  15.605   4.389
57302W        W29562  34.641   8.859   2.784
57303W        W29563  34.505   7.646  14.940
57304W        W29564  13.359  15.866  13.942
57305W        W29565  21.802   6.212  12.552
57306W        W29566  35.703  15.915  14.007
57307W        W29567   2.223  36.353  12.484
57308W        W29568  36.823  17.876   0.934
57309W        W29569  25.533  12.796  13.816
57310W        W29570  13.439   0.945  13.899
57311W        W29571   5.962   4.810  11.018
57312W        W29572  22.267  23.272   4.034
57313W        W29573  37.177  42.724  14.987
57314W        W29574   8.107  35.539   2.382
57315W        W29575  33.862  20.526  13.745
57316W        W29576  10.417   0.434  12.452
57317W        W29577  15.328  22.800   3.541
57318W        W29578  20.478  35.924  13.293
57319W        W29579  39.454  40.567  14.848
57320W        W29580  27.083  14.184  10.429
57321W        W29581  40.408  29.058  12.775
57322W        W29582  31.951  43.663  12.062
57323W        W29583  32.537  18.610   4.329
57324W        W29584  36.164  41.505  13.910
57325W        W29585  22.238  22.107   0.345
57326W        W29586   0.781  12.893  14.453
57327W        W29587   3.519  20.255   4.727
57328W        W29588  33.164  31.971  12.382
57329W        W29589  14.484  23.368  11.224
57330W        W29590  29.387  36.381  11.176
57331W        W29591   0.141  12.320  13.354
57332W        W29592  42.378  12.862  12.812
57333W        W29593  13.529   7.991   2.823
57334W        W29594   6.839  19.123  11.331
57335W        W29595  13.523  28.936   1.894
57336W        W29596  31.091  35.389  11.669
57337W        W29597  28.901   8.457  14.675
57338W        W29598  41.240  27.410   4.560
57339W        W29599  15.609   5.823  14.023
57340W        W29600  39.350  39.408   2.628
57341W        W29601  37.061  19.853   0.386
57342W        W29602  40.898  44.462  13.429
57343W        W29603  44.578  14.554  14.727
57344W        W29604  29.898   2.958  13.876
57345W        W29605  28.680  27.352   0.678
57346W        W29606  15.272  40.498  11.269
57347W        W29607   7.182  23.703   4.967
57348W        W29608  37.110  29.427  11.661
57349W        W29609  30.585  44.557  12.247
57350W        W29610  28.478  20.925   3.709
57351W        W29611  41.925  22.629   1.543
57352W        W29612  42.318  35.507  11.445
57353W        W29613  29.751  22.232  13.315
57354W        W29614   5.867  42.541  11.581
57355W        W29615   9.422   7.728   1.408
57356W        W29616   5.297  16.152  13.875
57357W        W29617  19.107  10.452   1.819
57358W        W29618  35.006  33.066   0.407
57359W        W29619   6.793  41.990   1.296
57360W        W29620  11.240  42.822  11.542
57361W        W29621   6.385   5.409  13.330
57362W        W29622  17.138  26.708   1.373
57363W        W29623  26.182   7.664   1.282
57364W        W29624   2.888  22.599   3.206
57365W        W29625   7.227  38.833  14.912
57366W        W29626  23.601  16.118  12.231
57367W        W29627   8.189  40.663  12.127
57368W        W29628  30.693   1.280  12.034
57369W        W29629  28.708  39.966  12.342
57370W        W29630  36.011   2.024   0.295
57371W        W29631   5.999  15.292  12.875
57372W        W29632  18.272   4.339  13.436
57373W        W29633  17.090   4.944  13.773
57374W        W29634   0.866  36.085   2.628
57375W        W29635  16.222  11.652   3.146
57376W        W29636  12.348   0.435  14.336
57377W        W29637  37.461  15.349   1.411
57378W        W29638  30.532  33.424   3.131
57379W        W29639   9.100   8.354  12.004
57380W        W29640  21.086  21.015   1.370
57381W        W29641  36.157   8.344   2.684
57382W        W29642   6.282  44.833   4.321
57383W        W29643  41.088  20.303   3.216
57384W        W29644  22.799  38.345  11.223
57385W        W29645  25.557   2.631   3.072
57386W        W29646  12.272   6.308   0.980
57387W        W29647  12.088  19.754  14.597
57388W        W29648  44.857  41.296  11.554
57389W        W29649   0.685   2.950  14.328
57390W        W29650   9.922  14.001  11.325
57391W        W29651  35.041  27.120   2.681
57392W        W29652  32.798  19.138  10.256
57393W        W29653  17.793  25.050   1.307
57394W        W29654  36.284   9.835  12.553
57395W        W29655   7.526  39.130  11.602
57396W        W29656  28.784  27.500  13.807
57397W        W29657  40.780  35.265  14.243
57398W        W29658  16.618  15.525  11.494
57399W        W29659   9.387  35.535   3.713
57400W        W29660   5.672  23.085  11.470
57401W        W29661   7.736   0.524   4.582
57402W        W29662  39.067  10.285  12.271
57403W        W29663  19.180  38.787  12.517
57404W        W29664   3.356  29.998  12.149
57405W        W29665  38.479   0.982   3.698
57406W        W29666  23.225  19.978   5.041
57407W        W29667  35.077  21.865   5.123
57408W        W29668   8.670  13.770   3.382
57409W        W29669  42.935  27.364  12.363
57410W        W29670  44.183   8.872  12.945
57411W        W29671  11.868  39.272  13.362
57412W        W29672  41.056  14.698  10.890
57413W        W29673  13.600   2.401  10.653
57414W        W29674  28.550   5.390  11.349
57415W        W29675  21.712   3.352   3.304
57416W        W29676   0.639  29.875   0.804
57417W        W29677  33.484   8.758   1.337
57418W        W29678   7.898  26.971   2.798
57419W        W29679  44.582   1.822  11.097
57420W        W29680   1.747   4.900   3.147
57421W        W29681  10.708  20.608   3.551
57422W        W29682  20.069  17.345  13.475
57423W        W29683  20.748   8.800  11.145
57424W        W29684  19.720  23.509   3.367
57425W        W29685  16.021  30.986  13.115
57426W        W29686   6.368  16.282  12.970
57427W        W29687  15.081  25.679   3.724
57428W        W29688  17.986  27.242   2.149
57429W        W29689  38.884  12.181   2.187
57430W        W29690  11.549  30.191   4.271
57431W        W29691   3.506  24.259   0.155
57432W        W29692  40.916  17.524   4.212
57433W        W29693  25.726  15.202  14.321
57434W        W29694  31.928  13.399   3.320
57435W        W29695  44.629  16.791   4.477
57436W        W29696  35.475  30.587   2.943
57437W        W29697  20.003  23.949   2.835
57438W        W29698  16.089  11.260   3.777
57439W        W29699  40.483   7.761  13.568
57440W        W29700  28.716  31.508  14.204
57441W        W29701   7.511  27.655   4.753
57442W        W29702   1.401  22.066  11.170
57443W        W29703  42.288  39.360   2.721
57444W        W29704  34.533   9.589   4.205
57445W        W29705  41.654  11.958   4.214
57446W        W29706  34.037  18.483  10.275
57447W        W29707   3.019   5.765   1.136
57448W        W29708   9.150  20.800  12.635
57449W        W29709   5.430  24.979   2.302
57450W        W29710   4.964  42.773   3.726
57451W        W29711   6.692  36.264   0.862
57452W        W29712  26.988  10.280   4.272
57453W        W29713  17.127  34.583   1.466
57454W        W29714  35.932  27.151  13.894
57455W        W29715  11.141   6.619  10.628
57456W        W29716  13.864  32.595   2.327
57457W        W29717  11.236   5.524  14.010
57458W        W29718  24.743  38.073   0.689
57459W        W29719  26.685   8.683   0.374
57460W        W29720   5.442  28.766   5.823
57461W        W29721  40.920  38.071  14.973
57462W        W29722  21.066   3.319   3.766
57463W        W29723  33.465   3.427  14.212
57464W        W29724  23.000  44.552  12.309
57465W        W29725  30.481  17.105   3.146
57466W        W29726  29.686  37.047  14.873
57467W        W29727   0.783  23.664   0.327
57468W        W29728  11.310   7.336   3.477
57469W        W29729   9.919  13.732   1.296
57470W        W29730  20.734  21.813  10.614
57471W        W29731   7.017  30.652   1.316
57472W        W29732   5.011  22.490   4.679
57473W        W29733  32.027  31.108  12.481
57474W        W29734  16.698   2.506   3.096
57475W        W29735  11.798  39.860  12.027
57476W        W29736  33.678  42.957  13.370
57477W        W29737  17.562  31.969  14.398
57478W        W29738   4.361  16.855  11.130
57479W        W29739   2.652  15.597   0.956
57480W        W29740   5.257  42.499   3.234
57481W        W29741  42.096  15.207  12.048
57482W        W29742   0.832  37.494  13.001
57483W        W29743   1.422  22.023  14.848
57484W        W29744  18.116  38.260   4.121
57485W        W29745  38.506  16.224  14.870
57486W        W29746  38.445  35.163   3.284
57487W        W29747  17.794  38.414   0.399
57488W        W29748   4.568  29.538  11.967
57489W        W29749  15.279  18.765  11.163
57490W        W29750  36.670  37.490  13.365
57491W        W29751  18.429   8.290  12.517
57492W        W29752   8.612  17.708  13.886
57493W        W29753  36.879  14.751   4.642
57494W        W29754  27.150  39.337  12.029
57495W        W29755  21.226   2.032   2.193
57496W        W29756  39.022   3.842   3.850
57497W        W29757  13.180  33.902   2.792
57498W        W29758  37.323  23.053   0.131
57499W        W29759  37.883  33.394   1.132
57500W        W29760  33.034  14.943   0.938
57501W        W29761  30.384  24.909  12.427
57502W        W29762  10.589   6.671  13.533
57503W        W29763   2.781  32.056   0.785
57504W        W29764  32.865  14.529  13.576
57505W        W29765  23.542  33.457   4.532
57506W        W29766  20.732  39.795  12.045
57507W        W29767  18.681  30.422   3.301
57508W        W29768  25.442  22.194   1.264
57509W        W29769   0.852  42.386   3.181
57510W        W29770  21.578  40.038  11.110
57511W        W29771  15.242  20.311  13.362
57512W        W29772  10.756   4.293  13.958
57513W        W29773  14.288  14.757   5.515
57514W        W29774  11.732  41.479  12.429
57515W        W29775  30.533  31.232   2.770
57516W        W29776  21.824   6.734  13.426
57517W        W29777  25.895  25.689  14.482
57518W        W29778  24.087  17.121   0.364
57519W        W29779  43.535  23.565  10.671
57520W        W29780  29.070  10.115   0.296
57521W        W29781  35.012  35.874   9.847
57522W        W29782  23.247  25.302  12.530
57523W        W29783  31.530   5.492   2.752
57524W        W29784   0.477   9.906   0.086
57525W        W29785  29.480  15.044   4.271
57526W        W29786  39.737   6.847  14.448
57527W        W29787  28.585  27.160   1.530
57528W        W29788  25.490  42.369   1.859
57529W        W29789  36.412   8.252   1.275
57530W        W29790  31.413  22.311  14.762
57531W        W29791   9.606  15.646   0.797
57532W        W29792  38.244  11.876  13.329
57533W        W29793  18.016  33.924  14.633
57534W        W29794   8.959  11.879  11.966
57535W        W29795   7.094   3.852  14.429
57536W        W29796  25.960  31.745  11.178
57537W        W29797  30.422   0.041  12.222
57538W        W29798  20.586  13.653   0.397
57539W        W29799   0.759  23.877   2.672
57540W        W29800  22.869  15.733  12.586
57541W        W29801  21.221  18.921  10.510
57542W        W29802  44.486  26.741  12.775
57543W        W29803  30.945   0.037  12.306
57544W        W29804  31.970  18.074  12.390
57545W        W29805   6.938  12.125   2.943
57546W        W29806  10.667   1.752   2.696
57547W        W29807  40.242   7.738   1.801
57548W        W29808  33.488  43.454   1.624
57549W        W29809  22.503   6.633  12.949
57550W        W29810   2.261  44.756   1.403
57551W        W29811  24.542  35.662   0.909
57552W        W29812  38.274  28.941   3.783
57553W        W29813  41.576  30.160   3.366
57554W        W29814  26.635  44.514  14.962
57555W        W29815  36.531  18.978   1.907
57556W        W29816   3.285  33.327   3.677
57557W        W29817  31.710  10.708   4.664
57558W        W29818  12.524  33.331  13.531
57559W        W29819   0.185   6.680   1.274
57560W        W29820  24.314  23.344   4.505
57561W        W29821   0.474   8.453  13.409
57562W        W29822  13.979  36.451  12.919
57563W        W29823  27.251  34.595  11.019
57564W        W29824   5.634  40.078  12.943
57565W        W29825   4.194  32.972  14.057
57566W        W29826  17.817  31.849   2.285
57567W        W29827  13.363  23.219  13.899
57568W        W29828   1.719  20.394  12.032
57569W        W29829  37.534  24.667  14.383
57570W        W29830  29.949  41.043   1.616
57571W        W29831  40.600  20.677  11.123
57572W        W29832   2.471  21.350  11.529
57573W        W29833  16.638  19.107  10.903
57574W        W29834  10.022  22.911   3.279
57575W        W29835  12.170  28.480  12.866
57576W        W29836  15.172  36.365   0.426
57577W        W29837  16.181  15.845  13.952
57578W        W29838   9.829   1.505  13.404
57579W        W29839  33.700  35.420   3.480
57580W        W29840  39.645  43.135   0.853
57581W        W29841   8.180  16.594   0.304
57582W        W29842  22.507  41.519  12.862
57583W        W29843   4.026  42.441  13.581
57584W        W29844  12.703  28.014   4.326
57585W        W29845   0.450  23.275  14.933
57586W        W29846   0.939  23.137   0.898
57587W        W29847  38.033  21.338  10.272
57588W        W29848   4.481  39.334   1.155
57589W        W29849  20.887  34.942   1.340
57590W        W29850  23.107  24.002  14.512
57591W        W29851  41.232  39.595   0.453
57592W        W29852  32.343  41.550  12.097
57593W        W29853   9.262   0.798  14.491
57594W        W29854   7.736  22.925   4.771
57595W        W29855  28.043   0.249  13.369
57596W        W29856  11.682  37.495  14.994
57597W        W29857   3.704  34.066   4.604
57598W        W29858  21.284  22.804  12.470
57599W        W29859  15.934  27.214   2.759
57600W        W29860  31.103   5.462  11.652
57601W        W29861  20.351  16.005  11.839
57602W        W29862   1.274   7.777   2.280
57603W        W29863  36.647  15.589  11.628
57604W        W29864  28.479  18.717   3.272
57605W        W29865  20.071   7.195   3.676
57606W        W29866   7.477  33.236  13.745
57607W        W29867  30.374  15.730  10.707
57608W        W29868  35.994  25.918   4.146
57609W        W29869  25.652  18.170  10.715
57610W        W29870   3.033  26.014  14.569
57611W        W29871  38.959   5.450  13.756
57612W        W29872   9.699  25.861   4.188
57613W        W29873   1.831  19.034   4.663
57614W        W29874   7.409  30.016  11.352
57615W        W29875  26.667  14.099  10.753
57616W        W29876   2.569  36.376  11.557
57617W        W29877  28.554  42.965   1.690
57618W        W29878  44.353   5.344  14.320
57619W        W29879  37.113  39.299  11.112
57620W        W29880  24.468  18.545   0.776
57621W        W29881  10.752  24.644   0.480
57622W        W29882  11.593  33.566   1.786
57623W        W29883  38.825   4.096   4.263
57624W        W29884  20.045   6.147  11.950
57625W        W29885  24.961  39.183  12.279
57626W        W29886  11.626  24.262  12.967
57627W        W29887  20.211  40.701  12.649
57628W        W29888  38.457   6.681  14.623
57629W        W29889  43.202  12.657   4.548
57630W        W29890   3.750  44.336   4.551
57631W        W29891   5.787  21.742  12.452
57632W        W29892  14.191  17.590  12.421
57633W        W29893  43.688  41.023   3.279
57634W        W29894  35.968  34.572   1.045
57635W        W29895   4.718  37.051   2.229
57636W        W29896  15.545  32.659   3.864
57637W        W29897   8.153  38.830   0.471
57638W        W29898  24.048   6.630   3.746
57639W        W29899  21.465  15.699   2.671
57640W        W29900  31.497  26.211   4.339
57641W        W29901   3.889  24.116  14.754
57642W        W29902   7.907  15.578   4.367
57643W        W29903  22.471   1.030  12.899
57644W        W29904  18.946  11.927  10.375
57645W        W29905  38.590  43.869  12.444
57646W        W29906  17.791  19.427   4.136
57647W        W29907  39.058  29.352   1.904
57648W        W29908  29.464   7.664   3.451
57649W        W29909   1.435  32.947  12.025
57650W        W29910  19.062  14.476  14.811
57651W        W29911  31.389   2.825  12.217
57652W        W29912  36.494  24.031   4.492
57653W        W29913  38.473  30.480  12.431
57654W        W29914  33.987   0.357   3.879
57655W        W29915  33.063  26.192   2.835
57656W        W29916  35.616  41.721  10.679
57657W        W29917   8.219  11.395  14.470
57658W        W29918  44.520  32.969   4.195
57659W        W29919  17.124  21.928  11.137
57660W        W29920  25.051  22.640   4.702
57661W        W29921  40.853  40.342  11.040
57662W        W29922  31.968  27.122   0.515
57663W        W29923  22.187   3.127  10.678
57664W        W29924   6.234  11.875  13.015
57665W        W29925  11.066  26.487   4.663
57666W        W29926  29.269  24.413   3.182
57667W        W29927  30.122  10.679   1.702
57668W        W29928  28.700   2.647   0.900
57669W        W29929  23.950  36.571  11.089
57670W        W29930  36.595   0.625   0.669
57671W        W29931  25.907  35.209  13.490
57672W        W29932   9.353  29.461  11.574
57673W        W29933  26.751  27.963   3.305
57674W        W29934   4.852   0.963   3.239
57675W        W29935  39.485  11.161   0.813
57676W        W29936  26.111   4.497  14.819
57677W        W29937   7.177  31.653   2.155
57678W        W29938  13.057   7.391   0.270
57679W        W29939   2.787  27.980  14.922
57680W        W29940  31.367   9.932  12.494
57681W        W29941   3.416  41.879  14.275
57682W        W29942  30.625  44.435   0.953
57683W        W29943  26.133  41.823   3.640
57684W        W29944   6.842   5.215   0.451
57685W        W29945  38.957  37.712   4.154
57686W        W29946  13.170  11.365   4.268
57687W        W29947  23.581   1.356   4.115
57688W        W29948  13.230  40.642  12.952
57689W        W29949  14.734  31.493   0.325
57690W        W29950  34.479  18.882   2.886
57691W        W29951  44.255  21.278  13.438
57692W        W29952  27.115  19.242   2.225
57693W        W29953  24.924   0.497   2.015
57694W        W29954  28.474  36.579  11.965
57695W        W29955   1.699  18.104  14.860
57696W        W29956  29.501  30.501  14.471
57697W        W29957  40.905  41.795  12.061
57698W        W29958  20.081  37.158  13.669
57699W        W29959   8.876  18.537  14.872
57700W        W29960  35.025   6.685   2.150
57701W        W29961  33.961  16.429  12.972
57702W        W29962  19.624   5.098   2.070
57703W        W29963  13.768  22.350  13.766
57704W        W29964  17.705  28.586   4.850
57705W        W29965  29.904  27.073   4.760
57706W        W29966  30.781  41.500   1.214
57707W        W29967  22.205  11.324   1.380
57708W        W29968  19.738   4.213  12.611
57709W        W29969   2.599  24.634  13.516
57710W        W29970  31.990   7.025  14.839
57711W        W29971  25.520  22.455   2.167
57712W        W29972  18.076  27.053  14.385
57713W        W29973  31.435  22.463   3.321
57714W        W29974   3.484  15.059   3.598
57715W        W29975   5.932   1.940  10.471
57716W        W29976  15.158   1.961  12.862
57717W        W29977  22.798  33.260   5.087
57718W        W29978  24.526  10.594  13.229
57719W        W29979  43.404  43.206   1.619
57720W        W29980  42.291  19.097   3.582
57721W        W29981  35.922  22.549  13.534
57722W        W29982  43.734  27.454  11.907
57723W        W29983  39.648   5.345   2.101
57724W        W29984   9.677  16.775  12.640
57725W        W29985  27.871   8.566   4.592
57726W        W29986  16.489   0.902   3.290
57727W        W29987  20.528   3.794  14.415
57728W        W29988  43.747  14.366   2.904
57729W        W29989  29.403  31.163   1.933
57730W        W29990  16.615   9.768  14.194
57731W        W29991  24.505   9.622   1.414
57732W        W29992  37.486   0.068   4.230
57733W        W29993   0.126  19.612   1.354
57734W        W29994  39.833  29.680  11.646
57735W        W29995  40.443  23.147   0.708
57736W        W29996  37.646  28.435  10.767
57737W        W29997  19.257  35.572   0.330
57738W        W29998   5.819  39.581  12.886
57739W        W29999  10.380  33.328  12.928
57740W        W30000  44.259   3.199   2.385
57741W        W30001  20.801   7.441   3.802
57742W        W30002  28.732  12.699   4.301
57743W        W30003  41.828  32.442   3.230
57744W        W30004  34.480  38.288  12.195
57745W        W30005  36.552  18.602  11.005
57746W        W30006  30.520  10.218  13.263
57747W        W30007  40.616  23.063  14.399
57748W        W30008  35.157   8.403   0.835
57749W        W30009   8.030  15.166  11.782
57750W        W30010   3.817   4.369  14.580
57751W        W30011   2.727  16.804   1.496
57752W        W30012   6.651  14.887   1.763
57753W        W30013  22.197  22.846   3.684
57754W        W30014  34.878  10.739  12.025
57755W        W30015  14.305  22.676   4.540
57756W        W30016   1.389  31.437   0.192
57757W        W30017  31.175  39.819  13.981
57758W        W30018  26.595  37.524   1.974
57759W        W30019   3.184  22.686   4.132
57760W        W30020  25.637  24.822   2.765
57761W        W30021   4.318  23.706   3.669
57762W        W30022  18.084  19.402   2.686
57763W        W30023  33.633  18.231  11.031
57764W        W30024  25.676  12.811  11.568
57765W        W30025  44.351   5.636   0.424
57766W        W30026   5.733  41.514  11.486
57767W        W30027  10.336   1.971   3.948
57768W        W30028  39.748   7.625   1.690
57769W        W30029   7.940   6.690  11.547
57770W        W30030  24.649   9.277  14.842
57771W        W30031   7.973  15.824  12.916
57772W        W30032  18.529  24.522   4.215
57773W        W30033  19.216  18.021  12.455
57774W        W30034  37.458   4.873   3.747
57775W        W30035  43.397   0.044  12.961
57776W        W30036   4.266  42.465   0.418
57777W        W30037  33.950  11.862  11.111
57778W        W30038  43.263  42.422   4.560
57779W        W30039  39.238  24.249  11.211
57780W        W30040  41.851   8.197   0.590
57781W        W30041  38.442  43.773   4.914
57782W        W30042  28.624  38.131  12.419
57783W        W30043   1.743  34.580  10.677
57784W        W30044   5.911  26.023   0.491
57785W        W30045  10.752  19.209  10.603
57786W        W30046  30.917  30.449  11.462
57787W        W30047  31.429  20.216  13.291
57788W        W30048  28.429   3.350  13.986
57789W        W30049   4.428   9.450  14.477
57790W        W30050  44.090   0.959  13.365
57791W        W30051  30.210  13.161   3.628
57792W        W30052  27.024  23.979  12.843
57793W        W30053  40.877  25.587   1.427
57794W        W30054  16.304  17.130   4.684
57795W        W30055  17.362  27.210   1.425
57796W        W30056  32.015  36.516   4.507
57797W        W30057   0.347  14.132  13.313
57798W        W30058   3.403  36.802  12.318
57799W        W30059  22.080   5.259  11.487
57800W        W30060  14.166   1.578  12.504
57801W        W30061  15.022  15.656   3.157
57802W        W30062   0.874  24.781  11.097
57803W        W30063  38.761   8.999  13.899
57804W        W30064  22.768  35.941   1.819
57805W        W30065   2.286  19.299   3.751
57806W        W30066  17.105  13.647  11.423
57807W        W30067  37.053  10.708   1.314
57808W        W30068  44.547  33.621  14.981
57809W        W30069  29.530  34.885  14.382
57810W        W30070  22.569  21.095   2.725
57811W        W30071   8.092  23.247   4.569
57812W        W30072   3.804  11.214   4.741
57813W        W30073  36.645  14.325   1.912
57814W        W30074   7.280  37.725  11.882
57815W        W30075  22.752  21.740  14.016
57816W        W30076  14.719  44.429  10.094
57817W        W30077  17.711  39.559  14.504
57818W        W30078  18.271   1.039  11.966
57819W        W30079  43.436   1.062   4.096
57820W        W30080  28.974   1.122   1.163
57821W        W30081   9.215   5.279   2.734
57822W        W30082   2.973  32.951   2.314
57823W        W30083  40.970   3.821  13.403
57824W        W30084  12.835  17.024   2.674
57825W        W30085  16.017  26.411   2.449
57826W        W30086  29.586  27.660  12.633
57827W        W30087  32.645  26.466   5.117
57828W        W30088  43.802   5.803   3.076
57829W        W30089  12.029  22.618   3.092
57830W        W30090   2.494  21.210  10.091
57831W        W30091  22.213   8.151  14.374
57832W        W30092  30.858  33.048   4.907
57833W        W30093  29.001  23.502   3.163
57834W        W30094   5.292  15.474  12.358
57835W        W30095  29.062  38.575  10.625
57836W        W30096  36.907  31.514   0.500
57837W        W30097   0.907   9.581   2.359
57838W        W30098  22.119  29.366  12.048
57839W        W30099  13.265  42.449  12.780
57840W        W30100  32.504  12.115   3.618
57841W        W30101  22.235   4.747   0.082
57842W        W30102   5.499  36.319   1.366
57843W        W30103  20.976  32.998   2.145
57844W        W30104   3.416  30.249  11.707
57845W        W30105   4.541  29.248  10.990
57846W        W30106  18.660  26.246  10.876
57847W        W30107  44.986   0.924   3.311
57848W        W30108  14.238  12.514   1.252
57849W        W30109  25.521   6.414  12.285
57850W        W30110  11.201  42.396   2.362
57851W        W30111  39.493  23.605  14.863
57852W        W30112  38.599  37.132  12.395
57853W        W30113  44.545  31.934   0.014
57854W        W30114  44.334  12.687   9.949
57855W        W30115  14.760   6.215  12.305
57856W        W30116  34.950  43.808   0.535
57857W        W30117   6.049  26.048  11.546
57858W        W30118  37.126   7.830  14.838
57859W        W30119  13.995  17.313   3.950
57860W        W30120  15.045  20.460   3.436
57861W        W30121  12.299  38.623   4.215
57862W        W30122   4.765  18.763  13.500
57863W        W30123  27.480  42.995  10.659
57864W        W30124  21.177  26.982  14.848
57865W        W30125  15.046  16.223  10.719
57866W        W30126  34.823  41.349   4.006
57867W        W30127   5.819  32.134   2.559
57868W        W30128   3.741  10.232  14.670
57869W        W30129   9.256  37.383  12.978
57870W        W30130  16.598  21.300   0.322
57871W        W30131  41.235  37.812   1.775
57872W        W30132   8.834  37.502  11.631
57873W        W30133   5.840   6.792  12.554
57874W        W30134  18.137  16.116  10.933
57875W        W30135  24.601  42.960   2.337
57876W        W30136  35.405  20.461   3.347
57877W        W30137  35.608  44.867   3.456
57878W        W30138  14.606  27.466   3.790
57879W        W30139  30.044   5.412  14.026
57880W        W30140  15.685  22.016  11.929
57881W        W30141  26.567  30.704   1.804
57882W        W30142   3.356  10.873   4.028
57883W        W30143  37.681  44.215   2.290
57884W        W30144  19.662  23.584   0.334
57885W        W30145   8.283   2.047  12.985
57886W        W30146  44.909  28.922   3.748
57887W        W30147  12.068  36.376  10.728
57888W        W30148  20.330   3.467   0.765
57889W        W30149  20.994  14.915  12.932
57890W        W30150  43.560  36.527   1.440
57891W        W30151  14.660  15.795   2.735
57892W        W30152   6.840  44.841  13.401
57893W        W30153  21.504  13.861   1.974
57894W        W30154  26.138   8.631  14.793
57895W        W30155  27.036   8.793  12.347
57896W        W30156  21.645  34.609  10.690
57897W        W30157  27.189  25.033  13.619
57898W        W30158  35.602  35.322  14.843
57899W        W30159  27.684  38.312  12.606
57900W        W30160  36.823  42.964   1.269
57901W        W30161  36.134  24.305   5.033
57902W        W30162  26.032  12.805   1.493
57903W        W30163  26.984  42.847   2.224
57904W        W30164  18.671   1.290   2.733
57905W        W30165  37.931  11.189  13.398
57906W        W30166   6.209  26.160   4.254
57907W        W30167   0.842  15.675   4.580
57908W        W30168  16.112   9.854   2.610
57909W        W30169   2.747  25.585  14.789
57910W        W30170  13.732  41.780   2.419
57911W        W30171  23.502  33.122   4.016
57912W        W30172  36.400   1.729  11.907
57913W        W30173   3.642  12.746  10.736
57914W        W30174  36.633  28.196  13.505
57915W        W30175   3.941  17.007   1.697
57916W        W30176  12.433  14.102  14.407
57917W        W30177  42.824  37.090   9.945
57918W        W30178  43.065  26.404   2.886
57919W        W30179  11.678  21.554  14.825
57920W        W30180  20.491  41.618  11.658
57921W        W30181  31.019  29.515  12.371
57922W        W30182   0.904  32.196   0.541
57923W        W30183  32.967  23.179  13.042
57924W        W30184  26.011  32.482  10.691
57925W        W30185  42.459  10.748  11.853
57926W        W30186  16.875  12.746   4.164
57927W        W30187  31.509  24.962   3.356
57928W        W30188  32.123  40.398   0.198
57929W        W30189   6.375  38.825  14.023
57930W        W30190  27.536  38.571   0.654
57931W        W30191  40.379  10.755   1.180
57932W        W30192  12.878  21.462  12.528
57933W        W30193  38.197  16.659  11.487
57934W        W30194  23.302  43.039   2.665
57935W        W30195  22.545  42.896   4.098
57936W        W30196  18.163  30.972   4.512
57937W        W30197  23.741  24.497  11.114
57938W        W30198  13.176  19.700   0.390
57939W        W30199  43.857  13.288   1.394
57940W        W30200   7.411  19.056  12.048
57941W        W30201  38.202  19.363   0.356
57942W        W30202  18.828   1.847  13.931
57943W        W30203  44.844  16.059   3.352
57944W        W30204  37.036  40.306   2.284
57945W        W30205  40.755  36.022   9.858
57946W        W30206  31.124  23.760  14.955
57947W        W30207  32.504   6.434  13.177
57948W        W30208   9.262  44.070  13.483
57949W        W30209  19.076  30.440   2.723
57950W        W30210   8.186  41.295  12.677
57951W        W30211  16.299  17.270  13.325
57952W        W30212  17.763  20.542   0.847
57953W        W30213   1.376  37.440   1.262
57954W        W30214   6.390  12.275   2.298
57955W        W30215  44.083  38.114  13.796
57956W        W30216  12.886  29.976   2.864
57957W        W30217  27.643  15.066   3.417
57958W        W30218  32.161  12.894  13.478
57959W        W30219  44.886  16.138   1.060
57960W        W30220   2.695  17.758   3.648
57961W        W30221   3.964  23.753   2.814
57962W        W30222  15.248   2.872  13.848
57963W        W30223  10.032   0.429  13.851
57964W        W30224  21.994   5.675  14.670
57965W        W30225  31.197  39.205  12.396
57966W        W30226   4.195   8.626  11.515
57967W        W30227  39.943  15.551   2.675
57968W        W30228   9.643  23.345  14.468
57969W        W30229   2.839  30.963  14.430
57970W        W30230  28.132  32.464  12.780
57971W        W30231  11.607   8.352  14.361
57972W        W30232  39.032  22.822   1.870
57973W        W30233  40.925  10.897   0.023
57974W        W30234  40.424  40.133   0.754
57975W        W30235  18.997  17.314  13.955
57976W        W30236  37.542  35.261  11.619
57977W        W30237  15.652  26.164   0.317
57978W        W30238  13.574   4.846  11.028
57979W        W30239  41.620  39.562   0.799
57980W        W30240  18.509  25.777   3.694
57981W        W30241   1.210  22.176   2.370
57982W        W30242  14.666  36.995   0.409
57983W        W30243  33.955  41.535  13.102
57984W        W30244  25.361   6.620   1.333
57985W        W30245  38.654  41.986  10.730
57986W        W30246  12.851  36.414  11.333
57987W        W30247  35.654  15.432   0.796
57988W        W30248  31.384  17.150  13.367
57989W        W30249  43.063  17.746   3.760
57990W        W30250  17.989  39.634  13.226
57991W        W30251  28.037  16.589   4.224
57992W        W30252   5.535  38.993  11.708
57993W        W30253  34.576  20.668  14.216
57994W        W30254   2.363  30.887   4.846
57995W        W30255   4.181  36.918  10.852
57996W        W30256   1.036   5.374  13.788
57997W        W30257  36.884  10.880   2.225
57998W        W30258   6.789  12.843  10.839
57999W        W30259   0.674  25.118  12.450
58000W        W30260   0.982   3.709  14.728
58001W        W30261  42.645  24.084  14.438
58002W        W30262  39.074  34.030  12.029
58003W        W30263  12.137  43.904   1.377
58004W        W30264  11.456   4.228   2.699
58005W        W30265  36.547  19.711   1.982
58006W        W30266   7.308   2.652  14.447
58007W        W30267  17.732   4.554  11.922
58008W        W30268  44.183  19.206  10.757
58009W        W30269  30.968  16.095   2.811
58010W        W30270  11.686  44.036  13.820
58011W        W30271  12.328   3.157   2.730
58012W        W30272  14.578  39.558  10.708
58013W        W30273  12.157  39.000  11.974
58014W        W30274  13.182  42.038  10.686
58015W        W30275   8.281  12.870   2.427
58016W        W30276   3.401  29.823   4.615
58017W        W30277  12.243   7.192   1.924
58018W        W30278   9.805  23.199   3.720
58019W        W30279   8.780   6.758  14.721
58020W        W30280  29.067  43.311   2.319
58021W        W30281  17.537  20.303   0.432
58022W        W30282  19.304  32.000   4.640
58023W        W30283   2.324   6.370  12.941
58024W        W30284   3.236  32.075   2.093
58025W        W30285  25.286   8.940  13.875
58026W        W30286  42.426  30.699   3.599
58027W        W30287  21.088  20.222   4.224
58028W        W30288  10.222   6.761   3.837
58029W        W30289  37.550  22.088   0.713
58030W        W30290  26.426  14.785  14.570
58031W        W30291  27.900  23.512   4.206
58032W        W30292  29.779  19.753   2.165
58033W        W30293  31.420  43.913  14.588
58034W        W30294  20.616  12.504   2.642
58035W        W30295  10.999  42.017   2.779
58036W        W30296  24.273  30.760  11.419
58037W        W30297  26.985   0.851   1.343
58038W        W30298  36.819  38.324   1.883
58039W        W30299   0.362   1.394  12.038
58040W        W30300   5.759  15.390  14.933
58041W        W30301  16.708  22.667   0.731
58042W        W30302  17.343  36.470  11.161
58043W        W30303   7.646  19.659   0.472
58044W        W30304  36.420  41.459   0.479
58045W        W30305  37.131  38.391   2.375
58046W        W30306   8.950  42.811  11.935
58047W        W30307  44.092  32.745  14.487
58048W        W30308   4.679  43.454   3.309
58049W        W30309  15.021  13.273  12.273
58050W        W30310  36.312   8.179  14.842
58051W        W30311  35.519   5.797   1.458
58052W        W30312  12.836  16.248  14.409
58053W        W30313  25.714  36.641  13.402
58054W        W30314  41.510  25.995   3.365
58055W        W30315  18.561  33.259  12.484
58056W        W30316  18.594  36.581  10.613
58057W        W30317   4.756  23.640   1.250
58058W        W30318  36.564  27.354  12.856
58059W        W30319   3.013  36.829  11.984
58060W        W30320  24.097  24.159  10.877
58061W        W30321  12.353  10.229   4.642
58062W        W30322   2.265  12.300   4.056
58063W        W30323   5.202  15.067  10.781
58064W        W30324  40.060  29.048   1.876
58065W        W30325  33.908  30.006  11.133
58066W        W30326   1.805   4.197   0.874
58067W        W30327   8.194  14.891   2.363
58068W        W30328  18.156  12.220  14.444
58069W        W30329  23.209   8.919  12.859
58070W        W30330  13.667   3.248   2.257
58071W        W30331  38.351  17.397  13.914
58072W        W30332  31.398  34.963  12.530
58073W        W30333  16.226  27.911  14.792
58074W        W30334  25.118  22.730   2.000
58075W        W30335  41.842  26.683  10.209
58076W        W30336   9.024  26.968  12.408
58077W        W30337  28.939  34.605   2.764
58078W        W30338  39.350  21.621  13.306
58079W        W30339  24.193   7.527   4.565
58080W        W30340  17.778  26.592  10.873
58081W        W30341  44.810  24.156   4.043
58082W        W30342   9.023  44.337  10.708
58083W        W30343  14.583  16.326   2.744
58084W        W30344  27.400   7.212  13.052
58085W        W30345  36.475  20.936   9.699
58086W        W30346  35.551  30.053   4.525
58087W        W30347  32.218  13.037  11.298
58088W        W30348  34.850   1.273  14.582
58089W        W30349   2.234  13.958  14.508
58090W        W30350   8.080  18.667   0.852
58091W        W30351  34.605  27.827   0.404
58092W        W30352  42.641  21.858   3.824
58093W        W30353  36.007  42.554   0.362
58094W        W30354   7.819  10.586  11.460
58095W        W30355  13.040   4.081  14.939
58096W        W30356  43.434  20.186   4.349
58097W        W30357  29.457  25.950  12.895
58098W        W30358  40.424  10.554  14.013
58099W        W30359   1.960  29.053   1.679
58100W        W30360  40.483  17.267  14.718
58101W        W30361   4.375  44.426  11.140
58102W        W30362  27.014  15.867   2.239
58103W        W30363  11.484   8.086   0.930
58104W        W30364  30.691   1.524  13.461
58105W        W30365  33.174  26.602   1.401
58106W        W30366  23.738  17.130   3.120
58107W        W30367  22.582  29.006  14.968
58108W        W30368  23.159  43.469   2.950
58109W        W30369  10.159  30.203   3.296
58110W        W30370  21.490  17.557   0.722
58111W        W30371   6.912  12.231  12.537
58112W        W30372  39.043   8.559   4.133
58113W        W30373  14.959   1.743   3.283
58114W        W30374   9.146   0.225   1.796
58115W        W30375   6.387   6.010  12.085
58116W        W30376  21.740  30.743  12.091
58117W        W30377  25.253   4.537   9.933
58118W        W30378  24.624  43.908  14.749
58119W        W30379  29.105  12.308  13.877
58120W        W30380   3.659  19.511   3.617
58121W        W30381  38.478   6.172  10.932
58122W        W30382  39.262  40.792   1.784
58123W        W30383  10.760   5.170  13.447
58124W        W30384   0.203  38.938   4.134
58125W        W30385   8.867  18.834  12.094
58126W        W30386   9.533   9.341  13.531
58127W        W30387  38.589  25.977  11.520
58128W        W30388   8.157   8.822   3.185
58129W        W30389  42.037  20.543  14.310
58130W        W30390  24.884  21.011  12.553
58131W        W30391  26.713   8.156  11.958
58132W        W30392  19.949  33.431  14.822
58133W        W30393  16.262  37.414   1.895
58134W        W30394  34.838  20.520   4.614
58135W        W30395  25.293   2.338   2.693
58136W        W30396   4.804   8.270  12.709
58137W        W30397  16.512  28.553   2.256
58138W        W30398  12.760   1.712  12.825
58139W        W30399  24.060   9.601   3.843
58140W        W30400  30.177  26.953  14.730
58141W        W30401  26.685  36.718  12.123
58142W        W30402  11.249  13.272   1.912
58143W        W30403   9.457   9.396   0.057
58144W        W30404  43.075   7.861  11.747
58145W        W30405  29.936   2.170   2.145
58146W        W30406  35.413  38.880   1.230
58147W        W30407  41.324  34.632   4.116
58148W        W30408  44.245   5.336   3.379
58149W        W30409  44.888  42.988   1.464
58150W        W30410   4.933  30.563   0.812
58151W        W30411  25.450  23.629   0.737
58152W        W30412  31.194  30.262  12.777
58153W        W30413  13.767  40.069  14.287
58154W        W30414  16.570   6.868   5.396
58155W        W30415  35.482  36.552   0.637
58156W        W30416  43.992  41.788   0.652
58157W        W30417  42.347   2.161   4.639
58158W        W30418  27.884  26.559  14.334
58159W        W30419  25.170  35.200   3.704
58160W        W30420   9.804  20.537   3.338
58161W        W30421  19.526  29.190  11.954
58162W        W30422  39.695   7.269  12.859
58163W        W30423  33.990  42.805   4.989
58164W        W30424  44.359  39.446  14.457
58165W        W30425   1.875  13.858   3.735
58166W        W30426  38.212  22.610   0.214
58167W        W30427   5.595  33.468  14.812
58168W        W30428   6.429  34.702  14.486
58169W        W30429  22.772  23.603  13.911
58170W        W30430  10.491  18.649  14.269
58171W        W30431  36.781  11.783   4.362
58172W        W30432   8.140   3.283   4.657
58173W        W30433   9.446  28.920   4.046
58174W        W30434  36.965   2.938  11.637
58175W        W30435   1.501  39.579   3.818
58176W        W30436  36.355  21.271   2.757
58177W        W30437  15.276   4.160   2.257
58178W        W30438  25.711  20.261  13.273
58179W        W30439  36.899  26.899   2.691
58180W        W30440  24.607  39.241   4.185
58181W        W30441  32.315  26.060   4.954
58182W        W30442  23.056  29.855   4.161
58183W        W30443   4.863  33.687   0.290
58184W        W30444  41.007  40.756   3.255
58185W        W30445  20.562  18.017   4.653
58186W        W30446  35.923  22.305  11.504
58187W        W30447  38.526  35.250  13.356
58188W        W30448  23.277  18.095   9.988
58189W        W30449   0.282  26.484   1.997
58190W        W30450  14.389  14.410  11.031
58191W        W30451   8.244  43.027   4.636
58192W        W30452  11.714  27.439  12.869
58193W        W30453   7.625   7.944   1.239
58194W        W30454  28.416  14.248  11.835
58195W        W30455  21.661   7.238  12.850
58196W        W30456  17.150   8.830   1.498
58197W        W30457  40.557  18.327  13.856
58198W        W30458  10.173  17.766  12.179
58199W        W30459  10.597  40.577   2.830
58200W        W30460  11.183  30.024   5.163
58201W        W30461  14.697  41.481  12.569
58202W        W30462  13.130  27.165  11.340
58203W        W30463  38.519  29.290   1.767
58204W        W30464  28.288  15.020  13.929
58205W        W30465   0.840  33.657  10.742
58206W        W30466  27.580   8.917  14.981
58207W        W30467  22.853  15.632   3.255
58208W        W30468   3.273  38.971   4.939
58209W        W30469  31.838  10.311   4.368
58210W        W30470  37.426   2.913   4.315
58211W        W30471  17.395  36.456  14.781
58212W        W30472  11.825  38.752  14.664
58213W        W30473  19.284  40.463   3.873
58214W        W30474  37.544   9.932   0.034
58215W        W30475   5.203   8.899  14.039
58216W        W30476   1.979  21.185  11.556
58217W        W30477   2.481  39.377   3.707
58218W        W30478  22.032  32.038   4.362
58219W        W30479  43.213  12.709   3.198
58220W        W30480  30.665  14.871   2.184
58221W        W30481  39.395   1.907   3.182
58222W        W30482  14.390  10.206   4.611
58223W        W30483  13.614  21.209   5.243
58224W        W30484   8.169  16.106   3.190
58225W        W30485   6.927  10.056   5.099
58226W        W30486  38.062   2.768  10.995
58227W        W30487  15.312   3.532   3.115
58228W        W30488  24.614  43.715   1.900
58229W        W30489  28.419  12.081  12.015
58230W        W30490  13.060   4.188  13.932
58231W        W30491  13.853   7.744  14.549
58232W        W30492   7.592  28.692   1.624
58233W        W30493  19.727  18.468   5.097
58234W        W30494  11.690  35.621  13.562
58235W        W30495  28.030  43.793  14.956
58236W        W30496  44.466  38.140   3.740
58237W        W30497   2.947  39.752  11.608
58238W        W30498  11.442  10.006  11.359
58239W        W30499  10.350  15.693   3.886
58240W        W30500  36.053  44.216  13.760
58241W        W30501   8.038  17.581   2.689
58242W        W30502  12.386  44.607   2.803
58243W        W30503  22.354  25.610  13.343
58244W        W30504  30.380  11.732   0.338
58245W        W30505  37.359   1.505  13.224
58246W        W30506  26.685  41.477   4.649
58247W        W30507  41.887  28.109   0.333
58248W        W30508   2.265  40.944   2.789
58249W        W30509   6.461   3.609   1.443
58250W        W30510  23.610  11.276  14.480
58251W        W30511  23.592  28.140   0.213
58252W        W30512   6.648  41.016  13.174
58253W        W30513  21.824  33.481   4.059
58254W        W30514   5.962  31.080  12.167
58255W        W30515  20.575   9.170   0.267
58256W        W30516   6.694  26.653   3.068
58257W        W30517  30.605  43.902  11.594
58258W        W30518  44.195  16.550   2.827
58259W        W30519   1.955  17.051   2.270
58260W        W30520  27.388  27.345   4.848
58261W        W30521   0.423   3.864   0.373
58262W        W30522   5.117  40.943  13.812
58263W        W30523  35.617  43.468   1.514
58264W        W30524  37.451  40.333  13.039
58265W        W30525  30.412  21.472  14.493
58266W        W30526  22.871  21.308  12.549
58267W        W30527   8.121   8.656  14.990
58268W        W30528  25.460  10.442  13.861
58269W        W30529  35.167   5.001   9.786
58270W        W30530  20.675  10.363  12.400
58271W        W30531  32.579  14.566   1.777
58272W        W30532   8.017  42.729  10.310
58273W        W30533  18.516  39.531  12.476
58274W        W30534  44.026   8.638   0.930
58275W        W30535  24.944  31.082   1.775
58276W        W30536  31.609  11.869  14.731
58277W        W30537  29.459  20.931   5.001
58278W        W30538   2.874  44.152   4.723
58279W        W30539  11.062   2.009   1.834
58280W        W30540  10.522  35.326  14.668
58281W        W30541  24.152  43.392   2.660
58282W        W30542   1.776  22.017  13.927
58283W        W30543  17.142   8.507  10.624
58284W        W30544   4.156  39.050  13.480
58285W        W30545   0.937  41.899   1.806
58286W        W30546  36.441  22.234  12.352
58287W        W30547  24.964  25.897  12.319
58288W        W30548  11.363   8.680  12.521
58289W        W30549  41.712  42.420  14.889
58290W        W30550  30.084  37.340   0.012
58291W        W30551   3.322  16.454  14.929
58292W        W30552  30.931  19.075   0.079
58293W        W30553   0.459   1.908   1.436
58294W        W30554  36.984  44.336   1.232
58295W        W30555   2.699  19.597  13.882
58296W        W30556  21.055  23.050   0.584
58297W        W30557  37.459  23.979   2.176
58298W        W30558  27.642  11.707   0.647
58299W        W30559  31.624  24.497  10.861
58300W        W30560   7.352  31.500  10.695
58301W        W30561  15.850   6.476   3.383
58302W        W30562  16.505  19.632  14.385
58303W        W30563  12.135   4.466   1.539
58304W        W30564  36.380  40.003  11.101
58305W        W30565  42.867   0.661   0.941
58306W        W30566  37.383   6.450  10.715
58307W        W30567   3.688   5.993   3.700
58308W        W30568  25.406   8.184  12.597
58309W        W30569  26.504  35.352   2.349
58310W        W30570  35.684  28.573   4.875
58311W        W30571  33.602  30.010   3.704
58312W        W30572  18.156  16.192   0.800
58313W        W30573  29.096  32.688   2.745
58314W        W30574  44.972  34.546   1.321
58315W        W30575  32.637   8.194  12.392
58316W        W30576  20.005  25.576   4.125
58317W        W30577  11.869   5.491  14.423
58318W        W30578  23.567  26.707  14.788
58319W        W30579   3.852   3.931   2.862
58320W        W30580  34.094   4.839  12.474
58321W        W30581   4.995  42.052  13.977
58322W        W30582  13.451   0.364  11.591
58323W        W30583  40.280  13.582  10.787
58324W        W30584  15.626  21.953   0.884
58325W        W30585  19.011  14.230   2.013
58326W        W30586   2.533  40.038   2.439
58327W        W30587  30.846  34.243   2.206
58328W        W30588   2.399  12.656   0.692
58329W        W30589  18.794   1.088   3.765
58330W        W30590  38.073   7.952  12.497
58331W        W30591  27.130   8.229   2.426
58332W        W30592   4.232  17.632  11.993
58333W        W30593   4.159  33.330  10.550
58334W        W30594   8.303  23.529  14.716
58335W        W30595   4.729  40.026  14.256
58336W        W30596  18.759  44.769  10.559
58337W        W30597  26.453   9.153   0.441
58338W        W30598  32.097   0.457  11.622
58339W        W30599   3.017  14.659  12.334
58340W        W30600  44.953  16.276   4.687
58341W        W30601   5.628  20.611   2.590
58342W        W30602  38.067  42.422   2.647
58343W        W30603  26.277  22.104   1.580
58344W        W30604   3.769  23.218  13.993
58345W        W30605   2.141  33.632   0.453
58346W        W30606  19.585   3.485   3.185
58347W        W30607   6.898  42.658  13.983
58348W        W30608  39.014  43.417   5.052
58349W        W30609   0.337  27.181  13.532
58350W        W30610  26.583  37.352   3.397
58351W        W30611   8.266  10.161   4.063
58352W        W30612  23.584  25.075   3.903
58353W        W30613  14.682  40.872   3.806
58354W        W30614  39.775  38.434  10.995
58355W        W30615  18.102  33.669   1.058
58356W        W30616  14.165  19.074   1.845
58357W        W30617  23.630  38.606   0.545
58358W        W30618  43.012  23.695  10.620
58359W        W30619  18.842   7.631   4.681
58360W        W30620  11.562  40.854   1.524
58361W        W30621  13.145   0.142   4.589
58362W        W30622  14.563  44.970  12.335
58363W        W30623   8.870  16.988   0.768
58364W        W30624  35.077   2.280   0.698
58365W        W30625  12.610  10.483  14.798
58366W        W30626   1.328  30.960   3.645
58367W        W30627  20.967  36.751   5.091
58368W        W30628  14.093  17.753  13.031
58369W        W30629  38.482  12.843  12.938
58370W        W30630  13.834  18.644  13.444
58371W        W30631   9.007  16.012  11.121
58372W        W30632  28.697   1.431   3.841
58373W        W30633  13.105  44.221  11.201
58374W        W30634   9.911   2.215   1.160
58375W        W30635  25.241  24.553  11.273
58376W        W30636   5.885  30.991  11.153
58377W        W30637  37.981  24.782   0.755
58378W        W30638   6.370  15.159   0.218
58379W        W30639  23.960  25.913  14.924
58380W        W30640  24.470  30.468  10.758
58381W        W30641  17.669  27.466   4.636
58382W        W30642  37.156  25.360  11.680
58383W        W30643  44.169  22.086   2.851
58384W        W30644  24.690  30.135  13.526
58385W        W30645  34.356  36.838  12.064
58386W        W30646  18.911  37.510   0.246
58387W        W30647  38.966  23.104  13.555
58388W        W30648   1.904   3.733  14.839
58389W        W30649  33.035   1.237   1.780
58390W        W30650  38.640  43.202  12.002
58391W        W30651  24.885  31.777  12.398
58392W        W30652  16.300   1.688   0.413
58393W        W30653   6.927   4.570   1.032
58394W        W30654  37.759  11.851   3.744
58395W        W30655   0.771  44.838  10.853
58396W        W30656  40.017  31.434   2.685
58397W        W30657  30.351  27.074   1.478
58398W        W30658  12.117  30.879   2.633
58399W        W30659  36.083  24.454   1.669
58400W        W30660  12.512  25.195  13.691
58401W        W30661  30.192  28.810  10.649
58402W        W30662  40.553  11.290   0.300
58403W        W30663   4.171   4.807   3.191
58404W        W30664   9.391  40.483  10.734
58405W        W30665  18.802  30.555  11.196
58406W        W30666  33.965  43.384   1.863
58407W        W30667  31.738  21.509  11.036
58408W        W30668  26.620  12.545   2.249
58409W        W30669  34.527  37.713  14.153
58410W        W30670  38.727   7.319  11.996
58411W        W30671  15.503  42.595  12.353
58412W        W30672   8.119  41.475  14.460
58413W        W30673  15.933   8.623   1.930
58414W        W30674  37.576   7.214   3.651
58415W        W30675  33.889  33.070   3.713
58416W        W30676  18.721  44.033   4.222
58417W        W30677  27.212  20.581   3.811
58418W        W30678  34.450   2.470  11.337
58419W        W30679  43.270  33.774  13.083
58420W        W30680  20.126  17.288   0.061
58421W        W30681   4.344  20.004  14.353
58422W        W30682  10.497  33.367   4.482
58423W        W30683   6.986  31.310   2.505
58424W        W30684  12.199  28.081   0.092
58425W        W30685  17.043  28.626  10.109
58426W        W30686  42.387   5.219   2.362
58427W        W30687   2.785   2.506  13.889
58428W        W30688  15.269   3.971   0.402
58429W        W30689  32.432  16.272   4.135
58430W        W30690  31.378  33.011  11.480
58431W        W30691   2.347  22.610   2.472
58432W        W30692  34.674  25.224   4.113
58433W        W30693  38.677  40.520  12.427
58434W        W30694  35.360   1.872   0.512
58435W        W30695  31.536  42.234   3.550
58436W        W30696   9.349  40.974   3.532
58437W        W30697  23.533   3.360   2.659
58438W        W30698  38.840   1.455   0.610
58439W        W30699  31.445  33.841  14.593
58440W        W30700  33.351  12.414   4.182
58441W        W30701  30.954  44.966   2.389
58442W        W30702  38.118  36.939  14.962
58443W        W30703  43.740  16.028  11.504
58444W        W30704  36.716  15.799   1.704
58445W        W30705  35.900  18.153  11.852
58446W        W30706  24.760  23.543  12.709
58447W        W30707   1.813   7.161   3.633
58448W        W30708  18.051  23.585   1.652
58449W        W30709   1.480  21.710  12.033
58450W        W30710   5.980   8.347   0.904
58451W        W30711   7.906  13.695  12.496
58452W        W30712   8.503  27.077  12.518
58453W        W30713  39.470  32.533  13.425
58454W        W30714  22.300   6.575   4.118
58455W        W30715  11.190  31.922   4.067
58456W        W30716  22.014  11.745  13.833
58457W        W30717   4.106  38.080   3.651
58458W        W30718   2.775  28.078  12.947
58459W        W30719  16.213  30.608  12.830
58460W        W30720  19.612   7.603   3.066
58461W        W30721   3.876  11.225   2.074
58462W        W30722   6.689  25.033  14.900
58463W        W30723  13.406  34.971  10.753
58464W        W30724  25.444  30.904   4.322
58465W        W30725   0.709  10.304  10.121
58466W        W30726   9.557  10.951  11.943
58467W        W30727  16.211  27.088  13.027
58468W        W30728   1.286  17.296   4.864
58469W        W30729  12.537  30.040  11.195
58470W        W30730  19.476   2.182   2.371
58471W        W30731  31.421  40.551   0.403
58472W        W30732  11.077   6.806   3.289
58473W        W30733  26.000  13.722  13.699
58474W        W30734  19.772  32.104   1.194
58475W        W30735  14.594  15.306   0.260
58476W        W30736  30.949  27.075   0.313
58477W        W30737  39.017  24.099  12.561
58478W        W30738  38.877   7.422  10.048
58479W        W30739   4.821  12.786  13.747
58480W        W30740   9.612   9.145  12.092
58481W        W30741   3.897   9.416   2.658
58482W        W30742  35.231  10.875   2.271
58483W        W30743  38.719  33.692  11.279
58484W        W30744  31.947  34.083  13.960
58485W        W30745  43.806   4.808   2.752
58486W        W30746  35.614  32.892  12.959
58487W        W30747  16.927  16.652   9.851
58488W        W30748  44.316  24.078  13.660
58489W        W30749  16.713  37.706  12.376
58490W        W30750  20.084  34.367   1.275
58491W        W30751  30.143  29.626   1.947
58492W        W30752   6.328  19.346  10.683
58493W        W30753  19.464  38.472  12.178
58494W        W30754  26.854  24.927  11.177
58495W        W30755   8.613  20.400  12.098
58496W        W30756  37.827  36.508   3.909
58497W        W30757  39.967   2.731  11.591
58498W        W30758  24.200  32.423   3.258
58499W        W30759  41.866  11.448  11.915
58500W        W30760   0.213   1.980  14.485
58501W        W30761  17.596  29.969   0.269
58502W        W30762  33.521  11.414  14.586
58503W        W30763   8.395  22.696  14.877
58504W        W30764  12.935  41.449  11.203
58505W        W30765  41.355   9.238   0.955
58506W        W30766  31.471  15.430   1.482
58507W        W30767  23.603   6.617   0.094
58508W        W30768   8.468   2.402   1.023
58509W        W30769  10.044   1.315  12.363
58510W        W30770   7.333  21.217  11.030
58511W        W30771  30.554  34.056   4.875
58512W        W30772  16.662  37.199   3.626
58513W        W30773  27.478   6.296   4.730
58514W        W30774  14.737  29.207   3.704
58515W        W30775  39.105   1.922   2.684
58516W        W30776  44.308   5.152  11.574
58517W        W30777  15.330  29.974  13.966
58518W        W30778  25.545  34.067  11.973
58519W        W30779  23.936  12.591   1.758
58520W        W30780  24.649  24.043  13.474
58521W        W30781  38.639  39.292   2.036
58522W        W30782  39.066  19.837   0.004
58523W        W30783  15.777  38.550  11.814
58524W        W30784   4.149  36.905   4.598
58525W        W30785  28.495  22.357  13.461
58526W        W30786  24.038   9.880   1.080
58527W        W30787  24.926   3.509  11.637
58528W        W30788  30.636  15.681   4.534
58529W        W30789  29.975  27.810  12.977
58530W        W30790  25.577  37.333   0.137
58531W        W30791  42.592   6.842   0.501
58532W        W30792  41.422  42.155  12.107
58533W        W30793  37.656   8.838  14.434
58534W        W30794   9.658   4.561   0.763
58535W        W30795   7.273   2.961   1.289
58536W        W30796  18.308   0.354   4.278
58537W        W30797   2.322  31.018  14.530
58538W        W30798   3.820  27.170   0.730
58539W        W30799  11.143  43.873  14.463
58540W        W30800  16.143  13.058  14.363
58541W        W30801  13.604   3.433   5.029
58542W        W30802   7.188   0.038   1.023
58543W        W30803  34.962  13.428  11.157
58544W        W30804  22.599  13.384  11.188
58545W        W30805  23.659   5.464   0.253
58546W        W30806  44.752  15.713   2.041
58547W        W30807  18.827   8.619   2.178
58548W        W30808  37.300  20.428  12.460
58549W        W30809  17.214  34.435  11.824
58550W        W30810  37.978  42.197   3.522
58551W        W30811  37.944  27.459  14.397
58552W        W30812  12.337  29.876  14.871
58553W        W30813  22.639   3.733  12.048
58554W        W30814  19.110  30.706   3.161
58555W        W30815   6.852  12.717   1.502
58556W        W30816  32.745   5.169   1.815
58557W        W30817  34.485  15.704  13.406
58558W        W30818   5.261  29.484   1.253
58559W        W30819   1.608  31.268  11.835
58560W        W30820  33.870   7.407  12.901
58561W        W30821  35.829  43.814  12.063
58562W        W30822   3.198  18.577  11.245
58563W        W30823  26.016  39.663   3.221
58564W        W30824  22.904  13.625  10.846
58565W        W30825  10.409  30.223  14.431
58566W        W30826  32.125  19.501   2.680
58567W        W30827   8.195   6.196  12.741
58568W        W30828  28.718   3.717   2.298
58569W        W30829  19.257   0.093   4.660
58570W        W30830   3.047  34.081  12.882
58571W        W30831  35.406  14.523   2.402
58572W        W30832  16.232  14.638   3.573
58573W        W30833  21.570   3.114   3.770
58574W        W30834  33.693  22.156  13.381
58575W        W30835  11.240  36.099   0.210
58576W        W30836  23.165   9.161  13.305
58577W        W30837  32.675   3.864  12.512
58578W        W30838  33.486  27.467  12.950
58579W        W30839  31.696  43.191  12.124
58580W        W30840   3.933   7.622  11.811
58581W        W30841   7.680  20.044  11.433
58582W        W30842  31.494  26.460   3.200
58583W        W30843  13.157  14.170   0.353
58584W        W30844  16.365  38.708  12.401
58585W        W30845  22.091  40.099  11.077
58586W        W30846  37.390  40.308   3.088
58587W        W30847   8.108  24.016   2.624
58588W        W30848  11.669  43.059  14.255
58589W        W30849  22.493   7.623  12.661
58590W        W30850  28.549   8.791   1.863
58591W        W30851   9.267  31.180  14.700
58592W        W30852   2.449  37.580   0.440
58593W        W30853  24.233   3.573   3.163
58594W        W30854  26.963  24.578  10.715
58595W        W30855   6.695  12.083   3.771
58596W        W30856   5.404  31.866   3.862
58597W        W30857  40.430  31.902  14.350
58598W        W30858  16.735  24.128   0.561
58599W        W30859  32.653   4.374   2.768
58600W        W30860  34.694  43.326  14.882
58601W        W30861  28.455   3.425  12.893
58602W        W30862   3.798  31.987   4.184
58603W        W30863   2.318  14.051   2.198
58604W        W30864  26.137  14.233  13.434
58605W        W30865  33.893  42.306   3.759
58606W        W30866  11.128  27.376   1.847
58607W        W30867  22.150  23.223  12.811
58608W        W30868   2.346  28.764  13.275
58609W        W30869  44.390  30.098  10.503
58610W        W30870   8.439   8.841   1.266
58611W        W30871  33.394  39.549   4.902
58612W        W30872  42.834  30.912   4.373
58613W        W30873  19.729  11.223  14.008
58614W        W30874  14.283  19.793   2.205
58615W        W30875  25.741  18.735  14.839
58616W        W30876  14.469   9.718  13.299
58617W        W30877   5.867  34.027   2.988
58618W        W30878  37.981  44.890  11.433
58619W        W30879  15.060   3.828  11.847
58620W        W30880   7.941   3.219  13.532
58621W        W30881  18.363  37.951  11.598
58622W        W30882  37.104  27.890   1.716
58623W        W30883  40.425  13.908  11.145
58624W        W30884  10.346  23.133  11.136
58625W        W30885  37.020  13.165   0.872
58626W        W30886  26.439  39.252   9.668
58627W        W30887  24.143  24.168  12.348
58628W        W30888   3.948  13.519   1.226
58629W        W30889  19.975  32.919   2.446
58630W        W30890  28.715   3.017   2.880
58631W        W30891  44.343   0.722  12.123
58632W        W30892  44.990   2.751  11.027
58633W        W30893  23.175  29.788   5.060
58634W        W30894  38.512  22.153   0.175
58635W        W30895   9.204  23.189  11.467
58636W        W30896   3.397  22.219   4.111
58637W        W30897  31.167   8.512   0.904
58638W        W30898   7.257  20.074   1.291
58639W        W30899  20.712  34.607  10.500
58640W        W30900  32.868  36.737   1.186
58641W        W30901  11.247  44.371  12.034
58642W        W30902   0.244  16.661  13.910
58643W        W30903  37.356  19.256   0.396
58644W        W30904  15.753   2.693   1.728
58645W        W30905  27.978  11.413   2.727
58646W        W30906  29.710  13.136  12.468
58647W        W30907   1.752  41.767  13.174
58648W        W30908  34.863   7.219  12.530
58649W        W30909  37.277  25.095  10.694
58650W        W30910  44.501  40.428  14.343
58651W        W30911  26.932   2.603   2.790
58652W        W30912   2.634  30.389   3.613
58653W        W30913  10.564  19.980  14.778
58654W        W30914  29.645  30.587  12.004
58655W        W30915  22.689   5.437  11.089
58656W        W30916  21.276  14.630   1.306
58657W        W30917  16.291   1.200  12.483
58658W        W30918  38.129  22.653   3.826
58659W        W30919  43.727  16.852  12.109
58660W        W30920   1.880   7.216   0.927
58661W        W30921  19.522  41.927   5.046
58662W        W30922  17.601  41.276   3.345
58663W        W30923  35.918  30.883  11.146
58664W        W30924  22.825  28.606   0.875
58665W        W30925  40.233  39.527  13.902
58666W        W30926  16.689  21.308  11.576
58667W        W30927  16.698   4.847  10.643
58668W        W30928   7.414  23.042   1.290
58669W        W30929  11.214  39.909   1.380
58670W        W30930  37.012  16.846  14.919
58671W        W30931  20.853   1.202   0.816
58672W        W30932  38.268   0.975   0.053
58673W        W30933  22.176  20.221  14.986
58674W        W30934  20.416  17.243   1.421
58675W        W30935   5.689   3.845  14.931
58676W        W30936  22.452   0.498   1.964
58677W        W30937   6.676  42.246  13.086
58678W        W30938   1.900  18.521   3.581
58679W        W30939  35.342   7.796  11.600
58680W        W30940  16.293  23.138  11.545
58681W        W30941   9.751  16.065  14.484
58682W        W30942  37.120  38.593   0.935
58683W        W30943  36.076  42.964   1.725
58684W        W30944  12.167  39.243  12.437
58685W        W30945   4.180  19.306  13.890
58686W        W30946  11.457   9.186   2.621
58687W        W30947  16.144  34.033   2.947
58688W        W30948  33.217  42.377   1.537
58689W        W30949   5.779  15.465  13.522
58690W        W30950  25.592  32.095  11.110
58691W        W30951   7.932  35.470  11.460
58692W        W30952  32.495   0.103   0.407
58693W        W30953  12.136  24.375   3.712
58694W        W30954  18.305  36.792   0.047
58695W        W30955  12.224  33.649   3.676
58696W        W30956  22.190  36.081   4.722
58697W        W30957  23.213  41.765   2.587
58698W        W30958  10.494  40.246   2.399
58699W        W30959  27.079  34.305  13.792
58700W        W30960   5.305  30.551  12.648
58701W        W30961  44.943  15.169  11.940
58702W        W30962   1.807  25.498  10.157
58703W        W30963  10.800   7.167  12.650
58704W        W30964   2.206   9.867  13.012
58705W        W30965  11.462  25.370  14.187
58706W        W30966   3.070  41.013  12.017
58707W        W30967   3.282  43.050  12.711
58708W        W30968  24.614  20.186   2.737
58709W        W30969  22.105  43.729   1.003
58710W        W30970  26.532  12.778   3.096
58711W        W30971  12.931  29.398  13.455
58712W        W30972   1.474  13.578  11.199
58713W        W30973  21.286  32.628   1.671
58714W        W30974  44.456  25.903   1.309
58715W        W30975  42.532  12.899   3.719
58716W        W30976  16.575  24.474   1.733
58717W        W30977  21.101  19.882   2.698
58718W        W30978  29.776   2.058   2.641
58719W        W30979  13.671  38.333  13.335
58720W        W30980  42.263   3.992   4.271
58721W        W30981   7.984  43.097   2.444
58722W        W30982  34.204  30.363  14.447
58723W        W30983   0.046  43.821  12.182
58724W        W30984   0.004  26.186  13.376
58725W        W30985  35.622   3.993   1.704
58726W        W30986  41.952  30.363  13.871
58727W        W30987  23.389  12.580  12.763
58728W        W30988  25.418  28.663   4.286
58729W        W30989  14.108  16.669   5.499
58730W        W30990  37.183   1.083  11.127
58731W        W30991  16.291  23.404  13.975
58732W        W30992  11.315   0.581   3.115
58733W        W30993  14.678  13.717   4.705
58734W        W30994  22.220   3.325   0.402
58735W        W30995   9.744  27.686  11.193
58736W        W30996  37.795  24.509  11.176
58737W        W30997   4.768  44.219   3.036
58738W        W30998   9.979  11.708   2.773
58739W        W30999   9.664  32.527  12.906
58740W        W31000  43.537  32.570   2.685
58741W        W31001  12.227  25.941  11.177
58742W        W31002  15.846  15.806   0.671
58743W        W31003  42.662   3.384   4.438
58744W        W31004  15.055   0.955  11.171
58745W        W31005  36.424  25.627   4.134
58746W        W31006  14.154   2.441  13.612
58747W        W31007  39.386  27.752  13.875
58748W        W31008  27.492  10.721  12.456
58749W        W31009  26.149  23.244  14.342
58750W        W31010   1.207  28.100   0.861
58751W        W31011   1.988   2.686   0.691
58752W        W31012   9.333  19.852  12.522
58753W        W31013  12.125  38.788   1.751
58754W        W31014   6.928  14.134  11.053
58755W        W31015  38.585   9.512   2.847
58756W        W31016   0.902  30.439   1.346
58757W        W31017  14.406  28.457   3.278
58758W        W31018  12.345  34.961   1.227
58759W        W31019  15.306  26.436  14.387
58760W        W31020  15.152  43.492   4.002
58761W        W31021  10.448   7.576   1.691
58762W        W31022  38.095  25.071   1.455
58763W        W31023  26.390   5.627   0.327
58764W        W31024   1.249  14.872  11.654
58765W        W31025  23.232  21.049   3.212
58766W        W31026  29.847  37.784  14.833
58767W        W31027   0.322  21.027  10.554
58768W        W31028  35.810  27.006  13.390
58769W        W31029   7.902  11.834   2.726
58770W        W31030  25.080  44.979  12.833
58771W        W31031   7.909  36.335   1.617
58772W        W31032  33.120  35.851   3.187
58773W        W31033  31.112  31.939   0.921
58774W        W31034  44.008  42.808  14.304
58775W        W31035  25.837  28.768   3.997
58776W        W31036  25.012   1.485  11.183
58777W        W31037  17.735  29.458   2.784
58778W        W31038  18.031  15.068  11.821
58779W        W31039  25.195  44.604  11.999
58780W        W31040  21.599   7.903  11.038
58781W        W31041  22.665   6.903   3.373
58782W        W31042  32.125  19.118  13.458
58783W        W31043  35.072  30.482  11.700
58784W        W31044  38.309   5.804   1.941
58785W        W31045  41.075   0.799  13.394
58786W        W31046  36.568  39.773  10.693
58787W        W31047  29.109  44.774   1.362
58788W        W31048   4.580   7.508   0.245
58789W        W31049  29.056   7.598   3.072
58790W        W31050  10.098  28.741  12.348
58791W        W31051  10.791  10.096   1.792
58792W        W31052   4.898  21.471   1.207
58793W        W31053   1.375   8.933  11.029
58794W        W31054   7.145  40.381   3.217
58795W        W31055  39.004  36.309   0.800
58796W        W31056  44.328  40.778   1.225
58797W        W31057  12.339   0.678   4.231
58798W        W31058  18.300  36.984   2.357
58799W        W31059  35.129  41.891  14.877
58800W        W31060  17.693  40.561  13.433
58801W        W31061  18.146  42.016   4.595
58802W        W31062  30.372   1.314  11.632
58803W        W31063  17.169  15.558  11.524
58804W        W31064  21.151  19.008  12.889
58805W        W31065  35.782  23.920  10.566
58806W        W31066   2.697   0.412  12.912
58807W        W31067  38.573  10.521  10.243
58808W        W31068  37.832  41.579  12.518
58809W        W31069   3.519  21.644   3.959
58810W        W31070  11.408  18.012  10.730
58811W        W31071  39.888  22.466  11.376
58812W        W31072   2.841  28.306   1.161
58813W        W31073  37.425  29.706   4.480
58814W        W31074  20.796  18.632   2.969
58815W        W31075  43.429  10.678   2.764
58816W        W31076  38.016  19.958  12.239
58817W        W31077   6.110  36.515   1.767
58818W        W31078  23.583   8.377   1.840
58819W        W31079  11.836   5.191   0.396
58820W        W31080  10.831  16.999  13.873
58821W        W31081  20.986  21.468  13.474
58822W        W31082  19.179  28.134  14.791
58823W        W31083  37.440  13.875   4.712
58824W        W31084  16.200  19.687   1.701
58825W        W31085  31.208  18.820   0.506
58826W        W31086   6.706  32.557   1.194
58827W        W31087  27.679  32.089  13.959
58828W        W31088   4.281   9.077  11.701
58829W        W31089   4.078  38.143   0.265
58830W        W31090  15.075  39.893   2.638
58831W        W31091  43.475   1.331  14.911
58832W        W31092  26.625  37.925   1.268
58833W        W31093   7.402  18.214  10.539
58834W        W31094  27.435  31.737   3.636
58835W        W31095  36.066   6.769  12.079
58836W        W31096  21.673  27.651   0.340
58837W        W31097  23.229  30.685  12.009
58838W        W31098  44.483  29.672   4.043
58839W        W31099  22.201  37.973   1.248
58840W        W31100  32.414   0.910  11.605
58841W        W31101  10.685  22.188  12.038
58842W        W31102   3.482  35.488   0.269
58843W        W31103  35.470  38.130   4.682
58844W        W31104  25.013   5.756  11.733
58845W        W31105  26.192  41.043   3.162
58846W        W31106  24.996  13.713   1.299
58847W        W31107   5.950  24.113   2.212
58848W        W31108  14.756  40.699   2.340
58849W        W31109  14.297  29.483   3.569
58850W        W31110  22.168  42.735   1.110
58851W        W31111  19.840  39.995  10.596
58852W        W31112  40.343  41.972   3.832
58853W        W31113  36.721   4.863   2.244
58854W        W31114  26.728   4.024   1.296
58855W        W31115  43.164  16.595   3.649
58856W        W31116  37.015   6.699  12.900
58857W        W31117   9.198  24.082  13.386
58858W        W31118  36.938  27.689   4.178
58859W        W31119  32.475  10.530  12.074
58860W        W31120  38.391  40.921  12.576
58861W        W31121  22.485   6.773   4.804
58862W        W31122  38.200   3.219   2.669
58863W        W31123  39.801  34.199  14.535
58864W        W31124   3.935  35.936   4.252
58865W        W31125  32.191  34.033   0.267
58866W        W31126  32.957  15.887   0.835
58867W        W31127  41.761   8.858  12.933
58868W        W31128  44.416  25.454  14.900
58869W        W31129  24.478  38.348  13.320
58870W        W31130   9.751  27.173  13.622
58871W        W31131   1.126   3.584   0.955
58872W        W31132  12.502  30.734   1.227
58873W        W31133  44.301  31.035   1.922
58874W        W31134  34.486  15.266   4.582
58875W        W31135  35.701  13.417  11.491
58876W        W31136  16.520  42.081   0.286
58877W        W31137  12.631  17.172  10.233
58878W        W31138  13.569  24.734  12.468
58879W        W31139  11.360  44.231  11.033
58880W        W31140  27.729  15.910   1.784
58881W        W31141   7.676  20.296   2.112
58882W        W31142   6.347   1.434   3.913
58883W        W31143  36.162  19.973  13.586
58884W        W31144  31.227  38.458   1.869
58885W        W31145  40.694  37.441   3.171
58886W        W31146  12.918  10.772  13.550
58887W        W31147  22.248   4.221  11.421
58888W        W31148  23.674  37.748   0.531
58889W        W31149   8.538  37.432   4.344
58890W        W31150   1.334   9.419   3.094
58891W        W31151   2.109   9.340  12.004
58892W        W31152  18.583  15.194  14.121
58893W        W31153  18.167  35.096   0.718
58894W        W31154  44.524  18.894   2.987
58895W        W31155  18.840  23.466   0.947
58896W        W31156  12.433  25.565   3.705
58897W        W31157  42.916  30.344   3.670
58898W        W31158   7.358  12.052   0.903
58899W        W31159  36.332  28.667  12.433
58900W        W31160  30.030  26.667  11.320
58901W        W31161  29.211  39.308   3.635
58902W        W31162   7.420   1.020  11.149
58903W        W31163  24.733  26.979  10.628
58904W        W31164   1.273   9.922  11.146
58905W        W31165   5.926  17.191  10.815
58906W        W31166  31.445   9.215  13.834
58907W        W31167   4.489  37.617   2.791
58908W        W31168  25.285  42.554  12.554
58909W        W31169  16.240   6.757  11.982
58910W        W31170  30.447  26.265  12.127
58911W        W31171  40.367  44.523  11.184
58912W        W31172  16.871  19.211   1.875
58913W        W31173  32.950  40.676  10.682
58914W        W31174  39.235  37.554   3.746
58915W        W31175  34.582  32.925   3.212
58916W        W31176  41.362   1.858  10.537
58917W        W31177   5.936  25.125  14.327
58918W        W31178  21.250   8.885  12.524
58919W        W31179  38.321  22.668   2.801
58920W        W31180   7.891  14.338   3.127
58921W        W31181  29.543  31.917  12.027
58922W        W31182  36.494  23.690  12.265
58923W        W31183  15.644   9.103  10.818
58924W        W31184  40.224  38.636   1.980
58925W        W31185   6.248  44.952  10.643
58926W        W31186   3.331   1.743   3.080
58927W        W31187  41.348   1.366   0.389
58928W        W31188   6.249   3.074   4.742
58929W        W31189  36.859  10.425  14.541
58930W        W31190  35.661  26.564   1.313
58931W        W31191  21.272   0.497  13.445
58932W        W31192  11.411  39.406  14.077
58933W        W31193  25.703  26.154   0.707
58934W        W31194  19.631  44.796   2.629
58935W        W31195  28.170  18.177   4.156
58936W        W31196  23.065   9.654   0.806
58937W        W31197  32.618  22.256   0.395
58938W        W31198  16.543   7.231  12.017
58939W        W31199  31.440  42.720   4.579
58940W        W31200   7.365  28.250  13.512
58941W        W31201  34.891  32.281   0.962
58942W        W31202  27.200  38.454   4.115
58943W        W31203  20.690  10.289  13.449
58944W        W31204  21.965  43.943  12.083
58945W        W31205   4.392  38.847   1.897
58946W        W31206  38.591  17.602   4.162
58947W        W31207  33.164  23.907  11.100
58948W        W31208  35.129   7.869  14.628
58949W        W31209  31.539  44.790  14.531
58950W        W31210   5.127  38.478   2.163
58951W        W31211  19.082  11.875  10.865
58952W        W31212  11.778  19.817  10.692
58953W        W31213   8.209   3.674  12.550
58954W        W31214  24.620  18.338  10.948
58955W        W31215   9.185  39.460   4.389
58956W        W31216  29.539  31.479  13.686
58957W        W31217  28.950  44.242  12.893
58958W        W31218  26.584   4.236  13.024
58959W        W31219   8.894   4.365  12.423
58960W        W31220  12.601  44.716   1.210
58961W        W31221  22.826  11.660   2.167
58962W        W31222  14.354  28.720  12.893
58963W        W31223   9.043  28.170   1.740
58964W        W31224  14.307  24.204  11.547
58965W        W31225  26.043   7.522  11.979
58966W        W31226  31.968  38.025  10.762
58967W        W31227   6.241  25.129  12.547
58968W        W31228  16.079  26.260  11.958
58969W        W31229   6.341  24.111  12.585
58970W        W31230  13.733  22.624  12.923
58971W        W31231  26.370  44.412  13.309
58972W        W31232  19.033  33.586   2.586
58973W        W31233   1.231  16.587  11.082
58974W        W31234  22.316  38.854   1.917
58975W        W31235  18.092  33.129   0.982
58976W        W31236  33.778   2.263   1.888
58977W        W31237  32.591  19.592   3.913
58978W        W31238   4.742  17.366  13.897
58979W        W31239  25.060   8.457  11.642
58980W        W31240  27.157  31.106  11.616
58981W        W31241  25.411  22.056  14.897
58982W        W31242   4.294  32.956  14.572
58983W        W31243  10.707   0.833   0.249
58984W        W31244  34.550  13.731  12.882
58985W        W31245   5.039  32.295  12.184
58986W        W31246  21.709  18.728   2.153
58987W        W31247   0.527   9.602  12.699
58988W        W31248  17.835  15.977  12.987
58989W        W31249  44.282  28.528   4.466
58990W        W31250  13.212  19.720   3.151
58991W        W31251  29.122  42.999  11.528
58992W        W31252  17.822   2.949   4.284
58993W        W31253  26.418  19.176   0.976
58994W        W31254  42.775  44.223   2.243
58995W        W31255  13.568   0.429   4.615
58996W        W31256  27.141  42.976   4.607
58997W        W31257  22.803   7.233  11.412
58998W        W31258   3.206   0.024  10.529
58999W        W31259   4.122  28.787   3.702
59000W        W31260  27.686  12.273   1.897
59001W        W31261  24.386  41.801   5.056
59002W        W31262  30.642  10.196   4.604
59003W        W31263  44.727   7.739  11.103
59004W        W31264  26.610  10.023   1.327
59005W        W31265   0.993   5.944   2.612
59006W        W31266   1.988  15.819  12.605
59007W        W31267  28.473  36.164  11.505
59008W        W31268  13.788  31.208   1.288
59009W        W31269  34.951  29.837  10.647
59010W        W31270  29.010  19.026   3.694
59011W        W31271  14.614  10.842   4.486
59012W        W31272  38.629  16.393  13.785
59013W        W31273  20.678  17.079  14.446
59014W        W31274  25.998  40.180  13.134
59015W        W31275  43.828  31.972  12.916
59016W        W31276  19.720  33.500   3.177
59017W        W31277  15.670  21.542   2.891
59018W        W31278  25.074  29.257   1.495
59019W        W31279  27.612  11.791   2.038
59020W        W31280  40.825  41.069  10.350
59021W        W31281  27.955   3.145   4.068
59022W        W31282  11.154  19.857  10.779
59023W        W31283  40.842  10.813   3.349
59024W        W31284  13.781   2.648  11.128
59025W        W31285  44.914  17.857  13.549
59026W        W31286  32.122  26.147   3.608
59027W        W31287   2.205  33.884  12.505
59028W        W31288  11.726   0.798   0.313
59029W        W31289  35.422  41.046   3.245
59030W        W31290   9.704  26.900  11.415
59031W        W31291  38.120  43.218  11.950
59032W        W31292  33.332  19.375  12.803
59033W        W31293  34.538  32.281  11.086
59034W        W31294  16.363  26.843  13.527
59035W        W31295  30.894   3.310  12.427
59036W        W31296  19.831  26.142   0.355
59037W        W31297   0.514  42.932  14.842
59038W        W31298  13.358  40.934   3.273
59039W        W31299  28.515  39.932  12.820
59040W        W31300  10.093  17.571  12.638
59041W        W31301  39.793  37.955  10.769
59042W        W31302  29.645   0.777   2.417
59043W        W31303  11.388  20.310  10.660
59044W        W31304  33.840   6.557  14.933
59045W        W31305  23.907  23.743  12.562
59046W        W31306  16.816  15.396  12.469
59047W        W31307   9.175   0.205  12.642
59048W        W31308  44.789  40.512   1.472
59049W        W31309  40.957  10.467   1.813
59050W        W31310  27.186  31.368  14.225
59051W        W31311   8.640  10.706   3.117
59052W        W31312  29.128  40.858   4.777
59053W        W31313  42.010  14.427  12.519
59054W        W31314   1.857  14.412  11.179
59055W        W31315  37.138  40.498  14.336
59056W        W31316   8.441  27.068  11.135
59057W        W31317  34.903  42.638   3.716
59058W        W31318  35.016  35.359  11.968
59059W        W31319  12.216  24.745   3.112
59060W        W31320  36.157  31.852   4.130
59061W        W31321  28.269  37.448  12.906
59062W        W31322  21.137   9.727  11.248
59063W        W31323  16.538  30.068  10.724
59064W        W31324  15.573  25.849   3.764
59065W        W31325  13.766   5.177   4.494
59066W        W31326  28.075  26.413  12.658
59067W        W31327  28.043   8.641   1.801
59068W        W31328  13.713   0.943  10.814
59069W        W31329  12.173  17.005  11.162
59070W        W31330   5.705  34.210  14.327
59071W        W31331  18.164  33.054  13.996
59072W        W31332   5.395  36.483  10.619
59073W        W31333  19.602  23.492  14.399
59074W        W31334  17.665  19.587  12.436
59075W        W31335  21.707  40.122  14.126
59076W        W31336  10.135  33.872  14.850
59077W        W31337  40.118   5.174   2.390
59078W        W31338  15.627  31.914   4.982
59079W        W31339  38.835   4.908  10.373
59080W        W31340  38.103  11.462  13.838
59081W        W31341  20.703  37.098  14.476
59082W        W31342  25.712  26.921   4.031
59083W        W31343   2.432   6.590  11.915
59084W        W31344  20.002  40.338  11.785
59085W        W31345   7.495   6.286   2.257
59086W        W31346   1.106  24.675   2.911
59087W        W31347  29.714  43.038  11.143
59088W        W31348   8.502  15.695   3.178
59089W        W31349  38.106  17.386   2.206
59090W        W31350  12.224  41.325  11.551
59091W        W31351  17.881  40.838  11.665
59092W        W31352  30.170  32.535  10.441
59093W        W31353   6.145  36.485  14.518
59094W        W31354  41.569   3.424   0.856
59095W        W31355  15.896  22.580  13.565
59096W        W31356  26.240  28.951   3.236
59097W        W31357  13.824  35.077   3.381
59098W        W31358  13.148  28.838   1.005
59099W        W31359  38.035  42.416   1.279
59100W        W31360  12.272  28.690   3.212
59101W        W31361  41.228  18.378   3.744
59102W        W31362  40.677  21.201   4.554
59103W        W31363  23.564  17.165   0.272
59104W        W31364   6.797  30.189  11.967
59105W        W31365  26.003  24.545   1.056
59106W        W31366  41.022  29.592  13.317
59107W        W31367  19.782  18.729  13.402
59108W        W31368  24.404  15.620  13.340
59109W        W31369  11.825   9.327  14.360
59110W        W31370   7.940  13.707   4.131
59111W        W31371  40.972  13.353  12.314
59112W        W31372  23.321  17.618  11.298
59113W        W31373  33.450   5.754  10.784
59114W        W31374  16.649  12.279   4.106
59115W        W31375   8.856   2.199  12.033
59116W        W31376  30.157  27.566  12.553
59117W        W31377  16.315  19.701  11.081
59118W        W31378  25.631  16.553  13.352
59119W        W31379   0.959  12.683   4.993
59120W        W31380  21.313  29.659   3.306
59121W        W31381  42.878  11.897   2.748
59122W        W31382  16.810  20.607  12.354
59123W        W31383  26.186   4.681  11.099
59124W        W31384  23.678  15.256   1.716
59125W        W31385  15.032  38.883   3.581
59126W        W31386  14.083  35.424  12.485
59127W        W31387   0.312  21.181   0.692
59128W        W31388  31.162   4.680  11.412
59129W        W31389  27.723  40.357  14.766
59130W        W31390  33.547   2.476  13.395
59131W        W31391  41.972   1.817   2.492
59132W        W31392  17.959  40.481  14.634
59133W        W31393   8.132  10.577   0.010
59134W        W31394  36.421  35.605  13.325
59135W        W31395  18.185  26.456  12.167
59136W        W31396  39.015   9.433  12.319
59137W        W31397  28.139  28.054   4.331
59138W        W31398  43.978  42.845   0.842
59139W        W31399  12.157  33.201   0.834
59140W        W31400  16.277  21.061  11.398
59141W        W31401  32.592   7.305  14.901
59142W        W31402  13.823  26.905  12.035
59143W        W31403   6.078  24.794   4.841
59144W        W31404  32.906  13.840   0.853
59145W        W31405  17.600   5.008   3.788
59146W        W31406  41.897  44.994   0.301
59147W        W31407  26.552  17.138  12.530
59148W        W31408  34.383   0.775  14.017
59149W        W31409   6.179  14.873   0.921
59150W        W31410  30.096   6.669  11.138
59151W        W31411  27.227  35.222  14.164
59152W        W31412  18.145  20.020   1.935
59153W        W31413  32.880  13.117   0.382
59154W        W31414  43.298  18.308  12.281
59155W        W31415  25.921  10.590  12.363
59156W        W31416  17.637  30.989   4.413
59157W        W31417  29.915  35.389  10.614
59158W        W31418  19.637   8.931  14.452
59159W        W31419  20.784  33.402   3.208
59160W        W31420  20.427  37.394   3.863
59161W        W31421  38.582   1.215  14.646
59162W        W31422  11.210  38.339   2.615
59163W        W31423  41.285   4.332  11.352
59164W        W31424   3.814  19.823  11.652
59165W        W31425  43.242  34.653   3.365
59166W        W31426  24.050  23.968  14.540
59167W        W31427  14.166   8.631   2.654
59168W        W31428   7.191  16.054   3.367
59169W        W31429  16.518  22.799  12.875
59170W        W31430  37.127  37.066   2.997
59171W        W31431  19.194   4.671   0.317
59172W        W31432  20.133  43.394  11.428
59173W        W31433  17.998  31.467  13.811
59174W        W31434  23.240   0.466   2.605
59175W        W31435  11.133  37.843  10.934
59176W        W31436  16.384  14.679  10.292
59177W        W31437  16.234  18.087   4.472
59178W        W31438   2.722   1.222  12.518
59179W        W31439  12.389  12.856  12.396
59180W        W31440   0.814  40.360   4.505
59181W        W31441  26.195  33.092  12.511
59182W        W31442  39.981  14.819   4.266
59183W        W31443  34.640  28.375   2.922
59184W        W31444  37.074  35.767   1.436
59185W        W31445  25.031  13.829   4.169
59186W        W31446   1.762   0.364  14.970
59187W        W31447  39.762  12.313  12.897
59188W        W31448  39.039  38.918  11.881
59189W        W31449  35.053  44.732  14.194
59190W        W31450  21.107   8.115  12.180
59191W        W31451  16.728   7.848  14.059
59192W        W31452   7.815  16.705   3.863
59193W        W31453  14.310  33.686  11.472
59194W        W31454   0.691  22.173   2.356
59195W        W31455  40.302  16.562   0.327
59196W        W31456  13.684  13.211   3.684
59197W        W31457  11.109   4.235  12.531
59198W        W31458  29.891  34.952  12.447
59199W        W31459   9.814  13.046   0.817
59200W        W31460   4.719  31.823  10.256
59201W        W31461   1.894  36.457   2.305
59202W        W31462  30.859  21.212   3.547
59203W        W31463  12.165  18.784   0.317
59204W        W31464  13.602   4.692   4.418
59205W        W31465  12.261  12.139   4.606
59206W        W31466   9.363  43.050  11.167
59207W        W31467  12.035  31.944   3.746
59208W        W31468  16.312  40.832  14.891
59209W        W31469  34.430  27.908   2.887
59210W        W31470   0.639  37.939  12.093
59211W        W31471  16.019  29.187  12.610
59212W        W31472  29.053  39.138   1.225
59213W        W31473  19.136   9.382   2.759
59214W        W31474   1.050  31.183   2.211
59215W        W31475   7.872  21.540   4.384
59216W        W31476  22.581  33.377  12.419
59217W        W31477   8.782   4.890  11.750
59218W        W31478  31.493  11.687   3.703
59219W        W31479  28.180  38.024   2.514
59220W        W31480  11.851  23.416   9.923
59221W        W31481  26.623  15.233   3.665
59222W        W31482  37.857  17.536   2.687
59223W        W31483  18.838   4.948   3.178
59224W        W31484  34.850  17.301   2.645
59225W        W31485  17.500  14.352   4.817
59226W        W31486  36.172  22.081   1.041
59227W        W31487  32.913  33.051  14.885
59228W        W31488  11.864  10.273  13.069
59229W        W31489  40.296  25.716  12.460
59230W        W31490  37.248  10.394  10.588
59231W        W31491  34.049  28.115  13.738
59232W        W31492  34.376  13.286   4.482
59233W        W31493  10.373  43.825   0.734
59234W        W31494  21.636  35.320  12.379
59235W        W31495  11.265  21.817   4.093
59236W        W31496  10.682  35.759  13.439
59237W        W31497  42.899  14.247  14.828
59238W        W31498  27.283   6.771   4.736
59239W        W31499  15.397   1.505  12.008
59240W        W31500  39.391  38.859   3.731
59241W        W31501  11.154   1.995  13.894
59242W        W31502  37.947   9.739  11.032
59243W        W31503  37.863  44.833   3.242
59244W        W31504  40.899  29.488   1.944
59245W        W31505  37.584  12.232  11.624
59246W        W31506  38.105  17.709  12.022
59247W        W31507  36.990  32.809   0.429
59248W        W31508  27.271  25.232   4.005
59249W        W31509  17.806  19.390  13.008
59250W        W31510  36.477  11.627  12.397
59251W        W31511  27.481  27.417   3.337
59252W        W31512  32.603  22.813  12.983
59253W        W31513  39.610  30.873  13.304
59254W        W31514   9.689   3.310  14.996
59255W        W31515  37.095  13.307  14.585
59256W        W31516   6.715  11.207   4.203
59257W        W31517  14.176  22.285  10.599
59258W        W31518  27.458  30.455  10.269
59259W        W31519  36.551  25.977   2.340
59260W        W31520  39.492  33.532   4.578
59261W        W31521   4.031  18.335   1.239
59262W        W31522  32.935  40.840  12.129
59263W        W31523  27.931  28.376  13.323
59264W        W31524  30.956  13.745  10.652
59265W        W31525   1.473   4.864   0.307
59266W        W31526  27.602  38.818   3.995
59267W        W31527  22.072  19.178  13.678
59268W        W31528  20.675  14.065  12.969
59269W        W31529  11.842  29.311  10.323
59270W        W31530  14.880  31.786  13.454
59271W        W31531  12.279  32.170   2.485
59272W        W31532  39.993  27.681  14.388
59273W        W31533  38.935   0.514  12.117
59274W        W31534  40.361  33.877  13.095
59275W        W31535  39.091  15.275  10.659
59276W        W31536  29.518   3.624   0.012
59277W        W31537  17.786  38.687   0.872
59278W        W31538  30.142   1.821   2.949
59279W        W31539  35.910  39.358   0.706
59280W        W31540  26.553  25.163  14.771
59281W        W31541  25.930   0.311  11.073
59282W        W31542  41.493  40.579   3.186
59283W        W31543  42.233   7.825   1.379
59284W        W31544  23.430   6.303  14.314
59285W        W31545  18.031  29.095  11.962
59286W        W31546  29.123  37.330   1.035
59287W        W31547  39.464   5.016  13.158
59288W        W31548  41.807  43.585   4.108
59289W        W31549   7.190  23.110   3.613
59290W        W31550  18.277  24.053  11.179
59291W        W31551  30.951   5.984  10.774
59292W        W31552  37.237  30.912  14.300
59293W        W31553  17.302  31.254   1.783
59294W        W31554   8.800  41.824  14.997
59295W        W31555  31.186  42.038  10.869
59296W        W31556   0.075  20.641  12.379
59297W        W31557  38.333  42.052   2.276
59298W        W31558   7.904   6.551   2.412
59299W        W31559  30.003  21.606  14.750
59300W        W31560  42.275   3.803   2.129
59301W        W31561  11.701  25.508   3.386
59302W        W31562  11.789   8.222   3.297
59303W        W31563  42.938  15.245   4.731
59304W        W31564  32.182  42.258   1.321
59305W        W31565  15.836  20.035   3.656
59306W        W31566   0.220  28.421   3.293
59307W        W31567  28.180  36.080  14.311
59308W        W31568  28.729  12.101   1.775
59309W        W31569  22.805  36.131  13.069
59310W        W31570  25.919  26.056  12.465
59311W        W31571  19.648  36.993   0.324
59312W        W31572  32.310  31.187  12.953
59313W        W31573  19.572  42.977  12.155
59314W        W31574   9.651   5.746  13.496
59315W        W31575  31.765  24.903   4.526
59316W        W31576  35.879  44.340   2.730
59317W        W31577  39.068  29.667   4.844
59318W        W31578  43.407   2.667   0.040
59319W        W31579  19.485  40.328   2.895
59320W        W31580  32.212  17.575  13.381
59321W        W31581   8.939  22.278   1.217
59322W        W31582   3.230   0.465   4.615
59323W        W31583   1.793  18.166   2.677
59324W        W31584  28.542  34.277  13.048
59325W        W31585  27.105  32.649  10.754
59326W        W31586  23.829  33.291  11.584
59327W        W31587  19.271   8.032  12.093
59328W        W31588  40.277   1.458  11.936
59329W        W31589  21.740   5.148   0.354
59330W        W31590  41.816  32.528   4.617
59331W        W31591  28.725  17.583  12.155
59332W        W31592  16.246  22.984   1.833
59333W        W31593  15.640   2.859   1.271
59334W        W31594  30.163  40.410   2.818
59335W        W31595  11.050  31.356  14.658
59336W        W31596  20.534  17.713  11.633
59337W        W31597  41.334  31.060  13.035
59338W        W31598  18.437  33.327  14.809
59339W        W31599  44.066  30.981   2.421
59340W        W31600  36.938  25.176  13.420
59341W        W31601  29.063  17.146  10.897
59342W        W31602  23.563  36.960  10.409
59343W        W31603  39.387  16.604  13.849
59344W        W31604   0.062  23.657  14.846
59345W        W31605  33.836   9.354   2.871
59346W        W31606   3.130  24.431   5.223
59347W        W31607  12.674   8.912   2.873
59348W        W31608   5.715  15.567  11.030
59349W        W31609  18.172  43.448  10.928
59350W        W31610   8.949   7.935   4.390
59351W        W31611   5.317  11.364  13.871
59352W        W31612  27.081   1.317   1.161
59353W        W31613  40.849   0.073  12.478
59354W        W31614  14.264   2.520  14.994
59355W        W31615  43.011  16.034  10.986
59356W        W31616  13.692  27.087  11.206
59357W        W31617   8.589  20.089   4.075
59358W        W31618  40.084   8.774   4.949
59359W        W31619   9.977  25.720  11.107
59360W        W31620   7.181  40.472  12.294
59361W        W31621  35.119  17.067   2.270
59362W        W31622  32.394   1.441  11.629
59363W        W31623  36.499  16.748  10.739
59364W        W31624  30.015  11.259   4.712
59365W        W31625   0.795  40.926   3.727
59366W        W31626   8.920  20.809  12.068
59367W        W31627   5.433  26.898   0.153
59368W        W31628   7.991  34.653  13.892
59369W        W31629   3.159  25.294  14.962
59370W        W31630  33.395  39.554  11.590
59371W        W31631  44.341  33.226  11.661
59372W        W31632  34.159  20.030   3.461
59373W        W31633  24.903  17.563   1.195
59374W        W31634  23.907   8.599   3.995
59375W        W31635  16.124  20.822  11.955
59376W        W31636  36.071  43.285   4.570
59377W        W31637  23.418   4.580   0.304
59378W        W31638  17.631  24.746  12.072
59379W        W31639  28.283  21.292  14.989
59380W        W31640  10.416   4.434  12.152
59381W        W31641  17.721  12.376  12.907
59382W        W31642   8.186  39.024  12.608
59383W        W31643  35.051   5.564  14.305
59384W        W31644  29.245  12.797   4.270
59385W        W31645  42.976  32.052  14.421
59386W        W31646  39.770  39.016   0.351
59387W        W31647  16.581  37.944   0.299
59388W        W31648   7.400  34.320  13.061
59389W        W31649   6.000  24.569   0.430
59390W        W31650   8.737   8.791  13.045
59391W        W31651  23.498  30.135   0.952
59392W        W31652   8.316  44.325   0.283
59393W        W31653  22.104  38.934  14.534
59394W        W31654   0.821  11.224   1.487
59395W        W31655  44.466  24.616  13.646
59396W        W31656  32.685  35.030  14.920
59397W        W31657  35.003   9.231   2.867
59398W        W31658  19.151  43.117  10.702
59399W        W31659  41.731  18.662  14.877
59400W        W31660  36.623  20.323  13.527
59401W        W31661  21.803  26.029   3.189
59402W        W31662  35.963  43.260   3.674
59403W        W31663  28.441   8.212   0.348
59404W        W31664  34.842  36.608   4.028
59405W        W31665   8.609  28.737   4.971
59406W        W31666  33.897   1.358  13.372
59407W        W31667  24.001   3.952  13.435
59408W        W31668  26.989  32.157  10.876
59409W        W31669   6.047  34.401   1.332
59410W        W31670  40.192  33.252  11.633
59411W        W31671  31.665  13.284   4.111
59412W        W31672  35.542  18.218   4.226
59413W        W31673   7.861  26.704   4.991
59414W        W31674  41.536  40.647   4.066
59415W        W31675  18.275  30.442   1.400
59416W        W31676  30.280  13.307  13.160
59417W        W31677  14.184  17.774  14.004
59418W        W31678   3.984  36.692  13.338
59419W        W31679   0.419   5.894   1.862
59420W        W31680  19.025  27.253  13.518
59421W        W31681   4.297   3.293   0.286
59422W        W31682  31.511  12.562  10.674
59423W        W31683   6.834  39.913  11.554
59424W        W31684   9.464   9.178   3.922
59425W        W31685   1.677   7.374  13.367
59426W        W31686  33.553  38.584  14.007
59427W        W31687  39.638  26.594  12.330
59428W        W31688   6.921   9.822   3.700
59429W        W31689  36.991  18.355  10.234
59430W        W31690   1.318  11.920  13.537
59431W        W31691   7.661  24.331  13.225
59432W        W31692  13.317  38.592  11.022
59433W        W31693  14.254  18.088  10.545
59434W        W31694  26.266  16.675   0.266
59435W        W31695  35.513  20.234  14.410
59436W        W31696  31.127  31.517   1.926
59437W        W31697  30.444  41.943  12.925
59438W        W31698  23.805  39.206  14.442
59439W        W31699   0.931  17.199   3.235
59440W        W31700  24.434  30.942  10.971
59441W        W31701  32.128  13.629   0.007
59442W        W31702  14.590  33.035  10.902
59443W        W31703  19.939  14.188  11.531
59444W        W31704  24.310   3.874   2.732
59445W        W31705  32.171  38.921  13.930
59446W        W31706  11.082  19.750  13.875
59447W        W31707   9.747  11.400  10.606
59448W        W31708  34.288  20.724   3.809
59449W        W31709  11.458  20.060   3.695
59450W        W31710  17.222   0.842   1.414
59451W        W31711   0.994   6.346  12.860
59452W        W31712  10.727  19.577  12.202
59453W        W31713  35.491  11.799   4.153
59454W        W31714  37.545   2.774   0.702
59455W        W31715  22.749  12.270  11.120
59456W        W31716  43.281  10.864  12.427
59457W        W31717  39.734   0.892  11.206
59458W        W31718   1.494  43.189  11.193
59459W        W31719   3.542   5.666  14.220
59460W        W31720  42.451   1.921  14.681
59461W        W31721  27.716  28.985   3.652
59462W        W31722  26.628  37.788  12.524
59463W        W31723  42.312  18.574   3.415
59464W        W31724  34.434   6.607   1.472
59465W        W31725  30.186   6.258  13.028
59466W        W31726  20.782  20.520  11.012
59467W        W31727   7.005  36.679   3.669
59468W        W31728  14.064   4.144   3.654
59469W        W31729   1.838  38.326  10.371
59470W        W31730  22.165  28.203   9.748
59471W        W31731   6.848  30.509   4.577
59472W        W31732  22.767  28.853   2.398
59473W        W31733   8.337  18.281  12.498
59474W        W31734  23.186  41.999   1.284
59475W        W31735  36.350  12.706  14.314
59476W        W31736  30.151   0.865  11.481
59477W        W31737  14.589   8.771   1.233
59478W        W31738  17.734  20.192   1.263
59479W        W31739  35.598  20.716   1.753
59480W        W31740  41.618  11.185   1.866
59481W        W31741  44.126   8.659   2.432
59482W        W31742  25.572  11.454   3.810
59483W        W31743  15.078  34.011   3.400
59484W        W31744   6.161  39.474  11.026
59485W        W31745  11.353   7.936  12.358
59486W        W31746   6.314  33.197  12.451
59487W        W31747  22.219   8.305  13.539
59488W        W31748  18.286  38.384  14.207
59489W        W31749  24.988  34.560  10.452
59490W        W31750  38.865  39.361  10.498
59491W        W31751  16.365  31.835   1.189
59492W        W31752  17.143   0.915  13.896
59493W        W31753  35.435  18.754   4.275
59494W        W31754   5.961  44.333   0.381
59495W        W31755  10.302  17.684  11.693
59496W        W31756  24.576  28.430   4.871
59497W        W31757   2.738  38.678   4.947
59498W        W31758  43.627  19.565  12.710
59499W        W31759   7.635   7.545   4.962
59500W        W31760   6.661   5.193   3.983
59501W        W31761  17.507  23.771  10.968
59502W        W31762  40.485  22.017  11.997
59503W        W31763  37.951  39.473  12.688
59504W        W31764  26.721  15.413  12.605
59505W        W31765  10.766  14.268  10.382
59506W        W31766  24.232  27.011   9.832
59507W        W31767   5.388  10.842   0.510
59508W        W31768   8.351  16.568   3.104
59509W        W31769  25.722   4.413  12.618
59510W        W31770   1.505  15.567   4.196
59511W        W31771  25.073  32.030  13.048
59512W        W31772   3.804  36.962  10.485
59513W        W31773  37.878  40.759   3.786
59514W        W31774  26.762   0.923   2.390
59515W        W31775  42.743  18.303   2.697
59516W        W31776  41.958  12.272   4.761
59517W        W31777  16.692  12.502  12.414
59518W        W31778   2.658  19.258   0.823
59519W        W31779  40.119   4.715  12.797
59520W        W31780  10.906  41.846   1.496
59521W        W31781  19.066  27.462   0.333
59522W        W31782  12.401  23.572  10.739
59523W        W31783  26.738  20.358  12.996
59524W        W31784  39.863  27.991  10.670
59525W        W31785  12.197  14.225   1.578
59526W        W31786  20.195  10.211   4.688
59527W        W31787  11.442   8.210  13.110
59528W        W31788  20.356  20.200  13.533
59529W        W31789  19.041  21.033  10.697
59530W        W31790  22.549   0.513   4.160
59531W        W31791  16.011   1.409  13.381
59532W        W31792  34.454  24.776   1.841
59533W        W31793  36.979  17.227  12.658
59534W        W31794  14.308   8.896  13.100
59535W        W31795  35.579  11.240  12.877
59536W        W31796  19.677   0.826   4.736
59537W        W31797  15.229   9.399  10.644
59538W        W31798  39.439  28.286  14.052
59539W        W31799  10.356   2.832   4.005
59540W        W31800  20.226  10.261   3.720
59541W        W31801  35.114   2.662   2.261
59542W        W31802   1.314  10.641  14.777
59543W        W31803  25.462  26.105  14.253
59544W        W31804  42.824  20.287  14.029
59545W        W31805  18.520  34.025  13.842
59546W        W31806   3.337  16.424   1.476
59547W        W31807  26.981  25.382   0.932
59548W        W31808  27.138  29.177  10.735
59549W        W31809  40.960   9.011   2.715
59550W        W31810  43.278  14.251   4.312
59551W        W31811  41.262  10.210  12.121
59552W        W31812  13.724  13.946  10.672
59553W        W31813   3.157  42.223  14.563
59554W        W31814  10.214  15.309  14.323
59555W        W31815  42.307  40.321  12.119
59556W        W31816  31.652  25.090  12.084
59557W        W31817   1.398   0.324  11.413
59558W        W31818  15.845   4.203  12.414
59559W        W31819  24.630   2.294   3.267
59560W        W31820  14.516  42.749   2.596
59561W        W31821  16.140  26.123  11.025
59562W        W31822  17.830   7.488   4.441
59563W        W31823  23.039  34.971   4.747
59564W        W31824  31.497  26.687   4.121
59565W        W31825  28.660  29.360   3.633
59566W        W31826  37.860  27.896  12.783
59567W        W31827  13.910   7.326   3.177
59568W        W31828  25.240  44.767  10.476
59569W        W31829  42.385  20.229  12.267
59570W        W31830  25.567  20.458   0.412
59571W        W31831  33.562  36.887  11.609
59572W        W31832  16.258  22.751  11.144
59573W        W31833  23.068  19.232   5.242
59574W        W31834  33.053  27.681  11.444
59575W        W31835  22.244  25.036  14.620
59576W        W31836  23.957  18.806   0.720
59577W        W31837  32.518   9.505   5.018
59578W        W31838  29.042  41.961   3.914
59579W        W31839   4.934  29.504   3.954
59580W        W31840  22.793  44.983  14.975
59581W        W31841  23.861  20.991  12.425
59582W        W31842  30.667   9.140   2.445
59583W        W31843  24.098  41.414  10.726
59584W        W31844  30.231  40.766   0.210
59585W        W31845  14.989   4.261  12.164
59586W        W31846  21.085  25.702   0.573
59587W        W31847  10.828  32.873   0.409
59588W        W31848  12.690  18.191   3.842
59589W        W31849  35.912   9.680  14.282
59590W        W31850  17.115   7.748  14.802
59591W        W31851  13.153  31.139   3.424
59592W        W31852   1.869   2.481   4.191
59593W        W31853  19.514  44.417  13.747
59594W        W31854  42.883  37.487  14.023
59595W        W31855  10.848  35.581   1.953
59596W        W31856  36.063  23.580  13.545
59597W        W31857   2.926  41.415  13.337
59598W        W31858  11.901  34.406   5.065
59599W        W31859  21.684  42.788   2.576
59600W        W31860  43.396  29.470   1.117
59601W        W31861  34.315  15.716   0.905
59602W        W31862  19.650   4.339   0.331
59603W        W31863   8.355   1.962   4.024
59604W        W31864  10.529  23.754   2.353
59605W        W31865  30.569  39.370   4.384
59606W        W31866  28.417  19.680   4.555
59607W        W31867   6.984  34.376   1.829
59608W        W31868  20.777  22.672  14.817
59609W        W31869   2.526   6.384   0.428
59610W        W31870  33.090   8.414  14.229
59611W        W31871  26.678   8.317   0.732
59612W        W31872  36.964  21.240   4.660
59613W        W31873  26.433  20.489  11.585
59614W        W31874  41.223  36.621   3.677
59615W        W31875  37.588  21.173  12.926
59616W        W31876  21.788  11.684  14.750
59617W        W31877  31.392  43.388  13.399
59618W        W31878  16.637  23.675   2.588
59619W        W31879  13.578  35.035  11.348
59620W        W31880  36.846   4.826  14.300
59621W        W31881   3.913  13.231  14.145
59622W        W31882  17.240  41.794  12.955
59623W        W31883   7.183   9.591   2.763
59624W        W31884  34.612  15.214  11.636
59625W        W31885   9.502  36.498   2.795
59626W        W31886   3.253   6.249  11.868
59627W        W31887  36.942  16.261  14.502
59628W        W31888  26.671  36.194  12.122
59629W        W31889  43.925   2.725  12.396
59630W        W31890   6.991   2.817  13.417
59631W        W31891  10.579  10.716   2.587
59632W        W31892  16.381  43.587  11.442
59633W        W31893   8.780   6.533   3.874
59634W        W31894  34.816  36.986   2.164
59635W        W31895  23.311  35.873   3.669
59636W        W31896  41.980  42.931   3.340
59637W        W31897  16.900  27.199  11.910
59638W        W31898   9.183   2.407  12.435
59639W        W31899  19.002  12.853  14.991
59640W        W31900   9.176   9.282  13.010
59641W        W31901  18.570   4.453  12.067
59642W        W31902  42.267   8.680   1.171
59643W        W31903  19.763  12.643  14.589
59644W        W31904   8.905  30.933  13.748
59645W        W31905   1.972   3.232   3.685
59646W        W31906   2.249  42.755  11.197
59647W        W31907  35.461  14.650   0.544
59648W        W31908  42.209  19.760  12.036
59649W        W31909  28.962  44.288  14.982
59650W        W31910  27.215   7.416  12.118
59651W        W31911  44.744   0.347   4.083
59652W        W31912   6.142   8.353   4.294
59653W        W31913  30.149  26.884   2.789
59654W        W31914  28.413  26.038   4.181
59655W        W31915   9.326  12.125   4.564
59656W        W31916  23.604   0.711   0.360
59657W        W31917  18.433  41.582   2.336
59658W        W31918  40.567   9.448  12.592
59659W        W31919  44.447   7.406   1.213
59660W        W31920  17.562   3.475  13.453
59661W        W31921  16.659  25.522   0.864
59662W        W31922   5.989  38.023  11.515
59663W        W31923  20.667  21.125  13.745
59664W        W31924  11.665  35.465  10.753
59665W        W31925  21.454  27.992   0.703
59666W        W31926   4.614  26.232  10.365
59667W        W31927  44.588  42.396   0.475
59668W        W31928  12.052  23.687  13.810
59669W        W31929  38.012  18.365   0.338
59670W        W31930  19.219   8.755  11.564
59671W        W31931  26.965  17.331  13.456
59672W        W31932  27.014  40.144   0.772
59673W        W31933  43.028   6.440   2.865
59674W        W31934  18.395  22.657   1.412
59675W        W31935   4.642  16.863  10.703
59676W        W31936  29.987  27.371   0.465
59677W        W31937  38.504   3.830  14.389
59678W        W31938  28.106  33.920  11.710
59679W        W31939  36.981  34.935   0.384
59680W        W31940  20.363  27.085  13.018
59681W        W31941  16.230  36.100  14.827
59682W        W31942  42.405  18.251  11.577
59683W        W31943   8.920   7.915  10.818
59684W        W31944  18.611  42.372  11.657
59685W        W31945  30.086  40.572   1.770
59686W        W31946   2.359  28.236   2.846
59687W        W31947  35.364  41.107  11.683
59688W        W31948  33.568   4.627   0.919
59689W        W31949  29.587   4.943   0.337
59690W        W31950  13.278  27.792   9.763
59691W        W31951  13.615   2.980   3.149
59692W        W31952  15.145  16.732  10.678
59693W        W31953  12.580  20.945   4.272
59694W        W31954  14.618  39.807   2.895
59695W        W31955  19.232  22.024   4.566
59696W        W31956  43.485  37.884   3.705
59697W        W31957   7.631  17.056   4.198
59698W        W31958  35.611  27.228   1.937
59699W        W31959  15.840   2.365  12.459
59700W        W31960  15.298  16.587   3.212
59701W        W31961   2.363   7.303   1.745
59702W        W31962  44.349   3.323   1.878
59703W        W31963   8.107  32.110   5.190
59704W        W31964  39.107  42.846   4.364
59705W        W31965  11.352  14.213   4.149
59706W        W31966  43.952  27.416   1.736
59707W        W31967  43.271  21.003  13.310
59708W        W31968  43.525  28.553  14.534
59709W        W31969  41.140  23.037   3.297
59710W        W31970  34.080   4.523   0.846
59711W        W31971  16.535  10.326  11.052
59712W        W31972  28.627  30.634   0.640
59713W        W31973  36.155  33.149  12.052
59714W        W31974   1.451  38.117   2.570
59715W        W31975  35.819  12.753   2.314
59716W        W31976  18.704  10.284   4.580
59717W        W31977  26.569  10.077   3.594
59718W        W31978  15.872   8.909   3.520
59719W        W31979  34.399   3.895  10.665
59720W        W31980  19.472   7.412  13.447
59721W        W31981  20.988  39.826   1.352
59722W        W31982  17.787  16.353   3.205
59723W        W31983   6.315  35.007  11.292
59724W        W31984  14.228  12.708  12.888
59725W        W31985   0.241  40.302  12.978
59726W        W31986  11.859  24.943   0.428
59727W        W31987  26.668  40.094  12.444
59728W        W31988  23.704  23.807   0.760
59729W        W31989  41.416   4.177  12.367
59730W        W31990  22.636  15.123  10.578
59731W        W31991  16.084   3.489   0.021
59732W        W31992  41.765  16.605  13.774
59733W        W31993   2.709  33.198  13.775
59734W        W31994   5.300  16.091  12.865
59735W        W31995  17.095  16.801   3.342
59736W        W31996  36.197  39.169   1.936
59737W        W31997  38.933  26.661   3.146
59738W        W31998  28.620  15.622   4.309
59739W        W31999  13.562  40.238   4.599
59740W        W32000   8.672  26.313   0.988
59741W        W32001  41.436   0.977   1.335
59742W        W32002  15.064   0.498   2.695
59743W        W32003  27.891  18.776   0.904
59744W        W32004  44.418  41.568  11.520
59745W        W32005  36.561  43.709   4.703
59746W        W32006   6.282   7.886   9.953
59747W        W32007  21.568   4.690   2.650
59748W        W32008  19.056   4.252  11.966
59749W        W32009  26.178   6.801   1.003
59750W        W32010   3.926  39.455  10.915
59751W        W32011  16.752  41.420   3.835
59752W        W32012  31.676  16.604  10.718
59753W        W32013   8.617  21.621  11.916
59754W        W32014  40.623  40.028   0.289
59755W        W32015  42.592  18.829   1.316
59756W        W32016  36.579  22.321   1.256
59757W        W32017  42.922   0.292  14.992
59758W        W32018  16.922  14.395  13.581
59759W        W32019  17.023  27.107  12.416
59760W        W32020  16.387   7.343  13.392
59761W        W32021  30.515  18.138   0.392
59762W        W32022   6.238  33.364   3.107
59763W        W32023  21.220  29.614  10.811
59764W        W32024   3.910  21.157  13.457
59765W        W32025   2.475  13.962   5.136
59766W        W32026  25.670  20.290  12.411
59767W        W32027   2.778  14.621   2.904
59768W        W32028  26.107  13.821   2.725
59769W        W32029  16.823  44.556  12.924
59770W        W32030  10.423  17.132  13.589
59771W        W32031   6.045  39.467   0.764
59772W        W32032  27.517  20.981   0.292
59773W        W32033  35.045  33.996   2.522
59774W        W32034  28.532   1.873   1.710
59775W        W32035  16.607  30.999   1.814
59776W        W32036  22.265   0.494  11.102
59777W        W32037   9.160  21.485   1.142
59778W        W32038   5.048  26.976  11.967
59779W        W32039  18.440   2.073   3.492
59780W        W32040  44.775  31.180  10.848
59781W        W32041  15.704  38.544   2.801
59782W        W32042   5.805  22.046  13.371
59783W        W32043  25.161  43.171  11.600
59784W        W32044  10.102  18.820  12.217
59785W        W32045   3.632  41.267   3.845
59786W        W32046   5.969  11.155   3.669
59787W        W32047  20.629  19.427  13.972
59788W        W32048  13.709  25.738  12.554
59789W        W32049  19.892  12.292  12.720
59790W        W32050  30.632  44.563   3.256
59791W        W32051  35.584  23.173   0.192
59792W        W32052  23.694   6.367  13.430
59793W        W32053  23.122  44.393   0.682
59794W        W32054  14.481  10.229  10.278
59795W        W32055  32.540  44.233   3.275
59796W        W32056   9.451  30.646   3.743
59797W        W32057  27.762  41.388   5.456
59798W        W32058   7.336   6.912  12.804
59799W        W32059  32.966  29.355  12.383
59800W        W32060  18.687  18.709  11.417
59801W        W32061  34.788   5.229   1.146
59802W        W32062  27.392   9.092   2.915
59803W        W32063  14.045  33.099   4.710
59804W        W32064   0.979  18.053  12.635
59805W        W32065  43.813  37.631  10.571
59806W        W32066  33.416  20.281   4.704
59807W        W32067  44.005  37.000   0.224
59808W        W32068  31.161   2.520  14.408
59809W        W32069  32.533  36.952  11.557
59810W        W32070   9.951  26.396  14.431
59811W        W32071   3.688  25.622  13.879
59812W        W32072  21.770  23.577   0.023
59813W        W32073  20.422  36.002  10.821
59814W        W32074  34.899  21.490  12.458
59815W        W32075  18.750  44.544   4.141
59816W        W32076   5.727   9.159   2.573
59817W        W32077   8.915  44.990  14.441
59818W        W32078  38.381   9.026  10.182
59819W        W32079  33.242  36.557  12.715
59820W        W32080   6.523  22.073  13.905
59821W        W32081  35.595  38.329  12.851
59822W        W32082   6.916  37.435  12.405
59823W        W32083  23.188   9.804  14.351
59824W        W32084  32.189  38.041   1.188
59825W        W32085  16.862  21.195   1.690
59826W        W32086  13.509   0.476  14.974
59827W        W32087  18.386  27.340  12.332
59828W        W32088  31.380  25.710  11.240
59829W        W32089  16.439  28.907  13.820
59830W        W32090  41.515  38.329   5.239
59831W        W32091  33.052  12.821   3.697
59832W        W32092  22.129  30.823   3.267
59833W        W32093  33.498  14.706  14.567
59834W        W32094  13.645  34.969   0.506
59835W        W32095  18.505  21.934   2.420
59836W        W32096  32.409  27.600  12.047
59837W        W32097   5.230   0.909   0.838
59838W        W32098  11.267  35.122   3.943
59839W        W32099  28.141  39.623  11.842
59840W        W32100  44.052  43.447  13.588
59841W        W32101  36.962  22.727  12.564
59842W        W32102  27.952   7.677  10.506
59843W        W32103  24.545  19.030   3.796
59844W        W32104   2.412   6.082  11.016
59845W        W32105   9.748  13.639  12.671
59846W        W32106  42.963   5.637   3.645
59847W        W32107   3.144  16.857   3.595
59848W        W32108  40.248  23.978   2.149
59849W        W32109  27.581   0.532   1.487
59850W        W32110  34.206  44.943   4.123
59851W        W32111   7.916  19.002  13.753
59852W        W32112  15.184  33.851  14.968
59853W        W32113  13.698  18.829   1.920
59854W        W32114   2.823  40.748   2.198
59855W        W32115   2.414   8.456  12.111
59856W        W32116   3.481  16.903   0.209
59857W        W32117   6.323  12.873  11.080
59858W        W32118  13.019  15.613  12.086
59859W        W32119  44.750  20.334  12.082
59860W        W32120  43.296  25.051   5.107
59861W        W32121  30.539  26.703  14.432
59862W        W32122  14.303  11.190  13.958
59863W        W32123  11.453  10.456  11.145
59864W        W32124  34.002  40.573   3.169
59865W        W32125   3.710   0.353   2.786
59866W        W32126  25.609  17.226   1.916
59867W        W32127   7.272   2.523  14.953
59868W        W32128   9.154  16.101  13.678
59869W        W32129   9.877  33.217   0.693
59870W        W32130  11.163  28.535   4.980
59871W        W32131  34.057  30.385   2.846
59872W        W32132  40.728  36.947  13.787
59873W        W32133   4.218   1.996  12.992
59874W        W32134   8.357  17.218  12.216
59875W        W32135  34.366   4.971  13.950
59876W        W32136   6.158  18.030   3.131
59877W        W32137  41.459  14.706   0.042
59878W        W32138  37.341  23.954  11.949
59879W        W32139  13.305  20.257   1.935
59880W        W32140   5.483   9.869  12.438
59881W        W32141  20.788  15.610   2.248
59882W        W32142  15.650  26.403   3.695
59883W        W32143  20.246  37.509  13.309
59884W        W32144  24.998  15.378   4.224
59885W        W32145  35.609   5.311   0.525
59886W        W32146  38.696  22.854  11.139
59887W        W32147  35.163  18.227   1.081
59888W        W32148  27.655  18.047   3.992
59889W        W32149  40.879  25.121   4.470
59890W        W32150  39.884  40.858   0.983
59891W        W32151  17.831   9.694  12.110
59892W        W32152   1.597   4.288  13.483
59893W        W32153  15.910  17.301  14.123
59894W        W32154  23.208   9.238  11.076
59895W        W32155  37.788  15.873   1.243
59896W        W32156  44.565  42.241  13.160
59897W        W32157  21.512  36.114  12.006
59898W        W32158  44.351  25.968  14.907
59899W        W32159  16.977  32.214   1.921
59900W        W32160  41.171  12.883   1.453
59901W        W32161  35.642  33.568  11.131
59902W        W32162  18.136   3.987   2.421
59903W        W32163   5.852   1.279   4.112
59904W        W32164   2.281   5.711   4.589
59905W        W32165  27.391  31.665  13.842
59906W        W32166  22.494  29.343  10.077
59907W        W32167  18.265  17.863  11.158
59908W        W32168   3.760  44.950  13.337
59909W        W32169   9.719   0.381   0.930
59910W        W32170   0.793   5.727   0.418
59911W        W32171  41.856  28.184  10.939
59912W        W32172   9.251   6.541  11.492
59913W        W32173  12.680  26.309  12.961
59914W        W32174  23.717  42.768   4.794
59915W        W32175  35.653  21.534   9.814
59916W        W32176  21.779   5.902   2.381
59917W        W32177  43.693  33.450  13.137
59918W        W32178   9.959  41.492   0.845
59919W        W32179  12.787  16.708  11.544
59920W        W32180  16.276  43.479  10.931
59921W        W32181   5.756  23.571  12.924
59922W        W32182  40.903   6.370  12.922
59923W        W32183   8.516   9.587  12.030
59924W        W32184  13.232  20.839  13.221
59925W        W32185  37.397  20.937  13.341
59926W        W32186  15.269  33.475   4.123
59927W        W32187   1.312  14.346  11.646
59928W        W32188  44.378  16.231  14.280
59929W        W32189   1.552  35.352   1.700
59930W        W32190  26.192  15.513  12.810
59931W        W32191  33.959  39.096  13.802
59932W        W32192  20.282  44.983  13.033
59933W        W32193  26.226  39.453   4.526
59934W        W32194   4.351  22.134   3.139
59935W        W32195   4.767   5.936   1.872
59936W        W32196  44.876  26.486  13.774
59937W        W32197   7.752   9.690  13.026
59938W        W32198   5.914  23.471   4.302
59939W        W32199   2.812  32.869  14.377
59940W        W32200  10.864  31.586   4.635
59941W        W32201  24.095  31.620  10.912
59942W        W32202  34.523  25.429  12.058
59943W        W32203  22.967  28.530  13.659
59944W        W32204   7.669  31.369   0.344
59945W        W32205   5.017  30.624  10.050
59946W        W32206  11.202  35.242  10.601
59947W        W32207  10.201  14.155   1.967
59948W        W32208  39.348  38.766  14.106
59949W        W32209  36.987  31.550  10.911
59950W        W32210  15.065  16.573  13.503
59951W        W32211  29.384   3.972   1.459
59952W        W32212  29.858  19.703   4.553
59953W        W32213  16.152  44.827   2.154
59954W        W32214  11.897  28.881   0.493
59955W        W32215   1.309  40.015   0.438
59956W        W32216  25.666  43.721  12.901
59957W        W32217  12.247  23.428   3.541
59958W        W32218  35.165  20.977  13.025
59959W        W32219  18.756  29.823  14.026
59960W        W32220  26.459   3.409   1.753
59961W        W32221  18.793  12.896   2.189
59962W        W32222  12.728   9.017   0.938
59963W        W32223  33.058  40.840   4.535
59964W        W32224  11.007  22.654   0.441
59965W        W32225  18.030  19.645   2.257
59966W        W32226  39.028  29.040  13.169
59967W        W32227   8.409   4.880   1.735
59968W        W32228  19.620  24.435   4.845
59969W        W32229  27.436   9.843  12.357
59970W        W32230  39.087  25.272   1.317
59971W        W32231   0.692  25.823  11.930
59972W        W32232  14.553   1.772   0.033
59973W        W32233  24.461  41.264   4.122
59974W        W32234  39.243  19.180   4.152
59975W        W32235   7.466   0.751  14.306
59976W        W32236  34.548  12.331  12.569
59977W        W32237   4.000  23.978  11.537
59978W        W32238   9.890  17.704   4.625
59979W        W32239   5.640  36.891  12.625
59980W        W32240  43.772  34.663   0.603
59981W        W32241  18.862  10.220  11.491
59982W        W32242   5.396   2.961  14.172
59983W        W32243   8.848  19.360  12.065
59984W        W32244  25.087   2.943   0.813
59985W        W32245   1.817  42.363   2.208
59986W        W32246  33.184  39.963   1.881
59987W        W32247   1.633  13.138   0.647
59988W        W32248  35.914   3.136  12.114
59989W        W32249  38.386  24.054   4.314
59990W        W32250  44.395  40.274  11.307
59991W        W32251  44.252   0.448  13.208
59992W        W32252  13.099  11.294  13.419
59993W        W32253  36.544   8.372   0.278
59994W        W32254  30.784  16.664  14.940
59995W        W32255   3.763  33.493  12.037
59996W        W32256  10.156   5.344   1.261
59997W        W32257  24.124  41.014  11.230
59998W        W32258   1.067  44.394   2.645
59999W        W32259  14.420  15.685  10.470
60000W        W32260  23.029  39.239  11.998
60001W        W32261  34.543  33.575   1.432
60002W        W32262  41.505  12.952  14.231
60003W        W32263   3.638  30.805   0.397
60004W        W32264  31.959   4.639  12.487
60005W        W32265  42.261  10.593  12.842
60006W        W32266  26.381   2.415   0.770
60007W        W32267  34.949   6.428   1.255
60008W        W32268  17.026   3.762   4.205
60009W        W32269  10.910  36.492  12.166
60010W        W32270  24.733   5.410   0.793
60011W        W32271  29.662  41.713   1.925
60012W        W32272   3.119   6.674   2.189
60013W        W32273   6.001  40.102   4.118
60014W        W32274   4.135  31.580  11.040
60015W        W32275  15.808  19.155   3.759
60016W        W32276   3.857   7.382   1.073
60017W        W32277   9.713  19.257  13.006
60018W        W32278  19.639  25.969   0.820
60019W        W32279   7.910  31.031   2.725
60020W        W32280   3.963  29.692  14.797
60021W        W32281   9.323  11.662  13.502
60022W        W32282  42.895  28.934  10.098
60023W        W32283  24.342  18.706  11.196
60024W        W32284  30.164   3.478   4.487
60025W        W32285   6.983  32.191  13.772
60026W        W32286  15.233  41.960   2.143
60027W        W32287  25.917   0.792   1.282
60028W        W32288  30.869  17.191  13.407
60029W        W32289  41.722  21.650  11.692
60030W        W32290  31.549  30.116   0.188
60031W        W32291  30.946  36.009   2.132
60032W        W32292  17.749   8.976   2.984
60033W        W32293  32.720  43.877  12.465
60034W        W32294  43.977  25.666  14.697
60035W        W32295   1.518   5.823   4.037
60036W        W32296  26.556  32.831   0.770
60037W        W32297  17.294   3.217  12.111
60038W        W32298  26.931  43.012   0.726
60039W        W32299  17.296  39.931   3.753
60040W        W32300   9.406  12.785  10.728
60041W        W32301  39.804  40.492  11.624
60042W        W32302  18.396  37.058  14.607
60043W        W32303  42.779   5.472   2.574
60044W        W32304  25.007  23.547   1.004
60045W        W32305  11.899  35.570  14.956
60046W        W32306  26.694  40.497  13.467
60047W        W32307  18.649  30.652   5.206
60048W        W32308   6.682  17.972   3.236
60049W        W32309  38.542  22.474  11.460
60050W        W32310  32.607  13.098   0.813
60051W        W32311   7.863   7.382  11.266
60052W        W32312  21.712  32.545  10.592
60053W        W32313  21.539  23.059   2.334
60054W        W32314   0.556  35.057  12.373
60055W        W32315  20.767  35.002  12.397
60056W        W32316  42.265  19.791  10.331
60057W        W32317  16.065  38.283  10.556
60058W        W32318  12.682  37.972  12.800
60059W        W32319   7.142  15.014  10.784
60060W        W32320  28.192   7.457  11.933
60061W        W32321  34.644   9.125   3.255
60062W        W32322  13.144   1.537  13.116
60063W        W32323   9.442  33.376   0.431
60064W        W32324  33.864  34.096   0.999
60065W        W32325   3.936   4.075   0.476
60066W        W32326  29.912  36.080  12.580
60067W        W32327  14.552  21.149  14.844
60068W        W32328   3.891  33.163   2.795
60069W        W32329  37.502   3.932   2.829
60070W        W32330  29.200  19.027  14.861
60071W        W32331  16.699  22.062   4.651
60072W        W32332  34.146   8.908   1.785
60073W        W32333   9.313  40.332  12.044
60074W        W32334  43.488  28.240   1.764
60075W        W32335  37.629   9.190   5.492
60076W        W32336  27.231  34.628   3.257
60077W        W32337   9.815  28.407   2.397
60078W        W32338   2.623   6.836   4.462
60079W        W32339  29.901  38.956   4.279
60080W        W32340   7.728  44.433   3.642
60081W        W32341  16.775   3.952   4.617
60082W        W32342  31.128  33.723  12.861
60083W        W32343  23.779  11.774   3.071
60084W        W32344  22.615  22.561   3.828
60085W        W32345  27.365  37.054  14.624
60086W        W32346   5.344  30.652   3.198
60087W        W32347  18.620  40.422  11.858
60088W        W32348  27.713  10.959  12.899
60089W        W32349   8.207  36.779   0.506
60090W        W32350   2.653  44.801   2.312
60091W        W32351   2.005   0.741   1.273
60092W        W32352  13.140  24.926  12.650
60093W        W32353   8.127  16.065  13.741
60094W        W32354  23.474  28.524  13.760
60095W        W32355  16.203  37.762   4.430
60096W        W32356  22.898  14.658  11.605
60097W        W32357  40.484  25.494   4.489
60098W        W32358  12.676   3.922  13.161
60099W        W32359  33.067   0.230  14.870
60100W        W32360  33.401  28.533   4.343
60101W        W32361  27.168  41.792   5.096
60102W        W32362  20.304  22.054  14.451
60103W        W32363  35.552  31.055   3.217
60104W        W32364  17.278  40.543  13.866
60105W        W32365   9.744  29.216   2.701
60106W        W32366  36.938   5.126  12.053
60107W        W32367  41.631  29.575   0.372
60108W        W32368   5.929  21.993   1.729
60109W        W32369   8.252   4.008  12.109
60110W        W32370  17.297  17.252  12.413
60111W        W32371   4.945   1.482  12.868
60112W        W32372  15.219   0.245  14.256
60113W        W32373  31.258  28.571   2.180
60114W        W32374  35.055  43.798   2.862
60115W        W32375  31.646  33.681  12.739
60116W        W32376  22.670  13.379   4.692
60117W        W32377  32.455  24.251   2.378
60118W        W32378  22.658   1.760  10.754
60119W        W32379  25.094   1.733   4.362
60120W        W32380  33.400  30.035  11.080
60121W        W32381  15.207  32.929   4.598
60122W        W32382   1.980  13.188   2.585
60123W        W32383  17.776  10.155  10.664
60124W        W32384   4.873  23.596  12.543
60125W        W32385  31.377  18.569  10.716
60126W        W32386  21.170  25.653  11.880
60127W        W32387   2.052  34.499  10.277
60128W        W32388  40.413  17.064   4.737
60129W        W32389   2.738   5.372  14.400
60130W        W32390   3.741  28.687   0.874
60131W        W32391  24.147  15.529  11.991
60132W        W32392  13.781  10.464   4.368
60133W        W32393   5.669   4.923   2.203
60134W        W32394  39.387  33.008   4.580
60135W        W32395   8.773  35.631   0.052
60136W        W32396  34.632  12.123   2.416
60137W        W32397  24.107  20.831  14.017
60138W        W32398   2.920  19.559  14.368
60139W        W32399  21.475  10.149   1.256
60140W        W32400  38.597  31.130   1.767
60141W        W32401  16.366  39.290  10.738
60142W        W32402   1.801  19.973   4.209
60143W        W32403  16.652  24.546  11.414
60144W        W32404  19.166  36.920   2.697
60145W        W32405  12.093   0.373  11.955
60146W        W32406  30.164  23.507   1.913
60147W        W32407  37.352  41.880   0.411
60148W        W32408  40.914  36.356   4.500
60149W        W32409  17.736  10.297   4.835
60150W        W32410  22.042   3.147  14.752
60151W        W32411  22.515  23.570  11.664
60152W        W32412  11.624  22.111   4.937
60153W        W32413  28.569  17.590  14.340
60154W        W32414   2.157  20.065  12.037
60155W        W32415  41.289  20.518  13.895
60156W        W32416  42.398  32.585   4.582
60157W        W32417   8.197  14.586   4.082
60158W        W32418  36.496   4.476  10.725
60159W        W32419  20.536  42.069   2.607
60160W        W32420  44.379  23.962   9.948
60161W        W32421  29.908  44.599   2.828
60162W        W32422  40.046  10.974   3.816
60163W        W32423   7.414  30.387   1.586
60164W        W32424  42.222  17.697   0.992
60165W        W32425   2.480  12.836   1.886
60166W        W32426  40.495   9.745   0.720
60167W        W32427  16.457  35.273  14.905
60168W        W32428  24.692  15.128  14.301
60169W        W32429   3.669   4.787   3.302
60170W        W32430  29.515  25.538  10.681
60171W        W32431  10.507  11.153  14.481
60172W        W32432   5.467   8.903   0.373
60173W        W32433   1.904  20.764   3.731
60174W        W32434  14.655  31.681  11.666
60175W        W32435  24.027  14.691   1.462
60176W        W32436   4.521   6.659   4.587
60177W        W32437  23.960   5.685  13.022
60178W        W32438   6.344  21.130   1.398
60179W        W32439   2.419  10.148   2.329
60180W        W32440   5.640  18.134   2.198
60181W        W32441  31.529   6.426  12.892
60182W        W32442   7.928   7.706  14.021
60183W        W32443  13.973   2.732  14.441
60184W        W32444   5.175  40.326  11.146
60185W        W32445  37.456   7.980  14.485
60186W        W32446  35.677   5.911  13.280
60187W        W32447  40.471  31.013   2.788
60188W        W32448  30.466  23.685   0.436
60189W        W32449   5.158   6.450   2.757
60190W        W32450  27.948   6.335  12.542
60191W        W32451  14.886   5.178  10.767
60192W        W32452  41.389  41.464   0.493
60193W        W32453  34.990  17.823   2.748
60194W        W32454  41.162  40.740  12.041
60195W        W32455  24.981  19.192  11.706
60196W        W32456  13.300  34.459  13.781
60197W        W32457  32.939  27.305  13.955
60198W        W32458   9.441  32.344   1.852
60199W        W32459  27.474  28.029  13.610
60200W        W32460  31.276  44.327  11.591
60201W        W32461  15.694  38.714   4.533
60202W        W32462   9.881   1.540   0.323
60203W        W32463  24.426  19.595  11.057
60204W        W32464  29.574  29.802  14.773
60205W        W32465  38.102   5.375  14.861
60206W        W32466  31.635   9.192   2.385
60207W        W32467  33.578  41.278   0.390
60208W        W32468  36.712   9.436  14.316
60209W        W32469  12.255  40.451   0.048
60210W        W32470  38.415   3.409  13.465
60211W        W32471   5.708  34.458  11.139
60212W        W32472  25.946  25.033  12.537
60213W        W32473   8.673   7.657  13.585
60214W        W32474  11.548  36.495  10.778
60215W        W32475  24.467  39.080  13.947
60216W        W32476  33.683  30.555  12.265
60217W        W32477   6.988  28.698   0.679
60218W        W32478  22.798  21.726   2.128
60219W        W32479  34.552  29.636   1.691
60220W        W32480  30.546  19.497  11.510
60221W        W32481  43.706  33.895   1.297
60222W        W32482  36.347  12.694   0.246
60223W        W32483  16.250  10.298   3.902
60224W        W32484   6.287   5.906  14.418
60225W        W32485   2.291   6.934   2.727
60226W        W32486  40.309  43.600  11.165
60227W        W32487  43.011  38.975   5.478
60228W        W32488  10.904  11.100   1.632
60229W        W32489  43.825  14.767   0.367
60230W        W32490  30.589  14.116   3.789
60231W        W32491  16.060   9.518  12.083
60232W        W32492  27.132   5.288  14.397
60233W        W32493  40.318  40.884   2.395
60234W        W32494  37.561   0.966   0.712
60235W        W32495  19.805  11.714   2.224
60236W        W32496  41.872  25.978   1.343
60237W        W32497  40.827  39.849   2.131
60238W        W32498   2.261  12.055  13.066
60239W        W32499   3.461  31.000   3.728
60240W        W32500   8.140  24.133  13.340
60241W        W32501  38.609   7.750  13.497
60242W        W32502  30.984  32.607   9.623
60243W        W32503   1.155  33.506   4.193
60244W        W32504  38.441  38.276  13.365
60245W        W32505   4.952  28.197  14.329
60246W        W32506   0.253  23.569   0.334
60247W        W32507  17.460  17.726   1.567
60248W        W32508  42.780   3.640  11.318
60249W        W32509   6.204  19.126  12.036
60250W        W32510  25.159  42.123  14.904
60251W        W32511  32.995   1.306  14.205
60252W        W32512   9.621  36.511   0.886
60253W        W32513   9.675  37.237   0.078
60254W        W32514  23.962   6.594   0.799
60255W        W32515   9.270  30.935   2.381
60256W        W32516  34.935  16.429   4.229
60257W        W32517  18.165  21.061   4.533
60258W        W32518   5.949   1.327   2.779
60259W        W32519  23.241  25.770   1.874
60260W        W32520  27.724  28.503   2.427
60261W        W32521  24.938  43.673   4.265
60262W        W32522  30.595  28.776   3.647
60263W        W32523  11.697  17.258  13.824
60264W        W32524  12.751  13.147  14.940
60265W        W32525   6.895  32.627  14.720
60266W        W32526  29.582  31.607  10.412
60267W        W32527   3.191  27.054  14.758
60268W        W32528  19.187  22.445  14.893
60269W        W32529  29.039  28.713  11.369
60270W        W32530  21.172  28.276  10.943
60271W        W32531  21.099  23.075  14.575
60272W        W32532   9.675  34.486   3.284
60273W        W32533  28.601  28.901   1.862
60274W        W32534   2.186   1.244   3.967
60275W        W32535   4.353  44.106  13.288
60276W        W32536  11.117  38.350  11.614
60277W        W32537  12.158  24.053   2.118
60278W        W32538  23.257  43.893   0.840
60279W        W32539  39.813   2.862  10.760
60280W        W32540  38.086  24.936   3.755
60281W        W32541  14.918  31.702   3.226
60282W        W32542  38.321  42.357   4.831
60283W        W32543  37.462   1.164  13.924
60284W        W32544  30.601  28.361   0.811
60285W        W32545  40.836  33.550   0.315
60286W        W32546   4.201  41.029   4.691
60287W        W32547   0.951  28.638  11.976
60288W        W32548  11.965  35.910   0.863
60289W        W32549  20.097  26.077   1.025
60290W        W32550  21.538   1.853  13.218
60291W        W32551   5.803  33.983  14.827
60292W        W32552   0.292  26.615   3.705
60293W        W32553  16.045   3.364   5.031
60294W        W32554  29.937  16.957   1.503
60295W        W32555  23.388   0.478   3.230
60296W        W32556  25.987  38.535  10.653
60297W        W32557  18.118  15.498   0.426
60298W        W32558  34.729  33.497   3.859
60299W        W32559   1.991   4.295   4.345
60300W        W32560   2.359  30.259   4.198
60301W        W32561  28.944  15.149   0.247
60302W        W32562  18.754  40.368  13.750
60303W        W32563  42.779  14.760   4.698
60304W        W32564  32.106  42.540   2.412
60305W        W32565  18.631   9.390   2.772
60306W        W32566   0.258   5.730   3.451
60307W        W32567  44.444  41.982   4.440
60308W        W32568  41.699  12.055  11.118
60309W        W32569   6.834  15.735   3.821
60310W        W32570  22.528  23.158  12.077
60311W        W32571  23.787  33.482   2.182
60312W        W32572  39.094  17.740   2.315
60313W        W32573  32.181  32.546   0.946
60314W        W32574  18.177  40.578  13.678
60315W        W32575  23.477  42.497   1.820
60316W        W32576  34.171  17.505   0.862
60317W        W32577  29.639  43.557  13.296
60318W        W32578  18.785  19.279  14.867
60319W        W32579   0.826  39.134   5.020
60320W        W32580  22.417   7.118   0.911
60321W        W32581  18.641   3.189   2.160
60322W        W32582   7.682  32.319  11.225
60323W        W32583  13.421  36.998   1.259
60324W        W32584   5.690  13.240   4.431
60325W        W32585   2.932  14.270   3.270
60326W        W32586  13.139   5.112  10.841
60327W        W32587   9.289   0.670   0.938
60328W        W32588  15.752  10.714  14.431
60329W        W32589  11.261  33.369  12.367
60330W        W32590  30.514  18.647  13.870
60331W        W32591  19.120   7.589   2.841
60332W        W32592  42.537  30.217   3.219
60333W        W32593  33.623  13.355   0.397
60334W        W32594  19.528  14.213   1.930
60335W        W32595  42.738   9.217  11.480
60336W        W32596  12.770  26.076   4.353
60337W        W32597  12.996   4.250  11.394
60338W        W32598  25.498  40.589  10.858
60339W        W32599  29.611  43.838  11.781
60340W        W32600  26.373  30.606  11.568
60341W        W32601  27.610  15.497  10.062
60342W        W32602  22.233  24.577  14.400
60343W        W32603  10.399  21.751  11.168
60344W        W32604  30.415  31.502  13.430
60345W        W32605  15.238  12.391   0.932
60346W        W32606   6.302  20.389  11.602
60347W        W32607  38.793  24.937   4.217
60348W        W32608   6.261   9.400   4.260
60349W        W32609   2.379  34.377  12.589
60350W        W32610  18.905  27.528  12.402
60351W        W32611  26.909  26.719   2.799
60352W        W32612   9.260   5.817  10.975
60353W        W32613   4.867   9.174   4.159
60354W        W32614  37.357  15.252   4.179
60355W        W32615  24.277  32.094   2.366
60356W        W32616  24.148  28.696  13.070
60357W        W32617  19.037   8.016   5.010
60358W        W32618  28.636  16.149  12.560
60359W        W32619  24.620   1.151  11.009
60360W        W32620  16.584  24.549  10.537
60361W        W32621  25.469  24.813  12.500
60362W        W32622  35.087   5.335   1.861
60363W        W32623   3.318  28.508   0.071
60364W        W32624  21.012  36.839   4.189
60365W        W32625  20.002  22.519  13.564
60366W        W32626  19.929  36.620   4.045
60367W        W32627  19.635   5.779   0.790
60368W        W32628  16.699  35.083  11.173
60369W        W32629   2.461  28.635   1.044
60370W        W32630  37.365  16.556  11.174
60371W        W32631  19.169  39.856   1.815
60372W        W32632  42.010   9.328   1.816
60373W        W32633   3.753  25.934   2.865
60374W        W32634   2.703  12.061   3.877
60375W        W32635  15.359   4.876  10.058
60376W        W32636  25.802   3.915  12.444
60377W        W32637  16.674  19.323   2.361
60378W        W32638  37.957   4.268   3.252
60379W        W32639  10.924  42.843   0.535
60380W        W32640  18.470  31.414  11.710
60381W        W32641  34.623  40.699  12.227
60382W        W32642  25.884   3.413   2.546
60383W        W32643  39.806   3.352   0.548
60384W        W32644  42.846  18.865  12.917
60385W        W32645  22.439  12.467  10.050
60386W        W32646  41.960  26.634   1.437
60387W        W32647  30.636   7.134   3.097
60388W        W32648  20.617  27.496  14.303
60389W        W32649  14.706  16.286  11.993
60390W        W32650  26.701  15.201   2.243
60391W        W32651  12.318  24.899  11.994
60392W        W32652  29.948  38.891  14.953
60393W        W32653  43.872   6.848   4.106
60394W        W32654   8.490  14.987  11.615
60395W        W32655  11.875  35.553   2.731
60396W        W32656   7.750  26.036  11.536
60397W        W32657  25.624  42.346   0.750
60398W        W32658   4.184  19.175   4.683
60399W        W32659   9.099  20.322  12.045
60400W        W32660  23.776  23.372  12.234
60401W        W32661  23.918  27.042   1.836
60402W        W32662   4.851  37.300   9.708
60403W        W32663  11.071  43.813   0.440
60404W        W32664  26.424  30.118   3.943
60405W        W32665  26.613  28.218  11.590
60406W        W32666  37.935  10.651   1.285
60407W        W32667  19.811  19.178   2.893
60408W        W32668  27.930  34.766   2.263
60409W        W32669  23.215  15.460  11.662
60410W        W32670  41.969   4.417   2.354
60411W        W32671  33.662  28.531  14.845
60412W        W32672  11.498  41.044   2.723
60413W        W32673  17.750   7.632  13.578
60414W        W32674  19.758  17.108   1.906
60415W        W32675  16.533  12.047   1.796
60416W        W32676  30.919  12.154   3.387
60417W        W32677   0.688  19.168  10.804
60418W        W32678  12.244  42.445  12.417
60419W        W32679  29.388  20.132   2.459
60420W        W32680  34.121  39.793   1.865
60421W        W32681  13.413  14.229  13.500
60422W        W32682  12.674  19.540   3.329
60423W        W32683   8.831   0.642  10.647
60424W        W32684  17.365  30.106  12.547
60425W        W32685  26.561  25.433   4.776
60426W        W32686  18.526  29.099   0.353
60427W        W32687  41.843  28.093  11.436
60428W        W32688  13.305  13.180   1.822
60429W        W32689  29.468   3.412  10.968
60430W        W32690  39.099  37.388   2.389
60431W        W32691  19.664  10.285  14.589
60432W        W32692  15.906  40.927   2.763
60433W        W32693  25.175   1.804  14.329
60434W        W32694   6.932  25.069  12.001
60435W        W32695  41.988  35.012  13.678
60436W        W32696   1.829  30.857   3.615
60437W        W32697  37.021  29.353   4.510
60438W        W32698  44.727  37.059   4.182
60439W        W32699  40.535  12.126   3.685
60440W        W32700  43.185   3.913  12.449
60441W        W32701  33.343  25.664   1.082
60442W        W32702  30.210  22.442   2.588
60443W        W32703  36.410  21.789   2.861
60444W        W32704  43.831  36.422  14.376
60445W        W32705  19.500  29.035  11.455
60446W        W32706  25.251  42.921  12.978
60447W        W32707  17.345  26.054   4.014
60448W        W32708  32.009  24.690  13.281
60449W        W32709  40.250   6.965  14.528
60450W        W32710  24.793  39.656   2.825
60451W        W32711  16.701  16.976   5.076
60452W        W32712  14.292   6.787  10.492
60453W        W32713  18.080  25.011   1.777
60454W        W32714  34.311  43.015   2.625
60455W        W32715  38.033  13.513   4.752
60456W        W32716  18.381  43.324   2.669
60457W        W32717  24.132   4.931   3.172
60458W        W32718  24.725   2.344  10.815
60459W        W32719   4.426   9.735   4.736
60460W        W32720  15.305  20.083   0.986
60461W        W32721  15.388   0.002   0.935
60462W        W32722  33.488  29.679   2.795
60463W        W32723  22.739   6.878  13.347
60464W        W32724  22.740  44.509   1.815
60465W        W32725  22.678   7.188   2.660
60466W        W32726  10.649  44.275  13.769
60467W        W32727  10.287   2.377  10.873
60468W        W32728   8.469   7.770  13.110
60469W        W32729  23.930  13.121   2.174
60470W        W32730  10.351   7.252   3.174
60471W        W32731  34.558  21.576   1.013
60472W        W32732  41.203  26.033   0.506
60473W        W32733  27.360  20.623   1.697
60474W        W32734  29.536   9.425   1.589
60475W        W32735  40.429   7.887  14.572
60476W        W32736  26.972   7.897  10.493
60477W        W32737  29.024  30.195  11.386
60478W        W32738  36.885  11.315   1.246
60479W        W32739   9.746   1.348   2.611
60480W        W32740  26.933  24.641  11.974
60481W        W32741  37.148  22.635   3.701
60482W        W32742  38.171  25.748  13.864
60483W        W32743   5.956  33.902   1.353
60484W        W32744  13.656  12.215   4.485
60485W        W32745  43.368  33.633  11.874
60486W        W32746   5.208  19.754  12.534
60487W        W32747   7.392  20.197  10.456
60488W        W32748  15.333  22.609  12.928
60489W        W32749  10.292   7.147   4.657
60490W        W32750   7.287   6.864   4.346
60491W        W32751  30.160  39.436  12.454
60492W        W32752  38.243  32.120  11.154
60493W        W32753  41.309  44.952   4.268
60494W        W32754   7.617  14.367  13.908
60495W        W32755  35.450   8.546  11.193
60496W        W32756  19.218   0.270  14.858
60497W        W32757  20.046  11.701  11.967
60498W        W32758  20.370  41.765  12.527
60499W        W32759  28.659  23.103  14.406
60500W        W32760  14.856  36.984   3.593
60501W        W32761  44.807  43.754   3.683
60502W        W32762  11.863  31.599  10.848
60503W        W32763   9.656  33.561   4.314
60504W        W32764  15.086  41.425   1.834
60505W        W32765  30.327  23.998   1.892
60506W        W32766   5.657   6.295   1.867
60507W        W32767  29.094  26.196   4.453
60508W        W32768  13.241  28.320   9.806
60509W        W32769   6.265  21.290  11.993
60510W        W32770  11.720   9.682   3.671
60511W        W32771  34.681  12.100   4.221
60512W        W32772  18.713  34.355   2.859
60513W        W32773  13.321  27.073  10.311
60514W        W32774   5.271  35.932  14.393
60515W        W32775   6.939   0.397  12.814
60516W        W32776  15.047  32.000  12.816
60517W        W32777  35.078  27.200   1.762
60518W        W32778  36.753   1.259  10.735
60519W        W32779  41.329  43.742  14.409
60520W        W32780  35.519  20.244   1.345
60521W        W32781  40.024   6.522  11.662
60522W        W32782  43.752  31.172   4.326
60523W        W32783   6.982  43.539   3.366
60524W        W32784   1.690  32.643  14.450
60525W        W32785  39.958  28.596   2.090
60526W        W32786  26.527  16.112   1.929
60527W        W32787  38.480   5.169  12.601
60528W        W32788  28.418  28.171  11.649
60529W        W32789  36.473  39.675  11.910
60530W        W32790   0.963  16.260  13.996
60531W        W32791   2.715  10.135   2.810
60532W        W32792  15.617  35.099   2.904
60533W        W32793  44.346   9.653   2.704
60534W        W32794  13.430  37.334  11.596
60535W        W32795  25.305  43.062   2.754
60536W        W32796  10.753  20.509   4.064
60537W        W32797  41.406  20.504   1.638
60538W        W32798   4.784  20.075   2.884
60539W        W32799   0.262  20.809   0.309
60540W        W32800  41.443   7.002   2.861
60541W        W32801  31.883   0.316  14.883
60542W        W32802   1.749  29.824  11.473
60543W        W32803   3.354  11.385  11.630
60544W        W32804   2.048  31.849  10.150
60545W        W32805  37.550  15.719   1.987
60546W        W32806   7.394  35.472   4.590
60547W        W32807  30.582  34.742   0.991
60548W        W32808  29.601  10.385   5.135
60549W        W32809  19.049  23.134  10.607
60550W        W32810  17.248   6.761   1.081
60551W        W32811  23.581  25.105   0.094
60552W        W32812  17.565  28.106  11.096
60553W        W32813  42.975  28.269  15.000
60554W        W32814  28.580  17.742   0.619
60555W        W32815  39.388  25.777  12.058
60556W        W32816  10.031  16.910   1.422
60557W        W32817  30.554  38.374   2.652
60558W        W32818  24.739   8.841  11.500
60559W        W32819  20.032  39.487  10.749
60560W        W32820   5.655  34.265   1.666
60561W        W32821   8.186   7.946   3.653
60562W        W32822   7.421  33.772   3.611
60563W        W32823  42.795  19.162   3.758
60564W        W32824  44.765  39.033   0.865
60565W        W32825  22.411  37.408   1.450
60566W        W32826   0.429  16.793   1.685
60567W        W32827  14.897   1.358  12.059
60568W        W32828  43.008  38.248   1.248
60569W        W32829   2.292  10.350   1.862
60570W        W32830  25.137  36.464  10.524
60571W        W32831  30.815   2.525  12.935
60572W        W32832  33.880  24.652  12.227
60573W        W32833  17.307  37.982  11.286
60574W        W32834  19.938  19.061   4.529
60575W        W32835  37.944  22.721  11.570
60576W        W32836  41.986  26.483  12.519
60577W        W32837   8.389   3.717  11.637
60578W        W32838   8.813  10.657  14.449
60579W        W32839  32.050  21.260   2.357
60580W        W32840  26.937  23.671  14.278
60581W        W32841  40.007  35.396   4.603
60582W        W32842  37.244  22.035  14.397
60583W        W32843  11.897   3.719   1.850
60584W        W32844  30.425  29.049  12.426
60585W        W32845  11.695  14.271   0.806
60586W        W32846  28.181   7.769   3.381
60587W        W32847  35.160  24.745  12.053
60588W        W32848  14.699  37.530   2.679
60589W        W32849   0.796  11.907  12.805
60590W        W32850  13.074  17.756   4.974
60591W        W32851  23.039  27.600   3.882
60592W        W32852  13.079  19.229   3.167
60593W        W32853   6.454   3.464   5.037
60594W        W32854  14.316  37.058   3.585
60595W        W32855  39.791   7.896  10.405
60596W        W32856  13.090  36.539  11.917
60597W        W32857  15.878  42.749   0.523
60598W        W32858  38.974  18.620  13.351
60599W        W32859  31.860  28.664  13.786
60600W        W32860  14.166  41.232  14.784
60601W        W32861  42.360  35.733   3.120
60602W        W32862   8.220  30.284  12.825
60603W        W32863  25.519  20.826  11.560
60604W        W32864  21.021  23.562  14.411
60605W        W32865  41.834   8.090   4.303
60606W        W32866  36.229   9.271  14.402
60607W        W32867  16.531  11.879  14.545
60608W        W32868  11.271  23.571  12.125
60609W        W32869   9.899  27.203   3.804
60610W        W32870  20.004  33.091   3.634
60611W        W32871   6.840  11.755   0.150
60612W        W32872  38.586  41.219   0.485
60613W        W32873   3.716  38.576  14.543
60614W        W32874  34.975  35.865  11.950
60615W        W32875  27.008  20.773  11.969
60616W        W32876  39.949  37.318  14.805
60617W        W32877  11.686  38.488   4.816
60618W        W32878  13.224  29.224   3.275
60619W        W32879  27.709  10.935  12.022
60620W        W32880  30.119  25.209  11.134
60621W        W32881   8.689  20.393   1.895
60622W        W32882   4.858  34.857  11.094
60623W        W32883  29.162  12.715   0.887
60624W        W32884  12.140  11.222  12.111
60625W        W32885  38.709  23.374   0.846
60626W        W32886   9.598  38.028  11.938
60627W        W32887  20.657  20.639  12.694
60628W        W32888  19.521   5.734   2.905
60629W        W32889   7.320  27.455  12.989
60630W        W32890   5.305   6.431   0.876
60631W        W32891  39.494  25.556   1.449
60632W        W32892  44.788  26.787  11.075
60633W        W32893  32.548  15.817   1.157
60634W        W32894  31.119  26.136  11.121
60635W        W32895  38.149  21.039  12.904
60636W        W32896  36.417  26.363  11.862
60637W        W32897  39.563   5.473   1.541
60638W        W32898  29.758  34.133  14.537
60639W        W32899  30.991  18.060   3.312
60640W        W32900  35.412  35.925   1.800
60641W        W32901  13.966  27.397  12.155
60642W        W32902  26.285  30.582   2.753
60643W        W32903  42.377  15.264   3.140
60644W        W32904  29.133  10.674   1.662
60645W        W32905   9.245  11.868   4.125
60646W        W32906  32.087  29.473  13.451
60647W        W32907  36.122  37.103  12.614
60648W        W32908  10.639  14.263   2.251
60649W        W32909  42.616  16.085   1.442
60650W        W32910   3.978  30.989   3.802
60651W        W32911  20.119  41.962  14.737
60652W        W32912  24.607   4.912   0.894
60653W        W32913  20.885  20.331   5.110
60654W        W32914  12.088  27.433   1.473
60655W        W32915  38.123  28.066   1.710
60656W        W32916  43.760  16.214   0.059
60657W        W32917  31.245  25.589  14.743
60658W        W32918  23.140  21.673   3.762
60659W        W32919   3.831  16.032   2.794
60660W        W32920   9.773   6.724   4.153
60661W        W32921  25.613  41.111   3.863
60662W        W32922  33.580  18.068   4.154
60663W        W32923  36.641  41.876  10.529
60664W        W32924  29.505  23.004   2.174
60665W        W32925  26.683  35.872  12.563
60666W        W32926  19.084   6.267   2.485
60667W        W32927   1.856  19.555   2.512
60668W        W32928   0.580  37.998   2.349
60669W        W32929   7.133   8.180   2.678
60670W        W32930  21.293   8.309  10.461
60671W        W32931   4.659  42.487   1.473
60672W        W32932  23.149  11.257   1.736
60673W        W32933  24.336   1.953   2.691
60674W        W32934   5.315  41.123   1.397
60675W        W32935  42.371   5.368   1.328
60676W        W32936  44.545   1.148  13.531
60677W        W32937  40.293  35.642  10.656
60678W        W32938  15.614  41.201   3.184
60679W        W32939  27.655  20.084  11.605
60680W        W32940  38.080  12.223  14.250
60681W        W32941  36.312  25.993  14.024
60682W        W32942  41.445  26.541   4.053
60683W        W32943  32.479  19.105   4.136
60684W        W32944   8.994   7.026   1.612
60685W        W32945   7.329  11.605   2.770
60686W        W32946  11.632  14.640  14.318
60687W        W32947   7.112  32.695  13.865
60688W        W32948   8.139  31.088   1.742
60689W        W32949   0.784  35.314  14.094
60690W        W32950  14.750  42.441   1.335
60691W        W32951  30.001  29.565  10.421
60692W        W32952  18.655  34.872  13.996
60693W        W32953  25.157  42.313   0.473
60694W        W32954   2.451  43.173   1.876
60695W        W32955  40.886  17.133  12.216
60696W        W32956  21.967  26.731  14.466
60697W        W32957   3.307  13.632  10.758
60698W        W32958  28.091   9.728   2.446
60699W        W32959   3.024   5.761  13.330
60700W        W32960   1.472   9.873  13.606
60701W        W32961  35.897  18.960   4.143
60702W        W32962   2.482   2.768   2.571
60703W        W32963  36.726  40.947  10.527
60704W        W32964  31.353  19.864  14.846
60705W        W32965   5.979  30.003  14.416
60706W        W32966  25.145   7.246   3.247
60707W        W32967  36.419   6.393   0.287
60708W        W32968  35.382  28.960  11.145
60709W        W32969  30.996  15.988  12.017
60710W        W32970   3.410  14.098  10.936
60711W        W32971  39.065  26.927   0.364
60712W        W32972   4.727  28.240   4.226
60713W        W32973   5.406   1.783  10.495
60714W        W32974   1.846  29.666   3.736
60715W        W32975  15.458  28.491  14.887
60716W        W32976  35.447  11.839   3.165
60717W        W32977  43.921  37.701  11.064
60718W        W32978   3.019  27.826  11.587
60719W        W32979   8.117  36.059  12.852
60720W        W32980  12.904  43.596   3.637
60721W        W32981  44.198  38.974   3.825
60722W        W32982  16.306  28.480  13.096
60723W        W32983  28.996  39.036   1.724
60724W        W32984  23.597   2.992  13.316
60725W        W32985  20.736  34.914   3.109
60726W        W32986  29.248  14.160   2.314
60727W        W32987  34.796  25.610  11.639
60728W        W32988  31.498  13.331   2.995
60729W        W32989  27.145  41.764   1.417
60730W        W32990  38.949   9.126  10.122
60731W        W32991  39.356   9.814   3.223
60732W        W32992  19.378  41.501   2.776
60733W        W32993  30.855  23.539   3.017
60734W        W32994  33.035  22.907  11.091
60735W        W32995  11.734  14.608  10.704
60736W        W32996   1.358  44.841   2.627
60737W        W32997  29.584  31.540   4.957
60738W        W32998  10.784  18.602   5.102
60739W        W32999  13.629  38.592   0.536
60740W        W33000  43.023  33.255  11.059
60741W        W33001   8.190  29.643   4.158
60742W        W33002  36.052   3.377  12.545
60743W        W33003   2.927  40.844   2.744
60744W        W33004  28.572  24.399  13.100
60745W        W33005   0.767  31.984   1.960
60746W        W33006  28.985  23.013  11.758
60747W        W33007  35.601  36.329  13.999
60748W        W33008  38.787  25.647  10.704
60749W        W33009  30.077  28.433   2.777
60750W        W33010  13.868   9.153  14.419
60751W        W33011  14.208  12.665   0.191
60752W        W33012   7.963  25.907   4.577
60753W        W33013  30.731  37.876   2.643
60754W        W33014  30.065  38.590   3.872
60755W        W33015   7.162   9.317  12.863
60756W        W33016   6.873   1.703  12.940
60757W        W33017  28.859  20.662   0.286
60758W        W33018  28.416  41.322   0.336
60759W        W33019   3.823  41.915  10.770
60760W        W33020  39.419  43.020   1.310
60761W        W33021  17.234  21.347   2.660
60762W        W33022  29.024  34.944  14.200
60763W        W33023  19.015  29.258   0.367
60764W        W33024  41.925   2.510   3.335
60765W        W33025  23.532  35.613   3.068
60766W        W33026   6.009  44.503   4.740
60767W        W33027  36.057  41.766  13.456
60768W        W33028  13.675  36.829  14.912
60769W        W33029   5.380  13.754  13.549
60770W        W33030   4.466  42.157  13.759
60771W        W33031   2.531  24.740   1.833
60772W        W33032  29.416  27.136  13.396
60773W        W33033  17.678  43.955  11.505
60774W        W33034  43.097  17.526   5.065
60775W        W33035  10.613  11.084  12.052
60776W        W33036  18.403  25.122  12.562
60777W        W33037  14.809  35.973   1.368
60778W        W33038  42.774  22.762   4.373
60779W        W33039  43.554  35.141  12.990
60780W        W33040  26.180  18.797  11.102
60781W        W33041  26.723  34.780   3.191
60782W        W33042  17.198  32.583   4.502
60783W        W33043  26.213  26.130  14.426
60784W        W33044   2.648  30.057   2.149
60785W        W33045  15.561   6.192   1.795
60786W        W33046  41.183  34.640  12.520
60787W        W33047  44.657   6.715  12.395
60788W        W33048  22.581  26.718  13.493
60789W        W33049  35.107   9.441  12.015
60790W        W33050  33.362  30.825  11.871
60791W        W33051   1.886   1.533  11.075
60792W        W33052   8.075  10.870  12.091
60793W        W33053  21.812   3.408   2.786
60794W        W33054  30.383   7.822   5.084
60795W        W33055  21.104  15.629  11.641
60796W        W33056  28.706  30.627   3.118
60797W        W33057  13.635   6.292   3.649
60798W        W33058  29.724  18.311   4.681
60799W        W33059  28.440   0.896   1.191
60800W        W33060  31.927  14.280  11.358
60801W        W33061   6.763  11.222   3.238
60802W        W33062  41.920  27.006  14.288
60803W        W33063  25.080  32.978   0.225
60804W        W33064  12.276  26.685  13.330
60805W        W33065   4.611  36.077  14.865
60806W        W33066  12.158  38.112   0.269
60807W        W33067  16.791  10.682  14.640
60808W        W33068  14.513  11.696   1.031
60809W        W33069  35.662  44.361  11.054
60810W        W33070  19.466  30.450  14.003
60811W        W33071  23.065  20.314  14.465
60812W        W33072  42.576  33.535   1.964
60813W        W33073  41.847  24.589   0.861
60814W        W33074  30.135  30.889  13.987
60815W        W33075  10.725  24.479   4.808
60816W        W33076  10.752   8.917   4.073
60817W        W33077  30.239  24.276   1.020
60818W        W33078  25.711   0.781   1.764
60819W        W33079  32.935  41.673  10.966
60820W        W33080  14.021   0.517   2.357
60821W        W33081  43.211  14.884   2.177
60822W        W33082  40.004  44.004   0.924
60823W        W33083  26.433  24.300   1.328
60824W        W33084  37.046  39.564  13.792
60825W        W33085  41.463  22.527   3.912
60826W        W33086   9.302  14.777  11.430
60827W        W33087  40.742   8.591   4.997
60828W        W33088  27.104  41.424  11.319
60829W        W33089   6.802  43.080   3.185
60830W        W33090  30.694   5.741   2.283
60831W        W33091  31.979  28.312  14.553
60832W        W33092  13.424  42.824  10.210
60833W        W33093  14.609  26.268  12.897
60834W        W33094  23.110  24.506   3.776
60835W        W33095  35.418  16.255   2.852
60836W        W33096  35.821  28.286  10.782
60837W        W33097  11.566  25.781  12.152
60838W        W33098   8.599   2.762  10.806
60839W        W33099  24.696  11.609  12.127
60840W        W33100  10.386  12.587  13.334
60841W        W33101   1.346  18.301   4.761
60842W        W33102  12.140  36.336  13.349
60843W        W33103   8.904  35.605   2.793
60844W        W33104  10.647  34.347   0.660
60845W        W33105  13.622  37.410   3.092
60846W        W33106   6.404   2.789  11.118
60847W        W33107  19.125  34.163   4.467
60848W        W33108  44.557  31.583   2.584
60849W        W33109  16.049  35.984   3.214
60850W        W33110  32.364  37.611  10.833
60851W        W33111  30.670  40.277   3.540
60852W        W33112   3.144  15.939  12.651
60853W        W33113   8.421   5.736  10.620
60854W        W33114  16.796  10.840  12.654
60855W        W33115   5.238  42.501  13.834
60856W        W33116   0.791  21.113  12.887
60857W        W33117  22.664  23.564   2.723
60858W        W33118  30.008  42.312   2.606
60859W        W33119   1.113   8.835   3.832
60860W        W33120  24.241  26.211   3.081
60861W        W33121  20.104  42.345   4.735
60862W        W33122   7.988  25.134   3.063
60863W        W33123  44.022  14.749  12.404
60864W        W33124  16.734  27.195  11.021
60865W        W33125  26.844  11.553  14.394
60866W        W33126   7.915  32.404  12.028
60867W        W33127  12.687  11.056  12.727
60868W        W33128   7.611  41.539  14.550
60869W        W33129  39.067  41.021  10.720
60870W        W33130  24.198  42.245  10.617
60871W        W33131  42.481  31.230   3.654
60872W        W33132  35.504  44.767   1.959
60873W        W33133  27.020  33.552   1.177
60874W        W33134  17.023  38.849  14.841
60875W        W33135  27.983  30.125   0.271
60876W        W33136  21.717  34.000   0.734
60877W        W33137  32.535   4.333  10.496
60878W        W33138   4.814  10.047  12.948
60879W        W33139  25.045   3.646   4.390
60880W        W33140   6.616  44.517   3.951
60881W        W33141  15.766  33.181   0.083
60882W        W33142  28.263  33.510   3.369
60883W        W33143  13.434   2.350  13.792
60884W        W33144   0.741  42.884   0.313
60885W        W33145  34.056   8.767  14.388
60886W        W33146  16.124  23.127  12.900
60887W        W33147  19.313  28.516  11.185
60888W        W33148   9.870  15.712   1.741
60889W        W33149  20.413   1.946  14.085
60890W        W33150  12.337  22.104  10.496
60891W        W33151  21.455  13.769   2.828
60892W        W33152  16.502   9.426  12.862
60893W        W33153  14.277  36.166  11.625
60894W        W33154  35.972   2.645  10.744
60895W        W33155  24.111  29.688   0.313
60896W        W33156  31.240  26.435  11.909
60897W        W33157   1.034  29.198  13.116
60898W        W33158   5.935   9.807   2.353
60899W        W33159  14.630   3.671   4.189
60900W        W33160  37.716  19.712   5.076
60901W        W33161  28.936   1.028   1.675
60902W        W33162   2.361  32.067   4.603
60903W        W33163   1.347  41.262  11.069
60904W        W33164   4.868  43.546   2.803
60905W        W33165  15.855  34.132  10.964
60906W        W33166  37.873  18.144   2.713
60907W        W33167  38.521  41.273   2.722
60908W        W33168   1.260   4.446   3.608
60909W        W33169   2.566   5.790   2.123
60910W        W33170  28.958  41.761   3.450
60911W        W33171  21.644  21.800   1.280
60912W        W33172  27.078  19.865  14.958
60913W        W33173   6.625  31.054   0.488
60914W        W33174  36.221   8.330  10.124
60915W        W33175  15.201  36.594  11.671
60916W        W33176  12.865  27.544   3.092
60917W        W33177  41.434  26.948   3.307
60918W        W33178  14.523  16.801  11.944
60919W        W33179  43.847  17.582  13.375
60920W        W33180  11.714  11.890   0.347
60921W        W33181  36.077  30.924  11.651
60922W        W33182  14.741  44.974   1.785
60923W        W33183   4.946  43.047   2.692
60924W        W33184   7.899  42.374  12.933
60925W        W33185  36.104  37.934  14.645
60926W        W33186  24.041  11.379   4.242
60927W        W33187  33.452  44.076  14.410
60928W        W33188  15.296  25.464  14.690
60929W        W33189  30.953  18.000  14.804
60930W        W33190   6.067  21.510   1.619
60931W        W33191  36.539  22.631  10.787
60932W        W33192   9.009  13.548  11.570
60933W        W33193  39.569  18.538  11.718
60934W        W33194  41.870  35.590  14.855
60935W        W33195  14.876  39.941  13.510
60936W        W33196  15.896  24.728  11.204
60937W        W33197  17.536  21.439  14.506
60938W        W33198   8.199  22.394   3.950
60939W        W33199  35.871  34.953  10.587
60940W        W33200  21.421  43.925  13.453
60941W        W33201   2.472  29.168  10.692
60942W        W33202   3.269   9.664  12.053
60943W        W33203  26.948  26.636  13.819
60944W        W33204  42.402  24.298  14.043
60945W        W33205  23.686  21.249   2.254
60946W        W33206  29.750   1.529   2.691
60947W        W33207   7.233  35.985   2.819
60948W        W33208  23.447  42.338  11.127
60949W        W33209   2.187  29.198  13.466
60950W        W33210  40.030  21.133   0.738
60951W        W33211  11.872  36.931  14.212
60952W        W33212  16.149  30.009  13.004
60953W        W33213   2.348   9.882  14.806
60954W        W33214   1.940  26.269  10.492
60955W        W33215  29.152  25.156   0.923
60956W        W33216  15.259  37.935  10.939
60957W        W33217  34.098  26.229  14.898
60958W        W33218   3.875   5.060   3.693
60959W        W33219  11.481  13.843  14.213
60960W        W33220  41.524  15.690  10.273
60961W        W33221  21.110  16.582   0.579
60962W        W33222   6.420  32.830   0.395
60963W        W33223  13.075  11.567  13.843
60964W        W33224   8.156  25.789   1.277
60965W        W33225  36.849  10.859   0.860
60966W        W33226   3.823  13.141   2.316
60967W        W33227  29.539  37.029   1.348
60968W        W33228  26.712  28.409  11.105
60969W        W33229  33.781  24.946   1.755
60970W        W33230  34.470   6.022  13.224
60971W        W33231   4.344  17.306   1.935
60972W        W33232  18.034  24.592  13.963
60973W        W33233   5.499  43.866   3.335
60974W        W33234  33.920  23.331   4.213
60975W        W33235   1.848  30.669   3.106
60976W        W33236   4.763  11.901   1.278
60977W        W33237  36.573   3.718  12.514
60978W        W33238  44.401   1.490   4.349
60979W        W33239  27.087  13.839   3.075
60980W        W33240  38.503   9.726   1.938
60981W        W33241  26.393   7.818  11.716
60982W        W33242  44.232  35.407  12.439
60983W        W33243  15.760  28.250   2.600
60984W        W33244   2.293  17.775  11.869
60985W        W33245  12.963   4.836   1.344
60986W        W33246   5.858  36.636   2.302
60987W        W33247   5.936  22.504  14.274
60988W        W33248  38.749   8.666   4.542
60989W        W33249   9.696  42.822  13.878
60990W        W33250  15.919  30.466   0.212
60991W        W33251   4.872   4.205   4.585
60992W        W33252   6.142  32.098   4.121
60993W        W33253  44.355  30.369  11.397
60994W        W33254  10.908   6.424  13.059
60995W        W33255  30.735  21.268  11.151
60996W        W33256  38.502  13.603   3.815
60997W        W33257  41.150  33.088   4.220
60998W        W33258  23.645  25.668   4.651
60999W        W33259   9.249  37.293   3.254
61000W        W33260  36.426   5.764  14.348
61001W        W33261  44.531   4.970   4.917
61002W        W33262  34.888  17.019  12.082
61003W        W33263   8.015   3.465  13.094
61004W        W33264   3.427  29.477  13.025
61005W        W33265   7.948  26.018  14.907
61006W        W33266  18.250  24.611  14.872
61007W        W33267  37.594   8.679  13.415
61008W        W33268   7.472  35.438   1.066
61009W        W33269  14.095  24.976  14.117
61010W        W33270  33.337  26.840   0.372
61011W        W33271  34.108  43.884   4.234
61012W        W33272  33.360   5.344   3.114
61013W        W33273  34.385  38.485   4.830
61014W        W33274   3.602  39.572  12.428
61015W        W33275  34.332  34.928   1.875
61016W        W33276  19.774   2.963  11.962
61017W        W33277  27.433  33.120  11.953
61018W        W33278   1.572  20.853  14.274
61019W        W33279  35.996  35.118   4.160
61020W        W33280  36.026  37.138   1.986
61021W        W33281  40.484  12.178   0.795
61022W        W33282   4.920  29.229  11.696
61023W        W33283  35.070  24.177   3.596
61024W        W33284   7.341  24.211  14.005
61025W        W33285   9.215   4.926   2.333
61026W        W33286  32.658  40.475   1.428
61027W        W33287  23.963   3.764   0.836
61028W        W33288  29.547   2.473  13.455
61029W        W33289  27.378  42.484   1.278
61030W        W33290  43.031  32.881  13.213
61031W        W33291  28.977  21.767  13.066
61032W        W33292  24.766  11.808   3.238
61033W        W33293   9.445  33.388  12.892
61034W        W33294   0.917  42.297   4.584
61035W        W33295  28.751  17.871   1.798
61036W        W33296  35.623  19.229   1.774
61037W        W33297  40.322   0.901   1.524
61038W        W33298  39.683  35.465   2.653
61039W        W33299  26.025  10.793  13.817
61040W        W33300  11.100  28.551  14.939
61041W        W33301  25.254  33.125   4.145
61042W        W33302  10.764  39.557   1.434
61043W        W33303  18.950   4.947   2.667
61044W        W33304  26.332  44.678  13.822
61045W        W33305  42.911   7.546   1.709
61046W        W33306  11.931  10.819  14.658
61047W        W33307  39.298  44.341   4.650
61048W        W33308  15.576  19.665   1.742
61049W        W33309   0.697  21.620   4.758
61050W        W33310  16.613   6.665   3.390
61051W        W33311  42.994  12.425  10.645
61052W        W33312   2.473  20.999   1.602
61053W        W33313  42.475   1.502  14.379
61054W        W33314  26.649   9.963  14.788
61055W        W33315  41.555  10.865   2.858
61056W        W33316   0.517  23.161   4.957
61057W        W33317  38.946  23.671  10.684
61058W        W33318  16.271  30.166   1.865
61059W        W33319  36.586  42.333   2.869
61060W        W33320   0.817  11.171  13.727
61061W        W33321  34.538   4.597   1.815
61062W        W33322  12.314  36.973   4.145
61063W        W33323  43.795   2.802  14.283
61064W        W33324  27.704   2.900  11.020
61065W        W33325  38.473  16.515  10.698
61066W        W33326  37.901  30.964   2.355
61067W        W33327  35.118   5.790   1.120
61068W        W33328  30.627   1.885   3.227
61069W        W33329  20.136  27.603   3.920
61070W        W33330   7.148   7.659   2.694
61071W        W33331  36.424  16.038   3.802
61072W        W33332  38.133  13.153   3.272
61073W        W33333   3.652  18.512  12.031
61074W        W33334  37.288  40.950   1.571
61075W        W33335  38.935  15.248  14.496
61076W        W33336  41.907  39.240   2.380
61077W        W33337  44.572  20.776  12.505
61078W        W33338   5.380  20.560  14.687
61079W        W33339  29.178  34.450  12.477
61080W        W33340  15.781  37.215   1.915
61081W        W33341  37.674   7.721   4.897
61082W        W33342  37.202   0.302  14.525
61083W        W33343  10.127  38.516  13.584
61084W        W33344  16.420  20.838  12.605
61085W        W33345  19.646  11.027   1.474
61086W        W33346  15.920   7.117  11.205
61087W        W33347  17.634   3.805   2.143
61088W        W33348  38.562  20.888   2.224
61089W        W33349   2.721  43.627   0.995
61090W        W33350   7.897  39.854  13.437
61091W        W33351   0.363  24.489  14.560
61092W        W33352  15.193  20.540   1.192
61093W        W33353  31.937   1.155   3.322
61094W        W33354  39.968  35.810  12.372
61095W        W33355  10.758  23.946   1.939
61096W        W33356   2.280  30.925  14.029
61097W        W33357  29.321  17.005   4.082
61098W        W33358  43.860  43.402  13.118
61099W        W33359  43.951  31.465  12.852
61100W        W33360  26.189  33.431   1.834
61101W        W33361  41.872  25.203   2.350
61102W        W33362  29.992  24.166  12.536
61103W        W33363  26.979  34.194  14.849
61104W        W33364  19.548  36.564   3.590
61105W        W33365  44.229   6.937  12.623
61106W        W33366  36.929  25.486   0.324
61107W        W33367  14.059   4.424   3.213
61108W        W33368  10.043  12.833  13.009
61109W        W33369  40.950  10.676  14.026
61110W        W33370  14.705   9.662  11.536
61111W        W33371  25.103  42.038   4.009
61112W        W33372  33.160  21.619  14.561
61113W        W33373  15.179  35.803  13.314
61114W        W33374  35.626  26.165  12.297
61115W        W33375  41.875  33.511   9.934
61116W        W33376  21.716  33.174  12.045
61117W        W33377  22.020  17.980   3.803
61118W        W33378  34.192  35.909   0.371
61119W        W33379   4.094  29.456  11.098
61120W        W33380  14.601  15.761  12.063
61121W        W33381  15.112  26.803   3.146
61122W        W33382   6.504  31.899  10.710
61123W        W33383   1.443  19.816   3.301
61124W        W33384  12.190  41.910  12.431
61125W        W33385  17.170  38.012  12.788
61126W        W33386  40.016   9.010   5.394
61127W        W33387  14.915  32.114  11.810
61128W        W33388   3.588  10.974   0.765
61129W        W33389  25.398  34.508   1.453
61130W        W33390  18.076  13.552  10.441
61131W        W33391  19.948  15.554   1.829
61132W        W33392  29.987  14.006   1.258
61133W        W33393  22.088  11.118  12.929
61134W        W33394  27.919  31.404   0.772
61135W        W33395   5.419  37.231   1.617
61136W        W33396  39.658  24.074   1.185
61137W        W33397   6.786   1.998   0.477
61138W        W33398  27.058  42.433  14.295
61139W        W33399   7.322   7.911   0.501
61140W        W33400  16.095  10.614  14.034
61141W        W33401  29.209  12.273   1.614
61142W        W33402  17.743  32.647   1.746
61143W        W33403  12.190  12.198   3.145
61144W        W33404  37.807  17.691  12.485
61145W        W33405   6.754  43.656  13.854
61146W        W33406  39.320   8.936  13.850
61147W        W33407  40.371   1.868   3.384
61148W        W33408  34.827  27.124  14.352
61149W        W33409  30.086  34.797   5.053
61150W        W33410  18.526   3.987   4.231
61151W        W33411  25.692  22.126  13.046
61152W        W33412  39.900   0.737  14.846
61153W        W33413  33.529  28.991   0.783
61154W        W33414  17.262   4.058   0.827
61155W        W33415   4.022  33.482  12.481
61156W        W33416  18.090  21.253   3.261
61157W        W33417  27.042  32.880   0.387
61158W        W33418  44.257   5.808  14.566
61159W        W33419   5.706   8.410   0.414
61160W        W33420  42.846  21.744   3.285
61161W        W33421  21.668  29.942  12.403
61162W        W33422  21.275  24.778  14.057
61163W        W33423  37.917   1.811  12.481
61164W        W33424  35.691  18.472   0.538
61165W        W33425  13.812   8.240  13.883
61166W        W33426   3.384  43.968   4.513
61167W        W33427  30.859  24.751  11.138
61168W        W33428   4.674  38.509  14.218
61169W        W33429  13.367  22.585   1.376
61170W        W33430  31.470  38.993  11.685
61171W        W33431  15.042  30.347  14.825
61172W        W33432  17.127  37.745  14.458
61173W        W33433  35.772  37.982  13.273
61174W        W33434  40.075  39.443   4.616
61175W        W33435  21.041  21.551   4.651
61176W        W33436   7.705  37.791   3.216
61177W        W33437   1.951  26.098   2.363
61178W        W33438  39.989  10.820   2.829
61179W        W33439   8.856   9.972  13.905
61180W        W33440  36.119  22.164   2.646
61181W        W33441  34.631  32.874  14.478
61182W        W33442  30.820  37.181  11.100
61183W        W33443  27.450  12.695  14.540
61184W        W33444   4.659  17.878   3.651
61185W        W33445  21.783   1.800   0.153
61186W        W33446  19.135  17.498   1.462
61187W        W33447  22.081  21.065  14.720
61188W        W33448   7.654  39.035   1.767
61189W        W33449  35.258  31.473   0.053
61190W        W33450   1.715  19.595  13.733
61191W        W33451  10.667  41.481   4.839
61192W        W33452   7.636  38.132  11.891
61193W        W33453   6.323  33.185  11.937
61194W        W33454  38.090   3.517  14.423
61195W        W33455  42.536  38.536  12.824
61196W        W33456  19.412  36.552   4.071
61197W        W33457  32.403  42.575   4.662
61198W        W33458  43.408   9.652   1.248
61199W        W33459  25.592   9.737   0.579
61200W        W33460  13.465  12.820  13.284
61201W        W33461  42.546  11.113   1.339
61202W        W33462  16.521  38.929   0.856
61203W        W33463  10.751  35.494  10.716
61204W        W33464  18.577   1.134  12.545
61205W        W33465  35.431  39.352   0.998
61206W        W33466  17.406  21.826  13.260
61207W        W33467   1.662  34.870   2.833
61208W        W33468  18.850  28.221   0.243
61209W        W33469  26.834  14.744   3.646
61210W        W33470  14.548   8.840   2.983
61211W        W33471  43.817  19.616   3.698
61212W        W33472  10.280   3.435   1.297
61213W        W33473   2.452  42.049   1.277
61214W        W33474  35.054  25.565   4.983
61215W        W33475  23.048  26.154  11.450
61216W        W33476  39.295  27.072  13.414
61217W        W33477  17.456  20.321   4.576
61218W        W33478  41.148  23.515   3.494
61219W        W33479  21.114  17.377  14.324
61220W        W33480  15.053   3.835   3.920
61221W        W33481   2.200  14.678   1.832
61222W        W33482   7.385   4.811   1.000
61223W        W33483  35.541  37.559   0.686
61224W        W33484  39.004   9.799   1.895
61225W        W33485  19.130   7.692   0.096
61226W        W33486   0.948  24.263   1.679
61227W        W33487  38.424   0.896  11.517
61228W        W33488  22.214   2.414  12.171
61229W        W33489  35.814   7.509   2.731
61230W        W33490  43.016  42.900  14.690
61231W        W33491  38.900  16.210   4.114
61232W        W33492   2.250  42.415   4.296
61233W        W33493   2.950   4.021   4.087
61234W        W33494  39.868   8.416   4.621
61235W        W33495  18.749  20.692  11.577
61236W        W33496  25.600  24.269   1.889
61237W        W33497  36.823  41.725   1.705
61238W        W33498   0.114  35.217   1.853
61239W        W33499  15.364  20.231   3.803
61240W        W33500  33.069  14.642  13.091
61241W        W33501  16.826  31.463   1.777
61242W        W33502  44.797   5.519   0.672
61243W        W33503  26.729  13.177  14.704
61244W        W33504  36.074  11.590  13.818
61245W        W33505  42.988  41.436  12.983
61246W        W33506  12.571  10.731   4.658
61247W        W33507  28.075  12.039  10.567
61248W        W33508   7.645  42.421   1.671
61249W        W33509   4.442   4.614   0.853
61250W        W33510  34.222  15.219  14.348
61251W        W33511  42.025  17.929   1.439
61252W        W33512   2.419  38.195  11.945
61253W        W33513  20.936   6.895   0.806
61254W        W33514   4.952  20.442  11.818
61255W        W33515  44.988  28.580   1.255
61256W        W33516  20.054  13.963  11.973
61257W        W33517  13.141  21.607  10.717
61258W        W33518   0.446  38.591  11.642
61259W        W33519   4.731   0.282   1.181
61260W        W33520  23.762  35.577  13.838
61261W        W33521  34.140  25.859   2.204
61262W        W33522  19.437  30.992  11.624
61263W        W33523  20.448  14.815  13.531
61264W        W33524   4.634  24.735  12.029
61265W        W33525  43.355  14.633   3.117
61266W        W33526   9.695  31.973   4.759
61267W        W33527  14.844  13.664   3.291
61268W        W33528  26.726   9.854  10.435
61269W        W33529  24.709  19.260  13.078
61270W        W33530  40.942  38.359   3.069
61271W        W33531  25.951  26.509   1.721
61272W        W33532   4.392  39.829   1.394
61273W        W33533   4.860  31.656   1.751
61274W        W33534  33.018  11.338   3.291
61275W        W33535  15.112  40.493   1.821
61276W        W33536  29.471  30.490   4.566
61277W        W33537  11.225  10.349  10.643
61278W        W33538  39.319  22.849  10.703
61279W        W33539   2.497  27.644  13.962
61280W        W33540  44.407  23.261   4.275
61281W        W33541   4.725  35.617   4.091
61282W        W33542  13.440   3.887   0.217
61283W        W33543   6.337  26.696  13.076
61284W        W33544  30.953  42.902   0.427
61285W        W33545  15.328   5.384   4.265
61286W        W33546   8.652  11.594   1.296
61287W        W33547  29.419  12.821  11.511
61288W        W33548  38.247  25.023  13.327
61289W        W33549  35.763  18.415  12.448
61290W        W33550   1.107  40.341   0.840
61291W        W33551  24.939   4.992   2.692
61292W        W33552  35.267  17.096  12.535
61293W        W33553  27.626  29.514  11.128
61294W        W33554   6.796  34.269  10.424
61295W        W33555  36.178  14.327   2.749
61296W        W33556  33.641  42.992  12.468
61297W        W33557  34.409  43.214  12.039
61298W        W33558  11.523   6.125   1.840
61299W        W33559  16.167  41.356   4.686
61300W        W33560  22.608  44.515   5.038
61301W        W33561  33.161  12.358   2.335
61302W        W33562  44.667  36.490   0.486
61303W        W33563  44.207  24.701   4.300
61304W        W33564  10.217  21.246   2.432
61305W        W33565  27.070   9.606  14.641
61306W        W33566  37.024  44.757  10.721
61307W        W33567  39.079  13.219   4.863
61308W        W33568  27.446   7.793  10.701
61309W        W33569  37.866  17.778  10.645
61310W        W33570  41.588  44.476  13.876
61311W        W33571  42.388  35.232   3.209
61312W        W33572  35.396   5.331   2.487
61313W        W33573  31.207  42.494   2.164
61314W        W33574  22.350  33.897  11.615
61315W        W33575  30.022  32.292  14.232
61316W        W33576  43.812   4.403   3.156
61317W        W33577  40.717  20.003   1.888
61318W        W33578  22.783  41.912   0.957
61319W        W33579   0.175  22.119   2.417
61320W        W33580   2.336   9.122   2.310
61321W        W33581   5.432   4.935  14.347
61322W        W33582  40.663  25.690   2.464
61323W        W33583   5.303  36.622   0.972
61324W        W33584  35.011  31.028   2.934
61325W        W33585   7.658  13.148   1.405
61326W        W33586  28.113   9.855  13.733
61327W        W33587  37.938  44.676  12.262
61328W        W33588   6.089  44.471   1.875
61329W        W33589  23.480   2.883   2.865
61330W        W33590  12.069   8.942   3.636
61331W        W33591   0.481  12.040  10.666
61332W        W33592  28.412  14.759   3.779
61333W        W33593  25.243  12.717  10.771
61334W        W33594   2.386  10.667   4.890
61335W        W33595   1.606   4.207  11.179
61336W        W33596  42.586   0.979  10.754
61337W        W33597  11.694  43.027   3.830
61338W        W33598  29.394  37.275   4.206
61339W        W33599   6.412  38.026  14.482
61340W        W33600  10.051   9.220  13.402
61341W        W33601  23.236  11.212  14.846
61342W        W33602   7.657  14.334  12.271
61343W        W33603   4.917  32.905  13.344
61344W        W33604  42.520  43.910  11.166
61345W        W33605  37.064   6.294   2.976
61346W        W33606  32.189  13.800   4.664
61347W        W33607  19.248  34.684  12.523
61348W        W33608  40.671  40.571  12.069
61349W        W33609  14.211  38.214   2.579
61350W        W33610  32.650  22.102   2.492
61351W        W33611  14.685  14.151   3.304
61352W        W33612   0.185  24.184  14.950
61353W        W33613  22.789  34.392   3.631
61354W        W33614  24.984  32.611   1.350
61355W        W33615  32.470  22.518  11.593
61356W        W33616  34.032  11.351  14.503
61357W        W33617   9.127  19.193   3.409
61358W        W33618  20.836  35.769   3.284
61359W        W33619  44.900  17.824  11.188
61360W        W33620  35.835  40.365  14.886
61361W        W33621  31.340   7.322  14.511
61362W        W33622  17.085  42.834  13.149
61363W        W33623   0.883  43.540   4.100
61364W        W33624  16.045  23.723   3.373
61365W        W33625  43.895  37.522   3.314
61366W        W33626  20.066  43.324  14.812
61367W        W33627  34.132   8.015  11.120
61368W        W33628  24.230  27.539  13.559
61369W        W33629  31.087  25.104   1.167
61370W        W33630  12.780  19.943  13.138
61371W        W33631  16.229  27.913   4.199
61372W        W33632  42.131  36.125   4.183
61373W        W33633  20.657  40.861  12.873
61374W        W33634  12.779  25.164   4.793
61375W        W33635  38.437  11.465  11.212
61376W        W33636  35.503  16.477  11.771
61377W        W33637   5.245  13.784   4.223
61378W        W33638  32.603  21.465   1.901
61379W        W33639  35.098  40.380  14.279
61380W        W33640  19.735  35.833   0.826
61381W        W33641  28.535   1.374   3.366
61382W        W33642  14.804  44.226  14.000
61383W        W33643  13.351  30.727   3.711
61384W        W33644  31.432  36.034   1.632
61385W        W33645  29.400  22.480   3.901
61386W        W33646   2.533  37.900  11.476
61387W        W33647  27.163  30.063   4.637
61388W        W33648  23.147   4.505   3.120
61389W        W33649   0.036  17.105   3.567
61390W        W33650   7.906  39.445  12.484
61391W        W33651  28.177   5.115   2.400
61392W        W33652   9.158  34.938  10.520
61393W        W33653   3.683   3.339  13.333
61394W        W33654  16.248  16.444   1.876
61395W        W33655  38.454  30.981   0.034
61396W        W33656  19.725  11.147   4.556
61397W        W33657  38.485   3.011   0.796
61398W        W33658  31.162  43.911   3.985
61399W        W33659   3.918   4.957   2.755
61400W        W33660  35.615  40.854  10.706
61401W        W33661  39.458  26.000   3.153
61402W        W33662   6.323   6.928   4.512
61403W        W33663   5.390  18.654  13.030
61404W        W33664  38.466   7.859   4.251
61405W        W33665  31.693   9.696  12.958
61406W        W33666  43.819  44.926  12.395
61407W        W33667  34.372  31.177   4.483
61408W        W33668  33.914  12.712  13.834
61409W        W33669   5.967  38.579  12.951
61410W        W33670  39.773   8.217   1.852
61411W        W33671   0.490  34.957   4.964
61412W        W33672  34.470  20.140   2.153
61413W        W33673  35.024   1.187  13.563
61414W        W33674  44.279   8.294   4.699
61415W        W33675   0.921  20.278  11.600
61416W        W33676   5.241  17.731  12.931
61417W        W33677  39.625  14.843   3.300
61418W        W33678  12.149  40.023   2.293
61419W        W33679  43.450   3.288   3.811
61420W        W33680  12.871   8.044  13.761
61421W        W33681  36.228  19.461  14.494
61422W        W33682   9.889  26.454   0.315
61423W        W33683  41.821  33.834   1.270
61424W        W33684   2.606  37.600   3.957
61425W        W33685  15.747  43.851  10.883
61426W        W33686   4.707  13.608  14.131
61427W        W33687  36.133  15.693   0.615
61428W        W33688  38.352  28.354   4.634
61429W        W33689  26.135   3.927  11.590
61430W        W33690  29.093  21.089   0.517
61431W        W33691  24.275  19.903   4.197
61432W        W33692  33.682  40.810   0.545
61433W        W33693  27.486  40.302  10.623
61434W        W33694  18.198   9.853  10.620
61435W        W33695  34.766   1.574   4.119
61436W        W33696  35.562  30.644  10.846
61437W        W33697  31.707  19.268   1.229
61438W        W33698  23.591  31.706  10.781
61439W        W33699  24.047  25.953   4.974
61440W        W33700  14.212  14.223  12.087
61441W        W33701  23.531  14.607  14.060
61442W        W33702   4.301  26.592  14.373
61443W        W33703  42.422   6.168   0.012
61444W        W33704  11.635   1.755  11.941
61445W        W33705  25.542  37.600   2.828
61446W        W33706   0.731  31.920  10.438
61447W        W33707   9.642  12.796   3.220
61448W        W33708  33.354  20.020   3.770
61449W        W33709  17.788   8.280   1.776
61450W        W33710   4.263   7.163   1.861
61451W        W33711  37.034  25.227  11.198
61452W        W33712  30.087  26.090   2.353
61453W        W33713  33.753  41.465  12.242
61454W        W33714  17.032  39.486   3.684
61455W        W33715  20.500  26.925  11.851
61456W        W33716  43.073  12.889  10.412
61457W        W33717   8.684  30.065   0.426
61458W        W33718   1.268  30.540  10.404
61459W        W33719  15.673  19.296  12.429
61460W        W33720  32.543  13.065  14.956
61461W        W33721  16.020   1.403  12.870
61462W        W33722  41.363  23.237   4.265
61463W        W33723  43.532   8.628   4.515
61464W        W33724  16.825  44.446  13.777
61465W        W33725  20.029   8.277   5.061
61466W        W33726  26.977  17.362  14.844
61467W        W33727  31.007   4.678   0.341
61468W        W33728   4.691   7.082   0.541
61469W        W33729  42.799  12.320  14.015
61470W        W33730  44.879  33.395  10.268
61471W        W33731   4.967  36.957  11.216
61472W        W33732  35.499  42.226  10.616
61473W        W33733  34.225  18.429   2.919
61474W        W33734  12.709  29.480  12.018
61475W        W33735  25.549  23.749  10.798
61476W        W33736   8.127  21.765  11.190
61477W        W33737  14.306  22.125  11.472
61478W        W33738   6.205  18.852  10.679
61479W        W33739   1.394  36.524   2.239
61480W        W33740  21.008  27.054   4.199
61481W        W33741   2.818   9.079   4.266
61482W        W33742  37.737  28.820  12.152
61483W        W33743  18.516  24.758  10.801
61484W        W33744  19.143  21.165  12.611
61485W        W33745  24.839  29.527  11.653
61486W        W33746  14.006  42.354   1.912
61487W        W33747  38.925   2.775   1.400
61488W        W33748  30.735  11.208   1.033
61489W        W33749  17.051  37.366   1.359
61490W        W33750  27.367  40.515  12.967
61491W        W33751  36.842  30.375   1.823
61492W        W33752  23.743   2.529  10.677
61493W        W33753  26.107   6.950   3.811
61494W        W33754  21.630  14.664   3.560
61495W        W33755  25.640  11.446   1.342
61496W        W33756  28.200  12.661   4.377
61497W        W33757  40.166  34.014   2.726
61498W        W33758  15.647  35.979  12.054
61499W        W33759  39.238  24.128   2.103
61500W        W33760   4.701  24.268   2.768
61501W        W33761  20.749  44.723   1.884
61502W        W33762  37.058  17.829  14.049
61503W        W33763  13.207  11.777   4.630
61504W        W33764  23.946   4.157  11.939
61505W        W33765  34.164  17.747  14.423
61506W        W33766  28.076  41.085  11.625
61507W        W33767  35.602  39.577  12.469
61508W        W33768  15.633  28.957   3.285
61509W        W33769  33.946  29.815  13.313
61510W        W33770   2.837  44.376  10.575
61511W        W33771  22.523  27.896   5.060
61512W        W33772   2.331  15.381   2.838
61513W        W33773  35.605  17.303  12.897
61514W        W33774  20.569   4.758  12.955
61515W        W33775   3.306  42.814  10.422
61516W        W33776   8.651   7.023   3.959
61517W        W33777   0.503   0.263   3.659
61518W        W33778  18.951   9.224   4.626
61519W        W33779  14.890   0.496  13.904
61520W        W33780  33.296  36.708   9.963
61521W        W33781  35.539  35.778  13.016
61522W        W33782  37.965  24.995  14.630
61523W        W33783   2.729  40.889  13.999
61524W        W33784  31.642   9.622  11.651
61525W        W33785   5.144  43.781  12.358
61526W        W33786   2.719  24.462   2.232
61527W        W33787  26.368  20.842   1.944
61528W        W33788  25.121  20.027   1.468
61529W        W33789  24.662  25.192  14.913
61530W        W33790  16.811  44.299   1.734
61531W        W33791  28.449   4.871  10.634
61532W        W33792  31.205   1.516  13.424
61533W        W33793  16.758  21.965   2.308
61534W        W33794   6.718  16.255   2.014
61535W        W33795   3.182   4.951   2.180
61536W        W33796  33.882  34.720   1.012
61537W        W33797  29.109  35.513   4.097
61538W        W33798  11.856  36.797   3.963
61539W        W33799  22.014  32.580   3.709
61540W        W33800   7.633  20.633   2.666
61541W        W33801  27.512  16.567   4.476
61542W        W33802  36.919  15.533  10.653
61543W        W33803  42.580  11.844  14.907
61544W        W33804  21.492  41.874   3.809
61545W        W33805  25.760  33.899  12.611
61546W        W33806  19.144  42.340  14.342
61547W        W33807  13.109   9.806  14.449
61548W        W33808  21.085  43.285   3.892
61549W        W33809  24.707  14.704   0.973
61550W        W33810  13.886  21.075  12.625
61551W        W33811  25.138  42.885   0.393
61552W        W33812  27.026  36.634   4.596
61553W        W33813  15.802  16.220   1.616
61554W        W33814  18.604  29.930  11.763
61555W        W33815  17.506  43.485   1.135
61556W        W33816   6.225  18.527   4.250
61557W        W33817   8.358  26.457   1.874
61558W        W33818  32.955  44.066   2.237
61559W        W33819   7.452   0.413   3.623
61560W        W33820  10.233  38.579   4.970
61561W        W33821  44.283  27.017  11.917
61562W        W33822   8.424   6.170  14.447
61563W        W33823  27.183  10.694   1.711
61564W        W33824  31.478  43.317  10.748
61565W        W33825  21.088  40.288  12.921
61566W        W33826  27.887  19.528  11.119
61567W        W33827  31.426  18.469   2.748
61568W        W33828  22.939  24.139  14.021
61569W        W33829   5.011  20.971  11.196
61570W        W33830  42.513   6.137   1.807
61571W        W33831   3.802  42.991  12.048
61572W        W33832  38.493  31.746   0.935
61573W        W33833  10.811   8.441  10.667
61574W        W33834  42.020   6.396  14.736
61575W        W33835  12.743  18.511   3.088
61576W        W33836  31.024  38.424  13.965
61577W        W33837  44.910   0.241  11.547
61578W        W33838  15.698  29.348  11.135
61579W        W33839  41.227  16.359  11.081
61580W        W33840  24.408  41.707  14.433
61581W        W33841  20.567   6.450  12.556
61582W        W33842  32.204  28.932  13.472
61583W        W33843  36.601  40.604   2.469
61584W        W33844  36.054  12.274  14.290
61585W        W33845   5.543  41.357  12.510
61586W        W33846   6.934   5.150   3.557
61587W        W33847   7.898   9.431  14.016
61588W        W33848  30.149  26.674   4.444
61589W        W33849  36.749  35.417   0.497
61590W        W33850   1.008  30.767  11.184
61591W        W33851   4.292  11.649   1.318
61592W        W33852  33.958  15.852  10.733
61593W        W33853  32.379   5.618  13.573
61594W        W33854  21.101  12.288  11.536
61595W        W33855  31.878  22.053   2.921
61596W        W33856  34.238  10.178   1.941
61597W        W33857  25.469  16.602  12.530
61598W        W33858  22.751  41.240   3.626
61599W        W33859  33.134  33.640   5.049
61600W        W33860  20.878  22.537   2.286
61601W        W33861  23.021  33.541   1.789
61602W        W33862   7.177  12.078  12.103
61603W        W33863   3.312  11.098   4.881
61604W        W33864   9.703  44.698  11.128
61605W        W33865  33.328  23.601  11.563
61606W        W33866  33.067  17.609   2.777
61607W        W33867  23.190   7.105  10.491
61608W        W33868   1.776  37.475  11.627
61609W        W33869  10.276   6.317   1.312
61610W        W33870   4.986  26.480   3.985
61611W        W33871  39.463   2.663  11.606
61612W        W33872  20.013  21.513   4.797
61613W        W33873  29.115  15.149  14.224
61614W        W33874  39.345  25.026   4.182
61615W        W33875  28.411  13.361  12.225
61616W        W33876   1.518  17.406  10.746
61617W        W33877  33.540  13.068  11.632
61618W        W33878  12.507  30.520  11.045
61619W        W33879  34.332  35.394   0.669
61620W        W33880  26.152   2.948  11.585
61621W        W33881  24.120   9.103  12.643
61622W        W33882  32.608  40.260   0.961
61623W        W33883   8.732  16.719  10.631
61624W        W33884  19.660  28.743   2.317
61625W        W33885   8.685   9.388   1.167
61626W        W33886  11.047  23.722   2.349
61627W        W33887  11.710   8.966  13.953
61628W        W33888   2.341   8.359  13.868
61629W        W33889  41.956  29.114  12.460
61630W        W33890  30.469  40.608  11.469
61631W        W33891   4.535  35.799   4.842
61632W        W33892  18.548  37.863  10.714
61633W        W33893   0.819   4.290  12.109
61634W        W33894  20.558  10.025  14.717
61635W        W33895   4.330  11.271  11.387
61636W        W33896  24.004  28.183   2.245
61637W        W33897   1.633  17.499   0.525
61638W        W33898   0.414  12.440  11.587
61639W        W33899  15.853  30.210   2.232
61640W        W33900  14.352  23.127   1.917
61641W        W33901  39.761  10.640   2.391
61642W        W33902  39.998  12.380   0.834
61643W        W33903  11.277   6.185  10.348
61644W        W33904  41.807  36.116  14.138
61645W        W33905  12.376  17.776   2.069
61646W        W33906  22.460   4.845   1.674
61647W        W33907   4.465  10.305   2.875
61648W        W33908  21.463   2.211  12.014
61649W        W33909  39.309   5.220   3.588
61650W        W33910   9.279  32.668  10.975
61651W        W33911  42.216  24.965  13.409
61652W        W33912  15.170  41.413  12.799
61653W        W33913   7.935   0.489   0.369
61654W        W33914   7.015  44.514   1.821
61655W        W33915  36.498  37.938  10.621
61656W        W33916   6.922  20.621   4.843
61657W        W33917   6.182  26.494   3.826
61658W        W33918   6.563  37.118   2.770
61659W        W33919  19.859  24.060  11.144
61660W        W33920  27.272   2.982   2.860
61661W        W33921  42.262  18.928  12.272
61662W        W33922  12.317  23.893   2.584
61663W        W33923  37.583  24.988   3.645
61664W        W33924  18.759  34.517  12.415
61665W        W33925  12.838  10.945   4.275
61666W        W33926  24.944  41.450  12.056
61667W        W33927   7.653  23.389  11.228
61668W        W33928  10.891  14.937  11.207
61669W        W33929   6.325   8.176   3.399
61670W        W33930  14.126   7.085  11.844
61671W        W33931  27.894  14.769   3.760
61672W        W33932  27.681  38.521  13.379
61673W        W33933  14.990  43.779  11.287
61674W        W33934  43.289  21.507   3.143
61675W        W33935  35.885  35.567  13.350
61676W        W33936  16.023  33.555  10.593
61677W        W33937  39.340  41.547   1.793
61678W        W33938  27.065  37.581   2.267
61679W        W33939  44.176  15.187   3.763
61680W        W33940  29.661  10.296   2.833
61681W        W33941  41.049  39.528  12.963
61682W        W33942  16.355   9.431  13.380
61683W        W33943  29.063  39.480  14.170
61684W        W33944  34.416  37.301   3.794
61685W        W33945  40.912  30.259  11.107
61686W        W33946  25.624  26.133  13.266
61687W        W33947  42.016  36.842   4.644
61688W        W33948  42.368  42.808   2.401
61689W        W33949  12.534   9.146   3.803
61690W        W33950  14.024  17.057   0.317
61691W        W33951  24.082  35.416  10.741
61692W        W33952  43.533   5.364   4.182
61693W        W33953  41.835  33.226   0.290
61694W        W33954  27.913   2.420  14.372
61695W        W33955   0.238  33.661  13.025
61696W        W33956   2.439  17.311  11.641
61697W        W33957  37.388  16.758   0.273
61698W        W33958   7.795  27.673   1.677
61699W        W33959  10.713   2.703  10.766
61700W        W33960   5.352   2.924  11.111
61701W        W33961   1.520  31.480   0.688
61702W        W33962  32.944  23.913   3.197
61703W        W33963  29.688  44.902   4.671
61704W        W33964  21.171  36.415  12.616
61705W        W33965  42.304   8.736   2.421
61706W        W33966  35.112  13.812  14.699
61707W        W33967  25.050  17.088   3.735
61708W        W33968   8.136  39.646   3.745
61709W        W33969  36.557   7.145  11.283
61710W        W33970  14.156   2.536   1.250
61711W        W33971  32.090  11.195  14.843
61712W        W33972   3.394  40.616   2.795
61713W        W33973  13.526  44.054   3.227
61714W        W33974  42.415  19.602  11.104
61715W        W33975   4.278  44.556   3.703
61716W        W33976  28.168  28.704   2.085
61717W        W33977  13.710  15.774  12.155
61718W        W33978  19.088  22.810   0.256
61719W        W33979  29.898  23.322   2.345
61720W        W33980   8.142  10.154  14.711
61721W        W33981  15.316   0.984  14.771
61722W        W33982  21.167   7.884   4.633
61723W        W33983  42.251  41.003   1.779
61724W        W33984  22.390   5.296   4.496
61725W        W33985  27.530  11.937  13.060
61726W        W33986  43.433   7.651  12.088
61727W        W33987  37.478  36.805  11.578
61728W        W33988  44.857  16.286  13.485
61729W        W33989  21.664  38.022  12.821
61730W        W33990  28.436  24.969  13.408
61731W        W33991  34.030  15.007  12.874
61732W        W33992   1.232  11.410  13.464
61733W        W33993  42.770  40.916  14.216
61734W        W33994   0.434   6.764  10.903
61735W        W33995  14.881  18.503   3.610
61736W        W33996  35.953  32.566   0.173
61737W        W33997  13.545  24.722  10.598
61738W        W33998   7.058   0.972   4.162
61739W        W33999  30.956  25.425  12.892
61740W        W34000  23.939  14.149  12.083
61741W        W34001  24.686  32.641  12.443
61742W        W34002  33.172  16.247  13.830
61743W        W34003   8.881  38.484   1.432
61744W        W34004  43.531  15.223  14.406
61745W        W34005  16.222  15.706   2.801
61746W        W34006  15.042  19.576  14.420
61747W        W34007  20.551  37.945   4.658
61748W        W34008  13.023  42.568   0.809
61749W        W34009  30.093  17.650   1.479
61750W        W34010  37.827  36.714  12.243
61751W        W34011  26.512  43.317   2.765
61752W        W34012   1.637  26.438   4.310
61753W        W34013   5.854  14.946   2.734
61754W        W34014  32.404   3.194  11.363
61755W        W34015  38.535  16.226   3.379
61756W        W34016   2.003   4.925   0.523
61757W        W34017  39.691  27.442   1.730
61758W        W34018  38.643   0.530  12.541
61759W        W34019  42.595  13.600   0.451
61760W        W34020  30.626  19.276   4.105
61761W        W34021  26.739  30.479   0.884
61762W        W34022  27.643   8.230   3.751
61763W        W34023   2.507  29.073   0.410
61764W        W34024  27.598   0.011   1.436
61765W        W34025   4.750   1.491  11.057
61766W        W34026  32.366  27.923   3.626
61767W        W34027  26.185  40.765   0.411
61768W        W34028   9.996  12.148  12.483
61769W        W34029  30.515  31.030   0.796
61770W        W34030   3.501   9.752   0.304
61771W        W34031   1.983  28.626  12.898
61772W        W34032  10.604  31.153  12.798
61773W        W34033  32.322  22.315   2.832
61774W        W34034   7.804  42.612  13.815
61775W        W34035   4.657  12.698   0.733
61776W        W34036   7.769  24.198  13.721
61777W        W34037  25.783  44.129  11.096
61778W        W34038   4.618   0.401   2.160
61779W        W34039  14.420  24.670  14.956
61780W        W34040  21.574  26.145  12.330
61781W        W34041  35.741   1.813  10.705
61782W        W34042  17.016  36.338   2.430
61783W        W34043  29.666  17.948  10.419
61784W        W34044  38.340   1.959  11.185
61785W        W34045  41.426  37.407   4.151
61786W        W34046   1.483  36.920   4.564
61787W        W34047  23.348  23.593  14.781
61788W        W34048  12.381  37.873  14.397
61789W        W34049  20.929   5.477   3.607
61790W        W34050   2.432   4.167  13.351
61791W        W34051  38.557  25.021   3.046
61792W        W34052  30.528  33.162  14.094
61793W        W34053  35.104   8.789  14.536
61794W        W34054  12.869  28.863   0.168
61795W        W34055  28.639   0.807  12.860
61796W        W34056  30.153   6.888   1.808
61797W        W34057  12.520  32.127  14.676
61798W        W34058  17.000  13.883  13.495
61799W        W34059  44.680  44.290  10.744
61800W        W34060  17.607  39.078   2.136
61801W        W34061  25.901   4.895   3.489
61802W        W34062   1.776   4.557   2.753
61803W        W34063  27.562  44.769   1.927
61804W        W34064  28.483  29.330   4.521
61805W        W34065  11.645  42.277  14.912
61806W        W34066  39.446   5.418  13.533
61807W        W34067  13.809  11.243  12.050
61808W        W34068  25.536  18.376  12.982
61809W        W34069   0.453   7.022  13.538
61810W        W34070  43.540  28.542   2.676
61811W        W34071  18.390  13.731  14.964
61812W        W34072   9.158  26.085  11.117
61813W        W34073  41.547  29.622  13.302
61814W        W34074  23.644  35.076  12.966
61815W        W34075  30.362  37.335   4.998
61816W        W34076  21.415  34.449   2.223
61817W        W34077  37.879  23.985   1.802
61818W        W34078  39.736   4.586   4.178
61819W        W34079   9.090  28.066   3.867
61820W        W34080  27.556  18.881  13.968
61821W        W34081  44.494  15.706   3.278
61822W        W34082   5.486  14.854  14.293
61823W        W34083  44.605  31.951   4.165
61824W        W34084  10.409  13.192  12.381
61825W        W34085  23.642  30.095  14.206
61826W        W34086  23.145  13.642  14.796
61827W        W34087  29.196  33.668   3.060
61828W        W34088  17.414  10.652   4.618
61829W        W34089  18.274   7.179   3.100
61830W        W34090  26.715  44.391  11.126
61831W        W34091  37.925  33.464   3.729
61832W        W34092   0.795  41.846  13.035
61833W        W34093  12.121   4.016   0.091
61834W        W34094  37.249  32.550  10.588
61835W        W34095   8.382   8.231   0.844
61836W        W34096  23.153  36.334  13.863
61837W        W34097  38.235   3.941   0.687
61838W        W34098  40.937  14.855  11.352
61839W        W34099  39.797  19.730  14.515
61840W        W34100   4.490  24.143  12.541
61841W        W34101  44.995   1.299  11.230
61842W        W34102   0.594  31.956  14.964
61843W        W34103  34.470  40.402   1.303
61844W        W34104  40.578  30.336   1.700
61845W        W34105  16.538   4.970  13.644
61846W        W34106  41.973   7.664   2.477
61847W        W34107  17.449  12.943  11.027
61848W        W34108  14.869   9.866  12.955
61849W        W34109   4.222  43.587  13.305
61850W        W34110   0.768   7.944  13.418
61851W        W34111  31.323  16.835  12.123
61852W        W34112   6.464  43.303   4.681
61853W        W34113  42.528   6.441   1.347
61854W        W34114   8.874  42.303  11.932
61855W        W34115  19.032  13.830  10.703
61856W        W34116   5.734  39.124  11.252
61857W        W34117  12.358   0.726  13.353
61858W        W34118  33.663   0.319   4.763
61859W        W34119   2.795  28.503   2.646
61860W        W34120  25.256  38.623   4.422
61861W        W34121   7.765  31.474  13.942
61862W        W34122  31.024  10.385  10.737
61863W        W34123  29.907  13.279   4.478
61864W        W34124  36.455  35.167  12.542
61865W        W34125  28.890   2.178   0.994
61866W        W34126   9.429   6.564   4.523
61867W        W34127  41.476  43.970  12.093
61868W        W34128  13.666  23.770  12.633
61869W        W34129  26.269  38.364  12.975
61870W        W34130  27.620  40.943   3.454
61871W        W34131  41.927  15.567   3.234
61872W        W34132  24.806  37.029   2.807
61873W        W34133  23.807  37.985  12.139
61874W        W34134  11.004  13.625  12.843
61875W        W34135   3.348   4.084  12.383
61876W        W34136  23.939  15.752   2.301
61877W        W34137  27.580  43.947   0.974
61878W        W34138   5.238   9.211   2.400
61879W        W34139  19.839  43.275   5.067
61880W        W34140  26.541  35.051  12.856
61881W        W34141  17.521  17.662   0.556
61882W        W34142  10.336   2.002   1.408
61883W        W34143  14.843  21.380  11.543
61884W        W34144   9.661  20.259   1.855
61885W        W34145  16.142   8.619  13.835
61886W        W34146  23.096  32.082   2.394
61887W        W34147  41.426  12.144   2.340
61888W        W34148  16.517  25.021   0.712
61889W        W34149  23.716   8.227  11.904
61890W        W34150  38.537  44.697   1.961
61891W        W34151   9.390  22.457   1.405
61892W        W34152  31.546   8.228  11.683
61893W        W34153  29.523  32.568   3.689
61894W        W34154  37.467  38.396  11.202
61895W        W34155  28.110   9.908   0.224
61896W        W34156  31.480  37.524   2.908
61897W        W34157  15.561  19.615   3.647
61898W        W34158  36.975  10.410  11.500
61899W        W34159  13.803  36.588  10.655
61900W        W34160  14.369  21.981  14.594
61901W        W34161   9.423  44.848  14.446
61902W        W34162   6.687  19.213  13.966
61903W        W34163  13.925  12.298   3.072
61904W        W34164  36.524  11.275  12.771
61905W        W34165  34.833  33.970   3.600
61906W        W34166  10.869  12.431   0.301
61907W        W34167  32.358  37.840  12.494
61908W        W34168  42.420  14.534  10.969
61909W        W34169  31.057  33.285   3.069
61910W        W34170   9.789  37.324   3.703
61911W        W34171  31.126  42.234  11.496
61912W        W34172   9.231  14.280  12.611
61913W        W34173  16.456  26.121  14.853
61914W        W34174  43.726  17.245   1.144
61915W        W34175  29.086  37.558   3.920
61916W        W34176  29.518  39.559   2.413
61917W        W34177  39.429   2.199   1.930
61918W        W34178   7.833  18.325  13.123
61919W        W34179  22.662  28.111  13.807
61920W        W34180  22.831  23.640   0.676
61921W        W34181  21.846  30.706  13.143
61922W        W34182  37.427  34.688   2.377
61923W        W34183   8.272  31.405  12.090
61924W        W34184  19.088  33.843   4.061
61925W        W34185   2.406  16.564   4.556
61926W        W34186  12.217  20.560   2.294
61927W        W34187  44.258  26.768   4.033
61928W        W34188  44.181  43.931  11.138
61929W        W34189   2.990  29.283  12.374
61930W        W34190  44.268  24.015   3.628
61931W        W34191   4.797  33.043   2.095
61932W        W34192  29.109  20.614   0.748
61933W        W34193   2.763   9.163  13.915
61934W        W34194   7.470  41.415   3.674
61935W        W34195  11.317   9.111  14.719
61936W        W34196  38.624  39.989  14.904
61937W        W34197  14.945  29.278   3.160
61938W        W34198  24.306  16.061   0.934
61939W        W34199  29.084  13.621   0.883
61940W        W34200   9.676  13.440   4.135
61941W        W34201  13.765  11.900  14.892
61942W        W34202  34.382   7.439  12.679
61943W        W34203  22.286  39.151   1.055
61944W        W34204   6.809  18.798  13.048
61945W        W34205  24.164  42.485  11.530
61946W        W34206  34.436  21.219  12.553
61947W        W34207  21.165  36.973   1.779
61948W        W34208  23.472  43.739   1.312
61949W        W34209  31.684  38.944  14.139
61950W        W34210  43.802  19.466   3.198
61951W        W34211  35.387   4.395   0.476
61952W        W34212   6.382  25.908  14.724
61953W        W34213   3.465  44.262   4.107
61954W        W34214   4.169  40.508   3.472
61955W        W34215  43.703   0.282   2.313
61956W        W34216  24.956   3.159   4.230
61957W        W34217  18.945  36.360   1.781
61958W        W34218  36.031  23.444   0.310
61959W        W34219  24.543  10.088  13.187
61960W        W34220   4.913  33.359   0.690
61961W        W34221  12.242   8.174  13.418
61962W        W34222  30.562  43.467  13.875
61963W        W34223  16.353  14.199  11.029
61964W        W34224  35.617  40.781  13.132
61965W        W34225  25.023  13.647   3.270
61966W        W34226   8.859  27.296   0.679
61967W        W34227   5.943  27.445  12.520
61968W        W34228  15.978  24.423   0.842
61969W        W34229  35.482   6.230   0.224
61970W        W34230  13.123  20.286  13.803
61971W        W34231  43.491  39.037  13.011
61972W        W34232  10.728  31.391   0.071
61973W        W34233   2.024  10.795  11.585
61974W        W34234  42.729   1.034   3.750
61975W        W34235  34.814  32.132   4.467
61976W        W34236  24.232  36.946   1.381
61977W        W34237  25.006  40.346   0.345
61978W        W34238  14.212  12.655  14.677
61979W        W34239  18.552  12.452  10.217
61980W        W34240  34.114   3.423   3.812
61981W        W34241  30.523  18.270   3.318
61982W        W34242  15.966   0.203   1.358
61983W        W34243  35.818  30.098   0.312
61984W        W34244  41.895   1.391   1.661
61985W        W34245   8.456  22.018   4.211
61986W        W34246  30.143  37.952  13.980
61987W        W34247  19.556   8.744  12.749
61988W        W34248   2.832  25.388   3.335
61989W        W34249  33.753   0.804  12.646
61990W        W34250  23.230   1.831  12.930
61991W        W34251  16.827  27.921   0.258
61992W        W34252  18.808  42.858   2.861
61993W        W34253   9.221  14.844  13.259
61994W        W34254  31.464  27.028  13.582
61995W        W34255  40.481   7.785  13.049
61996W        W34256  26.015  31.857   4.142
61997W        W34257   4.219  17.728  11.099
61998W        W34258  35.451  41.076  12.180
61999W        W34259  34.570  41.403   3.022
62000W        W34260   5.534  19.257   3.296
62001W        W34261  19.284   7.581  14.192
62002W        W34262  38.935  29.123  14.183
62003W        W34263  25.239   8.032   2.413
62004W        W34264  42.246  29.334  12.096
62005W        W34265   3.800  36.923   2.799
62006W        W34266   7.935  30.292  12.401
62007W        W34267   1.378  20.750  13.394
62008W        W34268  22.529  16.351  12.355
62009W        W34269  33.949  18.567   4.643
62010W        W34270  34.972  44.285   1.635
62011W        W34271  35.098  17.469   0.015
62012W        W34272  24.553  36.111  12.947
62013W        W34273  41.937   2.909  14.104
62014W        W34274  14.612  12.950   3.444
62015W        W34275   2.305   5.356   0.484
62016W        W34276  37.817  11.161  14.368
62017W        W34277  31.852  34.306   2.851
62018W        W34278  13.890  15.745   0.932
62019W        W34279  12.618  43.025   2.249
62020W        W34280  11.152  19.213  12.642
62021W        W34281  25.062  11.811   2.129
62022W        W34282  43.880  30.422   3.224
62023W        W34283  18.281  21.985  13.531
62024W        W34284  44.964  27.782  14.259
62025W        W34285  23.929  21.626   2.923
62026W        W34286  25.130  39.447   1.732
62027W        W34287  21.690   3.957   1.169
62028W        W34288  15.030  16.764  11.914
62029W        W34289  34.082  38.261  10.667
62030W        W34290   9.287   0.355  10.743
62031W        W34291  14.323   2.764   3.730
62032W        W34292  33.604  20.299  12.821
62033W        W34293  22.833  40.940  11.627
62034W        W34294  11.862  19.832   4.612
62035W        W34295   2.660  21.144  13.375
62036W        W34296  14.169  18.742  11.013
62037W        W34297  42.274  16.486  11.050
62038W        W34298  12.232  14.621   0.319
62039W        W34299  32.650  40.995  12.963
62040W        W34300  12.744   8.995  12.347
62041W        W34301  36.074  42.990   4.119
62042W        W34302   9.333  39.148   1.069
62043W        W34303  22.748   9.688  10.714
62044W        W34304  41.796   6.767   1.941
62045W        W34305  38.120  29.064   0.837
62046W        W34306  21.113  29.476  14.063
62047W        W34307   0.025  39.888  11.949
62048W        W34308  36.093   7.768  14.614
62049W        W34309  31.962  21.417   2.855
62050W        W34310  25.593   2.541  12.438
62051W        W34311  22.090   0.512  12.299
62052W        W34312  24.158  15.035   1.822
62053W        W34313  34.956   9.674   1.354
62054W        W34314  36.365  38.677  11.806
62055W        W34315  44.404  41.025  11.577
62056W        W34316   4.949  29.511   0.811
62057W        W34317  12.797  37.959   2.884
62058W        W34318  13.201  30.064   9.867
62059W        W34319  25.068  15.861  11.598
62060W        W34320   1.773  28.142   3.989
62061W        W34321  12.116  23.645  14.349
62062W        W34322   6.309  28.369  13.816
62063W        W34323   9.242  36.606  13.393
62064W        W34324  42.570  18.702   3.838
62065W        W34325   0.933  26.146  14.475
62066W        W34326   3.795  29.063   1.225
62067W        W34327  24.715  22.562   1.176
62068W        W34328   7.110  32.160  14.809
62069W        W34329  19.771  39.804   3.670
62070W        W34330   5.994  21.642  12.927
62071W        W34331  36.029  23.572  13.022
62072W        W34332  29.173  13.714   4.127
62073W        W34333  31.964   8.177   1.337
62074W        W34334  41.920   3.398  10.592
62075W        W34335  27.030  42.315  14.990
62076W        W34336   1.404   5.232   4.695
62077W        W34337  19.017  28.929  11.221
62078W        W34338  15.697  23.952  13.023
62079W        W34339  31.165   4.366  13.873
62080W        W34340  18.061   7.494   1.749
62081W        W34341   8.200   2.656  14.772
62082W        W34342  22.580  36.435   4.918
62083W        W34343  20.064  44.728  11.589
62084W        W34344  23.903  16.485  11.969
62085W        W34345  20.583  38.948   4.652
62086W        W34346  11.980  19.768  12.538
62087W        W34347  31.294   4.219   3.751
62088W        W34348  21.721   3.679   1.679
62089W        W34349  43.538   4.292  12.542
62090W        W34350  32.309  42.018  13.846
62091W        W34351   0.689  41.122   0.011
62092W        W34352  28.227  38.549  12.115
62093W        W34353  21.484   8.932  12.057
62094W        W34354  14.783  21.446  12.605
62095W        W34355  11.590  35.152  14.902
62096W        W34356   5.349   6.736   1.753
62097W        W34357   9.585  32.505   1.374
62098W        W34358   5.771   4.155   4.574
62099W        W34359  42.737  32.349   2.274
62100W        W34360  37.525   7.253   2.191
62101W        W34361  29.728  32.553  10.721
62102W        W34362  13.636   2.745   0.336
62103W        W34363   2.837   2.877  14.282
62104W        W34364   8.882  32.027   2.933
62105W        W34365  30.031  39.042   2.841
62106W        W34366   6.655  41.888  11.185
62107W        W34367  37.999   0.354   3.145
62108W        W34368  31.917  39.022   1.807
62109W        W34369   5.232  22.083  14.552
62110W        W34370  23.450  21.769  13.241
62111W        W34371  39.365  36.542   1.915
62112W        W34372  38.524   2.692   4.460
62113W        W34373  18.025   1.280   0.514
62114W        W34374  33.615  29.343   5.007
62115W        W34375  31.865   7.804  11.716
62116W        W34376  37.305  18.380  11.192
62117W        W34377  34.175   0.109  10.476
62118W        W34378  38.681  33.424   4.918
62119W        W34379  16.487  27.228   1.800
62120W        W34380  26.397   3.340   2.635
62121W        W34381  15.568  11.134  13.461
62122W        W34382  31.662   8.221  11.194
62123W        W34383  23.575  38.761   2.753
62124W        W34384  17.216  40.686   3.243
62125W        W34385  32.669   3.897  10.718
62126W        W34386  37.115  24.245  11.547
62127W        W34387  30.402  23.166  11.856
62128W        W34388   6.613  31.005   2.699
62129W        W34389   0.653  41.401   0.464
62130W        W34390  12.254   7.846  14.305
62131W        W34391  22.125  39.960   0.636
62132W        W34392   3.773  11.143   3.101
62133W        W34393  33.152  44.276   1.796
62134W        W34394  12.868  29.182  14.739
62135W        W34395  38.464  13.748  13.092
62136W        W34396  32.709  25.563  13.430
62137W        W34397  40.361  22.521   5.006
62138W        W34398   0.518   9.379  13.577
62139W        W34399  40.562   0.061   2.358
62140W        W34400  30.617  40.306   3.030
62141W        W34401  26.601  41.341   3.316
62142W        W34402  42.557  24.090   2.790
62143W        W34403  30.934  28.275  13.859
62144W        W34404  21.104  21.282  14.847
62145W        W34405  13.812  26.160   2.337
62146W        W34406   2.844  38.808  11.455
62147W        W34407  19.781   5.899   1.419
62148W        W34408  18.659  40.242  11.368
62149W        W34409  34.578  34.993  10.963
62150W        W34410  32.549  24.311   1.491
62151W        W34411  24.684  41.330   5.023
62152W        W34412  11.153  34.442   1.404
62153W        W34413  11.270  13.293  10.925
62154W        W34414   2.989  17.606  10.620
62155W        W34415   9.088   0.360  13.807
62156W        W34416  16.262  18.777   2.874
62157W        W34417  24.183  25.706   0.419
62158W        W34418  11.887  18.074  12.164
62159W        W34419  18.592  33.997  10.666
62160W        W34420  16.267  30.071  14.005
62161W        W34421  11.194  19.669   0.274
62162W        W34422   4.939  44.246   0.861
62163W        W34423  26.215  12.237  13.856
62164W        W34424  22.594  26.437  14.869
62165W        W34425  41.289  22.148  10.707
62166W        W34426   6.979  10.205  13.055
62167W        W34427  34.108  41.671  14.560
62168W        W34428  20.646  22.783   0.718
62169W        W34429  24.238  37.032  14.574
62170W        W34430  24.575  38.700   4.979
62171W        W34431  39.517  17.464   2.199
62172W        W34432  21.853  30.891   0.140
62173W        W34433  18.842  35.356   4.151
62174W        W34434  31.421   7.453   1.970
62175W        W34435  30.388  13.062   0.900
62176W        W34436  11.687  13.093  12.643
62177W        W34437  25.673  23.464  13.158
62178W        W34438  42.071   6.672  13.052
62179W        W34439  12.866  27.024  10.530
62180W        W34440  34.823  44.549  12.009
62181W        W34441   7.339   3.983   4.574
62182W        W34442  39.583  39.487  12.672
62183W        W34443  18.470  43.757  11.649
62184W        W34444   5.888  25.732  14.960
62185W        W34445  34.430  35.673   2.293
62186W        W34446  41.378   0.192   3.390
62187W        W34447   4.826  23.446   0.698
62188W        W34448  34.362  44.026  14.485
62189W        W34449  19.821  24.800  14.073
62190W        W34450  14.684  17.587   1.351
62191W        W34451  41.612   6.971  13.992
62192W        W34452   1.996  40.971   1.927
62193W        W34453  16.124   3.955  10.923
62194W        W34454  23.269  35.606  12.038
62195W        W34455  44.074  24.516  13.337
62196W        W34456  25.244  44.754   3.710
62197W        W34457   8.686  31.186   1.720
62198W        W34458  21.822   0.488   4.129
62199W        W34459  22.939  18.505  11.079
62200W        W34460   4.386  18.784  13.886
62201W        W34461  29.653  29.645  13.371
62202W        W34462  22.977  36.387   2.957
62203W        W34463  35.081  38.561   2.186
62204W        W34464  34.819  15.084   3.250
62205W        W34465  23.192  31.135   1.803
62206W        W34466  43.678   2.521   4.124
62207W        W34467  43.899   2.732  13.760
62208W        W34468  11.357  25.424  11.117
62209W        W34469  30.084  20.130  11.783
62210W        W34470   9.131   0.262  11.737
62211W        W34471   2.310  21.236   1.157
62212W        W34472   0.441  42.996   1.852
62213W        W34473   2.958  44.002  11.551
62214W        W34474  44.312  40.831   2.791
62215W        W34475  28.362   4.261  11.315
62216W        W34476  40.438  11.123   2.788
62217W        W34477  14.799   8.406  13.549
62218W        W34478  31.509  30.924   9.809
62219W        W34479   7.025  20.529  12.131
62220W        W34480  29.657   8.824  13.403
62221W        W34481  38.835  22.619  10.686
62222W        W34482  10.873  28.555   3.551
62223W        W34483  16.409  17.575   9.805
62224W        W34484  12.956   7.427   5.049
62225W        W34485  22.710  26.445   2.077
62226W        W34486  34.741  40.732  14.282
62227W        W34487   6.617  32.242   2.692
62228W        W34488  37.744   8.697   2.070
62229W        W34489  37.908  37.733   3.299
62230W        W34490   2.180  22.469  10.658
62231W        W34491   3.221  34.057  13.867
62232W        W34492   4.499   8.630   2.653
62233W        W34493  29.432  36.852  11.978
62234W        W34494  26.428   0.772  10.490
62235W        W34495  37.731  11.482   4.118
62236W        W34496  14.793  25.523   0.309
62237W        W34497  30.998  22.154   3.163
62238W        W34498  33.084  24.240   4.632
62239W        W34499  28.618  19.861   0.844
62240W        W34500  19.014  24.039   4.619
62241W        W34501  38.695  34.568  11.621
62242W        W34502  22.239  18.779   4.186
62243W        W34503  11.889  28.339   9.921
62244W        W34504  24.023  37.504  12.037
62245W        W34505  12.370  13.039  12.915
62246W        W34506  29.946   5.118  14.438
62247W        W34507  27.513   0.044   2.380
62248W        W34508  43.922  23.867   0.323
62249W        W34509   7.992   0.924   4.997
62250W        W34510  20.197  13.739  14.530
62251W        W34511  22.773  36.094  13.586
62252W        W34512   5.660  34.380  12.609
62253W        W34513  40.394  13.635   0.239
62254W        W34514  30.089  28.818  13.300
62255W        W34515  29.381  25.646   0.934
62256W        W34516  22.038  41.337  13.022
62257W        W34517  12.580  23.444  13.437
62258W        W34518  44.387  21.256   0.771
62259W        W34519  22.621  25.664   3.151
62260W        W34520   5.790   3.749  11.157
62261W        W34521   1.666  26.988  13.110
62262W        W34522  14.942   0.567   0.383
62263W        W34523  24.843   8.727   0.685
62264W        W34524  43.000   4.584   3.842
62265W        W34525   2.671  25.924  12.550
62266W        W34526  37.010  34.645  14.341
62267W        W34527  38.378  19.995  13.101
62268W        W34528  25.741  33.886  13.114
62269W        W34529   2.388  32.831   0.897
62270W        W34530  35.410  15.171   0.421
62271W        W34531  14.050  22.568   0.736
62272W        W34532   4.287  41.156  10.624
62273W        W34533  29.174  38.815   0.343
62274W        W34534  29.469  35.415   3.128
62275W        W34535  27.191  18.918   1.317
62276W        W34536  22.322  42.864  10.713
62277W        W34537   7.437   8.386   4.106
62278W        W34538   6.159  32.570  13.655
62279W        W34539  14.879  20.822   0.838
62280W        W34540  38.146  26.782  11.056
62281W        W34541  24.524  35.470  13.307
62282W        W34542  35.344  23.017  11.983
62283W        W34543  29.924  11.396  13.087
62284W        W34544  16.823  27.643   1.938
62285W        W34545  21.117  40.457   4.048
62286W        W34546  34.947  24.639   4.736
62287W        W34547  41.113  16.238   4.978
62288W        W34548  18.946  44.194   4.660
62289W        W34549   8.397  23.944   1.740
62290W        W34550  10.885  42.393  13.541
62291W        W34551  44.870  11.082  13.385
62292W        W34552  25.197  10.302  12.015
62293W        W34553  35.217   8.755  10.753
62294W        W34554  40.591  44.778  14.974
62295W        W34555  12.819  13.847  14.047
62296W        W34556  11.322  41.555   4.088
62297W        W34557   5.150  24.872  13.393
62298W        W34558  28.955  38.181   1.323
62299W        W34559  26.419  28.581  13.475
62300W        W34560  19.065  21.944  14.856
62301W        W34561   3.162   9.041   0.949
62302W        W34562  31.873  15.373   1.154
62303W        W34563  37.799  13.471   3.569
62304W        W34564  33.495  13.587  13.982
62305W        W34565  38.080   8.325   1.940
62306W        W34566  41.323  10.989   4.212
62307W        W34567  17.762  20.705  12.495
62308W        W34568   8.904  42.776  11.032
62309W        W34569  10.894  26.562  13.147
62310W        W34570  13.660  40.439   2.634
62311W        W34571  27.512  28.422  12.800
62312W        W34572   7.949   3.371   2.004
62313W        W34573   3.569   4.917  12.168
62314W        W34574  41.432  21.007  12.430
62315W        W34575  33.652  40.394  14.254
62316W        W34576  36.105   1.307  12.110
62317W        W34577  20.221  19.799   9.854
62318W        W34578  30.836  31.497  14.960
62319W        W34579   6.896   0.473   4.470
62320W        W34580   2.370  27.579  10.482
62321W        W34581  31.701  30.684   1.512
62322W        W34582  26.784  34.985  13.877
62323W        W34583  13.661  33.379  11.362
62324W        W34584  33.926  17.547  13.992
62325W        W34585  29.068  27.569   2.885
62326W        W34586  28.051  38.561   3.914
62327W        W34587  43.539   9.650  12.124
62328W        W34588  29.981  25.420   3.701
62329W        W34589  31.094  41.306   5.094
62330W        W34590   5.014  37.062   0.292
62331W        W34591  32.521   3.638  11.627
62332W        W34592  36.048  44.527  10.485
62333W        W34593  29.999  20.124  13.505
62334W        W34594  35.027  13.780  13.105
62335W        W34595  15.128  24.040   3.689
62336W        W34596   0.711  23.927   3.749
62337W        W34597  20.032  11.359   3.250
62338W        W34598  41.059  41.647   1.639
62339W        W34599  24.142  41.739  11.938
62340W        W34600   3.959  18.750  11.692
62341W        W34601  40.943   6.332  12.026
62342W        W34602  18.159   3.633   2.809
62343W        W34603   1.922   2.936   3.264
62344W        W34604  17.351  29.445   4.573
62345W        W34605  17.587  28.574  13.441
62346W        W34606  39.551   5.804   2.369
62347W        W34607  18.229  41.515   0.736
62348W        W34608   6.825   4.246   2.252
62349W        W34609   8.996  30.900   3.738
62350W        W34610  32.111  31.091  14.190
62351W        W34611   5.699  42.999   1.990
62352W        W34612  24.109  31.729  11.408
62353W        W34613  23.851  38.409   4.077
62354W        W34614   3.748  39.216  13.787
62355W        W34615  39.421  41.472  14.805
62356W        W34616   4.520  32.455   0.272
62357W        W34617  11.418  34.990   4.952
62358W        W34618  24.489   8.395  14.781
62359W        W34619  29.031  26.049  10.873
62360W        W34620  28.961   6.254  11.662
62361W        W34621  36.530  24.226   2.789
62362W        W34622  17.610  10.160  12.350
62363W        W34623  43.259  23.120  14.228
62364W        W34624  31.961   8.275   3.716
62365W        W34625  17.539  22.020  12.528
62366W        W34626  12.824   2.651   1.799
62367W        W34627  12.070   9.665   1.968
62368W        W34628   0.578  26.076   1.894
62369W        W34629  41.977  14.553  11.238
62370W        W34630  23.309  39.067   0.650
62371W        W34631  13.166  13.175  11.887
62372W        W34632  23.534  43.324  11.052
62373W        W34633  17.826   8.116  10.195
62374W        W34634  39.792  25.121   0.335
62375W        W34635  15.717  17.048   0.794
62376W        W34636   8.906  39.345  12.155
62377W        W34637   0.289  19.554  10.840
62378W        W34638  20.450  19.050   4.624
62379W        W34639  38.780  33.367  12.291
62380W        W34640  26.548   1.892   4.426
62381W        W34641   1.700   3.348   4.126
62382W        W34642   2.855  34.941   3.224
62383W        W34643  21.208   3.292   4.962
62384W        W34644  11.980  22.635   4.031
62385W        W34645   9.436   0.476   2.727
62386W        W34646  29.991   7.212   3.345
62387W        W34647   6.778  14.226  14.163
62388W        W34648  38.308  21.074  13.604
62389W        W34649  29.624   3.352   3.214
62390W        W34650  24.499  43.900  12.303
62391W        W34651  30.095  11.886   3.312
62392W        W34652  20.953  30.010   3.657
62393W        W34653  26.658   0.704   0.921
62394W        W34654   1.516  23.059   3.208
62395W        W34655  28.612   7.222  13.730
62396W        W34656  13.673   8.250   1.351
62397W        W34657   2.698  17.503   2.245
62398W        W34658  17.147  14.705  13.945
62399W        W34659  22.236   1.731   3.223
62400W        W34660  37.519   0.663  13.809
62401W        W34661  30.108  28.996  13.802
62402W        W34662  37.419   2.975   3.805
62403W        W34663  17.310  40.504   2.380
62404W        W34664  20.106  40.994   2.278
62405W        W34665  10.012  16.572  11.813
62406W        W34666  37.658  34.530  10.670
62407W        W34667   2.007  41.219   0.913
62408W        W34668  36.521  32.826   3.654
62409W        W34669   0.336  39.490  11.730
62410W        W34670  33.860  27.428   3.135
62411W        W34671  12.724  14.070   3.345
62412W        W34672  34.128   8.191  11.605
62413W        W34673  30.743  17.124  13.928
62414W        W34674  42.844  33.639  12.137
62415W        W34675  36.096  26.420  14.470
62416W        W34676  17.666  20.945  10.661
62417W        W34677   4.178  14.166  13.486
62418W        W34678  19.767  31.885  12.869
62419W        W34679   1.776  15.337   5.019
62420W        W34680  32.257  12.845  13.976
62421W        W34681  16.852  13.662   4.615
62422W        W34682  21.543  23.204   1.848
62423W        W34683  18.866  36.945   3.131
62424W        W34684  21.474  24.069   3.728
62425W        W34685  15.193  21.518   4.100
62426W        W34686  22.208  24.487   1.523
62427W        W34687  12.684   6.729   1.785
62428W        W34688  18.102  36.765  14.293
62429W        W34689  42.408   2.795  13.923
62430W        W34690  33.699  41.769   2.194
62431W        W34691  27.940  17.172  11.569
62432W        W34692  44.912  15.777  13.698
62433W        W34693  18.135  26.229  13.709
62434W        W34694  39.293   9.893   9.768
62435W        W34695  38.003  30.418  10.615
62436W        W34696  30.574   7.023   4.034
62437W        W34697  19.633  25.098   3.809
62438W        W34698   3.699   9.443  14.010
62439W        W34699  36.072  36.277   4.941
62440W        W34700  31.633  15.492  11.484
62441W        W34701   0.188  43.885   4.707
62442W        W34702   3.317  22.083   1.252
62443W        W34703  32.801   2.508  13.768
62444W        W34704  41.012  19.531  14.354
62445W        W34705  21.770  11.993   0.680
62446W        W34706   7.771  39.105  14.038
62447W        W34707  31.706  43.300   0.208
62448W        W34708  30.987  13.350  12.914
62449W        W34709  33.998  22.897  14.389
62450W        W34710  41.060   2.062  11.580
62451W        W34711  44.752  25.088  14.718
62452W        W34712  31.472  15.114   3.789
62453W        W34713  42.271  12.067   0.336
62454W        W34714  22.227  26.541   2.126
62455W        W34715  21.543  23.996   4.587
62456W        W34716  40.100   7.250   1.825
62457W        W34717   6.734   2.610   3.195
62458W        W34718   1.505  32.640   2.293
62459W        W34719  31.839  21.255   1.448
62460W        W34720  41.822   2.231  12.060
62461W        W34721  22.997   6.657  10.677
62462W        W34722  28.007  10.879  14.026
62463W        W34723   1.969   9.415  14.315
62464W        W34724  12.730  28.212   3.832
62465W        W34725  44.877  26.543   0.042
62466W        W34726  38.873  43.365   2.046
62467W        W34727   5.967   7.224   4.784
62468W        W34728   9.177  11.359   4.155
62469W        W34729  36.361  42.768   5.068
62470W        W34730  28.439  42.482   4.200
62471W        W34731  33.428  29.288  12.569
62472W        W34732  13.689  38.254  12.845
62473W        W34733  33.899  14.605  12.138
62474W        W34734  12.502   8.685   3.412
62475W        W34735  26.687  23.135   0.409
62476W        W34736  31.641  24.019  11.015
62477W        W34737  32.509  43.200   1.328
62478W        W34738  41.248   9.224   4.533
62479W        W34739  26.496  26.011  11.044
62480W        W34740  44.924  36.037  12.585
62481W        W34741   5.158  16.666   2.863
62482W        W34742  17.370  23.622  11.425
62483W        W34743  24.651  34.746  14.918
62484W        W34744  25.149  39.547   4.451
62485W        W34745  34.081   6.923   0.692
62486W        W34746  26.456  38.969   4.566
62487W        W34747   9.860  28.567  11.072
62488W        W34748  15.158   2.910   1.910
62489W        W34749  22.696  20.238  14.828
62490W        W34750  26.245  32.929  14.836
62491W        W34751  41.838  15.807  11.546
62492W        W34752  22.334   6.403   1.893
62493W        W34753   4.015  10.167  14.221
62494W        W34754   5.500   2.452   0.017
62495W        W34755  28.925  33.579  12.025
62496W        W34756  27.373  25.055   0.881
62497W        W34757  16.833   3.880  12.966
62498W        W34758  26.402  39.909   0.168
62499W        W34759  35.922  31.915  13.430
62500W        W34760  39.776  44.316  14.827
62501W        W34761  24.283  43.366   1.630
62502W        W34762  36.918   6.292   0.417
62503W        W34763  14.077  39.816  14.634
62504W        W34764  31.910  31.238  13.727
62505W        W34765  22.617  13.129  11.641
62506W        W34766  27.375  44.345   4.716
62507W        W34767  19.107   2.820   3.607
62508W        W34768  30.645  24.178   2.291
62509W        W34769   0.448  28.151   4.376
62510W        W34770  29.518  37.397  13.593
62511W        W34771   7.965  14.566  13.588
62512W        W34772  13.244  26.765   2.874
62513W        W34773  11.663  13.471   9.981
62514W        W34774  29.178  10.850   3.026
62515W        W34775  25.647  16.135  10.473
62516W        W34776   1.120  10.657  13.689
62517W        W34777  23.409  36.803   0.814
62518W        W34778   7.488   5.782  11.464
62519W        W34779  30.518  44.875   4.397
62520W        W34780  16.847  20.963   2.629
62521W        W34781  24.694  36.007  14.377
62522W        W34782  15.782  25.491  14.995
62523W        W34783   4.987   1.891   3.102
62524W        W34784  33.907  44.699  10.684
62525W        W34785  33.969   3.101  13.863
62526W        W34786  13.551  25.673   1.944
62527W        W34787  24.505  41.489   1.924
62528W        W34788   4.893  12.154   2.255
62529W        W34789  25.687  24.235  13.423
62530W        W34790  15.603  44.571  11.446
62531W        W34791  25.569  29.166  14.138
62532W        W34792  16.552   5.313  10.830
62533W        W34793  25.229  36.863  14.232
62534W        W34794  36.472  20.417   9.840
62535W        W34795  29.409  11.472   4.143
62536W        W34796   1.202  20.301  14.820
62537W        W34797  17.604  38.896  12.134
62538W        W34798  24.125   9.441  13.037
62539W        W34799  11.792  16.547   0.840
62540W        W34800  38.609  25.175   1.560
62541W        W34801  11.896  43.045  13.771
62542W        W34802  13.860  12.345   0.905
62543W        W34803  17.960  32.232   1.470
62544W        W34804  19.026   9.836  13.421
62545W        W34805  22.310   2.297  11.068
62546W        W34806  12.195   3.953   1.508
62547W        W34807  21.813  39.011  11.604
62548W        W34808  12.093  17.493   2.438
62549W        W34809  40.946  11.873   2.608
62550W        W34810   6.804  25.946  12.105
62551W        W34811   6.977  11.630  11.949
62552W        W34812  20.010  24.300  14.391
62553W        W34813  13.769  22.863  12.429
62554W        W34814  33.497  32.656   2.855
62555W        W34815  33.402  16.064  10.674
62556W        W34816  36.787  23.024   1.977
62557W        W34817  32.909  26.875   4.916
62558W        W34818  38.230  23.708   4.672
62559W        W34819  10.793  20.846  14.702
62560W        W34820   7.967  40.564   1.822
62561W        W34821   3.521   4.986   4.056
62562W        W34822  38.925  23.255  14.068
62563W        W34823  23.084  13.127  10.926
62564W        W34824  40.284  42.531   0.333
62565W        W34825  20.237  11.855  12.412
62566W        W34826  26.185  22.678   4.180
62567W        W34827   9.085  24.623   0.448
62568W        W34828  16.661  16.746   2.001
62569W        W34829  28.448   2.814   1.350
62570W        W34830  35.443  13.217   0.164
62571W        W34831  24.664  42.380   4.888
62572W        W34832  21.770  26.208  11.858
62573W        W34833   0.372  28.001  10.714
62574W        W34834  43.904  34.000  14.911
62575W        W34835  28.485  31.514  14.665
62576W        W34836   1.471   3.223   0.788
62577W        W34837   9.554  38.617   0.254
62578W        W34838  25.041  26.564  14.597
62579W        W34839  44.329  32.284  14.496
62580W        W34840  17.614  42.263   1.831
62581W        W34841  19.289  26.310   1.438
62582W        W34842  39.564  41.298  13.907
62583W        W34843  17.856   0.750  11.887
62584W        W34844  14.291  28.927  14.417
62585W        W34845  20.674  31.820  12.117
62586W        W34846  35.527  21.351   0.748
62587W        W34847  12.808  39.824  11.006
62588W        W34848  11.730  27.642   4.988
62589W        W34849  24.563  34.312   4.437
62590W        W34850  42.722  17.627  11.396
62591W        W34851  40.848   0.985   1.275
62592W        W34852  32.967   0.779  14.982
62593W        W34853  43.231  22.512   3.818
62594W        W34854  26.209  39.468  14.969
62595W        W34855  42.907  29.266  13.781
62596W        W34856  42.634  25.075   0.824
62597W        W34857  39.754  10.687   4.154
62598W        W34858   6.144  28.507   4.710
62599W        W34859  19.952  28.492   4.162
62600W        W34860  16.205   9.009  12.025
62601W        W34861  17.114  42.528  10.722
62602W        W34862  23.520  25.145   4.441
62603W        W34863  11.681  11.216  12.842
62604W        W34864  41.029  25.687   3.630
62605W        W34865  18.651  16.852  12.491
62606W        W34866   4.012  32.584   2.419
62607W        W34867  30.991  25.085   4.163
62608W        W34868  34.838  33.047  12.475
62609W        W34869  17.089   5.702   4.286
62610W        W34870   8.299  17.764   1.891
62611W        W34871  34.461  23.027  11.187
62612W        W34872  33.411  17.621  14.352
62613W        W34873  40.526  26.983   0.316
62614W        W34874   1.267  24.421  14.789
62615W        W34875  40.086  28.940  14.132
62616W        W34876   0.730  12.495   3.127
62617W        W34877   8.726   7.126  13.615
62618W        W34878  38.266  44.824  13.919
62619W        W34879   3.818  12.329   1.757
62620W        W34880  20.951  30.888   1.352
62621W        W34881  33.034  37.492  12.122
62622W        W34882  32.480  22.554   1.722
62623W        W34883  19.106  27.605   4.668
62624W        W34884  32.421  16.175  14.894
62625W        W34885  43.039  34.499   2.902
62626W        W34886   1.236  29.794  13.939
62627W        W34887  39.932  17.277  12.084
62628W        W34888  41.609  33.875  14.940
62629W        W34889   8.650  18.781  10.733
62630W        W34890  26.047   0.424   4.383
62631W        W34891  25.988  31.047   0.319
62632W        W34892  24.894  22.051  14.878
62633W        W34893  32.585  25.967   2.806
62634W        W34894  35.336  43.859  14.748
62635W        W34895  20.268  39.523  12.093
62636W        W34896   2.907  41.790   0.486
62637W        W34897  21.083  25.162  10.598
62638W        W34898  38.726  23.052   2.742
62639W        W34899   7.938   0.845  11.558
62640W        W34900  31.025  23.552  14.472
62641W        W34901  12.413  22.038   3.757
62642W        W34902  37.494  36.793   0.958
62643W        W34903   6.407  32.673  12.105
62644W        W34904  33.753  28.500  11.197
62645W        W34905  11.145   7.789   3.282
62646W        W34906   8.441  21.745  12.429
62647W        W34907  41.967  16.156   4.479
62648W        W34908  29.946  21.782   2.379
62649W        W34909  23.540  29.878  11.943
62650W        W34910  22.852   6.170  10.647
62651W        W34911  10.185  30.065  11.648
62652W        W34912  20.569  10.392   1.222
62653W        W34913  28.605  34.999   0.586
62654W        W34914   1.913  26.651   1.716
62655W        W34915  17.512  10.292   1.286
62656W        W34916  40.114  36.493   3.250
62657W        W34917  21.455   6.992  13.782
62658W        W34918   5.276  43.830   4.176
62659W        W34919  10.372  33.986   0.370
62660W        W34920  17.707  36.054   0.960
62661W        W34921  15.161  34.874   0.055
62662W        W34922  26.950  37.090   2.349
62663W        W34923  17.192  38.331  14.887
62664W        W34924  21.626  41.693   4.268
62665W        W34925  12.333  27.169   4.774
62666W        W34926  40.935  14.212  14.958
62667W        W34927   3.300  11.666  12.680
62668W        W34928  27.466   7.953   0.776
62669W        W34929  38.108   7.791  11.915
62670W        W34930  20.436  13.235   4.579
62671W        W34931  24.967  21.032  14.954
62672W        W34932   5.128  36.978  12.551
62673W        W34933  25.543  29.533   2.259
62674W        W34934  12.158  33.716  10.145
62675W        W34935  33.136  38.075   2.376
62676W        W34936  13.218  34.227   4.150
62677W        W34937  42.518  35.035  11.628
62678W        W34938   1.409  18.531   3.754
62679W        W34939  41.204   2.832  12.531
62680W        W34940  35.131  16.667   2.739
62681W        W34941   9.891   7.959   4.687
62682W        W34942  24.428   4.166  12.083
62683W        W34943  37.489  44.490  12.406
62684W        W34944  29.102  40.876   2.744
62685W        W34945  39.961   3.189  13.647
62686W        W34946  37.604  20.353  12.050
62687W        W34947  14.354  26.571   1.272
62688W        W34948  13.669  21.324  13.928
62689W        W34949  44.824  32.384  14.893
62690W        W34950   7.995  31.996   0.830
62691W        W34951   5.995  30.036   3.847
62692W        W34952  14.187  39.910  12.812
62693W        W34953   0.227  38.883  13.921
62694W        W34954  20.647  43.428  11.454
62695W        W34955  23.911  36.904   0.961
62696W        W34956  17.329  28.060   0.396
62697W        W34957   9.762  26.714  14.041
62698W        W34958  25.199  23.276  13.970
62699W        W34959  33.949   4.118  13.888
62700W        W34960  12.399   5.351   2.727
62701W        W34961  43.418  23.766  12.477
62702W        W34962  39.533  43.464  11.892
62703W        W34963  22.189  31.142  13.915
62704W        W34964  29.763  24.362   0.750
62705W        W34965  27.702  36.438  10.624
62706W        W34966  27.973   5.785   1.225
62707W        W34967  38.909  24.701   0.013
62708W        W34968   6.824  16.875  10.301
62709W        W34969   3.563  39.185   9.914
62710W        W34970  18.047  16.000  14.307
62711W        W34971   7.489  28.753   0.728
62712W        W34972  28.958  19.619   1.770
62713W        W34973  24.875  41.782   1.653
62714W        W34974   0.751   1.169  14.843
62715W        W34975   1.922  24.510  12.507
62716W        W34976   9.200  44.969   4.514
62717W        W34977  13.699  43.141  10.615
62718W        W34978   2.237  13.955  10.688
62719W        W34979  19.783  31.426   0.686
62720W        W34980  27.723  32.464  12.446
62721W        W34981  12.614  13.184  13.433
62722W        W34982  42.290  38.552  13.838
62723W        W34983  35.746  29.110  11.631
62724W        W34984  24.330  11.782   0.809
62725W        W34985  14.153  12.202  12.956
62726W        W34986  39.998  18.313   1.942
62727W        W34987  28.406  16.579   0.454
62728W        W34988  26.009  10.200  13.061
62729W        W34989  11.671  35.079   2.601
62730W        W34990  44.501  34.904   0.944
62731W        W34991  39.493   1.297  12.230
62732W        W34992  29.209  31.883   4.607
62733W        W34993  42.977  41.782  11.696
62734W        W34994  10.729  13.101  14.212
62735W        W34995   4.013  43.109  11.150
62736W        W34996  39.357  36.892  14.304
62737W        W34997   5.168   4.637  10.605
62738W        W34998  14.393  23.250   1.405
62739W        W34999  38.550  44.696  14.333
62740W        W35000  42.096  17.712  13.959
62741W        W35001  15.826   2.800   3.085
62742W        W35002  20.057  41.058   0.338
62743W        W35003  32.507  11.889  12.821
62744W        W35004   6.735  26.278   2.701
62745W        W35005  10.467  27.600  11.510
62746W        W35006   1.317  26.620  12.231
62747W        W35007   8.282  29.026   2.859
62748W        W35008  44.136  15.408   1.188
62749W        W35009  35.477   3.303   0.051
62750W        W35010  12.839   6.819   3.149
62751W        W35011  16.254   1.970  14.608
62752W        W35012  13.358  36.753  12.323
62753W        W35013  41.403  15.037  13.572
62754W        W35014  10.863  23.662  11.161
62755W        W35015   1.144  39.318   4.621
62756W        W35016   9.937  10.176  11.010
62757W        W35017  42.447  42.869   3.561
62758W        W35018  42.412  28.371   2.212
62759W        W35019   6.238  37.926  12.578
62760W        W35020  43.526   1.044  11.149
62761W        W35021  19.836   4.635   2.295
62762W        W35022  33.108  32.490   1.455
62763W        W35023  24.428  30.964   3.820
62764W        W35024   6.702   4.619  12.930
62765W        W35025  27.650  27.027  14.457
62766W        W35026  34.012  14.081   3.429
62767W        W35027  39.617  24.788  11.079
62768W        W35028  38.498   3.004  14.880
62769W        W35029   2.022  35.483  14.082
62770W        W35030  13.051  36.298   2.419
62771W        W35031  41.066   4.780  11.111
62772W        W35032  14.107  20.769   0.534
62773W        W35033   1.053  41.699   2.270
62774W        W35034  10.944  17.475  11.200
62775W        W35035   8.859  13.217   2.127
62776W        W35036  10.317  24.893  12.024
62777W        W35037  15.591  26.415  14.830
62778W        W35038  27.094  37.540  12.356
62779W        W35039  12.343  43.402  13.570
62780W        W35040  41.831   2.873   0.994
62781W        W35041  21.296   8.423   4.834
62782W        W35042  26.293  24.600  11.164
62783W        W35043  16.448  31.293   0.285
62784W        W35044  19.757  36.043  14.005
62785W        W35045  24.990  20.278  11.219
62786W        W35046  32.211  30.143   5.054
62787W        W35047  38.800  44.927   2.825
62788W        W35048  29.068  26.085  12.561
62789W        W35049  27.594  36.137  12.158
62790W        W35050  26.633  27.444  11.129
62791W        W35051  27.422  27.620   4.411
62792W        W35052  43.853  44.170   0.354
62793W        W35053  31.158  12.632   3.507
62794W        W35054  16.638  16.204   9.804
62795W        W35055  37.102   9.076   5.534
62796W        W35056  31.973  30.394   4.674
62797W        W35057  38.066  10.122  14.994
62798W        W35058   5.420  37.934   4.231
62799W        W35059   2.924   4.750   1.798
62800W        W35060  43.234  28.407   3.724
62801W        W35061  38.736  31.423   3.367
62802W        W35062  19.248   2.789   0.245
62803W        W35063   6.335  40.314   2.864
62804W        W35064  32.071  25.511  14.275
62805W        W35065  37.817  27.950  14.441
62806W        W35066  35.259  32.643   2.193
62807W        W35067  15.817  43.876   5.023
62808W        W35068  24.754  10.573  11.560
62809W        W35069   3.998  41.314   5.078
62810W        W35070   0.033   1.390  13.000
62811W        W35071  12.588  40.769  10.696
62812W        W35072   1.496  41.291   0.833
62813W        W35073  17.998  13.293   2.915
62814W        W35074  24.947  33.608  12.438
62815W        W35075   6.782  34.867   1.622
62816W        W35076  11.346  31.611   4.430
62817W        W35077  18.145  29.563   3.229
62818W        W35078  21.770  16.177  12.939
62819W        W35079   3.457  42.014  12.008
62820W        W35080  32.340   4.780  10.650
62821W        W35081   3.256  28.914   0.893
62822W        W35082  10.204  18.115  13.967
62823W        W35083  16.370   5.764  12.937
62824W        W35084  17.553  39.574  10.979
62825W        W35085  15.520  11.107  12.544
62826W        W35086  10.167  10.033  13.552
62827W        W35087  15.627  17.337   2.701
62828W        W35088   7.261   7.334  14.129
62829W        W35089  23.890  15.087   0.311
62830W        W35090  32.938  31.138  11.986
62831W        W35091   8.848  14.014   1.661
62832W        W35092  39.211  23.517   0.843
62833W        W35093   0.779   7.169  13.960
62834W        W35094  30.581  44.313  14.864
62835W        W35095  14.665  14.042  14.356
62836W        W35096  18.209  31.453  10.756
62837W        W35097   6.663   9.785  14.440
62838W        W35098  19.790  36.162   2.646
62839W        W35099  29.384  10.093  11.154
62840W        W35100  36.364   7.339   1.427
62841W        W35101  14.416  13.882  11.774
62842W        W35102  18.574  18.065   2.283
62843W        W35103  44.744   4.297   3.609
62844W        W35104  41.445  19.253  14.370
62845W        W35105   8.839  26.762   2.745
62846W        W35106  29.657   7.498   4.410
62847W        W35107  43.793  35.360  13.423
62848W        W35108  29.966   1.063   0.180
62849W        W35109  26.096  15.628   0.757
62850W        W35110  31.060  22.798  13.906
62851W        W35111   0.250   8.667   0.315
62852W        W35112  13.798  16.518  10.560
62853W        W35113  20.918   2.946  12.469
62854W        W35114  25.186   4.769  12.045
62855W        W35115  25.237  15.220  13.413
62856W        W35116  21.913  23.975   1.302
62857W        W35117  41.274  20.125   0.496
62858W        W35118  13.615   3.377  10.694
62859W        W35119  16.440  15.614   5.260
62860W        W35120  41.168  31.909   4.668
62861W        W35121  34.659  22.543  12.074
62862W        W35122  37.911  27.636  13.549
62863W        W35123  11.639   2.250  10.471
62864W        W35124  17.249  25.385   9.566
62865W        W35125  34.760  11.992   0.640
62866W        W35126  16.277   7.815  14.360
62867W        W35127  32.943   7.722  12.512
62868W        W35128   5.569  31.079   1.780
62869W        W35129  29.485  42.654  10.275
62870W        W35130   1.452  23.718   2.948
62871W        W35131  17.990  33.110  11.041
62872W        W35132  43.764  18.690   0.704
62873W        W35133  30.148  28.016   4.678
62874W        W35134  40.388  42.458   3.180
62875W        W35135  23.578  24.165  10.747
62876W        W35136  23.223  25.524   4.260
62877W        W35137   2.164  37.121  11.191
62878W        W35138  19.031  22.776   3.344
62879W        W35139  27.820   2.191  13.251
62880W        W35140  34.904  14.925   1.720
62881W        W35141   3.000   2.985  13.773
62882W        W35142  26.120  30.983   1.667
62883W        W35143  13.198  33.988  12.288
62884W        W35144  36.009  10.449   2.283
62885W        W35145  19.659   3.184  11.060
62886W        W35146  15.574  40.482   3.678
62887W        W35147  39.258  27.601  11.960
62888W        W35148   6.263  17.833  14.452
62889W        W35149  30.970  35.190   4.171
62890W        W35150  16.251   1.234   3.005
62891W        W35151  35.941  23.089  13.417
62892W        W35152  44.103   9.366   3.456
62893W        W35153  39.889   3.284  13.131
62894W        W35154   4.707  36.268  14.385
62895W        W35155  36.364   6.374   1.246
62896W        W35156   1.828  42.377  12.524
62897W        W35157  32.855  41.296  11.706
62898W        W35158  42.700  15.620   1.209
62899W        W35159   2.906  40.312  14.725
62900W        W35160  26.638  41.564  11.097
62901W        W35161   5.210   0.943  14.404
62902W        W35162  42.465  36.872   4.365
62903W        W35163  17.326   9.166  12.533
62904W        W35164  25.009  36.866  11.626
62905W        W35165  40.439  34.418  11.099
62906W        W35166  14.290  39.593   3.375
62907W        W35167  15.506  44.916  12.079
62908W        W35168  38.927  30.395   1.923
62909W        W35169  41.493   3.825  13.161
62910W        W35170  20.575  42.540  14.501
62911W        W35171  21.755  20.787  10.167
62912W        W35172   4.757  19.639   1.158
62913W        W35173   6.761   1.347   2.166
62914W        W35174   6.170   8.817  14.406
62915W        W35175  25.687  40.987   0.869
62916W        W35176  37.000  30.549   0.425
62917W        W35177  15.542  16.324  10.899
62918W        W35178  39.813  27.496  10.526
62919W        W35179  20.072  35.435  14.900
62920W        W35180  27.218  22.248  11.116
62921W        W35181  38.976  22.577  14.356
62922W        W35182  29.632   4.284  13.892
62923W        W35183  39.116   8.052  12.951
62924W        W35184  41.837  25.106   1.316
62925W        W35185  22.640   6.189   4.125
62926W        W35186  11.840  41.382  13.443
62927W        W35187  28.497  14.328  11.339
62928W        W35188  44.031  27.309   3.120
62929W        W35189   7.165  10.640   3.682
62930W        W35190   0.234  36.280   1.887
62931W        W35191  11.161  20.834   0.327
62932W        W35192  44.676  42.459  11.219
62933W        W35193  44.308  24.478  12.838
62934W        W35194  28.258  14.201  10.083
62935W        W35195  38.251  28.705  12.879
62936W        W35196  23.712  11.209  12.108
62937W        W35197  15.438  29.648  13.577
62938W        W35198  37.097  31.634  10.407
62939W        W35199  13.899  40.370  13.424
62940W        W35200  38.902   0.036  11.888
62941W        W35201  27.230  32.298   3.702
62942W        W35202  26.671  34.204   3.857
62943W        W35203  15.185  21.635  12.874
62944W        W35204  18.742   3.110   1.362
62945W        W35205  30.643  10.742  10.670
62946W        W35206  10.471   5.165  14.420
62947W        W35207  42.634  31.545   1.337
62948W        W35208   7.883  41.019  14.373
62949W        W35209  30.844  24.598  12.055
62950W        W35210   8.828  23.597  12.853
62951W        W35211   9.173  31.384   1.620
62952W        W35212   9.801  14.094  11.830
62953W        W35213  30.357  24.437   3.690
62954W        W35214  14.371  27.092  14.415
62955W        W35215  44.317  40.270   1.394
62956W        W35216  41.850  38.662  13.591
62957W        W35217  30.001  22.230   0.939
62958W        W35218   3.292  14.463   2.947
62959W        W35219   8.440   0.068  13.139
62960W        W35220  12.055  23.553   2.217
62961W        W35221  23.166  30.874   3.316
62962W        W35222  16.255  28.122  11.513
62963W        W35223  41.375  28.508   0.724
62964W        W35224   3.900  15.220  11.877
62965W        W35225  32.884  43.340  11.416
62966W        W35226  18.016  41.272   2.345
62967W        W35227  29.799  16.561  12.476
62968W        W35228   0.360  28.465  11.356
62969W        W35229   4.263  23.928  10.959
62970W        W35230  12.266  36.409   4.323
62971W        W35231  43.359  20.836  14.794
62972W        W35232  35.761  24.654  11.493
62973W        W35233  36.673  26.040  12.266
62974W        W35234  37.739   6.181  14.277
62975W        W35235  17.129  36.438  12.343
62976W        W35236  25.168  24.737  13.948
62977W        W35237   1.794  11.775   0.257
62978W        W35238  12.667  20.589   2.057
62979W        W35239  29.378  14.215  11.286
62980W        W35240  37.297  29.105   0.262
62981W        W35241  35.380   3.947  13.872
62982W        W35242  11.253   4.135  10.748
62983W        W35243  12.105   0.551   4.704
62984W        W35244   9.273  41.974  14.836
62985W        W35245  29.511  23.588   1.393
62986W        W35246   0.242  19.140  12.957
62987W        W35247  15.266  40.749   4.097
62988W        W35248  22.811   6.190   1.862
62989W        W35249   0.046   2.845   3.328
62990W        W35250  29.431  24.715  11.004
62991W        W35251  12.248  17.042   0.028
62992W        W35252  43.283  17.452   1.749
62993W        W35253  34.090   4.951   2.658
62994W        W35254  33.656  35.047  13.594
62995W        W35255  18.093  21.812  13.100
62996W        W35256  43.797   3.232  10.940
62997W        W35257  40.887  16.731   1.755
62998W        W35258  41.262  10.753  10.948
62999W        W35259  26.233  20.440   2.219
63000W        W35260  32.494  25.166  14.491
63001W        W35261  18.127  32.619  13.025
63002W        W35262  39.062   9.703   1.378
63003W        W35263  17.577  32.172  10.975
63004W        W35264  25.140  42.990  10.544
63005W        W35265  24.012  12.600   4.537
63006W        W35266  34.883  26.208   1.669
63007W        W35267  44.709  15.832  10.165
63008W        W35268   2.396   9.145   0.951
63009W        W35269   4.462   6.495   3.351
63010W        W35270   9.243  33.480   1.289
63011W        W35271   2.691  27.069  14.870
63012W        W35272  14.173  25.371  13.730
63013W        W35273  33.914  29.407   0.595
63014W        W35274   6.286   9.734   1.451
63015W        W35275  17.243   2.412  10.062
63016W        W35276  40.954  16.883   0.856
63017W        W35277  17.496   3.056  11.018
63018W        W35278  23.834  18.291  13.899
63019W        W35279  31.994   6.872  12.103
63020W        W35280  12.769   4.435   2.853
63021W        W35281   5.312   5.697  14.765
63022W        W35282  26.851  20.504   0.107
63023W        W35283  21.139  41.079  12.116
63024W        W35284  29.534  27.211   0.238
63025W        W35285   5.436   3.946   1.414
63026W        W35286  17.267  20.775  11.464
63027W        W35287  25.617  11.702   5.091
63028W        W35288   2.645   4.815   1.341
63029W        W35289   7.963  27.750   5.010
63030W        W35290  27.566   1.886   2.829
63031W        W35291   5.744  35.040   3.209
63032W        W35292   6.484  13.846  12.792
63033W        W35293  29.270   8.277   0.018
63034W        W35294  30.853  29.150   1.863
63035W        W35295  36.629  40.391  14.291
63036W        W35296  34.118   4.702   4.605
63037W        W35297  10.709  25.164   4.067
63038W        W35298  22.203  33.780   3.225
63039W        W35299   7.281  19.233   2.996
63040W        W35300   8.310  31.574  14.544
63041W        W35301   1.998   2.398  12.993
63042W        W35302   1.371  35.616  12.426
63043W        W35303  35.854   7.253   4.566
63044W        W35304  14.419  34.481  12.882
63045W        W35305  26.407  38.802  12.278
63046W        W35306   0.654  28.770   3.316
63047W        W35307  40.356  32.569  12.309
63048W        W35308  11.774   8.835   2.381
63049W        W35309  41.275  28.488   3.646
63050W        W35310  30.619   6.354  14.713
63051W        W35311  31.351  39.696   3.377
63052W        W35312  38.610  32.077  11.562
63053W        W35313  17.315  21.002   9.989
63054W        W35314  33.846   3.615   2.404
63055W        W35315   0.358  16.067   3.354
63056W        W35316  11.245   6.857   2.709
63057W        W35317  34.207  43.863   1.337
63058W        W35318  13.747  11.247   3.202
63059W        W35319  32.635  14.363  11.077
63060W        W35320  20.234  16.868  11.664
63061W        W35321  12.485  42.545  14.420
63062W        W35322   1.728   2.517  11.476
63063W        W35323   0.533  34.540   0.378
63064W        W35324  10.255  36.051  13.339
63065W        W35325  20.668  23.762   3.303
63066W        W35326   5.344  25.111   4.567
63067W        W35327   4.220  35.344  12.345
63068W        W35328   6.443  41.734   0.523
63069W        W35329  15.665  15.405  12.529
63070W        W35330  15.720  13.634  12.878
63071W        W35331  26.017  31.386   0.702
63072W        W35332  17.113  16.257  12.055
63073W        W35333  44.914  16.052   2.450
63074W        W35334  42.562  36.369  10.638
63075W        W35335  37.909  13.361   0.066
63076W        W35336  15.758  37.355   4.139
63077W        W35337  43.263  20.324  14.788
63078W        W35338  43.738  21.768  10.702
63079W        W35339  35.948  17.756  11.513
63080W        W35340  10.357   5.702   1.926
63081W        W35341  18.784   1.585  11.224
63082W        W35342  25.272   8.332   1.964
63083W        W35343   9.356  26.238   4.395
63084W        W35344  42.540   7.424   1.320
63085W        W35345  25.027  19.177  12.216
63086W        W35346  14.685  34.827  10.643
63087W        W35347  18.731  11.805  11.737
63088W        W35348   0.391  35.249  11.918
63089W        W35349  22.497   4.847   2.653
63090W        W35350  18.799   3.465   1.755
63091W        W35351  42.947  31.392   0.645
63092W        W35352  20.710   4.224  12.918
63093W        W35353  29.830  21.680  10.503
63094W        W35354  20.974   2.124   0.345
63095W        W35355   1.765  41.862  12.670
63096W        W35356  38.506  21.531   1.478
63097W        W35357  12.738  18.245  12.451
63098W        W35358   0.779  34.374  13.961
63099W        W35359  11.944  17.459  14.300
63100W        W35360  25.174  38.428  10.448
63101W        W35361   2.048  28.403  13.487
63102W        W35362  44.325  12.140  11.660
63103W        W35363   9.934  35.008  11.103
63104W        W35364  44.790  34.466   3.679
63105W        W35365  27.266   0.408  10.763
63106W        W35366  42.831  31.079  14.232
63107W        W35367  29.064   8.813  13.096
63108W        W35368  19.797  41.262  13.122
63109W        W35369   7.870  26.533  11.652
63110W        W35370  28.505  16.544   3.443
63111W        W35371  21.083  39.456   2.739
63112W        W35372  18.309  42.032  14.833
63113W        W35373  33.930  38.804   1.756
63114W        W35374  20.349  32.618  12.732
63115W        W35375  39.996  21.091  13.550
63116W        W35376  22.536  23.514  12.526
63117W        W35377   9.261  11.219   0.212
63118W        W35378  11.367  42.775   2.017
63119W        W35379  21.755  35.983   0.824
63120W        W35380  31.171   3.366  11.997
63121W        W35381   3.735  39.937  12.100
63122W        W35382  28.568  17.849  11.001
63123W        W35383  13.642  25.945   1.188
63124W        W35384   8.856  38.031  11.628
63125W        W35385  10.683   5.388   1.214
63126W        W35386  25.684  31.343   3.398
63127W        W35387   9.627  15.879  13.568
63128W        W35388  27.025   1.729   3.284
63129W        W35389  11.438  11.794  11.129
63130W        W35390   9.248  22.577  14.269
63131W        W35391  28.138   3.223   4.554
63132W        W35392  40.215  18.727  11.925
63133W        W35393  19.780  11.406   0.476
63134W        W35394  10.025  30.903  12.088
63135W        W35395  32.961  30.940  14.521
63136W        W35396  26.432  39.878  10.286
63137W        W35397   5.705  42.468  14.005
63138W        W35398  32.519  40.063   4.588
63139W        W35399  21.044   8.920  11.619
63140W        W35400  20.270   1.222  10.644
63141W        W35401  15.933  23.319   2.083
63142W        W35402  32.450  38.130  14.858
63143W        W35403   7.281   2.937  11.035
63144W        W35404   7.992  29.990  14.357
63145W        W35405  28.722  25.621   4.091
63146W        W35406  16.187  35.894   4.499
63147W        W35407  40.782   0.305  11.996
63148W        W35408  20.007  37.360  12.869
63149W        W35409  38.543  25.002   3.540
63150W        W35410  27.530  33.907  12.369
63151W        W35411   5.703  15.219   3.585
63152W        W35412  12.671  13.869  11.554
63153W        W35413  39.087  33.837  13.700
63154W        W35414  20.668  16.767   4.274
63155W        W35415   1.241  24.064  12.561
63156W        W35416  17.642  26.549  14.948
63157W        W35417  39.987  11.648  11.625
63158W        W35418   5.336  41.285   3.693
63159W        W35419  32.980  25.591  12.950
63160W        W35420  34.480  33.406  13.556
63161W        W35421   9.490   1.810   2.600
63162W        W35422   6.260   7.839   4.230
63163W        W35423  24.660  31.490   0.993
63164W        W35424  38.170  16.603  13.810
63165W        W35425  32.078  15.156  11.828
63166W        W35426   8.307  35.642  11.142
63167W        W35427  27.514  40.982   4.582
63168W        W35428  44.683  26.290  14.546
63169W        W35429  39.885  37.048   0.270
63170W        W35430  14.812  30.273   5.487
63171W        W35431  29.291  27.393  11.000
63172W        W35432  39.721  24.256  11.059
63173W        W35433   0.913  37.459  12.172
63174W        W35434   2.394   9.396   0.506
63175W        W35435  24.207  39.425  14.720
63176W        W35436  19.188   6.196   4.680
63177W        W35437   4.874  15.733  10.972
63178W        W35438  10.238  33.547  11.413
63179W        W35439   4.529  11.335  14.529
63180W        W35440  42.534  15.722  13.597
63181W        W35441  38.338  19.636   2.750
63182W        W35442  33.606  18.206  10.483
63183W        W35443  36.629  12.281   4.223
63184W        W35444  38.980  37.824   2.066
63185W        W35445  39.776   7.334  10.241
63186W        W35446   1.552  17.715   2.727
63187W        W35447  23.034  17.798   0.875
63188W        W35448  40.241  28.685  14.575
63189W        W35449  40.575  21.532   4.146
63190W        W35450  17.042  28.096  14.069
63191W        W35451  41.635   7.336  11.908
63192W        W35452  11.878  32.950   3.123
63193W        W35453  42.793  11.263   4.108
63194W        W35454  43.237  18.120  13.323
63195W        W35455  33.083  17.686   0.033
63196W        W35456  17.631  11.777   1.327
63197W        W35457  12.382  12.657  11.393
63198W        W35458  40.962  14.702   3.983
63199W        W35459  28.960  16.110  12.965
63200W        W35460  15.148  25.662   4.667
63201W        W35461   9.094  12.042  14.981
63202W        W35462  35.977   8.633   4.379
63203W        W35463  33.436  22.963   1.319
63204W        W35464  15.267   7.606  14.549
63205W        W35465   9.263  41.585  11.870
63206W        W35466  27.561   0.329   1.003
63207W        W35467  24.665  44.322   2.805
63208W        W35468  41.047  15.920  10.303
63209W        W35469  24.683  41.035   3.707
63210W        W35470  24.250   9.837   0.349
63211W        W35471   4.405   3.300  13.924
63212W        W35472  19.764  15.333   4.036
63213W        W35473  15.611  23.688  12.535
63214W        W35474   4.428  13.271   3.348
63215W        W35475  40.015  29.869   0.938
63216W        W35476  35.209  20.736  10.169
63217W        W35477  27.469  35.065   3.021
63218W        W35478   3.434  14.119  13.999
63219W        W35479  15.616   9.118   4.849
63220W        W35480   3.227  44.483   4.531
63221W        W35481  15.001   0.873   3.260
63222W        W35482  37.552  16.382   3.692
63223W        W35483  41.123  33.989  13.501
63224W        W35484  16.142  40.069   1.102
63225W        W35485  17.595  41.726  12.087
63226W        W35486  19.369   1.050   3.324
63227W        W35487  38.874   0.882  11.752
63228W        W35488  16.169  43.729   0.374
63229W        W35489  24.578  14.720  12.597
63230W        W35490  23.781  34.481   3.733
63231W        W35491  18.511  18.566   4.123
63232W        W35492  14.714  12.590  11.716
63233W        W35493  36.295   7.876  11.149
63234W        W35494  31.106  18.035  11.603
63235W        W35495   4.210  24.057  13.000
63236W        W35496  42.395  39.351   3.750
63237W        W35497  21.553  32.868   1.225
63238W        W35498   3.684  41.547  13.846
63239W        W35499   1.328   1.959   4.714
63240W        W35500   2.798  17.623   4.133
63241W        W35501   6.381  16.577  11.148
63242W        W35502   1.773  17.709  12.940
63243W        W35503  31.721  18.918   1.720
63244W        W35504  10.313   4.133  14.872
63245W        W35505   5.269  14.155   3.889
63246W        W35506   7.215  13.874   2.938
63247W        W35507  14.558  10.585   4.953
63248W        W35508  43.454   6.221   3.093
63249W        W35509  14.692  24.617  14.129
63250W        W35510   3.070  38.493   1.864
63251W        W35511  10.765  11.244  14.939
63252W        W35512  42.405  15.708   3.395
63253W        W35513  16.363  32.249  13.584
63254W        W35514   6.194  35.017  13.802
63255W        W35515   9.190  36.919   0.163
63256W        W35516  18.349  23.585  14.831
63257W        W35517  24.975  36.633   4.577
63258W        W35518   7.667  35.139   3.070
63259W        W35519   6.918   3.334   1.377
63260W        W35520  21.635  28.258   9.713
63261W        W35521   9.668  25.134   3.830
63262W        W35522  19.661  32.475  10.642
63263W        W35523  38.887  21.742  14.804
63264W        W35524   1.697   0.511   4.212
63265W        W35525  43.215  10.540  13.350
63266W        W35526   8.204  30.965  13.582
63267W        W35527   9.875  26.909  14.529
63268W        W35528  38.328  25.464   2.857
63269W        W35529   1.037  36.515  11.542
63270W        W35530  44.508  20.232   3.087
63271W        W35531  12.680  35.187   1.751
63272W        W35532  33.599  19.004  13.638
63273W        W35533  31.411  17.724   4.545
63274W        W35534  10.152  26.578  14.868
63275W        W35535  38.012   0.911   3.404
63276W        W35536  26.887  37.978   0.394
63277W        W35537  21.158  11.378  12.907
63278W        W35538  33.401  15.823   3.181
63279W        W35539  41.912  38.702   3.263
63280W        W35540  14.769  38.101   1.528
63281W        W35541  39.135  35.024  11.745
63282W        W35542  42.028  43.132   1.276
63283W        W35543  40.046  22.480   9.869
63284W        W35544  35.499  43.955   0.772
63285W        W35545  30.909  19.576  12.596
63286W        W35546  34.382  31.932  12.472
63287W        W35547  21.276   1.294   1.107
63288W        W35548  13.632  15.798   0.469
63289W        W35549  11.399  26.271  11.476
63290W        W35550  42.870  43.224  12.992
63291W        W35551  36.275  27.989   0.992
63292W        W35552  21.304  10.548   4.157
63293W        W35553  41.272   8.845  12.857
63294W        W35554  24.509   9.363   2.244
63295W        W35555   5.764  34.942   1.005
63296W        W35556  15.172  30.041  11.833
63297W        W35557   3.187  17.255   0.466
63298W        W35558  18.262  37.116   2.848
63299W        W35559  11.219  26.408   1.779
63300W        W35560  17.550  26.098   4.831
63301W        W35561  21.518  31.006   0.527
63302W        W35562  17.813   8.380  11.573
63303W        W35563  37.975  29.446   9.811
63304W        W35564  10.662  13.802   3.743
63305W        W35565   5.398  35.005   3.807
63306W        W35566   7.922  23.587  10.825
63307W        W35567  27.014   0.764  12.622
63308W        W35568  31.635   9.036  14.286
63309W        W35569  23.518  33.644   4.054
63310W        W35570  30.830  32.631   5.758
63311W        W35571   2.596  36.381  10.713
63312W        W35572  24.198  32.177  10.084
63313W        W35573   7.758  22.597  13.336
63314W        W35574  44.898   4.170  11.997
63315W        W35575   8.804  28.148   4.475
63316W        W35576  28.555  26.564   1.166
63317W        W35577  11.126  21.585   3.638
63318W        W35578   8.108   3.734  13.509
63319W        W35579  24.310  15.716  10.696
63320W        W35580   4.700   7.359   2.852
63321W        W35581  42.772  22.516   0.418
63322W        W35582   2.787   0.744   4.646
63323W        W35583   7.789  40.278  13.113
63324W        W35584  17.030  36.916  12.552
63325W        W35585  43.283  32.685   3.119
63326W        W35586  20.974  10.216  10.565
63327W        W35587  42.583   4.843  11.126
63328W        W35588  42.362  15.003  11.190
63329W        W35589  10.608  14.507  11.248
63330W        W35590  38.045  40.804   1.270
63331W        W35591   2.584  30.065  13.559
63332W        W35592  21.748   5.776  12.083
63333W        W35593  44.583   0.947   0.220
63334W        W35594  23.689  21.983  12.418
63335W        W35595  16.031  31.655  10.985
63336W        W35596  34.078  44.272  11.566
63337W        W35597  29.404  37.957  11.962
63338W        W35598  11.959  32.076  11.040
63339W        W35599  10.917   4.944  10.132
63340W        W35600  34.408  18.358   4.633
63341W        W35601  37.867   3.947  13.941
63342W        W35602   2.307  29.968  11.115
63343W        W35603   9.229  25.929   3.071
63344W        W35604  25.175  31.347   3.174
63345W        W35605  20.206  38.494   1.298
63346W        W35606   6.776  22.216   0.263
63347W        W35607  26.091  17.749  13.098
63348W        W35608   8.260  28.176   2.785
63349W        W35609  36.906  18.886   0.727
63350W        W35610  41.144  44.907  13.464
63351W        W35611  41.950  25.900  13.527
63352W        W35612  28.944   9.242  12.249
63353W        W35613  44.265  16.651  11.193
63354W        W35614   2.563  34.822  12.391
63355W        W35615  23.512  16.295   3.691
63356W        W35616  29.869  36.031  13.439
63357W        W35617  11.590  24.095  12.029
63358W        W35618  24.660  34.170   2.819
63359W        W35619   0.477  44.367  10.191
63360W        W35620  12.334   6.901   4.556
63361W        W35621   8.835  27.524   3.703
63362W        W35622  27.076   6.171  11.555
63363W        W35623  22.357   3.187  12.947
63364W        W35624  13.820  41.575  12.424
63365W        W35625  36.805   7.154   1.838
63366W        W35626  42.401  27.322   0.987
63367W        W35627   8.109  16.235  12.482
63368W        W35628   2.251  15.738  10.943
63369W        W35629  22.000  43.554  11.202
63370W        W35630  38.910  22.514   1.234
63371W        W35631  42.057  25.158  10.370
63372W        W35632  24.685  27.807   5.879
63373W        W35633   3.340   9.383  11.585
63374W        W35634  27.086  18.039  13.976
63375W        W35635  41.567   9.607   1.835
63376W        W35636  42.006  12.085  13.574
63377W        W35637  37.394  41.360   0.371
63378W        W35638   6.942   0.285   2.754
63379W        W35639  33.427   0.924   2.896
63380W        W35640   7.858  44.073   0.356
63381W        W35641  25.027   9.814   4.423
63382W        W35642  19.573  26.131  13.897
63383W        W35643  13.754  39.860   3.384
63384W        W35644   5.340  33.843  14.524
63385W        W35645   8.891  29.066  14.324
63386W        W35646  17.361  44.303  12.926
63387W        W35647  21.521   5.423  13.789
63388W        W35648  23.554  16.407   1.629
63389W        W35649  15.798  13.316   1.315
63390W        W35650   0.846  14.005  10.649
63391W        W35651  18.243  24.806   1.301
63392W        W35652  19.506  13.656   2.703
63393W        W35653  20.580  26.829   4.055
63394W        W35654   8.341   4.075  13.844
63395W        W35655  25.399  30.962   0.934
63396W        W35656  44.487   7.717   2.726
63397W        W35657  14.281  27.389  10.644
63398W        W35658  43.019   7.263   1.303
63399W        W35659   1.758   4.592   3.588
63400W        W35660  27.713  36.058   1.754
63401W        W35661  15.196  37.986  11.864
63402W        W35662  34.654  43.448   2.777
63403W        W35663  19.254  29.028  13.632
63404W        W35664  21.497  18.628   3.104
63405W        W35665   7.288  29.887   3.245
63406W        W35666  32.210  42.139  10.783
63407W        W35667   4.425  18.850   1.628
63408W        W35668  28.278  35.556  14.375
63409W        W35669  23.652  41.402  13.323
63410W        W35670  42.337  43.444  10.869
63411W        W35671  15.249   9.716   4.262
63412W        W35672  43.069  38.911   3.001
63413W        W35673  26.215   9.713  13.540
63414W        W35674   6.680  33.632   2.938
63415W        W35675  27.449  36.159  11.681
63416W        W35676  11.867  29.910  13.865
63417W        W35677   0.461  31.425  14.087
63418W        W35678  33.566   2.235  12.920
63419W        W35679   4.190   4.943  10.232
63420W        W35680  23.069  30.383   4.248
63421W        W35681  27.991  19.026  12.960
63422W        W35682   4.915  40.890  14.293
63423W        W35683   7.784  40.785   2.251
63424W        W35684  37.587  43.265   5.056
63425W        W35685  43.184  14.832  12.733
63426W        W35686   2.798   8.197  10.850
63427W        W35687  26.890  13.472  11.569
63428W        W35688  21.775  13.411   1.959
63429W        W35689  24.440  20.522   3.092
63430W        W35690  15.181  37.564  11.565
63431W        W35691   6.443  12.856  12.907
63432W        W35692   1.247  10.946  11.953
63433W        W35693  19.154  18.493  12.615
63434W        W35694  44.147  36.546   0.505
63435W        W35695  19.208  33.926   1.614
63436W        W35696  34.403  20.232   2.653
63437W        W35697   4.979  17.086   4.894
63438W        W35698  11.213  38.106  14.336
63439W        W35699  16.938  17.624   1.715
63440W        W35700  10.751  18.255   4.612
63441W        W35701  21.568  39.057  12.970
63442W        W35702  34.623   2.443  13.836
63443W        W35703   1.974  12.659  13.413
63444W        W35704  42.003  40.370  12.579
63445W        W35705  11.606  14.650  13.394
63446W        W35706  31.530   9.685   2.712
63447W        W35707  31.427   6.996  12.184
63448W        W35708  18.451  37.087  10.483
63449W        W35709   1.296  11.734  14.986
63450W        W35710  34.480  22.516  11.143
63451W        W35711   3.917  22.723  14.155
63452W        W35712  32.436  22.138   0.889
63453W        W35713   6.162   4.941   2.400
63454W        W35714   2.444   0.900   3.669
63455W        W35715   6.815  40.544   2.278
63456W        W35716  26.391   6.833   2.380
63457W        W35717   3.161  35.192  14.929
63458W        W35718  30.107   7.697  11.111
63459W        W35719  34.164  12.251  11.640
63460W        W35720  29.284  19.057   4.491
63461W        W35721  33.074  17.117   4.131
63462W        W35722  43.414  13.633  10.559
63463W        W35723  28.987   3.807   4.418
63464W        W35724  22.625  32.691  10.769
63465W        W35725  38.056   4.420  14.063
63466W        W35726  35.270  42.211  13.795
63467W        W35727  17.439   0.807   2.299
63468W        W35728  25.194  39.907  13.018
63469W        W35729   9.999  10.801   0.726
63470W        W35730  41.419  10.698   1.722
63471W        W35731   0.112  15.739  12.654
63472W        W35732  17.769  26.970  13.952
63473W        W35733   5.320  12.544   1.550
63474W        W35734  34.531  44.979  14.789
63475W        W35735  23.283  42.859  10.342
63476W        W35736  32.014  26.640   2.804
63477W        W35737  24.968  43.862   1.480
63478W        W35738  22.162  16.999  12.912
63479W        W35739   5.932   6.629  11.948
63480W        W35740   4.527  33.479  12.494
63481W        W35741  20.215  35.490  13.109
63482W        W35742  25.450  25.014   3.213
63483W        W35743   0.926   7.528   3.165
63484W        W35744  18.083  14.712  13.554
63485W        W35745  38.090  31.692  13.859
63486W        W35746  28.864   9.285  14.328
63487W        W35747  29.398  33.187   1.766
63488W        W35748  28.117  13.294   0.712
63489W        W35749  41.918  39.258  12.469
63490W        W35750  23.477  10.780   2.317
63491W        W35751  39.266  26.706  14.823
63492W        W35752  18.739  35.397  12.061
63493W        W35753  44.099  42.718  10.303
63494W        W35754   0.360   7.136   2.716
63495W        W35755  36.467  44.251  12.956
63496W        W35756  23.471  13.627  13.047
63497W        W35757  38.430  34.332   0.325
63498W        W35758  35.169  41.059   2.326
63499W        W35759   3.792   2.144   1.391
63500W        W35760  25.023  12.925   4.734
63501W        W35761   0.263   0.491  12.075
63502W        W35762  24.979  42.060   3.526
63503W        W35763  13.606   4.360  12.900
63504W        W35764  26.373  23.393   0.066
63505W        W35765  25.174  38.431   3.447
63506W        W35766  28.380  29.477   1.780
63507W        W35767  16.219  13.610   1.274
63508W        W35768   1.390   9.780   3.839
63509W        W35769  30.230  11.825  12.399
63510W        W35770   4.716  30.698  11.383
63511W        W35771  18.701  42.266   1.428
63512W        W35772   0.200  29.885   0.285
63513W        W35773  32.385  31.105  11.099
63514W        W35774  17.342  16.782  11.182
63515W        W35775  21.826  21.088   9.719
63516W        W35776   0.249  31.939   0.812
63517W        W35777  17.531  37.392   3.612
63518W        W35778  37.817  30.514  11.141
63519W        W35779  36.058  31.177   2.446
63520W        W35780  24.834  44.142  11.175
63521W        W35781   1.679  42.761  13.889
63522W        W35782   4.349  33.882  14.878
63523W        W35783  14.984   9.594   0.883
63524W        W35784  23.033  35.119   0.526
63525W        W35785  14.138  30.986  14.277
63526W        W35786   5.850  14.705   4.485
63527W        W35787   3.251  33.460  12.066
63528W        W35788  20.159  15.554  12.062
63529W        W35789  43.250   2.896   4.712
63530W        W35790  43.841  16.546   2.440
63531W        W35791  22.635  36.340   2.120
63532W        W35792   9.872   6.982  14.956
63533W        W35793  25.948  24.103   4.083
63534W        W35794  27.082  21.509  10.620
63535W        W35795  22.444   0.748   4.602
63536W        W35796  41.625  13.795   2.359
63537W        W35797  15.524  35.914  10.726
63538W        W35798  13.885  37.365   3.541
63539W        W35799   7.288   4.759  12.971
63540W        W35800  44.432  14.761   0.234
63541W        W35801  15.826  19.203  12.923
63542W        W35802   4.588  38.110   0.322
63543W        W35803   4.326   1.327  12.562
63544W        W35804  31.136  16.144  13.867
63545W        W35805  33.021  15.773  13.938
63546W        W35806  12.007  41.033   4.548
63547W        W35807  43.242  43.303  14.464
63548W        W35808  24.279  37.972  14.485
63549W        W35809   3.129  14.745   3.351
63550W        W35810  34.185   8.649  12.836
63551W        W35811  40.406   5.684  13.917
63552W        W35812  36.408  25.513  10.783
63553W        W35813  39.347   5.827  11.603
63554W        W35814  26.208   8.846   2.371
63555W        W35815   0.180   2.509   4.345
63556W        W35816   1.608  28.640   4.140
63557W        W35817  41.499   8.782  14.331
63558W        W35818  33.642  22.575  12.094
63559W        W35819  39.276  30.157   4.963
63560W        W35820   8.838  34.664  13.143
63561W        W35821  27.597  29.405  14.878
63562W        W35822  20.250   2.876  13.041
63563W        W35823   5.633  10.216  13.856
63564W        W35824  27.500  11.197   2.733
63565W        W35825  44.875  27.028  11.571
63566W        W35826   3.487  23.075   3.963
63567W        W35827  29.581  15.092   2.365
63568W        W35828  22.261  41.782  11.532
63569W        W35829  15.297   4.441  10.643
63570W        W35830  12.884  19.780  14.968
63571W        W35831  15.386  16.423  13.118
63572W        W35832  13.361  14.776  11.184
63573W        W35833   7.294  27.261   5.036
63574W        W35834   1.859  24.646   0.222
63575W        W35835  30.934  19.007   2.174
63576W        W35836  28.403  32.687   3.169
63577W        W35837   4.363   4.271   1.263
63578W        W35838   5.308  35.126  13.576
63579W        W35839  28.982   9.202  10.765
63580W        W35840  12.866  19.084   4.161
63581W        W35841  37.948  14.413   2.776
63582W        W35842   4.505  43.293  12.847
63583W        W35843  16.993  19.254   4.153
63584W        W35844  12.829  28.276  12.872
63585W        W35845  30.960  33.518  13.348
63586W        W35846  40.298  11.849  10.374
63587W        W35847  16.847  11.687   2.707
63588W        W35848  36.514   5.259   4.919
63589W        W35849   6.600  16.500  11.695
63590W        W35850  39.324  32.909  11.165
63591W        W35851  19.767  12.269  13.898
63592W        W35852  39.980   8.328   2.775
63593W        W35853  14.076  19.822   2.683
63594W        W35854  22.063   7.663  10.996
63595W        W35855  11.783   8.272   0.303
63596W        W35856  21.968  32.883   3.127
63597W        W35857  37.377  29.508  14.906
63598W        W35858   4.758  38.789  14.712
63599W        W35859  38.008  17.155   3.127
63600W        W35860   2.893  11.242   4.551
63601W        W35861   2.668  43.880  10.549
63602W        W35862   6.124  29.750  13.557
63603W        W35863  15.605   6.825  10.609
63604W        W35864  30.550   9.965  11.240
63605W        W35865  36.894   4.200   2.426
63606W        W35866  28.875  38.899  12.902
63607W        W35867  16.733  40.320   0.499
63608W        W35868  31.385  37.537  14.907
63609W        W35869  17.688   7.971   4.631
63610W        W35870  42.792   9.954  11.042
63611W        W35871   5.967   6.705   4.136
63612W        W35872  20.242  40.626  13.405
63613W        W35873  18.914  25.226  12.462
63614W        W35874  38.908  27.530   1.180
63615W        W35875  27.919  10.420  10.940
63616W        W35876  35.514  31.800  12.108
63617W        W35877  29.630  34.382   3.268
63618W        W35878   1.381   4.768   4.410
63619W        W35879  24.387  41.458   5.450
63620W        W35880  14.755  19.963  12.095
63621W        W35881  29.941   6.619  13.331
63622W        W35882  33.001   6.669  10.493
63623W        W35883  44.971  37.862   4.586
63624W        W35884  18.100  37.622  13.922
63625W        W35885  38.951  12.263   4.057
63626W        W35886  32.392   9.225  14.979
63627W        W35887  18.382   7.331   3.698
63628W        W35888  18.131   4.798  13.198
63629W        W35889  12.584  30.440   0.748
63630W        W35890  26.484  12.645   1.266
63631W        W35891   1.939  10.609  13.406
63632W        W35892  28.209  36.571  10.653
63633W        W35893  39.703  13.335  12.948
63634W        W35894  36.611  34.133   0.485
63635W        W35895  29.336  21.266  10.667
63636W        W35896  23.807   9.112   0.319
63637W        W35897   2.008   0.024   1.049
63638W        W35898  26.101  36.120   1.467
63639W        W35899   7.137   8.717   1.788
63640W        W35900  38.122  26.270  13.837
63641W        W35901  27.454  30.430   1.435
63642W        W35902  40.226  38.659  14.766
63643W        W35903  21.517  21.822   2.593
63644W        W35904   8.239  33.303  14.778
63645W        W35905  41.992   2.319   0.253
63646W        W35906  22.506  31.108  14.539
63647W        W35907   8.156  24.484  10.699
63648W        W35908  20.045   0.461   2.604
63649W        W35909  37.592  23.582   4.147
63650W        W35910  26.713  11.056  13.810
63651W        W35911   2.778   2.325   3.719
63652W        W35912  18.692  26.709   3.732
63653W        W35913  10.811   4.337   0.028
63654W        W35914  22.883  38.917   5.130
63655W        W35915  19.722  26.701  11.656
63656W        W35916   9.214  25.608   2.680
63657W        W35917  25.083  36.595   3.611
63658W        W35918  16.849  16.185  12.897
63659W        W35919   8.941  37.891   4.963
63660W        W35920  32.618   2.413   1.024
63661W        W35921   8.573  13.704   2.874
63662W        W35922  17.185  22.762   2.071
63663W        W35923   7.251  24.544  11.627
63664W        W35924   7.767   6.043   2.639
63665W        W35925   2.712  10.879  13.923
63666W        W35926  31.587  24.456   3.199
63667W        W35927  38.651  38.470   0.439
63668W        W35928  26.180  35.879   3.649
63669W        W35929  29.150  29.680  10.164
63670W        W35930   4.412  33.370  10.991
63671W        W35931  16.094  13.917   4.690
63672W        W35932  36.305  19.687   4.632
63673W        W35933   5.275  34.000   1.957
63674W        W35934  14.364  25.494  11.981
63675W        W35935  23.913  44.993   3.927
63676W        W35936  18.797   7.679   5.326
63677W        W35937   2.245  31.418  10.588
63678W        W35938  15.599   4.784   1.928
63679W        W35939  27.000  33.831  14.000
63680W        W35940  14.109  18.578  13.946
63681W        W35941  14.253  43.440   4.049
63682W        W35942   6.533  19.686   5.119
63683W        W35943  35.976  32.920  13.365
63684W        W35944  17.029  31.890   3.646
63685W        W35945  34.999   9.987  12.935
63686W        W35946  10.841  13.759   0.987
63687W        W35947  19.732   7.673   3.628
63688W        W35948   4.648  25.617  14.293
63689W        W35949  34.160  40.855  12.023
63690W        W35950  37.438  26.048  10.524
63691W        W35951  40.759  26.098   3.806
63692W        W35952  33.070   9.243   3.392
63693W        W35953  29.226  28.520  12.657
63694W        W35954  27.931  11.289  11.724
63695W        W35955  11.059  22.097  13.304
63696W        W35956  32.061  18.673   3.567
63697W        W35957  22.521  10.209  13.199
63698W        W35958  33.906  40.839  14.157
63699W        W35959   9.946  38.972  11.954
63700W        W35960   0.374  33.431   2.223
63701W        W35961   5.847  39.313   4.846
63702W        W35962   7.909  11.419  11.191
63703W        W35963  35.730   0.975  10.624
63704W        W35964  10.318  31.931   3.576
63705W        W35965  10.572  15.243   0.797
63706W        W35966  13.057  25.189  13.956
63707W        W35967  12.048   2.499  10.788
63708W        W35968  27.464  42.500   0.749
63709W        W35969  36.557  11.303   4.730
63710W        W35970  30.232  19.287   1.435
63711W        W35971  37.348  43.030  11.646
63712W        W35972   2.418  35.859  12.419
63713W        W35973   3.203  19.406  13.921
63714W        W35974  27.571  14.944  14.129
63715W        W35975   4.295   7.453  10.969
63716W        W35976  37.998  40.275   3.862
63717W        W35977  11.110   9.770   4.376
63718W        W35978  15.391  19.203   1.015
63719W        W35979  32.692   5.511  12.044
63720W        W35980  35.573  23.509   4.449
63721W        W35981  19.364  14.379   3.325
63722W        W35982   2.838  41.489  11.968
63723W        W35983   5.823  44.230  13.902
63724W        W35984  33.955  17.544   4.667
63725W        W35985  38.027  16.832   2.193
63726W        W35986   1.550  10.707   4.308
63727W        W35987  13.123  43.717  14.746
63728W        W35988  31.821  42.612  13.027
63729W        W35989   6.239  15.773   4.524
63730W        W35990   7.272  15.561   0.505
63731W        W35991  29.612  41.591  11.176
63732W        W35992   6.697  17.115  12.186
63733W        W35993  14.724  16.841   2.705
63734W        W35994   3.188  15.316   3.956
63735W        W35995   0.697  35.588  14.527
63736W        W35996  29.096  21.643   4.678
63737W        W35997  32.375  40.483   4.123
63738W        W35998  35.311   4.996  11.880
63739W        W35999  23.769  12.729  11.955
63740W        W36000  43.801  28.119   2.572
63741W        W36001  43.590  17.571  14.805
63742W        W36002  27.898  30.978   1.787
63743W        W36003  31.646   0.198   0.336
63744W        W36004  17.717  15.230   1.782
63745W        W36005  31.527  10.174  12.935
63746W        W36006   1.913   1.534  12.572
63747W        W36007  37.306  17.664  14.489
63748W        W36008  41.965  41.088   2.703
63749W        W36009  23.489  20.807   1.494
63750W        W36010  27.722   9.348   0.827
63751W        W36011   6.858   3.348   3.428
63752W        W36012   4.827   6.982   0.047
63753W        W36013  34.883  41.309  11.577
63754W        W36014  22.767  14.236  13.080
63755W        W36015  17.280  43.994   1.918
63756W        W36016  20.682  16.041  14.403
63757W        W36017  35.039  34.360   1.266
63758W        W36018  25.556  16.128  10.976
63759W        W36019  39.281  33.764   2.835
63760W        W36020  16.137  24.414   4.035
63761W        W36021  34.417  30.909  11.089
63762W        W36022  15.155   9.596  13.922
63763W        W36023  28.568  43.321  10.694
63764W        W36024   4.534  28.449   1.444
63765W        W36025   0.992   1.824   2.136
63766W        W36026  10.296  20.166  13.567
63767W        W36027  33.570  26.136   1.438
63768W        W36028  31.714  42.049  10.752
63769W        W36029   3.230   4.592  12.383
63770W        W36030  20.157  33.208   0.271
63771W        W36031  35.557  10.796   0.241
63772W        W36032   1.117   5.211  12.736
63773W        W36033   2.708   0.781  13.931
63774W        W36034   3.867  30.175   1.220
63775W        W36035  17.585  19.178   1.282
63776W        W36036  30.001   4.527  12.562
63777W        W36037   3.657  10.318  10.691
63778W        W36038  42.549   9.678   4.605
63779W        W36039  34.648  24.812  13.816
63780W        W36040  20.185   1.527   4.188
63781W        W36041  33.650  31.561   4.050
63782W        W36042  15.536   6.275   3.844
63783W        W36043  13.882  40.287  14.803
63784W        W36044  30.057  43.630  11.610
63785W        W36045  13.181  35.328   1.964
63786W        W36046  22.253  15.915  10.398
63787W        W36047  27.278  14.345   2.272
63788W        W36048  32.775  12.128  14.546
63789W        W36049  38.295  33.648  12.568
63790W        W36050  39.885  44.743   0.287
63791W        W36051  36.452  14.493  13.140
63792W        W36052  43.213  44.813   0.563
63793W        W36053  14.024   6.324  14.342
63794W        W36054  17.231  18.693  14.583
63795W        W36055   9.639  20.804  12.764
63796W        W36056   4.845  33.392   3.285
63797W        W36057  11.411  15.202  12.142
63798W        W36058  22.125  19.037   5.008
63799W        W36059  39.999  36.709  11.169
63800W        W36060   7.787  28.685   0.134
63801W        W36061   3.264  13.757  13.079
63802W        W36062   2.305  35.843   4.156
63803W        W36063  21.244   4.026   3.666
63804W        W36064   6.467   8.198   3.915
63805W        W36065   7.743   8.324  13.250
63806W        W36066  44.986  17.132  13.962
63807W        W36067  31.968  33.041  11.602
63808W        W36068  43.740  41.309  12.494
63809W        W36069   6.616  11.057   2.768
63810W        W36070  35.350  38.587   2.894
63811W        W36071  11.322  14.372   2.806
63812W        W36072  10.789  14.161   1.341
63813W        W36073  43.332  30.009   3.627
63814W        W36074  22.471  44.839  14.578
63815W        W36075  11.614  37.829  11.189
63816W        W36076   4.862  25.518   2.321
63817W        W36077  25.321  34.772  13.939
63818W        W36078  42.260  42.409   3.587
63819W        W36079   1.714  35.760  13.739
63820W        W36080  24.655  20.774   1.332
63821W        W36081  34.576   9.108  11.080
63822W        W36082  33.096  42.306   1.037
63823W        W36083  18.072  13.676  14.499
63824W        W36084  30.634  35.209   2.187
63825W        W36085  30.286  32.060  10.275
63826W        W36086  16.175  34.132  11.552
63827W        W36087  16.761  11.066   4.320
63828W        W36088  16.801  43.397  11.637
63829W        W36089   7.812  27.247   4.996
63830W        W36090  16.173  25.658   4.602
63831W        W36091  10.258  41.003  14.899
63832W        W36092  28.600  41.542   4.553
63833W        W36093  29.629  19.611   1.260
63834W        W36094  10.879  19.816  11.217
63835W        W36095   4.819  33.602   5.587
63836W        W36096  36.149   3.916   1.891
63837W        W36097  44.761   5.302   1.541
63838W        W36098   6.183   8.295   2.453
63839W        W36099  18.217  33.806   0.580
63840W        W36100  10.383   0.386   3.119
63841W        W36101  21.311  11.861   2.337
63842W        W36102   0.974  25.713   4.093
63843W        W36103  30.676  36.096  13.895
63844W        W36104  30.107  10.889   4.341
63845W        W36105   1.489   9.235   4.596
63846W        W36106  15.020  37.997   1.960
63847W        W36107  15.311  12.377  12.035
63848W        W36108  31.079  14.268  12.361
63849W        W36109  32.881   0.827   0.524
63850W        W36110   7.129  35.655  11.186
63851W        W36111  18.035  28.616   3.135
63852W        W36112  29.876  15.129  11.160
63853W        W36113  29.464   4.215  14.384
63854W        W36114  25.169   9.167   0.939
63855W        W36115  17.269  23.367   1.327
63856W        W36116   5.862  43.040   0.959
63857W        W36117   1.784  32.570   4.150
63858W        W36118  21.118  35.001  11.551
63859W        W36119  11.196  36.159   3.821
63860W        W36120  13.223  23.676  10.374
63861W        W36121   8.952   9.191   0.741
63862W        W36122  20.126  28.278   0.760
63863W        W36123   4.078   7.515   1.507
63864W        W36124  14.950   8.279   4.204
63865W        W36125  24.246  10.297   0.845
63866W        W36126  34.352  19.843   4.430
63867W        W36127   8.497  28.049   2.318
63868W        W36128  27.136  25.197  12.603
63869W        W36129  22.231   3.643  14.851
63870W        W36130  18.271  43.800  14.429
63871W        W36131  35.627  28.029   3.702
63872W        W36132  28.796  39.519   0.049
63873W        W36133  39.780   4.164  13.373
63874W        W36134  35.372   1.380  12.895
63875W        W36135   1.327  15.101  14.675
63876W        W36136   4.212  13.313   1.907
63877W        W36137  16.125  40.978   2.206
63878W        W36138  44.571  19.179   0.733
63879W        W36139   4.415  21.578   0.424
63880W        W36140   1.354  33.588   1.305
63881W        W36141   5.489  18.191   1.681
63882W        W36142  27.108  43.540  10.920
63883W        W36143  38.031   2.776   1.714
63884W        W36144  16.975  26.224  14.987
63885W        W36145  21.283   4.956  11.811
63886W        W36146  21.518   6.231   4.533
63887W        W36147  31.572  10.908   4.157
63888W        W36148  16.513  12.871   0.544
63889W        W36149  30.411  23.694  14.486
63890W        W36150  27.518  26.622  12.054
63891W        W36151  23.061  34.057  13.464
63892W        W36152  30.461  27.981  12.969
63893W        W36153  19.191  11.242   4.647
63894W        W36154  31.696  19.597   3.675
63895W        W36155   7.925  36.905   4.752
63896W        W36156  33.390  24.706  12.163
63897W        W36157   2.383  36.984  12.117
63898W        W36158   4.811   1.194   0.809
63899W        W36159  35.799  40.294   1.132
63900W        W36160  26.119  13.353   2.384
63901W        W36161  26.096   9.934  11.681
63902W        W36162  28.616  25.743  11.720
63903W        W36163  18.749   9.180   1.405
63904W        W36164  34.075  30.642  14.018
63905W        W36165  15.562  26.227   2.674
63906W        W36166  25.673  22.758   4.229
63907W        W36167  22.689   6.690   2.877
63908W        W36168  43.582  28.040  11.208
63909W        W36169   4.614  33.900  12.787
63910W        W36170  24.718  28.053  11.229
63911W        W36171  40.447  10.843  11.652
63912W        W36172  16.732  22.703   3.741
63913W        W36173  20.071  30.844   3.690
63914W        W36174  30.666  18.308  11.941
63915W        W36175  26.585  25.460  13.971
63916W        W36176   9.750  38.936  12.423
63917W        W36177  13.152  26.589  10.722
63918W        W36178  29.150  40.623  13.298
63919W        W36179   6.208  39.900  12.818
63920W        W36180  42.386  21.082   3.163
63921W        W36181  29.624  37.452   0.974
63922W        W36182  32.870  26.118   0.326
63923W        W36183  29.523  30.960  11.182
63924W        W36184   7.138   2.255  14.165
63925W        W36185  31.465  31.281  10.171
63926W        W36186   8.224  37.034  13.911
63927W        W36187   2.596  13.103  10.820
63928W        W36188  23.981  42.312  11.090
63929W        W36189  11.885  41.559  10.726
63930W        W36190   0.049  28.063  11.105
63931W        W36191   3.397  16.288   2.955
63932W        W36192  23.171  19.236   3.382
63933W        W36193   7.691  29.580   3.250
63934W        W36194  33.513   4.508   2.525
63935W        W36195  29.729   2.974   2.822
63936W        W36196  36.235  37.774  11.018
63937W        W36197  36.408  30.049   1.932
63938W        W36198  21.985  15.833  13.503
63939W        W36199   1.089   6.425   5.354
63940W        W36200   7.448  14.251  12.736
63941W        W36201  37.373   3.805  14.708
63942W        W36202  13.086  41.500   3.920
63943W        W36203  39.353  40.314  13.023
63944W        W36204  38.797  14.162   0.626
63945W        W36205  25.060  22.244  11.387
63946W        W36206  13.388  20.968   0.771
63947W        W36207   0.660  21.923   3.882
63948W        W36208  37.546  37.000   2.703
63949W        W36209  32.726  32.413  10.963
63950W        W36210  31.883  13.303   0.684
63951W        W36211  22.749  44.081   0.870
63952W        W36212  27.386  17.055  13.566
63953W        W36213   2.337  26.903   5.179
63954W        W36214  38.409  14.307   4.578
63955W        W36215  34.122   1.220  11.168
63956W        W36216  41.159  22.329   1.332
63957W        W36217  26.710   3.378   2.226
63958W        W36218  15.026  35.236  12.393
63959W        W36219  38.802  16.529   1.298
63960W        W36220  27.157   1.225  14.408
63961W        W36221  30.675   6.182   3.036
63962W        W36222  37.287  13.283   1.597
63963W        W36223  12.182  35.131   3.693
63964W        W36224  36.541  28.907  12.030
63965W        W36225  38.439   9.193   2.464
63966W        W36226  25.623  29.501  11.158
63967W        W36227  32.743  40.244   1.882
63968W        W36228   0.030  21.714  13.947
63969W        W36229   5.363  40.082   1.024
63970W        W36230  43.866   0.757   2.266
63971W        W36231  41.353  14.281   3.595
63972W        W36232  40.851  11.166  10.775
63973W        W36233  29.856   7.385  14.440
63974W        W36234   5.189  22.610   2.007
63975W        W36235  30.443  30.832  10.787
63976W        W36236  28.083  20.690   1.684
63977W        W36237  23.464  38.995  14.765
63978W        W36238   6.715  26.571  12.022
63979W        W36239   9.851  34.425   3.783
63980W        W36240  31.127  35.492  13.335
63981W        W36241  12.830  15.555  10.737
63982W        W36242   8.645  29.703   3.232
63983W        W36243  42.498  11.856   0.769
63984W        W36244   0.023  16.639   0.843
63985W        W36245  24.637   1.727  12.860
63986W        W36246   7.394   9.343   4.149
63987W        W36247   6.929  39.481  14.112
63988W        W36248  20.289   0.071  14.370
63989W        W36249  22.797  35.007  14.728
63990W        W36250  34.112  10.697   3.329
63991W        W36251  23.280  23.615   3.904
63992W        W36252   2.363  19.658  14.430
63993W        W36253   3.252  25.060  14.040
63994W        W36254   6.306  31.397   3.659
63995W        W36255  20.741  41.386  12.569
63996W        W36256  21.021  11.450  10.325
63997W        W36257  24.084  13.896  13.898
63998W        W36258  24.646  28.445   0.903
63999W        W36259  29.709   9.310   0.687
64000W        W36260  17.950  18.779  13.971
64001W        W36261  23.593  30.389   3.704
64002W        W36262  33.095  17.262   2.360
64003W        W36263  42.505   8.746   0.288
64004W        W36264  31.910   4.683  11.973
64005W        W36265  25.004  41.970  13.934
64006W        W36266  11.003  32.638  11.260
64007W        W36267  17.629   0.719  10.414
64008W        W36268  17.258   9.971   3.587
64009W        W36269   9.898  26.149  12.369
64010W        W36270  29.742  35.326  14.564
64011W        W36271   4.847  36.426  11.871
64012W        W36272  12.760  34.525  11.708
64013W        W36273  21.518  24.595   3.792
64014W        W36274  39.776  25.612  12.529
64015W        W36275  13.247  28.006  12.741
64016W        W36276   3.597  37.933   4.672
64017W        W36277   3.783   5.383  12.086
64018W        W36278  14.573  43.955  10.645
64019W        W36279  38.869  31.774   5.011
64020W        W36280  43.271   8.377  13.928
64021W        W36281  11.429  38.337  12.200
64022W        W36282  28.889   3.574  13.931
64023W        W36283  42.181   9.220   2.307
64024W        W36284  42.709  18.034   4.043
64025W        W36285  13.164  15.383   1.852
64026W        W36286   9.824  13.044   2.344
64027W        W36287  10.669  15.210   3.878
64028W        W36288  43.056  27.563   0.728
64029W        W36289  12.662  37.579  13.648
64030W        W36290  11.978  18.829   4.724
64031W        W36291  17.652  29.107  14.834
64032W        W36292   7.795  27.908   3.730
64033W        W36293  10.654  40.453   1.565
64034W        W36294   7.701  22.608   1.434
64035W        W36295   6.689  26.283  10.262
64036W        W36296  38.998   6.314  10.987
64037W        W36297  37.751  27.123  12.648
64038W        W36298  11.171  33.751   3.233
64039W        W36299  35.541  20.908   2.624
64040W        W36300  23.079  28.472  11.550
64041W        W36301  36.661  39.332  13.521
64042W        W36302   2.762   3.063   3.393
64043W        W36303   4.441   1.275   2.282
64044W        W36304  11.663  32.408  14.938
64045W        W36305   9.190  30.455  11.650
64046W        W36306   6.295  33.829  13.773
64047W        W36307  28.423  39.473  11.238
64048W        W36308   8.576  17.799  10.664
64049W        W36309  14.656  26.150  10.903
64050W        W36310  24.770  36.972  12.080
64051W        W36311  42.814  20.246   0.383
64052W        W36312  31.685  18.082   0.787
64053W        W36313  12.804  16.081   4.815
64054W        W36314  18.801  27.076   4.598
64055W        W36315   1.757  12.105   4.126
64056W        W36316  41.075  25.414  13.089
64057W        W36317  32.516  18.565   2.680
64058W        W36318  22.155  24.266  12.713
64059W        W36319  40.483  31.336   1.840
64060W        W36320  22.196  35.192   0.789
64061W        W36321   8.181  36.040  10.869
64062W        W36322   3.176  42.122  12.437
64063W        W36323  38.124  41.863  14.888
64064W        W36324  40.377  13.539   0.759
64065W        W36325  30.283   1.818  11.613
64066W        W36326  31.922   9.356  14.023
64067W        W36327  25.517   6.738  11.621
64068W        W36328  41.589  31.578   0.314
64069W        W36329  22.183  11.597   4.164
64070W        W36330  20.781  14.652  13.895
64071W        W36331   7.930  20.337  11.091
64072W        W36332  44.824  17.077  12.538
64073W        W36333  10.686  21.529  14.874
64074W        W36334  17.896  19.552  11.970
64075W        W36335  44.451  21.594  11.086
64076W        W36336  44.922   2.270  12.201
64077W        W36337  19.729   9.338   0.065
64078W        W36338  32.384  16.305  13.523
64079W        W36339  27.575  14.864  12.361
64080W        W36340  31.052  19.832  14.374
64081W        W36341  18.522  37.823   4.619
64082W        W36342  43.414  39.232   1.262
64083W        W36343  14.884  25.010  10.788
64084W        W36344  35.910   0.938  11.580
64085W        W36345  11.338  23.698  13.530
64086W        W36346  10.649  36.479   0.882
64087W        W36347  14.417   9.455   2.308
64088W        W36348  15.745   4.916  13.088
64089W        W36349   1.661   8.229  12.597
64090W        W36350  37.095  10.875  14.450
64091W        W36351  23.224  30.580   1.050
64092W        W36352   0.939  43.408  14.381
64093W        W36353   5.778   9.653  10.753
64094W        W36354  13.660   5.868   4.222
64095W        W36355  39.527  25.438   2.395
64096W        W36356  38.608  35.830  12.819
64097W        W36357  15.236  40.370   2.792
64098W        W36358  14.766  19.121  14.394
64099W        W36359  34.864  19.568   4.867
64100W        W36360  38.434  11.655   3.727
64101W        W36361  37.045  18.761   1.223
64102W        W36362  23.593  29.384  13.486
64103W        W36363  22.321  44.253   0.016
64104W        W36364  42.536  31.742   3.559
64105W        W36365  20.096   0.801   4.037
64106W        W36366  42.227  27.716  10.360
64107W        W36367  32.651  14.596  11.550
64108W        W36368  34.008   3.652  14.832
64109W        W36369  34.827  11.621  10.785
64110W        W36370  40.023  41.717   4.140
64111W        W36371  12.369  39.980  14.300
64112W        W36372   6.142  41.396   0.281
64113W        W36373  34.977  25.686   1.654
64114W        W36374  35.155  39.069   2.228
64115W        W36375   8.940  33.059   4.110
64116W        W36376  21.389  14.334  10.598
64117W        W36377  35.533  21.315   0.228
64118W        W36378  38.774  42.372   1.763
64119W        W36379  26.510  34.861  12.367
64120W        W36380  11.226   2.149  12.657
64121W        W36381  13.600  44.894   4.745
64122W        W36382  42.526  21.657   1.357
64123W        W36383  25.940  36.572   1.296
64124W        W36384  35.927   8.394  12.663
64125W        W36385  24.240  28.868  11.467
64126W        W36386  40.909  20.266   2.344
64127W        W36387  43.154  26.574   1.014
64128W        W36388  21.114  44.296  11.979
64129W        W36389  29.325  16.042  12.003
64130W        W36390  17.171   2.309   2.906
64131W        W36391  22.701  31.671  10.438
64132W        W36392  40.901  34.847   3.897
64133W        W36393  12.330   5.891   4.626
64134W        W36394  19.513  22.986   3.307
64135W        W36395  15.083  11.865   0.382
64136W        W36396  31.594   0.589  13.492
64137W        W36397  22.614  37.914   4.553
64138W        W36398  20.254   3.181   1.417
64139W        W36399   6.421   0.878  10.647
64140W        W36400  29.634  36.902   3.436
64141W        W36401  17.169  22.087   4.873
64142W        W36402  44.286   1.679  12.481
64143W        W36403  35.561  14.898  10.515
64144W        W36404  17.704  21.052   1.021
64145W        W36405  28.010  36.663   0.304
64146W        W36406  38.322   2.790  14.381
64147W        W36407  43.883  18.198  12.911
64148W        W36408  41.992  25.711  14.828
64149W        W36409  10.645   1.843  11.585
64150W        W36410   0.946  40.045   3.624
64151W        W36411  21.189  28.918  10.371
64152W        W36412  29.295   7.871   4.049
64153W        W36413  24.397  36.030   0.184
64154W        W36414   9.332   8.238   3.287
64155W        W36415   5.999  10.748  11.477
64156W        W36416  30.547  44.402   1.479
64157W        W36417   6.901   6.399  11.139
64158W        W36418  41.502  21.213  14.909
64159W        W36419   8.833  12.488   0.035
64160W        W36420   4.458  10.824  11.671
64161W        W36421  41.532  15.099   0.766
64162W        W36422  43.407  18.178   1.440
64163W        W36423  19.184   2.939   1.163
64164W        W36424  24.028  41.950  13.842
64165W        W36425  42.646  33.264  13.463
64166W        W36426   6.627   7.847  12.403
64167W        W36427  38.331  27.481   1.949
64168W        W36428   1.393  34.476  13.220
64169W        W36429  12.303   2.390   3.134
64170W        W36430  40.512   6.944   2.371
64171W        W36431   5.793  32.498  10.392
64172W        W36432  36.466  44.902  11.803
64173W        W36433  10.897   0.891  11.477
64174W        W36434  39.977  11.317   2.910
64175W        W36435  28.541  40.864   1.458
64176W        W36436   5.809   5.413   1.522
64177W        W36437   4.160  24.322   1.476
64178W        W36438  39.967  40.393   0.770
64179W        W36439  42.016   6.635  13.982
64180W        W36440   1.258   7.270   1.552
64181W        W36441  19.596  18.982  11.982
64182W        W36442  41.843   3.902   2.419
64183W        W36443   6.571   1.430   9.910
64184W        W36444  30.794  41.274   3.249
64185W        W36445  36.857  25.631   2.885
64186W        W36446  26.245  22.681  10.719
64187W        W36447   6.899  22.647  12.740
64188W        W36448  43.913  33.964  11.868
64189W        W36449  22.664   4.645  12.776
64190W        W36450   9.372  41.537  13.452
64191W        W36451  39.869  34.908  10.721
64192W        W36452  10.355  44.580  11.964
64193W        W36453   5.361   4.190  10.728
64194W        W36454   2.426   9.964   4.279
64195W        W36455  38.921  14.319  12.466
64196W        W36456  20.235  30.920  10.660
64197W        W36457  40.039   7.766  14.902
64198W        W36458  44.713  38.527   0.809
64199W        W36459  11.582  34.088   3.573
64200W        W36460   6.215   4.722  13.055
64201W        W36461  19.113  25.906   2.936
64202W        W36462  18.644  26.739  10.991
64203W        W36463  16.772  22.184   3.636
64204W        W36464   9.592  21.524   0.803
64205W        W36465  18.196  34.223  13.133
64206W        W36466   6.338  31.296   1.925
64207W        W36467  14.237  39.490  11.971
64208W        W36468  29.417  11.290  10.735
64209W        W36469  27.486   0.221  12.138
64210W        W36470   2.248   6.791   1.633
64211W        W36471  18.332  19.770  13.915
64212W        W36472  22.472  31.899   4.105
64213W        W36473  26.185  20.819  11.249
64214W        W36474  11.830  35.110  13.031
64215W        W36475  44.413  37.706  13.825
64216W        W36476  16.843  16.683  11.091
64217W        W36477  32.826  10.679   2.773
64218W        W36478  30.376  43.852  14.699
64219W        W36479  20.547   2.868  14.381
64220W        W36480  38.011  28.508  12.428
64221W        W36481  41.233  12.480  12.489
64222W        W36482  12.357  16.183   4.551
64223W        W36483  16.123   6.335   0.486
64224W        W36484   4.907  22.686  12.609
64225W        W36485   0.742   2.912   1.303
64226W        W36486  36.532  26.833  12.840
64227W        W36487  24.078  34.053  13.476
64228W        W36488  15.310  13.069  14.707
64229W        W36489  14.141   3.437   4.885
64230W        W36490   6.302  42.872   1.255
64231W        W36491  25.972  22.086  13.964
64232W        W36492  44.817  38.185   0.428
64233W        W36493  11.847   5.130   2.718
64234W        W36494   5.920   7.444  13.797
64235W        W36495  36.495  20.780   4.178
64236W        W36496  37.375  30.457  14.555
64237W        W36497  29.849  34.992   0.297
64238W        W36498  22.690  43.143  14.666
64239W        W36499   3.782   2.219   2.160
64240W        W36500  33.537  20.396   2.502
64241W        W36501   4.189  29.577   2.274
64242W        W36502  28.211  41.273  11.121
64243W        W36503  28.283  39.307   3.293
64244W        W36504   5.152  40.533  13.459
64245W        W36505  12.085  11.327   3.444
64246W        W36506  10.028  12.656   4.855
64247W        W36507  41.767  31.505   3.209
64248W        W36508  31.175  24.675  12.456
64249W        W36509  21.661  41.002   2.294
64250W        W36510  24.746  38.078   2.721
64251W        W36511  19.597  17.720   1.325
64252W        W36512  22.489  31.602   3.662
64253W        W36513  27.517  25.001  14.862
64254W        W36514  30.512   0.353  14.833
64255W        W36515  24.633   6.142  11.151
64256W        W36516  17.121  16.347   2.665
64257W        W36517  42.769   0.479   1.425
64258W        W36518   1.665  43.887   0.057
64259W        W36519   3.390  13.189  12.405
64260W        W36520  44.436  38.895  14.453
64261W        W36521  22.922  27.762  12.146
64262W        W36522  41.964  10.972  14.955
64263W        W36523  18.491  44.960   0.953
64264W        W36524  44.993  41.856  12.423
64265W        W36525  27.207  22.784  11.119
64266W        W36526  25.249   5.845   2.280
64267W        W36527  37.324  44.757   1.355
64268W        W36528  39.449   6.887  14.882
64269W        W36529   0.194  13.173  12.991
64270W        W36530  12.570  37.488   2.136
64271W        W36531  23.440  36.675  12.270
64272W        W36532  15.281  10.083   4.697
64273W        W36533  18.540  21.204  10.557
64274W        W36534  37.817  33.007   1.854
64275W        W36535  30.642  14.290   3.291
64276W        W36536   1.167  18.521  11.237
64277W        W36537   4.447  25.010   0.356
64278W        W36538   7.755  19.182  10.581
64279W        W36539  19.493  30.705   9.552
64280W        W36540  44.909  30.085  11.556
64281W        W36541   1.806  22.060   1.355
64282W        W36542  36.336   4.009  13.068
64283W        W36543  41.346   4.405  11.916
64284W        W36544  26.961  13.277  12.399
64285W        W36545  30.876  20.598  13.333
64286W        W36546  19.426  31.475  13.400
64287W        W36547  11.224  29.720   1.237
64288W        W36548  31.890  23.225  11.507
64289W        W36549   6.229  42.839  11.327
64290W        W36550  16.127  11.796  13.845
64291W        W36551  18.669  19.738  11.589
64292W        W36552  19.006  28.652  13.406
64293W        W36553  28.265   5.371   1.505
64294W        W36554  12.714  19.123  13.876
64295W        W36555   8.212   5.382  12.367
64296W        W36556  42.790  42.158  11.039
64297W        W36557  30.288   1.739  11.103
64298W        W36558  41.616   2.736  12.869
64299W        W36559  38.848  27.427   4.681
64300W        W36560  24.299  37.331   1.826
64301W        W36561  36.171  27.288  10.724
64302W        W36562  22.091   6.941  12.977
64303W        W36563  33.885  32.860   2.181
64304W        W36564   6.911  39.550  12.588
64305W        W36565  12.803  31.158  13.904
64306W        W36566  30.549   9.329   0.979
64307W        W36567   2.950  17.644  12.435
64308W        W36568  39.675   1.769  11.416
64309W        W36569  36.357  21.098   2.204
64310W        W36570   7.763  22.230  14.277
64311W        W36571  12.358  19.997  12.837
64312W        W36572   0.513  26.031  13.306
64313W        W36573  30.185  16.075  13.737
64314W        W36574  11.389  37.902   1.374
64315W        W36575  18.540  43.421   4.424
64316W        W36576  16.854  25.176   1.352
64317W        W36577  38.329  35.465   2.812
64318W        W36578  37.411  30.560  13.642
64319W        W36579  18.543   4.486  12.998
64320W        W36580  38.624   3.492   3.164
64321W        W36581  22.671  25.097  14.957
64322W        W36582  11.426  29.175   2.724
64323W        W36583  37.341  10.413  11.852
64324W        W36584  35.620  32.764  12.445
64325W        W36585  36.747   9.197   4.317
64326W        W36586  30.629  21.462  12.431
64327W        W36587  41.415  14.364  14.182
64328W        W36588  43.412  28.988  14.752
64329W        W36589  41.269  31.558   3.147
64330W        W36590   3.923  43.178   1.991
64331W        W36591   6.648  35.607  14.485
64332W        W36592  14.175   3.322  14.755
64333W        W36593  10.566  42.838  14.518
64334W        W36594  22.027   3.551  13.903
64335W        W36595   7.990  33.257   1.887
64336W        W36596  40.897  19.670   1.452
64337W        W36597  23.654  13.711   1.290
64338W        W36598   2.346  26.202  14.013
64339W        W36599  39.790  40.694   1.798
64340W        W36600  38.900  16.586  14.900
64341W        W36601  38.012   0.689  10.676
64342W        W36602  23.603  28.609   1.322
64343W        W36603  13.065  28.588   1.865
64344W        W36604  40.637   8.059   5.030
64345W        W36605   9.679   2.277  12.188
64346W        W36606  25.713  31.836  14.370
64347W        W36607  18.786  22.614   1.091
64348W        W36608  38.064  37.980   2.854
64349W        W36609  37.053  17.520   3.295
64350W        W36610   5.658  18.197   3.187
64351W        W36611   1.891   9.192   4.229
64352W        W36612  29.500   7.193   5.085
64353W        W36613  19.276  40.747   3.142
64354W        W36614  38.484  37.987   2.134
64355W        W36615  28.638  28.996  11.565
64356W        W36616  26.177   3.170   0.328
64357W        W36617  40.883  37.253   4.784
64358W        W36618  41.124  41.374  10.795
64359W        W36619  35.982  44.212  13.262
64360W        W36620  11.931  32.325   0.369
64361W        W36621  18.436  18.124  14.929
64362W        W36622   0.382  41.053  11.619
64363W        W36623  40.348  15.703  10.730
64364W        W36624  27.479  19.621   2.170
64365W        W36625   7.223  25.139  12.848
64366W        W36626  10.810   6.363  14.911
64367W        W36627  35.803  30.481   0.789
64368W        W36628   9.686  29.103   3.594
64369W        W36629  22.709  41.117   2.297
64370W        W36630  16.366  36.089  13.854
64371W        W36631   7.885  29.117  14.228
64372W        W36632  17.842  15.624  13.369
64373W        W36633   5.203  43.457   3.195
64374W        W36634  26.076  28.537   2.963
64375W        W36635  43.076  32.454  10.642
64376W        W36636  34.567  34.578  11.611
64377W        W36637  34.602  32.933  13.932
64378W        W36638  10.869  22.988   2.805
64379W        W36639  35.512  44.541   3.847
64380W        W36640  16.665  19.295  13.948
64381W        W36641  19.799  43.753   1.298
64382W        W36642  16.133   6.224   0.994
64383W        W36643  37.282  14.579  13.200
64384W        W36644   8.201  38.006   4.133
64385W        W36645  14.602  18.677   2.746
64386W        W36646   4.432  10.769   2.625
64387W        W36647   3.936   3.859  14.462
64388W        W36648   0.969  41.566   2.755
64389W        W36649  43.109  27.376  14.472
64390W        W36650  32.351   8.626  12.430
64391W        W36651  30.618   0.840  12.385
64392W        W36652   7.381  28.239   0.758
64393W        W36653  16.871  24.097  10.678
64394W        W36654   3.963   9.177  14.385
64395W        W36655  41.028   1.537  12.505
64396W        W36656  33.047  12.372  13.865
64397W        W36657  24.288  22.652  12.071
64398W        W36658  34.583  28.849   0.668
64399W        W36659   8.757  23.123   0.881
64400W        W36660  36.369  39.011  11.294
64401W        W36661  35.988  36.019   2.429
64402W        W36662  14.812   4.259  14.311
64403W        W36663  20.477  10.672   2.882
64404W        W36664  12.637   8.489  12.526
64405W        W36665  41.679  38.682  10.700
64406W        W36666  12.809   5.646   1.921
64407W        W36667  22.717  33.891  14.942
64408W        W36668  16.747  11.394   0.425
64409W        W36669   1.226  36.430  12.047
64410W        W36670  14.260  36.965  10.860
64411W        W36671  34.181  31.133   3.295
64412W        W36672  42.081  33.364  12.909
64413W        W36673  13.230  17.798   3.470
64414W        W36674  36.122  15.192   1.618
64415W        W36675   7.670  21.091   4.626
64416W        W36676   7.715  28.695  13.903
64417W        W36677  38.440  16.972   0.497
64418W        W36678   4.667  36.937  14.921
64419W        W36679  16.228  18.008   2.351
64420W        W36680  24.806  35.249   0.007
64421W        W36681  13.912  36.114   0.983
64422W        W36682  10.803  15.947   3.714
64423W        W36683  38.744  24.008   3.333
64424W        W36684  35.033   4.943   3.553
64425W        W36685  11.402  27.705  12.567
64426W        W36686  10.699   9.436  14.028
64427W        W36687  34.948  24.280   3.097
64428W        W36688  33.849  17.102   0.404
64429W        W36689  10.189  25.819   3.209
64430W        W36690  24.668  43.999  13.766
64431W        W36691   3.810  11.586   2.850
64432W        W36692  42.204  44.852  11.721
64433W        W36693   9.368  13.735  13.391
64434W        W36694   3.175   0.899   4.328
64435W        W36695  31.375  44.894   3.289
64436W        W36696  42.934  27.286  11.872
64437W        W36697  11.673  33.982   4.071
64438W        W36698  16.277  27.034  14.992
64439W        W36699  26.704  21.616  12.046
64440W        W36700  21.806  11.063   2.700
64441W        W36701   2.474  32.953   0.029
64442W        W36702  21.480   9.822  13.485
64443W        W36703  38.100  35.512   1.435
64444W        W36704  23.410   7.853   3.543
64445W        W36705  36.417  42.489  13.916
64446W        W36706   3.234  11.542   0.190
64447W        W36707  31.380  10.090  11.521
64448W        W36708   7.872  28.450  13.453
64449W        W36709   3.656  25.839   1.767
64450W        W36710  20.617  27.584  11.525
64451W        W36711  35.516  25.136  11.959
64452W        W36712  32.981  32.367  11.430
64453W        W36713  21.578  13.177   1.268
64454W        W36714   7.957  39.924   4.172
64455W        W36715  40.280   8.944  10.334
64456W        W36716  23.966  19.145   1.715
64457W        W36717  15.654   5.471   2.499
64458W        W36718  27.742   9.409   2.716
64459W        W36719  15.610  28.542  14.368
64460W        W36720  33.521  26.972   0.853
64461W        W36721   7.929   1.023  11.069
64462W        W36722  19.003  32.817   0.774
64463W        W36723   0.414  39.056  11.414
64464W        W36724  13.096  23.460  12.552
64465W        W36725   9.634  39.810  13.948
64466W        W36726   4.685  36.935   1.241
64467W        W36727  36.361   5.877   0.338
64468W        W36728  14.818  43.037   3.506
64469W        W36729  37.939  15.829  14.405
64470W        W36730  14.154   4.435   1.864
64471W        W36731  21.468  40.694   1.919
64472W        W36732  42.449   4.713   2.143
64473W        W36733  20.546  10.539  14.877
64474W        W36734  23.054  21.543   3.260
64475W        W36735   2.771  27.902   2.986
64476W        W36736   4.134   1.047   4.103
64477W        W36737  29.196   0.810   2.138
64478W        W36738  12.856  34.993  14.354
64479W        W36739  12.810  26.192  14.275
64480W        W36740   9.619  13.216  11.961
64481W        W36741  17.236  27.728  14.973
64482W        W36742  30.467  17.186   1.733
64483W        W36743  20.788  32.627   0.901
64484W        W36744  36.838   2.723  10.538
64485W        W36745   2.055  21.299   4.571
64486W        W36746  42.811  19.670  14.421
64487W        W36747  23.202  21.820  10.599
64488W        W36748  25.069  29.980   2.653
64489W        W36749   3.306  21.246   3.305
64490W        W36750  22.710   8.684  13.999
64491W        W36751  30.570  27.585   2.655
64492W        W36752  18.254  19.510   1.810
64493W        W36753  34.035  26.995   0.839
64494W        W36754   4.858  33.938  14.731
64495W        W36755  30.587  37.900   4.375
64496W        W36756  22.797  15.915  14.318
64497W        W36757  23.965  40.807  14.881
64498W        W36758  35.121  17.465   3.110
64499W        W36759   7.141   5.864   3.297
64500W        W36760  17.011  10.342   1.206
64501W        W36761  14.443  26.750   9.996
64502W        W36762   8.443  10.301  10.505
64503W        W36763  20.456  24.875   1.276
64504W        W36764  36.276  26.502  10.760
64505W        W36765  26.106  11.306   1.165
64506W        W36766  38.459  14.769  10.852
64507W        W36767  20.252  36.266   3.862
64508W        W36768   2.676  11.176  10.551
64509W        W36769  35.657  12.398  13.916
64510W        W36770  20.008  26.061   3.213
64511W        W36771  20.227  41.580  13.049
64512W        W36772  43.741  39.788   3.786
64513W        W36773  13.144  36.217  14.269
64514W        W36774  39.003  11.670  10.637
64515W        W36775  18.249   5.967   5.070
64516W        W36776   6.416  24.494  10.698
64517W        W36777   7.905   9.737  11.198
64518W        W36778   4.736  23.301   3.700
64519W        W36779  26.237  15.063   3.300
64520W        W36780  16.602  34.137   1.845
64521W        W36781  21.729   2.714  12.995
64522W        W36782  18.561  36.580   2.179
64523W        W36783  26.630  33.833  11.081
64524W        W36784  10.919  29.441   0.130
64525W        W36785  29.430  39.070  14.911
64526W        W36786  41.560  44.280  11.159
64527W        W36787   4.275  25.289   3.657
64528W        W36788   0.704  13.707   1.805
64529W        W36789  11.782  43.017   3.291
64530W        W36790   1.462   9.335  13.506
64531W        W36791  37.225  39.024   1.217
64532W        W36792   0.455  29.164   3.058
64533W        W36793  37.280  19.739  11.103
64534W        W36794  12.361  31.463  13.397
64535W        W36795  37.585  42.210  14.284
64536W        W36796   2.737   5.678  10.949
64537W        W36797  17.288  11.252  12.041
64538W        W36798  28.976  29.468  10.611
64539W        W36799  36.251  16.279  12.017
64540W        W36800  33.176   2.718   3.827
64541W        W36801  15.059  27.623   0.018
64542W        W36802   3.830  23.453   3.835
64543W        W36803   7.769  11.306   4.754
64544W        W36804  38.177  39.080   4.685
64545W        W36805  24.072  44.022  12.549
64546W        W36806  15.034   2.363   4.545
64547W        W36807  36.550  15.597  13.931
64548W        W36808  33.112  17.712  13.470
64549W        W36809  12.615  36.431  14.890
64550W        W36810  29.255  33.439  12.390
64551W        W36811   2.789  16.641   0.799
64552W        W36812  19.469  39.818   0.328
64553W        W36813  25.097  31.256   4.137
64554W        W36814  33.094  14.441  11.780
64555W        W36815   4.926  36.475  14.894
64556W        W36816  35.533   6.088  14.732
64557W        W36817  34.902   0.838  11.735
64558W        W36818  33.232  41.207  13.071
64559W        W36819  11.163   3.429   2.458
64560W        W36820   6.299  23.796  11.155
64561W        W36821  11.050  41.532  14.994
64562W        W36822  35.406  27.978  10.762
64563W        W36823  33.528  30.293   1.279
64564W        W36824  26.112  43.878  14.006
64565W        W36825  31.855  12.927   3.077
64566W        W36826   4.898  17.322   4.459
64567W        W36827  26.818  11.422   3.261
64568W        W36828  34.086  38.560  11.075
64569W        W36829  16.991  12.105  11.522
64570W        W36830  20.159   1.017  14.429
64571W        W36831  13.262   7.029   2.642
64572W        W36832  42.854  23.067  13.836
64573W        W36833  13.218  17.045  12.030
64574W        W36834  36.387  38.873  10.796
64575W        W36835  13.318  42.056   1.639
64576W        W36836   4.670  19.700  10.279
64577W        W36837  16.853  25.955  12.073
64578W        W36838  25.740  20.006  12.832
64579W        W36839  38.922  19.880  14.209
64580W        W36840  12.033  37.585   0.367
64581W        W36841  36.891  43.794   2.822
64582W        W36842  19.794  28.210   1.473
64583W        W36843  23.782   5.839   1.693
64584W        W36844  39.954  21.814   3.250
64585W        W36845  10.385   1.527   0.483
64586W        W36846  25.165  24.959  14.403
64587W        W36847  36.059  18.110   1.415
64588W        W36848  16.956  28.849  13.792
64589W        W36849  18.803  31.578   3.663
64590W        W36850  24.751  15.728   3.831
64591W        W36851  16.071  22.226   0.042
64592W        W36852  26.765  31.934   2.307
64593W        W36853  34.166  33.099  14.758
64594W        W36854   8.695  40.301  11.240
64595W        W36855   1.213  31.919  12.929
64596W        W36856  35.531  22.167   1.789
64597W        W36857  18.790  22.063   1.963
64598W        W36858  22.506  19.174  11.447
64599W        W36859  31.046  26.627   1.195
64600W        W36860  22.476  16.620  10.583
64601W        W36861  15.200  36.934  10.889
64602W        W36862  37.451  15.208   0.539
64603W        W36863   1.336  42.516   3.320
64604W        W36864  34.636  19.156  14.450
64605W        W36865  43.887  39.621   2.147
64606W        W36866  24.704  38.303  11.966
64607W        W36867  17.689  35.590  14.785
64608W        W36868   7.321  27.862   2.811
64609W        W36869  36.050  25.169  13.624
64610W        W36870  24.588  33.490   1.702
64611W        W36871  39.589  37.135   4.388
64612W        W36872  26.208   4.823  11.894
64613W        W36873   3.980  12.533  12.017
64614W        W36874  13.260  21.732  12.201
64615W        W36875   5.853  40.560  12.995
64616W        W36876   8.667  40.989   4.038
64617W        W36877  38.638  13.833  11.713
64618W        W36878  36.237  20.453   5.524
64619W        W36879  13.020  26.513   1.277
64620W        W36880  34.192  32.161  14.877
64621W        W36881  14.204  23.215  14.887
64622W        W36882   4.738  17.666  11.928
64623W        W36883  36.823  33.045   0.914
64624W        W36884  29.709  20.983   4.511
64625W        W36885   2.449  41.558   3.341
64626W        W36886  13.216  39.808   2.743
64627W        W36887   7.278  42.799   3.437
64628W        W36888   9.066  21.020   5.148
64629W        W36889   8.209  42.247   1.382
64630W        W36890  11.027  38.822   2.561
64631W        W36891   8.689   5.154  13.116
64632W        W36892  18.055   4.836   4.361
64633W        W36893  34.759  30.690  12.063
64634W        W36894  29.169   9.335   2.435
64635W        W36895   6.870  44.256   1.386
64636W        W36896  21.658   6.676  11.541
64637W        W36897  16.608  29.463   2.150
64638W        W36898  29.875  17.207  14.404
64639W        W36899  44.822   8.135  10.754
64640W        W36900   5.662   0.826  13.605
64641W        W36901  16.210   1.897   3.656
64642W        W36902   9.108  39.775  11.246
64643W        W36903  16.257  40.005   4.523
64644W        W36904  17.133   8.729   0.992
64645W        W36905   3.923  11.892  13.932
64646W        W36906   3.907  33.758  13.327
64647W        W36907  15.825  13.820   2.661
64648W        W36908  11.828  31.526  13.408
64649W        W36909   9.231  15.867   4.837
64650W        W36910  31.031  11.342   1.939
64651W        W36911  20.121   6.834   0.314
64652W        W36912  27.037  35.885   1.220
64653W        W36913  34.830  16.855   1.422
64654W        W36914   3.873  39.429  11.961
64655W        W36915  22.206  16.763  12.449
64656W        W36916  29.426  44.761   2.135
64657W        W36917   6.591   7.314  12.443
64658W        W36918  16.612  43.933  13.892
64659W        W36919  43.299  36.942   2.676
64660W        W36920  12.072  31.051   4.554
64661W        W36921  32.510  43.880  14.324
64662W        W36922   0.504  37.331   1.842
64663W        W36923  32.028  25.550   3.756
64664W        W36924  19.285  25.466  12.179
64665W        W36925  34.294  41.294   0.907
64666W        W36926  21.525   4.575   0.290
64667W        W36927  15.290  30.064   5.512
64668W        W36928  24.122  28.353  12.700
64669W        W36929  10.028  26.737  13.561
64670W        W36930  31.698   6.318  13.804
64671W        W36931  32.667  30.651  11.229
64672W        W36932   5.862  30.271  11.999
64673W        W36933  43.995  23.058   3.700
64674W        W36934  22.918  35.910   0.972
64675W        W36935  20.702  24.242  14.913
64676W        W36936  29.437  15.551   2.122
64677W        W36937   9.732  37.843   1.836
64678W        W36938  40.096  44.824  13.371
64679W        W36939  11.971  25.141  10.464
64680W        W36940  15.703  23.297  10.840
64681W        W36941  14.345  31.858   4.082
64682W        W36942   5.630   8.742   0.846
64683W        W36943   3.209  35.315   3.269
64684W        W36944  20.499  13.952   4.971
64685W        W36945  31.834  26.724  14.280
64686W        W36946  20.223  40.416  10.824
64687W        W36947  40.452   0.514  11.025
64688W        W36948  43.791  41.885   2.094
64689W        W36949  43.334   8.788  14.674
64690W        W36950  27.021  15.765  13.610
64691W        W36951  28.794  37.953   4.106
64692W        W36952  24.274   4.484  10.516
64693W        W36953  31.252   6.418  10.767
64694W        W36954   8.811  39.107  14.849
64695W        W36955   8.447   6.305  11.965
64696W        W36956  16.041   0.876  14.343
64697W        W36957  18.717   3.416  12.035
64698W        W36958   8.372   7.389   3.699
64699W        W36959  12.627  26.871  12.012
64700W        W36960  44.868  30.899   2.733
64701W        W36961   1.725  23.610  10.947
64702W        W36962  14.108   8.419  11.428
64703W        W36963  37.624  29.454   2.323
64704W        W36964  13.331  26.568   0.240
64705W        W36965   9.002  23.970  11.119
64706W        W36966  12.733   4.961   0.855
64707W        W36967  25.308  35.644  12.003
64708W        W36968  11.571  43.531  14.998
64709W        W36969  31.232  32.056   1.439
64710W        W36970  37.356  29.796  13.196
64711W        W36971   5.666   6.442  11.545
64712W        W36972  23.126  25.740  12.769
64713W        W36973  12.307  43.973  10.658
64714W        W36974  30.435  25.152  13.415
64715W        W36975  22.228   2.433  14.553
64716W        W36976   5.582  35.329  10.781
64717W        W36977   7.661  39.959  10.891
64718W        W36978  44.273  24.011   5.033
64719W        W36979  44.459  32.134   4.641
64720W        W36980   9.228   0.854  10.885
64721W        W36981  18.241   4.188  11.291
64722W        W36982   4.489   3.983  12.294
64723W        W36983   9.910  27.203  11.043
64724W        W36984   7.895  17.835   3.602
64725W        W36985  19.266  31.360  14.366
64726W        W36986  19.480  37.164  11.028
64727W        W36987  42.840  22.721   3.428
64728W        W36988  11.249  24.811   0.500
64729W        W36989  29.044  42.909   0.965
64730W        W36990  28.741  15.250  13.014
64731W        W36991   5.690   1.344  11.086
64732W        W36992  27.093   7.147   4.405
64733W        W36993   6.676  41.723  13.034
64734W        W36994  13.655   8.336   3.757
64735W        W36995  31.208  15.530  11.116
64736W        W36996  20.955  44.817  10.642
64737W        W36997  13.763  33.491  10.862
64738W        W36998   1.726  25.943   2.805
64739W        W36999  28.347  39.826   3.116
64740W        W37000  31.637   4.498   1.878
64741W        W37001  16.812   5.265   2.728
64742W        W37002  44.610  11.790   2.886
64743W        W37003  25.546   6.089  11.122
64744W        W37004  20.172  40.515   4.550
64745W        W37005  44.213  31.336   4.036
64746W        W37006  29.861  13.486   3.800
64747W        W37007  22.515   6.192   2.845
64748W        W37008  17.747  11.640   4.275
64749W        W37009  34.631  15.311   0.731
64750W        W37010  23.899   1.348   3.682
64751W        W37011  35.493   1.397   1.740
64752W        W37012   0.994  37.678   0.262
64753W        W37013  39.984  24.175  11.923
64754W        W37014  30.501  26.546   3.182
64755W        W37015  23.565  31.179   3.213
64756W        W37016   3.046  24.556   2.727
64757W        W37017   1.481  29.445  11.159
64758W        W37018  20.540   0.757   1.803
64759W        W37019  24.975  11.568  13.370
64760W        W37020  17.366  11.728   2.644
64761W        W37021  12.064  18.210   0.289
64762W        W37022   6.203  38.686  13.512
64763W        W37023   7.426  25.231  10.987
64764W        W37024   4.469  31.380   4.151
64765W        W37025  15.383  17.394  10.255
64766W        W37026  17.058  20.943  13.555
64767W        W37027   9.941  30.218   4.090
64768W        W37028  10.918  31.740   1.327
64769W        W37029  41.442  10.179   1.302
64770W        W37030  30.942  37.595  14.581
64771W        W37031  42.315  10.732  13.347
64772W        W37032  33.181  18.467  10.970
64773W        W37033  36.470  15.297   0.473
64774W        W37034  44.046  11.630  13.817
64775W        W37035  25.062  21.746  11.888
64776W        W37036   1.876   3.845   3.125
64777W        W37037  33.168  12.162  11.477
64778W        W37038   5.474   4.642  11.038
64779W        W37039  41.896  33.151  11.507
64780W        W37040  21.036  10.710   3.743
64781W        W37041   5.972  18.575  13.930
64782W        W37042  16.171   8.368  10.747
64783W        W37043  29.392   2.214  11.193
64784W        W37044  19.712  32.996  14.996
64785W        W37045  35.535  22.232  11.187
64786W        W37046  11.442  18.755  14.792
64787W        W37047  32.163   6.096  13.524
64788W        W37048  13.283   5.383  11.988
64789W        W37049  39.847  15.102  11.168
64790W        W37050  40.117  26.414   1.853
64791W        W37051   7.949  42.197  14.797
64792W        W37052  24.319  37.842  13.998
64793W        W37053  39.379  36.573   2.799
64794W        W37054  23.995  13.198  13.041
64795W        W37055  10.638  29.175   1.850
64796W        W37056  15.703   1.788  14.944
64797W        W37057  32.147  39.683  14.169
64798W        W37058  21.427   2.839  12.581
64799W        W37059   3.749  43.993  12.152
64800W        W37060  30.197  33.116  11.936
64801W        W37061   3.087  31.972  14.306
64802W        W37062   0.691  13.728  11.966
64803W        W37063   2.073   4.481  13.556
64804W        W37064   2.972   7.775   4.238
64805W        W37065   9.686  17.219   4.422
64806W        W37066  37.876  15.135   4.659
64807W        W37067  36.092  17.230  14.384
64808W        W37068  43.901  13.378   1.943
64809W        W37069  42.951  25.678  11.632
64810W        W37070  25.969  32.352  14.208
64811W        W37071  20.743  42.776  14.940
64812W        W37072  22.800  24.302   3.402
64813W        W37073  14.773   7.336  13.555
64814W        W37074  41.481  29.141   3.664
64815W        W37075  15.649  20.579  11.953
64816W        W37076  35.153  34.536  10.592
64817W        W37077  32.196  44.650  11.746
64818W        W37078  38.080  40.539  10.724
64819W        W37079   0.880  30.652  12.113
64820W        W37080   4.496  19.594  13.588
64821W        W37081  26.166   1.708   3.697
64822W        W37082   1.439  36.012  13.373
64823W        W37083  43.193  42.950   4.656
64824W        W37084  23.966  13.310   3.945
64825W        W37085  42.091  29.542  11.670
64826W        W37086  13.856  32.663  13.686
64827W        W37087  32.567  11.562  10.333
64828W        W37088   6.415   5.931   3.644
64829W        W37089  14.352  38.278  13.905
64830W        W37090  28.994   1.786  10.822
64831W        W37091  21.754   0.289  13.399
64832W        W37092  21.704  24.461  10.623
64833W        W37093   5.229  32.160  13.956
64834W        W37094  20.177  18.667  13.884
64835W        W37095  16.339  42.986   0.982
64836W        W37096  11.317  39.149   1.610
64837W        W37097  25.149  11.855  13.823
64838W        W37098  18.553  41.502  13.113
64839W        W37099  30.632   3.023  13.763
64840W        W37100  35.037  19.051   0.775
64841W        W37101  33.751  30.442  10.381
64842W        W37102  40.252  35.426   2.485
64843W        W37103  18.069   5.874   4.595
64844W        W37104   8.197  16.607  14.408
64845W        W37105  44.440  36.303   0.062
64846W        W37106   2.790  24.217  11.664
64847W        W37107  10.371  42.088  12.698
64848W        W37108  40.816  16.384  11.692
64849W        W37109   7.789  29.661  12.479
64850W        W37110   8.228  23.281  10.538
64851W        W37111  35.465  32.303  14.472
64852W        W37112  41.696  42.779  14.349
64853W        W37113  11.742  28.506   4.601
64854W        W37114  14.594   7.861   2.689
64855W        W37115  20.029  16.194  11.478
64856W        W37116  34.575  26.814   0.257
64857W        W37117  20.037  38.124  13.955
64858W        W37118   4.888   5.137   4.417
64859W        W37119  31.704  19.692  11.108
64860W        W37120  20.003   3.799   1.708
64861W        W37121  29.017  23.867   2.264
64862W        W37122  40.098  23.114  14.439
64863W        W37123  15.759  38.576  11.291
64864W        W37124  20.040  17.542  13.955
64865W        W37125  24.203  36.514   0.806
64866W        W37126  42.981  40.778  12.544
64867W        W37127  25.581  29.292   4.846
64868W        W37128  24.601  22.330   0.240
64869W        W37129   5.260  14.072   3.375
64870W        W37130  16.872   5.009   1.349
64871W        W37131  14.219  26.708   0.774
64872W        W37132   2.725   5.894  12.372
64873W        W37133  38.173   9.501  10.258
64874W        W37134  12.196  40.879  14.721
64875W        W37135  42.165  18.255   1.905
64876W        W37136  38.794  23.200   3.660
64877W        W37137   6.427  18.479   1.117
64878W        W37138  41.105   4.322   2.264
64879W        W37139  14.010  15.646   1.413
64880W        W37140  30.269  26.250  14.340
64881W        W37141  41.552  30.899   0.955
64882W        W37142  38.637  21.739   1.935
64883W        W37143  31.596  40.539   5.026
64884W        W37144  34.995   9.742   4.422
64885W        W37145  44.409  31.369  13.045
64886W        W37146  43.074  29.577   0.719
64887W        W37147   2.384  17.586   4.475
64888W        W37148  43.000  39.908  10.944
64889W        W37149  18.740  37.869   2.568
64890W        W37150  42.708  21.277   1.838
64891W        W37151  15.287  42.311  13.089
64892W        W37152  26.022  29.010   1.711
64893W        W37153  21.172  36.391   0.977
64894W        W37154  27.201  32.975   4.343
64895W        W37155  16.753   2.288   0.889
64896W        W37156  22.015  14.252  11.490
64897W        W37157  34.127  43.270   3.526
64898W        W37158   8.588  28.585   2.646
64899W        W37159  17.063   7.712   4.819
64900W        W37160  15.608   1.772  13.371
64901W        W37161   7.422  25.932   2.243
64902W        W37162  31.484   9.440  12.586
64903W        W37163  25.042  39.928   0.011
64904W        W37164  22.532  44.728   4.568
64905W        W37165  14.685  19.522  13.466
64906W        W37166  20.011  22.561   1.205
64907W        W37167  29.956   5.773  13.053
64908W        W37168  35.898   7.280   2.211
64909W        W37169  26.495  40.499   2.355
64910W        W37170  23.060  21.154  11.199
64911W        W37171  16.699  43.471   4.605
64912W        W37172  30.489  13.906  14.460
64913W        W37173   3.698  34.536  13.539
64914W        W37174  10.168   4.826  12.417
64915W        W37175  20.451  27.913  11.177
64916W        W37176  40.280  10.676   0.685
64917W        W37177  42.956  30.982  12.291
64918W        W37178  20.994   7.579  12.114
64919W        W37179  19.451  13.143   3.588
64920W        W37180   0.284  21.603  12.557
64921W        W37181   9.848  31.429   0.206
64922W        W37182   1.920  38.758  13.065
64923W        W37183  12.278  34.945  13.194
64924W        W37184  44.639  24.722  11.539
64925W        W37185  16.596   9.303   3.930
64926W        W37186  33.176  21.605   1.271
64927W        W37187  44.317   8.838   5.058
64928W        W37188  29.329  30.120  12.887
64929W        W37189   8.237  37.036   1.492
64930W        W37190  24.209  25.553  13.553
64931W        W37191  10.543  25.534  12.408
64932W        W37192  11.431  24.029   0.321
64933W        W37193  31.072  36.958   1.817
64934W        W37194  31.025  41.961   1.763
64935W        W37195  37.754  16.650   4.883
64936W        W37196  29.829  17.308   1.870
64937W        W37197   5.822  23.507   3.782
64938W        W37198   4.318  35.846  12.395
64939W        W37199   3.225  43.270  11.707
64940W        W37200  13.324  24.206  13.954
64941W        W37201   6.714  37.867   0.914
64942W        W37202  18.295   3.819  13.409
64943W        W37203  37.012  39.382   4.641
64944W        W37204   3.402  30.659  13.505
64945W        W37205  17.221  38.503   1.756
64946W        W37206   6.507  26.988  12.207
64947W        W37207  13.530  42.300  11.933
64948W        W37208  26.663  43.222   4.491
64949W        W37209   1.725  41.471   1.262
64950W        W37210   4.916  21.672   4.292
64951W        W37211  13.805  28.894  13.457
64952W        W37212   6.819  21.199  12.512
64953W        W37213  39.021  25.201  10.437
64954W        W37214  22.009  28.787   1.889
64955W        W37215  16.994  19.599   0.388
64956W        W37216  21.189  27.015  11.157
64957W        W37217  18.424   2.947  12.579
64958W        W37218  42.108  13.621  12.623
64959W        W37219  41.849   6.991  13.447
64960W        W37220  24.092   1.272   4.198
64961W        W37221  26.850  44.393  12.130
64962W        W37222  28.561  18.010   1.228
64963W        W37223   5.251  28.413  14.888
64964W        W37224  34.834  32.918  10.691
64965W        W37225   3.301  27.513   1.297
64966W        W37226  16.216  27.605  11.588
64967W        W37227   9.584  36.899   0.518
64968W        W37228  16.351   8.815   2.179
64969W        W37229  43.262  14.870  11.477
64970W        W37230   0.709  35.022  13.353
64971W        W37231   7.718  25.553  14.773
64972W        W37232  43.697   8.672  12.845
64973W        W37233  20.672   8.637   1.871
64974W        W37234   4.626  24.599   2.316
64975W        W37235   9.389   6.271  13.462
64976W        W37236  26.922  39.066   0.952
64977W        W37237  15.386  14.754  10.633
64978W        W37238  24.619  14.819   2.724
64979W        W37239  30.541   0.352  13.918
64980W        W37240  16.143  37.962  14.459
64981W        W37241   7.410  30.427   1.057
64982W        W37242  13.237  25.311   3.520
64983W        W37243  42.029  42.808   3.836
64984W        W37244  42.209  12.663  12.347
64985W        W37245   1.809  16.817  13.092
64986W        W37246  18.442  27.858   0.965
64987W        W37247   1.170   5.980  11.254
64988W        W37248   7.686   7.390   0.527
64989W        W37249  38.307  40.062   2.135
64990W        W37250  14.770  39.440   4.080
64991W        W37251  34.666   9.008   5.066
64992W        W37252  29.222  18.231  10.552
64993W        W37253   2.353  32.534   4.351
64994W        W37254  38.571  40.488  14.471
64995W        W37255  39.443  19.518  14.817
64996W        W37256  32.673   2.046   2.887
64997W        W37257  33.684  12.789  12.088
64998W        W37258  42.984  44.218  12.862
64999W        W37259   2.319  10.184  10.486
65000W        W37260  18.528  35.680   2.426
65001W        W37261  31.030   5.200  14.446
65002W        W37262  29.216  23.691  13.016
65003W        W37263  39.615  19.636   0.814
65004W        W37264  19.486  29.482   0.411
65005W        W37265  21.120  44.725  13.870
65006W        W37266  26.740  37.526  11.563
65007W        W37267  31.212  42.035   3.187
65008W        W37268  33.739   2.227   0.048
65009W        W37269  16.071  29.364   4.557
65010W        W37270  26.863  40.649  10.137
65011W        W37271  31.548   5.923   1.805
65012W        W37272  32.380  26.309   0.252
65013W        W37273   2.443   5.809  11.446
65014W        W37274  39.039   9.686  10.162
65015W        W37275  41.287  29.691  12.837
65016W        W37276  19.226  12.934   3.185
65017W        W37277  27.854  13.431  12.256
65018W        W37278  19.127  37.089   5.162
65019W        W37279   1.734  35.947  11.626
65020W        W37280  39.859  35.622   2.180
65021W        W37281  21.687  29.880  11.567
65022W        W37282  40.130  42.286  12.322
65023W        W37283   2.727  18.337  11.594
65024W        W37284  33.470  18.330   4.599
65025W        W37285   9.346  21.817   0.271
65026W        W37286  19.668  14.823   2.404
65027W        W37287   6.640  40.378   3.275
65028W        W37288  15.102  10.953   1.297
65029W        W37289  17.569  29.699  12.094
65030W        W37290  39.306  28.185   1.517
65031W        W37291  18.784  26.994  10.094
65032W        W37292  38.374  42.311   0.006
65033W        W37293  34.819  33.092   2.805
65034W        W37294  23.457  10.106   0.361
65035W        W37295  38.903  29.648   0.916
65036W        W37296  12.233  26.195   0.005
65037W        W37297  38.375  31.239   2.226
65038W        W37298  43.252   1.167  11.897
65039W        W37299  38.931  27.905   0.255
65040W        W37300  38.513   5.192   4.469
65041W        W37301  39.189  27.919  14.324
65042W        W37302  22.545  41.470   0.838
65043W        W37303   7.445   6.273   3.183
65044W        W37304   7.400   3.469   1.304
65045W        W37305  42.312   7.692   0.866
65046W        W37306  28.093  35.070  14.249
65047W        W37307   1.418  24.795  11.210
65048W        W37308  12.686  14.262   0.888
65049W        W37309  44.627  14.788   4.427
65050W        W37310   2.948  33.459  13.393
65051W        W37311  16.320  15.789   4.784
65052W        W37312  12.873  33.553  10.855
65053W        W37313  38.367  14.083  14.753
65054W        W37314  23.826  43.197   0.208
65055W        W37315  39.514  33.341   1.762
65056W        W37316  23.106   8.363   4.387
65057W        W37317  29.177  38.043  11.497
65058W        W37318  32.763  37.129  12.965
65059W        W37319  18.931  20.159  14.931
65060W        W37320  22.468  29.002  11.968
65061W        W37321  23.301  34.789   1.493
65062W        W37322   7.248  27.206  11.543
65063W        W37323   6.693   4.724   3.759
65064W        W37324   4.731  34.462   1.872
65065W        W37325   4.935   4.202  12.185
65066W        W37326   8.553  18.952  14.903
65067W        W37327   3.936  31.458   4.123
65068W        W37328  16.165  10.246  14.773
65069W        W37329   7.155  24.148  12.434
65070W        W37330  33.954  32.212  14.407
65071W        W37331  23.980  34.854   4.046
65072W        W37332  44.415  36.343  11.929
65073W        W37333  29.480   9.336  10.936
65074W        W37334   6.972   9.759   4.599
65075W        W37335  14.508  32.766  12.875
65076W        W37336  30.447  13.578  10.669
65077W        W37337   5.012  34.100   4.226
65078W        W37338   6.077  41.482  14.762
65079W        W37339   5.237  30.331   2.809
65080W        W37340  41.178  23.775  14.095
65081W        W37341  18.058   8.759   0.716
65082W        W37342  41.397  42.868   2.563
65083W        W37343   7.850  35.958   4.104
65084W        W37344  44.842   4.864  12.676
65085W        W37345  44.985  15.521   0.261
65086W        W37346   3.093   1.880  11.472
65087W        W37347  34.902  20.188   0.196
65088W        W37348  21.467  21.507   3.230
65089W        W37349  40.857  19.141  11.831
65090W        W37350  38.736   1.528  12.356
65091W        W37351  23.200  33.670  14.986
65092W        W37352   8.418  38.974  11.320
65093W        W37353   5.148  38.866   3.785
65094W        W37354  21.650   4.154  11.002
65095W        W37355   7.141  23.283  14.905
65096W        W37356  13.349   6.624  10.466
65097W        W37357  25.712  38.760   4.220
65098W        W37358  31.568  13.625  12.917
65099W        W37359   9.287  15.591   3.440
65100W        W37360   4.469  25.817  14.749
65101W        W37361  42.893  21.202  13.005
65102W        W37362  15.258   9.381   1.464
65103W        W37363  10.967  35.044  13.954
65104W        W37364  14.565  24.739   2.374
65105W        W37365  24.700  39.146   2.764
65106W        W37366   3.782  10.876  14.007
65107W        W37367  28.508  30.391  13.351
65108W        W37368  30.483  15.133   1.329
65109W        W37369   6.947   0.687  11.839
65110W        W37370   1.802  32.128  13.746
65111W        W37371  15.179  18.611  12.985
65112W        W37372  23.075  16.393  14.645
65113W        W37373  35.037  31.120  13.849
65114W        W37374  37.641  34.419  11.555
65115W        W37375  29.442  44.765   0.913
65116W        W37376  33.538  20.109   4.228
65117W        W37377   6.890  34.929  14.274
65118W        W37378  19.648  40.516   1.497
65119W        W37379  42.451  37.017   3.852
65120W        W37380  20.774  28.223   3.238
65121W        W37381  26.597  21.109  12.031
65122W        W37382   6.295  31.804   1.863
65123W        W37383  36.862   2.416   0.505
65124W        W37384  41.826  29.510   3.979
65125W        W37385  17.503  36.051   0.484
65126W        W37386  29.839   0.796  11.080
65127W        W37387  27.360  41.028  13.008
65128W        W37388  44.901   3.145   5.006
65129W        W37389  44.193   3.846   1.969
65130W        W37390  10.806  35.229  11.161
65131W        W37391  21.010   9.970  11.687
65132W        W37392  17.373   4.502  13.828
65133W        W37393  17.714   8.065   3.352
65134W        W37394  36.479   0.197   0.323
65135W        W37395  40.488  27.419  11.217
65136W        W37396  13.785  35.785  10.247
65137W        W37397  16.255  10.295  12.860
65138W        W37398   8.285  16.105   1.180
65139W        W37399  10.559  38.291  12.100
65140W        W37400  44.418   0.125  11.369
65141W        W37401  32.146  39.874   0.350
65142W        W37402  13.700  31.612   3.048
65143W        W37403  40.022  39.929   3.249
65144W        W37404  21.532  18.979   0.805
65145W        W37405  37.765   6.925   2.867
65146W        W37406  25.754  21.654   0.016
65147W        W37407  14.567   7.842   0.893
65148W        W37408  31.643  41.156  12.987
65149W        W37409   1.503  35.491   2.217
65150W        W37410  16.784   0.892  11.375
65151W        W37411  33.144  32.011   1.236
65152W        W37412  30.568  11.614   1.804
65153W        W37413  26.861  18.693   4.154
65154W        W37414   8.898  26.696   5.082
65155W        W37415   3.680  22.079  12.485
65156W        W37416  13.701   4.940   3.997
65157W        W37417  20.059  10.670   0.762
65158W        W37418   6.632  24.535  14.905
65159W        W37419   8.914  14.248   3.143
65160W        W37420  19.136   3.793  11.021
65161W        W37421  19.362   7.279  11.450
65162W        W37422  37.110  38.902  13.369
65163W        W37423   8.829  40.853  13.408
65164W        W37424  22.990  17.270  10.471
65165W        W37425  17.811  25.200  14.981
65166W        W37426  14.337  44.003   0.838
65167W        W37427   9.690   5.473   1.937
65168W        W37428  20.452  32.481  14.066
65169W        W37429  26.459  39.048   0.228
65170W        W37430  23.543  10.203  14.373
65171W        W37431  28.033  16.256  14.897
65172W        W37432  43.346  32.618  13.790
65173W        W37433  29.148  17.146   3.632
65174W        W37434  25.226  27.303  14.431
65175W        W37435  19.546  21.277   1.808
65176W        W37436  33.065   5.956   5.096
65177W        W37437  29.509  33.126  13.466
65178W        W37438  14.105  27.916  11.943
65179W        W37439  18.588   4.200   3.751
65180W        W37440  17.356  26.650   2.751
65181W        W37441  25.452   9.974   3.621
65182W        W37442  22.818  32.384   4.135
65183W        W37443  22.020  30.030   0.629
65184W        W37444   8.213  36.060  11.416
65185W        W37445  12.309  31.357   2.778
65186W        W37446  27.976  11.356  12.242
65187W        W37447  37.472  20.636  12.918
65188W        W37448  32.949  31.519   1.249
65189W        W37449  43.693  37.887  14.718
65190W        W37450   7.785  25.771  10.490
65191W        W37451  39.464   4.203   1.655
65192W        W37452  26.768   8.623   9.971
65193W        W37453  22.802  40.466   0.816
65194W        W37454  31.937   7.887   0.240
65195W        W37455  29.085  18.621  13.148
65196W        W37456  12.787  30.812   2.223
65197W        W37457  20.310   8.354   1.250
65198W        W37458  16.067  26.380   1.244
65199W        W37459   1.281   4.037  10.808
65200W        W37460  34.614  40.840  13.052
65201W        W37461   9.354  20.937  14.429
65202W        W37462   3.507  28.074   0.276
65203W        W37463  39.670   0.406  11.467
65204W        W37464  39.605   8.806  13.416
65205W        W37465  29.752  28.696  11.971
65206W        W37466  19.237   3.221   4.815
65207W        W37467  39.550  12.643   5.072
65208W        W37468  26.053  28.966   2.683
65209W        W37469  19.834  42.248   4.289
65210W        W37470  39.860  11.454   3.789
65211W        W37471  37.404  38.094  13.519
65212W        W37472  13.267  21.731  12.725
65213W        W37473  35.171  16.200   2.398
65214W        W37474   2.973  35.100  12.551
65215W        W37475  36.727   0.833  11.034
65216W        W37476   4.265   5.598   3.214
65217W        W37477  13.207  20.239   0.425
65218W        W37478  28.159  14.544   4.208
65219W        W37479  14.364  21.600   2.856
65220W        W37480  18.003  24.611   4.265
65221W        W37481  13.710   0.522  14.067
65222W        W37482  29.659  36.373   4.155
65223W        W37483  33.450  43.948   3.101
65224W        W37484  19.508  18.028  11.570
65225W        W37485   7.434  30.624   2.048
65226W        W37486  40.536   7.267  13.391
65227W        W37487  23.677   5.041   4.230
65228W        W37488  37.516  18.557  13.812
65229W        W37489   4.641  24.163  14.290
65230W        W37490   1.804   1.282   0.555
65231W        W37491   2.379   5.991   5.039
65232W        W37492  16.600  30.162   4.787
65233W        W37493   9.903  15.753  10.736
65234W        W37494  38.612  19.017   0.447
65235W        W37495  38.500  16.011   0.407
65236W        W37496  14.503  43.839   2.227
65237W        W37497  21.607  44.329   0.276
65238W        W37498  22.189  18.106   3.338
65239W        W37499  14.316  42.743  11.236
65240W        W37500   7.714  36.391  13.037
65241W        W37501  26.219  13.845  14.154
65242W        W37502  32.947   6.715  12.856
65243W        W37503  41.081  22.519  14.808
65244W        W37504   8.175  41.483   0.320
65245W        W37505  24.201  21.282  14.258
65246W        W37506  31.306  33.086  13.336
65247W        W37507  28.931  32.946   2.308
65248W        W37508  30.249  11.008  10.457
65249W        W37509  40.031  19.602   0.517
65250W        W37510   3.428  40.384  14.889
65251W        W37511   7.425  41.822  14.971
65252W        W37512  24.812  17.698  11.511
65253W        W37513   2.769  43.268   4.313
65254W        W37514  33.941  17.274   1.348
65255W        W37515   7.714   7.398  14.393
65256W        W37516  27.966  21.011   3.735
65257W        W37517  19.031  33.195  12.936
65258W        W37518  41.451  28.411  11.156
65259W        W37519  42.092  29.964   3.352
65260W        W37520  27.811  44.590  13.774
65261W        W37521  27.534   5.902  11.562
65262W        W37522  14.288  44.724   2.371
65263W        W37523  29.250  22.174  10.875
65264W        W37524  35.603  29.681  12.911
65265W        W37525  36.130  22.579   2.334
65266W        W37526  11.182  23.497   3.623
65267W        W37527  24.405  44.286   2.365
65268W        W37528  10.718  21.228  13.887
65269W        W37529  44.704   9.557  14.066
65270W        W37530  29.960  25.565   4.684
65271W        W37531  39.288  20.631   3.256
65272W        W37532   0.461  10.818   4.509
65273W        W37533  27.695  40.685   9.809
65274W        W37534  20.545  28.032  12.932
65275W        W37535   1.292  16.685   3.549
65276W        W37536  24.122  32.452  14.266
65277W        W37537  23.205  22.165   0.417
65278W        W37538  30.371  29.495  13.778
65279W        W37539  13.028  35.362   4.416
65280W        W37540  25.553  24.131   0.587
65281W        W37541  17.191  29.131  14.149
65282W        W37542   9.152  34.873  11.454
65283W        W37543  40.783  34.519   0.843
65284W        W37544  33.206  30.983  13.036
65285W        W37545  41.985   0.956   1.954
65286W        W37546   0.719  36.409   1.916
65287W        W37547  35.278   5.492  11.684
65288W        W37548   5.823  20.523  14.415
65289W        W37549  10.264  40.669  12.970
65290W        W37550  27.143  11.223  14.121
65291W        W37551  14.784  29.447  11.537
65292W        W37552   2.261   6.523  13.469
65293W        W37553  32.982  42.352  14.441
65294W        W37554   3.412  33.177  11.654
65295W        W37555  11.633  41.999   0.437
65296W        W37556  42.385   4.034  14.083
65297W        W37557  32.028  44.135  13.950
65298W        W37558   9.702  24.540  11.695
65299W        W37559  15.570   1.033  12.943
65300W        W37560   7.172  35.626  14.510
65301W        W37561   7.481  15.930  14.717
65302W        W37562  43.851  25.900   2.916
65303W        W37563  41.788   4.164  11.986
65304W        W37564  23.494  27.206  13.956
65305W        W37565  23.287  37.164  13.482
65306W        W37566  23.151   0.371  10.824
65307W        W37567  23.046  25.485   2.282
65308W        W37568  22.658  41.791   4.701
65309W        W37569   1.813  32.649  13.052
65310W        W37570   6.808  13.574   1.527
65311W        W37571   3.671   0.144   3.281
65312W        W37572  29.444   7.689  14.285
65313W        W37573  40.863  37.445  13.853
65314W        W37574  33.028   8.345   3.748
65315W        W37575  16.762  31.040   2.848
65316W        W37576  26.693  32.936   1.261
65317W        W37577  43.328  17.589  13.463
65318W        W37578  28.841   7.164   1.382
65319W        W37579  28.154  23.233   0.865
65320W        W37580  16.343  33.329   1.143
65321W        W37581   9.797  18.539  11.895
65322W        W37582  17.368   1.877  13.098
65323W        W37583  39.465   9.092   2.759
65324W        W37584   2.245   9.245   1.427
65325W        W37585  24.169  28.604  10.171
65326W        W37586  40.404   2.938  13.791
65327W        W37587   2.364  33.736  10.138
65328W        W37588  24.332  35.546   1.657
65329W        W37589  27.137  16.149  12.106
65330W        W37590  25.448  41.581   1.526
65331W        W37591  13.455  35.143   4.189
65332W        W37592  32.062  16.060   3.868
65333W        W37593  25.228   5.412  14.469
65334W        W37594  43.479  32.594   1.800
65335W        W37595  22.779   9.228  14.955
65336W        W37596  15.299   1.744   3.731
65337W        W37597  29.128  19.074   1.752
65338W        W37598  26.798  28.039  14.245
65339W        W37599  32.329  36.421   4.094
65340W        W37600   4.268  34.359   2.819
65341W        W37601  44.478   2.555  13.063
65342W        W37602  25.502  21.815   4.027
65343W        W37603  32.913  30.823   4.398
65344W        W37604  37.402  16.737   1.216
65345W        W37605  13.810  10.063  14.453
65346W        W37606  33.578  43.858   4.139
65347W        W37607   1.709   2.148  14.947
65348W        W37608   1.944  20.756  11.164
65349W        W37609  44.881  13.354  14.337
65350W        W37610  35.296  23.664  14.069
65351W        W37611  40.375  17.821   2.069
65352W        W37612   2.287  27.222   2.678
65353W        W37613  23.607  28.878  13.341
65354W        W37614  28.408  15.327  11.151
65355W        W37615  39.929   8.617   1.297
65356W        W37616   8.323  31.571   1.696
65357W        W37617   8.846  15.230  14.875
65358W        W37618  37.859  43.260   4.331
65359W        W37619  27.537  43.503  10.641
65360W        W37620  29.746  14.538   4.143
65361W        W37621  14.616   0.190   2.639
65362W        W37622  41.335  36.098  14.344
65363W        W37623   4.411  40.840   0.216
65364W        W37624  35.461  41.229  14.006
65365W        W37625  18.580  20.257  13.922
65366W        W37626  40.688  21.379  11.623
65367W        W37627  37.036   5.930  12.481
65368W        W37628   7.355   5.353   2.186
65369W        W37629  41.049  34.554  11.582
65370W        W37630   5.632  24.695  11.567
65371W        W37631  35.095  13.697  13.625
65372W        W37632  10.765  37.482  10.216
65373W        W37633  15.723  17.333   1.228
65374W        W37634  10.599  36.569  11.617
65375W        W37635  35.352   2.938  12.991
65376W        W37636  38.251  13.577   4.277
65377W        W37637  33.626   1.464  11.175
65378W        W37638  32.103   4.257   0.115
65379W        W37639  44.876   2.005   3.061
65380W        W37640   0.426  43.703   4.279
65381W        W37641  15.891   0.769   2.354
65382W        W37642   5.434  11.345   2.295
65383W        W37643  42.983  26.984   4.630
65384W        W37644  38.845  42.236  11.135
65385W        W37645  11.800   4.804  12.537
65386W        W37646  28.206  34.058   3.861
65387W        W37647  33.948  38.646  14.975
65388W        W37648  38.113  39.996   2.608
65389W        W37649  19.530  34.376  14.874
65390W        W37650  24.905  33.327  14.399
65391W        W37651  26.937  29.779   3.186
65392W        W37652  39.111  34.992  14.059
65393W        W37653  24.157  40.952   5.353
65394W        W37654  43.868  27.179   2.218
65395W        W37655  36.066  33.796  11.570
65396W        W37656  21.080  32.671   4.600
65397W        W37657  38.837  32.901   0.197
65398W        W37658  34.451   0.843   1.321
65399W        W37659  31.514  13.075   0.351
65400W        W37660   0.410   3.539  14.751
65401W        W37661  12.267   2.502  12.121
65402W        W37662   5.397  43.909   2.458
65403W        W37663  18.900  20.062   4.915
65404W        W37664  11.180  42.460  13.020
65405W        W37665  23.159  23.939   3.317
65406W        W37666   0.456   0.751  14.887
65407W        W37667  27.740  38.284   0.260
65408W        W37668  12.729  11.825   1.044
65409W        W37669   7.925   5.762  12.610
65410W        W37670  32.188  44.350   0.648
65411W        W37671   4.918  11.957  11.947
65412W        W37672   4.906  38.315   1.203
65413W        W37673  26.015  16.708   3.099
65414W        W37674   6.677  28.396   2.321
65415W        W37675  35.941  42.755  12.479
65416W        W37676   6.951  11.629  11.142
65417W        W37677  29.987  22.484  12.919
65418W        W37678  24.451  41.397  11.145
65419W        W37679  26.551  25.117   0.749
65420W        W37680   0.664  18.141  10.009
65421W        W37681  16.764  41.602  13.078
65422W        W37682   2.405   9.633   2.311
65423W        W37683  14.640  33.623   1.793
65424W        W37684  13.838   1.909   4.149
65425W        W37685  27.007  36.253  11.223
65426W        W37686  34.455  24.144  10.548
65427W        W37687  34.047   9.573  12.862
65428W        W37688  18.177  28.974  14.414
65429W        W37689  29.615  18.255   2.807
65430W        W37690  14.781  40.920  14.300
65431W        W37691   9.773  10.633   2.255
65432W        W37692  27.038  38.064  12.420
65433W        W37693   8.389  19.079  12.049
65434W        W37694  28.390  19.401  11.082
65435W        W37695  27.556  39.784  14.634
65436W        W37696  19.210  32.132  12.029
65437W        W37697   9.300  15.844  12.949
65438W        W37698  11.283  15.651   1.848
65439W        W37699  17.613  43.497   3.626
65440W        W37700   2.270  39.822   0.888
65441W        W37701  25.058  18.512  10.735
65442W        W37702  18.212  30.994  10.988
65443W        W37703  20.170   2.808   3.757
65444W        W37704  21.897  22.181  12.975
65445W        W37705  44.714   2.774  14.395
65446W        W37706  41.731  28.893  13.086
65447W        W37707  13.616   6.651   4.801
65448W        W37708  18.793  14.327   0.526
65449W        W37709   0.816  27.548   3.303
65450W        W37710  12.249  26.977   1.300
65451W        W37711   7.128  39.456  12.067
65452W        W37712  36.353  37.969   1.433
65453W        W37713   7.899  29.556   3.711
65454W        W37714  25.565   9.472   3.562
65455W        W37715  21.315  30.550   0.352
65456W        W37716  34.676  15.776   1.872
65457W        W37717  12.128  40.845   0.726
65458W        W37718  19.074   5.672  10.600
65459W        W37719  42.369  40.816  12.022
65460W        W37720  35.382  43.485   4.633
65461W        W37721  20.818  16.741  12.817
65462W        W37722  40.401   3.905   1.706
65463W        W37723  23.067   9.451   2.730
65464W        W37724  35.628  20.704   0.799
65465W        W37725  24.190  41.193  10.282
65466W        W37726   2.690   8.823   4.792
65467W        W37727  18.273  20.862  13.051
65468W        W37728  42.956   8.438   2.597
65469W        W37729   7.914  13.732   0.270
65470W        W37730  28.701   4.398   2.911
65471W        W37731   0.338   3.489   4.195
65472W        W37732  27.147  12.627   0.894
65473W        W37733  39.653  14.464   1.754
65474W        W37734  28.640  40.374   3.185
65475W        W37735  44.239  14.642   0.707
65476W        W37736  14.794  40.980   3.314
65477W        W37737  16.054  44.704   1.275
65478W        W37738  19.259   7.740  11.618
65479W        W37739   8.831  29.983  13.912
65480W        W37740   6.705  15.412   1.655
65481W        W37741  44.538   0.908  13.082
65482W        W37742  36.272   2.273  14.234
65483W        W37743  10.586  34.111  13.909
65484W        W37744  18.614  10.491  11.864
65485W        W37745  27.421  19.345  11.121
65486W        W37746  12.579  41.654   3.997
65487W        W37747  43.506  26.348   5.069
65488W        W37748   9.294  35.329  13.820
65489W        W37749  40.300  44.605   3.105
65490W        W37750  10.273  11.572  13.415
65491W        W37751  39.418  16.655  12.860
65492W        W37752   7.216  31.679  12.656
65493W        W37753  23.610   1.356   3.162
65494W        W37754  11.733   4.770   1.717
65495W        W37755  10.457  17.538   2.537
65496W        W37756  24.281  26.753  11.035
65497W        W37757   5.319  20.839   1.742
65498W        W37758   6.031  44.041   4.495
65499W        W37759  18.197  40.941  14.888
65500W        W37760  34.577  34.651   2.229
65501W        W37761  25.159  21.029   4.100
65502W        W37762  44.488  30.025  12.876
65503W        W37763  16.641   4.527  12.004
65504W        W37764  22.029  25.222  13.152
65505W        W37765   8.140  43.423  14.317
65506W        W37766  22.844  11.832  12.016
65507W        W37767  33.121  31.928  13.765
65508W        W37768  34.503   6.303  11.151
65509W        W37769  31.612  39.412   1.980
65510W        W37770  27.890   6.625   2.271
65511W        W37771  37.594   9.294   3.653
65512W        W37772  34.024  34.668   4.711
65513W        W37773  24.985  33.053   2.207
65514W        W37774  40.394   2.432   0.532
65515W        W37775   5.369   8.486   4.775
65516W        W37776   6.451  32.381   4.432
65517W        W37777   4.532  42.956   3.195
65518W        W37778  21.166   8.244  14.510
65519W        W37779  30.607   6.294   4.657
65520W        W37780  11.331   2.131  14.388
65521W        W37781   9.587  20.647   0.940
65522W        W37782  27.388   2.483   1.003
65523W        W37783  16.991  11.625  11.860
65524W        W37784  21.102   5.483   1.616
65525W        W37785   6.246  34.942   2.760
65526W        W37786   8.223  13.381   3.279
65527W        W37787   8.618  43.902   3.194
65528W        W37788   7.487  34.607  13.916
65529W        W37789  16.458  23.132   0.877
65530W        W37790  22.342  20.879  11.142
65531W        W37791   9.691  16.855  13.963
65532W        W37792   3.363  44.040   1.076
65533W        W37793  17.245  44.984   2.076
65534W        W37794  15.796  32.764  10.798
65535W        W37795  34.116   1.912   0.838
65536W        W37796   8.965  14.284  14.972
65537W        W37797  33.478   1.494   1.812
65538W        W37798  13.740  14.397  14.780
65539W        W37799  27.867   8.132  13.116
65540W        W37800  18.945  44.194   2.449
65541W        W37801  25.676  19.361   1.654
65542W        W37802  13.467  41.777  12.035
65543W        W37803  13.164  21.695   0.783
65544W        W37804   0.349  44.964   2.727
65545W        W37805   7.735  28.119   9.464
65546W        W37806  30.969   0.330  10.658
65547W        W37807  22.462   8.390  12.918
65548W        W37808  27.330  26.571  13.484
65549W        W37809  19.452  12.781   0.847
65550W        W37810  10.634  44.924   0.853
65551W        W37811  21.199  43.822  12.607
65552W        W37812  28.979  22.936  14.047
65553W        W37813  43.434  29.322  11.591
65554W        W37814  40.529  41.418   0.379
65555W        W37815  24.341   0.311   0.747
65556W        W37816  31.469   4.880  14.522
65557W        W37817  33.185  10.588  12.808
65558W        W37818   0.977  19.060   0.111
65559W        W37819  33.936   3.171  11.109
65560W        W37820  42.340  36.993   1.349
65561W        W37821   0.664   6.599  14.616
65562W        W37822  39.827  25.188  13.551
65563W        W37823  44.955  23.721  12.117
65564W        W37824  38.862  28.767  11.526
65565W        W37825  33.442  39.978  14.038
65566W        W37826  29.896  17.543  12.905
65567W        W37827  15.174  24.498  13.976
65568W        W37828  30.427  21.524  13.311
65569W        W37829  27.302  44.864  14.466
65570W        W37830  11.505  10.115   5.080
65571W        W37831  18.613  19.053   4.368
65572W        W37832   2.177  24.253  14.927
65573W        W37833   6.412  21.547   4.778
65574W        W37834   6.364  42.339  11.464
65575W        W37835  33.198  44.279   2.620
65576W        W37836  20.360  42.875   1.758
65577W        W37837  21.863  22.269   1.183
65578W        W37838  20.978  42.539  13.559
65579W        W37839   5.813   2.294   4.094
65580W        W37840  31.032  40.311  13.833
65581W        W37841   3.222  38.435   2.364
65582W        W37842  41.363  40.880   3.634
65583W        W37843  35.973   1.784   3.720
65584W        W37844  26.619  34.464   1.442
65585W        W37845   0.352  12.986   3.706
65586W        W37846  13.647  34.337   2.276
65587W        W37847   4.973  42.466   0.484
65588W        W37848  27.116  27.187  14.524
65589W        W37849  19.637  39.753   4.174
65590W        W37850  35.410  41.996   0.879
65591W        W37851  19.772  23.165  13.432
65592W        W37852  39.967  30.258  13.847
65593W        W37853   2.551  42.885   3.246
65594W        W37854  13.270  42.252   2.737
65595W        W37855  43.380   4.461   2.189
65596W        W37856  39.029  20.038   4.971
65597W        W37857   6.995  13.750   4.416
65598W        W37858  44.849  35.529   3.756
65599W        W37859  17.152  35.313  11.661
65600W        W37860  11.079  43.888  12.201
65601W        W37861  36.394  31.875  11.538
65602W        W37862  40.732  38.959  14.796
65603W        W37863  10.869  33.472  13.024
65604W        W37864  33.604  37.523  10.395
65605W        W37865   5.157  25.687   9.462
65606W        W37866   1.249  20.667   2.216
65607W        W37867   6.211  15.694  10.733
65608W        W37868  25.122  41.736  11.658
65609W        W37869   2.495  25.148  13.588
65610W        W37870  32.446  41.968   2.637
65611W        W37871  33.121   1.019  11.980
65612W        W37872  11.907   7.208   1.141
65613W        W37873   7.799   4.823   4.302
65614W        W37874  22.636  29.348  10.957
65615W        W37875   2.257   2.478  11.058
65616W        W37876  10.933  37.842   4.157
65617W        W37877  37.661  43.708   2.293
65618W        W37878   8.040  36.484  11.627
65619W        W37879  44.583  14.260   3.638
65620W        W37880  23.111  22.314  10.642
65621W        W37881  25.563  44.776  12.880
65622W        W37882  40.284  35.823  11.955
65623W        W37883  23.085  22.662  13.676
65624W        W37884  13.145  23.300   4.133
65625W        W37885  35.294  18.699  10.640
65626W        W37886  28.171  19.710   2.683
65627W        W37887  23.597  25.063  14.556
65628W        W37888  43.157   1.920   1.122
65629W        W37889  20.663  16.549  14.363
65630W        W37890   2.301  30.038  12.520
65631W        W37891   4.849  40.471   1.884
65632W        W37892  16.408  37.497  12.000
65633W        W37893  41.148  36.603   3.174
65634W        W37894  31.766  18.566   2.125
65635W        W37895  14.637  18.666  13.029
65636W        W37896   8.199  40.434  11.313
65637W        W37897  17.110   1.341  10.318
65638W        W37898   4.358  40.193   1.017
65639W        W37899  31.158  40.449   0.849
65640W        W37900  33.890   9.733   0.255
65641W        W37901  26.464  10.521   1.291
65642W        W37902  44.246  35.024   1.401
65643W        W37903  31.591  41.528  13.442
65644W        W37904  11.233  21.119  11.167
65645W        W37905   7.610  31.979  12.203
65646W        W37906  33.042   4.765  12.177
65647W        W37907  24.692  40.991   0.908
65648W        W37908  42.797   8.700  10.588
65649W        W37909   3.809  29.652  13.326
65650W        W37910  40.065  15.070   2.462
65651W        W37911  33.412  25.112  12.927
65652W        W37912  36.829  21.037  10.587
65653W        W37913  23.921  20.275   4.618
65654W        W37914  40.908  31.281  14.863
65655W        W37915   1.895  14.629   4.659
65656W        W37916  39.785  27.675   2.607
65657W        W37917   3.063  38.143   2.790
65658W        W37918  26.069  19.155  13.739
65659W        W37919  40.788   1.008  13.030
65660W        W37920   8.821   6.789  13.998
65661W        W37921  28.533  26.949   3.321
65662W        W37922  20.858  18.249   4.250
65663W        W37923  28.952  20.628  14.260
65664W        W37924   4.258  37.797   1.919
65665W        W37925  18.529  38.896  11.217
65666W        W37926  29.518  22.728  11.657
65667W        W37927  35.468   3.211  11.186
65668W        W37928  26.574  42.792   1.886
65669W        W37929  40.529  36.066  11.564
65670W        W37930   7.663   3.899  13.250
65671W        W37931   3.331  18.462  12.416
65672W        W37932   3.027  39.447  14.458
65673W        W37933  37.176  18.750   3.667
65674W        W37934  36.497  33.337   3.608
65675W        W37935   5.995   9.792  12.528
65676W        W37936  29.055  42.222  14.071
65677W        W37937  27.989  18.918  13.678
65678W        W37938   3.476  34.061   0.272
65679W        W37939  28.725  26.706  11.548
65680W        W37940  23.651  35.066   1.750
65681W        W37941   5.368  35.316  13.083
65682W        W37942  23.821   4.674   1.394
65683W        W37943   3.895  23.561  10.975
65684W        W37944  19.401  17.054  11.385
65685W        W37945  21.802  18.179  13.627
65686W        W37946  23.036  13.925  11.245
65687W        W37947   6.476   0.904  11.152
65688W        W37948   1.984  24.015  10.747
65689W        W37949  15.357  11.142  14.941
65690W        W37950  38.462  19.868  12.019
65691W        W37951   3.852  39.987   4.933
65692W        W37952  20.553  39.071  13.942
65693W        W37953  33.372  14.955  13.804
65694W        W37954  29.270  29.722   4.233
65695W        W37955  25.044   6.860  14.603
65696W        W37956  14.417  22.694   2.211
65697W        W37957   3.284  44.447   2.824
65698W        W37958  43.258  41.571   1.197
65699W        W37959  38.541  28.054   5.062
65700W        W37960   8.372  37.799   0.504
65701W        W37961  28.398  35.535   0.765
65702W        W37962  38.893  21.021  11.630
65703W        W37963  27.908  41.089   1.356
65704W        W37964  35.314  34.142   3.743
65705W        W37965   3.816  20.959   0.006
65706W        W37966  27.945  15.996   2.275
65707W        W37967  22.269   8.313   2.944
65708W        W37968  28.256  44.726  14.275
65709W        W37969  42.810   1.220   2.721
65710W        W37970  12.221  42.454   1.265
65711W        W37971   7.295   9.061   3.718
65712W        W37972   8.919  41.981   1.390
65713W        W37973  27.473  32.720  12.870
65714W        W37974   4.689   5.181   4.911
65715W        W37975  35.863  35.375   4.586
65716W        W37976   0.758  43.910   0.382
65717W        W37977  28.457  30.400  10.696
65718W        W37978  27.486  36.801   3.298
65719W        W37979   7.738  30.131   3.198
65720W        W37980  27.127  18.327  13.541
65721W        W37981  20.532   8.176   1.671
65722W        W37982   0.600  39.024   4.478
65723W        W37983   5.689  20.814  13.433
65724W        W37984  14.015   0.801   3.389
65725W        W37985  18.116  37.981   0.445
65726W        W37986  33.165  30.979  13.554
65727W        W37987  31.268  36.125   4.599
65728W        W37988   1.384  17.219  14.267
65729W        W37989   7.744  30.919   4.494
65730W        W37990  16.829  14.421  10.175
65731W        W37991  26.189  24.465   0.183
65732W        W37992  13.751  38.928  10.921
65733W        W37993   4.783  16.213  13.739
65734W        W37994  28.063  13.024  12.036
65735W        W37995  35.593  33.512   3.966
65736W        W37996  37.034   5.014  10.158
65737W        W37997  27.557  18.191  14.472
65738W        W37998  28.879   9.890   4.707
65739W        W37999   3.695   6.745   0.465
65740W        W38000   9.295  11.267  13.838
65741W        W38001  24.101  11.568  12.517
65742W        W38002  13.725  33.105  10.497
65743W        W38003  32.916  31.368  12.849
65744W        W38004  28.579  19.201   1.674
65745W        W38005  30.921  15.956   0.737
65746W        W38006   9.290  25.469   3.990
65747W        W38007  17.544  14.241  10.692
65748W        W38008  17.502  44.699   0.784
65749W        W38009  41.880  20.610   1.856
65750W        W38010  43.336  13.714   4.133
65751W        W38011  40.128   3.892   3.621
65752W        W38012   1.326  36.791  11.219
65753W        W38013   2.441  43.690   3.580
65754W        W38014  25.752  17.527  14.273
65755W        W38015   6.873  11.769   1.183
65756W        W38016   4.148   9.668  14.037
65757W        W38017  24.271  10.231  14.934
65758W        W38018  13.899  37.864  10.975
65759W        W38019  34.685  38.959   4.137
65760W        W38020  32.620  29.870   3.278
65761W        W38021  10.288   1.596   4.286
65762W        W38022  29.758  12.165   3.781
65763W        W38023  23.569  19.182  10.261
65764W        W38024   5.602  40.285  13.407
65765W        W38025  10.218  37.056   1.754
65766W        W38026   6.893  20.756  13.886
65767W        W38027   7.832  19.310  11.898
65768W        W38028  16.340  36.829   1.165
65769W        W38029   0.610  30.182  11.777
65770W        W38030  17.629   4.493  12.432
65771W        W38031  44.251  32.899   1.752
65772W        W38032  29.060  33.380   0.812
65773W        W38033  13.315  41.458   0.449
65774W        W38034  27.177   6.058  12.045
65775W        W38035  26.887  21.953  11.528
65776W        W38036  26.778   3.416  14.430
65777W        W38037  39.549   3.659   1.677
65778W        W38038   3.927  17.616   4.193
65779W        W38039  15.691  10.369   3.192
65780W        W38040  27.393   3.284  13.080
65781W        W38041   7.454  29.680  13.218
65782W        W38042   7.716  17.772  11.701
65783W        W38043  10.588  25.060  10.584
65784W        W38044  39.358  23.504  11.957
65785W        W38045  25.090   0.449  12.611
65786W        W38046  10.852   3.364  10.304
65787W        W38047  33.134   4.428  13.332
65788W        W38048  14.730  38.133  13.592
65789W        W38049  44.505  27.422   4.780
65790W        W38050   6.346  34.070  11.377
65791W        W38051  39.441  12.213  12.489
65792W        W38052   9.643  17.872   3.310
65793W        W38053  22.767  32.459   0.851
65794W        W38054   9.078   7.093   2.695
65795W        W38055  24.687  35.258  12.454
65796W        W38056  27.627  25.221  11.768
65797W        W38057  44.013  36.406   1.255
65798W        W38058  11.101   3.855  13.421
65799W        W38059  33.029  37.586   2.310
65800W        W38060  17.410   2.398   2.146
65801W        W38061   8.105  22.059   2.111
65802W        W38062  15.578  37.844   4.277
65803W        W38063  42.608   9.872  11.840
65804W        W38064  20.045  23.766  14.366
65805W        W38065  20.661   8.628   2.420
65806W        W38066  34.041  42.174  14.440
65807W        W38067  29.357   3.272  12.572
65808W        W38068  12.346  43.087  12.040
65809W        W38069  19.062   1.299  12.568
65810W        W38070  42.284  22.177   3.971
65811W        W38071  37.560  25.082  14.967
65812W        W38072  21.894  39.753   4.274
65813W        W38073  14.174  21.767   4.646
65814W        W38074  12.269  28.981  12.460
65815W        W38075  43.218  35.400  11.409
65816W        W38076  32.358  15.305  12.681
65817W        W38077  19.863  41.595   2.958
65818W        W38078  37.482  37.389  13.155
65819W        W38079  35.513  25.601   3.153
65820W        W38080  11.834  13.303   1.282
65821W        W38081  40.868  23.917  11.595
65822W        W38082  12.071  25.517   1.286
65823W        W38083   0.301  44.316   3.309
65824W        W38084   6.626  38.771   4.108
65825W        W38085  41.056   3.367   0.840
65826W        W38086  12.283  32.036   0.138
65827W        W38087   4.088   2.498  12.885
65828W        W38088  40.500  35.062   0.894
65829W        W38089  29.595  20.197  11.581
65830W        W38090  44.174   4.423   2.780
65831W        W38091   2.748  14.984  12.898
65832W        W38092  29.406  40.381  14.094
65833W        W38093  39.984  32.846  14.088
65834W        W38094   2.707   1.414  12.034
65835W        W38095  18.017  26.688   4.464
65836W        W38096   0.621  38.920   1.725
65837W        W38097  13.898  22.318   3.836
65838W        W38098  35.138  34.136  14.483
65839W        W38099  25.182  23.042   4.325
65840W        W38100   8.159  22.964   1.715
65841W        W38101  22.305  24.148   4.584
65842W        W38102   0.005  12.247  14.247
65843W        W38103   4.026  28.580   1.310
65844W        W38104  42.212   6.497   4.024
65845W        W38105  38.031  42.764  11.170
65846W        W38106  32.246  31.216   2.699
65847W        W38107   3.513  32.146   1.659
65848W        W38108  41.602  24.047  11.530
65849W        W38109  20.739  21.682   1.356
65850W        W38110  32.150   6.208   1.227
65851W        W38111   0.299  36.973   1.426
65852W        W38112  10.204   9.191  12.900
65853W        W38113   9.609   8.181  13.929
65854W        W38114  21.238  23.950   2.128
65855W        W38115  36.550  43.338   0.114
65856W        W38116  29.483  40.879   3.108
65857W        W38117  40.086   6.525  12.332
65858W        W38118  42.018  39.491  10.676
65859W        W38119  44.232  20.030  11.202
65860W        W38120  33.341  34.456  11.109
65861W        W38121   2.692  17.486   0.414
65862W        W38122  29.963   0.328   2.388
65863W        W38123  38.399  29.148  12.359
65864W        W38124  44.210  10.014   1.881
65865W        W38125  30.629  32.452  11.472
65866W        W38126   0.315  24.598   2.484
65867W        W38127  18.626  35.589   1.919
65868W        W38128  15.931  41.983   0.028
65869W        W38129  12.774  12.913  11.659
65870W        W38130  14.129  42.496   2.801
65871W        W38131  38.298  41.015   3.900
65872W        W38132  25.760  43.870   2.692
65873W        W38133  37.568   9.230  11.643
65874W        W38134  14.872  27.010   3.580
65875W        W38135   1.220  35.440  14.466
65876W        W38136  26.705  22.130   4.483
65877W        W38137   3.609  11.301   3.886
65878W        W38138  15.606  37.642  11.259
65879W        W38139   3.929   1.968  13.423
65880W        W38140   8.267   0.656  11.187
65881W        W38141  24.733  39.115   1.672
65882W        W38142  36.560  27.511   3.075
65883W        W38143  43.154   6.753   2.479
65884W        W38144  21.500  14.610  12.607
65885W        W38145   7.414  10.233  14.300
65886W        W38146   4.178   1.468   3.126
65887W        W38147   7.953  20.421  12.826
65888W        W38148   8.357   0.237   0.946
65889W        W38149  10.878  27.385   3.127
65890W        W38150  43.067  17.539  11.040
65891W        W38151   7.893  30.597  11.970
65892W        W38152  32.629   1.138  12.013
65893W        W38153   9.157  33.812  13.924
65894W        W38154   9.233  20.610  11.637
65895W        W38155  26.131   8.194   4.062
65896W        W38156  35.747  19.476   1.202
65897W        W38157  25.278  17.158  12.128
65898W        W38158  29.986  24.097   4.748
65899W        W38159  20.591  23.994   4.602
65900W        W38160  35.809  29.452  11.220
65901W        W38161  10.141  36.517   0.854
65902W        W38162  21.006   5.496   4.569
65903W        W38163  32.110  22.973  13.337
65904W        W38164  17.204  11.135   0.523
65905W        W38165  34.514  34.083  10.497
65906W        W38166   2.227   5.660  13.373
65907W        W38167  10.933   4.432  12.080
65908W        W38168   4.905  28.601  10.413
65909W        W38169   9.877  17.157  12.338
65910W        W38170  30.598  32.144   2.614
65911W        W38171  35.289  32.405   3.045
65912W        W38172  38.253  27.692  14.023
65913W        W38173  15.837  32.840  13.048
65914W        W38174  30.606  32.685   1.752
65915W        W38175  28.541  30.095  12.054
65916W        W38176  38.956  10.267   2.561
65917W        W38177  13.090  16.101   0.789
65918W        W38178   5.362   2.761   1.659
65919W        W38179  26.920  17.257   2.385
65920W        W38180  34.689  44.559   3.800
65921W        W38181  13.066  41.862   3.332
65922W        W38182  30.223   8.229   2.269
65923W        W38183  35.352  17.158   2.725
65924W        W38184  24.614  22.112  10.692
65925W        W38185  17.662   5.913  11.426
65926W        W38186  26.693   1.477  14.468
65927W        W38187  28.398   7.098  11.599
65928W        W38188  44.375  16.039   1.841
65929W        W38189  37.986  37.005   4.569
65930W        W38190  29.381  40.353   4.975
65931W        W38191  42.027  31.113   2.872
65932W        W38192  25.713  43.456  10.947
65933W        W38193  31.312  34.132   3.247
65934W        W38194  27.198  32.514  12.477
65935W        W38195  19.883  34.421   0.778
65936W        W38196  36.599  14.799   1.273
65937W        W38197  10.622  33.059  14.563
65938W        W38198   2.450  32.055  13.452
65939W        W38199  35.521  35.368  11.160
65940W        W38200  28.440  30.344   0.204
65941W        W38201  32.700  22.469  11.146
65942W        W38202  18.165  17.746   3.409
65943W        W38203  30.912  20.098   2.701
65944W        W38204  26.113  22.589  12.506
65945W        W38205  38.360   2.457   4.021
65946W        W38206  28.023  22.153   0.866
65947W        W38207  17.700  21.136   0.525
65948W        W38208   4.634  14.520   0.853
65949W        W38209  23.603  23.120  14.848
65950W        W38210  26.732  42.634  13.943
65951W        W38211  25.623  10.429   3.839
65952W        W38212  42.113  20.127   1.747
65953W        W38213  29.360  26.787   2.360
65954W        W38214  18.833   9.747   4.602
65955W        W38215  38.413  17.692   4.780
65956W        W38216  27.062   3.163  12.702
65957W        W38217  18.516  16.583   3.824
65958W        W38218  36.337  29.981   0.223
65959W        W38219  10.169  17.604  14.034
65960W        W38220   9.936  42.767   3.257
65961W        W38221  34.907  38.107  14.934
65962W        W38222  25.406  22.716   3.771
65963W        W38223  43.874  10.444   2.910
65964W        W38224  44.362   5.681  10.724
65965W        W38225  44.109  19.719   4.924
65966W        W38226  40.715  10.811   0.478
65967W        W38227  22.746  42.962  12.055
65968W        W38228  29.533  43.332  12.850
65969W        W38229  11.352  25.933  14.883
65970W        W38230  27.674  23.201  14.470
65971W        W38231  42.562   8.652   2.869
65972W        W38232  34.155  12.614  10.758
65973W        W38233  14.200   1.299   3.270
65974W        W38234  43.876   2.840  11.867
65975W        W38235  27.735  27.224   2.918
65976W        W38236  23.432  41.274  13.800
65977W        W38237  25.435   7.120   1.295
65978W        W38238  39.130  44.525   0.732
65979W        W38239  22.139  40.029   2.165
65980W        W38240  21.671   7.233  13.359
65981W        W38241   0.437  29.898   4.209
65982W        W38242   7.395  20.995  13.010
65983W        W38243  31.935  30.575   3.322
65984W        W38244  36.475   4.320   1.646
65985W        W38245   3.930  14.255  12.177
65986W        W38246   2.665  27.920  14.403
65987W        W38247   4.714   3.428   0.662
65988W        W38248  11.386  19.836   3.148
65989W        W38249  37.140  30.434   2.261
65990W        W38250  20.117  10.174   0.964
65991W        W38251  44.010   4.686   3.666
65992W        W38252  32.484  26.569   1.640
65993W        W38253  29.900  21.413  11.994
65994W        W38254  35.826  28.068   1.225
65995W        W38255  11.176   9.867   2.836
65996W        W38256  25.914  41.324   1.237
65997W        W38257  39.297  39.849  14.441
65998W        W38258   0.815  11.477   3.230
65999W        W38259  21.718  44.343  13.539
66000W        W38260  24.691  24.994   0.775
66001W        W38261  35.180   9.736   4.932
66002W        W38262  44.690   4.209  10.813
66003W        W38263   9.730  26.254  12.832
66004W        W38264  41.601  30.863  12.114
66005W        W38265  10.075  25.978  10.646
66006W        W38266  12.606  13.334   2.195
66007W        W38267  27.935  29.077  11.131
66008W        W38268   3.765  21.246  14.431
66009W        W38269  34.888  18.112   4.721
66010W        W38270   9.943  14.857   3.726
66011W        W38271  13.332  38.952   4.722
66012W        W38272  24.081   6.886  14.319
66013W        W38273  18.663  44.274  11.822
66014W        W38274  16.278  33.697   0.174
66015W        W38275  38.346   6.863  13.133
66016W        W38276  25.540  41.337   5.069
66017W        W38277  38.348  22.401  10.724
66018W        W38278  42.597  13.382   1.685
66019W        W38279  33.883   0.749   2.719
66020W        W38280  13.283  37.311   3.991
66021W        W38281  14.771  27.260  12.827
66022W        W38282  31.437  28.329  13.086
66023W        W38283  44.451   8.836  13.898
66024W        W38284  37.359  32.193  13.171
66025W        W38285   3.309  12.542  14.386
66026W        W38286   8.204  28.167  13.180
66027W        W38287  40.437  23.950  12.087
66028W        W38288  38.307  42.365   4.319
66029W        W38289  13.879   7.911  11.506
66030W        W38290  12.403   9.301   2.656
66031W        W38291  22.605  13.754   2.864
66032W        W38292  38.268  20.861   0.058
66033W        W38293  20.104   3.453   2.905
66034W        W38294  38.422  26.780  13.962
66035W        W38295  26.016  10.591  14.822
66036W        W38296  11.826  19.186   2.079
66037W        W38297  30.618  21.710   2.720
66038W        W38298  33.680   8.760  12.888
66039W        W38299  41.080  31.582  14.410
66040W        W38300  43.547  36.128   1.044
66041W        W38301   6.950   8.844  13.001
66042W        W38302  19.354  15.901  10.849
66043W        W38303  44.864  41.890   4.147
66044W        W38304  18.896  23.101  14.877
66045W        W38305  31.549  19.985   2.341
66046W        W38306  39.349  40.800  11.583
66047W        W38307  20.351  16.814   3.255
66048W        W38308  11.429   5.209  11.194
66049W        W38309  23.787  44.787  13.084
66050W        W38310  30.585  39.363   0.253
66051W        W38311  43.246  24.578   4.873
66052W        W38312   8.936   0.402   4.361
66053W        W38313  12.061  20.721   0.310
66054W        W38314  39.857  40.571  12.955
66055W        W38315  41.675  40.610  10.466
66056W        W38316  22.038  37.436   4.642
66057W        W38317  37.697  31.284   3.291
66058W        W38318  30.583  42.290   0.821
66059W        W38319   2.723   8.418   1.818
66060W        W38320  44.196  37.124   3.387
66061W        W38321  14.226  11.766  14.678
66062W        W38322   0.251   3.698   1.793
66063W        W38323  35.518  25.721   1.767
66064W        W38324   1.944  10.103   0.262
66065W        W38325  38.151  41.751   3.247
66066W        W38326  34.503   0.355   4.080
66067W        W38327  22.265  12.800  14.383
66068W        W38328   2.359  22.165  12.015
66069W        W38329   8.938   5.638   3.673
66070W        W38330  38.177  34.904  14.226
66071W        W38331  25.756  31.886   1.308
66072W        W38332  19.726  16.326  11.089
66073W        W38333  11.297  18.172   3.916
66074W        W38334  22.823  23.350   4.009
66075W        W38335  21.405   7.709  13.367
66076W        W38336  21.933  13.669  14.128
66077W        W38337   9.907  40.187   1.809
66078W        W38338  12.571  44.984   3.108
66079W        W38339   7.849  30.071  14.859
66080W        W38340  28.411  25.170   1.585
66081W        W38341  17.226  38.986   3.648
66082W        W38342  42.370   1.878   2.175
66083W        W38343  38.572  14.776   0.845
66084W        W38344  14.581   8.090   0.189
66085W        W38345  18.255   4.786   0.210
66086W        W38346  18.643  23.993   2.232
66087W        W38347  18.220   7.182  10.735
66088W        W38348  33.430   9.142   0.960
66089W        W38349  27.990  42.909  13.463
66090W        W38350  37.272  25.714   4.562
66091W        W38351  28.404  36.464  13.272
66092W        W38352  21.660  37.584  11.689
66093W        W38353  26.230   0.261  11.588
66094W        W38354  32.484  12.270  12.062
66095W        W38355  31.911  24.572   4.142
66096W        W38356  19.102  27.968  11.056
66097W        W38357  13.787  17.862   0.690
66098W        W38358   9.653   9.484  10.591
66099W        W38359  12.866  17.663   0.265
66100W        W38360  43.920  39.778   0.263
66101W        W38361  14.714   9.106   2.015
66102W        W38362  33.514   9.129  13.240
66103W        W38363  40.264   8.607   3.715
66104W        W38364   6.748  26.641  14.006
66105W        W38365   4.368  28.273  11.046
66106W        W38366  39.672  27.573  12.889
66107W        W38367   9.148  32.159  13.445
66108W        W38368  26.931  44.243  12.609
66109W        W38369  18.800   6.457   3.456
66110W        W38370  18.182   5.336  14.466
66111W        W38371  21.092   4.224   3.191
66112W        W38372  20.082  29.490   4.257
66113W        W38373  44.811   6.977   2.748
66114W        W38374  22.909  37.438  12.945
66115W        W38375  20.361  10.692   1.611
66116W        W38376  26.574  40.943   2.140
66117W        W38377  27.722   0.321   3.746
66118W        W38378   2.248  34.116   4.641
66119W        W38379  21.328   5.777  10.973
66120W        W38380  10.786  11.622  10.767
66121W        W38381  24.673   3.984   4.522
66122W        W38382   4.011   9.698   3.723
66123W        W38383  28.170   9.129   1.786
66124W        W38384  38.934   2.154   3.114
66125W        W38385  14.549  13.225   4.097
66126W        W38386  11.623  16.081   1.806
66127W        W38387  11.308   2.778  14.477
66128W        W38388  25.808  11.098   0.327
66129W        W38389  21.275  30.286   3.992
66130W        W38390   5.792  41.325   4.751
66131W        W38391  17.999  39.752   0.307
66132W        W38392  21.708   5.242  13.337
66133W        W38393  27.853  10.132   4.664
66134W        W38394  12.265  13.227   4.704
66135W        W38395   1.817  21.267   3.720
66136W        W38396   8.196  21.256  14.824
66137W        W38397   3.715  34.008  10.697
66138W        W38398  22.036   1.692   3.711
66139W        W38399   9.155   8.875  12.063
66140W        W38400  14.032  16.610   0.734
66141W        W38401  35.399   0.398  11.908
66142W        W38402  39.517   9.611   2.754
66143W        W38403  34.645  24.580   3.370
66144W        W38404  32.133  33.815  10.940
66145W        W38405  34.146  38.927   0.432
66146W        W38406  25.275  12.336  14.902
66147W        W38407  20.711  33.431   2.266
66148W        W38408  44.461  34.556   1.322
66149W        W38409   3.018  23.586  12.576
66150W        W38410  44.247  16.696  12.073
66151W        W38411  27.744   7.745  13.982
66152W        W38412   5.866  13.849   1.539
66153W        W38413   0.254  26.222   0.223
66154W        W38414  38.808  34.989  12.150
66155W        W38415   6.644  20.756   2.826
66156W        W38416  33.378  43.735  12.938
66157W        W38417  42.320  14.752  12.930
66158W        W38418  43.719   2.807  12.857
66159W        W38419  31.799   0.909   0.398
66160W        W38420  17.650  21.481   4.194
66161W        W38421  15.831  32.581   3.222
66162W        W38422  37.454  18.769  14.275
66163W        W38423  13.149  28.150  13.719
66164W        W38424  13.578  36.565  14.017
66165W        W38425   9.599  39.305   1.805
66166W        W38426  33.489  43.572   4.652
66167W        W38427  15.782   3.302   3.778
66168W        W38428  19.216   4.409  13.836
66169W        W38429  10.171  14.344   3.389
66170W        W38430   2.979   5.311  11.679
66171W        W38431  10.897  39.094  11.083
66172W        W38432  33.906  43.430  13.526
66173W        W38433  36.965  33.719   2.321
66174W        W38434   6.412  19.118  12.533
66175W        W38435  24.520  41.244   2.753
66176W        W38436  14.937  15.686  10.664
66177W        W38437   2.090  33.094  13.766
66178W        W38438   9.646  17.330  11.414
66179W        W38439  34.851  23.807  10.428
66180W        W38440  44.177  11.536   0.668
66181W        W38441  18.819  25.583  10.914
66182W        W38442   6.618  33.564   3.449
66183W        W38443  24.114  24.981  13.415
66184W        W38444  37.595  13.623  12.090
66185W        W38445  14.251   4.722  14.410
66186W        W38446  44.064  11.090  14.331
66187W        W38447  39.389   7.250   5.565
66188W        W38448   1.905  25.796  12.197
66189W        W38449  15.112   2.100  13.386
66190W        W38450  11.626  40.027   2.624
66191W        W38451  42.823  26.471  13.412
66192W        W38452  27.623  30.367   4.679
66193W        W38453   4.972  10.595  10.758
66194W        W38454  44.001  33.550  14.115
66195W        W38455  36.839   2.684  11.079
66196W        W38456  26.586  32.650   1.988
66197W        W38457  21.205  23.267   1.442
66198W        W38458  13.563  27.390   0.491
66199W        W38459  16.126  27.003   4.222
66200W        W38460  18.673  22.725  12.315
66201W        W38461  19.168  21.002   4.539
66202W        W38462  10.864  26.547  14.407
66203W        W38463  34.787  43.775   2.415
66204W        W38464  20.071  23.236   0.221
66205W        W38465  35.965  20.196   2.251
66206W        W38466  31.830  10.719  14.971
66207W        W38467  29.463  42.289  11.681
66208W        W38468  29.622  10.821   1.655
66209W        W38469  26.654   8.441   2.290
66210W        W38470  18.667  35.790  12.392
66211W        W38471  30.287  31.493  14.241
66212W        W38472  44.723  27.561   0.296
66213W        W38473  41.099  37.581   2.271
66214W        W38474   1.306  15.870   4.594
66215W        W38475  17.723  11.475  14.513
66216W        W38476   6.826  41.010   4.345
66217W        W38477  25.613  19.925  13.772
66218W        W38478  21.725  27.177   5.076
66219W        W38479  11.117   9.361  13.739
66220W        W38480  27.668  15.795  11.634
66221W        W38481  43.413  12.734   0.773
66222W        W38482   4.377   4.243  11.507
66223W        W38483  37.824  28.902  13.074
66224W        W38484   2.590  20.488   1.302
66225W        W38485  41.915  25.884  11.016
66226W        W38486  44.911  24.460  13.857
66227W        W38487  43.070  39.856   0.675
66228W        W38488  25.487  11.699  13.443
66229W        W38489  26.552  19.623   0.762
66230W        W38490  35.792  19.699   4.572
66231W        W38491   3.931  39.651  13.966
66232W        W38492  17.077  16.750   1.368
66233W        W38493   2.044   7.346  13.010
66234W        W38494  22.543  18.623  10.696
66235W        W38495   1.334  28.827   4.564
66236W        W38496  21.001  18.273  13.354
66237W        W38497  37.959   6.451  13.888
66238W        W38498  36.513  21.876  13.685
66239W        W38499  29.134   9.357   1.932
66240W        W38500  41.098  12.589   0.401
66241W        W38501  24.726  19.703   1.461
66242W        W38502   6.320  40.333   3.777
66243W        W38503  27.909  23.667  14.595
66244W        W38504  41.531  19.032   2.633
66245W        W38505  35.931   5.937   0.045
66246W        W38506   6.724  40.791  10.588
66247W        W38507  36.352  25.670   2.735
66248W        W38508  22.986  12.620   2.775
66249W        W38509  15.388  13.851  10.274
66250W        W38510  18.131  43.383   1.820
66251W        W38511  23.555  17.108  12.400
66252W        W38512  37.615   1.824  12.897
66253W        W38513  23.577  27.231  14.859
66254W        W38514  42.342  18.227  13.556
66255W        W38515  36.886  24.949   1.609
66256W        W38516  11.889   1.002   0.769
66257W        W38517  25.245  43.264  11.080
66258W        W38518   3.948  24.483   0.770
66259W        W38519  18.604  32.586  11.891
66260W        W38520  32.128  14.201  11.855
66261W        W38521   2.829  18.677   3.296
66262W        W38522   1.809  15.218   2.866
66263W        W38523  24.090  12.385  11.578
66264W        W38524  31.406  30.637   3.494
66265W        W38525   6.301  28.045   2.085
66266W        W38526   5.532  38.776   2.844
66267W        W38527  37.020  42.495  11.194
66268W        W38528   4.943  19.562  12.908
66269W        W38529  10.175  26.069   0.509
66270W        W38530  37.093  27.740  14.947
66271W        W38531   1.451  23.587  12.447
66272W        W38532   2.677  32.515   1.723
66273W        W38533   9.604  11.301  12.872
66274W        W38534  10.081  30.490  13.388
66275W        W38535   5.951  16.281   3.810
66276W        W38536  19.670  41.242   2.130
66277W        W38537   0.240  14.338   2.755
66278W        W38538  33.294  18.640   1.869
66279W        W38539  35.145   7.693   0.986
66280W        W38540   0.734  13.379   3.712
66281W        W38541  22.280  10.840   1.210
66282W        W38542  42.922  17.061  11.200
66283W        W38543  30.966   6.759  12.064
66284W        W38544  24.630  11.835   3.779
66285W        W38545  15.914   7.470   4.168
66286W        W38546  28.278  17.988   5.019
66287W        W38547  26.940  14.209  12.361
66288W        W38548   6.980  11.975   4.813
66289W        W38549  35.282  19.847   4.621
66290W        W38550   5.457  17.167   2.263
66291W        W38551  41.794  20.258  13.920
66292W        W38552   1.449  20.309  11.592
66293W        W38553  26.556   8.659  11.567
66294W        W38554  30.568  12.668   0.218
66295W        W38555  19.622   1.448   3.550
66296W        W38556   4.372  16.796   1.927
66297W        W38557  30.771  30.861  11.182
66298W        W38558  35.446  32.485  14.953
66299W        W38559  26.739   4.415   1.860
66300W        W38560  14.126  10.642  11.502
66301W        W38561  25.768  41.952   9.858
66302W        W38562   8.647  44.715   0.396
66303W        W38563   5.676   9.632   2.770
66304W        W38564  41.989   8.592   3.355
66305W        W38565  30.569  32.644  12.352
66306W        W38566  19.746   1.473  13.619
66307W        W38567   8.818  37.779   2.348
66308W        W38568  25.065  30.643   1.298
66309W        W38569  41.345  21.965   1.715
66310W        W38570  13.908  35.258  14.723
66311W        W38571  22.213  22.969  13.488
66312W        W38572  20.023   8.177  14.429
66313W        W38573   1.522   3.602   2.783
66314W        W38574  25.471   8.822   1.211
66315W        W38575  16.468  10.650   3.589
66316W        W38576  16.766  20.688  13.943
66317W        W38577  35.244  29.179  11.580
66318W        W38578  37.289  24.273   3.167
66319W        W38579  27.620   1.026   3.633
66320W        W38580  28.687  18.776  14.010
66321W        W38581  28.543   6.226  13.882
66322W        W38582  23.491  21.533   4.751
66323W        W38583   9.893  24.401  10.788
66324W        W38584  25.526  32.555  12.700
66325W        W38585  30.192  28.011  11.043
66326W        W38586  25.414   5.197  13.170
66327W        W38587  30.129  24.676   2.898
66328W        W38588  16.749  32.935   0.372
66329W        W38589  10.889  25.486  11.493
66330W        W38590   4.727  37.180   4.177
66331W        W38591  32.897  41.793   1.663
66332W        W38592  38.270  15.329   4.968
66333W        W38593  24.634  18.561   2.980
66334W        W38594  14.005   1.083  11.220
66335W        W38595   0.436   7.750  14.121
66336W        W38596  37.446  34.490  12.018
66337W        W38597  16.470  26.657   4.634
66338W        W38598   8.406  40.747  12.661
66339W        W38599   5.766  43.245  14.676
66340W        W38600  21.644   7.406  14.670
66341W        W38601  43.429  39.100  14.461
66342W        W38602   4.543  28.874  11.627
66343W        W38603  30.638  31.453   0.448
66344W        W38604  14.750  42.773   1.728
66345W        W38605  26.830   3.886   2.162
66346W        W38606   6.339   1.317   4.395
66347W        W38607   0.719  30.467   1.880
66348W        W38608   7.458  41.978  14.300
66349W        W38609   1.732   0.410   0.790
66350W        W38610   2.197   0.188  12.909
66351W        W38611  24.004   9.368   3.058
66352W        W38612  13.236   0.106   1.956
66353W        W38613  32.504  37.597  14.000
66354W        W38614  18.172  24.634   0.825
66355W        W38615  38.422  37.447  12.871
66356W        W38616   8.166  20.723   1.021
66357W        W38617  20.167  12.744  13.388
66358W        W38618  22.489   8.727   4.204
66359W        W38619   6.911  28.268   0.411
66360W        W38620  23.213  29.521   0.264
66361W        W38621  24.582  20.658  12.328
66362W        W38622  18.080  22.145   2.199
66363W        W38623   6.331  36.936   0.881
66364W        W38624  25.661  25.155   4.986
66365W        W38625  11.296  32.268   2.831
66366W        W38626  31.939  44.290   1.699
66367W        W38627  28.387  24.620   4.761
66368W        W38628  29.245  40.989  14.327
66369W        W38629   3.764  16.826   3.627
66370W        W38630  29.935  37.054  11.255
66371W        W38631  32.398  38.259   0.738
66372W        W38632  14.340  19.565  13.862
66373W        W38633   1.797  24.047  11.238
66374W        W38634  16.214  38.783   3.655
66375W        W38635  22.202   9.165  14.436
66376W        W38636  43.920  26.066  10.709
66377W        W38637  39.497  26.061  10.766
66378W        W38638  34.112  15.685  14.497
66379W        W38639  36.036  41.719   1.265
66380W        W38640  23.695   3.513  13.406
66381W        W38641  40.883  11.915  12.952
66382W        W38642   5.424  19.319  10.674
66383W        W38643   4.516  36.141   0.681
66384W        W38644  42.747  12.243   0.302
66385W        W38645   4.979  13.029   4.194
66386W        W38646  13.267  14.587   1.322
66387W        W38647  24.260  19.688  12.409
66388W        W38648  12.116   9.887  12.865
66389W        W38649  38.805  35.880  11.213
66390W        W38650  31.314  21.618  14.411
66391W        W38651  16.943  18.073  14.981
66392W        W38652  43.776  38.874   1.907
66393W        W38653  38.954  40.008  11.584
66394W        W38654  26.933  16.234  11.587
66395W        W38655   2.324  39.652  12.105
66396W        W38656  29.729  16.245   0.320
66397W        W38657  14.834  18.008   2.232
66398W        W38658  43.481  28.005   3.425
66399W        W38659   6.233   1.504  13.375
66400W        W38660   9.432  30.016  14.357
66401W        W38661  28.103  37.074  10.697
66402W        W38662   6.863  12.376   3.381
66403W        W38663  40.854  35.714   1.511
66404W        W38664  33.412   9.249   4.673
66405W        W38665   2.203  41.365  11.206
66406W        W38666  41.100  12.934   2.293
66407W        W38667  20.656   8.869   3.435
66408W        W38668  29.038  15.816  11.448
66409W        W38669  21.266  12.238  13.924
66410W        W38670  35.674   7.158  11.112
66411W        W38671  11.705  18.703   1.902
66412W        W38672  41.294  28.679  13.267
66413W        W38673  34.678  34.223   0.442
66414W        W38674  30.721  42.636  14.257
66415W        W38675  37.487  40.142  14.455
66416W        W38676  24.020  12.313   4.073
66417W        W38677  37.528   7.816   2.945
66418W        W38678  10.846  28.922   0.202
66419W        W38679  33.932  13.511   1.867
66420W        W38680  17.107  34.293  10.879
66421W        W38681   5.735   5.938  13.081
66422W        W38682  30.721  33.500  12.586
66423W        W38683  30.901  43.204   2.305
66424W        W38684   1.509  12.565  12.162
66425W        W38685  30.990  31.400   2.414
66426W        W38686  18.040  24.125  13.386
66427W        W38687  24.774  15.981  13.388
66428W        W38688  11.657  13.310   0.759
66429W        W38689  39.426  33.871  11.690
66430W        W38690   9.839   9.094  13.857
66431W        W38691  33.541  28.463   3.832
66432W        W38692  17.254  28.968   1.697
66433W        W38693  43.916  18.270   4.137
66434W        W38694  16.560  29.043  10.779
66435W        W38695  11.322   2.252   2.310
66436W        W38696   6.196  21.114   4.614
66437W        W38697  23.802  18.146  13.410
66438W        W38698  39.524  42.988  12.065
66439W        W38699  29.534  11.181   2.820
66440W        W38700  41.484  35.036   4.967
66441W        W38701  13.736   4.516  14.348
66442W        W38702   9.395  38.904  11.946
66443W        W38703  14.970   5.372  12.069
66444W        W38704  27.484  28.181   2.767
66445W        W38705   9.300  21.977  14.440
66446W        W38706  22.711  35.262   0.158
66447W        W38707   5.783  17.687  10.690
66448W        W38708  22.022  40.317  12.034
66449W        W38709  14.359   8.281  13.842
66450W        W38710  31.270  19.610   3.394
66451W        W38711  29.505  28.087   9.894
66452W        W38712  36.432  29.404  13.960
66453W        W38713  19.139  23.611   3.890
66454W        W38714  19.314  27.627  14.851
66455W        W38715   8.775  18.692   3.820
66456W        W38716  43.540  33.542   2.788
66457W        W38717   5.448  37.506   4.525
66458W        W38718  26.910   3.161  13.217
66459W        W38719  21.592   1.384   2.376
66460W        W38720  17.527   5.491  11.705
66461W        W38721  24.585  10.164  14.501
66462W        W38722  26.743  31.984   1.394
66463W        W38723  24.507  17.976   1.895
66464W        W38724  42.305  22.190  12.973
66465W        W38725  33.336  40.759  12.478
66466W        W38726  14.232  28.937   2.393
66467W        W38727  12.632  38.494   1.885
66468W        W38728  20.324   7.684  13.358
66469W        W38729  30.166   6.382  14.070
66470W        W38730  41.839  23.639  11.095
66471W        W38731  40.713   1.923  12.404
66472W        W38732  15.568  24.298  13.441
66473W        W38733   6.262  32.836   3.182
66474W        W38734  22.647  22.507  10.652
66475W        W38735  21.339  34.594   0.654
66476W        W38736  37.327  13.260   0.096
66477W        W38737  10.781  23.231  11.392
66478W        W38738  39.876   0.451  11.987
66479W        W38739  12.124  18.356  14.456
66480W        W38740   5.060  19.636  14.372
66481W        W38741  41.796  31.159  11.336
66482W        W38742  23.800  35.547   1.623
66483W        W38743  26.386   7.724   3.648
66484W        W38744   3.358   2.892  13.322
66485W        W38745  28.283  26.694   0.258
66486W        W38746  42.952   7.674   2.221
66487W        W38747  39.515   8.312  14.516
66488W        W38748  19.239  34.580  10.627
66489W        W38749   9.041  43.370  11.879
66490W        W38750   2.129  20.751   1.275
66491W        W38751  29.164  44.466  13.309
66492W        W38752   4.356  19.276   1.015
66493W        W38753  33.586  27.089   3.827
66494W        W38754  26.270   6.518  14.957
66495W        W38755  37.547  18.403  12.881
66496W        W38756   2.031   2.819  12.684
66497W        W38757  10.876   2.611  12.047
66498W        W38758  25.513  13.935   5.071
66499W        W38759   7.164   9.602   1.856
66500W        W38760   2.368  36.153  11.136
66501W        W38761   2.119  41.580   0.411
66502W        W38762  38.130   2.340  12.210
66503W        W38763  34.012  44.036   3.744
66504W        W38764  20.674  40.659   4.260
66505W        W38765  28.546  24.238   0.257
66506W        W38766  40.346  25.976  12.012
66507W        W38767  11.774   6.360   2.222
66508W        W38768  35.940  17.369  13.914
66509W        W38769  18.307   0.127  12.493
66510W        W38770   8.144  32.721  12.425
66511W        W38771   1.399  12.438   1.354
66512W        W38772  17.818   3.957   3.836
66513W        W38773  33.044  38.986  12.834
66514W        W38774  25.562  16.127   1.448
66515W        W38775   3.713  37.932  14.981
66516W        W38776  14.042  28.596   1.737
66517W        W38777   8.837  19.008  11.164
66518W        W38778  23.797  31.419  11.697
66519W        W38779   0.906   4.154   2.419
66520W        W38780  22.606   9.920  11.957
66521W        W38781   9.625   0.645   3.195
66522W        W38782  17.611  17.656  12.221
66523W        W38783  32.801  23.246  11.403
66524W        W38784   8.107   7.211   1.228
66525W        W38785  31.408  31.982   1.955
66526W        W38786  20.916  43.933  13.601
66527W        W38787  27.065  22.582   1.219
66528W        W38788  27.318  14.295   3.138
66529W        W38789  16.058  23.006   2.650
66530W        W38790  16.644  44.966  14.379
66531W        W38791  18.309  42.618  10.384
66532W        W38792  31.717   7.337  13.955
66533W        W38793  28.647   9.311   1.806
66534W        W38794   4.368  38.402   1.255
66535W        W38795  25.657  16.028  13.381
66536W        W38796  18.867   6.047  11.498
66537W        W38797  26.252  34.516   4.564
66538W        W38798   6.965  40.858  13.548
66539W        W38799  40.058  14.796  14.939
66540W        W38800  28.599  23.457  11.101
66541W        W38801   1.380  43.910  11.596
66542W        W38802   7.953   6.680   1.317
66543W        W38803   0.707  43.552  13.613
66544W        W38804  34.845  25.724  13.924
66545W        W38805  12.334  20.637  11.649
66546W        W38806  14.766  37.535   1.377
66547W        W38807   8.126  20.134  10.656
66548W        W38808  12.481   4.700   1.235
66549W        W38809  39.517  40.354  10.154
66550W        W38810  36.513  30.941   2.613
66551W        W38811   8.104  10.569   0.834
66552W        W38812  23.126  14.223  14.512
66553W        W38813   0.777  11.390  12.761
66554W        W38814  29.603   2.950   5.006
66555W        W38815  34.986   9.521   3.344
66556W        W38816  12.082  39.780   2.733
66557W        W38817  12.334  42.664   4.079
66558W        W38818  39.107   3.516   3.452
66559W        W38819  30.394  30.557  12.637
66560W        W38820  15.351  40.269  12.175
66561W        W38821  30.077   4.768   0.389
66562W        W38822   5.721   9.313  14.928
66563W        W38823  44.089   8.139   0.815
66564W        W38824  22.728  20.127   3.327
66565W        W38825   5.194  22.157  12.122
66566W        W38826  27.166  30.851   3.291
66567W        W38827  14.933  33.194   1.869
66568W        W38828  12.825   6.097   4.755
66569W        W38829  24.205  39.908  11.587
66570W        W38830  21.130  10.461   5.021
66571W        W38831  14.540  13.628  12.978
66572W        W38832  13.189  19.121   0.318
66573W        W38833  24.629   6.161   1.583
66574W        W38834   0.335  24.681  14.088
66575W        W38835  39.343   5.243  12.097
66576W        W38836   2.654  16.293  11.449
66577W        W38837  42.433  25.663  12.340
66578W        W38838  30.936  41.003  13.039
66579W        W38839  25.197  39.208  10.100
66580W        W38840   6.842  17.200  11.248
66581W        W38841  23.296  27.155   3.743
66582W        W38842  38.016  10.919  11.295
66583W        W38843  22.617   7.116  12.836
66584W        W38844  22.745  22.507  12.696
66585W        W38845   2.285  32.551   1.336
66586W        W38846  31.047  41.282  12.188
66587W        W38847  42.461  38.999  13.630
66588W        W38848  36.795  12.233   1.005
66589W        W38849  10.803  36.008   1.623
66590W        W38850  14.242  12.123   2.674
66591W        W38851  21.307  26.235   3.666
66592W        W38852   8.258   2.683   0.651
66593W        W38853  35.642   2.254   3.360
66594W        W38854  33.020  17.018  11.226
66595W        W38855   3.690   8.819  12.855
66596W        W38856  20.678  38.596  11.174
66597W        W38857   6.650  15.436   4.497
66598W        W38858  32.451   9.855   3.981
66599W        W38859  10.698   1.311   0.009
66600W        W38860   0.944   9.124   0.805
66601W        W38861  27.914  28.842   4.115
66602W        W38862  32.371  35.982   0.654
66603W        W38863  21.423   5.243  12.370
66604W        W38864  19.550  38.994   1.842
66605W        W38865  15.575   8.701   4.487
66606W        W38866  37.551  41.349  11.979
66607W        W38867  19.308  18.086   4.166
66608W        W38868  18.047  27.201  10.456
66609W        W38869   4.666  18.335   2.330
66610W        W38870  17.707  24.030   1.214
66611W        W38871  27.157   1.679  12.357
66612W        W38872  43.330  20.815   0.726
66613W        W38873  26.639   8.170  11.428
66614W        W38874  14.080  30.615   0.763
66615W        W38875  34.340  22.621   3.307
66616W        W38876  40.763   0.464  14.610
66617W        W38877   9.252  40.369   3.898
66618W        W38878  27.160  42.067  10.437
66619W        W38879  30.505  40.242  14.912
66620W        W38880  21.227  20.130   2.241
66621W        W38881  44.754  37.987  14.804
66622W        W38882  35.331   0.159  14.535
66623W        W38883  40.967  39.317   2.057
66624W        W38884   7.888  29.632   0.521
66625W        W38885  31.976   4.147  12.131
66626W        W38886  34.460  31.301   3.677
66627W        W38887  22.179   1.113   0.867
66628W        W38888  25.759   4.882  12.896
66629W        W38889  33.828   2.088  11.161
66630W        W38890   0.010   6.244   3.081
66631W        W38891  14.899  25.748  11.142
66632W        W38892  43.289  18.284   2.731
66633W        W38893  33.583   7.621   0.011
66634W        W38894  32.888  32.415  12.340
66635W        W38895  29.116  38.862   3.409
66636W        W38896   7.476   3.463   2.242
66637W        W38897  10.318  24.339  11.098
66638W        W38898  41.581  17.844   0.515
66639W        W38899  33.134  14.106  10.992
66640W        W38900  10.794   8.859  11.355
66641W        W38901  40.255  24.713   5.099
66642W        W38902   7.865  19.420   5.101
66643W        W38903  28.093  20.924   2.347
66644W        W38904   5.458   1.880  12.470
66645W        W38905  36.548  13.828  11.905
66646W        W38906  10.335  12.238   4.760
66647W        W38907  40.019  13.594  11.235
66648W        W38908  33.478  44.021   3.625
66649W        W38909   9.336   0.451   3.982
66650W        W38910  12.080  30.168   3.468
66651W        W38911  37.209  16.230   1.160
66652W        W38912  30.642   8.623   2.448
66653W        W38913  21.505  40.864  14.823
66654W        W38914   1.953  23.238  14.024
66655W        W38915  14.365   7.821   1.857
66656W        W38916   1.547  32.668  11.588
66657W        W38917  26.075  12.236   4.627
66658W        W38918  10.366  20.234   2.309
66659W        W38919  27.589   9.059   3.939
66660W        W38920  43.586  36.437   3.796
66661W        W38921  33.430  19.423   2.324
66662W        W38922  34.509  25.656   1.897
66663W        W38923  27.675  19.184   0.072
66664W        W38924  26.624   5.347   2.373
66665W        W38925   2.937  23.486  11.156
66666W        W38926  18.051  39.128  14.527
66667W        W38927  28.950  28.044   1.016
66668W        W38928  37.819   8.766  13.910
66669W        W38929   4.264   1.245  10.799
66670W        W38930  38.956  30.779   1.450
66671W        W38931  30.060   1.213   3.624
66672W        W38932  34.435  43.388   1.343
66673W        W38933  21.159  28.441   4.504
66674W        W38934  34.952  44.761   2.840
66675W        W38935  18.806   8.299  11.238
66676W        W38936  12.156  21.950   3.283
66677W        W38937  41.899  14.729  12.077
66678W        W38938  32.933  41.829  14.726
66679W        W38939  43.552  41.465   4.559
66680W        W38940   4.107  23.692   2.292
66681W        W38941  26.577  18.019   1.216
66682W        W38942  36.771  28.961   9.995
66683W        W38943  13.239  27.382   4.146
66684W        W38944   0.331  15.728  14.017
66685W        W38945  31.327  36.323   2.334
66686W        W38946  10.397  14.083   5.048
66687W        W38947  17.136   8.706  12.444
66688W        W38948  35.563   3.639  11.911
66689W        W38949  22.695   4.472  11.538
66690W        W38950  21.641  41.589   2.332
66691W        W38951  44.495  36.561  10.511
66692W        W38952  23.222   0.745  11.640
66693W        W38953  13.356  10.605  14.974
66694W        W38954   9.110  13.621   0.816
66695W        W38955  38.551  22.994   1.914
66696W        W38956  27.143  28.873   3.233
66697W        W38957  25.499  41.587   2.879
66698W        W38958  43.287  36.203   1.757
66699W        W38959  38.341   1.268   0.510
66700W        W38960  31.821   9.424   4.198
66701W        W38961  33.430  19.862  13.814
66702W        W38962   2.833  24.535  12.087
66703W        W38963  13.376   4.772  12.419
66704W        W38964  38.901  38.100  11.180
66705W        W38965   3.845   8.251   3.152
66706W        W38966  21.443  30.121   3.499
66707W        W38967   2.228  11.657  14.640
66708W        W38968   8.622  21.812  14.083
66709W        W38969  33.265  22.946  14.038
66710W        W38970  12.126  20.992  13.669
66711W        W38971  37.873  19.982   3.300
66712W        W38972  41.043   7.787   0.239
66713W        W38973  38.933   8.168  13.450
66714W        W38974   4.294  28.045  10.544
66715W        W38975   3.451  16.548   2.129
66716W        W38976  29.994   4.375   4.012
66717W        W38977   0.001  14.546  12.576
66718W        W38978  41.464   6.132  13.549
66719W        W38979  40.246  36.934  14.015
66720W        W38980   4.350  28.222   1.923
66721W        W38981  17.064  38.925   2.711
66722W        W38982   5.893  41.800   4.577
66723W        W38983  34.009  13.268   2.411
66724W        W38984  35.844  19.229   3.170
66725W        W38985   4.294   4.754  11.620
66726W        W38986  18.967  38.515   4.148
66727W        W38987   7.440  38.945  12.081
66728W        W38988  19.997  20.776  11.039
66729W        W38989   6.965  29.979  12.401
66730W        W38990  17.388  39.550   1.934
66731W        W38991  37.487   6.760   0.298
66732W        W38992  33.760   6.253  10.750
66733W        W38993  12.679   5.241  13.437
66734W        W38994  12.808  25.621  13.799
66735W        W38995  15.115  28.133  12.962
66736W        W38996  30.413  27.863   0.778
66737W        W38997  24.823  37.455   1.802
66738W        W38998  44.613  41.398   4.997
66739W        W38999  19.750  22.886   3.757
66740W        W39000  43.088   6.097  12.140
66741W        W39001  25.110  29.549  13.095
66742W        W39002  33.410   9.907  11.038
66743W        W39003  22.497  10.146  13.743
66744W        W39004  12.539  26.568  11.601
66745W        W39005  22.150  34.806   4.357
66746W        W39006  44.857  32.536  13.817
66747W        W39007  15.837  30.098  14.301
66748W        W39008  11.268  23.315  12.627
66749W        W39009  29.544  16.005   9.985
66750W        W39010  18.420  21.773   0.349
66751W        W39011  30.398  28.891  11.544
66752W        W39012  22.209  42.898  12.911
66753W        W39013  26.458  18.414   4.720
66754W        W39014  29.715  33.551  12.605
66755W        W39015   4.048  24.928  14.434
66756W        W39016   1.947  40.122   3.703
66757W        W39017  41.806  13.079   3.265
66758W        W39018  34.121  18.316   4.196
66759W        W39019   6.343  34.529  12.065
66760W        W39020  30.951  41.910  13.009
66761W        W39021  12.594  26.606  10.672
66762W        W39022  27.727  22.500  11.942
66763W        W39023  36.627   4.989  13.878
66764W        W39024   5.249   9.802  11.103
66765W        W39025   7.874  38.811   3.328
66766W        W39026  41.782  14.567  12.960
66767W        W39027  11.148  27.622   4.544
66768W        W39028  12.768   2.330   4.593
66769W        W39029  33.233  21.881   0.788
66770W        W39030  32.693  11.279   4.640
66771W        W39031  22.990  24.772  13.872
66772W        W39032  44.416   0.334  10.694
66773W        W39033  32.042  15.604  13.566
66774W        W39034  15.238  13.974   3.345
66775W        W39035  27.067  42.875   1.694
66776W        W39036  31.502  23.048  12.545
66777W        W39037  29.599  10.349  14.872
66778W        W39038   7.268  32.163   1.256
66779W        W39039   0.473  37.659   0.168
66780W        W39040  37.930  32.492   1.906
66781W        W39041  22.933  12.926  13.603
66782W        W39042  43.854   7.376  11.422
66783W        W39043  27.329  25.798   2.814
66784W        W39044  16.343  35.823   2.277
66785W        W39045  14.289   6.578   2.723
66786W        W39046  41.816  25.240  11.625
66787W        W39047  20.542   8.422   4.304
66788W        W39048  26.648  40.030   2.124
66789W        W39049  31.091  30.714   5.014
66790W        W39050  42.954  44.960   1.351
66791W        W39051  35.899   5.128  14.275
66792W        W39052   0.021   2.262   3.929
66793W        W39053  26.981   1.867   4.151
66794W        W39054   9.975   7.425   1.865
66795W        W39055  12.602  16.054   1.736
66796W        W39056  28.814  17.801  13.941
66797W        W39057  18.697  14.562  10.403
66798W        W39058  43.222  42.740   3.774
66799W        W39059  32.021  19.671  10.679
66800W        W39060  40.424  33.491  10.782
66801W        W39061   1.568   3.932   0.269
66802W        W39062   5.110  37.485  13.317
66803W        W39063  16.841   5.298  13.351
66804W        W39064   2.353  35.026   3.303
66805W        W39065  26.024   1.749  11.126
66806W        W39066   5.393  42.766  11.537
66807W        W39067  12.755  13.378   1.313
66808W        W39068   0.434  20.740   3.918
66809W        W39069   3.758  14.262   5.179
66810W        W39070   4.339  19.055  13.417
66811W        W39071  44.919  31.332   1.182
66812W        W39072  43.346   4.790  14.876
66813W        W39073  44.841  10.017  12.053
66814W        W39074  44.304   1.506  11.460
66815W        W39075  29.818  33.084   9.955
66816W        W39076   2.723  23.682  11.830
66817W        W39077   9.149  35.379   2.375
66818W        W39078  31.255   2.608   4.702
66819W        W39079   4.745  19.115  11.945
66820W        W39080  28.537  35.464   2.385
66821W        W39081  33.848  16.579   2.287
66822W        W39082  22.803  35.992  14.893
66823W        W39083  16.691  33.958  13.225
66824W        W39084  29.125   4.820   3.783
66825W        W39085  33.721  28.266   1.405
66826W        W39086  44.326  20.746   3.313
66827W        W39087  23.004   8.383  12.844
66828W        W39088  44.371  39.511   0.431
66829W        W39089  31.120  24.063   3.739
66830W        W39090  40.996  27.539   4.106
66831W        W39091  18.690   0.304  14.851
66832W        W39092  42.970  30.045  11.918
66833W        W39093   5.223  14.633  14.702
66834W        W39094  10.251  34.600  12.880
66835W        W39095  37.352  27.990   2.168
66836W        W39096  18.663   0.268  10.683
66837W        W39097  24.028  29.758  11.467
66838W        W39098  25.948  30.239  11.570
66839W        W39099  10.454   8.293   0.857
66840W        W39100  36.157  19.333   1.951
66841W        W39101  30.467   5.470   3.738
66842W        W39102  34.336   2.175  14.511
66843W        W39103  19.307  18.811   4.905
66844W        W39104   1.446  11.378  12.121
66845W        W39105  37.933   4.300  13.543
66846W        W39106  41.953  40.308   3.213
66847W        W39107  40.402  38.093   0.888
66848W        W39108  39.963  23.633  12.419
66849W        W39109  21.831  39.410   3.254
66850W        W39110  36.894  21.740  12.626
66851W        W39111  18.103   8.303   5.467
66852W        W39112  30.129  11.930   1.925
66853W        W39113  34.030  14.471   1.996
66854W        W39114  28.205   7.791  14.705
66855W        W39115  21.855  26.967   3.268
66856W        W39116   8.251  33.238   4.510
66857W        W39117  25.836   5.193  13.441
66858W        W39118  25.578  26.640  13.107
66859W        W39119  14.218  14.644  11.459
66860W        W39120  34.536  21.738   3.528
66861W        W39121  17.616  10.681  14.116
66862W        W39122  42.402  24.726   2.646
66863W        W39123  33.160  42.940  13.284
66864W        W39124  43.352  12.585   4.057
66865W        W39125  11.795  12.751   2.183
66866W        W39126  22.617  12.717   3.669
66867W        W39127   5.174  14.953   3.915
66868W        W39128  40.464  40.929  13.843
66869W        W39129  11.678  26.967   3.222
66870W        W39130   0.381  15.319  11.689
66871W        W39131  36.803  37.075  13.936
66872W        W39132   8.644  26.711  13.988
66873W        W39133  20.270  14.277   0.350
66874W        W39134  40.792  20.680  13.858
66875W        W39135  41.959  39.582   1.269
66876W        W39136  31.513   6.353   4.386
66877W        W39137  17.289  23.318  12.065
66878W        W39138  16.742   4.731   2.362
66879W        W39139  34.877  41.900  13.875
66880W        W39140   7.899  27.945  12.375
66881W        W39141  10.774   0.711  11.927
66882W        W39142   6.160   0.316  12.123
66883W        W39143   8.279   6.237   2.627
66884W        W39144  31.899  25.686  11.184
66885W        W39145   5.701  27.035  10.173
66886W        W39146  30.896  39.437  13.767
66887W        W39147  31.610  25.218   0.396
66888W        W39148   9.610   5.147   3.299
66889W        W39149  35.559  43.221   3.336
66890W        W39150   8.395   3.211  11.651
66891W        W39151   1.343   9.688   4.370
66892W        W39152   0.345  18.452  13.824
66893W        W39153  39.875   7.375   2.722
66894W        W39154  27.079  35.084   3.394
66895W        W39155  27.571  40.868   2.442
66896W        W39156  35.127  24.060  14.431
66897W        W39157  36.485  10.796  12.951
66898W        W39158  23.096  26.131  14.374
66899W        W39159  16.958  38.637   0.774
66900W        W39160   0.426  22.413  14.392
66901W        W39161  35.534   7.956   0.795
66902W        W39162  24.120  13.205   3.467
66903W        W39163  38.635  30.875  10.436
66904W        W39164  40.250  17.557   3.388
66905W        W39165   5.751  36.550   4.116
66906W        W39166   8.132  26.533   5.405
66907W        W39167  38.076   5.905   1.493
66908W        W39168  35.827  24.685   3.530
66909W        W39169   6.150  21.666  13.790
66910W        W39170  18.638   5.499  14.183
66911W        W39171  26.580  27.437  13.655
66912W        W39172  21.223  26.023   2.347
66913W        W39173  16.743  20.622   3.770
66914W        W39174  38.446   1.765   0.386
66915W        W39175   2.294  30.954  11.703
66916W        W39176  10.144  44.525  13.802
66917W        W39177  44.615  39.838   1.398
66918W        W39178  24.628  14.690  14.069
66919W        W39179  13.106   1.214   3.274
66920W        W39180  44.299  40.911  14.376
66921W        W39181  28.348  28.008   1.374
66922W        W39182  23.065  24.594  10.377
66923W        W39183  40.198  31.334  11.157
66924W        W39184   4.821  13.821   2.733
66925W        W39185  31.944   9.445   2.886
66926W        W39186  38.813   6.834  12.450
66927W        W39187  39.837   2.145  14.907
66928W        W39188  42.536  20.586   3.657
66929W        W39189  13.842  22.376   1.355
66930W        W39190   2.841  15.911   3.271
66931W        W39191   6.858   1.265   4.676
66932W        W39192   8.309  22.310  10.592
66933W        W39193  17.865  37.980  11.446
66934W        W39194  38.531  21.231  11.184
66935W        W39195  29.647  32.483  12.423
66936W        W39196  32.846  31.556  12.370
66937W        W39197  29.654  10.312   1.425
66938W        W39198  28.211   4.095  10.795
66939W        W39199  30.030  38.978   2.296
66940W        W39200  10.275  21.248  14.410
66941W        W39201  12.614  36.905  13.916
66942W        W39202  13.615  29.694   1.433
66943W        W39203  13.338  27.706   3.296
66944W        W39204  42.188  31.194   4.500
66945W        W39205   4.303  38.988  12.561
66946W        W39206  10.282   7.379  13.957
66947W        W39207  34.129  20.261   4.173
66948W        W39208  26.081   3.187  11.125
66949W        W39209  18.967   2.906  14.282
66950W        W39210  28.622  40.991   4.471
66951W        W39211   9.857  33.458  13.576
66952W        W39212  37.890  10.622  13.792
66953W        W39213   6.702  37.910  12.360
66954W        W39214  13.749  15.425  11.661
66955W        W39215   0.715  24.475   4.573
66956W        W39216  29.418  27.898   2.281
66957W        W39217  17.551  35.943  12.538
66958W        W39218  14.580  24.519   3.165
66959W        W39219  29.933  40.611  12.643
66960W        W39220  27.100   8.850   1.233
66961W        W39221  29.956  44.687   3.808
66962W        W39222   8.246   0.510  14.063
66963W        W39223  16.725  15.859  13.269
66964W        W39224  22.820  19.764   2.019
66965W        W39225   9.865  39.423  12.218
66966W        W39226  23.549   7.824  13.497
66967W        W39227  27.633  32.030  11.546
66968W        W39228   0.974  22.476   1.395
66969W        W39229  31.135  10.507  11.218
66970W        W39230   5.880  21.438   3.152
66971W        W39231  13.886  17.858   0.189
66972W        W39232   1.044   4.845   1.468
66973W        W39233  39.195  23.567   4.089
66974W        W39234   2.671   4.467  11.927
66975W        W39235   1.476  13.170  14.768
66976W        W39236  35.314   8.294  14.314
66977W        W39237   7.932  27.846  14.838
66978W        W39238  20.714  40.293  10.697
66979W        W39239  32.466   3.995  13.822
66980W        W39240  40.848   8.249   0.070
66981W        W39241   6.511  14.314   3.123
66982W        W39242   6.916  34.992   0.134
66983W        W39243  10.308  41.905   3.570
66984W        W39244  27.831  37.074   1.025
66985W        W39245  25.286  42.878  12.095
66986W        W39246  34.668   4.214  14.281
66987W        W39247  42.204  30.913  11.671
66988W        W39248  26.681  33.325  12.437
66989W        W39249  19.781   7.939  12.347
66990W        W39250  19.625   8.030   2.744
66991W        W39251  21.785  32.841  11.046
66992W        W39252  18.008  21.004   9.852
66993W        W39253  16.197  19.195  11.162
66994W        W39254  22.224  24.800  11.350
66995W        W39255  22.009   9.827  13.319
66996W        W39256  13.848  13.739  13.844
66997W        W39257   5.508  39.887   2.353
66998W        W39258  14.581  33.369   2.246
66999W        W39259   4.960   6.989   3.301
67000W        W39260  32.836  44.066  11.167
67001W        W39261  21.903  21.686  13.064
67002W        W39262  19.321  23.313  13.124
67003W        W39263  38.649  17.764   0.881
67004W        W39264  18.534  35.362  14.874
67005W        W39265  43.777  29.417  10.519
67006W        W39266  41.487  38.978   2.633
67007W        W39267  39.037  30.294   2.837
67008W        W39268  31.025  34.914   4.602
67009W        W39269   7.389  17.420   2.273
67010W        W39270   7.285   0.024  13.606
67011W        W39271  34.542  39.379   1.277
67012W        W39272  15.698   2.717  14.090
67013W        W39273  17.107  13.137   1.560
67014W        W39274  33.399  16.210   2.804
67015W        W39275   6.524  29.499  12.854
67016W        W39276  38.432  41.993   3.673
67017W        W39277  11.699  43.329   0.877
67018W        W39278   5.150   3.278   0.357
67019W        W39279  20.256  22.981  14.792
67020W        W39280  26.554  23.657   3.594
67021W        W39281  13.635  20.277  13.932
67022W        W39282  18.607  41.332   3.162
67023W        W39283  34.621  19.539   3.557
67024W        W39284  26.818   3.408  11.880
67025W        W39285   4.511  14.652  12.504
67026W        W39286  28.704   3.654   0.850
67027W        W39287  26.951  10.117   4.770
67028W        W39288  36.991  11.979  12.816
67029W        W39289  28.620  36.435   0.807
67030W        W39290  19.183   9.979   3.236
67031W        W39291  44.725  14.049  14.954
67032W        W39292  20.119   7.047  12.008
67033W        W39293   3.510  44.519  11.152
67034W        W39294  32.921  44.789   4.852
67035W        W39295  16.297  15.032  12.071
67036W        W39296  25.729  42.529  11.473
67037W        W39297  41.834  17.993  12.453
67038W        W39298  11.156   8.751   1.696
67039W        W39299   2.469  25.921   3.256
67040W        W39300  40.135  32.605  11.252
67041W        W39301   3.738  33.702  14.761
67042W        W39302  15.727  15.793  14.593
67043W        W39303  35.116  35.973  13.325
67044W        W39304  41.463   7.712  13.632
67045W        W39305  35.625  28.217  11.546
67046W        W39306   8.752  44.217  12.005
67047W        W39307  43.972  25.121  11.832
67048W        W39308  44.986  23.796  12.644
67049W        W39309  27.076  30.636   5.038
67050W        W39310  37.157  15.639  11.511
67051W        W39311   9.177  17.660  12.540
67052W        W39312  13.700   8.359   0.781
67053W        W39313   7.042  18.800  11.675
67054W        W39314   6.306  34.452   0.480
67055W        W39315  11.246  24.485  12.013
67056W        W39316  28.022  15.276   2.953
67057W        W39317  22.142  35.385  10.672
67058W        W39318   6.972  35.423   0.898
67059W        W39319  38.298  25.056   0.430
67060W        W39320   1.211   8.210  10.680
67061W        W39321   5.042   8.357   3.374
67062W        W39322  37.133  22.692   2.162
67063W        W39323  14.326  26.589   0.270
67064W        W39324  20.045  29.757  11.121
67065W        W39325  12.632  37.459  14.138
67066W        W39326  37.032  16.778   1.770
67067W        W39327  44.234  44.276  14.986
67068W        W39328  18.184   7.076  12.858
67069W        W39329   0.518  35.612   1.035
67070W        W39330  35.182  33.687  14.212
67071W        W39331  14.219  41.917  11.721
67072W        W39332  42.809  35.334   3.713
67073W        W39333  33.881   8.154   0.958
67074W        W39334  29.651  37.045  12.873
67075W        W39335  23.267  19.492  11.633
67076W        W39336  37.068  32.148  13.885
67077W        W39337  23.095   6.422   0.827
67078W        W39338   5.803  42.283  11.125
67079W        W39339   6.998  42.370   0.392
67080W        W39340   4.792  17.924  12.896
67081W        W39341  13.729  17.210  14.870
67082W        W39342  15.333  31.498   2.234
67083W        W39343   4.226  42.164   3.408
67084W        W39344  30.445  21.969   4.541
67085W        W39345  37.429  19.287   4.909
67086W        W39346  28.650   8.297  12.826
67087W        W39347   9.935  29.119   0.281
67088W        W39348  25.187  23.441  14.476
67089W        W39349  11.254  12.131   3.087
67090W        W39350  14.894  28.893   5.018
67091W        W39351  14.025  12.340   4.108
67092W        W39352  13.672  26.694  14.017
67093W        W39353   6.349  31.113   1.027
67094W        W39354  29.544  21.559   1.987
67095W        W39355  36.985  31.938   4.586
67096W        W39356  30.538   9.236  11.593
67097W        W39357  21.436  23.310   0.354
67098W        W39358  34.445  31.698   2.740
67099W        W39359  38.403   2.633  13.894
67100W        W39360  29.435  18.942  13.902
67101W        W39361  35.886  43.771  13.531
67102W        W39362  39.559  31.060  11.875
67103W        W39363  29.892  11.592   1.248
67104W        W39364  11.461   4.813   0.175
67105W        W39365  15.148  37.441  11.061
67106W        W39366  37.470  14.092  12.288
67107W        W39367  11.819  44.376   4.080
67108W        W39368   4.445  21.721  14.932
67109W        W39369  40.439   2.861   0.209
67110W        W39370   9.228  20.588   1.883
67111W        W39371  42.316   9.946  10.874
67112W        W39372   1.076  22.786  11.546
67113W        W39373   3.894  31.785   0.374
67114W        W39374  10.206  20.519   4.168
67115W        W39375  13.004   5.654  12.343
67116W        W39376  26.782  22.418  13.744
67117W        W39377   4.804  16.118   3.279
67118W        W39378  21.698  14.803   2.685
67119W        W39379   2.816  22.501   2.271
67120W        W39380  16.196  29.662  12.552
67121W        W39381  32.984  17.643   4.133
67122W        W39382  44.011   0.005  10.571
67123W        W39383  41.285  14.852  14.036
67124W        W39384  14.349   1.321  12.063
67125W        W39385   4.392  16.582  14.074
67126W        W39386  19.167  32.267   3.277
67127W        W39387  34.343  15.605   4.195
67128W        W39388   7.463  34.516   0.952
67129W        W39389  32.030  29.372   4.555
67130W        W39390   1.199  42.509   4.190
67131W        W39391  28.859  19.280   2.159
67132W        W39392  22.840  27.739  10.767
67133W        W39393  40.330  38.448  12.010
67134W        W39394   4.347  16.289   1.958
67135W        W39395  35.062  42.342  10.872
67136W        W39396  25.239  31.371  12.365
67137W        W39397  22.609  23.300   3.155
67138W        W39398  38.096   6.328   3.763
67139W        W39399   1.414  33.892  11.140
67140W        W39400  15.486  17.691   3.638
67141W        W39401  44.578  37.861  10.178
67142W        W39402  37.179  30.017  10.733
67143W        W39403  43.015  31.449  12.528
67144W        W39404  44.215  15.333  14.857
67145W        W39405  25.273  20.070   4.332
67146W        W39406  19.486  38.872   1.334
67147W        W39407  20.046  18.987   1.579
67148W        W39408  30.129  27.129  10.669
67149W        W39409  15.721  44.508  13.635
67150W        W39410  11.636  33.872   3.076
67151W        W39411  38.953  13.620   1.316
67152W        W39412   0.900  37.327   1.090
67153W        W39413  18.702  43.440  14.956
67154W        W39414   9.368  31.910   2.166
67155W        W39415  28.356  28.604  11.400
67156W        W39416  40.416  15.087  11.933
67157W        W39417  19.710  28.763  13.994
67158W        W39418  22.537  10.080   3.303
67159W        W39419  13.085   9.653   3.320
67160W        W39420  13.838  30.678   4.996
67161W        W39421  17.271  32.864   0.232
67162W        W39422  29.142   6.387   2.918
67163W        W39423  11.154  32.659  13.041
67164W        W39424   2.503  20.710  12.435
67165W        W39425  23.935   5.169   5.056
67166W        W39426   0.572  10.250   4.440
67167W        W39427  13.721  15.307   0.722
67168W        W39428  13.317  31.539  11.895
67169W        W39429   0.460  16.654  11.534
67170W        W39430   8.947  33.939   0.497
67171W        W39431  15.787   1.291  14.822
67172W        W39432  23.952  11.288   3.280
67173W        W39433  35.153  43.332   1.718
67174W        W39434  29.745  24.634   2.583
67175W        W39435  37.828  22.987   0.275
67176W        W39436  26.854  42.765   4.970
67177W        W39437  41.063  24.474  12.629
67178W        W39438   4.936  11.312   4.868
67179W        W39439  16.317  17.640  11.243
67180W        W39440  22.390   0.982  11.173
67181W        W39441  11.830  41.302  10.285
67182W        W39442  13.235  14.125  10.705
67183W        W39443  43.514  34.073   1.840
67184W        W39444   0.301  32.060  11.256
67185W        W39445  28.954  22.563  10.493
67186W        W39446  26.133   9.828   1.469
67187W        W39447  13.642  33.041  13.958
67188W        W39448   3.747   3.794   0.866
67189W        W39449  22.456  23.009   0.319
67190W        W39450  33.654   8.197   1.843
67191W        W39451  19.587  38.147   2.866
67192W        W39452  21.792  22.554  14.983
67193W        W39453  44.690  15.330  13.931
67194W        W39454  41.227  28.673  11.612
67195W        W39455  12.352  22.052  11.922
67196W        W39456  40.926  31.004  11.573
67197W        W39457  36.473  28.606  11.491
67198W        W39458   6.239  36.155  12.060
67199W        W39459   7.394  41.060  13.357
67200W        W39460   3.474  41.129   2.582
67201W        W39461  14.032  28.012  10.181
67202W        W39462   4.473  43.033  13.305
67203W        W39463  35.459   0.871   0.401
67204W        W39464   4.428  17.167   4.694
67205W        W39465  23.615  39.788   4.106
67206W        W39466  31.530  39.306  10.766
67207W        W39467   6.474  22.276   0.718
67208W        W39468  14.595  39.044  10.640
67209W        W39469  10.052  42.004   3.995
67210W        W39470  41.457  42.320  14.368
67211W        W39471  34.378  25.466   1.390
67212W        W39472  27.300  33.986   1.313
67213W        W39473  42.020   4.878  14.299
67214W        W39474  20.240  28.568   3.736
67215W        W39475  23.950   0.766  13.138
67216W        W39476  10.219   2.339  12.436
67217W        W39477  18.016   2.474   1.469
67218W        W39478  14.094  44.867   1.246
67219W        W39479  30.903  38.522   3.605
67220W        W39480  16.591  33.686   3.076
67221W        W39481  15.178  12.759  11.024
67222W        W39482  44.230  16.168  12.112
67223W        W39483   2.669  37.954  10.658
67224W        W39484   5.877   0.755   3.212
67225W        W39485   6.145  11.809  11.576
67226W        W39486   0.225  41.867   3.566
67227W        W39487  21.761  21.701  10.641
67228W        W39488  11.440   0.521   1.361
67229W        W39489  22.120  13.856   3.618
67230W        W39490   3.417  41.100   0.314
67231W        W39491  39.016  14.230  13.890
67232W        W39492  10.116  15.547  11.906
67233W        W39493  32.975   1.293   0.758
67234W        W39494  24.775   9.036   1.786
67235W        W39495   5.592  36.764   2.737
67236W        W39496  41.836  21.903   3.367
67237W        W39497  21.482  14.527  12.086
67238W        W39498  25.048  38.435  14.940
67239W        W39499  34.659  34.584   0.071
67240W        W39500  17.049   6.335   1.258
67241W        W39501   4.463  21.674   0.974
67242W        W39502  38.771  43.495  13.365
67243W        W39503  22.267  37.035   4.909
67244W        W39504  38.037  22.741   3.247
67245W        W39505  42.069  28.085  13.774
67246W        W39506  20.163  32.193  12.940
67247W        W39507  37.883   8.824   3.056
67248W        W39508  43.080  13.998  13.014
67249W        W39509  14.224  31.956  11.611
67250W        W39510  23.687   5.830   4.608
67251W        W39511  19.984  17.292   4.277
67252W        W39512  42.842   4.874  12.409
67253W        W39513  13.543  31.515   0.302
67254W        W39514  36.893   5.928  11.591
67255W        W39515  13.214   4.398   1.666
67256W        W39516   7.938  17.182  12.530
67257W        W39517  33.044  43.665   0.975
67258W        W39518  39.006   0.313   9.835
67259W        W39519  25.590  34.902  12.418
67260W        W39520   3.739  37.502  14.249
67261W        W39521  28.748   0.116   1.250
67262W        W39522  32.163  43.205  11.907
67263W        W39523  15.497   2.287   4.355
67264W        W39524   5.821  14.643  12.032
67265W        W39525  31.402   2.846   1.173
67266W        W39526  20.058  21.232  11.621
67267W        W39527  33.968  29.445   0.090
67268W        W39528  41.082  10.332  13.489
67269W        W39529   7.480  16.204   4.620
67270W        W39530   2.885  44.799   2.808
67271W        W39531  42.838  15.029  13.969
67272W        W39532  32.552   9.926  10.141
67273W        W39533  28.676   6.311  12.992
67274W        W39534   9.754  16.050  13.100
67275W        W39535  41.749   6.366   3.197
67276W        W39536  20.888  29.060   2.727
67277W        W39537   3.702  16.681  14.313
67278W        W39538  39.180  15.646  13.011
67279W        W39539  16.735  22.956  12.032
67280W        W39540  41.500  12.347  13.445
67281W        W39541  35.792  36.821  13.916
67282W        W39542  26.790  24.155  13.289
67283W        W39543  29.540  16.402   4.714
67284W        W39544   9.661  37.559   4.540
67285W        W39545   1.991   4.698  14.023
67286W        W39546  32.234  19.752   9.910
67287W        W39547  33.116  39.238   0.530
67288W        W39548  44.929   4.801   0.048
67289W        W39549  19.662  22.601  11.662
67290W        W39550  14.359   5.201  12.889
67291W        W39551  25.170  42.634  14.950
67292W        W39552  24.873  29.461  14.309
67293W        W39553  26.172  43.455   3.612
67294W        W39554  42.263   4.168  12.704
67295W        W39555  23.878   6.412   3.294
67296W        W39556  22.990  26.738   3.834
67297W        W39557   4.449  39.330  14.935
67298W        W39558  11.045   0.474  13.972
67299W        W39559   1.901   5.053   3.711
67300W        W39560  15.176   5.862   4.437
67301W        W39561   5.791   4.539  11.662
67302W        W39562   1.357   6.846  10.753
67303W        W39563   2.820  14.084   1.280
67304W        W39564  23.614  24.536  12.083
67305W        W39565  26.810   2.483   3.541
67306W        W39566  10.823  14.748  12.942
67307W        W39567  31.514  24.543   2.708
67308W        W39568   2.016  15.058  13.350
67309W        W39569   9.769  15.068  14.464
67310W        W39570  16.119  10.166  11.672
67311W        W39571  12.165  39.701   1.460
67312W        W39572  20.030  38.398   3.749
67313W        W39573  13.617   3.157  11.578
67314W        W39574  43.127  20.759   2.733
67315W        W39575   4.205  31.156  12.147
67316W        W39576  42.849   2.893   1.758
67317W        W39577  42.799  20.521   1.787
67318W        W39578  24.388   7.691   0.954
67319W        W39579  37.467  11.713   0.806
67320W        W39580   5.432  42.744   0.902
67321W        W39581  37.031   5.934  13.498
67322W        W39582  33.858  25.676   5.046
67323W        W39583  14.311   1.933  13.508
67324W        W39584  25.562  38.610  11.910
67325W        W39585  37.457  20.126  13.829
67326W        W39586   0.215  35.572  14.774
67327W        W39587  37.327  15.015   2.374
67328W        W39588  20.998  30.980  11.974
67329W        W39589  44.697  27.006   0.192
67330W        W39590  28.647  19.608  14.053
67331W        W39591  19.530  33.677   2.736
67332W        W39592  41.816  37.540  12.156
67333W        W39593   4.968   3.418   2.183
67334W        W39594  13.743  36.945  12.614
67335W        W39595  40.401   8.469  11.537
67336W        W39596  13.812   2.136  11.043
67337W        W39597  22.146  27.021  13.494
67338W        W39598  19.054   5.835  14.000
67339W        W39599  25.650  43.796   0.276
67340W        W39600   1.624  26.249   0.092
67341W        W39601  22.335  24.596   4.292
67342W        W39602  37.800  24.093  13.099
67343W        W39603  20.263  42.134  11.631
67344W        W39604  27.394  19.966   4.718
67345W        W39605  31.709  14.769   4.185
67346W        W39606   6.255  42.924   0.305
67347W        W39607  42.535  39.797   1.424
67348W        W39608  10.561  16.120  14.930
67349W        W39609   9.066  23.200   4.248
67350W        W39610   5.544  12.259  11.352
67351W        W39611  44.055  16.291   3.668
67352W        W39612  37.771  33.549   0.626
67353W        W39613  32.080   5.969   1.702
67354W        W39614  19.296  39.091  11.561
67355W        W39615  36.845  13.072   2.877
67356W        W39616  16.724  15.574  14.831
67357W        W39617  40.108  42.900   0.834
67358W        W39618  32.088  13.276   5.089
67359W        W39619  11.064  22.670   1.895
67360W        W39620   1.698  36.263  14.434
67361W        W39621  42.931   1.367  14.146
67362W        W39622  25.441   3.533  12.483
67363W        W39623  28.671  39.427   1.926
67364W        W39624  24.275  35.913  10.846
67365W        W39625   8.385  11.653   1.817
67366W        W39626  29.461  41.577   0.938
67367W        W39627  34.819  17.234   4.456
67368W        W39628  18.318  40.166  13.958
67369W        W39629  35.806  11.222   0.408
67370W        W39630  36.068   6.767   2.184
67371W        W39631  20.801  39.912   3.877
67372W        W39632   0.794  22.920   3.686
67373W        W39633   8.875  22.972  12.049
67374W        W39634  20.721  28.965  11.182
67375W        W39635  39.807  14.098   3.808
67376W        W39636  14.196   5.469   1.758
67377W        W39637  31.911  15.876   2.470
67378W        W39638  15.646  32.070  10.279
67379W        W39639  13.446  11.597  12.960
67380W        W39640  32.268   4.782  11.568
67381W        W39641  40.824  19.062   2.764
67382W        W39642  22.993  20.081   4.197
67383W        W39643  15.769  15.414   2.674
67384W        W39644   8.401   0.377   2.951
67385W        W39645  26.670  15.985  10.102
67386W        W39646  23.221  16.263   4.471
67387W        W39647  35.675  37.336  12.503
67388W        W39648  22.763  13.765  13.795
67389W        W39649  23.117  42.811  12.395
67390W        W39650  21.283  27.495   4.577
67391W        W39651  25.436   7.616  14.453
67392W        W39652  33.480  25.570  12.060
67393W        W39653  36.014  33.046  14.254
67394W        W39654   2.918  30.491   0.761
67395W        W39655   1.984  18.584  12.496
67396W        W39656  20.151  22.628   3.073
67397W        W39657  31.786  32.591   0.426
67398W        W39658  23.531   7.343  13.303
67399W        W39659  27.470   0.367  14.496
67400W        W39660  20.784   2.647   0.336
67401W        W39661  36.380   8.460   2.227
67402W        W39662  31.557   2.411  12.467
67403W        W39663  39.616  10.152   0.917
67404W        W39664  27.809  21.544  11.464
67405W        W39665  28.896  13.669   0.402
67406W        W39666  33.530  22.766   2.284
67407W        W39667  13.546  24.178  12.222
67408W        W39668   5.661  20.124  14.109
67409W        W39669   3.323  37.387  12.390
67410W        W39670  33.493   3.172   1.200
67411W        W39671  32.949   3.206   2.410
67412W        W39672   5.372   2.440  14.501
67413W        W39673  44.807  31.044   1.901
67414W        W39674   8.174  20.183   3.791
67415W        W39675  39.902   0.671  13.532
67416W        W39676  31.883  14.762  12.096
67417W        W39677  39.099  29.507   4.336
67418W        W39678  27.113   5.955  14.844
67419W        W39679  40.248  20.842  13.943
67420W        W39680  36.527  12.895   4.541
67421W        W39681  44.062  27.044  14.632
67422W        W39682  21.568  39.507   3.685
67423W        W39683  16.056   4.409  14.814
67424W        W39684  40.671   5.337  10.395
67425W        W39685   4.790  16.533   1.764
67426W        W39686  28.518  18.593   4.331
67427W        W39687  12.278   3.404   3.168
67428W        W39688   0.452  19.164  14.368
67429W        W39689   5.290  43.896  12.875
67430W        W39690  15.118  32.905   1.352
67431W        W39691  44.439  21.175   1.292
67432W        W39692  36.075   9.660  10.623
67433W        W39693   1.013  36.951  12.152
67434W        W39694   0.878  34.255   2.776
67435W        W39695   2.933  20.561  12.719
67436W        W39696  21.522  15.732   1.786
67437W        W39697  12.300  27.568  12.814
67438W        W39698  25.806  27.759  12.624
67439W        W39699  14.233  20.757   4.786
67440W        W39700   0.809  43.298  10.651
67441W        W39701  38.407   4.417  12.814
67442W        W39702  20.146  19.499   4.653
67443W        W39703  42.559  41.539  14.326
67444W        W39704  39.785  11.166  10.716
67445W        W39705  42.290   9.651  13.302
67446W        W39706  38.033   1.205  13.576
67447W        W39707  33.713  34.445  14.757
67448W        W39708   0.769  15.351  13.446
67449W        W39709  22.396  14.677   4.095
67450W        W39710  19.972   6.984  11.494
67451W        W39711   2.981  19.585  10.542
67452W        W39712  34.564  24.038   4.523
67453W        W39713  35.521  31.108  13.267
67454W        W39714  27.722   8.180   0.389
67455W        W39715  33.025  12.872  14.943
67456W        W39716  19.589  41.929  11.960
67457W        W39717  33.918  15.041   3.198
67458W        W39718   6.141  42.492  13.750
67459W        W39719  28.152  42.241   4.554
67460W        W39720   2.128  17.644  10.901
67461W        W39721  31.669  41.547   2.319
67462W        W39722  32.815  31.026   1.067
67463W        W39723  38.165  13.185  13.767
67464W        W39724  14.337  44.281  13.769
67465W        W39725  28.294  28.115  10.747
67466W        W39726  17.203  41.428  13.766
67467W        W39727  29.304   0.400  14.448
67468W        W39728   9.303  16.931   5.045
67469W        W39729   3.272  37.023  12.772
67470W        W39730  31.641  14.518  11.700
67471W        W39731  37.773  11.690  13.385
67472W        W39732   7.375  22.290  12.058
67473W        W39733  32.625  23.589   4.257
67474W        W39734  19.571  30.709   3.764
67475W        W39735   8.326   4.753   4.295
67476W        W39736  39.525  20.223  10.618
67477W        W39737  12.296  12.794  14.780
67478W        W39738  24.591  28.352   3.781
67479W        W39739  15.841  24.584  14.729
67480W        W39740  33.822  35.877  12.907
67481W        W39741  14.344  37.633  14.846
67482W        W39742  36.467   3.908   4.850
67483W        W39743   2.169  42.285  11.951
67484W        W39744  36.457   5.358   4.403
67485W        W39745  13.517   2.151  12.440
67486W        W39746   9.974   2.751  12.160
67487W        W39747   6.317  33.076  14.948
67488W        W39748   8.662  14.274  13.555
67489W        W39749  12.427  40.124   1.437
67490W        W39750   2.220  10.766  12.959
67491W        W39751  26.927  16.718  14.275
67492W        W39752  33.248   0.954   3.599
67493W        W39753  32.745  38.569  12.103
67494W        W39754  30.875  23.077   3.257
67495W        W39755  33.208   0.416   1.256
67496W        W39756  13.432   7.934   1.690
67497W        W39757  24.165   2.746  13.054
67498W        W39758  17.783  27.491  13.916
67499W        W39759  40.356  36.391  14.808
67500W        W39760  15.802  15.126  12.116
67501W        W39761  24.765  10.912  12.846
67502W        W39762  23.800  10.712   1.882
67503W        W39763  14.571  23.633  14.935
67504W        W39764  41.932  33.777   4.362
67505W        W39765  14.091  19.614   3.574
67506W        W39766  32.024  12.477   3.931
67507W        W39767  14.763   4.811  14.463
67508W        W39768  19.287  33.347   4.088
67509W        W39769  42.997   6.434  11.524
67510W        W39770  18.780  34.064  12.133
67511W        W39771   2.603  24.225  14.097
67512W        W39772  13.318   2.155  13.318
67513W        W39773  41.898   3.503   3.325
67514W        W39774  43.361  44.477   4.376
67515W        W39775  33.394  10.661   3.650
67516W        W39776  13.177  26.499   3.863
67517W        W39777  22.824  44.967  12.044
67518W        W39778  32.455   4.794   4.134
67519W        W39779   0.739  14.435   1.265
67520W        W39780   2.836   7.144  14.896
67521W        W39781  18.037  44.090   4.500
67522W        W39782   9.967  19.270   5.116
67523W        W39783  10.346  20.024  14.097
67524W        W39784  14.278  26.180   0.591
67525W        W39785   2.036   0.269   2.972
67526W        W39786  12.071   1.029   4.491
67527W        W39787  36.546  11.680  10.621
67528W        W39788  14.794  16.569   3.143
67529W        W39789   2.061  28.597   1.449
67530W        W39790   5.296  27.127  13.843
67531W        W39791  16.590  26.825   0.771
67532W        W39792  39.410  28.881   4.074
67533W        W39793  34.870  23.740  10.935
67534W        W39794  39.763  44.393  11.973
67535W        W39795   4.257   8.180  13.584
67536W        W39796  31.055  10.702   4.705
67537W        W39797  17.766   5.154   1.053
67538W        W39798  15.466  29.745   4.220
67539W        W39799  38.310   2.900  13.459
67540W        W39800   7.943  23.947   2.119
67541W        W39801  13.174   4.788   4.677
67542W        W39802  17.216  32.318   0.432
67543W        W39803   7.978  35.611   3.751
67544W        W39804  18.293  44.427  12.147
67545W        W39805  30.159  20.257   0.402
67546W        W39806  41.494   0.835   1.861
67547W        W39807   7.165  32.688  12.517
67548W        W39808  25.174  30.556   3.736
67549W        W39809   7.103  42.303  11.908
67550W        W39810  27.886  22.226   1.372
67551W        W39811   6.706  11.691  12.365
67552W        W39812   3.212   9.885  12.911
67553W        W39813  31.190  12.129  11.614
67554W        W39814   7.923   6.303  14.502
67555W        W39815  39.893  25.723   3.199
67556W        W39816  40.519  41.570   4.077
67557W        W39817  22.623  32.765  13.454
67558W        W39818  39.429  44.307  12.982
67559W        W39819  24.514  27.164  13.776
67560W        W39820  10.867  15.106  13.629
67561W        W39821  32.463  31.792   0.322
67562W        W39822  12.310  34.231   2.615
67563W        W39823  28.926  25.002   0.481
67564W        W39824   8.660  27.723   2.692
67565W        W39825  39.699  19.743  10.677
67566W        W39826  20.814  44.662  11.101
67567W        W39827   1.087  31.715  13.423
67568W        W39828  14.522  43.759  13.849
67569W        W39829  42.821  20.805  10.556
67570W        W39830  12.665   5.452   0.806
67571W        W39831  12.848  26.566   2.572
67572W        W39832  10.918  31.487   3.151
67573W        W39833   6.802  40.495   0.777
67574W        W39834   5.473  34.640   0.701
67575W        W39835  20.037   1.331  12.906
67576W        W39836  33.571  15.836  11.091
67577W        W39837  43.304  33.494   4.540
67578W        W39838  21.792  11.790  10.678
67579W        W39839  26.094  26.811  13.856
67580W        W39840  39.911  28.124   2.280
67581W        W39841   0.150  41.852  14.037
67582W        W39842  30.982   9.214   0.302
67583W        W39843  29.430  42.216   4.104
67584W        W39844  44.346  36.414  11.030
67585W        W39845  39.191  28.973   2.236
67586W        W39846   7.770  43.729  14.877
67587W        W39847  41.512  29.094  13.510
67588W        W39848  29.078  13.341   4.933
67589W        W39849  35.102  14.199  13.959
67590W        W39850   5.249  26.539   3.543
67591W        W39851  34.508   6.202   1.100
67592W        W39852  17.771  26.185   3.305
67593W        W39853  32.939  38.255  11.638
67594W        W39854  36.966   8.746   5.160
67595W        W39855  20.155  27.307   4.872
67596W        W39856  22.774  16.247   2.608
67597W        W39857  29.559  31.694   1.952
67598W        W39858  24.230  28.099  13.895
67599W        W39859   2.849  35.367  13.018
67600W        W39860  43.281  18.553  10.703
67601W        W39861   4.500  23.692  14.490
67602W        W39862  38.866  35.364  14.866
67603W        W39863  34.225  34.697  12.501
67604W        W39864   7.885  23.943  12.930
67605W        W39865  19.666  32.460  13.472
67606W        W39866  33.433  22.815   0.812
67607W        W39867   0.460  19.176   2.695
67608W        W39868  36.909  21.681  13.421
67609W        W39869  38.111  10.247  10.174
67610W        W39870  34.491   9.679  14.942
67611W        W39871   1.924  31.784   4.609
67612W        W39872  37.002  16.254   1.667
67613W        W39873  20.326  14.168   4.513
67614W        W39874  14.262  39.325   0.354
67615W        W39875  14.651  26.043   3.017
67616W        W39876  23.643  24.603   3.626
67617W        W39877   5.353  35.634   4.160
67618W        W39878   0.476  27.881  13.954
67619W        W39879  13.298  14.731  13.121
67620W        W39880  25.667   3.087   3.305
67621W        W39881  23.937  28.539   3.292
67622W        W39882  33.472   3.962  14.930
67623W        W39883  18.793  16.711   1.295
67624W        W39884  33.942  18.503   0.903
67625W        W39885  31.892  35.366   4.208
67626W        W39886  20.905   5.227  11.542
67627W        W39887   5.480  25.038  11.921
67628W        W39888  28.879  44.212   3.122
67629W        W39889  39.428  23.618   1.370
67630W        W39890  15.103  14.474   3.357
67631W        W39891  18.029   5.366   4.632
67632W        W39892  36.624  28.640  10.610
67633W        W39893   0.143  24.172   0.789
67634W        W39894  44.086  22.851   4.165
67635W        W39895  32.535   0.484  11.343
67636W        W39896   1.885  10.385   2.187
67637W        W39897   2.488  26.923   3.354
67638W        W39898  14.807  26.210  11.431
67639W        W39899  10.140  27.908   3.283
67640W        W39900  38.440  14.711  11.830
67641W        W39901  33.471  12.316   1.470
67642W        W39902  19.113  26.496   0.046
67643W        W39903  32.335  35.360  11.177
67644W        W39904  35.980  44.537   0.720
67645W        W39905  10.110  20.027   4.149
67646W        W39906   7.426   5.475  14.812
67647W        W39907  44.816  14.748   2.152
67648W        W39908  27.892  19.285   4.287
67649W        W39909  44.996   0.815   4.850
67650W        W39910  14.846   2.389   0.787
67651W        W39911  41.752  12.575   3.333
67652W        W39912  12.167  23.381   4.050
67653W        W39913  26.942  17.621   2.759
67654W        W39914  24.764   7.135   2.304
67655W        W39915  39.264  36.869  12.949
67656W        W39916  18.065  18.496   2.914
67657W        W39917   8.552  36.592  11.567
67658W        W39918  21.885  22.481  11.582
67659W        W39919   5.487  21.099   3.228
67660W        W39920  22.244   7.106  13.449
67661W        W39921  43.986   1.988   1.255
67662W        W39922   0.475  16.473   3.061
67663W        W39923   8.211  14.270   4.974
67664W        W39924  36.178   6.053   1.980
67665W        W39925   8.043  10.351   9.853
67666W        W39926  33.555  18.508   2.678
67667W        W39927  20.517  17.596   0.254
67668W        W39928  22.352  21.040   9.635
67669W        W39929  27.825  26.801   0.449
67670W        W39930  11.831  44.492  11.154
67671W        W39931  28.364   8.083  13.217
67672W        W39932  17.669   2.243  10.925
67673W        W39933   0.846   8.784   4.255
67674W        W39934  20.104  30.759  12.290
67675W        W39935  37.350   7.727  13.002
67676W        W39936  10.620  30.940   0.333
67677W        W39937   7.585  28.383  14.761
67678W        W39938  23.864  23.674  13.893
67679W        W39939  16.662  30.336  11.141
67680W        W39940   9.913  21.952   0.800
67681W        W39941  15.265  32.894  13.828
67682W        W39942   8.646  25.008  12.627
67683W        W39943   5.905  20.294   2.236
67684W        W39944  35.200  10.165  10.854
67685W        W39945  18.033  31.226  11.953
67686W        W39946  38.347  25.992  13.462
67687W        W39947  36.458   2.657  13.307
67688W        W39948  24.502  40.544   3.654
67689W        W39949   7.843  13.128  13.349
67690W        W39950   7.322  26.288  11.454
67691W        W39951  22.867  43.250  12.488
67692W        W39952   7.140  13.884   1.272
67693W        W39953   5.428  21.478   0.016
67694W        W39954   3.456  20.281  12.432
67695W        W39955  32.161  42.985  12.898
67696W        W39956  34.959  36.256   1.694
67697W        W39957  40.571  14.157   1.718
67698W        W39958  12.336  22.816   2.710
67699W        W39959  36.736  14.866  11.936
67700W        W39960  40.641  42.131  14.777
67701W        W39961   5.364  22.544  11.250
67702W        W39962  43.501  23.043   4.597
67703W        W39963  35.293  15.018   2.277
67704W        W39964  38.881  19.447   1.480
67705W        W39965  36.713  10.293   4.160
67706W        W39966   2.721  15.647   1.584
67707W        W39967  21.797  42.097   2.462
67708W        W39968  10.993  11.851  12.945
67709W        W39969  33.903  20.162   2.892
67710W        W39970  25.491  17.047  11.022
67711W        W39971   6.198   5.419  11.040
67712W        W39972   8.817   2.633   0.466
67713W        W39973   2.522  17.254   1.380
67714W        W39974  15.866  31.816  12.046
67715W        W39975   4.579  11.895   0.784
67716W        W39976  34.389  29.380  13.438
67717W        W39977  23.404  42.907   3.682
67718W        W39978  19.484  35.383   0.792
67719W        W39979   2.465  21.134   2.629
67720W        W39980  23.812   6.373  11.638
67721W        W39981  30.432   0.069   3.173
67722W        W39982  17.770  44.390  10.628
67723W        W39983  32.258  41.592  12.930
67724W        W39984   4.384  12.258  14.983
67725W        W39985   9.845   7.682  11.756
67726W        W39986  34.942  11.751  13.798
67727W        W39987  41.253  36.122  11.039
67728W        W39988   5.496  32.513  12.116
67729W        W39989   5.459  17.336  11.051
67730W        W39990   4.811  44.951  14.352
67731W        W39991  23.684  31.519  13.844
67732W        W39992  43.992  10.232  13.779
67733W        W39993  43.893  43.390   0.032
67734W        W39994  27.114  32.981  13.136
67735W        W39995  25.632  30.696  14.919
67736W        W39996  21.000  28.053   4.854
67737W        W39997  20.539  21.296  13.277
67738W        W39998  34.197  44.942  12.433
67739W        W39999  24.649  23.525  13.305
67740W        W40000  12.722  27.687   1.686
67741W        W40001  29.904   4.177   3.141
67742W        W40002  27.005  38.799  12.912
67743W        W40003  21.071   7.354   1.955
67744W        W40004  33.059  11.226   0.849
67745W        W40005  15.737  18.983  11.042
67746W        W40006  38.051  23.133   1.978
67747W        W40007  14.001  38.372   0.224
67748W        W40008  33.173  16.595  11.533
67749W        W40009  26.574   0.835  12.874
67750W        W40010  18.153  11.429   3.974
67751W        W40011  39.057   7.667   1.163
67752W        W40012  23.690  10.149  11.093
67753W        W40013  39.425  26.956   3.148
67754W        W40014  15.387  10.643  13.414
67755W        W40015   8.929  13.862   0.354
67756W        W40016  39.357   2.384  14.203
67757W        W40017   0.356  44.809   1.675
67758W        W40018  42.991  12.194  14.862
67759W        W40019  44.468  13.710  13.283
67760W        W40020  34.061  29.021   0.918
67761W        W40021  38.895   4.969  13.981
67762W        W40022  23.258  17.542  13.177
67763W        W40023  16.228  33.491   1.784
67764W        W40024  16.935   2.756   4.359
67765W        W40025  24.163  29.701   3.856
67766W        W40026  26.709  12.591  11.958
67767W        W40027  12.648  23.727   3.541
67768W        W40028  40.951  16.251   1.490
67769W        W40029  27.973  28.988   1.680
67770W        W40030  11.627  16.612   1.773
67771W        W40031  36.830  42.866   4.565
67772W        W40032  12.187  38.900   3.684
67773W        W40033   4.180  40.923   0.763
67774W        W40034  38.410  29.052  14.304
67775W        W40035  39.150  24.164  13.459
67776W        W40036  37.781  32.124  12.898
67777W        W40037  38.586  18.593  11.465
67778W        W40038  26.629  43.675  13.937
67779W        W40039  20.457   4.696  11.629
67780W        W40040  44.824   8.964   5.040
67781W        W40041  31.617  26.516   5.189
67782W        W40042   3.947  38.358  11.537
67783W        W40043   2.935  29.518  12.845
67784W        W40044   8.325  16.106  14.712
67785W        W40045  34.083  42.762   3.628
67786W        W40046  44.248  34.565  10.768
67787W        W40047  19.006  42.002   0.799
67788W        W40048  16.187  15.694  11.251
67789W        W40049   8.884  10.035   0.236
67790W        W40050  43.473  34.963  10.636
67791W        W40051  10.596  16.327   0.415
67792W        W40052  38.321  43.371   4.544
67793W        W40053   7.120  33.449   1.504
67794W        W40054  33.865  28.998  14.813
67795W        W40055  30.397  38.825   1.736
67796W        W40056  20.503  22.256   3.213
67797W        W40057   4.139  18.003   3.213
67798W        W40058   4.441   8.432  11.113
67799W        W40059  44.506   2.802  10.697
67800W        W40060  27.541  25.471   1.801
67801W        W40061  24.475  31.323  12.086
67802W        W40062  25.013  23.933   3.648
67803W        W40063   2.342  39.476   1.760
67804W        W40064   7.411  39.555  12.478
67805W        W40065  20.756  27.721   1.151
67806W        W40066  26.186  20.541   3.590
67807W        W40067  19.013   9.055   1.851
67808W        W40068  30.956  29.945   1.955
67809W        W40069  42.512  12.273  10.731
67810W        W40070  13.326   6.940   0.213
67811W        W40071  43.381  30.524   5.237
67812W        W40072  33.512   6.647  10.502
67813W        W40073  15.168  19.149   0.544
67814W        W40074  40.273  28.744  10.664
67815W        W40075  27.905  40.002  11.522
67816W        W40076  38.636  33.183  13.337
67817W        W40077  41.061   1.817  12.048
67818W        W40078  43.291  33.901   0.436
67819W        W40079  25.012  10.239  14.074
67820W        W40080   0.379  40.004   4.370
67821W        W40081  34.540  10.349  13.809
67822W        W40082  10.779  16.980  14.762
67823W        W40083   8.192  19.984  13.801
67824W        W40084  33.487   4.854   0.461
67825W        W40085  39.287   0.409   3.584
67826W        W40086  37.549  31.719   2.349
67827W        W40087  12.640  36.554   0.786
67828W        W40088  16.065  34.193  13.935
67829W        W40089  12.178  42.223  14.718
67830W        W40090   8.781  39.292   2.301
67831W        W40091  12.873  15.674  12.950
67832W        W40092  22.207  43.355  13.195
67833W        W40093  29.655  10.542  13.423
67834W        W40094  33.282  44.760  14.918
67835W        W40095   4.439   5.375  13.765
67836W        W40096  12.647  16.042  10.675
67837W        W40097  36.169  28.659  10.870
67838W        W40098  22.797  27.037  14.281
67839W        W40099   3.922  22.538  11.287
67840W        W40100  25.193  40.600  12.474
67841W        W40101   8.644  16.875   0.274
67842W        W40102  10.198  22.530  10.422
67843W        W40103  28.536  21.324   4.538
67844W        W40104  27.933  18.427   2.681
67845W        W40105  41.946  32.161  11.602
67846W        W40106  29.467  27.476  12.133
67847W        W40107  28.508   4.744   4.585
67848W        W40108  15.209  28.841  10.377
67849W        W40109   1.428  14.100   3.609
67850W        W40110  29.583  20.512   3.062
67851W        W40111  17.143   8.885  11.980
67852W        W40112  40.274   4.711   3.215
67853W        W40113  13.655   7.991  12.417
67854W        W40114  34.530  19.796   3.115
67855W        W40115  44.257   4.628  10.678
67856W        W40116   5.429  34.477   4.648
67857W        W40117  21.792   2.586  11.941
67858W        W40118  11.865  38.301  14.893
67859W        W40119  38.034  25.317   0.045
67860W        W40120  20.564   5.221   3.324
67861W        W40121  19.709  37.812   0.744
67862W        W40122  21.224  24.399   0.814
67863W        W40123  24.855  18.853   0.007
67864W        W40124  16.148   3.352   4.126
67865W        W40125  23.305  34.587  14.227
67866W        W40126  41.188   7.867  11.165
67867W        W40127  25.693  31.041  11.668
67868W        W40128  27.828  34.636  14.490
67869W        W40129  43.225  31.011  10.801
67870W        W40130  41.938  17.999  13.315
67871W        W40131  41.851  28.676  12.193
67872W        W40132  27.174   8.267   1.891
67873W        W40133   1.392   6.218  13.497
67874W        W40134  23.229  26.462   2.879
67875W        W40135  26.341  23.055   2.692
67876W        W40136  19.649  40.295   1.029
67877W        W40137  10.510  28.268  13.011
67878W        W40138   2.843  31.442   3.344
67879W        W40139  34.408  23.517  13.545
67880W        W40140  26.210  12.814  11.644
67881W        W40141  22.475  31.057   2.951
67882W        W40142   1.701  22.667   0.058
67883W        W40143  34.861  22.518   2.027
67884W        W40144  27.174   3.992  14.947
67885W        W40145  43.351   9.188   0.975
67886W        W40146  42.777   2.703   0.800
67887W        W40147  25.872  41.883  10.759
67888W        W40148  36.580  28.830   3.239
67889W        W40149  39.542  17.797  10.701
67890W        W40150  40.110  29.273  11.166
67891W        W40151  18.198  44.847   1.947
67892W        W40152  43.818  13.869   3.898
67893W        W40153  44.288  13.086  12.862
67894W        W40154  30.106  24.469   1.864
67895W        W40155  36.451  27.962  13.947
67896W        W40156  33.494  42.192  12.154
67897W        W40157  37.666   5.238   1.699
67898W        W40158  23.005  10.716  14.833
67899W        W40159  39.946  33.125  12.988
67900W        W40160  42.851  43.732   2.116
67901W        W40161  17.183  40.183  14.247
67902W        W40162  16.632   8.262   0.410
67903W        W40163   6.939  37.490   1.248
67904W        W40164   1.163  37.721   4.072
67905W        W40165  23.734  37.019  12.021
67906W        W40166   2.552   7.157  14.463
67907W        W40167  34.844   1.906   4.589
67908W        W40168  19.375  40.952   1.371
67909W        W40169   9.197   8.136   1.190
67910W        W40170  19.524   2.912   0.768
67911W        W40171  24.304   3.670  13.049
67912W        W40172  13.385  12.581   3.158
67913W        W40173   8.087   4.248   1.708
67914W        W40174  15.325  13.751   0.893
67915W        W40175  40.700  44.005  13.543
67916W        W40176  26.735  10.142  12.654
67917W        W40177  29.121  18.811   2.201
67918W        W40178  33.915  32.637  11.560
67919W        W40179  15.583   7.539   3.749
67920W        W40180   4.592  37.530  13.439
67921W        W40181  31.680  17.632  13.368
67922W        W40182  21.329  11.143   3.678
67923W        W40183  14.269   6.236  11.596
67924W        W40184  38.314   8.170   2.928
67925W        W40185  24.156  21.000  12.007
67926W        W40186  31.449  11.900  13.343
67927W        W40187  27.072  16.069  11.097
67928W        W40188   3.482  34.381  12.771
67929W        W40189  31.183  10.527  14.312
67930W        W40190  28.920  23.719   3.628
67931W        W40191  32.988  10.171   3.480
67932W        W40192  26.223  17.721  14.093
67933W        W40193  21.737   8.898  11.208
67934W        W40194  40.409  43.732   0.761
67935W        W40195   1.051  36.836  13.972
67936W        W40196   0.398  29.581  11.157
67937W        W40197  16.787  18.690  12.120
67938W        W40198  20.129  43.085   0.710
67939W        W40199   0.971   6.808  13.611
67940W        W40200  20.627  24.493  11.567
67941W        W40201   6.270  39.924  12.286
67942W        W40202  14.302  21.798   1.937
67943W        W40203   9.158  39.098  13.894
67944W        W40204   9.868   3.336   4.279
67945W        W40205  32.988   8.792   2.683
67946W        W40206  42.287  13.630  10.476
67947W        W40207   0.446  20.632  12.912
67948W        W40208  10.449  31.354   2.693
67949W        W40209   6.288  36.046  11.165
67950W        W40210   5.632  17.683   1.821
67951W        W40211  36.161   5.615   2.263
67952W        W40212   2.261  10.328  11.516
67953W        W40213   4.095   8.474   4.176
67954W        W40214   0.982   3.160  11.597
67955W        W40215  13.891  11.640   1.798
67956W        W40216  19.253   8.538   3.796
67957W        W40217  31.481  41.517  12.427
67958W        W40218   9.512  11.309  14.713
67959W        W40219  12.201  14.279   3.086
67960W        W40220  15.860  22.038  14.272
67961W        W40221   3.477   3.167  12.468
67962W        W40222   4.444  21.457  12.894
67963W        W40223  28.681  35.156   4.152
67964W        W40224  12.576  36.076  13.049
67965W        W40225  12.399   8.689  13.296
67966W        W40226  28.900  32.143  12.926
67967W        W40227  29.458  37.732   3.065
67968W        W40228  25.082  11.621  14.793
67969W        W40229  27.739  14.769   1.385
67970W        W40230  36.653  21.461   1.952
67971W        W40231  28.104  25.209  13.045
67972W        W40232  20.255  13.799   0.043
67973W        W40233   3.506  22.602   0.404
67974W        W40234  25.120  18.000   3.730
67975W        W40235  27.700  17.075   3.574
67976W        W40236   8.053   4.721   4.734
67977W        W40237  24.487   7.395  13.601
67978W        W40238  15.323  28.337  10.246
67979W        W40239  42.365  32.428   4.106
67980W        W40240  16.738  27.907  11.532
67981W        W40241  38.368  31.839   5.139
67982W        W40242   9.280   6.468   0.416
67983W        W40243  23.594  26.153   1.765
67984W        W40244  33.925   7.365   1.547
67985W        W40245  17.326  20.532  10.701
67986W        W40246  42.236  42.340  13.087
67987W        W40247  39.525  10.277  12.530
67988W        W40248  36.412  44.690   0.449
67989W        W40249  40.838  28.984   4.359
67990W        W40250  41.221  41.907   3.637
67991W        W40251  22.636  31.881   2.716
67992W        W40252  39.519  36.557   4.507
67993W        W40253  29.077  30.005   1.337
67994W        W40254  28.916  19.133  12.555
67995W        W40255  18.086   5.840  11.103
67996W        W40256  14.208   0.586  11.198
67997W        W40257  28.216  24.543   2.425
67998W        W40258  30.753   5.512  14.751
67999W        W40259  26.044  11.806   1.256
68000W        W40260   5.116  19.766   2.629
68001W        W40261  33.315  33.468  14.920
68002W        W40262  33.206   3.460  11.989
68003W        W40263  36.091   1.976   3.258
68004W        W40264  28.361   8.653  12.003
68005W        W40265  39.811  20.251  11.918
68006W        W40266  33.462   5.218   0.841
68007W        W40267   4.008  23.550   4.292
68008W        W40268  17.131  44.731   3.032
68009W        W40269  39.054  41.230   1.402
68010W        W40270  21.614  18.637   1.267
68011W        W40271  28.480  38.294   3.763
68012W        W40272  10.637   6.760  10.628
68013W        W40273  16.316  20.638   4.615
68014W        W40274   5.626  23.787   4.620
68015W        W40275  34.316  15.595  10.427
68016W        W40276  34.169  26.233  11.105
68017W        W40277  44.211   3.878   0.540
68018W        W40278  29.719  31.791   4.516
68019W        W40279   0.867   5.421  13.293
68020W        W40280  28.553   2.385   0.061
68021W        W40281  27.567   8.395  14.884
68022W        W40282  31.718  42.734  13.843
68023W        W40283  19.714  23.067  12.881
68024W        W40284  39.130   7.911   0.331
68025W        W40285   0.716  23.099  12.811
68026W        W40286   7.843  14.462  13.081
68027W        W40287  13.566  30.238   5.062
68028W        W40288  40.509  26.951  11.966
68029W        W40289  41.386  21.471  13.857
68030W        W40290  18.625   9.469   0.988
68031W        W40291   0.262  15.260  14.892
68032W        W40292  13.839  39.723  12.439
68033W        W40293   4.450  13.177  14.026
68034W        W40294  29.941   8.437  12.582
68035W        W40295  16.881  38.277  14.453
68036W        W40296  26.284  32.731  14.363
68037W        W40297  28.648  23.994  11.057
68038W        W40298   5.440  10.074   2.754
68039W        W40299  26.975  17.123   2.877
68040W        W40300  13.266   2.439   3.863
68041W        W40301  42.523  14.844  10.584
68042W        W40302  38.562   0.772   2.678
68043W        W40303  40.898  16.273   2.013
68044W        W40304  32.125  31.703   5.065
68045W        W40305  37.349  42.399  10.826
68046W        W40306  16.077  32.839  14.830
68047W        W40307  34.649  43.719   4.255
68048W        W40308   0.959  39.795  12.661
68049W        W40309  30.476  31.007   3.258
68050W        W40310  24.107   0.352  11.731
68051W        W40311  37.004   2.247  12.545
68052W        W40312  38.822  26.619  10.639
68053W        W40313  23.745   6.616  11.134
68054W        W40314  20.767  38.582  13.964
68055W        W40315  41.470  34.477  11.282
68056W        W40316  22.223  16.281   4.684
68057W        W40317  27.394  26.220  11.374
68058W        W40318  39.388   3.878   2.611
68059W        W40319  16.490   6.269  14.924
68060W        W40320  31.533  19.732   4.158
68061W        W40321  30.575  24.510   2.693
68062W        W40322  15.117   5.382   3.328
68063W        W40323  32.436  25.090   5.010
68064W        W40324  36.047  18.852  10.108
68065W        W40325   9.128   2.797  13.258
68066W        W40326   0.815   0.022   4.239
68067W        W40327  11.567   5.337  10.712
68068W        W40328   9.846  30.086  11.260
68069W        W40329  13.684  21.504   4.625
68070W        W40330  41.327  37.960  13.553
68071W        W40331  10.032   7.045  10.054
68072W        W40332   4.185  43.962  11.000
68073W        W40333  13.362  40.398  14.474
68074W        W40334  43.466  43.761  13.463
68075W        W40335   4.750   4.810   0.405
68076W        W40336  28.606  33.354  14.068
68077W        W40337  14.585  18.334   3.167
68078W        W40338  37.552  24.533  14.919
68079W        W40339  24.208  44.577   3.786
68080W        W40340  35.810  15.199   4.236
68081W        W40341  21.361  26.970   0.858
68082W        W40342  38.394  29.172   3.350
68083W        W40343   2.815  35.509  10.682
68084W        W40344  21.678  36.483  10.728
68085W        W40345  19.201  33.101   1.233
68086W        W40346   4.693  23.949  10.651
68087W        W40347   8.349   5.426   1.608
68088W        W40348  30.605  11.859  10.959
68089W        W40349  14.106  11.586   3.600
68090W        W40350  13.380   7.880  12.865
68091W        W40351  29.200  44.539  11.555
68092W        W40352  22.685  33.420  14.701
68093W        W40353  31.901  40.363   3.211
68094W        W40354  20.338  29.556  10.733
68095W        W40355   9.180  25.680   0.754
68096W        W40356  27.255   5.875   4.545
68097W        W40357  24.506  29.163   2.834
68098W        W40358  24.561  32.404  13.978
68099W        W40359   8.851  37.636  14.177
68100W        W40360  28.583  32.418  10.694
68101W        W40361  43.911  27.718   4.105
68102W        W40362  22.505  19.057   1.869
68103W        W40363   1.776   2.309  13.616
68104W        W40364  27.411  14.580  14.466
68105W        W40365   0.464  14.353  13.796
68106W        W40366  23.157  17.763  10.388
68107W        W40367  35.115   7.232   4.175
68108W        W40368  30.091  15.358  13.128
68109W        W40369  40.081  43.283   4.879
68110W        W40370  19.811  32.340  12.042
68111W        W40371  39.477   9.286  11.459
68112W        W40372  33.320  30.454   2.153
68113W        W40373  34.086   0.965   3.621
68114W        W40374  33.380  41.361  11.703
68115W        W40375  43.209  12.876  12.422
68116W        W40376  12.807  20.657   2.572
68117W        W40377  37.158  10.216   5.048
68118W        W40378  42.799  36.326  14.368
68119W        W40379  27.718   1.483   3.840
68120W        W40380  39.312  40.677   3.084
68121W        W40381   3.383  36.182  14.052
68122W        W40382  23.420  13.778  14.383
68123W        W40383   4.210  19.994   4.123
68124W        W40384  35.674   5.817   2.359
68125W        W40385  31.575  20.648  11.056
68126W        W40386  19.249  37.033   4.188
68127W        W40387   9.350  15.515  12.535
68128W        W40388  13.626  31.094  14.452
68129W        W40389  34.436  20.127  13.503
68130W        W40390   1.805  11.126   1.409
68131W        W40391   8.944   8.819   2.331
68132W        W40392   5.281  44.716  14.263
68133W        W40393  11.642  44.977  14.186
68134W        W40394  19.552  19.578   2.271
68135W        W40395  26.889  22.976   9.950
68136W        W40396  30.238  25.530  14.996
68137W        W40397  36.694  39.795   3.625
68138W        W40398  42.859  17.138  13.161
68139W        W40399  19.629  12.673   3.444
68140W        W40400  31.554  30.328  14.529
68141W        W40401  41.579   0.208  13.532
68142W        W40402  14.738   0.527  11.214
68143W        W40403  11.288  40.892   3.197
68144W        W40404   1.957  33.376   3.829
68145W        W40405  19.228   8.242  11.595
68146W        W40406  31.587  44.189  12.049
68147W        W40407   3.237  39.850   0.490
68148W        W40408   3.911   1.058   4.975
68149W        W40409  37.583  33.253   2.253
68150W        W40410   4.767   9.819  13.800
68151W        W40411  42.517  20.075   3.825
68152W        W40412  42.783  14.772  14.865
68153W        W40413  34.310  33.465   3.343
68154W        W40414   1.215  34.015  11.602
68155W        W40415  40.110  10.360   3.271
68156W        W40416  19.658  27.201  11.374
68157W        W40417  14.665  43.040  13.353
68158W        W40418  42.008  30.856  13.997
68159W        W40419  34.404  18.031   1.618
68160W        W40420   5.980  20.958   3.390
68161W        W40421  23.293  44.314  10.976
68162W        W40422  35.388  20.231   1.864
68163W        W40423  13.049   5.342   3.080
68164W        W40424   1.727  37.881   4.574
68165W        W40425  31.538  37.816  13.418
68166W        W40426  12.803   8.250   3.270
68167W        W40427   9.253  36.032   3.704
68168W        W40428  38.874  35.556   4.209
68169W        W40429   0.904  24.478   1.194
68170W        W40430  19.186  15.629   0.457
68171W        W40431  36.560  34.410   1.904
68172W        W40432  16.550  41.540   1.919
68173W        W40433  23.204  13.551  12.481
68174W        W40434  44.937  32.334   1.635
68175W        W40435   5.376   5.048   2.630
68176W        W40436  38.914   1.384  14.248
68177W        W40437   5.899  17.585  11.174
68178W        W40438  19.993  18.859  11.563
68179W        W40439   2.460  15.880   2.907
68180W        W40440  13.847  20.088   2.296
68181W        W40441  36.967   8.727  11.117
68182W        W40442  24.202  28.912   1.483
68183W        W40443  38.873  35.653  13.321
68184W        W40444   7.703   5.383  12.187
68185W        W40445   0.485  27.543   0.039
68186W        W40446  16.797  31.869   1.459
68187W        W40447   1.318  37.821   3.585
68188W        W40448  43.760  38.965  13.848
68189W        W40449  31.696   6.981  14.344
68190W        W40450  44.070  25.331   3.220
68191W        W40451   5.797  18.561   1.866
68192W        W40452  39.211  42.614  11.050
68193W        W40453  15.809  22.260  11.499
68194W        W40454  13.563  35.901   4.826
68195W        W40455  36.167  30.005  14.357
68196W        W40456  18.558  20.998   3.277
68197W        W40457   6.960  19.800  11.983
68198W        W40458  29.734  25.942   4.028
68199W        W40459  16.252  10.567  11.981
68200W        W40460   4.105  16.978  11.555
68201W        W40461  34.195  25.437  11.093
68202W        W40462   8.259  28.619   0.347
68203W        W40463   6.717  37.652   2.524
68204W        W40464  30.703  12.624   0.759
68205W        W40465  41.683   0.951   0.378
68206W        W40466  33.899  20.701  12.035
68207W        W40467  31.501  22.151  13.181
68208W        W40468   3.172  37.583  11.935
68209W        W40469  14.276  18.883  10.298
68210W        W40470  41.641   7.471  14.071
68211W        W40471   4.193  25.818   3.657
68212W        W40472  18.849  23.593  10.756
68213W        W40473  35.164  16.677   3.637
68214W        W40474  36.425  21.650   0.894
68215W        W40475   7.732  40.403  12.218
68216W        W40476  29.091  16.121   1.766
68217W        W40477   7.100  13.831  11.497
68218W        W40478   9.626   9.864   0.989
68219W        W40479   6.586   0.117  13.040
68220W        W40480  25.754  43.400  10.352
68221W        W40481  17.776  35.893  10.644
68222W        W40482  25.433  34.630  10.178
68223W        W40483  17.815  25.088  14.014
68224W        W40484  35.160   3.032  12.470
68225W        W40485  18.746  24.213  13.248
68226W        W40486  42.554  12.580  11.557
68227W        W40487  32.143  11.107   0.810
68228W        W40488   5.712  23.246   1.340
68229W        W40489  12.158   9.804   0.938
68230W        W40490  23.280  35.428   1.699
68231W        W40491  30.377  13.385  13.697
68232W        W40492   3.390  33.353  14.937
68233W        W40493  11.101  22.158   0.276
68234W        W40494  21.162  22.955  11.983
68235W        W40495  13.604   8.267   4.718
68236W        W40496  17.147  21.276  11.370
68237W        W40497  22.299  41.827  12.492
68238W        W40498  38.875  31.525   0.689
68239W        W40499  11.697  11.057   3.809
68240W        W40500  14.663  18.550   1.345
68241W        W40501  27.998  35.866  11.957
68242W        W40502   0.924   7.650   1.794
68243W        W40503  39.997  15.189   3.484
68244W        W40504   2.963  20.703   0.829
68245W        W40505   6.400  28.355  11.975
68246W        W40506   3.870   6.371   0.815
68247W        W40507  32.173   1.002  10.413
68248W        W40508  26.982   4.875   1.706
68249W        W40509  10.415   1.910  11.089
68250W        W40510  17.311  18.597  10.375
68251W        W40511  17.204  32.287  11.554
68252W        W40512   3.730  14.781  11.597
68253W        W40513  44.950  15.355  12.958
68254W        W40514  24.454  17.100  11.887
68255W        W40515   1.439  35.100  14.861
68256W        W40516  44.624  15.757  12.839
68257W        W40517   8.217  26.670   2.471
68258W        W40518  29.869  18.741   3.734
68259W        W40519  38.838  12.818  14.457
68260W        W40520   1.367  17.990  12.092
68261W        W40521   9.712  10.356   3.017
68262W        W40522   3.858   4.770  11.219
68263W        W40523  41.334  28.126  11.572
68264W        W40524  44.761  39.792   3.697
68265W        W40525  14.776  44.938   3.590
68266W        W40526  25.063   4.755   3.164
68267W        W40527   2.803  31.693  14.945
68268W        W40528  22.689  20.225  10.380
68269W        W40529   3.821  30.893   2.346
68270W        W40530  36.024  31.710   4.728
68271W        W40531  36.474   1.407  14.966
68272W        W40532  41.430  23.054   4.748
68273W        W40533   2.027  14.596  12.519
68274W        W40534   7.354  20.681  14.955
68275W        W40535  38.092  42.769  14.969
68276W        W40536  31.016   6.127   0.440
68277W        W40537  30.426  27.539  13.925
68278W        W40538  42.757  22.363   3.939
68279W        W40539   4.412  15.251   1.369
68280W        W40540  35.864  35.447  10.779
68281W        W40541   3.733  35.630   2.720
68282W        W40542  43.168   4.647   0.870
68283W        W40543  22.942   4.786  10.612
68284W        W40544  13.208  25.047  10.826
68285W        W40545  40.954  14.278  12.414
68286W        W40546  28.520  34.358  13.933
68287W        W40547  19.599  37.926  14.221
68288W        W40548  21.284  25.025  14.748
68289W        W40549  37.474   5.875   4.645
68290W        W40550  21.748  15.748   2.245
68291W        W40551  20.963  42.406   0.775
68292W        W40552  38.868  27.148  10.680
68293W        W40553   3.928   9.589  13.494
68294W        W40554  36.873  11.811   2.225
68295W        W40555  36.110  23.913  14.415
68296W        W40556  27.462  34.896   0.428
68297W        W40557  25.742  27.065  12.121
68298W        W40558  18.046  30.136  11.115
68299W        W40559  29.659  38.230   3.180
68300W        W40560   6.122  10.769  12.409
68301W        W40561   6.653  30.003   1.829
68302W        W40562  29.213  21.056  13.881
68303W        W40563  30.572  30.417   2.183
68304W        W40564  20.535   8.859  10.665
68305W        W40565  35.688  10.166  13.611
68306W        W40566  29.372   9.239  13.057
68307W        W40567  10.164  31.021   4.599
68308W        W40568  12.649  27.849   4.829
68309W        W40569  13.280  44.399   2.839
68310W        W40570  27.120   3.684  12.657
68311W        W40571  11.013  21.154  12.794
68312W        W40572  21.342   9.591   1.761
68313W        W40573   5.761  28.183  14.881
68314W        W40574  32.389  18.608  10.672
68315W        W40575  39.854  32.107   0.448
68316W        W40576  31.517  18.339  13.993
68317W        W40577  39.019  40.665   2.265
68318W        W40578   7.346   0.224   4.405
68319W        W40579  37.019  26.934   0.397
68320W        W40580  43.303  44.945   0.086
68321W        W40581  22.164  12.308   0.730
68322W        W40582   2.943   2.675  12.567
68323W        W40583  30.852  28.574   0.267
68324W        W40584  32.705   3.528  12.093
68325W        W40585  21.144  41.430  11.154
68326W        W40586  40.090   4.259   4.370
68327W        W40587   3.659  11.130   2.551
68328W        W40588   4.599  37.226  14.476
68329W        W40589  41.409   9.411  10.768
68330W        W40590  36.905  36.510  10.507
68331W        W40591  15.924   2.820  11.677
68332W        W40592  30.843  35.641   3.267
68333W        W40593  16.665  16.198  14.359
68334W        W40594  42.485  27.440  10.715
68335W        W40595  40.750  10.194  13.870
68336W        W40596  22.736  44.189   3.644
68337W        W40597   4.303  39.425   3.215
68338W        W40598  43.279  11.223  13.889
68339W        W40599  20.938  18.300  12.341
68340W        W40600   7.143   7.709  12.401
68341W        W40601  32.314  38.600   0.265
68342W        W40602  17.504  11.711  11.910
68343W        W40603   3.227  23.644   1.801
68344W        W40604  34.997  17.636  11.283
68345W        W40605  34.994  31.712  12.125
68346W        W40606   7.728   9.214   2.304
68347W        W40607  28.495  18.147   4.577
68348W        W40608  42.385  11.672   3.961
68349W        W40609  21.029  22.922   1.097
68350W        W40610  41.591  37.695   2.204
68351W        W40611   5.617  24.548  12.078
68352W        W40612  25.607  41.094  14.569
68353W        W40613  17.709   8.373   4.225
68354W        W40614  27.497  17.101   4.420
68355W        W40615  38.932  16.501  13.064
68356W        W40616  41.955   1.857   4.737
68357W        W40617  30.623  18.668  14.372
68358W        W40618  29.964  30.152  13.037
68359W        W40619  42.930  18.356  10.330
68360W        W40620  20.098  22.549  12.065
68361W        W40621   0.002  12.179   3.579
68362W        W40622  37.348  38.415   1.895
68363W        W40623  12.870  15.542   2.628
68364W        W40624  31.938  15.582   4.999
68365W        W40625  22.658  27.382   5.064
68366W        W40626  10.354   5.767   1.007
68367W        W40627  22.862  14.825   2.263
68368W        W40628  38.017  10.155   3.314
68369W        W40629  35.101   7.765   1.481
68370W        W40630  40.802   7.755  14.220
68371W        W40631  30.140   8.122  13.974
68372W        W40632  14.627  38.505  14.887
68373W        W40633  24.091  22.935   3.234
68374W        W40634  18.737   2.461   2.707
68375W        W40635  39.131   2.541  13.423
68376W        W40636  20.305  20.125  10.683
68377W        W40637  26.486   2.881  13.363
68378W        W40638  28.648   4.683   0.284
68379W        W40639   0.388   9.935   0.970
68380W        W40640  17.260  22.538   0.261
68381W        W40641  30.521  10.931   0.222
68382W        W40642  19.322  42.226  13.458
68383W        W40643  40.423  16.782   4.275
68384W        W40644  13.316   0.426   4.123
68385W        W40645   2.513  11.748   3.217
68386W        W40646  34.245  19.348  13.137
68387W        W40647  31.004  14.770  10.662
68388W        W40648  11.397  23.082  14.159
68389W        W40649  31.044  17.123   2.856
68390W        W40650  14.878  42.825   5.015
68391W        W40651  19.589  39.820  14.167
68392W        W40652   3.996  12.659  12.844
68393W        W40653   5.299  30.110   1.936
68394W        W40654  19.303  36.223  13.827
68395W        W40655   3.765  25.591   4.876
68396W        W40656  36.857  44.454   4.227
68397W        W40657   8.629  23.407  12.224
68398W        W40658  35.261  36.043   1.303
68399W        W40659   1.956   8.862  12.157
68400W        W40660  18.700  38.826  13.937
68401W        W40661   6.932   7.431   2.191
68402W        W40662  36.413  34.222  14.971
68403W        W40663  41.955   2.767  14.588
68404W        W40664   3.445  39.510   2.750
68405W        W40665  20.388   1.266   3.223
68406W        W40666   5.724  22.200  10.533
68407W        W40667  14.182  30.020  11.944
68408W        W40668   9.093  12.750   2.868
68409W        W40669  18.472  10.770   4.551
68410W        W40670   1.642  18.714  12.037
68411W        W40671   9.925  44.591   2.882
68412W        W40672   4.931   8.249  14.875
68413W        W40673  11.720  16.934  11.508
68414W        W40674  27.778   1.263  10.345
68415W        W40675  36.819  10.202   1.846
68416W        W40676  25.042  33.621   4.865
68417W        W40677  19.473   8.057   0.194
68418W        W40678   3.430  44.028   1.592
68419W        W40679  12.131   3.367   0.438
68420W        W40680  20.441  32.118  12.487
68421W        W40681   9.936   9.296   3.206
68422W        W40682  29.183  37.065  14.942
68423W        W40683  10.193   9.871  11.627
68424W        W40684  17.171   8.706  14.787
68425W        W40685  14.614  28.022  11.895
68426W        W40686  41.573  25.101   1.796
68427W        W40687  21.731  17.252  13.026
68428W        W40688  17.368  20.276  11.616
68429W        W40689  28.557  15.620   1.194
68430W        W40690  16.303  22.023  13.317
68431W        W40691  10.139   1.832  13.010
68432W        W40692  13.198  20.786  11.961
68433W        W40693  27.908  18.933  11.952
68434W        W40694  28.892  18.185  13.363
68435W        W40695  24.053   7.984   4.722
68436W        W40696  27.374  44.933  12.573
68437W        W40697  40.877  38.326   0.880
68438W        W40698  41.354  30.883   2.656
68439W        W40699  43.556  44.827  11.945
68440W        W40700  31.180  43.242  12.104
68441W        W40701  27.959  38.913   0.061
68442W        W40702  40.671  20.625   3.275
68443W        W40703   4.695   2.770   4.841
68444W        W40704  25.463  22.538  11.487
68445W        W40705   7.395  15.307   1.357
68446W        W40706  22.748  39.486   1.204
68447W        W40707   1.421  40.448   1.255
68448W        W40708  11.191  30.996   0.731
68449W        W40709  31.108  25.457  11.621
68450W        W40710  41.503  30.123   4.622
68451W        W40711   6.731  24.474  12.915
68452W        W40712   0.903  31.131  11.901
68453W        W40713   3.557  23.195   3.067
68454W        W40714  23.025   7.291  11.865
68455W        W40715  34.652  30.113   3.607
68456W        W40716  24.922  37.114  13.895
68457W        W40717  25.070  27.894   0.745
68458W        W40718   9.808   6.184  12.511
68459W        W40719  34.487  41.883   4.137
68460W        W40720  32.644  18.457   3.378
68461W        W40721   9.405   7.805  11.997
68462W        W40722  31.939  35.888   1.981
68463W        W40723  28.471  25.565  13.315
68464W        W40724  21.000  10.660   2.846
68465W        W40725  40.427  20.074  13.461
68466W        W40726  19.783  14.038  14.467
68467W        W40727  18.212   2.733   4.057
68468W        W40728  11.158  40.970  12.053
68469W        W40729   1.224   8.756  13.373
68470W        W40730   3.328  28.568  13.491
68471W        W40731   8.443  39.440  11.646
68472W        W40732  22.826  30.828   2.571
68473W        W40733  20.657  26.209  14.884
68474W        W40734  23.188  40.054   3.354
68475W        W40735  17.227  44.885   1.577
68476W        W40736  30.976   4.995  12.394
68477W        W40737   9.120  34.782   3.306
68478W        W40738   7.000  23.835  14.121
68479W        W40739   7.894  21.644  12.638
68480W        W40740  27.563   8.727   1.988
68481W        W40741  21.552  20.651   1.910
68482W        W40742  31.434  33.471  13.763
68483W        W40743  32.084   5.321  13.208
68484W        W40744  38.962   7.427   0.274
68485W        W40745   3.492  26.432   0.777
68486W        W40746  34.394  44.228  11.982
68487W        W40747  33.873   4.316  11.001
68488W        W40748   2.840  13.202  14.764
68489W        W40749   4.756  15.134   0.004
68490W        W40750  28.552  10.221  12.997
68491W        W40751  30.049  36.422   1.006
68492W        W40752   8.801   7.273  14.867
68493W        W40753  20.201  10.579  14.449
68494W        W40754   6.398   8.887  11.960
68495W        W40755  29.904  43.112  14.954
68496W        W40756  14.774  31.580   5.079
68497W        W40757  29.181  33.302   4.528
68498W        W40758  39.826  25.056   4.918
68499W        W40759  39.421  27.497  12.440
68500W        W40760  12.096  22.833   1.692
68501W        W40761  15.060  11.192  10.728
68502W        W40762  21.308  31.125   4.522
68503W        W40763  42.831  14.200  11.282
68504W        W40764  44.352   6.993  13.109
68505W        W40765  41.999  29.405  14.201
68506W        W40766  18.962  35.382   0.749
68507W        W40767   9.622   1.746  12.987
68508W        W40768  15.047  24.034  12.051
68509W        W40769  38.930  43.926   0.954
68510W        W40770  17.775  40.100  13.187
68511W        W40771  26.570  18.278  12.879
68512W        W40772   6.264  27.138   3.107
68513W        W40773  37.854  20.750  13.597
68514W        W40774  27.186  40.169  10.230
68515W        W40775  17.751  10.658  13.564
68516W        W40776  24.128  23.721  12.069
68517W        W40777  22.357  31.024   2.450
68518W        W40778  13.583  28.554   0.945
68519W        W40779  39.494  27.481  14.305
68520W        W40780   0.245  40.909   4.414
68521W        W40781  41.246  27.926   3.867
68522W        W40782  28.018   4.557   3.638
68523W        W40783   1.853  37.804   0.263
68524W        W40784  20.547  32.489   0.007
68525W        W40785  20.555  41.057  10.924
68526W        W40786   7.221  23.679   4.415
68527W        W40787  30.339  10.382   4.201
68528W        W40788  42.412   7.256  12.656
68529W        W40789  35.220  39.230  11.891
68530W        W40790  33.434  34.116  13.942
68531W        W40791  14.267  26.582   3.049
68532W        W40792  18.265  27.505  14.759
68533W        W40793   1.725  25.811  14.837
68534W        W40794  22.281  32.911  13.881
68535W        W40795   4.373  11.229   3.981
68536W        W40796   4.466  32.925   0.066
68537W        W40797   8.376  14.631  13.310
68538W        W40798  36.401  14.275   0.467
68539W        W40799  30.903  41.441  14.049
68540W        W40800  34.559  27.824  12.604
68541W        W40801   6.960  35.476  11.646
68542W        W40802  18.211  36.317   3.273
68543W        W40803  39.961  14.741  10.689
68544W        W40804   1.919   8.302   2.876
68545W        W40805  30.082  37.090  14.533
68546W        W40806  23.707   3.291  10.941
68547W        W40807  22.152  17.410   2.511
68548W        W40808  19.510  11.271  14.485
68549W        W40809  21.516  32.421   3.691
68550W        W40810   4.979  31.439   4.557
68551W        W40811  32.355  33.845  14.806
68552W        W40812  21.193  32.091  13.012
68553W        W40813  34.091  18.737   2.539
68554W        W40814   5.727  22.262   1.318
68555W        W40815  18.824  16.192  10.778
68556W        W40816  32.030  34.699  14.497
68557W        W40817   4.748  11.517  10.052
68558W        W40818  13.130  26.749  13.978
68559W        W40819  14.162   1.238  12.939
68560W        W40820  40.209  11.884  14.695
68561W        W40821  24.295  27.798   2.673
68562W        W40822  17.910  44.760   0.030
68563W        W40823  39.334  36.970   1.183
68564W        W40824  22.741  36.883   4.563
68565W        W40825  37.615  14.006  10.311
68566W        W40826  24.737  38.928  14.356
68567W        W40827  17.238   3.939   0.306
68568W        W40828   9.138   6.660  10.511
68569W        W40829   7.152   5.299   2.706
68570W        W40830  20.011   0.421   3.522
68571W        W40831  41.088   6.859  12.892
68572W        W40832  19.249  43.307   4.209
68573W        W40833  16.990  44.789  12.086
68574W        W40834  13.056  30.554  10.007
68575W        W40835   5.337   6.939   0.803
68576W        W40836  42.043  41.464   1.931
68577W        W40837  40.462   3.900   2.640
68578W        W40838  27.461  12.756   1.777
68579W        W40839  41.046   1.062  11.560
68580W        W40840  11.651  37.640   0.823
68581W        W40841   1.576  19.902  12.822
68582W        W40842  11.625  16.522  13.410
68583W        W40843  11.672   0.943  13.457
68584W        W40844  41.001  19.169  14.821
68585W        W40845   6.200  10.852  13.946
68586W        W40846  41.311   2.821   4.663
68587W        W40847  19.589   5.316   0.520
68588W        W40848  30.935   6.188   2.266
68589W        W40849   7.385  29.854  14.828
68590W        W40850  14.841  30.757  11.286
68591W        W40851  17.183  27.521  12.694
68592W        W40852   9.217  27.204   4.334
68593W        W40853  26.034  31.478  12.611
68594W        W40854  23.332  32.306   3.266
68595W        W40855  23.694  38.299   1.810
68596W        W40856  41.458  17.631  12.739
68597W        W40857  32.152  17.279   1.939
68598W        W40858  30.151  15.282   4.819
68599W        W40859  38.505  20.146   4.981
68600W        W40860   6.939  24.150   4.417
68601W        W40861  28.539  16.070   3.150
68602W        W40862  21.658  18.107  12.074
68603W        W40863  38.882  33.513   1.202
68604W        W40864   1.006   0.742  14.690
68605W        W40865   3.210   3.412  11.113
68606W        W40866  25.159  41.130  12.380
68607W        W40867  28.178  20.201   3.094
68608W        W40868   8.400   2.667  11.650
68609W        W40869  19.222  24.095   2.208
68610W        W40870   3.928  22.711  12.883
68611W        W40871  35.170  36.071   2.788
68612W        W40872  35.197  31.999   0.011
68613W        W40873  39.378  15.874  12.111
68614W        W40874  24.492  26.372   1.743
68615W        W40875  35.045   6.248  14.808
68616W        W40876  22.116  20.456  14.400
68617W        W40877  34.553   4.472  14.925
68618W        W40878  12.189   8.949  11.038
68619W        W40879   8.827  17.245  11.487
68620W        W40880   5.220  25.519   1.450
68621W        W40881  31.506  25.471   0.882
68622W        W40882  26.565  25.641   1.576
68623W        W40883  39.382   0.579   3.094
68624W        W40884  35.422  29.676   3.224
68625W        W40885  14.121  12.352   2.212
68626W        W40886  13.190  44.931  11.633
68627W        W40887  23.227  42.037   0.747
68628W        W40888  10.355  18.632  11.115
68629W        W40889  35.455   0.076   0.881
68630W        W40890  41.914  24.469   4.129
68631W        W40891   9.199  38.568  13.882
68632W        W40892   4.420  33.958  13.266
68633W        W40893   6.375  10.082  13.491
68634W        W40894   9.822  32.568  11.657
68635W        W40895  44.501   3.877   4.657
68636W        W40896  23.087  36.811  11.115
68637W        W40897  28.727  37.029  12.675
68638W        W40898  27.141  31.514   1.623
68639W        W40899  40.550  26.369   3.133
68640W        W40900  12.885  43.509   2.336
68641W        W40901  32.272  39.900  10.224
68642W        W40902  20.750  11.796  12.332
68643W        W40903  27.779  16.781  11.191
68644W        W40904  31.061  32.015   2.362
68645W        W40905   9.708   8.631  14.367
68646W        W40906  18.347   6.874   4.748
68647W        W40907  31.952   5.347   3.049
68648W        W40908  33.089  26.896  13.422
68649W        W40909   4.530  33.935  13.836
68650W        W40910  43.900  13.759   4.788
68651W        W40911  33.049  40.500   1.071
68652W        W40912  13.413  11.828   4.162
68653W        W40913  37.942  35.362   1.916
68654W        W40914  16.100   0.762  11.082
68655W        W40915  39.529  39.883   2.500
68656W        W40916  31.971  29.928  14.344
68657W        W40917  21.265  27.595  13.563
68658W        W40918  23.095   5.282  10.533
68659W        W40919  39.538  35.948  13.811
68660W        W40920  14.094  13.153  11.440
68661W        W40921  28.845  24.774   1.394
68662W        W40922  19.089   4.951   2.159
68663W        W40923  27.479   0.550   3.370
68664W        W40924  25.038  32.767   3.825
68665W        W40925  11.014  31.614  11.178
68666W        W40926  21.906  28.816  10.535
68667W        W40927  28.894  10.314  12.487
68668W        W40928   5.369  21.510   1.013
68669W        W40929  34.460  41.890   3.201
68670W        W40930   6.430  37.569   1.267
68671W        W40931  18.961  38.394  12.134
68672W        W40932   4.849   1.752  11.496
68673W        W40933  42.424  37.357  11.465
68674W        W40934  30.453   3.259  14.418
68675W        W40935  18.679  25.490   2.268
68676W        W40936   9.817  29.869   1.783
68677W        W40937  17.621  35.308  11.968
68678W        W40938  20.930  39.479  12.420
68679W        W40939  27.880  24.065  13.070
68680W        W40940   0.822  21.509   1.372
68681W        W40941  18.244  41.958  13.942
68682W        W40942  16.752  19.845   4.465
68683W        W40943  41.275  17.141  11.515
68684W        W40944  19.858  31.524  11.612
68685W        W40945  13.878   9.255   2.334
68686W        W40946  42.242   0.234   2.032
68687W        W40947  14.783  29.084  14.584
68688W        W40948  38.318  10.737   4.192
68689W        W40949  13.826  17.199   1.409
68690W        W40950   0.967   5.338   3.842
68691W        W40951  39.807  12.574   2.710
68692W        W40952  36.532   3.953   3.850
68693W        W40953  41.805  16.372   2.701
68694W        W40954  12.278  33.813   2.921
68695W        W40955  30.150  18.194  10.537
68696W        W40956  30.843   0.757   4.800
68697W        W40957   0.646  32.502  12.936
68698W        W40958  20.533  38.148  13.785
68699W        W40959  21.326   7.196   2.479
68700W        W40960   0.485  16.194  13.821
68701W        W40961  18.365  35.967  14.511
68702W        W40962  22.133  12.330  11.507
68703W        W40963  32.407  22.763   2.583
68704W        W40964  22.208   5.660   3.236
68705W        W40965  15.240  26.223  11.139
68706W        W40966  29.703  27.093  11.195
68707W        W40967  26.687  37.643  11.056
68708W        W40968  29.135  18.569  14.134
68709W        W40969  39.292   1.711  11.087
68710W        W40970   1.892  33.375   4.604
68711W        W40971   9.582   3.710  10.575
68712W        W40972  14.026  12.402  12.482
68713W        W40973   9.272   9.844  11.701
68714W        W40974   3.951  21.664  12.665
68715W        W40975  28.172  29.571   3.691
68716W        W40976  26.694  15.244  14.578
68717W        W40977  41.490  22.639  14.512
68718W        W40978  35.959  13.808  13.092
68719W        W40979   3.911  29.427  14.350
68720W        W40980   5.815  25.516  13.150
68721W        W40981  22.901  15.870  11.594
68722W        W40982  17.670   1.965   4.051
68723W        W40983  39.262  12.396   0.284
68724W        W40984  39.872   2.327   0.432
68725W        W40985  15.121  33.433  12.539
68726W        W40986  10.925   3.355   4.569
68727W        W40987  11.516   1.460   3.183
68728W        W40988  26.280  25.045  13.311
68729W        W40989  36.241  13.622  14.456
68730W        W40990   7.719  44.920  13.308
68731W        W40991  44.803  41.503   3.126
68732W        W40992  20.862  12.681   0.379
68733W        W40993   3.180  24.992  10.754
68734W        W40994   4.156  37.208  13.370
68735W        W40995  27.778  36.937   1.928
68736W        W40996  17.042  28.549  12.566
68737W        W40997  21.174  36.070  10.083
68738W        W40998  36.440  28.311  13.032
68739W        W40999   0.534  29.571   2.343
68740W        W41000  21.965  41.862   3.594
68741W        W41001  23.526  38.163   0.838
68742W        W41002  32.442  19.940   2.693
68743W        W41003  28.288  11.317   3.172
68744W        W41004  17.597  16.300   1.742
68745W        W41005  33.664  13.601   3.588
68746W        W41006  36.161  17.170   2.277
68747W        W41007  18.253  18.385  11.449
68748W        W41008  40.915  14.826   2.198
68749W        W41009  25.440  44.343   4.394
68750W        W41010  17.265   7.861  11.202
68751W        W41011  36.910  24.068  14.537
68752W        W41012   8.008  34.060  10.434
68753W        W41013  37.332  22.158   1.753
68754W        W41014  18.070  15.271  10.380
68755W        W41015   9.389   3.942   1.905
68756W        W41016   2.422  12.986  12.032
68757W        W41017  24.056   1.968   0.204
68758W        W41018   3.159  30.494   3.615
68759W        W41019  11.192  34.949  11.736
68760W        W41020  25.038  34.209  11.999
68761W        W41021  41.244  27.538   1.286
68762W        W41022  39.622  21.095  10.537
68763W        W41023  25.091   0.952   3.273
68764W        W41024  35.515  17.036   4.581
68765W        W41025   3.933  20.264  10.719
68766W        W41026   9.366  12.523  11.185
68767W        W41027  19.469  17.288  12.164
68768W        W41028   5.369   9.971  14.499
68769W        W41029  23.637   5.511  11.259
68770W        W41030  39.386   1.411   3.322
68771W        W41031   1.091  17.899   5.118
68772W        W41032   2.903  40.822  14.513
68773W        W41033  31.718  24.931  12.859
68774W        W41034  36.900  25.699  13.499
68775W        W41035  31.221  41.453  13.072
68776W        W41036   8.971  39.865   0.253
68777W        W41037   2.787  26.489  13.049
68778W        W41038  24.982  42.303   1.865
68779W        W41039  14.222  25.276   3.973
68780W        W41040   2.709   1.160   0.238
68781W        W41041   1.418  21.198  12.026
68782W        W41042  30.775  41.053   1.501
68783W        W41043  35.009   7.952   0.584
68784W        W41044   5.385  38.479  12.189
68785W        W41045  28.606  13.036  13.336
68786W        W41046  35.065   2.667  13.994
68787W        W41047  25.825   3.038  10.704
68788W        W41048  41.242  20.628  12.074
68789W        W41049  36.124   0.038   1.915
68790W        W41050  17.190  36.961   0.887
68791W        W41051   1.836   8.799   0.982
68792W        W41052  41.084   8.960  13.321
68793W        W41053  39.889  13.051  13.368
68794W        W41054  20.655   0.568  13.803
68795W        W41055  28.879  34.000  10.516
68796W        W41056   2.963  34.679  14.747
68797W        W41057   4.864  40.590   0.234
68798W        W41058  32.565  37.225   1.646
68799W        W41059  26.612  13.839   2.845
68800W        W41060   9.106  41.330  12.954
68801W        W41061  27.538  10.322   3.611
68802W        W41062  15.575  16.831   1.249
68803W        W41063  39.530  37.039  14.765
68804W        W41064   1.685  34.333  11.118
68805W        W41065  28.274  22.031  10.634
68806W        W41066  18.987  30.531  13.852
68807W        W41067  37.110  24.556   4.093
68808W        W41068  32.417  11.820  13.310
68809W        W41069   6.048  30.884   4.626
68810W        W41070   9.184  36.028  11.088
68811W        W41071  27.969  16.360   3.749
68812W        W41072  13.751  16.633   4.276
68813W        W41073  35.016   9.613   0.319
68814W        W41074  22.309  30.348   3.282
68815W        W41075   5.345  18.339   4.113
68816W        W41076  13.618  15.323   4.617
68817W        W41077  40.765  39.297   0.553
68818W        W41078  22.187  36.608  11.522
68819W        W41079  44.818  36.398  11.268
68820W        W41080   6.625  32.943   4.496
68821W        W41081  11.171  34.986   2.659
68822W        W41082  22.692  29.149  13.464
68823W        W41083  26.099  21.277   4.049
68824W        W41084  16.493  33.522  10.804
68825W        W41085  14.219  42.895   4.001
68826W        W41086  15.190  39.372   4.389
68827W        W41087   5.610  44.918   2.763
68828W        W41088   4.177  30.925   0.504
68829W        W41089  22.524  43.409  11.083
68830W        W41090  37.372   1.901   3.688
68831W        W41091  20.107  26.205  12.080
68832W        W41092  22.199  22.650  13.975
68833W        W41093  17.275  31.677  12.937
68834W        W41094  21.381  39.123  14.046
68835W        W41095   6.309  43.304   3.150
68836W        W41096   4.473  22.343   3.769
68837W        W41097  34.413  24.496   0.066
68838W        W41098  22.742  15.351   4.569
68839W        W41099  12.644   1.324  10.931
68840W        W41100  13.606  16.655  12.962
68841W        W41101  38.630  11.397   0.263
68842W        W41102  11.083  40.739   1.671
68843W        W41103  16.672   3.399   3.828
68844W        W41104  12.682  24.663  12.557
68845W        W41105  10.302   3.967  13.956
68846W        W41106  15.116   7.048   3.822
68847W        W41107  40.590  43.751   1.706
68848W        W41108  44.467   1.792  13.745
68849W        W41109  15.782   7.718  11.964
68850W        W41110  21.223  43.880  11.672
68851W        W41111  40.766  39.422  11.124
68852W        W41112  39.854  19.116  12.020
68853W        W41113  35.930  35.036  11.103
68854W        W41114  11.427  28.327  14.458
68855W        W41115  21.174  20.270  13.926
68856W        W41116  40.004  10.687  10.725
68857W        W41117  41.218   9.788  12.905
68858W        W41118  20.631  13.142  10.414
68859W        W41119   7.970  25.603  11.392
68860W        W41120  29.847  22.979  11.205
68861W        W41121  32.181  20.441  10.240
68862W        W41122  24.045  20.775  13.498
68863W        W41123  35.280  17.544   1.291
68864W        W41124  22.208  43.993  13.857
68865W        W41125  35.080  26.674   1.767
68866W        W41126  17.036   2.458  11.533
68867W        W41127  39.955  16.705  11.657
68868W        W41128  36.680  33.894   1.880
68869W        W41129  43.574  17.514  12.382
68870W        W41130   2.636  21.783  14.939
68871W        W41131  42.052  20.163   0.939
68872W        W41132  33.589   2.778   4.122
68873W        W41133   4.403  44.979  11.284
68874W        W41134  15.563  19.548   0.308
68875W        W41135  36.000  31.517   1.649
68876W        W41136   4.891  40.294   0.873
68877W        W41137   1.013  32.923  11.097
68878W        W41138   9.012  27.223  13.487
68879W        W41139  33.561  32.892  12.798
68880W        W41140   3.791   7.149  12.159
68881W        W41141   8.905   6.150  13.332
68882W        W41142   3.794  14.052   2.189
68883W        W41143  32.671  12.132  13.614
68884W        W41144   9.872  20.168  13.933
68885W        W41145  17.913  27.846  13.543
68886W        W41146   0.791   9.613   0.886
68887W        W41147  41.527   5.627   0.364
68888W        W41148  11.908  43.376  11.988
68889W        W41149   3.618  14.774  12.919
68890W        W41150   7.001  43.159  11.130
68891W        W41151   5.366  40.882  11.946
68892W        W41152  35.392  42.382   2.202
68893W        W41153  21.980  16.338  13.390
68894W        W41154  23.612  41.584   2.861
68895W        W41155  17.647  42.338   0.770
68896W        W41156  10.405  25.996  12.557
68897W        W41157   2.212   6.788  14.380
68898W        W41158  20.741   8.405  13.674
68899W        W41159  16.547  21.278  12.853
68900W        W41160  13.166  17.355   5.294
68901W        W41161  12.929   9.261  10.701
68902W        W41162   5.469  35.844   4.630
68903W        W41163  37.032  34.979  12.142
68904W        W41164  35.011   4.217   4.558
68905W        W41165   9.604  15.266  10.700
68906W        W41166  38.829  27.395   0.323
68907W        W41167   1.293  20.224   4.188
68908W        W41168  25.691   9.473   0.095
68909W        W41169  35.372  16.734   0.303
68910W        W41170  25.446  35.302  13.739
68911W        W41171  39.093  13.819   0.869
68912W        W41172  18.742  15.473  14.811
68913W        W41173  19.135  35.417   1.261
68914W        W41174  14.265   9.736   1.903
68915W        W41175  36.380  19.251  11.796
68916W        W41176  12.495  28.262   5.104
68917W        W41177  26.670  42.921   1.323
68918W        W41178  30.150  10.528  10.632
68919W        W41179  18.516   9.000   9.618
68920W        W41180  29.971  11.001   0.420
68921W        W41181  20.989  26.845  14.344
68922W        W41182  20.497  26.251  11.076
68923W        W41183   5.259  17.659   2.625
68924W        W41184  11.667  37.409   2.914
68925W        W41185  38.191   5.340   1.751
68926W        W41186  13.367   3.890   1.552
68927W        W41187  24.870  16.824  12.051
68928W        W41188  30.095  19.988  12.278
68929W        W41189  35.794  25.182  11.511
68930W        W41190  24.692   0.401   4.234
68931W        W41191  33.462  14.939  13.284
68932W        W41192  26.022  38.481  11.654
68933W        W41193   9.626  44.915   4.234
68934W        W41194  19.068   6.290  11.907
68935W        W41195   0.374  14.767  10.696
68936W        W41196  11.787  20.854  14.031
68937W        W41197  44.334  28.180  12.804
68938W        W41198   0.741  10.368  12.048
68939W        W41199  36.642  11.620   1.720
68940W        W41200  34.130  14.785  14.079
68941W        W41201  32.113  30.457  13.403
68942W        W41202   8.213  11.859   3.165
68943W        W41203  41.288  24.678   1.757
68944W        W41204  17.814  26.375   2.772
68945W        W41205  32.414   5.455   0.412
68946W        W41206  12.947  34.069  10.954
68947W        W41207   9.709  29.613   0.359
68948W        W41208  28.057   4.981   3.909
68949W        W41209  35.613  39.782   0.714
68950W        W41210  28.927  31.444   4.227
68951W        W41211  27.353  24.227  13.144
68952W        W41212  33.158  40.742   4.027
68953W        W41213   0.988  39.014  14.532
68954W        W41214  44.759  18.987  14.318
68955W        W41215  30.009  41.325  13.777
68956W        W41216  39.339  38.812  14.608
68957W        W41217  32.440  30.652  10.737
68958W        W41218  15.745  18.742   4.593
68959W        W41219  21.066  17.484   0.353
68960W        W41220   7.835  24.274   0.382
68961W        W41221  14.211   0.788   1.357
68962W        W41222  16.302  20.082  12.886
68963W        W41223  35.126  10.375   3.185
68964W        W41224  17.732  38.840  11.508
68965W        W41225  38.821  27.504   3.138
68966W        W41226  31.398  32.250   5.124
68967W        W41227  31.889  23.988   3.986
68968W        W41228  30.013  41.300   2.832
68969W        W41229  17.698  40.806  14.964
68970W        W41230  30.278  15.977   3.733
68971W        W41231   5.334   2.959   3.194
68972W        W41232  18.071  16.281   3.631
68973W        W41233  18.355  31.090  13.914
68974W        W41234  24.712  39.063   3.683
68975W        W41235  25.155  23.494  13.054
68976W        W41236  44.846  41.746   4.688
68977W        W41237  14.525  16.659   3.573
68978W        W41238  19.354  35.947   2.971
68979W        W41239  19.506  10.592  10.798
68980W        W41240  37.416  17.775   0.378
68981W        W41241   1.156  31.537   4.331
68982W        W41242  18.964   9.727  11.575
68983W        W41243   1.883   1.237   1.068
68984W        W41244  17.624  32.621   0.591
68985W        W41245  15.091  12.377   0.406
68986W        W41246  43.011  24.890  14.543
68987W        W41247  23.013   0.432   1.186
68988W        W41248  19.877  15.092   0.180
68989W        W41249   1.762  14.048   0.771
68990W        W41250   4.408  23.279  12.147
68991W        W41251  37.334  21.520   2.835
68992W        W41252  17.115  19.892   2.728
68993W        W41253  18.834  33.519  10.997
68994W        W41254  21.713   9.468   0.773
68995W        W41255  28.084  11.656  10.900
68996W        W41256  14.875  40.800  11.190
68997W        W41257  34.536   8.362   4.564
68998W        W41258  30.302   3.040  10.535
68999W        W41259  41.622   9.298  14.538
69000W        W41260  28.680  27.649  12.889
69001W        W41261  43.973   9.784   3.739
69002W        W41262   3.090  20.279   2.790
69003W        W41263   3.985  44.203  12.906
69004W        W41264   2.823  39.504  11.179
69005W        W41265  30.437  26.414   0.312
69006W        W41266  16.113  43.250  12.370
69007W        W41267  11.612   5.731   4.673
69008W        W41268  24.592  24.504   3.426
69009W        W41269  15.672  42.236  12.687
69010W        W41270   5.960   2.210  11.165
69011W        W41271  34.850  12.257   1.807
69012W        W41272   6.381  41.847  11.619
69013W        W41273  25.059  29.682   4.154
69014W        W41274  27.281   2.306  13.350
69015W        W41275  24.985  41.405   0.713
69016W        W41276   2.958  29.778  14.455
69017W        W41277  37.077  43.784   0.011
69018W        W41278  41.885  19.035   4.348
69019W        W41279  42.753  24.634  13.043
69020W        W41280  25.131   6.757  10.710
69021W        W41281   3.870  36.070   3.043
69022W        W41282  12.712  25.920  10.986
69023W        W41283  14.568  40.540  11.648
69024W        W41284  28.016  14.624  12.270
69025W        W41285   3.283  43.335   4.380
69026W        W41286  40.357  14.910  12.431
69027W        W41287  11.827  36.396   2.212
69028W        W41288  15.282   3.946  10.797
69029W        W41289   1.353   0.006  12.223
69030W        W41290  17.039  12.170   2.797
69031W        W41291   5.448  34.967   4.342
69032W        W41292   1.316  29.422   1.950
69033W        W41293  38.448  43.131  11.094
69034W        W41294  20.558  23.999   3.737
69035W        W41295  25.603  17.236   0.016
69036W        W41296   7.593   3.862  14.318
69037W        W41297  16.119  10.861  11.570
69038W        W41298  32.790  23.173  14.958
69039W        W41299  34.399   6.856  14.347
69040W        W41300  20.978  23.141  14.073
69041W        W41301  32.551   0.047  14.289
69042W        W41302  43.319  13.141  13.024
69043W        W41303  30.836  13.002   2.254
69044W        W41304  13.700   0.625  11.220
69045W        W41305   2.994  12.859   1.934
69046W        W41306  39.560  17.282  11.168
69047W        W41307  16.936  30.454   3.484
69048W        W41308  19.776  27.193  13.875
69049W        W41309  34.910  29.227  13.406
69050W        W41310  37.545   5.463   4.926
69051W        W41311  16.248  43.435  12.894
69052W        W41312  18.371  43.078  10.616
69053W        W41313   6.365  34.540   3.748
69054W        W41314  17.725  35.178   3.742
69055W        W41315  11.846   0.386  14.442
69056W        W41316   8.404  18.554  12.057
69057W        W41317   7.130   8.752   0.897
69058W        W41318  18.741  14.254  13.600
69059W        W41319  36.492  18.507   3.349
69060W        W41320  32.799  21.619   2.552
69061W        W41321   2.230  41.968   4.610
69062W        W41322  43.976   1.403   0.116
69063W        W41323  27.936  42.370   0.281
69064W        W41324  43.360   6.935  11.091
69065W        W41325  37.369  32.990   2.678
69066W        W41326  39.727   0.216  13.350
69067W        W41327   3.865  15.020   2.683
69068W        W41328  13.887   0.028   2.287
69069W        W41329  10.802  15.616  13.040
69070W        W41330  25.611   2.034  12.394
69071W        W41331  42.573  26.867   5.157
69072W        W41332  17.597  22.877   4.612
69073W        W41333  14.369  43.972   3.592
69074W        W41334   0.835   8.139  14.050
69075W        W41335  33.724   2.755   2.066
69076W        W41336   5.776  16.225   1.884
69077W        W41337   1.285  26.475  11.730
69078W        W41338  44.043  15.097  14.422
69079W        W41339  42.953   4.594  10.840
69080W        W41340   8.516  10.075  13.088
69081W        W41341  21.059  32.631  11.175
69082W        W41342   8.468  38.690  11.779
69083W        W41343   3.450  14.170   3.346
69084W        W41344   7.158  35.968  13.762
69085W        W41345   0.166  17.785   0.628
69086W        W41346  21.036  32.862   1.286
69087W        W41347  33.952   6.434  10.300
69088W        W41348   5.901  39.036   1.038
69089W        W41349  36.533  10.027  11.049
69090W        W41350  29.432  40.022   3.166
69091W        W41351  27.567  24.720  13.814
69092W        W41352  37.486  30.294  10.408
69093W        W41353  44.045  36.634   3.672
69094W        W41354   2.826  20.735   2.636
69095W        W41355   5.209  36.910  14.822
69096W        W41356  26.548   1.377  11.074
69097W        W41357  29.507  40.579   4.553
69098W        W41358  36.019  40.952   0.477
69099W        W41359  29.888  42.677   4.899
69100W        W41360  19.971  17.579  13.010
69101W        W41361  16.541  33.347  14.457
69102W        W41362  31.029  13.771   3.758
69103W        W41363  19.723  10.836   2.330
69104W        W41364   3.792  33.639   4.341
69105W        W41365  23.494  44.140   3.387
69106W        W41366   0.338  16.238   0.718
69107W        W41367   7.510  20.734  12.116
69108W        W41368   8.523  30.055   4.033
69109W        W41369  31.159  16.389  12.922
69110W        W41370  38.983  37.893  14.080
69111W        W41371  24.339  22.090   2.301
69112W        W41372  19.073  18.319   3.763
69113W        W41373  17.467  19.671  14.257
69114W        W41374  31.227   1.020   2.557
69115W        W41375  35.422   4.221  14.973
69116W        W41376  27.136  18.218   2.053
69117W        W41377  13.687   3.885   4.181
69118W        W41378  26.675   8.588   1.165
69119W        W41379  32.013  21.709   3.276
69120W        W41380  25.146   2.809   2.745
69121W        W41381   8.917  39.934   0.773
69122W        W41382   8.006   9.502  12.120
69123W        W41383  36.890  21.179  11.496
69124W        W41384  31.684  30.144  10.438
69125W        W41385  21.733  16.262   0.961
69126W        W41386  23.122  19.873  14.170
69127W        W41387   2.017  26.685   3.359
69128W        W41388  27.830  24.439  12.392
69129W        W41389   9.225  39.006   1.596
69130W        W41390  15.798   0.793  14.799
69131W        W41391  17.257  44.698  11.570
69132W        W41392   7.722  34.904   4.134
69133W        W41393  42.338  24.138   4.351
69134W        W41394  13.158   8.886  12.052
69135W        W41395  11.292  42.701   0.175
69136W        W41396  39.767  14.339   4.271
69137W        W41397  35.555  15.161   2.711
69138W        W41398  35.136   3.407  13.337
69139W        W41399   4.236  33.476  14.586
69140W        W41400  15.083   3.351  11.635
69141W        W41401  16.881   1.367  11.186
69142W        W41402  16.110   1.386  11.572
69143W        W41403   5.941   8.342  13.448
69144W        W41404  23.498  30.987   0.325
69145W        W41405  34.026  12.483  12.478
69146W        W41406  11.851  20.319   4.762
69147W        W41407  23.210  39.839   3.804
69148W        W41408  38.472   8.225   3.624
69149W        W41409  20.629  43.841   2.279
69150W        W41410  17.847  36.009   2.301
69151W        W41411  36.920  21.688  11.727
69152W        W41412  17.422  23.109  11.590
69153W        W41413  24.561  20.221  14.993
69154W        W41414  31.949  24.752   1.793
69155W        W41415  31.877  42.269  13.999
69156W        W41416  15.055  14.341  10.669
69157W        W41417  21.498  12.883  12.643
69158W        W41418  15.542  21.724  10.659
69159W        W41419  16.918  39.013   3.213
69160W        W41420  18.846   7.262  14.142
69161W        W41421  40.453  11.610   3.657
69162W        W41422   6.804  23.263   4.494
69163W        W41423   7.753  38.740  13.027
69164W        W41424  12.840  30.619   1.630
69165W        W41425  18.531   1.378  13.068
69166W        W41426  27.101  20.065  12.715
69167W        W41427  43.498  40.859  12.513
69168W        W41428  16.637  28.229  11.153
69169W        W41429  32.902  16.188  10.657
69170W        W41430  19.327  40.607  10.684
69171W        W41431  25.141  25.671  14.123
69172W        W41432  38.072   6.145   2.787
69173W        W41433  43.767  36.995  14.763
69174W        W41434   1.231   7.304  11.422
69175W        W41435   8.264   2.792   2.763
69176W        W41436   8.280  13.659   3.723
69177W        W41437  41.041  17.918  13.217
69178W        W41438  13.045  25.637   1.675
69179W        W41439   8.616  37.175   0.776
69180W        W41440  36.007  21.134   1.467
69181W        W41441  44.994  24.937  11.212
69182W        W41442  12.644  38.258   3.286
69183W        W41443  32.032  23.216  13.787
69184W        W41444   6.861   2.238   4.869
69185W        W41445  16.156  40.820  11.678
69186W        W41446  12.126  18.360   1.777
69187W        W41447   4.703   7.589  10.243
69188W        W41448  29.701  40.902   2.643
69189W        W41449  43.491  17.804  11.140
69190W        W41450  31.955  11.661  11.545
69191W        W41451  10.597  24.994   2.645
69192W        W41452  42.987  20.100   4.554
69193W        W41453  15.300  44.288   3.726
69194W        W41454  17.128  30.607  11.132
69195W        W41455  13.174  11.283  11.863
69196W        W41456  35.355  34.373   1.743
69197W        W41457  36.956  34.904   4.146
69198W        W41458  44.364  36.540  14.561
69199W        W41459  33.092  13.594  11.092
69200W        W41460  13.815  30.731   4.261
69201W        W41461  19.500   2.392   0.005
69202W        W41462  32.481  16.673   2.010
69203W        W41463   8.072  24.728   0.490
69204W        W41464  15.296  42.408  13.942
69205W        W41465   0.884  34.439   1.386
69206W        W41466  18.939  41.931   1.757
69207W        W41467  12.853  17.341   4.076
69208W        W41468  19.364  24.909  13.784
69209W        W41469  28.228  38.990  10.010
69210W        W41470   3.704  19.588   1.319
69211W        W41471  26.573  30.018   2.396
69212W        W41472  23.689  10.286  14.887
69213W        W41473   8.138  42.618   2.341
69214W        W41474   3.435  15.068  12.117
69215W        W41475  10.670  26.707  14.860
69216W        W41476  34.925  35.760   1.867
69217W        W41477  17.293  39.964   1.648
69218W        W41478  18.376  44.510  13.036
69219W        W41479  28.025  29.517  10.814
69220W        W41480  31.385   9.533  12.103
69221W        W41481   3.344  31.828  10.756
69222W        W41482  11.619  39.526   2.883
69223W        W41483  44.404  38.940  12.775
69224W        W41484  41.303  36.167   0.254
69225W        W41485  18.555  23.718   2.786
69226W        W41486  21.243  13.845   1.136
69227W        W41487  11.050  24.105  13.433
69228W        W41488  35.487  14.670  14.520
69229W        W41489   4.082  26.538   4.030
69230W        W41490  36.015  21.419  14.345
69231W        W41491  14.719  35.366  14.504
69232W        W41492   9.651  38.482  11.173
69233W        W41493  16.613  20.633   2.928
69234W        W41494  25.306  23.412   2.702
69235W        W41495  22.533  32.881  11.615
69236W        W41496  33.875  36.962  11.192
69237W        W41497   8.834  41.798  12.063
69238W        W41498   5.908   5.426  11.453
69239W        W41499  21.137  44.859  12.015
69240W        W41500  34.776  32.443   3.102
69241W        W41501  41.266  40.956  11.184
69242W        W41502  44.049   0.818   3.307
69243W        W41503  31.729  42.917  12.590
69244W        W41504  33.843  13.386  13.413
69245W        W41505  28.847  36.914   0.867
69246W        W41506  15.124   1.852   2.237
69247W        W41507  43.047  29.079  14.325
69248W        W41508   9.755  13.641  12.163
69249W        W41509  34.619  20.170  10.683
69250W        W41510  18.878  22.408  10.221
69251W        W41511  41.388  21.480   1.901
69252W        W41512  24.289   1.429   2.741
69253W        W41513  40.461  42.549  12.003
69254W        W41514  44.057  29.229   2.916
69255W        W41515  36.640  37.877   3.607
69256W        W41516  24.705  23.448  14.290
69257W        W41517  37.518  19.600   1.646
69258W        W41518  37.501   8.809   1.639
69259W        W41519  37.465  39.867  10.769
69260W        W41520  41.675   2.964  12.392
69261W        W41521  34.984   4.236   0.741
69262W        W41522  19.668  40.312   0.511
69263W        W41523  17.992  13.068   2.444
69264W        W41524  44.812   4.360  14.747
69265W        W41525  12.645  39.786   4.774
69266W        W41526  13.040   5.686  14.844
69267W        W41527  29.602  20.009  14.503
69268W        W41528  14.754   4.973   3.717
69269W        W41529  42.026  20.268  10.414
69270W        W41530   7.564  42.838  12.888
69271W        W41531  17.876  14.476  11.034
69272W        W41532  22.475  36.926  12.526
69273W        W41533  12.590  40.626   3.879
69274W        W41534  15.862  36.013   3.700
69275W        W41535  31.079   1.835   2.946
69276W        W41536   7.874   2.944   1.730
69277W        W41537  23.570  27.090   2.767
69278W        W41538  19.530  27.605  12.174
69279W        W41539  22.004   5.842  13.815
69280W        W41540  40.228  44.418   1.507
69281W        W41541  25.819   9.136  10.628
69282W        W41542  32.078   8.462   2.371
69283W        W41543  34.067  37.472   5.061
69284W        W41544  29.093   3.278   4.508
69285W        W41545  31.560   7.221   0.901
69286W        W41546  32.163   2.438  12.529
69287W        W41547  43.227  10.623  14.372
69288W        W41548  44.754  37.982   4.134
69289W        W41549  19.549  13.298   0.872
69290W        W41550  18.752  17.270  10.720
69291W        W41551  12.999  30.220   4.310
69292W        W41552   7.348  42.869  13.786
69293W        W41553  14.060  41.262   2.418
69294W        W41554  15.404  20.060   3.327
69295W        W41555  32.767  33.130   2.749
69296W        W41556  39.053   7.459  13.940
69297W        W41557  32.453  13.563  10.663
69298W        W41558  22.039  38.392  12.691
69299W        W41559  23.049  27.507  11.726
69300W        W41560  43.921   2.166  12.519
69301W        W41561  13.335   0.512  13.031
69302W        W41562  28.473  21.471  10.803
69303W        W41563  20.689   4.525   0.827
69304W        W41564  31.158  41.984   0.853
69305W        W41565  19.448  33.224  14.576
69306W        W41566  22.010  42.046   0.317
69307W        W41567  24.572   8.482  13.794
69308W        W41568  16.086   1.866  13.634
69309W        W41569   7.356  37.356  14.257
69310W        W41570   9.807  19.293   1.657
69311W        W41571  40.259  31.374   0.759
69312W        W41572  36.601  29.104   4.670
69313W        W41573  10.528  12.808   0.347
69314W        W41574  15.113  24.610  11.625
69315W        W41575  25.026  22.262  11.913
69316W        W41576  33.088  17.106  13.733
69317W        W41577   3.840   3.406   4.690
69318W        W41578  31.396  39.965  12.115
69319W        W41579  21.425  44.589  10.723
69320W        W41580   9.965   0.992   2.942
69321W        W41581  19.285  23.105   2.868
69322W        W41582  37.973  23.078  12.974
69323W        W41583  24.927  13.739  14.482
69324W        W41584  16.646  16.965  10.241
69325W        W41585  19.260  23.745   3.399
69326W        W41586  12.795   0.418   2.894
69327W        W41587  26.751  27.500   1.639
69328W        W41588  41.859  33.048  14.756
69329W        W41589  19.144  12.514   4.787
69330W        W41590  11.693  10.541  11.616
69331W        W41591  22.226  15.983  13.059
69332W        W41592  16.453  32.858   2.119
69333W        W41593  29.233   8.414  11.999
69334W        W41594  43.984  27.498   0.810
69335W        W41595  21.848  11.118   3.606
69336W        W41596   3.928  16.187  11.065
69337W        W41597  31.008  21.965  12.999
69338W        W41598  39.645   7.775   0.272
69339W        W41599  25.032   0.090  14.979
69340W        W41600  33.591   4.814  13.485
69341W        W41601  21.741   3.386   0.676
69342W        W41602  28.359  30.515   2.705
69343W        W41603  44.325  40.966   4.901
69344W        W41604   0.914  28.694   2.214
69345W        W41605  19.806  18.067  11.128
69346W        W41606  21.131  14.779  14.526
69347W        W41607   3.905  12.369  13.722
69348W        W41608   0.509  12.419   2.306
69349W        W41609  37.464  19.685  10.139
69350W        W41610  38.489  35.983  11.631
69351W        W41611  18.517   0.815   4.135
69352W        W41612   8.864  23.122  12.579
69353W        W41613  26.103   0.791   4.018
69354W        W41614   7.652  34.001   1.848
69355W        W41615  28.654  40.033   2.740
69356W        W41616   0.023   3.670   2.278
69357W        W41617  19.183  43.199   3.229
69358W        W41618  42.411  34.947   0.312
69359W        W41619  21.954  41.961   1.091
69360W        W41620  39.528  34.891  13.062
69361W        W41621   0.189  24.069   3.677
69362W        W41622  20.850   7.691  13.387
69363W        W41623   1.870  39.624   2.014
69364W        W41624   8.138   2.336  13.988
69365W        W41625  17.318  25.288   2.737
69366W        W41626   9.238  28.143   0.906
69367W        W41627  30.924  31.553   4.349
69368W        W41628  37.220   2.208  13.834
69369W        W41629  19.759   0.176   0.839
69370W        W41630   0.241   7.441  14.921
69371W        W41631  34.608   7.355   3.687
69372W        W41632  36.384  41.739   3.507
69373W        W41633  39.850  35.345  13.850
69374W        W41634   4.183  16.964  13.747
69375W        W41635  35.631  31.560  11.032
69376W        W41636  24.682  11.085  12.023
69377W        W41637  30.342  41.370   0.884
69378W        W41638   3.829  30.057   0.665
69379W        W41639  42.043  35.848  11.150
69380W        W41640  38.210  29.169  14.774
69381W        W41641   7.433  30.374  14.982
69382W        W41642  12.646   2.852   4.407
69383W        W41643  27.690  13.332  13.363
69384W        W41644  11.140  13.634   4.396
69385W        W41645  16.775  10.381  12.850
69386W        W41646  27.673  31.121   4.158
69387W        W41647  27.627  12.236  10.731
69388W        W41648   5.893  18.587  13.042
69389W        W41649  44.475   2.899  13.468
69390W        W41650  40.492  42.652  10.262
69391W        W41651  11.684  12.348  13.596
69392W        W41652  17.702  19.220   4.626
69393W        W41653   2.507  38.130  14.291
69394W        W41654  29.306  12.560  14.876
69395W        W41655  10.224  13.065  13.994
69396W        W41656  30.111  29.849  13.490
69397W        W41657  28.980   8.001   2.732
69398W        W41658  11.704  14.398  14.787
69399W        W41659  15.585   3.727   1.760
69400W        W41660  42.823  32.291  13.018
69401W        W41661  18.034  40.347  11.101
69402W        W41662  11.739  28.381   1.422
69403W        W41663  33.313  35.980   1.289
69404W        W41664  20.950  27.209  11.952
69405W        W41665  36.094  20.998   3.899
69406W        W41666  16.780  42.870  11.187
69407W        W41667  24.948  15.453  12.490
69408W        W41668  27.484  36.969  11.738
69409W        W41669   1.316  13.343   0.214
69410W        W41670  12.148  35.063  14.891
69411W        W41671  40.970  18.157   2.959
69412W        W41672   7.706  22.752  10.079
69413W        W41673  36.050  19.154  10.522
69414W        W41674  30.737   3.112  14.874
69415W        W41675  31.200   3.724   3.033
69416W        W41676   9.578  19.645   2.294
69417W        W41677  25.525   8.324   4.879
69418W        W41678   7.623  37.405   1.681
69419W        W41679   4.075  28.502  13.931
69420W        W41680  25.713  26.406   4.123
69421W        W41681  34.442  13.753  13.977
69422W        W41682  31.409  25.041   2.838
69423W        W41683  32.203  37.528   3.082
69424W        W41684  44.833  42.961  10.658
69425W        W41685  12.329  35.979   1.654
69426W        W41686  24.525  35.962  13.438
69427W        W41687  13.214  35.009   0.202
69428W        W41688  40.463   4.543  10.611
69429W        W41689  31.127  21.704  12.551
69430W        W41690  35.323  16.758  14.354
69431W        W41691  17.529  23.713   1.642
69432W        W41692  33.146   6.225   0.415
69433W        W41693  12.331  32.950   1.781
69434W        W41694   1.886  36.926   0.828
69435W        W41695  11.738  34.918   4.019
69436W        W41696  11.609  27.631  12.094
69437W        W41697   5.000  24.803   3.645
69438W        W41698  40.332   9.440  11.756
69439W        W41699  28.226  21.193   1.609
69440W        W41700   0.848  27.427   2.793
69441W        W41701  11.835  33.821   0.251
69442W        W41702   0.432  31.625  10.797
69443W        W41703  39.145  14.163  12.898
69444W        W41704  30.071  32.396   9.902
69445W        W41705  21.785  15.698   3.191
69446W        W41706  33.777  23.359  12.847
69447W        W41707   7.763  38.140  12.390
69448W        W41708  29.935  32.024   1.846
69449W        W41709  42.844  10.335   1.754
69450W        W41710  13.739  41.071  12.605
69451W        W41711  35.193  19.269  14.363
69452W        W41712   8.023   2.776  12.549
69453W        W41713   4.348  16.110   4.554
69454W        W41714  33.047  21.146   2.516
69455W        W41715  40.582  39.954  10.370
69456W        W41716   9.179  30.472   2.015
69457W        W41717  21.987  44.798  13.309
69458W        W41718   3.520   2.387  11.113
69459W        W41719  37.379  30.001  11.211
69460W        W41720  25.992  36.420  10.422
69461W        W41721  43.566  19.197  13.962
69462W        W41722  33.705  31.270   3.135
69463W        W41723  39.492  20.129  14.081
69464W        W41724  25.248  44.052  12.535
69465W        W41725  13.904  35.576  13.397
69466W        W41726  44.794  44.901  12.515
69467W        W41727  10.751   7.117   0.786
69468W        W41728  43.563   0.357  12.563
69469W        W41729  24.988  13.857   2.128
69470W        W41730  29.514   2.956  14.230
69471W        W41731   3.924  17.668  13.348
69472W        W41732  14.886  41.865   3.659
69473W        W41733  23.067  15.683  13.905
69474W        W41734  13.793   8.826  13.029
69475W        W41735  16.257  15.827   0.356
69476W        W41736  25.740  13.303  13.135
69477W        W41737  23.617  31.862  11.468
69478W        W41738   2.056   0.321   0.409
69479W        W41739  37.518  42.547  11.619
69480W        W41740  20.357  23.828  10.674
69481W        W41741  23.631  21.778   3.866
69482W        W41742  44.013  37.302   2.861
69483W        W41743   6.637  29.053   0.820
69484W        W41744   5.490   8.699   2.531
69485W        W41745   5.663   9.161   1.241
69486W        W41746   9.607  13.871  10.891
69487W        W41747  33.319   9.841   3.768
69488W        W41748  19.152  40.036  13.020
69489W        W41749  22.779  18.003   4.168
69490W        W41750  30.454  30.304  11.557
69491W        W41751  40.477  17.016  11.300
69492W        W41752  31.566  43.936   2.677
69493W        W41753  40.839   5.953   4.145
69494W        W41754   5.034  26.651  14.901
69495W        W41755  29.838  43.281   2.889
69496W        W41756  40.044  20.423   3.702
69497W        W41757  17.215   1.450   1.610
69498W        W41758  23.446  41.950   3.793
69499W        W41759  27.070   6.795   3.716
69500W        W41760  37.397  36.088  13.424
69501W        W41761  22.634  40.786   0.445
69502W        W41762  38.352  22.080  12.228
69503W        W41763  15.085  39.812   3.176
69504W        W41764  19.375  28.523   1.739
69505W        W41765   7.993   5.838  11.519
69506W        W41766  20.549  39.455   3.841
69507W        W41767  36.196  10.648  14.642
69508W        W41768  16.967  25.737   2.711
69509W        W41769  17.653  33.166   4.891
69510W        W41770  43.389  40.683  11.638
69511W        W41771  12.777  26.819  13.061
69512W        W41772  10.170  34.666  12.377
69513W        W41773  30.942   4.446  13.387
69514W        W41774  41.861  27.183  12.843
69515W        W41775  37.068  22.401  11.027
69516W        W41776  43.456  23.577  13.521
69517W        W41777  43.151   3.075   0.220
69518W        W41778  17.725   3.874  13.934
69519W        W41779  38.532   1.258  11.952
69520W        W41780  35.802  18.727   3.328
69521W        W41781   2.549  33.403  11.576
69522W        W41782  28.759  25.560   1.595
69523W        W41783  40.047  41.214  12.099
69524W        W41784   9.399  14.256  12.099
69525W        W41785  30.619  11.161  11.211
69526W        W41786  29.081  40.694  12.009
69527W        W41787  12.328   4.967  11.503
69528W        W41788  26.983  38.835   2.804
69529W        W41789   5.457  31.626  11.481
69530W        W41790  22.535  16.746   4.667
69531W        W41791  18.509   5.807  10.735
69532W        W41792   1.910   3.512   0.325
69533W        W41793  41.464  21.204  10.633
69534W        W41794  16.422  28.555  10.844
69535W        W41795  16.340  28.554   1.753
69536W        W41796   9.598  17.623  14.757
69537W        W41797  43.227  23.490  11.492
69538W        W41798  28.978  18.806   3.224
69539W        W41799  30.386   2.791  14.655
69540W        W41800  16.336  22.556   4.721
69541W        W41801   1.939  12.813  11.207
69542W        W41802  21.943  21.968   0.781
69543W        W41803  38.691  38.105  11.687
69544W        W41804   7.847  31.174  11.664
69545W        W41805  22.247  27.231  11.681
69546W        W41806   2.807  36.944   4.877
69547W        W41807   5.465  23.841  14.061
69548W        W41808  13.433   3.478  13.422
69549W        W41809  32.441  42.687   1.226
69550W        W41810  36.530  17.641   3.213
69551W        W41811  42.186  44.360   1.177
69552W        W41812   1.815  10.166   4.971
69553W        W41813   5.845  27.669   4.160
69554W        W41814  23.304  13.371   3.415
69555W        W41815  34.614  14.316  10.579
69556W        W41816  12.096  11.246  11.205
69557W        W41817   1.085  39.457  13.346
69558W        W41818   6.831   4.244  12.536
69559W        W41819   6.156  18.061  12.046
69560W        W41820  24.023  41.349   1.186
69561W        W41821  11.760  43.623  11.517
69562W        W41822   9.637  30.589   1.231
69563W        W41823   4.534   0.721  10.685
69564W        W41824  24.990   0.957  11.932
69565W        W41825  28.956  11.918  13.285
69566W        W41826  19.251  32.731   3.016
69567W        W41827   0.484  34.883   3.364
69568W        W41828   4.393  19.271  12.447
69569W        W41829  26.129  33.000   4.451
69570W        W41830  15.282  12.505   2.440
69571W        W41831  32.089   2.699   0.457
69572W        W41832  44.741   9.770   4.749
69573W        W41833  34.957  13.538  11.992
69574W        W41834  35.478   5.339  14.070
69575W        W41835  38.866  23.125  11.607
69576W        W41836   7.362  12.754   4.465
69577W        W41837  39.481  29.772   3.611
69578W        W41838  39.783  31.670  12.549
69579W        W41839  11.789   0.960   1.330
69580W        W41840  19.933  39.489  13.458
69581W        W41841  19.144  28.778  14.459
69582W        W41842   7.789  26.914   0.036
69583W        W41843   8.540   8.376  14.838
69584W        W41844  13.270  30.160   0.519
69585W        W41845   3.205  32.021  14.821
69586W        W41846  31.904  38.735  12.436
69587W        W41847  42.967  42.613  10.791
69588W        W41848   9.235  34.105   2.269
69589W        W41849  43.359   2.951  12.527
69590W        W41850  26.945  13.634  12.776
69591W        W41851   3.438  37.151  11.940
69592W        W41852  34.958  14.015  12.414
69593W        W41853  32.076  42.997   3.343
69594W        W41854  37.620  25.112  12.552
69595W        W41855  17.235  22.816  12.093
69596W        W41856  37.808  29.943   1.867
69597W        W41857  28.552  26.710  14.839
69598W        W41858  42.415  34.527  14.383
69599W        W41859  11.860  20.736  11.802
69600W        W41860  40.937  13.953  11.098
69601W        W41861  36.780   9.317   1.955
69602W        W41862  31.662  34.484  14.801
69603W        W41863  42.896   6.660   3.882
69604W        W41864  40.774   3.346   4.150
69605W        W41865  29.354  19.092  11.232
69606W        W41866  29.152  27.489   3.873
69607W        W41867  33.563   2.932   4.633
69608W        W41868  22.876   1.976  14.336
69609W        W41869  21.057  22.703   2.789
69610W        W41870   9.281  43.773   0.508
69611W        W41871  11.893  13.863  12.420
69612W        W41872  21.092  18.660   3.396
69613W        W41873  24.201  22.074   2.816
69614W        W41874  23.257   7.718  13.051
69615W        W41875  32.659  43.032  12.189
69616W        W41876  23.195   9.646   0.273
69617W        W41877  24.535  21.086  10.227
69618W        W41878  35.449  16.912   0.784
69619W        W41879  33.075   4.722   2.848
69620W        W41880  23.030  25.100   1.801
69621W        W41881   0.057  19.809   4.163
69622W        W41882  31.180  30.426  11.913
69623W        W41883  41.516  21.293   3.220
69624W        W41884  20.130  34.133   0.387
69625W        W41885  31.876  25.486  13.789
69626W        W41886   5.276  33.142  10.458
69627W        W41887  12.616  14.830   0.027
69628W        W41888  23.870  15.709  12.409
69629W        W41889   3.449  16.759   0.730
69630W        W41890  35.096  13.093  10.795
69631W        W41891  35.363  42.561  12.357
69632W        W41892  40.601  38.515   1.640
69633W        W41893  17.379  40.889   2.775
69634W        W41894  27.870  24.666   4.927
69635W        W41895  24.488  41.482   0.874
69636W        W41896   5.754  11.583   3.441
69637W        W41897  27.151   6.510   0.773
69638W        W41898   3.250  43.119   1.543
69639W        W41899   2.135  19.355   3.254
69640W        W41900  21.009  28.117   0.934
69641W        W41901  34.163  21.863   5.482
69642W        W41902   5.729  36.857   3.732
69643W        W41903   4.590  41.863   3.566
69644W        W41904  38.077  23.288  12.496
69645W        W41905   6.262  22.733  14.819
69646W        W41906   5.728  25.028  12.381
69647W        W41907  24.478  44.406  10.668
69648W        W41908  35.529  25.212  13.425
69649W        W41909  29.105  43.893  13.836
69650W        W41910  32.186  42.582  14.963
69651W        W41911   4.653   9.724   1.937
69652W        W41912   2.494  11.644  10.682
69653W        W41913  31.878  22.609  10.677
69654W        W41914  28.921   8.122   4.294
69655W        W41915  23.366  23.960   4.620
69656W        W41916  10.881  36.533  13.051
69657W        W41917  31.471  25.947   3.075
69658W        W41918  43.069  31.985   0.455
69659W        W41919  34.658  20.125   4.105
69660W        W41920  40.490  27.777   4.130
69661W        W41921  31.861  20.224   3.739
69662W        W41922  42.485  32.988   4.276
69663W        W41923  34.856  39.004  13.038
69664W        W41924   3.372  41.457  11.963
69665W        W41925   2.775  19.186   3.179
69666W        W41926   0.500  23.160  14.069
69667W        W41927   0.193  40.829  12.966
69668W        W41928   4.340   5.804   0.358
69669W        W41929   9.621  27.594  14.478
69670W        W41930  32.114  37.372  11.203
69671W        W41931  18.862   1.804  13.133
69672W        W41932  41.470   0.571   4.859
69673W        W41933  30.645  21.055  13.308
69674W        W41934   7.407  12.178  14.342
69675W        W41935   0.961  28.160   2.216
69676W        W41936  27.770  39.688   9.746
69677W        W41937  12.864  33.056  12.587
69678W        W41938  34.614  18.405   5.092
69679W        W41939   4.230  30.585   3.596
69680W        W41940  26.066  37.365   0.240
69681W        W41941  21.774  38.974  14.958
69682W        W41942  40.886  14.578   1.739
69683W        W41943  15.832  36.128  13.897
69684W        W41944  44.335  35.353  14.689
69685W        W41945  36.431  40.050   4.006
69686W        W41946   0.748  40.581   0.007
69687W        W41947  43.835  34.539  11.090
69688W        W41948   3.277   2.524  13.677
69689W        W41949   2.380  17.254  11.143
69690W        W41950  14.670  14.820   9.913
69691W        W41951   1.792  25.701  13.114
69692W        W41952  10.382  31.473   4.463
69693W        W41953  40.940   8.143   1.486
69694W        W41954   2.406   6.443   2.657
69695W        W41955   4.862   1.504   0.396
69696W        W41956  31.150  14.745  12.562
69697W        W41957   8.253  14.128  13.183
69698W        W41958  21.534  36.797   2.792
69699W        W41959  43.212  42.911  13.593
69700W        W41960  44.789  25.784   1.690
69701W        W41961  41.670  22.217   1.353
69702W        W41962  21.577  41.180  12.821
69703W        W41963  20.569  15.210   0.030
69704W        W41964   6.358  11.309   4.879
69705W        W41965  19.332  44.028  12.032
69706W        W41966  36.132  33.949   0.297
69707W        W41967  22.139   6.754   2.272
69708W        W41968  27.550  15.740  13.886
69709W        W41969  16.034   9.362  14.849
69710W        W41970  18.744  38.548  14.386
69711W        W41971   6.440  29.569  13.939
69712W        W41972  39.284  25.205  14.621
69713W        W41973  12.417   9.267  12.009
69714W        W41974  25.186  10.849   4.651
69715W        W41975  24.381  42.805   3.618
69716W        W41976  19.694  36.159   3.871
69717W        W41977  44.736   3.755  12.518
69718W        W41978  28.714  43.790   0.310
69719W        W41979  25.914  11.672   1.732
69720W        W41980  16.012   8.275  11.480
69721W        W41981  43.038  33.044   1.408
69722W        W41982  23.723  39.423  14.894
69723W        W41983   2.415  28.920   1.940
69724W        W41984  40.618  14.449  10.250
69725W        W41985  42.460  23.540  12.206
69726W        W41986  39.926  18.908  11.547
69727W        W41987  27.572  24.463   3.633
69728W        W41988  11.391  20.090   4.602
69729W        W41989   4.330  25.897  10.705
69730W        W41990  38.389  26.671   2.239
69731W        W41991  12.677   5.160  12.790
69732W        W41992  23.548  12.647  14.889
69733W        W41993  42.984   5.086  11.395
69734W        W41994  18.850  26.608   1.428
69735W        W41995   2.338  16.264   4.116
69736W        W41996  40.775  44.581   2.337
69737W        W41997  13.373  39.850  12.661
69738W        W41998  13.672   2.391   4.207
69739W        W41999  33.997  10.873  13.353
69740W        W42000   4.542  42.539   3.552
69741W        W42001  10.757  36.669  11.150
69742W        W42002  36.847  37.767   4.220
69743W        W42003   3.138   5.406   0.769
69744W        W42004  16.090  25.068  14.884
69745W        W42005  14.391  41.448   2.780
69746W        W42006  38.494  14.651   4.946
69747W        W42007  36.635  17.287   4.306
69748W        W42008  18.668  22.314   3.806
69749W        W42009  26.393  27.619   1.303
69750W        W42010  13.727  42.565  11.490
69751W        W42011  36.619  32.936  13.790
69752W        W42012  31.523  33.212  12.861
69753W        W42013  40.636  22.700  11.027
69754W        W42014  33.420  24.307   0.955
69755W        W42015  14.808  11.178   3.608
69756W        W42016   8.252   2.769  14.261
69757W        W42017   5.775  29.545  10.203
69758W        W42018  15.047  28.476  10.693
69759W        W42019  29.916   0.847  13.615
69760W        W42020  23.994  25.285   4.626
69761W        W42021  14.980  29.985   4.216
69762W        W42022  39.545  14.205  11.648
69763W        W42023  32.038   1.763   0.473
69764W        W42024  14.477  43.755  14.860
69765W        W42025  23.219  44.799   0.362
69766W        W42026  11.389  16.536  11.757
69767W        W42027  40.310  41.122   5.174
69768W        W42028  12.794  23.982   1.819
69769W        W42029   3.482   7.164  13.489
69770W        W42030  22.725  20.169  11.876
69771W        W42031  30.101  10.086   0.879
69772W        W42032  31.018   4.928   1.381
69773W        W42033  38.022  35.249  11.961
69774W        W42034  25.922   7.357  13.035
69775W        W42035   2.662   9.868   0.855
69776W        W42036   5.752   0.211   2.342
69777W        W42037  27.066  13.878  11.818
69778W        W42038  41.254  12.595   3.363
69779W        W42039   7.690   6.781  10.633
69780W        W42040  34.697  44.930  10.538
69781W        W42041  33.158   0.521  11.160
69782W        W42042  18.379  41.358   4.148
69783W        W42043  13.640  29.120  14.417
69784W        W42044   9.838   4.932   3.715
69785W        W42045   3.380   2.151  14.638
69786W        W42046   1.220  19.411  12.530
69787W        W42047  28.665  39.916  13.917
69788W        W42048   7.804   3.785  10.575
69789W        W42049   0.765  17.283  11.118
69790W        W42050  23.720  13.875  11.560
69791W        W42051  31.580  18.095  10.790
69792W        W42052   8.459   6.433   0.673
69793W        W42053  16.201   1.563  14.926
69794W        W42054  39.280  17.256  12.043
69795W        W42055  32.434  21.233  14.389
69796W        W42056  31.945   4.097   0.591
69797W        W42057  30.732  28.201  14.428
69798W        W42058  32.695   6.871   1.880
69799W        W42059  23.924  11.241  13.492
69800W        W42060  21.499  22.649   1.250
69801W        W42061   9.169  12.978   3.330
69802W        W42062  34.126  43.117   4.034
69803W        W42063  25.224   9.726   1.576
69804W        W42064  27.686  24.020   2.761
69805W        W42065  16.737  25.515  13.380
69806W        W42066  35.026  26.275   4.812
69807W        W42067  40.131   0.480   4.624
69808W        W42068  11.696  26.322  10.707
69809W        W42069  28.573  28.466   0.806
69810W        W42070  36.472  13.741   4.312
69811W        W42071  30.429  18.037   1.280
69812W        W42072  23.726  16.808   3.683
69813W        W42073   5.830  35.249   4.073
69814W        W42074  10.833  44.290  11.080
69815W        W42075  22.208   9.872  11.614
69816W        W42076  17.464   9.738  11.751
69817W        W42077  22.278  43.511  12.008
69818W        W42078  19.816  38.474   4.243
69819W        W42079  31.171  10.259   2.705
69820W        W42080  13.657   7.241  11.973
69821W        W42081  38.194   2.629  13.054
69822W        W42082  44.550  28.065   0.399
69823W        W42083  31.048  15.614  13.831
69824W        W42084  21.501   2.172   0.366
69825W        W42085   6.239  11.244   1.447
69826W        W42086  10.784  44.232   1.680
69827W        W42087   7.446  25.041  14.269
69828W        W42088  21.596  13.369   0.397
69829W        W42089  34.391  35.323   4.176
69830W        W42090  12.321  23.745   1.734
69831W        W42091   7.100   6.923   0.336
69832W        W42092  37.522   3.859  12.000
69833W        W42093  38.310  36.005   3.161
69834W        W42094  37.812  39.535   4.950
69835W        W42095  11.756  31.049  13.608
69836W        W42096  25.490  23.390  14.892
69837W        W42097   5.362  30.962  11.090
69838W        W42098  23.593  34.148  10.627
69839W        W42099  31.558  41.206  10.779
69840W        W42100  24.732  20.458   2.287
69841W        W42101  25.471  32.321  11.575
69842W        W42102  42.050  18.743   3.873
69843W        W42103   0.477  39.557   2.950
69844W        W42104  10.720  36.263  14.411
69845W        W42105   4.232   4.706  14.807
69846W        W42106  23.663   9.172  12.858
69847W        W42107  43.243   8.901  12.863
69848W        W42108  35.058  36.455   3.107
69849W        W42109   2.803  24.281   0.427
69850W        W42110  11.165  26.886   0.055
69851W        W42111  31.547  23.305  14.445
69852W        W42112  28.389  42.313   1.217
69853W        W42113  10.714  16.006  13.743
69854W        W42114  18.631  17.562   0.811
69855W        W42115  36.633  38.438  10.657
69856W        W42116  39.126  22.771   3.668
69857W        W42117   7.428   5.710   0.781
69858W        W42118   2.044  43.462   0.258
69859W        W42119  41.775  33.412  13.364
69860W        W42120   7.093  26.983   0.487
69861W        W42121  31.437  39.630  12.517
69862W        W42122  25.972  34.663   0.138
69863W        W42123  11.077   6.717  11.480
69864W        W42124  16.074  24.740   3.153
69865W        W42125  16.151  32.857   4.557
69866W        W42126   8.368  16.363  13.383
69867W        W42127  39.478  10.748   1.758
69868W        W42128  44.697  19.454   4.100
69869W        W42129  16.982   1.374  13.050
69870W        W42130   1.942  20.461  10.715
69871W        W42131  43.697   9.406  11.697
69872W        W42132  13.133  23.207  12.085
69873W        W42133   7.074  23.173  11.092
69874W        W42134  20.559  26.330   4.069
69875W        W42135   2.831  28.330  12.490
69876W        W42136  20.581  27.963   4.568
69877W        W42137  23.410  41.950  10.708
69878W        W42138  12.317  27.107   2.245
69879W        W42139  14.611  18.756   0.874
69880W        W42140  36.832  16.065  11.660
69881W        W42141  28.240  27.084   2.906
69882W        W42142  12.749   3.527   3.345
69883W        W42143  12.280  15.381   4.483
69884W        W42144  14.277  42.236   0.029
69885W        W42145   7.973  43.247  14.786
69886W        W42146  35.792   5.403   3.258
69887W        W42147   1.019  31.475  11.106
69888W        W42148  38.409  12.222   3.074
69889W        W42149  37.590   3.494   1.470
69890W        W42150  41.843   0.532   2.221
69891W        W42151  13.553  19.138   4.991
69892W        W42152  13.310  32.071  11.141
69893W        W42153  36.514  44.237  10.665
69894W        W42154  16.651  25.897  10.756
69895W        W42155   9.717   6.660  13.536
69896W        W42156  40.354   9.132  13.840
69897W        W42157  25.697  15.525  13.398
69898W        W42158  13.851  42.547   3.249
69899W        W42159  43.947  38.817   0.497
69900W        W42160  29.959  32.053   2.856
69901W        W42161  10.735   6.842   4.508
69902W        W42162  19.551  25.051   3.322
69903W        W42163  31.938  29.904   1.981
69904W        W42164  33.928   7.243  10.658
69905W        W42165  37.708  12.605  14.452
69906W        W42166   2.365  30.097   2.587
69907W        W42167  12.162  30.316  13.986
69908W        W42168   6.445  33.552   0.847
69909W        W42169   2.782  20.017   3.738
69910W        W42170  23.010   2.717   2.912
69911W        W42171  36.336   0.460   3.824
69912W        W42172  14.720  24.147  12.896
69913W        W42173  14.054  42.748  13.148
69914W        W42174  21.516  29.719   3.823
69915W        W42175   7.297  10.342  13.431
69916W        W42176  12.239  20.065  13.348
69917W        W42177  13.273  44.430  10.729
69918W        W42178   7.728   5.777  14.516
69919W        W42179   4.915  10.615   2.371
69920W        W42180  15.851   4.700  10.026
69921W        W42181  42.816  20.464  10.094
69922W        W42182  44.173  35.887  11.831
69923W        W42183  30.516   5.563  11.550
69924W        W42184  33.618  17.127   3.317
69925W        W42185  32.468  13.426  14.615
69926W        W42186  11.612  44.847   3.434
69927W        W42187   6.671  23.077   3.688
69928W        W42188  18.728  22.267  13.458
69929W        W42189  41.042  38.899   3.734
69930W        W42190  19.746  13.892   3.278
69931W        W42191  17.556  31.258  12.968
69932W        W42192  19.980  35.383   0.960
69933W        W42193  17.127  17.656   0.226
69934W        W42194   6.280  26.252  11.108
69935W        W42195  27.221   7.255   2.473
69936W        W42196   8.839  26.026  14.483
69937W        W42197  25.409  32.846  11.418
69938W        W42198  38.117  32.191   0.209
69939W        W42199  33.936  23.761  12.348
69940W        W42200   9.089  35.507   1.827
69941W        W42201  16.736  27.559  12.455
69942W        W42202   8.507  24.053   5.018
69943W        W42203  24.984   0.772   4.527
69944W        W42204  36.012  17.693  12.083
69945W        W42205   2.299  19.580   4.200
69946W        W42206  36.099  10.303  12.416
69947W        W42207  29.131  10.537  13.510
69948W        W42208   6.842  41.034   2.208
69949W        W42209   5.150  39.452   1.799
69950W        W42210   4.215  30.650  11.472
69951W        W42211   3.270  39.890  14.977
69952W        W42212  23.237   6.631  13.401
69953W        W42213  11.491   5.184  13.132
69954W        W42214  24.010  23.230   3.666
69955W        W42215  14.033  19.104   3.325
69956W        W42216  38.334  38.511  12.355
69957W        W42217  28.664  20.862   0.771
69958W        W42218  11.230  17.640   2.454
69959W        W42219  12.930  27.091  14.485
69960W        W42220  19.021  21.768  12.871
69961W        W42221  43.552  18.738  11.105
69962W        W42222  10.708  36.106   5.025
69963W        W42223  27.379  26.867   1.048
69964W        W42224  30.532  29.569  10.431
69965W        W42225  15.077  34.605  10.047
69966W        W42226  42.671  19.759  10.655
69967W        W42227  42.899  24.913   2.605
69968W        W42228  40.791  41.575  12.505
69969W        W42229   1.063  23.969   4.594
69970W        W42230  41.363  14.711   1.993
69971W        W42231  37.847  43.396  13.306
69972W        W42232  14.442   8.500  11.025
69973W        W42233  24.517  31.054   2.900
69974W        W42234  37.092  26.529   1.215
69975W        W42235  13.287  27.874  12.256
69976W        W42236  28.004  43.344  14.082
69977W        W42237  16.422  14.655  14.398
69978W        W42238  43.777  44.956   1.875
69979W        W42239  26.457  27.701  14.090
69980W        W42240  12.589  24.258  12.988
69981W        W42241  27.941  37.893   0.562
69982W        W42242  25.162  13.618  12.548
69983W        W42243  38.810  40.203  11.127
69984W        W42244  40.503  34.844   5.031
69985W        W42245  26.661  13.659   3.855
69986W        W42246  36.355  24.416  11.054
69987W        W42247  40.527  22.041   0.181
69988W        W42248  12.846   0.670  13.127
69989W        W42249  30.997  42.943   3.642
69990W        W42250  25.448  23.696  10.283
69991W        W42251   9.892  23.245   2.923
69992W        W42252   8.961  44.723   1.825
69993W        W42253  19.318  36.254  13.270
69994W        W42254   1.438  14.392   3.169
69995W        W42255   1.690   0.338   1.304
69996W        W42256  25.259  42.938  13.884
69997W        W42257   5.807   3.499  13.375
69998W        W42258  31.101  34.120  12.018
69999W        W42259   5.368  28.960  12.465
70000W        W42260  44.531  44.686   0.098
70001W        W42261   4.800  41.586  12.986
70002W        W42262  13.324  44.966  10.674
70003W        W42263  27.464   5.432   0.338
70004W        W42264   9.573  26.839   2.192
70005W        W42265  42.964   9.248  14.035
70006W        W42266  38.550  10.242  12.360
70007W        W42267  19.655   9.173  13.557
70008W        W42268   5.894  38.997   2.367
70009W        W42269  15.313  23.187  11.649
70010W        W42270  23.435   1.734  11.967
70011W        W42271   1.478  33.541  13.444
70012W        W42272  32.928  44.783  13.952
70013W        W42273  11.217   8.729   2.620
70014W        W42274  35.407   1.296  11.389
70015W        W42275  22.040   2.694  10.918
70016W        W42276   4.332  16.153   4.049
70017W        W42277  17.746   6.275   5.100
70018W        W42278  39.007  42.022  13.305
70019W        W42279  41.529  20.523   2.710
70020W        W42280  19.444  22.561   3.009
70021W        W42281   4.737  27.386  13.032
70022W        W42282  39.888  15.892  10.728
70023W        W42283   3.259  25.918   2.716
70024W        W42284  22.615  27.677   4.615
70025W        W42285  35.029  19.739  10.220
70026W        W42286   6.748  24.967   1.229
70027W        W42287  33.959  35.131   4.478
70028W        W42288  35.372  37.734   4.261
70029W        W42289  29.691  12.230   1.827
70030W        W42290  15.549   1.349   0.729
70031W        W42291   7.889  15.761  14.082
70032W        W42292  37.337  14.180  13.580
70033W        W42293   3.412  18.762   5.020
70034W        W42294  15.768   1.748   0.454
70035W        W42295  33.406  39.552   3.102
70036W        W42296  26.983   4.359   2.310
70037W        W42297  10.212  18.266  14.489
70038W        W42298  33.023  33.570   1.249
70039W        W42299  24.938   6.372   2.927
70040W        W42300  23.028   2.623  11.235
70041W        W42301  30.083   7.115  13.347
70042W        W42302  10.668  17.508  13.894
70043W        W42303  37.894  20.926  14.090
70044W        W42304  43.716  30.111  14.033
70045W        W42305  43.327  19.895  13.020
70046W        W42306   7.177  19.532   4.099
70047W        W42307   8.310   3.195   1.648
70048W        W42308  26.122  27.139   3.845
70049W        W42309   4.400  27.807   3.634
70050W        W42310   0.817  39.217  13.719
70051W        W42311   2.281  38.575  14.193
70052W        W42312  44.558  10.821  12.573
70053W        W42313  13.071  39.466   4.613
70054W        W42314  31.680   7.350  11.002
70055W        W42315  20.069  33.402   1.224
70056W        W42316  25.056  20.045  11.664
70057W        W42317  40.946  22.119   3.243
70058W        W42318  13.825  11.110   0.518
70059W        W42319   7.188  20.634  14.295
70060W        W42320  19.624  21.188  13.886
70061W        W42321  32.674  42.745  14.978
70062W        W42322   6.775   3.056   4.902
70063W        W42323  36.468  36.335  14.433
70064W        W42324  42.343  31.486   4.096
70065W        W42325  17.631  14.124   0.071
70066W        W42326  18.674  13.794   0.420
70067W        W42327   6.401   4.348  11.677
70068W        W42328  33.623  15.602  11.552
70069W        W42329  10.587  34.943  13.618
70070W        W42330  29.418  40.113  13.043
70071W        W42331  37.470   0.929   2.811
70072W        W42332  25.759   9.608   2.612
70073W        W42333  22.465  42.065   0.080
70074W        W42334  24.551   8.238   1.036
70075W        W42335  27.172  38.773   3.670
70076W        W42336  14.306  20.276   2.020
70077W        W42337  43.469  26.790   4.771
70078W        W42338  19.700  29.530  14.394
70079W        W42339  44.527  31.802  13.332
70080W        W42340  20.590  18.816   5.102
70081W        W42341  16.622   4.939   4.270
70082W        W42342  35.595   9.358   4.226
70083W        W42343  14.855   1.260  14.803
70084W        W42344  40.288  18.282   0.659
70085W        W42345  40.520  34.867  14.453
70086W        W42346   6.211  13.138   1.124
70087W        W42347  17.259  25.501   3.597
70088W        W42348   0.907  31.147   3.092
70089W        W42349   0.479  11.617   1.038
70090W        W42350   7.220  18.705   0.559
70091W        W42351  35.898  10.497   3.856
70092W        W42352   8.811  13.800   3.891
70093W        W42353  23.070  41.564   3.059
70094W        W42354   7.710  34.489  13.449
70095W        W42355  42.813  12.714   0.527
70096W        W42356  12.304  19.768  11.601
70097W        W42357   9.622  17.670  13.847
70098W        W42358   0.681  21.225   3.603
70099W        W42359   7.144  30.182  14.028
70100W        W42360   9.372  20.032  13.878
70101W        W42361  19.235  23.974   1.674
70102W        W42362  29.295  37.352  12.043
70103W        W42363  28.735  16.743   2.477
70104W        W42364  11.034   1.323   3.580
70105W        W42365   4.419  36.143  12.002
70106W        W42366  21.793  31.685  11.600
70107W        W42367  37.528   1.683   2.408
70108W        W42368  18.007  13.202  11.197
70109W        W42369  19.086  21.800   0.911
70110W        W42370  19.562   4.887  12.418
70111W        W42371  43.446  24.987  14.821
70112W        W42372  10.942  42.010  14.499
70113W        W42373  29.977  43.612  14.944
70114W        W42374  14.510   4.367   0.694
70115W        W42375  17.655  32.115   2.796
70116W        W42376  28.035  32.755  11.023
70117W        W42377  33.620  39.694   1.712
70118W        W42378  34.369  26.856  14.426
70119W        W42379   3.410  36.383  12.659
70120W        W42380   9.604  40.934  10.860
70121W        W42381  20.079  16.359   1.432
70122W        W42382   1.662   3.328  11.147
70123W        W42383  30.716   6.644   3.207
70124W        W42384  24.055  22.700  11.606
70125W        W42385  22.110  29.693  13.030
70126W        W42386   9.781  43.890   0.727
70127W        W42387  41.850   8.682   1.473
70128W        W42388  13.065  18.048  12.901
70129W        W42389  23.660  13.582  14.840
70130W        W42390  30.433  22.439  14.710
70131W        W42391   3.368   8.288   2.962
70132W        W42392  39.552  26.979   0.184
70133W        W42393  25.867  20.931   3.724
70134W        W42394  41.768  41.098   1.673
70135W        W42395  12.363  19.046   1.275
70136W        W42396  11.910  11.874   1.783
70137W        W42397   2.195  11.058  10.410
70138W        W42398  39.067  25.797  11.637
70139W        W42399  27.367  26.583  14.367
70140W        W42400  25.219  23.562  11.846
70141W        W42401  35.148  32.940  14.861
70142W        W42402   5.882  44.830   0.471
70143W        W42403  36.094  21.035   3.330
70144W        W42404  22.698  19.903   1.544
70145W        W42405  29.476  44.209  12.147
70146W        W42406   1.805  31.769  11.135
70147W        W42407   1.367  36.939  10.534
70148W        W42408  20.301   2.314   1.943
70149W        W42409  34.035  20.521   1.878
70150W        W42410  42.473  16.640  11.546
70151W        W42411  18.561   8.352   5.044
70152W        W42412  42.016  41.834  11.247
70153W        W42413  18.733  34.812   5.202
70154W        W42414  14.203  39.522   2.338
70155W        W42415  37.852  28.379  12.922
70156W        W42416  43.733  31.684  13.812
70157W        W42417  12.969  27.788  10.644
70158W        W42418   5.493  17.633  11.509
70159W        W42419  44.458  34.001   0.799
70160W        W42420   9.810  31.886  14.975
70161W        W42421   2.816  13.209   4.919
70162W        W42422  40.596  38.506   0.135
70163W        W42423   7.279  12.836   1.261
70164W        W42424  21.643  43.788   2.842
70165W        W42425  14.344   5.717   2.808
70166W        W42426  41.557  32.030   0.650
70167W        W42427  33.284  27.529  10.972
70168W        W42428  38.607   7.908  11.816
70169W        W42429  43.464  29.814  11.762
70170W        W42430  40.756   7.776   1.795
70171W        W42431  27.125  41.363  10.121
70172W        W42432  36.817  28.184   4.386
70173W        W42433  22.920  23.975   3.809
70174W        W42434  38.610  35.505   1.270
70175W        W42435  41.298  12.616  11.151
70176W        W42436  42.274  33.521  14.390
70177W        W42437  23.652  35.910   2.340
70178W        W42438  26.638  30.092  13.756
70179W        W42439  12.861  33.603  14.883
70180W        W42440   1.373  31.883  12.001
70181W        W42441  18.539  26.985   4.146
70182W        W42442  38.027   8.408   0.905
70183W        W42443  39.698   9.788   4.976
70184W        W42444  44.959  28.984   0.271
70185W        W42445  11.183  12.386   1.665
70186W        W42446   1.568  26.229  14.535
70187W        W42447   2.173   5.171  11.298
70188W        W42448  25.581   2.759  13.099
70189W        W42449  44.060  14.306   3.713
70190W        W42450  17.660   8.611  10.242
70191W        W42451  20.550  34.505   3.448
70192W        W42452  31.849   4.173  12.670
70193W        W42453  22.666   6.904   3.892
70194W        W42454   1.369   1.739  11.380
70195W        W42455  16.166  23.207  14.982
70196W        W42456  17.103  31.583  14.769
70197W        W42457   4.416  37.338   3.218
70198W        W42458  23.564  11.280   2.471
70199W        W42459  44.249  23.672   3.247
70200W        W42460  23.288  18.753   3.137
70201W        W42461  39.734  38.641   1.794
70202W        W42462  19.103  17.320   0.848
70203W        W42463  17.204   6.265  12.517
70204W        W42464  22.429   3.919   0.940
70205W        W42465   1.651  39.879  11.447
70206W        W42466  20.546  43.277   0.030
70207W        W42467   0.424  27.000  14.110
70208W        W42468   3.809  27.478  11.074
70209W        W42469  23.239  13.117  13.990
70210W        W42470   3.193  20.781   2.115
70211W        W42471  26.764   2.283   5.116
70212W        W42472  37.308  14.849  11.305
70213W        W42473   6.194  17.242   0.898
70214W        W42474  29.337   8.748  11.613
70215W        W42475  17.105  11.761   1.307
70216W        W42476  30.701  21.990  12.402
70217W        W42477  19.930  38.995   2.196
70218W        W42478   8.219   1.621   3.571
70219W        W42479  24.514  21.283  14.906
70220W        W42480   3.822  11.037  12.138
70221W        W42481  13.167  29.067   4.808
70222W        W42482  29.448  36.312   1.849
70223W        W42483  13.765  14.638   4.228
70224W        W42484   2.255  41.007   3.291
70225W        W42485  15.186  41.932  12.749
70226W        W42486  19.110   8.820   0.774
70227W        W42487  12.750   5.770   2.896
70228W        W42488  20.256  43.813  11.701
70229W        W42489  16.876  42.418   1.341
70230W        W42490   4.998  28.557   9.376
70231W        W42491  31.719   7.647   0.653
70232W        W42492  39.806  26.127   4.010
70233W        W42493  25.243   9.321  13.515
70234W        W42494   8.644  14.759  12.449
70235W        W42495  43.565  10.297  14.106
70236W        W42496   7.124  32.397   1.936
70237W        W42497   8.454  41.074  12.300
70238W        W42498  35.880  20.484   5.084
70239W        W42499  23.931  14.141   3.581
70240W        W42500   6.713   5.859   1.364
70241W        W42501  26.922  25.558   3.781
70242W        W42502  34.265  21.741  12.970
70243W        W42503  14.276  25.998  10.509
70244W        W42504  13.495  36.318   0.745
70245W        W42505  17.708  11.647  12.410
70246W        W42506  15.226  15.290   1.872
70247W        W42507  27.006   2.721   1.261
70248W        W42508  44.123  16.895   0.991
70249W        W42509  35.706  20.815   4.750
70250W        W42510  36.493  14.646  13.610
70251W        W42511   5.609   2.938   1.223
70252W        W42512  11.786  11.600   4.980
70253W        W42513  16.543  17.941   0.875
70254W        W42514  22.282  23.747  12.995
70255W        W42515  10.850   7.215  11.439
70256W        W42516  12.875  22.229  12.891
70257W        W42517  27.842  27.060   0.904
70258W        W42518  39.421  31.614  10.675
70259W        W42519  30.657  29.299  11.394
70260W        W42520  14.213  16.834   2.763
70261W        W42521  37.357  19.582  13.698
70262W        W42522  15.670   9.548   2.003
70263W        W42523  35.157  40.017  14.642
70264W        W42524   1.507   6.223   3.338
70265W        W42525  35.498  14.438   3.269
70266W        W42526  34.401   5.831  10.781
70267W        W42527  18.125  22.750   3.432
70268W        W42528  11.237   2.961   0.532
70269W        W42529  33.317  29.624   4.689
70270W        W42530  34.352  10.064  12.531
70271W        W42531  24.954  28.508   4.466
70272W        W42532  31.842   7.924   3.088
70273W        W42533  21.426  35.343   4.839
70274W        W42534  38.832  12.886  13.552
70275W        W42535  14.127  44.285   1.232
70276W        W42536  21.433  18.830   1.725
70277W        W42537   8.899  22.466   2.183
70278W        W42538  10.341   0.440  11.940
70279W        W42539   7.917  23.760  13.985
70280W        W42540  25.986   5.444  12.461
70281W        W42541  31.047  27.603  12.008
70282W        W42542  42.481   8.271   2.538
70283W        W42543   0.421   8.637  11.172
70284W        W42544  37.514   2.912   1.637
70285W        W42545  32.144  29.635  14.743
70286W        W42546   0.212   8.338  11.597
70287W        W42547   1.176  22.163  12.602
70288W        W42548  32.934   0.361   0.344
70289W        W42549  36.299  24.178   4.037
70290W        W42550   9.895   1.741   1.402
70291W        W42551  41.531  35.222  10.816
70292W        W42552  20.270  29.991  14.847
70293W        W42553  38.284   9.772  12.483
70294W        W42554  11.958  30.042   0.684
70295W        W42555  31.722  38.765   3.299
70296W        W42556  23.235  12.280  11.441
70297W        W42557   8.610  41.543   1.269
70298W        W42558  15.026   2.254  11.521
70299W        W42559  28.001  20.734   0.765
70300W        W42560  27.570  33.075   2.851
70301W        W42561  31.197  24.344  11.102
70302W        W42562  26.345  24.821   1.348
70303W        W42563  38.580  19.036  10.575
70304W        W42564   8.366  13.251  13.365
70305W        W42565  29.527  40.452  11.850
70306W        W42566  34.045  27.650  14.035
70307W        W42567   9.739  25.629  12.070
70308W        W42568  10.732  18.231  14.047
70309W        W42569  32.688   2.995  13.954
70310W        W42570  37.365  21.037  10.613
70311W        W42571   7.552  34.323  10.317
70312W        W42572  10.275  19.117   1.799
70313W        W42573  41.520  18.812   0.338
70314W        W42574  44.969  37.533   1.487
70315W        W42575   6.221  35.105   4.483
70316W        W42576  14.462   4.492   3.625
70317W        W42577  13.332  22.169   1.686
70318W        W42578  24.901  22.094   1.414
70319W        W42579   5.647   4.285  13.754
70320W        W42580  36.011  36.925   2.876
70321W        W42581  37.134   9.437   2.344
70322W        W42582  29.578  43.781   0.217
70323W        W42583  20.130  40.985   3.669
70324W        W42584   3.901  42.102   4.206
70325W        W42585  43.021  18.127   3.148
70326W        W42586  17.791  37.946   3.893
70327W        W42587   9.351  44.748  12.794
70328W        W42588  29.557  18.299   3.750
70329W        W42589  12.912   8.432  10.751
70330W        W42590  15.340  24.216   0.484
70331W        W42591   0.535  17.852   2.815
70332W        W42592  11.187  26.195  14.007
70333W        W42593  26.081  34.171  13.422
70334W        W42594  42.169  15.805  14.518
70335W        W42595  25.502   8.538  14.148
70336W        W42596  21.735   2.409  12.447
70337W        W42597  43.777  28.137  14.431
70338W        W42598  28.130  22.022  10.089
70339W        W42599   6.694  38.822  12.399
70340W        W42600  24.942   2.970   5.052
70341W        W42601  17.221   1.195  12.574
70342W        W42602   3.481   8.936   4.217
70343W        W42603  31.315  17.392   0.635
70344W        W42604  22.707  19.216  10.601
70345W        W42605  37.999  31.654  12.947
70346W        W42606  15.434  34.444   0.892
70347W        W42607  21.582  34.515  13.296
70348W        W42608  35.116  34.106  13.400
70349W        W42609  33.164  20.671   2.738
70350W        W42610  12.204   6.383  14.053
70351W        W42611   0.349  11.028  10.704
70352W        W42612  17.173   9.573   2.683
70353W        W42613  25.734   3.216  11.951
70354W        W42614  33.943  35.925  11.999
70355W        W42615   3.704  29.050   4.259
70356W        W42616  24.967  28.742  11.984
70357W        W42617  24.097  19.558  10.640
70358W        W42618  12.781   7.402  11.584
70359W        W42619  35.629  17.301   3.184
70360W        W42620  37.617   6.989  14.409
70361W        W42621   1.883  13.529  14.386
70362W        W42622  21.115   0.549  14.532
70363W        W42623   7.829   0.237  12.026
70364W        W42624   3.280  44.829  14.499
70365W        W42625  34.807  14.550   3.611
70366W        W42626  10.226  13.698  12.318
70367W        W42627  11.199  17.336  13.970
70368W        W42628  21.267   0.702  10.390
70369W        W42629  35.958  19.061   0.271
70370W        W42630  39.927  28.019  11.177
70371W        W42631  14.986   4.866  12.381
70372W        W42632  25.261  12.743   3.743
70373W        W42633   2.248  16.785   4.102
70374W        W42634   8.238  38.272   4.574
70375W        W42635  10.437  34.980   4.923
70376W        W42636  28.699  40.889  13.775
70377W        W42637   8.746   8.789   3.859
70378W        W42638  43.811  37.110  13.890
70379W        W42639  22.216   7.446   2.858
70380W        W42640  25.866  39.513  12.587
70381W        W42641  10.145  41.270   0.374
70382W        W42642  25.021  11.070  12.427
70383W        W42643  11.047  41.972  10.664
70384W        W42644  19.068   7.952   1.064
70385W        W42645  10.347   2.357  11.408
70386W        W42646   5.487  16.257  12.071
70387W        W42647  38.109  40.096  13.607
70388W        W42648   6.000  34.309   3.417
70389W        W42649  24.673   7.476  14.937
70390W        W42650  13.229  24.225  11.266
70391W        W42651   1.859  35.352  12.563
70392W        W42652  38.535  18.386  11.010
70393W        W42653  36.601  14.247  11.628
70394W        W42654  41.539  42.470  13.522
70395W        W42655  40.110  21.596  13.433
70396W        W42656  23.217  37.819  11.233
70397W        W42657  19.145  30.637  10.816
70398W        W42658  23.599  15.793   0.469
70399W        W42659  24.064  11.127   1.710
70400W        W42660  13.354  25.914   2.340
70401W        W42661  27.594  16.357  10.424
70402W        W42662  22.626  34.333   0.880
70403W        W42663  14.162  42.359  10.900
70404W        W42664  37.887  39.710  14.026
70405W        W42665  11.275  30.235  13.390
70406W        W42666  40.519  10.907   1.928
70407W        W42667  33.533  20.374  11.936
70408W        W42668   9.904   4.478  14.525
70409W        W42669   6.221  20.306  13.045
70410W        W42670  35.074  30.912  12.416
70411W        W42671  16.111   5.408  10.593
70412W        W42672   5.720  20.046  11.920
70413W        W42673  26.194  24.061   2.787
70414W        W42674   3.241  19.527  12.505
70415W        W42675  43.436   4.005  13.397
70416W        W42676  21.456  16.000  14.241
70417W        W42677  32.903   3.625   5.041
70418W        W42678  27.781  25.277  11.285
70419W        W42679  25.455  26.656   4.986
70420W        W42680  28.428  17.596   0.143
70421W        W42681  29.977  10.491   0.261
70422W        W42682  41.445   6.143  10.607
70423W        W42683   7.437  39.957   3.251
70424W        W42684   1.469  15.084   1.518
70425W        W42685  38.871   9.795   0.883
70426W        W42686  41.012  17.596  13.611
70427W        W42687  24.118  19.031   5.205
70428W        W42688  16.081  29.183   1.884
70429W        W42689  23.577   5.198   2.239
70430W        W42690   4.473  27.524   9.864
70431W        W42691  11.179  37.516  14.977
70432W        W42692   0.767   2.343  10.958
70433W        W42693  17.191   6.318   0.286
70434W        W42694  39.423   5.329   2.568
70435W        W42695  35.590   8.900   3.145
70436W        W42696   3.920   1.895  12.590
70437W        W42697  15.895  40.515   1.127
70438W        W42698  40.702   5.551   9.890
70439W        W42699  11.827  35.526  14.053
70440W        W42700  42.431   3.578  14.365
70441W        W42701  28.460  44.524   0.014
70442W        W42702   7.804  28.271  12.854
70443W        W42703  25.414   5.708  12.985
70444W        W42704  38.908  34.920  11.309
70445W        W42705   5.445   7.445   3.795
70446W        W42706   6.727  10.743   3.447
70447W        W42707  43.504   6.321  11.657
70448W        W42708  33.984  32.106   3.276
70449W        W42709   6.154  39.085   1.513
70450W        W42710   6.461  26.963  11.675
70451W        W42711   2.249  39.150  12.126
70452W        W42712   5.788  43.079   1.466
70453W        W42713  34.070  32.509   4.357
70454W        W42714  30.095  39.387  12.982
70455W        W42715  37.056  10.191  13.061
70456W        W42716  28.861   0.894  10.985
70457W        W42717  42.289  25.375  11.927
70458W        W42718  41.271  35.065  14.281
70459W        W42719  34.653  17.721  13.503
70460W        W42720  21.043  13.378   1.264
70461W        W42721  33.518  39.516   4.411
70462W        W42722  32.558   0.163   4.946
70463W        W42723  11.161  10.436  12.301
70464W        W42724  26.032  20.057   1.857
70465W        W42725  29.008  14.892   4.492
70466W        W42726  34.795   0.782  13.275
70467W        W42727  17.918  40.836   2.653
70468W        W42728  12.416  18.769  14.464
70469W        W42729  35.605  23.242   2.748
70470W        W42730   2.164  29.133   2.980
70471W        W42731  41.713  14.149   3.180
70472W        W42732  17.792  29.717  11.247
70473W        W42733   3.913   0.157  14.323
70474W        W42734  11.320   2.290  11.300
70475W        W42735  40.995   2.437   3.775
70476W        W42736  33.472  40.010   0.490
70477W        W42737  15.512  40.245  11.655
70478W        W42738  14.486  30.087   4.150
70479W        W42739  21.552   4.871   0.747
70480W        W42740  31.509  34.115  12.973
70481W        W42741   0.943  18.905  12.442
70482W        W42742   3.680  18.138   2.526
70483W        W42743  21.790  30.320   4.510
70484W        W42744   9.941  12.596   3.619
70485W        W42745   2.443  24.238   1.775
70486W        W42746   5.390  25.481  14.984
70487W        W42747  44.510  37.169  11.604
70488W        W42748  13.682  32.929   0.491
70489W        W42749  11.469   2.431   4.118
70490W        W42750  12.643  44.411   1.625
70491W        W42751   6.225  17.247  14.898
70492W        W42752  19.537  29.916   3.308
70493W        W42753  41.521  44.310   2.561
70494W        W42754   0.307  31.135  14.504
70495W        W42755  38.838  18.460   2.861
70496W        W42756  21.289   7.213   4.591
70497W        W42757  23.584  22.552   0.443
70498W        W42758   2.548  36.061   4.567
70499W        W42759   0.836  14.265   0.393
70500W        W42760  13.343   4.729  10.565
70501W        W42761  19.958  30.686  12.769
70502W        W42762  34.361   5.290  13.542
70503W        W42763  28.559   6.308   3.665
70504W        W42764  43.574  25.203   3.316
70505W        W42765  38.671  14.606  14.007
70506W        W42766  41.934  11.077   0.979
70507W        W42767  35.293  25.456   0.273
70508W        W42768  31.626  26.994   0.891
70509W        W42769  19.783  25.497   4.597
70510W        W42770  40.924  10.368   3.613
70511W        W42771  26.444  32.577  13.891
70512W        W42772  12.379  42.747  10.586
70513W        W42773  18.783  34.859   2.817
70514W        W42774  28.242   0.914   0.094
70515W        W42775   9.169  17.677   1.147
70516W        W42776   4.893  30.523  11.847
70517W        W42777  19.851  43.089  11.726
70518W        W42778  10.684  33.603   3.160
70519W        W42779   1.609  40.930   1.183
70520W        W42780  31.041   6.907  10.680
70521W        W42781  18.797   1.844   0.565
70522W        W42782  13.858  40.954   1.887
70523W        W42783  35.337   2.195  11.268
70524W        W42784   4.403   0.965   0.005
70525W        W42785  10.721  44.104  14.259
70526W        W42786  42.824  18.353  13.706
70527W        W42787  22.539  38.133  13.980
70528W        W42788  40.509  44.846  11.617
70529W        W42789   8.457  42.978  11.218
70530W        W42790  20.218   9.085  13.432
70531W        W42791  42.811  38.076   0.785
70532W        W42792  31.232  38.673   3.215
70533W        W42793  37.851   5.739  10.488
70534W        W42794   2.837   1.295  13.980
70535W        W42795  16.200  39.278   3.632
70536W        W42796  17.759  34.289  12.066
70537W        W42797  35.865   8.767  11.000
70538W        W42798  36.194   6.208   3.176
70539W        W42799   2.775  41.305   1.382
70540W        W42800  35.827   8.583   3.905
70541W        W42801   4.411  29.045  12.091
70542W        W42802  12.078  43.940   2.312
70543W        W42803  21.442  18.077   0.571
70544W        W42804   5.910  41.874   3.211
70545W        W42805  22.602  25.893   0.377
70546W        W42806  10.238  37.997   0.787
70547W        W42807   4.033  37.875  13.989
70548W        W42808  30.848   7.226   0.278
70549W        W42809  22.432   0.131   2.945
70550W        W42810   3.978  15.429   0.419
70551W        W42811   6.725  30.502   2.733
70552W        W42812  21.291  38.619   3.168
70553W        W42813   1.607  38.730   1.744
70554W        W42814   6.063  28.594   9.814
70555W        W42815  30.954   9.006   1.829
70556W        W42816  17.251  17.920  12.986
70557W        W42817  39.742  32.394  14.206
70558W        W42818  38.076  37.257   3.206
70559W        W42819  28.420  44.312   4.486
70560W        W42820   2.756  30.566  11.645
70561W        W42821   8.766  24.689  13.820
70562W        W42822  44.301  12.821   0.889
70563W        W42823  24.206  37.482   2.305
70564W        W42824  42.322  29.798  14.331
70565W        W42825  27.443   8.673  11.553
70566W        W42826  25.074  41.232  11.621
70567W        W42827   3.236  17.150   2.759
70568W        W42828  42.920   8.339  14.506
70569W        W42829   3.846  19.746   3.196
70570W        W42830  42.193  39.006  14.100
70571W        W42831  35.172  21.316   9.683
70572W        W42832  34.013  30.037   2.350
70573W        W42833  30.239  40.182  14.466
70574W        W42834  23.974   4.928  10.684
70575W        W42835  23.700  14.363  11.493
70576W        W42836  27.340  29.733  11.526
70577W        W42837  34.106  21.254  13.665
70578W        W42838  35.513  44.027   3.824
70579W        W42839   1.795  37.591  14.789
70580W        W42840   2.419  27.718  12.991
70581W        W42841  16.045  32.528   3.715
70582W        W42842  20.485  39.823   1.338
70583W        W42843  33.990  24.960  14.507
70584W        W42844  17.198  10.759  10.833
70585W        W42845   2.350   7.845  11.447
70586W        W42846  11.831   7.461  14.212
70587W        W42847   6.756   5.725   0.440
70588W        W42848  35.040  39.454  11.438
70589W        W42849  15.554  26.589   2.268
70590W        W42850  44.852  35.644   4.697
70591W        W42851   6.800   2.291   2.284
70592W        W42852  10.658   9.726  11.796
70593W        W42853  16.810   9.665   3.617
70594W        W42854  23.189  40.801  13.817
70595W        W42855  17.025   6.794   9.764
70596W        W42856  30.502  22.349   3.229
70597W        W42857   5.466  43.551  11.993
70598W        W42858   2.231  36.126   1.273
70599W        W42859  13.820  39.838   4.795
70600W        W42860  21.086   5.745  13.770
70601W        W42861  34.336  41.142   2.659
70602W        W42862  20.662   1.803  12.044
70603W        W42863   8.762   0.813  11.138
70604W        W42864  22.186  36.356  11.976
70605W        W42865  40.758  17.574   0.090
70606W        W42866  44.913  35.181  14.504
70607W        W42867  34.408  20.614   1.070
70608W        W42868   9.888  11.750  12.961
70609W        W42869  43.824  29.841  12.687
70610W        W42870  13.455  20.767  12.506
70611W        W42871   3.377   8.824  11.910
70612W        W42872  17.051  38.527  14.032
70613W        W42873  15.825  25.180  12.451
70614W        W42874  20.579   4.877   1.191
70615W        W42875  38.208   0.955   1.355
70616W        W42876   7.819  14.074   1.152
70617W        W42877  41.337   5.277  13.793
70618W        W42878  30.667  34.651  10.729
70619W        W42879  35.821  11.812  13.407
70620W        W42880  23.059  20.756  14.200
70621W        W42881  14.368  24.813  11.181
70622W        W42882  11.470  23.256   3.160
70623W        W42883  33.189  11.650   1.337
70624W        W42884  30.318  13.716   2.417
70625W        W42885  25.818  20.188  14.481
70626W        W42886  10.520  26.198   0.903
70627W        W42887  20.802   0.804   0.502
70628W        W42888  29.491  26.700   0.348
70629W        W42889  39.480  29.415   2.252
70630W        W42890   3.394   3.216  10.473
70631W        W42891  10.816  18.239  12.406
70632W        W42892  20.606  28.883   0.806
70633W        W42893  14.255  29.458  14.809
70634W        W42894  24.544  39.547   0.377
70635W        W42895   3.452  37.932  12.150
70636W        W42896  22.492  33.132   2.116
70637W        W42897  11.419   0.781  11.372
70638W        W42898  13.184  22.667  12.961
70639W        W42899   7.284   7.785  14.945
70640W        W42900  12.243  17.560   4.919
70641W        W42901  37.936  42.405   0.760
70642W        W42902  18.438  20.469   4.554
70643W        W42903  33.995  35.383  12.890
70644W        W42904  10.672  18.233  13.002
70645W        W42905  29.301  32.424   4.712
70646W        W42906  28.720   9.170  14.834
70647W        W42907   9.331  35.468  11.908
70648W        W42908   8.706   7.847   3.411
70649W        W42909  21.120  40.342   4.970
70650W        W42910  27.130  11.897   2.277
70651W        W42911  44.516   4.799  14.474
70652W        W42912   6.114   9.141  13.543
70653W        W42913  13.787  32.538  11.241
70654W        W42914  34.687  36.838   0.445
70655W        W42915  24.438  37.561  10.296
70656W        W42916  23.649  20.575  14.004
70657W        W42917  15.037   7.401   4.209
70658W        W42918   7.624   8.873   4.097
70659W        W42919  42.877  18.066  12.884
70660W        W42920  32.216  38.873   3.447
70661W        W42921  11.714   6.426   0.307
70662W        W42922  23.798  36.627   4.139
70663W        W42923  12.953  11.491  12.944
70664W        W42924  18.634  20.174   1.966
70665W        W42925  37.751   2.633  12.797
70666W        W42926  21.366  38.150   2.455
70667W        W42927   4.753  15.315  11.267
70668W        W42928  41.007  16.549  13.404
70669W        W42929  17.627  31.944   0.276
70670W        W42930   5.906  40.234  12.106
70671W        W42931  23.167  18.576  10.182
70672W        W42932  16.884  25.444  10.979
70673W        W42933  28.924  24.794  12.080
70674W        W42934  34.762   3.431   3.923
70675W        W42935  15.085  26.961  13.830
70676W        W42936  42.382  20.148  11.729
70677W        W42937  16.800   1.476   4.674
70678W        W42938   7.238  22.211  14.339
70679W        W42939  37.351   1.820  12.450
70680W        W42940  16.040  31.017  14.079
70681W        W42941  28.872   0.633   1.266
70682W        W42942  36.398  20.035  11.400
70683W        W42943   2.159  38.407   0.819
70684W        W42944  13.662  34.362  14.769
70685W        W42945  31.143  34.311  13.849
70686W        W42946  18.565  13.225   1.188
70687W        W42947   6.366  21.243  11.004
70688W        W42948  44.572   1.263   2.419
70689W        W42949  25.593  28.616   0.434
70690W        W42950  26.428  25.616   2.547
70691W        W42951   5.528  10.584  13.504
70692W        W42952  27.975  16.790  14.509
70693W        W42953  38.453  19.139   2.877
70694W        W42954   7.400  34.135  12.562
70695W        W42955  43.293  17.080  10.395
70696W        W42956  27.555  42.004  12.020
70697W        W42957  27.307  23.069   1.134
70698W        W42958  40.806   3.888   3.493
70699W        W42959   6.967  19.313  12.163
70700W        W42960  36.095  44.851  12.667
70701W        W42961  15.156  27.563  10.745
70702W        W42962  44.042   4.210   4.595
70703W        W42963   8.093  30.024  13.265
70704W        W42964  28.027   6.276   1.002
70705W        W42965  40.401   8.259  13.398
70706W        W42966  32.935  22.360   0.788
70707W        W42967  41.891  39.069   3.799
70708W        W42968   6.747  28.973   4.621
70709W        W42969  14.372  14.029   2.792
70710W        W42970   1.813   6.510  12.754
70711W        W42971  38.925  30.643   0.887
70712W        W42972  10.782  35.956   2.594
70713W        W42973  12.369   8.702   3.989
70714W        W42974  12.439  10.458  11.126
70715W        W42975  23.829  26.413   5.071
70716W        W42976  31.380  12.223  11.071
70717W        W42977  19.699  11.141   0.941
70718W        W42978  36.909  35.978  14.901
70719W        W42979  10.161  17.081   2.632
70720W        W42980  12.670  30.989   0.805
70721W        W42981  15.634  31.433  14.627
70722W        W42982  30.374   1.282   2.280
70723W        W42983  41.081  36.652   1.206
70724W        W42984  28.244  37.390  14.751
70725W        W42985  10.412  18.832   2.920
70726W        W42986   5.216  33.654  10.311
70727W        W42987  41.566  36.311   2.027
70728W        W42988   1.166  13.260  14.348
70729W        W42989  44.779   0.793   3.769
70730W        W42990  31.009  40.177  11.377
70731W        W42991  26.162   6.428   3.881
70732W        W42992  23.480  11.319  11.671
70733W        W42993  31.626   1.478   0.305
70734W        W42994  13.092  27.638  11.819
70735W        W42995  20.019   1.991   4.320
70736W        W42996  20.298  32.283   1.738
70737W        W42997  20.645  42.321  13.162
70738W        W42998   5.611  19.608  14.521
70739W        W42999  19.129  12.348  14.869
70740W        W43000  40.474  38.146   2.880
70741W        W43001   8.667  17.326   4.057
70742W        W43002  25.802   8.971   3.835
70743W        W43003  18.340  40.985  11.913
70744W        W43004  24.173  25.953   9.791
70745W        W43005  43.955  13.717   2.361
70746W        W43006  37.047  30.900  12.505
70747W        W43007  40.757  17.611   3.325
70748W        W43008   8.772  32.455   4.665
70749W        W43009   4.509  42.734  12.441
70750W        W43010   2.408  35.555   3.730
70751W        W43011  18.733   9.709   2.383
70752W        W43012   6.147  26.065  12.413
70753W        W43013   4.756  15.997   1.853
70754W        W43014  22.876  27.041   3.284
70755W        W43015  40.038  30.158  11.577
70756W        W43016  28.473  38.478   0.904
70757W        W43017   0.211  16.233  11.357
70758W        W43018  32.895  12.265  12.358
70759W        W43019   4.701  25.439   1.395
70760W        W43020  15.282  12.425   3.669
70761W        W43021  39.164  18.141   2.636
70762W        W43022  25.503  24.068   4.378
70763W        W43023   7.297  40.250  10.551
70764W        W43024  26.475  38.037   2.653
70765W        W43025   6.937  28.023   4.566
70766W        W43026  14.757  17.962   5.555
70767W        W43027  24.003  11.412   2.754
70768W        W43028   0.537  19.054   1.906
70769W        W43029   1.774  23.767   1.703
70770W        W43030  16.197  26.762   2.873
70771W        W43031  40.207  19.245  11.232
70772W        W43032   9.767  37.588  13.110
70773W        W43033  36.059  32.633  12.913
70774W        W43034  44.498  35.022  10.749
70775W        W43035   9.497  24.497   4.212
70776W        W43036  16.966  29.647   2.467
70777W        W43037  37.837  20.454   3.016
70778W        W43038  10.572  10.814   4.668
70779W        W43039  40.639  27.978   1.643
70780W        W43040  18.815  39.944  11.744
70781W        W43041  41.871   8.613  10.651
70782W        W43042  17.501  32.571  12.139
70783W        W43043   3.304  18.973   3.194
70784W        W43044  20.217  37.869   0.478
70785W        W43045  38.835   7.614  13.026
70786W        W43046  28.719  20.986  10.331
70787W        W43047  13.416  39.863   0.939
70788W        W43048   9.306  29.156   2.181
70789W        W43049  38.297  11.672   3.219
70790W        W43050  40.022  20.000   0.861
70791W        W43051  28.375  39.042  13.049
70792W        W43052   1.405  43.308   0.667
70793W        W43053  35.535  24.546  10.645
70794W        W43054  15.222  44.828   4.533
70795W        W43055  25.174  17.968   1.387
70796W        W43056  28.266   3.600  10.073
70797W        W43057  15.155  28.925   0.504
70798W        W43058  21.123  13.300  14.778
70799W        W43059  31.137  39.709   1.182
70800W        W43060   9.836  34.125   1.813
70801W        W43061   6.611  40.389  12.278
70802W        W43062  19.657  44.367   2.930
70803W        W43063  39.886   9.598  11.588
70804W        W43064  44.347   3.359   3.901
70805W        W43065  27.716  18.749   1.739
70806W        W43066  43.465  17.371  14.357
70807W        W43067  24.123  42.735   0.909
70808W        W43068  43.334   2.354  11.221
70809W        W43069   3.707  38.990   1.332
70810W        W43070   2.806  18.568  14.009
70811W        W43071  33.196  28.101   1.503
70812W        W43072  39.972  43.085   3.833
70813W        W43073  30.653  20.199  14.399
70814W        W43074  15.214  35.794   2.916
70815W        W43075  13.369  40.832  14.786
70816W        W43076  40.888  30.994   0.334
70817W        W43077  24.982  44.531   3.190
70818W        W43078   4.548  18.118  11.071
70819W        W43079  38.083  17.316  14.343
70820W        W43080  42.296  14.893  14.923
70821W        W43081  31.188  25.991   2.579
70822W        W43082  17.786  31.118   1.626
70823W        W43083  40.273  19.861   2.967
70824W        W43084  11.200  40.106   0.894
70825W        W43085  17.970  12.760   1.087
70826W        W43086  27.697  30.716   3.696
70827W        W43087  36.931   8.220   1.422
70828W        W43088  10.591  42.549  11.601
70829W        W43089  23.534   6.183   2.540
70830W        W43090   6.383  32.953   1.340
70831W        W43091  26.263  21.493  14.969
70832W        W43092   8.282  10.469   3.631
70833W        W43093  42.734  43.430  11.239
70834W        W43094  44.317  37.026  12.492
70835W        W43095  37.502  26.706  12.840
70836W        W43096   6.693  15.053  11.694
70837W        W43097   1.990  29.708   1.492
70838W        W43098   3.256  24.411  11.828
70839W        W43099  21.534   3.834  14.418
70840W        W43100  24.590   4.273  13.652
70841W        W43101  43.396  39.777  10.537
70842W        W43102  24.650  33.472  12.878
70843W        W43103  11.805  44.948  11.817
70844W        W43104   2.736  10.224  13.818
70845W        W43105   2.297   5.976   2.520
70846W        W43106  15.155  40.968  11.594
70847W        W43107  16.362  23.691  11.221
70848W        W43108   0.142  22.133   1.478
70849W        W43109  24.589  37.173  10.709
70850W        W43110  25.063  32.884   0.805
70851W        W43111  16.519  44.433   2.160
70852W        W43112  17.725  42.007  12.988
70853W        W43113  41.000  38.316   4.586
70854W        W43114  21.073  15.350  11.224
70855W        W43115  11.795  26.935   1.545
70856W        W43116  20.612  41.855  14.879
70857W        W43117   1.810  23.916  11.730
70858W        W43118  25.062   7.504  11.170
70859W        W43119  18.582   8.969   4.360
70860W        W43120  44.012  33.918   1.730
70861W        W43121   2.883   1.681   0.952
70862W        W43122  11.669  41.202  12.892
70863W        W43123   1.429  12.793   1.821
70864W        W43124  44.703  42.844  13.850
70865W        W43125   1.431   2.705   0.761
70866W        W43126   9.159  14.695   4.116
70867W        W43127   4.052  31.064  11.180
70868W        W43128  24.169   6.957  13.407
70869W        W43129  23.484   3.915   1.916
70870W        W43130  28.879  32.136   0.363
70871W        W43131   4.009  40.988  11.011
70872W        W43132  40.262  29.090   3.809
70873W        W43133  44.241   9.797   3.207
70874W        W43134  28.544  43.430   3.018
70875W        W43135  26.589  38.134  12.156
70876W        W43136  16.091  31.347  11.943
70877W        W43137  17.977   9.198  11.868
70878W        W43138  28.867  16.616  12.064
70879W        W43139  18.546   7.341   1.737
70880W        W43140  25.939  11.053  14.331
70881W        W43141  19.299  32.353   2.248
70882W        W43142  30.017  37.035   4.733
70883W        W43143  43.303  10.696   4.823
70884W        W43144  14.524  42.336   1.837
70885W        W43145  31.164   8.956   2.311
70886W        W43146  42.590  25.037  14.836
70887W        W43147  30.219  21.854  12.501
70888W        W43148  39.064  11.692  11.611
70889W        W43149  14.755   4.969   2.333
70890W        W43150  18.876   5.756   4.608
70891W        W43151  18.613  21.134   1.476
70892W        W43152  11.274   6.037  13.192
70893W        W43153  31.643  27.730   2.534
70894W        W43154  34.825  35.707   3.709
70895W        W43155  12.155  37.221   3.164
70896W        W43156  22.263  23.818  12.026
70897W        W43157  39.865  23.508  13.724
70898W        W43158  18.220   0.395   2.715
70899W        W43159  12.287  24.616   2.614
70900W        W43160  24.157  31.683  11.921
70901W        W43161  34.493  28.777   2.643
70902W        W43162  30.696  43.850   3.769
70903W        W43163  26.935  28.879  11.115
70904W        W43164  26.006  15.580   4.985
70905W        W43165  19.708  20.604  11.440
70906W        W43166  26.626  11.381   4.815
70907W        W43167  35.777   4.228  12.882
70908W        W43168   5.723   8.358  12.504
70909W        W43169  32.895  11.861  11.990
70910W        W43170  12.449  23.687   3.048
70911W        W43171   4.715  41.523   1.441
70912W        W43172  25.158  31.319  10.994
70913W        W43173  38.980  39.931   3.693
70914W        W43174   7.244  43.061  10.672
70915W        W43175  37.267   4.385  10.819
70916W        W43176   3.540  18.208   1.369
70917W        W43177  23.835   2.248   4.341
70918W        W43178  36.043  25.968   0.828
70919W        W43179  41.574  41.368  11.635
70920W        W43180  16.777  42.573  12.808
70921W        W43181  39.331  25.976   4.201
70922W        W43182  41.814  18.912   3.456
70923W        W43183   6.357  36.454   2.284
70924W        W43184  34.091  26.147   3.160
70925W        W43185  13.092  18.415  13.382
70926W        W43186  28.573  11.607   1.918
70927W        W43187  21.400  23.536  10.607
70928W        W43188  40.098  10.181   0.731
70929W        W43189  40.160  13.114  11.195
70930W        W43190  23.421  15.816  11.377
70931W        W43191  18.857   6.394   1.638
70932W        W43192  31.034  14.260  10.557
70933W        W43193  36.544  44.727  13.891
70934W        W43194   6.136  20.691   2.667
70935W        W43195   3.955  18.541   2.747
70936W        W43196  12.117   1.701   4.191
70937W        W43197  43.820  11.906  11.195
70938W        W43198   3.692  37.921   0.532
70939W        W43199  44.912  19.175  13.490
70940W        W43200  14.531  20.642  13.837
70941W        W43201   1.569  33.026   1.269
70942W        W43202  18.753  36.814   1.264
70943W        W43203  16.326  43.255   2.349
70944W        W43204  39.033   5.114   0.741
70945W        W43205  23.654   4.408  13.505
70946W        W43206  37.541  42.687  14.444
70947W        W43207  27.563  25.027  10.421
70948W        W43208   7.143  31.865   0.846
70949W        W43209  37.480  43.183  14.280
70950W        W43210  28.253  38.325   0.231
70951W        W43211   9.041   4.294   4.115
70952W        W43212  34.770  40.287   4.588
70953W        W43213  33.570  38.062  13.090
70954W        W43214  36.261   4.345   4.153
70955W        W43215   9.608  21.815   2.598
70956W        W43216  30.951  27.228  12.966
70957W        W43217  13.109  20.973   1.288
70958W        W43218   3.951  21.329   1.613
70959W        W43219  19.861  32.496  12.572
70960W        W43220  28.031   6.234   0.493
70961W        W43221  14.958  29.909  11.387
70962W        W43222  34.365  33.510   0.024
70963W        W43223  18.799  35.512  11.520
70964W        W43224  16.660   1.107   3.740
70965W        W43225  26.430  26.398   4.827
70966W        W43226  25.759   7.904  10.776
70967W        W43227  27.182   4.664  10.291
70968W        W43228  11.639  27.059   2.713
70969W        W43229  18.114  31.089   1.033
70970W        W43230   3.463   7.721   4.141
70971W        W43231  23.606  35.312  14.244
70972W        W43232  35.055  37.603  11.115
70973W        W43233   7.628  41.065   4.028
70974W        W43234  43.000  41.833   3.283
70975W        W43235  21.071  17.822   2.854
70976W        W43236  41.012  18.746   0.391
70977W        W43237  34.358  10.764  12.040
70978W        W43238  11.590  16.076  11.637
70979W        W43239  11.597  20.592  12.735
70980W        W43240  21.712  33.323   3.196
70981W        W43241  31.074   2.686   0.324
70982W        W43242  30.877  12.237   4.325
70983W        W43243   7.639  19.097  11.463
70984W        W43244  15.648  16.390  14.880
70985W        W43245  37.090   9.262   3.388
70986W        W43246   6.262   3.311   0.826
70987W        W43247   2.773  24.680  10.764
70988W        W43248  25.216  22.937   3.351
70989W        W43249  30.418  19.509   1.856
70990W        W43250  29.388  32.047   0.339
70991W        W43251  43.937  22.465  12.073
70992W        W43252  35.315   9.317   1.459
70993W        W43253   1.241  20.765  11.734
70994W        W43254   0.476   8.654  12.677
70995W        W43255  35.226   6.191   3.213
70996W        W43256   3.889  32.712   4.147
70997W        W43257  28.089  38.619  13.050
70998W        W43258  17.514  24.972   5.051
70999W        W43259  30.627  42.409   4.735
71000W        W43260  14.323  18.076   5.260
71001W        W43261  21.127  17.820  12.469
71002W        W43262   0.632  15.898   0.439
71003W        W43263  35.068  11.753   3.503
71004W        W43264  12.699  11.164  12.009
71005W        W43265  40.262  27.649  12.044
71006W        W43266  31.449  27.039   4.911
71007W        W43267  26.483  11.384  14.756
71008W        W43268  25.465  27.204  11.706
71009W        W43269  40.987  24.772   4.097
71010W        W43270   2.468  28.678   3.107
71011W        W43271  30.123   7.974  12.705
71012W        W43272   3.011  23.613   4.402
71013W        W43273  10.294  40.105   0.923
71014W        W43274  31.446  10.922  12.097
71015W        W43275   8.191  44.447   2.219
71016W        W43276  40.739  32.466  14.547
71017W        W43277   1.649  12.302  13.612
71018W        W43278   5.399  11.252  12.886
71019W        W43279  43.794  39.282   4.543
71020W        W43280  23.225  36.884   1.276
71021W        W43281  39.312  29.059  10.989
71022W        W43282  27.102  28.532   4.460
71023W        W43283  23.490   7.346  12.786
71024W        W43284  22.175  24.015   1.768
71025W        W43285  36.323  26.499   9.737
71026W        W43286  28.882  17.638   2.782
71027W        W43287   7.427  33.884   0.047
71028W        W43288  38.474  25.751  11.990
71029W        W43289  25.937  38.469  13.498
71030W        W43290  34.716  11.643   1.203
71031W        W43291  11.743  42.981   2.298
71032W        W43292  41.677  43.509   2.289
71033W        W43293  40.488   7.599   4.807
71034W        W43294   7.292  44.402  12.688
71035W        W43295  41.812  41.803   4.870
71036W        W43296  14.084  16.830  13.139
71037W        W43297  28.639  16.778  14.691
71038W        W43298  21.749  44.103   3.671
71039W        W43299  27.622   5.869   5.025
71040W        W43300  20.609  15.494  10.435
71041W        W43301  23.986  19.599   1.079
71042W        W43302  43.387  32.432   0.450
71043W        W43303  11.272  16.764  14.016
71044W        W43304  12.615  22.526   0.827
71045W        W43305  21.250  35.498   0.467
71046W        W43306  14.270   2.444   3.061
71047W        W43307  33.283  38.189  14.515
71048W        W43308  33.963  14.559   3.323
71049W        W43309  37.132  15.611  13.777
71050W        W43310  10.809  12.353  13.564
71051W        W43311  39.454  41.307  11.605
71052W        W43312  44.739  35.094   0.494
71053W        W43313  17.712  38.937   0.352
71054W        W43314   9.868  31.486   4.639
71055W        W43315   3.787  15.908   0.369
71056W        W43316  12.756  31.422   3.046
71057W        W43317  15.779  30.442   0.723
71058W        W43318  16.368  36.473  10.947
71059W        W43319  43.740   7.147  12.431
71060W        W43320  33.871   7.726   1.925
71061W        W43321   4.403  28.083  11.929
71062W        W43322  38.085  37.766   2.389
71063W        W43323  40.553  39.681   4.644
71064W        W43324  38.062  13.717  11.854
71065W        W43325  32.512   0.720   3.338
71066W        W43326  17.796  27.061  11.755
71067W        W43327  19.676  13.528  14.432
71068W        W43328  38.865  36.908   3.315
71069W        W43329  29.989  35.097   3.567
71070W        W43330   7.801   9.793  14.509
71071W        W43331  31.755   4.443   4.611
71072W        W43332  31.902  17.161  13.307
71073W        W43333   9.148  44.508  14.738
71074W        W43334  15.673  24.838  10.367
71075W        W43335  15.886  43.947  14.475
71076W        W43336   7.945  24.936   3.835
71077W        W43337  27.309  15.560  12.685
71078W        W43338  26.006  21.723  14.546
71079W        W43339  30.102  21.055  14.513
71080W        W43340  29.368  42.070   3.518
71081W        W43341  38.294  40.070  14.200
71082W        W43342  15.966   9.748  13.539
71083W        W43343  23.704  40.995  13.009
71084W        W43344  29.918  20.589  11.580
71085W        W43345  23.042   2.491  11.730
71086W        W43346  43.348  15.879  13.984
71087W        W43347   3.406  31.606  12.684
71088W        W43348  25.561   2.010   5.105
71089W        W43349   8.612  21.070   4.202
71090W        W43350  43.447  25.508  14.787
71091W        W43351   6.346  41.053   4.150
71092W        W43352  24.980  32.163  11.555
71093W        W43353  41.763  15.246  10.730
71094W        W43354   8.344  26.171   2.319
71095W        W43355  33.432  30.153   0.322
71096W        W43356  27.689  20.216   1.846
71097W        W43357  36.820  23.471  13.956
71098W        W43358  34.097  36.928  10.735
71099W        W43359  18.105  33.065   2.828
71100W        W43360  32.832   4.225   1.485
71101W        W43361  44.019   5.838  12.258
71102W        W43362  17.773   2.708   3.777
71103W        W43363  18.015   0.491  14.037
71104W        W43364  24.491  20.082  11.204
71105W        W43365  22.554   9.330   2.813
71106W        W43366  12.429  11.614  11.953
71107W        W43367  27.593  41.793  14.312
71108W        W43368  18.214  30.150   3.236
71109W        W43369  17.841  43.779   0.869
71110W        W43370  19.562  25.528  13.008
71111W        W43371  43.828  13.216   2.426
71112W        W43372  32.030  11.707   0.020
71113W        W43373   6.370  31.718  12.549
71114W        W43374  42.993  18.465   4.067
71115W        W43375  17.228   9.813  10.387
71116W        W43376  33.346  23.974   5.027
71117W        W43377  25.205  10.164   2.316
71118W        W43378  40.488  41.951   2.401
71119W        W43379  21.082  37.330  13.415
71120W        W43380  18.186  26.410   3.145
71121W        W43381   7.204  19.457   2.128
71122W        W43382   9.151   3.207   0.841
71123W        W43383  27.048   0.159  11.154
71124W        W43384  23.678  24.259   4.904
71125W        W43385  40.169  40.351  14.179
71126W        W43386   2.026  25.040  10.036
71127W        W43387  23.194   1.479   0.837
71128W        W43388  33.124  22.491   2.460
71129W        W43389  39.229   4.955  13.596
71130W        W43390  22.501   0.104   0.942
71131W        W43391   9.249  33.595  12.010
71132W        W43392  27.749  21.773   2.788
71133W        W43393  16.618  13.908   3.248
71134W        W43394  34.085  40.995  13.699
71135W        W43395  35.342   5.794   1.954
71136W        W43396  30.219   5.268  13.020
71137W        W43397  36.360  32.688  10.782
71138W        W43398  31.368  23.600   1.262
71139W        W43399  36.078   7.241   3.575
71140W        W43400  31.898   4.964  12.886
71141W        W43401   3.770  44.278   3.137
71142W        W43402  22.162   3.458   0.968
71143W        W43403  14.873  42.360   3.340
71144W        W43404  29.119  42.159  13.538
71145W        W43405  10.749  10.149  10.655
71146W        W43406  43.824  25.086   1.291
71147W        W43407  30.607   7.914   1.312
71148W        W43408  30.172  38.425  12.039
71149W        W43409   6.142   3.000  11.515
71150W        W43410   6.383  40.763  14.468
71151W        W43411  11.344  16.881   3.354
71152W        W43412   5.610  29.097   1.949
71153W        W43413  31.640  23.653  11.354
71154W        W43414  21.612  38.482   4.578
71155W        W43415  35.948  39.592   1.660
71156W        W43416   8.811   2.721  11.996
71157W        W43417  10.082  18.952  13.558
71158W        W43418   1.742  43.971  12.458
71159W        W43419  30.783  33.044  13.443
71160W        W43420  17.558  15.669  13.799
71161W        W43421  39.942   8.440  11.068
71162W        W43422   5.959   0.885  11.077
71163W        W43423  40.863  29.243   3.894
71164W        W43424  32.587   8.116   3.575
71165W        W43425  31.548  25.995  10.580
71166W        W43426  17.737  30.238  12.167
71167W        W43427   7.356  39.156  11.115
71168W        W43428   7.496  37.899   0.742
71169W        W43429  42.787  33.448  14.386
71170W        W43430  42.360  19.103  13.301
71171W        W43431  40.036  35.288   1.220
71172W        W43432  29.323  28.306   1.328
71173W        W43433  23.609  19.849   0.139
71174W        W43434  32.101   8.654  13.398
71175W        W43435   2.625  39.023   2.831
71176W        W43436  30.175  10.494   4.665
71177W        W43437  33.009  27.149   0.707
71178W        W43438  25.093   1.765   4.883
71179W        W43439  28.052  14.281  10.561
71180W        W43440  32.330  10.782   2.890
71181W        W43441  42.061  44.108   4.078
71182W        W43442  35.034   7.178  13.430
71183W        W43443   0.253  39.468   4.350
71184W        W43444  26.690   9.145   1.829
71185W        W43445  30.876  26.956   3.317
71186W        W43446  25.910  22.900  11.973
71187W        W43447  32.437   0.470   1.689
71188W        W43448  11.241  43.151  14.949
71189W        W43449  30.884  18.376   2.917
71190W        W43450   1.596  29.418  12.510
71191W        W43451  16.108  15.531  14.354
71192W        W43452  42.342  25.024   1.270
71193W        W43453  18.593  22.758   1.877
71194W        W43454  35.873  18.112   9.894
71195W        W43455  11.565  37.944  10.678
71196W        W43456  40.366  42.839  12.949
71197W        W43457  11.887  30.201   5.114
71198W        W43458  21.114  33.893  11.933
71199W        W43459  42.108   8.317   3.922
71200W        W43460  17.573  35.006   0.181
71201W        W43461   3.449  24.500   0.889
71202W        W43462  26.742  26.990   1.730
71203W        W43463  15.663  29.832  11.968
71204W        W43464  33.604  21.060   5.199
71205W        W43465  31.386  15.155  13.034
71206W        W43466  40.690   9.910  12.804
71207W        W43467  33.019   8.865   3.754
71208W        W43468  18.325   7.470  11.565
71209W        W43469  18.077  29.757   0.306
71210W        W43470   5.037  13.369   1.390
71211W        W43471  38.866  31.113   2.409
71212W        W43472  28.097  14.749   2.937
71213W        W43473  36.076  11.329   0.842
71214W        W43474  14.275  35.105   4.710
71215W        W43475   4.136  20.144   0.623
71216W        W43476   4.246   1.616  11.717
71217W        W43477  11.369  43.381   0.453
71218W        W43478  38.355   8.212  12.146
71219W        W43479  26.130  41.053  13.510
71220W        W43480  24.450   2.915  11.034
71221W        W43481  42.359  20.406   2.593
71222W        W43482   3.450   1.801  14.263
71223W        W43483   7.501   6.216   0.866
71224W        W43484  17.231  21.427  13.520
71225W        W43485  12.228  41.825  13.231
71226W        W43486  15.006  17.116   0.077
71227W        W43487  25.941  35.108  14.406
71228W        W43488  28.953  26.132  11.833
71229W        W43489  34.965  28.929   3.587
71230W        W43490  35.032  26.689   5.145
71231W        W43491   2.017  16.852  14.769
71232W        W43492   4.385  38.709  13.154
71233W        W43493   3.966  42.801   2.908
71234W        W43494  15.624  12.788  12.129
71235W        W43495  28.430  23.199  10.687
71236W        W43496  30.177   3.392  12.184
71237W        W43497  36.875   8.389   2.378
71238W        W43498  39.023  13.140  11.141
71239W        W43499  35.140  23.149  10.722
71240W        W43500  44.956  18.159  13.978
71241W        W43501   4.302  33.530  13.556
71242W        W43502  37.091  34.380   4.116
71243W        W43503   6.443  15.401  11.396
71244W        W43504  44.156   0.031  14.276
71245W        W43505   6.784  37.839   2.023
71246W        W43506  17.590  23.902  13.562
71247W        W43507  35.173  28.484   4.887
71248W        W43508  39.916  23.018   4.526
71249W        W43509   8.336  16.709   4.121
71250W        W43510  30.580  25.555   0.403
71251W        W43511  32.425  12.284   0.370
71252W        W43512   5.730  16.011   4.203
71253W        W43513  43.819  21.190  12.026
71254W        W43514  26.272   9.030   5.046
71255W        W43515  39.007   1.324   3.871
71256W        W43516  18.224  34.066  12.023
71257W        W43517  43.312  15.097   2.876
71258W        W43518  42.508  16.710  12.423
71259W        W43519  38.986  14.697  13.582
71260W        W43520  14.051  12.153  11.593
71261W        W43521  28.745  37.314  14.727
71262W        W43522  41.064   5.362   1.114
71263W        W43523   0.508  23.523   1.357
71264W        W43524  22.160  40.371  12.535
71265W        W43525  11.437  39.448  14.843
71266W        W43526  22.646  34.860  13.464
71267W        W43527   7.723  35.334   0.630
71268W        W43528  11.469  11.697  12.870
71269W        W43529  13.303  40.114   3.188
71270W        W43530   6.189  14.310  10.666
71271W        W43531  13.263  27.072  14.926
71272W        W43532  14.049  11.844   2.255
71273W        W43533  13.545  10.566  11.572
71274W        W43534   9.864  18.761   3.041
71275W        W43535  24.971  25.200   3.295
71276W        W43536   1.583  22.067   3.409
71277W        W43537  16.162  30.641  11.086
71278W        W43538  13.630  16.752   3.401
71279W        W43539  23.094   4.273   1.210
71280W        W43540  15.177  16.844   3.686
71281W        W43541  20.482  16.556   1.718
71282W        W43542  25.476  39.539   0.411
71283W        W43543   9.445  26.401  12.429
71284W        W43544  26.164  26.042  11.964
71285W        W43545  38.323  31.443  14.784
71286W        W43546   7.317  43.196   0.412
71287W        W43547   0.000  37.097  11.878
71288W        W43548  41.772  24.830  14.969
71289W        W43549  27.336  28.568   3.967
71290W        W43550  30.511  39.773  12.216
71291W        W43551  19.324  18.217   0.431
71292W        W43552  29.820  23.989   1.754
71293W        W43553   3.326  13.886   2.871
71294W        W43554  17.233  28.459  13.090
71295W        W43555  33.425  15.509   3.969
71296W        W43556   3.353  33.065  13.612
71297W        W43557  20.051   2.226   3.249
71298W        W43558  31.088  18.154   4.551
71299W        W43559   1.045  32.941   1.255
71300W        W43560   1.648  33.687   3.151
71301W        W43561   1.962  43.724   2.754
71302W        W43562   2.737  22.273   4.763
71303W        W43563  34.959   7.375   2.708
71304W        W43564   7.319  35.506   2.927
71305W        W43565  22.124  10.693  11.982
71306W        W43566  38.850  19.983   3.085
71307W        W43567  20.749   0.928  12.347
71308W        W43568  17.347  40.376  11.987
71309W        W43569  23.452  36.120   4.180
71310W        W43570  20.604  16.066   2.432
71311W        W43571  33.854  35.153   1.925
71312W        W43572  38.494  32.825  14.230
71313W        W43573   4.273  40.340  11.144
71314W        W43574  32.425  20.079  12.198
71315W        W43575   6.212  44.957   0.939
71316W        W43576  19.421  11.782   0.557
71317W        W43577  43.267   2.923   2.119
71318W        W43578  18.379   5.626  10.261
71319W        W43579  37.977  32.480   4.765
71320W        W43580  29.515   4.623  13.160
71321W        W43581  36.537  11.125   2.653
71322W        W43582  12.717   8.568   1.212
71323W        W43583   8.701  22.410   4.480
71324W        W43584  16.664  39.817   0.368
71325W        W43585  25.223  16.770   1.816
71326W        W43586  20.083  28.244  12.215
71327W        W43587  16.444  42.872  12.517
71328W        W43588  21.290   9.645  14.323
71329W        W43589  10.391  35.124   0.899
71330W        W43590  34.783   2.379  14.332
71331W        W43591  34.961   7.252   0.798
71332W        W43592  19.298   1.704  12.882
71333W        W43593  29.105  43.951  12.419
71334W        W43594  15.307  38.925   0.331
71335W        W43595  10.842   2.912   4.282
71336W        W43596  35.563   0.537  12.806
71337W        W43597  26.219  24.067   3.637
71338W        W43598  35.948  11.552   4.180
71339W        W43599   6.381   9.961  11.780
71340W        W43600   2.263  31.020   0.529
71341W        W43601  35.798  29.932   4.079
71342W        W43602  42.022   1.405   1.168
71343W        W43603  12.853  27.836   1.161
71344W        W43604  13.677  25.809  14.443
71345W        W43605  32.190  27.231   1.521
71346W        W43606  15.832   1.904   3.262
71347W        W43607   8.412  36.297   0.481
71348W        W43608  19.283  33.812   0.748
71349W        W43609   9.222  25.218   4.576
71350W        W43610  38.456   3.521  14.814
71351W        W43611  14.097  42.480   3.678
71352W        W43612  27.208  16.658  11.374
71353W        W43613  15.172   6.944  12.886
71354W        W43614   7.411  21.538  12.528
71355W        W43615   6.757   1.776   3.774
71356W        W43616  40.723   3.042   1.468
71357W        W43617  12.815  17.233  14.963
71358W        W43618   9.372  27.223  11.161
71359W        W43619  36.140   4.808  13.969
71360W        W43620  35.942   2.846   0.971
71361W        W43621  33.011  19.957  10.889
71362W        W43622  13.859  14.218  11.074
71363W        W43623  34.874  12.792  14.028
71364W        W43624  41.346  29.396   2.724
71365W        W43625  34.525  26.124   2.405
71366W        W43626  17.702  14.110   2.652
71367W        W43627   4.106   0.320   2.070
71368W        W43628  15.654  23.687  10.501
71369W        W43629  30.092  35.778  13.001
71370W        W43630  36.593  31.716  10.619
71371W        W43631  38.032  16.231   3.560
71372W        W43632   3.919  16.773   2.160
71373W        W43633  21.509  44.287   4.511
71374W        W43634  32.871  32.293   0.915
71375W        W43635  31.747  18.660   3.125
71376W        W43636  37.464  15.626  14.205
71377W        W43637  25.271  37.042  12.059
71378W        W43638  33.977  22.843   4.064
71379W        W43639  15.529  39.076  14.828
71380W        W43640  34.663  18.695   3.663
71381W        W43641   6.271  35.328   3.112
71382W        W43642   5.670   6.452   2.756
71383W        W43643   0.448  13.309  12.539
71384W        W43644  29.238  13.838  13.916
71385W        W43645  21.166  18.596  10.132
71386W        W43646  18.339  20.036   4.156
71387W        W43647  25.694   5.723   1.479
71388W        W43648   6.246  43.363  11.563
71389W        W43649  27.961  31.139  12.032
71390W        W43650  27.102  33.653  11.135
71391W        W43651   5.099   0.022   2.862
71392W        W43652  42.811   1.285   3.285
71393W        W43653   6.474  20.121  12.633
71394W        W43654  11.207  32.197  11.700
71395W        W43655  28.972  30.120   2.205
71396W        W43656   5.417  13.103   3.587
71397W        W43657   9.066  19.028  14.867
71398W        W43658  12.135  11.850   3.709
71399W        W43659  35.927   1.340  11.246
71400W        W43660  36.410   0.577   9.855
71401W        W43661  35.575  25.592   4.070
71402W        W43662  20.777  36.004   0.898
71403W        W43663  21.315  43.812   3.804
71404W        W43664  30.275  38.951  12.632
71405W        W43665  12.320  29.496  14.355
71406W        W43666   1.232  12.371   3.200
71407W        W43667  42.686  24.324   3.992
71408W        W43668   3.250  39.435   4.689
71409W        W43669   8.804   6.310   0.310
71410W        W43670  43.818  20.849   4.121
71411W        W43671  37.539  29.593  12.085
71412W        W43672  15.738   0.248   2.424
71413W        W43673  37.495  42.375  12.906
71414W        W43674  35.071   9.430   0.816
71415W        W43675  27.146  13.777  13.838
71416W        W43676  39.173  44.437  14.809
71417W        W43677  23.686  32.264  10.097
71418W        W43678   5.071  33.500  14.854
71419W        W43679  19.275  38.837  13.385
71420W        W43680   5.930  37.036  13.139
71421W        W43681  40.458  33.607  12.639
71422W        W43682  11.593   4.695   4.535
71423W        W43683   6.629  17.225  12.673
71424W        W43684   3.159   3.363  13.426
71425W        W43685  20.753  31.499  13.278
71426W        W43686  17.903  42.881  10.681
71427W        W43687   0.238   8.607   2.891
71428W        W43688  11.571  29.511   0.898
71429W        W43689  43.904   8.415   2.851
71430W        W43690  13.964  24.790  13.630
71431W        W43691   9.905  33.669   2.714
71432W        W43692  40.649  28.149   4.762
71433W        W43693  19.152  12.129   1.904
71434W        W43694   6.795   5.965  14.045
71435W        W43695   2.795  21.566   3.244
71436W        W43696  41.939   9.751  14.439
71437W        W43697  18.982   4.791   1.151
71438W        W43698  40.218  44.178   3.713
71439W        W43699  35.083  12.734   4.065
71440W        W43700  43.313  30.491  10.548
71441W        W43701  32.089  38.407  13.957
71442W        W43702  32.352  27.981   2.629
71443W        W43703  37.308   6.972  13.710
71444W        W43704  17.560   2.841   1.511
71445W        W43705  27.493  32.949   1.664
71446W        W43706  18.083  39.613  12.188
71447W        W43707  10.668  10.403   4.375
71448W        W43708  27.882  25.383  10.233
71449W        W43709   8.608   5.475   1.027
71450W        W43710   2.980  28.162   0.390
71451W        W43711  31.032  38.130   0.432
71452W        W43712   0.289  36.342  11.456
71453W        W43713  37.081  21.329  13.836
71454W        W43714  20.612  28.090  13.951
71455W        W43715  18.164   0.890  11.133
71456W        W43716  20.078  42.457   3.842
71457W        W43717   2.724  26.674   0.347
71458W        W43718  17.686  28.219  12.906
71459W        W43719  37.849  38.610  12.564
71460W        W43720  31.103  36.362   2.794
71461W        W43721  29.553  34.372  10.744
71462W        W43722  18.483  31.564   4.077
71463W        W43723  26.222  35.258   0.940
71464W        W43724  23.422  32.000   4.513
71465W        W43725  21.925  20.816   1.275
71466W        W43726  44.342  10.993  14.775
71467W        W43727  44.246  18.676   0.991
71468W        W43728   8.723  24.027   3.392
71469W        W43729  20.364  40.640   0.496
71470W        W43730   6.585  14.110  12.366
71471W        W43731  23.111  33.175  14.856
71472W        W43732  17.553  27.588  10.965
71473W        W43733  22.743  34.551   4.811
71474W        W43734   4.855  13.175   0.549
71475W        W43735  28.450  14.511  13.965
71476W        W43736  17.991  30.733  13.883
71477W        W43737  40.932   3.989   1.642
71478W        W43738  19.919   6.950   0.812
71479W        W43739  20.207  28.552  11.851
71480W        W43740  25.628  10.128   2.695
71481W        W43741  18.000  11.588   3.481
71482W        W43742  18.316   6.710  11.939
71483W        W43743  21.146  28.709   3.098
71484W        W43744  26.015  38.937  11.900
71485W        W43745  19.841  29.568  13.312
71486W        W43746  30.119  24.918   3.713
71487W        W43747   9.630  30.124  10.796
71488W        W43748  38.630   2.795   0.345
71489W        W43749  43.798  37.261   4.828
71490W        W43750  34.501  36.471  12.404
71491W        W43751  40.848   8.639   2.350
71492W        W43752  38.834   4.195  11.123
71493W        W43753  23.802  27.916   2.749
71494W        W43754  17.661  42.571  12.435
71495W        W43755  17.127   4.976  12.933
71496W        W43756  18.920  32.541   2.620
71497W        W43757   0.502   7.746   3.379
71498W        W43758  15.113  30.553   1.896
71499W        W43759  35.128  12.342   0.802
71500W        W43760  12.845  31.597   4.109
71501W        W43761   9.149   4.741   0.877
71502W        W43762   8.719  17.219   2.167
71503W        W43763  29.447  10.695   4.484
71504W        W43764  22.724   8.709   3.302
71505W        W43765  20.485   3.523   3.856
71506W        W43766  35.393  12.106  11.217
71507W        W43767   9.819  23.646  13.048
71508W        W43768  17.342   5.309  14.059
71509W        W43769  19.247  18.285   1.950
71510W        W43770   3.674  10.271   3.690
71511W        W43771   7.498   2.331   3.850
71512W        W43772  34.113  11.870   3.157
71513W        W43773  16.085  12.733  11.435
71514W        W43774  32.388  19.701  11.854
71515W        W43775  25.233  10.179   4.069
71516W        W43776  43.048   0.497  12.528
71517W        W43777  21.002  14.317  12.010
71518W        W43778  43.269  26.488  11.878
71519W        W43779   8.230   5.681  14.550
71520W        W43780  18.564   8.412   9.820
71521W        W43781  34.126  28.075   0.422
71522W        W43782  26.711   3.796  14.829
71523W        W43783   3.039  18.091   3.857
71524W        W43784   5.914  30.842   0.961
71525W        W43785  40.362  20.084   2.275
71526W        W43786   6.953  32.461  12.946
71527W        W43787  35.057  30.828   2.073
71528W        W43788  12.859  38.942  10.969
71529W        W43789  26.294  23.468   1.832
71530W        W43790  22.912   5.370   4.463
71531W        W43791  29.879  38.996  10.693
71532W        W43792   9.731  27.509   4.211
71533W        W43793  38.478   7.135   2.731
71534W        W43794  38.797   2.219  11.153
71535W        W43795  35.353   8.657  14.972
71536W        W43796  20.164  24.710  13.121
71537W        W43797  25.501  39.934   4.828
71538W        W43798   4.816  19.266  13.327
71539W        W43799  15.491   1.834  12.426
71540W        W43800   2.759   6.179  11.671
71541W        W43801  33.571  35.863  14.331
71542W        W43802  16.150  20.119   2.334
71543W        W43803  28.597  43.343   3.517
71544W        W43804  41.099  31.004  13.526
71545W        W43805  25.209  42.785   2.326
71546W        W43806  26.937  43.192  11.226
71547W        W43807  32.398  19.471  10.368
71548W        W43808   6.298  28.946   2.757
71549W        W43809   1.446  14.098  11.186
71550W        W43810  18.411  33.754  12.378
71551W        W43811  28.464  41.763  11.533
71552W        W43812   1.248  22.306  14.274
71553W        W43813  40.086  17.579  13.431
71554W        W43814  12.122  22.076   1.351
71555W        W43815   3.753  21.526   4.705
71556W        W43816  34.005  27.163   0.342
71557W        W43817  38.964   0.582   2.199
71558W        W43818  14.592   6.899   3.782
71559W        W43819  30.536  20.138  13.479
71560W        W43820  13.179  20.803  13.756
71561W        W43821  25.644  43.017  10.683
71562W        W43822  19.290  16.371   2.417
71563W        W43823  42.055   0.553   4.173
71564W        W43824  34.319  19.741  10.685
71565W        W43825  20.619  39.471  12.911
71566W        W43826  26.319  36.946   2.834
71567W        W43827  14.536  21.457  13.426
71568W        W43828  19.507   5.412  12.654
71569W        W43829  11.756   8.436   5.256
71570W        W43830   4.336   1.323  11.306
71571W        W43831  16.083  19.588   3.654
71572W        W43832  23.055  21.422   5.540
71573W        W43833  35.212  27.881  11.239
71574W        W43834  41.464  35.566   4.285
71575W        W43835  22.157   2.972   3.687
71576W        W43836  19.007   0.958   1.929
71577W        W43837  15.176  30.379  11.440
71578W        W43838  44.044  11.830   2.701
71579W        W43839  33.483  42.861  11.623
71580W        W43840  18.447   8.943  11.817
71581W        W43841  39.276  42.535  11.994
71582W        W43842   2.825  31.171  14.920
71583W        W43843  43.424  25.524  13.362
71584W        W43844  35.764  11.459   2.838
71585W        W43845  36.558  32.744  12.060
71586W        W43846  31.067  29.144  12.018
71587W        W43847  15.770   3.691  10.638
71588W        W43848  34.858  23.540  13.800
71589W        W43849  10.718  37.964   3.702
71590W        W43850   1.420   5.372  14.135
71591W        W43851  43.040  31.786   4.241
71592W        W43852   2.017  32.542   2.294
71593W        W43853  11.264  25.462   1.910
71594W        W43854  26.647  25.554   2.067
71595W        W43855   7.431  28.092   4.472
71596W        W43856   3.781   7.237   0.611
71597W        W43857  39.222  17.390   0.263
71598W        W43858  16.980   1.268   0.232
71599W        W43859   9.566  12.756   1.983
71600W        W43860  33.383  16.589  10.674
71601W        W43861   5.131  24.258  10.736
71602W        W43862  28.154   6.648  11.642
71603W        W43863  36.349  19.302   1.036
71604W        W43864   7.851  37.890  14.191
71605W        W43865  44.309  44.407   4.024
71606W        W43866  25.675  38.346  10.281
71607W        W43867  36.416   7.399   3.195
71608W        W43868  20.571  38.394  11.623
71609W        W43869  42.417   3.916  10.646
71610W        W43870  36.459  36.036   2.726
71611W        W43871   1.431  12.110  10.928
71612W        W43872  12.655  15.314   4.105
71613W        W43873  37.438  37.148   3.812
71614W        W43874   5.297  16.670  13.966
71615W        W43875  20.579  10.666  11.453
71616W        W43876  34.120  44.864   0.423
71617W        W43877  18.028  20.524  14.379
71618W        W43878  35.581   9.885  10.638
71619W        W43879  21.517  10.653   2.862
71620W        W43880  21.546  14.700  11.596
71621W        W43881   6.767   5.683  14.498
71622W        W43882  32.859  34.022   4.317
71623W        W43883  27.019  36.781  11.061
71624W        W43884  15.679  39.262   3.253
71625W        W43885  15.233   3.371   2.127
71626W        W43886  14.724  33.374  12.161
71627W        W43887  11.192  24.148  10.648
71628W        W43888  16.676   4.371  14.048
71629W        W43889  21.977  18.081  14.519
71630W        W43890  12.641  35.398   3.559
71631W        W43891  26.002  38.911   2.741
71632W        W43892  23.401  14.626  10.771
71633W        W43893  14.339  43.282   2.258
71634W        W43894  22.334  35.563  13.881
71635W        W43895   5.093  29.134   2.035
71636W        W43896   9.925  14.705   4.758
71637W        W43897  10.750   2.985   0.287
71638W        W43898  11.076  24.023  11.980
71639W        W43899  37.348  29.966   2.317
71640W        W43900  19.573  24.667  12.033
71641W        W43901   7.613  35.849   1.364
71642W        W43902  33.506  16.159   4.591
71643W        W43903  35.830  26.273   0.349
71644W        W43904  21.005  24.263   3.729
71645W        W43905  34.615  11.215  12.061
71646W        W43906   0.903  38.482  11.401
71647W        W43907  10.675  29.099  14.771
71648W        W43908  40.440   4.264   3.434
71649W        W43909  15.852  20.578  13.469
71650W        W43910   6.305   6.330   3.328
71651W        W43911  40.963  38.943   2.435
71652W        W43912  17.137   1.714  12.640
71653W        W43913  27.136  17.205  14.353
71654W        W43914  32.479  25.787   0.396
71655W        W43915  22.306  38.833  10.682
71656W        W43916   1.172  17.743   1.432
71657W        W43917  10.776  21.605   1.931
71658W        W43918   9.362  17.779   3.757
71659W        W43919  23.063  26.240   1.779
71660W        W43920  38.418   1.878  12.553
71661W        W43921  16.525  13.820   0.307
71662W        W43922  30.063  39.339   0.163
71663W        W43923  20.732   7.811   5.004
71664W        W43924   0.516  18.920  11.215
71665W        W43925   3.823  28.918   2.518
71666W        W43926  23.641  36.535   0.024
71667W        W43927   0.809  27.420  13.450
71668W        W43928  30.682  10.539  14.145
71669W        W43929  16.067  21.268   4.020
71670W        W43930  37.270  25.055   4.107
71671W        W43931  31.050   2.488  12.412
71672W        W43932  25.006  42.445  10.704
71673W        W43933  31.132  20.226   0.150
71674W        W43934  42.516  28.600  12.471
71675W        W43935  23.495  29.238  12.025
71676W        W43936  29.619  23.793  12.683
71677W        W43937  17.667  32.514  11.553
71678W        W43938  42.230  34.413   3.295
71679W        W43939  28.098  41.924   1.092
71680W        W43940  44.232  38.429  14.233
71681W        W43941  16.750   0.305   4.054
71682W        W43942  11.929  30.810   1.373
71683W        W43943   4.201  43.141  12.421
71684W        W43944  26.114  10.672   4.637
71685W        W43945  37.087   7.912  10.542
71686W        W43946  33.525  27.203  13.399
71687W        W43947  18.071   3.363  13.304
71688W        W43948  44.793  35.027   1.389
71689W        W43949  38.166   1.232  10.453
71690W        W43950  38.725  44.184  14.832
71691W        W43951  33.567  32.694  14.365
71692W        W43952  43.082  10.773   1.542
71693W        W43953  26.708  28.688  13.901
71694W        W43954   7.916  22.433   2.426
71695W        W43955  21.126  28.505   0.281
71696W        W43956  16.631  41.229  14.892
71697W        W43957  34.402  42.720  13.810
71698W        W43958   3.906  44.006  13.554
71699W        W43959  27.956   6.743   3.242
71700W        W43960  23.578  39.752  12.380
71701W        W43961  12.815  32.947  14.383
71702W        W43962  41.539  20.137   3.969
71703W        W43963  42.276  31.142  14.852
71704W        W43964  35.900   4.975  14.784
71705W        W43965  27.464  20.339  12.390
71706W        W43966  24.943  21.555  14.735
71707W        W43967  20.646  29.561   1.428
71708W        W43968  10.227  23.490   3.809
71709W        W43969  43.381  40.277  13.684
71710W        W43970  15.652  32.230   3.566
71711W        W43971  39.600  26.012   0.341
71712W        W43972  31.109   2.183   0.092
71713W        W43973  11.269  28.043  11.035
71714W        W43974  36.621  10.166   2.731
71715W        W43975  12.779  23.486   1.667
71716W        W43976  34.975  40.072   2.321
71717W        W43977  35.068  12.925   4.550
71718W        W43978  29.090  35.779   3.079
71719W        W43979  14.675  17.770   9.621
71720W        W43980  38.118  29.616  10.842
71721W        W43981  21.687  15.280  10.600
71722W        W43982   8.217   3.173   0.836
71723W        W43983  15.206  14.742  11.525
71724W        W43984   2.870  32.583   4.185
71725W        W43985   9.593  29.624  11.131
71726W        W43986  38.019  14.682   2.301
71727W        W43987   3.917  38.201   4.335
71728W        W43988  18.751  22.712  12.821
71729W        W43989  43.933   1.756   3.688
71730W        W43990  43.231  14.721   4.104
71731W        W43991  24.562  12.872  11.421
71732W        W43992  43.241  39.826  11.918
71733W        W43993  26.647  35.623   4.441
71734W        W43994  18.271  26.228   2.269
71735W        W43995   3.206  29.066  12.779
71736W        W43996  28.844  30.184   0.471
71737W        W43997  14.056  32.074   1.286
71738W        W43998  28.027   8.686  14.806
71739W        W43999  31.336   8.509  14.875
71740W        W44000  22.878  32.588  14.378
71741W        W44001  15.129  18.103  14.294
71742W        W44002   7.193  15.890   2.832
71743W        W44003  38.379  37.459  13.767
71744W        W44004  43.558  40.945   3.888
71745W        W44005  23.595  24.225  13.131
71746W        W44006  36.605  39.631  14.047
71747W        W44007  43.465  34.092  11.628
71748W        W44008  10.939  43.113   1.402
71749W        W44009  19.130  31.912   2.449
71750W        W44010   4.667  36.855   2.726
71751W        W44011  21.485  39.429   4.211
71752W        W44012  24.688   5.920   3.003
71753W        W44013  32.940  28.164  12.813
71754W        W44014  15.828  23.535  12.080
71755W        W44015  12.329  10.301  11.632
71756W        W44016   8.085  17.792  13.835
71757W        W44017  18.702  10.390   3.677
71758W        W44018   6.154  19.739   2.695
71759W        W44019   4.317  40.480   1.964
71760W        W44020  23.628   2.792   0.688
71761W        W44021   6.798  35.113  13.308
71762W        W44022   3.325  13.750   2.340
71763W        W44023  10.175  33.087  10.683
71764W        W44024  11.723   5.698  13.958
71765W        W44025  20.001  28.202  14.603
71766W        W44026  42.448  11.609   2.943
71767W        W44027   6.106  29.087   4.659
71768W        W44028  42.991  28.820   0.026
71769W        W44029  34.505  25.071  11.659
71770W        W44030  37.491  28.933   2.541
71771W        W44031  33.104  28.741  10.693
71772W        W44032   8.813  42.306   0.212
71773W        W44033  36.662   2.863   2.273
71774W        W44034  11.794   7.808   0.066
71775W        W44035   2.459  28.591  14.687
71776W        W44036  24.785  40.328  14.814
71777W        W44037  16.657  19.585  12.528
71778W        W44038  19.587  23.519   2.871
71779W        W44039  33.058   8.154  13.316
71780W        W44040  10.679  26.077   0.325
71781W        W44041  17.907   7.264   3.903
71782W        W44042  44.743  30.496  12.851
71783W        W44043  30.482  25.614   4.602
71784W        W44044  38.841  14.235   4.888
71785W        W44045   1.233  44.257   1.702
71786W        W44046  10.194  26.746  11.169
71787W        W44047  32.707  33.377   3.257
71788W        W44048  26.869  22.730  14.380
71789W        W44049  18.599  12.381  12.874
71790W        W44050   5.782   3.097  12.098
71791W        W44051  26.900   8.215   1.436
71792W        W44052   8.561  42.705   3.857
71793W        W44053   9.382  42.923   1.616
71794W        W44054  34.442  12.833  12.494
71795W        W44055  40.430  33.503  12.138
71796W        W44056  24.928   9.749  13.404
71797W        W44057  31.178  19.348   1.206
71798W        W44058  25.836  40.667   2.997
71799W        W44059  34.517  41.771  10.721
71800W        W44060  31.642  42.285   0.912
71801W        W44061  37.346  30.508  12.437
71802W        W44062  14.165   8.980  14.829
71803W        W44063  25.878  27.734   1.188
71804W        W44064  22.494  40.764   4.486
71805W        W44065  35.584  41.550  11.690
71806W        W44066   6.809   1.758   0.923
71807W        W44067  18.098  28.692  11.645
71808W        W44068   7.661  17.870  10.827
71809W        W44069  31.632  42.368  11.729
71810W        W44070  16.608  19.055   3.327
71811W        W44071  37.836  36.777  12.752
71812W        W44072  30.253   4.972  11.652
71813W        W44073  24.629  26.712  11.929
71814W        W44074  22.186  19.538  10.221
71815W        W44075  24.282  12.824  12.115
71816W        W44076  15.874  32.328  13.008
71817W        W44077  30.161  14.680   2.325
71818W        W44078  18.220  42.899  14.846
71819W        W44079  35.871  10.835  11.032
71820W        W44080  23.524  27.686  12.840
71821W        W44081  31.686   2.603  11.663
71822W        W44082  43.539   5.294  12.962
71823W        W44083  16.186   9.397   4.250
71824W        W44084  13.806   2.697   3.799
71825W        W44085  44.839  39.603  12.883
71826W        W44086  24.121   9.255  11.327
71827W        W44087  26.467   8.186  14.034
71828W        W44088  28.327   8.921  11.569
71829W        W44089   9.059  38.318   0.144
71830W        W44090  15.083  38.785  10.653
71831W        W44091  32.160   6.412  13.992
71832W        W44092   4.316  35.279   1.992
71833W        W44093  15.364  16.685   0.768
71834W        W44094  37.399  43.526   1.850
71835W        W44095  35.133  21.088   3.711
71836W        W44096  26.973   1.424   5.054
71837W        W44097  26.080  32.071   4.619
71838W        W44098  30.176   6.369   4.333
71839W        W44099  21.978   7.179  11.117
71840W        W44100  34.380  38.853   3.337
71841W        W44101  26.456  10.699   3.023
71842W        W44102   2.950  36.106   2.401
71843W        W44103  24.251  10.751  14.204
71844W        W44104  19.335  27.117  14.729
71845W        W44105  12.816  16.280   2.172
71846W        W44106  22.572  35.556  12.490
71847W        W44107  10.977  15.461   0.568
71848W        W44108  28.202   5.981  11.092
71849W        W44109  23.762  25.360  13.354
71850W        W44110  41.355  43.877   2.828
71851W        W44111  40.428   0.325   1.938
71852W        W44112  25.979  15.283   1.671
71853W        W44113   1.204  17.804  10.632
71854W        W44114  24.261   5.905  13.394
71855W        W44115   8.733  14.258   3.653
71856W        W44116   0.370  15.236  12.665
71857W        W44117  16.704  44.065   2.636
71858W        W44118  16.820  10.769  13.679
71859W        W44119  14.849  37.637  12.867
71860W        W44120   5.813  21.261   0.303
71861W        W44121   0.360  43.443   2.243
71862W        W44122  18.144  33.903  10.916
71863W        W44123   4.438  37.449  11.483
71864W        W44124  40.564  36.233  13.325
71865W        W44125  11.816  18.267   1.360
71866W        W44126  14.507   4.837   0.955
71867W        W44127   7.240  25.946   4.105
71868W        W44128  22.763  12.676  10.735
71869W        W44129  44.735  44.930   3.775
71870W        W44130  31.681  17.040  12.504
71871W        W44131  14.775  34.806  12.531
71872W        W44132   0.591   6.325  10.690
71873W        W44133  34.591   4.944   0.273
71874W        W44134  12.676  13.194   3.875
71875W        W44135  14.168   5.566   3.640
71876W        W44136  15.821  37.592  14.081
71877W        W44137  15.168   9.073   2.764
71878W        W44138  22.730  16.192   1.569
71879W        W44139  26.506  24.647  14.806
71880W        W44140  31.639  37.985  11.177
71881W        W44141  18.139  40.472  12.626
71882W        W44142  38.503  32.309  14.424
71883W        W44143  11.173  39.526  11.282
71884W        W44144  41.405  18.758   1.868
71885W        W44145  18.378  26.818   1.276
71886W        W44146  17.608  36.410  13.459
71887W        W44147   3.979  20.251  13.324
71888W        W44148   8.195  39.529   0.685
71889W        W44149  34.163   3.481   4.324
71890W        W44150  13.301  38.813  13.875
71891W        W44151  40.360  21.801   0.644
71892W        W44152  30.629  13.185   0.365
71893W        W44153  15.151  30.561  11.919
71894W        W44154  42.245  18.261   3.873
71895W        W44155   3.133  32.005   1.169
71896W        W44156  36.394   2.924  12.098
71897W        W44157  41.632  25.757   3.936
71898W        W44158  19.738  33.896  14.839
71899W        W44159  26.496  15.783   4.498
71900W        W44160  30.456  21.603  10.715
71901W        W44161   3.653  36.375   1.787
71902W        W44162  27.651  25.347   2.696
71903W        W44163  13.537  34.021  11.709
71904W        W44164   1.695  17.915  10.762
71905W        W44165  34.020  30.704  13.202
71906W        W44166  15.030  33.025   3.579
71907W        W44167   8.798  19.218   1.716
71908W        W44168  37.070  29.182   0.785
71909W        W44169  15.552  25.033  12.880
71910W        W44170   4.802  12.637   4.531
71911W        W44171  39.856  12.076  10.622
71912W        W44172  17.381  41.554   1.205
71913W        W44173  17.981  43.286   0.905
71914W        W44174  12.397  42.173  12.853
71915W        W44175  31.404  10.362   3.188
71916W        W44176  34.340  31.434  12.642
71917W        W44177  28.228  40.296  14.923
71918W        W44178  38.925  19.169  12.029
71919W        W44179  30.732   3.321  10.526
71920W        W44180   0.513  41.358  11.216
71921W        W44181  25.130   2.342   3.182
71922W        W44182  21.566   4.291   2.960
71923W        W44183   1.508  38.510  14.855
71924W        W44184  41.449   6.478   2.778
71925W        W44185   2.263  32.330  14.521
71926W        W44186  29.219   4.824   0.943
71927W        W44187  35.536  21.610  13.368
71928W        W44188  17.605   0.698  13.822
71929W        W44189   2.453  31.636  12.368
71930W        W44190  28.370  31.651   0.914
71931W        W44191   4.753  28.278  11.457
71932W        W44192  22.125  44.537   4.861
71933W        W44193  20.640   8.361  14.211
71934W        W44194  10.440  23.000  12.102
71935W        W44195  43.550  38.023  13.837
71936W        W44196   1.215  36.377  13.039
71937W        W44197  17.994   5.304  10.374
71938W        W44198   7.462  35.545  11.627
71939W        W44199  16.692  36.314   3.270
71940W        W44200  31.887   0.913  10.849
71941W        W44201   7.438  24.630   2.955
71942W        W44202  24.477  40.910   1.375
71943W        W44203   4.571   1.475  14.963
71944W        W44204  43.845  28.973  12.494
71945W        W44205  29.673  44.367   2.384
71946W        W44206   2.508  18.611   2.876
71947W        W44207  18.835   6.453   0.802
71948W        W44208   3.048  15.581   5.131
71949W        W44209   6.383  13.092  10.619
71950W        W44210  24.587  43.430  12.100
71951W        W44211  27.061  32.799   3.782
71952W        W44212  31.603  28.169   4.784
71953W        W44213  41.317  15.202  14.767
71954W        W44214  23.726  26.157  12.950
71955W        W44215  38.466  31.408  12.845
71956W        W44216   6.698  34.543  12.430
71957W        W44217  18.343  44.946   3.544
71958W        W44218  39.892  24.480  11.516
71959W        W44219  43.420  22.074  11.876
71960W        W44220  23.243  35.344  13.855
71961W        W44221  29.107  40.327   2.857
71962W        W44222  21.069   1.850   1.740
71963W        W44223  12.624  19.538   3.952
71964W        W44224  35.822  13.011   0.903
71965W        W44225   2.453  33.976  12.045
71966W        W44226  12.729  13.585   2.702
71967W        W44227  29.165  10.726  12.615
71968W        W44228  14.368  32.563   2.463
71969W        W44229  36.186   7.838   2.830
71970W        W44230  27.896  13.812  11.646
71971W        W44231   1.421   8.123   2.676
71972W        W44232  24.041   6.287  10.321
71973W        W44233  40.853  10.819   4.902
71974W        W44234   5.722  19.487  13.632
71975W        W44235  33.894   9.166  10.583
71976W        W44236  15.924  42.033   3.803
71977W        W44237   5.529  42.927   3.375
71978W        W44238   6.294  15.220  10.511
71979W        W44239  20.780   1.428   2.132
71980W        W44240  20.123   0.193   3.030
71981W        W44241  16.803   8.388  14.182
71982W        W44242  29.532  25.871   4.528
71983W        W44243   1.245  15.839  10.636
71984W        W44244   3.223  23.479  10.278
71985W        W44245  39.900  13.295  13.814
71986W        W44246  35.550  14.438  13.747
71987W        W44247  27.004   2.230   3.160
71988W        W44248  27.729  37.602   0.963
71989W        W44249  12.630   7.620   4.677
71990W        W44250  11.153   6.139  10.838
71991W        W44251   3.984  40.873   3.801
71992W        W44252   8.903  31.582  11.485
71993W        W44253  29.922  19.729  14.209
71994W        W44254   6.675   0.838   0.504
71995W        W44255  37.380  10.187   1.959
71996W        W44256  19.635  31.592   1.184
71997W        W44257  40.857  41.422   0.770
71998W        W44258  26.864   7.871   3.612
71999W        W44259  13.629  19.430   0.450
72000W        W44260  39.107  11.113  14.860
72001W        W44261   5.209   5.388   3.119
72002W        W44262  12.560  43.393   4.580
72003W        W44263  37.843  44.710   0.075
72004W        W44264  28.375  17.528   2.843
72005W        W44265  37.535  35.056  12.089
72006W        W44266  32.668  32.422  11.834
72007W        W44267  34.789  15.138   0.259
72008W        W44268  19.801  20.580  13.759
72009W        W44269  24.644  10.410   1.714
72010W        W44270   3.268  21.791   3.082
72011W        W44271  39.102  42.030   0.765
72012W        W44272  10.102  40.538  11.558
72013W        W44273   8.474  14.537  11.900
72014W        W44274   1.883   6.376   4.706
72015W        W44275  32.107  23.676   1.770
72016W        W44276  13.873  14.228  13.280
72017W        W44277  29.360  13.860   0.313
72018W        W44278   8.210   8.223  13.900
72019W        W44279   6.003  27.714  11.215
72020W        W44280   4.627   1.230   5.076
72021W        W44281  32.479  28.524   1.819
72022W        W44282  37.848  26.958  14.289
72023W        W44283  14.386  38.324   1.235
72024W        W44284  40.620   1.777  10.330
72025W        W44285  23.534  11.347   4.316
72026W        W44286  33.967  23.994   1.949
72027W        W44287  20.786  27.032  11.455
72028W        W44288  20.360  42.420  12.048
72029W        W44289  41.869   5.457  14.990
72030W        W44290  34.008  19.281  10.899
72031W        W44291  18.037   5.452   1.406
72032W        W44292  11.920  28.208  13.299
72033W        W44293  29.556  34.851   1.908
72034W        W44294   3.779  40.919  10.567
72035W        W44295  27.067  35.841   0.589
72036W        W44296  10.256  29.616   2.344
72037W        W44297  40.071  33.496  11.181
72038W        W44298   0.900  25.729   3.595
72039W        W44299  12.570  17.190  11.457
72040W        W44300  27.463  17.248  10.570
72041W        W44301  39.330  29.030  11.493
72042W        W44302   2.413  24.989   2.271
72043W        W44303  37.971  40.386  13.169
72044W        W44304  36.599   3.657   1.809
72045W        W44305  11.393   5.970  14.241
72046W        W44306  43.415  23.505   0.751
72047W        W44307  44.288  15.770   4.605
72048W        W44308  11.253  19.624  11.526
72049W        W44309   6.301  24.247  13.108
72050W        W44310   0.319  18.241  10.441
72051W        W44311  13.303  29.158   0.277
72052W        W44312  33.631  40.139   1.472
72053W        W44313  38.641  18.641   4.728
72054W        W44314   7.277  34.420  14.946
72055W        W44315  44.470  20.338  14.379
72056W        W44316  28.096   3.017   2.165
72057W        W44317   7.780  16.994   3.452
72058W        W44318  14.779  27.069   4.594
72059W        W44319  34.121  23.964   0.982
72060W        W44320  15.622   1.464  11.540
72061W        W44321  28.162  25.973  13.471
72062W        W44322  20.467  10.284  10.570
72063W        W44323  11.630   6.857   2.164
72064W        W44324   5.826  38.093  13.837
72065W        W44325  11.326  33.605   2.577
72066W        W44326   1.415   2.220  13.999
72067W        W44327  17.027  16.860  14.088
72068W        W44328  19.823  28.959  11.074
72069W        W44329  35.420  28.944   2.219
72070W        W44330  32.810  17.141   2.777
72071W        W44331   1.399  28.301  13.991
72072W        W44332   6.072  38.384   2.336
72073W        W44333  29.117  17.744  13.522
72074W        W44334  15.823  14.883  10.956
72075W        W44335  12.279   0.670   0.674
72076W        W44336  43.127  37.812  14.564
72077W        W44337  11.658  38.925   4.554
72078W        W44338  35.673  30.026  12.499
72079W        W44339   8.909  44.615   2.964
72080W        W44340  12.633  42.103  11.631
72081W        W44341  17.760   1.465   3.999
72082W        W44342  36.180   7.099  10.940
72083W        W44343   3.777   9.200  11.741
72084W        W44344  14.425  24.840   3.750
72085W        W44345   4.718  44.204  13.889
72086W        W44346   5.431   0.495  14.527
72087W        W44347  27.673  42.826   0.310
72088W        W44348   9.675  25.353   4.304
72089W        W44349  40.281  14.805  11.074
72090W        W44350  40.849  28.508   0.694
72091W        W44351   1.900  26.012   4.589
72092W        W44352  28.227  26.108  10.343
72093W        W44353  32.433  24.808   1.443
72094W        W44354  28.603  35.941  14.012
72095W        W44355  34.614   1.204  13.873
72096W        W44356  19.729  20.702   4.215
72097W        W44357  44.016  24.588  11.091
72098W        W44358  33.504  37.299  12.217
72099W        W44359  44.323  34.528  13.972
72100W        W44360  23.234  30.366   3.328
72101W        W44361   0.279  28.198  14.321
72102W        W44362  38.526  30.396   3.658
72103W        W44363  17.179  35.698  12.863
72104W        W44364   0.408   0.601  12.995
72105W        W44365   6.412  17.174  10.462
72106W        W44366  11.835  18.724  13.880
72107W        W44367  26.051  27.241   0.428
72108W        W44368  18.108  37.071  11.270
72109W        W44369   7.344  12.888   2.244
72110W        W44370  10.169   5.765  10.476
72111W        W44371   4.802   6.676   0.854
72112W        W44372  15.045  17.321  13.081
72113W        W44373  24.181  15.062   0.770
72114W        W44374  18.828  24.983  14.905
72115W        W44375  18.434   0.640  12.489
72116W        W44376  39.518  10.870  12.828
72117W        W44377  18.748   5.432   2.137
72118W        W44378  37.488  28.548   4.038
72119W        W44379   5.195  14.538  11.507
72120W        W44380  37.606   6.177   1.510
72121W        W44381  36.648   4.167  12.197
72122W        W44382  28.046  30.587  13.419
72123W        W44383  15.376   8.006  13.945
72124W        W44384  39.043  10.659   4.650
72125W        W44385  42.084  34.285   1.095
72126W        W44386  17.729  44.816   2.235
72127W        W44387  15.361   9.346   3.193
72128W        W44388  34.549   5.807   3.617
72129W        W44389  13.422  20.395   2.429
72130W        W44390  41.836   6.913   1.026
72131W        W44391  37.461   3.965   0.741
72132W        W44392   4.302  11.096   1.345
72133W        W44393  25.926  34.675   4.198
72134W        W44394   8.453  23.601  10.883
72135W        W44395  18.813  15.109  12.625
72136W        W44396  23.189  39.309  13.940
72137W        W44397  16.924   2.164  13.653
72138W        W44398  10.089  40.989   0.791
72139W        W44399  35.395  34.019   4.628
72140W        W44400  39.154   3.863  12.565
72141W        W44401  28.487  21.981  13.084
72142W        W44402  16.684  32.707   4.528
72143W        W44403   1.719  19.531  12.468
72144W        W44404   5.752  39.040  14.521
72145W        W44405   3.667  31.265  12.944
72146W        W44406  30.872  43.401   1.789
72147W        W44407  31.044  32.522  10.155
72148W        W44408  33.477  35.125   0.446
72149W        W44409   7.507  29.516  10.437
72150W        W44410  40.016  16.777  11.146
72151W        W44411  13.135  16.274   2.586
72152W        W44412  30.673   6.827  14.481
72153W        W44413   6.290  17.553  10.820
72154W        W44414   9.852  30.867   3.154
72155W        W44415   5.751   9.360  12.435
72156W        W44416  28.679  25.835   3.229
72157W        W44417  23.525   8.905   3.810
72158W        W44418  13.879  19.776  12.365
72159W        W44419  12.284  12.220   1.709
72160W        W44420  10.905  27.803  12.406
72161W        W44421  38.896  38.019  13.352
72162W        W44422   4.659  44.826  11.714
72163W        W44423  25.156  21.502  13.697
72164W        W44424  37.588  28.719  12.644
72165W        W44425  31.123  13.337  11.957
72166W        W44426   2.540  40.525   2.607
72167W        W44427  21.903  17.521  12.004
72168W        W44428  29.421  20.471  14.426
72169W        W44429  14.030  41.390  12.944
72170W        W44430  13.357  36.899  10.713
72171W        W44431  19.473   2.877  10.663
72172W        W44432  20.766  12.265  13.970
72173W        W44433  38.298  38.872   2.866
72174W        W44434  32.643  35.604   4.539
72175W        W44435  25.121  36.609   2.764
72176W        W44436  33.073  19.597   3.655
72177W        W44437  11.421   1.967   3.134
72178W        W44438  36.522   8.043  12.923
72179W        W44439  33.469  44.279  14.896
72180W        W44440  44.318  21.726  12.314
72181W        W44441  39.362   0.314  11.870
72182W        W44442   5.744   0.225  13.886
72183W        W44443  11.144  10.315  14.322
72184W        W44444  34.393  18.157  13.500
72185W        W44445  38.357  18.999  14.989
72186W        W44446  33.017  40.349   4.759
72187W        W44447  34.534   8.859  12.068
72188W        W44448  22.762   0.842   3.227
72189W        W44449  42.472  38.196   0.311
72190W        W44450  14.073  25.617  11.498
72191W        W44451  38.075  27.018   4.660
72192W        W44452  19.208  42.488   0.733
72193W        W44453  24.642  15.617   0.456
72194W        W44454  20.145  24.260  11.557
72195W        W44455  37.784  41.026   1.678
72196W        W44456  39.987  18.569  10.596
72197W        W44457   2.385  37.848  12.444
72198W        W44458   5.907  19.895   3.569
72199W        W44459  11.617  28.212   2.721
72200W        W44460  30.993  40.751  13.547
72201W        W44461  26.641   5.624   2.853
72202W        W44462  11.406  25.942   0.888
72203W        W44463   7.988  44.800  14.483
72204W        W44464  29.396  40.034  14.783
72205W        W44465   3.195  29.944  13.055
72206W        W44466  39.325  27.501   3.324
72207W        W44467  34.787  39.501  11.901
72208W        W44468  25.214  34.502  14.384
72209W        W44469  18.730  17.087   4.999
72210W        W44470  23.013  22.613   3.482
72211W        W44471  19.469   9.140  13.085
72212W        W44472  29.269   1.001   4.152
72213W        W44473  29.929  34.375  11.996
72214W        W44474   6.212  30.068  13.962
72215W        W44475  31.240  22.255   1.587
72216W        W44476  38.989   2.474   1.991
72217W        W44477  12.820  20.092   3.268
72218W        W44478   3.430   8.447  13.100
72219W        W44479  33.390   8.142   2.771
72220W        W44480  41.837  32.354   4.138
72221W        W44481  41.738   5.680  12.944
72222W        W44482  21.482   8.685  12.947
72223W        W44483  41.316   4.769   0.518
72224W        W44484  34.658   2.082   4.158
72225W        W44485  27.229   2.738  14.069
72226W        W44486   5.395  40.537   0.762
72227W        W44487  41.114  37.956   3.835
72228W        W44488   0.650   2.331   2.779
72229W        W44489  16.757  23.018   1.921
72230W        W44490  26.107  34.635  12.582
72231W        W44491  18.156  27.437  11.861
72232W        W44492  14.339  10.137  13.024
72233W        W44493  31.136   3.213   1.447
72234W        W44494  44.421  34.895   2.257
72235W        W44495  18.624  24.983   2.374
72236W        W44496   5.895  28.194  12.061
72237W        W44497   0.741   2.414   1.831
72238W        W44498  37.470  43.433   2.705
72239W        W44499   4.403  26.524  13.461
72240W        W44500   0.810   1.651  14.680
72241W        W44501  22.557  12.984  10.066
72242W        W44502  10.452  11.944  12.119
72243W        W44503  13.811  12.753   1.441
72244W        W44504   2.488  28.936   4.867
72245W        W44505   3.957  14.135  13.973
72246W        W44506  18.689  41.120   2.318
72247W        W44507  29.110  34.995   3.620
72248W        W44508  37.633   4.043  13.191
72249W        W44509  35.197  30.898  11.443
72250W        W44510  34.289  20.307  13.963
72251W        W44511  42.599  16.727   1.844
72252W        W44512  24.010  22.659  14.041
72253W        W44513  25.450   2.739  11.929
72254W        W44514  18.670  14.876   3.099
72255W        W44515  36.555  33.945  11.127
72256W        W44516  29.003  21.718  10.902
72257W        W44517   7.173  38.564  14.450
72258W        W44518   4.130  40.078   0.540
72259W        W44519  29.110  27.119  14.901
72260W        W44520  37.369  38.359  14.888
72261W        W44521  40.977  30.078  11.611
72262W        W44522  33.465   9.881   3.262
72263W        W44523  42.927  28.915   1.313
72264W        W44524  34.684  11.138   2.199
72265W        W44525  10.235   4.851   1.406
72266W        W44526  36.925  22.497   1.714
72267W        W44527   7.411  16.741  11.872
72268W        W44528   7.513  29.784   4.606
72269W        W44529  25.807  32.814   0.080
72270W        W44530   2.891  30.378   4.972
72271W        W44531   5.110  23.145  12.465
72272W        W44532   3.756  20.455   0.440
72273W        W44533  30.161  18.263  11.824
72274W        W44534  10.643  40.481  12.605
72275W        W44535   3.739   6.245  12.019
72276W        W44536  12.136  12.151  14.388
72277W        W44537  14.615  25.015  12.008
72278W        W44538   3.551   3.683   5.058
72279W        W44539  11.211   8.629   0.051
72280W        W44540  27.672  31.126  11.583
72281W        W44541  14.621  20.451   0.443
72282W        W44542   4.162  24.289   4.595
72283W        W44543  38.519  24.031  12.536
72284W        W44544   3.020   6.780   4.104
72285W        W44545  13.023  40.363  11.104
72286W        W44546  15.214  17.072  12.659
72287W        W44547  10.115  43.310   3.252
72288W        W44548  16.580  41.687   0.605
72289W        W44549  22.280  43.882   2.383
72290W        W44550  42.149  31.422   1.189
72291W        W44551  40.761   8.710   3.662
72292W        W44552   1.237  35.061   4.971
72293W        W44553  44.277   4.693   0.976
72294W        W44554   8.177   8.471   3.647
72295W        W44555  39.519  20.195  12.337
72296W        W44556  42.968  25.437  13.576
72297W        W44557   3.816  35.148  12.712
72298W        W44558  40.062  23.403   4.194
72299W        W44559   6.104  38.871   3.502
72300W        W44560  38.858  22.147   2.424
72301W        W44561  22.190  11.409   2.725
72302W        W44562  21.568   1.947   1.183
72303W        W44563  40.942  28.213   3.227
72304W        W44564  43.313   7.615  13.426
72305W        W44565  21.008  41.000  14.887
72306W        W44566  36.364  14.360  14.572
72307W        W44567  10.336  16.096   2.901
72308W        W44568  26.124  15.808  13.221
72309W        W44569   2.391  27.964   1.842
72310W        W44570  26.018  22.757   2.934
72311W        W44571  39.055  44.861   5.109
72312W        W44572   3.535   8.783  13.481
72313W        W44573  22.107   7.437   1.853
72314W        W44574  33.067  23.765   4.434
72315W        W44575  15.241  38.571  11.130
72316W        W44576  31.648  12.793  14.905
72317W        W44577  17.087   7.269   9.957
72318W        W44578  15.725  35.406  11.415
72319W        W44579  14.800   4.336  10.991
72320W        W44580  11.082  35.981  13.163
72321W        W44581   6.196  14.305  11.548
72322W        W44582  44.653  21.750   0.750
72323W        W44583  16.143  29.968   1.371
72324W        W44584  18.698  30.161   3.749
72325W        W44585  30.646   9.736  11.673
72326W        W44586  24.379  37.234   0.066
72327W        W44587  34.319  43.742   2.175
72328W        W44588   3.703  19.002  12.965
72329W        W44589  31.963  17.025  11.480
72330W        W44590  32.690  36.501  14.334
72331W        W44591  44.267   2.488  14.404
72332W        W44592  42.559   7.885  12.987
72333W        W44593  19.581  44.014  13.376
72334W        W44594  21.696  11.772   2.728
72335W        W44595  21.632  19.506   2.786
72336W        W44596  25.395  29.605   0.542
72337W        W44597  17.562  39.052  14.367
72338W        W44598   0.900   1.659  12.564
72339W        W44599  37.359  39.503   2.083
72340W        W44600  21.865   5.338   0.831
72341W        W44601  39.552  31.003   3.178
72342W        W44602  35.838  38.039   3.330
72343W        W44603  30.754  14.347   5.073
72344W        W44604  15.916  17.942  10.032
72345W        W44605   4.411  43.913  14.962
72346W        W44606  35.061  28.625  14.296
72347W        W44607  43.870  43.896  11.568
72348W        W44608  41.320  36.192  10.512
72349W        W44609  18.026  16.671  11.653
72350W        W44610  36.069  20.711  14.995
72351W        W44611   4.253  14.591   3.677
72352W        W44612  37.936  43.567   4.830
72353W        W44613  13.778  27.747  14.727
72354W        W44614  40.993  14.834  13.316
72355W        W44615  40.689  15.796   3.259
72356W        W44616  27.503  25.717  12.469
72357W        W44617  39.344   8.125  10.226
72358W        W44618  21.156  20.641   2.233
72359W        W44619   9.704  32.815  14.090
72360W        W44620  27.788  32.014   2.385
72361W        W44621  13.630  16.797  12.304
72362W        W44622  28.335  36.949   0.968
72363W        W44623  41.512  37.045  12.477
72364W        W44624  27.949  25.675   2.365
72365W        W44625  36.620   8.933  12.630
72366W        W44626  28.836  28.237  13.005
72367W        W44627   9.932  17.224   3.965
72368W        W44628  41.954  43.729  12.992
72369W        W44629  29.400  36.918   0.857
72370W        W44630  43.724  35.037   1.380
72371W        W44631  28.146  38.466   4.435
72372W        W44632  41.001  33.490  13.750
72373W        W44633   0.799  21.208   0.933
72374W        W44634  16.908   5.952   0.033
72375W        W44635  44.689  33.334  12.092
72376W        W44636   1.329  25.635   2.888
72377W        W44637  39.340  36.568  14.885
72378W        W44638   8.128  12.121   0.038
72379W        W44639  11.135  15.143  11.703
72380W        W44640  40.458  35.568   0.997
72381W        W44641  11.186  11.555   0.599
72382W        W44642   1.521  37.940  10.553
72383W        W44643  13.510  31.778  12.917
72384W        W44644  30.630  26.418  13.985
72385W        W44645  19.089   9.928  11.120
72386W        W44646  26.782   7.369   0.806
72387W        W44647   7.307  34.083  14.556
72388W        W44648   6.262  36.295   2.806
72389W        W44649  39.614  21.176  12.398
72390W        W44650  34.085  30.171  11.590
72391W        W44651   4.829  28.616   2.792
72392W        W44652   0.875  30.263  12.557
72393W        W44653  30.362  36.722  11.140
72394W        W44654  37.884   5.790  11.515
72395W        W44655  13.174  44.852  14.458
72396W        W44656  23.029   4.119   1.711
72397W        W44657  11.147  14.229  12.037
72398W        W44658   2.052  21.170   0.132
72399W        W44659  36.912  21.738   4.810
72400W        W44660  28.887  21.462  10.466
72401W        W44661  28.195  10.869   2.402
72402W        W44662  42.449  15.888  14.934
72403W        W44663  19.607  29.915   4.198
72404W        W44664  10.446   5.162  11.665
72405W        W44665   2.481  41.773   1.711
72406W        W44666  42.101  33.361   1.321
72407W        W44667  20.561  41.376  14.020
72408W        W44668  22.221  27.970   1.386
72409W        W44669  30.615  35.944  12.112
72410W        W44670  38.040  33.441   0.184
72411W        W44671  14.359  19.177   4.474
72412W        W44672  39.355  15.451   2.296
72413W        W44673  12.019  22.838  11.180
72414W        W44674   4.492  36.137  11.133
72415W        W44675  11.810   4.405   4.146
72416W        W44676  33.600  19.548   3.572
72417W        W44677   3.365  15.769   4.174
72418W        W44678  30.712  34.262   3.229
72419W        W44679  10.571  29.308  11.138
72420W        W44680  18.861  33.107   0.312
72421W        W44681  11.944  40.789   2.705
72422W        W44682  29.980   8.379   0.433
72423W        W44683  26.184  39.096  10.098
72424W        W44684  40.130  24.210  13.376
72425W        W44685  33.618  35.963  12.387
72426W        W44686  27.582   2.549   4.541
72427W        W44687  19.685  26.739  12.651
72428W        W44688  14.810   5.359  14.288
72429W        W44689  34.151  22.564   1.470
72430W        W44690   2.309  18.270   0.256
72431W        W44691  17.784   5.439  11.239
72432W        W44692  26.557   1.984   3.889
72433W        W44693  10.079  26.320  10.245
72434W        W44694   7.371  41.561   2.109
72435W        W44695  41.841  19.239   3.869
72436W        W44696   5.365  27.589  14.663
72437W        W44697  36.097  12.229   3.189
72438W        W44698  25.678  15.687   3.681
72439W        W44699   9.871  15.403  12.468
72440W        W44700  11.912  40.385  12.016
72441W        W44701  27.426  28.896   1.309
72442W        W44702  19.581   4.380   2.693
72443W        W44703  44.640  22.190  11.622
72444W        W44704  21.424  15.001  12.302
72445W        W44705  34.617   0.031  11.675
72446W        W44706  14.057  15.294  10.626
72447W        W44707   9.148  24.743  11.589
72448W        W44708  40.134  44.408  14.455
72449W        W44709   0.842  28.960   4.412
72450W        W44710   0.115  19.400   4.513
72451W        W44711  36.935   7.864  14.347
72452W        W44712  43.997  10.860   1.458
72453W        W44713  40.746  39.879   1.623
72454W        W44714  28.574   2.258   0.580
72455W        W44715  27.003  18.142   3.384
72456W        W44716   7.334   8.335  13.998
72457W        W44717  20.745  29.396  14.455
72458W        W44718  31.909  27.730  11.912
72459W        W44719  26.279  15.769  10.924
72460W        W44720  40.514  16.016   0.686
72461W        W44721   2.891  26.998  12.944
72462W        W44722  36.382  26.334  11.235
72463W        W44723  35.498  18.982   0.506
72464W        W44724   4.258   4.748  10.696
72465W        W44725   6.287  24.198  14.029
72466W        W44726  31.435  34.895   0.706
72467W        W44727  32.137  11.820   0.846
72468W        W44728  31.621  34.866  11.595
72469W        W44729  27.378  43.507   3.288
72470W        W44730  30.918  28.883  11.547
72471W        W44731  13.217  14.583  11.625
72472W        W44732  17.570  39.057   2.668
72473W        W44733  38.728   1.228   0.161
72474W        W44734  10.831  23.049   3.649
72475W        W44735  26.239   2.017  11.510
72476W        W44736  44.799  41.874   0.347
72477W        W44737  34.552  26.556   2.685
72478W        W44738  43.549  30.902  11.176
72479W        W44739  22.753  31.205   2.129
72480W        W44740  15.700  20.537   2.768
72481W        W44741  16.822  13.492  12.628
72482W        W44742   6.826  34.804  10.547
72483W        W44743  44.015   0.448   2.720
72484W        W44744   1.372   3.030  10.722
72485W        W44745  38.936   4.451  11.578
72486W        W44746  38.272  35.270   0.488
72487W        W44747  19.076  34.677   0.561
72488W        W44748  18.392  34.099   1.033
72489W        W44749  32.111  40.028  11.475
72490W        W44750  42.886  29.288   2.365
72491W        W44751  22.210   7.359  10.605
72492W        W44752   4.132  31.120  13.944
72493W        W44753   4.517  16.367   3.630
72494W        W44754  41.504  12.828   0.595
72495W        W44755   5.723   2.390  10.731
72496W        W44756  42.922  40.821   4.473
72497W        W44757  37.894  15.669   3.193
72498W        W44758  43.817   9.360   1.164
72499W        W44759  33.953  42.963  13.849
72500W        W44760  38.903   6.913   1.718
72501W        W44761   1.715  11.405  13.634
72502W        W44762  44.330  11.519   5.269
72503W        W44763  13.814  12.141  12.084
72504W        W44764   0.281  14.750   1.935
72505W        W44765  17.537  32.942   2.915
72506W        W44766   1.403  15.635  13.025
72507W        W44767  19.829   4.555   4.660
72508W        W44768  10.768  24.272  14.899
72509W        W44769  20.083   7.841  10.687
72510W        W44770  38.431  15.537  13.493
72511W        W44771   2.299  31.869   2.722
72512W        W44772  26.348   5.186   2.778
72513W        W44773   2.444   1.922  13.629
72514W        W44774  13.515  15.331  14.742
72515W        W44775   1.739  43.344   1.191
72516W        W44776  40.380  37.120   0.532
72517W        W44777  26.113  43.309  11.234
72518W        W44778  25.326  20.345  13.600
72519W        W44779  24.091  10.919   2.926
72520W        W44780  25.421   8.757   3.565
72521W        W44781   0.677  12.241  13.216
72522W        W44782  35.732  39.920   2.794
72523W        W44783  25.902  24.919   2.312
72524W        W44784  13.264  19.769   4.474
72525W        W44785  33.313  42.069   1.961
72526W        W44786   5.222  42.218   1.729
72527W        W44787  19.827  19.493  12.906
72528W        W44788  14.515  30.810   2.292
72529W        W44789  43.743  33.609   0.446
72530W        W44790  15.112  16.012   4.508
72531W        W44791  36.540  32.435   2.317
72532W        W44792   1.285  29.700   2.784
72533W        W44793  11.602  28.968   2.292
72534W        W44794  21.295  40.864  11.643
72535W        W44795  33.284   0.929   1.021
72536W        W44796  28.977  14.512  11.412
72537W        W44797   9.221  31.349  11.132
72538W        W44798  19.471   0.248  13.912
72539W        W44799  38.490  33.314  14.939
72540W        W44800  22.643  18.477  10.215
72541W        W44801  18.621  44.082   0.772
72542W        W44802  11.882  18.656   0.995
72543W        W44803  30.920  30.026   9.768
72544W        W44804  35.675  32.952  13.852
72545W        W44805  38.566  43.373  11.541
72546W        W44806  25.474   8.833  11.881
72547W        W44807  16.311  24.004   0.910
72548W        W44808  41.792  41.893   1.829
72549W        W44809  38.428  40.774   3.040
72550W        W44810  38.975  43.684  11.571
72551W        W44811  22.581  44.957  12.955
72552W        W44812   0.782  20.471   1.478
72553W        W44813  19.363  16.673   4.239
72554W        W44814   0.046  11.923  11.210
72555W        W44815  24.290  24.012   0.862
72556W        W44816  21.487  17.861  13.374
72557W        W44817  31.953  35.091   1.477
72558W        W44818  39.460  32.229  11.919
72559W        W44819   4.046   5.427   1.957
72560W        W44820   0.924  26.808  11.922
72561W        W44821  41.723   9.539  13.469
72562W        W44822  42.579  24.615  14.435
72563W        W44823  14.643  33.272  12.660
72564W        W44824   8.296  20.721  13.514
72565W        W44825  27.454  10.587   1.251
72566W        W44826   9.106   5.264   3.251
72567W        W44827  30.065  27.597  11.512
72568W        W44828  40.520  37.023  12.507
72569W        W44829   9.898  40.040  11.601
72570W        W44830  33.898  31.449   3.605
72571W        W44831  26.942   4.893  13.457
72572W        W44832  12.705   9.240   0.434
72573W        W44833  15.591   7.230   0.393
72574W        W44834  42.504  18.140   3.130
72575W        W44835   5.323   6.796  13.473
72576W        W44836  18.168  34.699   4.086
72577W        W44837  30.302   2.996   1.614
72578W        W44838  11.615  24.477   0.499
72579W        W44839  24.122  40.513  12.500
72580W        W44840  39.589   7.642   4.118
72581W        W44841  26.194  13.050  14.506
72582W        W44842  10.416   3.635   5.151
72583W        W44843  13.472  31.097   4.093
72584W        W44844   0.378  39.970   2.184
72585W        W44845  22.019  44.999   1.809
72586W        W44846  43.901   1.475   2.788
72587W        W44847  21.527  31.056  13.616
72588W        W44848  17.867  16.919  13.002
72589W        W44849  43.940  44.487  10.478
72590W        W44850  44.218   7.184   0.747
72591W        W44851  10.860   5.382  14.759
72592W        W44852   0.441  43.410   4.710
72593W        W44853  16.637  12.113  13.375
72594W        W44854   2.287   7.152   0.319
72595W        W44855  33.559   3.785  11.717
72596W        W44856  35.082   1.721   2.349
72597W        W44857  33.463  36.851   4.533
72598W        W44858  39.002   7.361   2.427
72599W        W44859  25.682  34.939  14.826
72600W        W44860  40.264  41.669  13.455
72601W        W44861   9.460   0.552  13.504
72602W        W44862  19.967  39.211  12.603
72603W        W44863  15.019  31.136  14.220
72604W        W44864  34.196  13.143  10.729
72605W        W44865   9.152  43.463  11.383
72606W        W44866   6.121  40.517   1.347
72607W        W44867  27.286  21.544   2.667
72608W        W44868  39.721   7.208   5.134
72609W        W44869  18.233   4.371   2.086
72610W        W44870  34.669  43.518   1.793
72611W        W44871  29.492  34.424   0.404
72612W        W44872  19.028  19.445   9.922
72613W        W44873  42.304  36.129  12.068
72614W        W44874  41.911  24.571  12.626
72615W        W44875  19.202  10.061   0.293
72616W        W44876  33.136  41.843  14.239
72617W        W44877  16.339  11.182   3.331
72618W        W44878  44.936  34.673  12.284
72619W        W44879   1.669  32.700   3.239
72620W        W44880  32.583  37.499   2.079
72621W        W44881   6.908   0.531  12.322
72622W        W44882  13.986   8.020   3.990
72623W        W44883   2.015   3.313   4.529
72624W        W44884  37.633  22.972  12.020
72625W        W44885  30.262  38.037   3.979
72626W        W44886  24.643   3.442  11.210
72627W        W44887  24.677  14.272  14.353
72628W        W44888  37.548  13.590  14.767
72629W        W44889  14.675  23.101   0.715
72630W        W44890  42.260  43.974   1.498
72631W        W44891  24.001  24.897   1.272
72632W        W44892   4.541   7.181  11.632
72633W        W44893  18.491  17.977  13.605
72634W        W44894  29.664  33.008   0.014
72635W        W44895  44.482  35.581   2.962
72636W        W44896  41.889  36.977  10.730
72637W        W44897  40.344  42.896   2.653
72638W        W44898  23.625  39.002  14.006
72639W        W44899   2.492  35.627   0.459
72640W        W44900  40.031  38.424   3.270
72641W        W44901  12.301  12.163  11.594
72642W        W44902   3.722  20.282  11.967
72643W        W44903  17.034   0.469  13.013
72644W        W44904  18.264   0.369   3.251
72645W        W44905  27.563   9.064  10.101
72646W        W44906  20.475  34.400   2.410
72647W        W44907  35.130  11.933  14.685
72648W        W44908   1.349   5.571   2.601
72649W        W44909  33.974  43.931  13.797
72650W        W44910  42.325  20.573   1.577
72651W        W44911  32.403  23.275   2.451
72652W        W44912  34.702  22.701  13.000
72653W        W44913   5.883   0.952   4.985
72654W        W44914  34.476  35.522  13.045
72655W        W44915  10.685  26.245  11.942
72656W        W44916  26.494  19.832   1.752
72657W        W44917  32.080   8.447  11.028
72658W        W44918  10.839   5.635  12.592
72659W        W44919  20.082  31.543  12.136
72660W        W44920  42.390  31.596  13.547
72661W        W44921   0.332  32.685   1.366
72662W        W44922   9.286  27.998  14.513
72663W        W44923   3.352  10.305  13.422
72664W        W44924  41.893  18.941  13.504
72665W        W44925  29.652  38.560   4.506
72666W        W44926   8.491  10.657   4.062
72667W        W44927   6.230  38.414   3.258
72668W        W44928  28.628   4.450  10.931
72669W        W44929   5.284   7.665  12.293
72670W        W44930  31.184  14.305  14.002
72671W        W44931  21.789  20.278   1.488
72672W        W44932  42.023   7.852  12.107
72673W        W44933  33.362  25.927  10.793
72674W        W44934  31.399  30.676   1.936
72675W        W44935  22.600  23.477  10.312
72676W        W44936  12.640  44.783   4.608
72677W        W44937  44.814  32.033   2.410
72678W        W44938  13.634  24.463   3.284
72679W        W44939   5.292  42.513   2.730
72680W        W44940  34.220  18.718   2.042
72681W        W44941  39.754  16.518   0.330
72682W        W44942  42.764  23.284  11.507
72683W        W44943   2.762  11.095   2.622
72684W        W44944   8.986  31.753   0.789
72685W        W44945  37.459  42.353   4.340
72686W        W44946  17.932  14.515  12.536
72687W        W44947  37.454  36.098   0.076
72688W        W44948   2.282  38.969  10.727
72689W        W44949   6.265  29.932  12.789
72690W        W44950  35.552   6.883  14.372
72691W        W44951  28.640   9.635   0.383
72692W        W44952  10.314   2.953  13.833
72693W        W44953   6.706   5.580  12.153
72694W        W44954  37.344  30.654  12.982
72695W        W44955   7.944  20.208  14.398
72696W        W44956  19.241  23.621   2.441
72697W        W44957  25.663   5.791   2.852
72698W        W44958   2.024  23.708   4.196
72699W        W44959   0.781  35.927  13.044
72700W        W44960   8.721  44.053   3.667
72701W        W44961  35.081  12.071  10.798
72702W        W44962  33.378   9.833  14.419
72703W        W44963  36.962  22.517  14.356
72704W        W44964  24.850  32.735  13.290
72705W        W44965  25.106  26.392   4.683
72706W        W44966  18.661   9.466   4.164
72707W        W44967   9.387  11.800  12.874
72708W        W44968  42.471  40.462  14.730
72709W        W44969   0.850  13.084  10.547
72710W        W44970  13.555  17.337  14.408
72711W        W44971  12.121  22.567  14.048
72712W        W44972  11.909  14.591   4.913
72713W        W44973   5.016  18.024   1.199
72714W        W44974  16.753  14.180   2.781
72715W        W44975  24.508  17.081   4.354
72716W        W44976  39.516   3.879   0.278
72717W        W44977   2.238  28.073  13.840
72718W        W44978   6.252  37.908   3.303
72719W        W44979  15.930  17.059  11.935
72720W        W44980  19.579  44.385   3.454
72721W        W44981  12.443   8.295  12.966
72722W        W44982  16.483   7.187   2.864
72723W        W44983  39.122  15.590  13.852
72724W        W44984  18.359  28.802  10.167
72725W        W44985  22.034  40.874  14.767
72726W        W44986  39.211   2.247   4.556
72727W        W44987  18.873  17.147   3.197
72728W        W44988  20.179  32.584  10.731
72729W        W44989  39.234  28.979  14.580
72730W        W44990  20.642  36.066   2.890
72731W        W44991  16.548  42.863   2.816
72732W        W44992  43.965  21.660  11.943
72733W        W44993  30.988  35.076   0.933
72734W        W44994   9.895  33.905   3.587
72735W        W44995  40.351   2.572  11.900
72736W        W44996  28.946   7.846   0.851
72737W        W44997  24.171  19.350  13.012
72738W        W44998  42.799   1.898  10.523
72739W        W44999  12.311  17.582  12.874
72740W        W45000  38.068  16.809  14.404
72741W        W45001   9.221   8.743   0.836
72742W        W45002   9.265   8.090  11.583
72743W        W45003   3.016  12.317   0.201
72744W        W45004  34.478  22.618  13.500
72745W        W45005  26.800  18.521   1.363
72746W        W45006   8.658   9.262  13.288
72747W        W45007  34.830  35.875  12.867
72748W        W45008  19.609  42.508   4.735
72749W        W45009  35.713   9.775  11.517
72750ION    NA+45010  24.808   8.513   4.164
72751ION    NA+45011   9.938  10.934  10.719
72752ION    NA+45012  19.287  35.581  14.481
72753ION    NA+45013  19.589   3.657  11.250
72754ION    NA+45014  44.442  12.381   0.662
72755ION    NA+45015  28.064  43.270   2.187
72756ION    NA+45016  10.455  10.175  11.115
72757ION    NA+45017  29.575  21.014   3.196
72758ION    NA+45018   2.930  33.286   1.281
72759ION    NA+45019  10.366  36.798   2.575
72760ION    NA+45020   2.433   1.662  14.105
72761ION    NA+45021  18.707  43.035  13.261
72762ION    NA+45022  11.387   3.326  10.429
72763ION    NA+45023   2.163   6.837  12.581
72764ION    NA+45024  35.880   9.423  11.141
72765ION    NA+45025  12.888  23.051   1.918
72766ION    NA+45026  30.207  43.485   4.330
72767ION    NA+45027  39.381  19.498  11.011
72768ION    NA+45028   8.304  30.268   0.058
72769ION    NA+45029  32.483   1.156   4.165
72770ION    NA+45030  22.869  11.755  11.362
72771ION    NA+45031  37.024  42.361   0.323
72772ION    NA+45032  26.752  17.300   3.307
72773ION    NA+45033  20.080  16.881   1.559
72774ION    NA+45034  31.828  17.832  12.827
72775ION    NA+45035   2.071   0.757  12.117
72776ION    NA+45036  10.768  38.810  14.689
72777ION    NA+45037   0.804   3.727  12.534
72778ION    NA+45038  23.672  42.949   1.063
72779ION    NA+45039  25.187  15.617  12.046
72780ION    NA+45040   1.116  36.536   1.617
72781ION    NA+45041  11.638  12.050  11.784
72782ION    NA+45042  17.052  39.245  10.143
72783ION    NA+45043   2.526  39.098  10.272
72784ION    NA+45044   7.441   4.928  13.476
72785ION    NA+45045  14.940   3.235  13.609
72786ION    NA+45046   7.243  33.195  12.465
72787ION    NA+45047   2.251  10.518   0.387
72788ION    NA+45048  39.642  36.626   2.346
72789ION    NA+45049   6.713  20.209   4.530
72790ION    NA+45050  35.170  10.694  12.452
72791ION    NA+45051   7.325  22.725   3.990
72792ION    NA+45052  41.738  41.312   0.930
72793ION    NA+45053  43.790  14.883   2.914
72794ION    NA+45054  38.862  35.875   2.479
72795ION    NA+45055  41.965  21.065  14.371
72796ION    NA+45056  28.551  17.420   1.980
72797ION    NA+45057   1.139  32.252   1.640
72798ION    NA+45058   7.829  41.327  12.286
72799ION    NA+45059  31.074  26.097   4.663
72800ION    NA+45060  31.896  32.893   1.640
72801ION    NA+45061   6.653  20.459   3.557
72802ION    NA+45062   5.486  21.041   2.291
72803ION    NA+45063  15.159  37.583   4.112
72804ION    NA+45064  44.584  28.758   4.112
72805ION    NA+45065  21.965  35.559  13.484
72806ION    NA+45066   3.033  21.058   0.450
72807ION    NA+45067   2.692   0.608   2.427
72808ION    NA+45068  34.444   7.467   2.831
72809ION    NA+45069  40.287  12.928  14.365
72810ION    NA+45070   7.205  40.033  12.563
72811ION    NA+45071  17.795  10.901  13.047
72812ION    NA+45072  20.141   4.193  11.889
72813ION    NA+45073  38.892  28.254  11.505
72814ION    NA+45074  27.767  37.721   1.690
72815ION    NA+45075  40.176  33.041  12.150
72816ION    NA+45076  31.849  35.558   4.665
72817ION    NA+45077   1.312  40.121   4.016
72818ION    NA+45078   3.251   4.394  10.523
72819ION    NA+45079   0.456  29.202  11.649
72820ION    NA+45080  21.373  16.721   2.461
72821ION    NA+45081  21.057  38.554   2.562
72822ION    NA+45082  14.387  28.614  11.843
72823ION    NA+45083  18.860  16.217   2.099
72824ION    NA+45084  36.394  28.150   2.441
72825ION    NA+45085  21.490  36.940  12.336
72826ION    NA+45086  33.011  20.919   0.783
72827ION    NA+45087  31.465  31.034   1.177
72828ION    NA+45088  31.889  40.161   1.528
72829ION    NA+45089  43.753  34.135   0.433
72830ION    NA+45090  30.969  37.516  14.058
72831ION    NA+45091  27.455  16.233   2.607
72832ION    NA+45092  15.599  40.643  13.417
72833ION    NA+45093  13.041  39.912   0.567
72834ION    NA+45094  13.376  40.149   1.479
72835ION    NA+45095  17.778  18.774  14.470
72836ION    NA+45096   0.664  18.415  11.200
72837ION    NA+45097   2.721  17.122  12.338
72838ION    NA+45098  32.829  22.479  12.611
72839ION    NA+45099  18.809   0.255  12.472
72840ION    NA+45100   8.847   7.419   3.135
72841ION    NA+45101   7.854  31.078  12.188
72842ION    NA+45102   3.002  14.855   3.864
72843ION    NA+45103  44.221   0.586  11.100
72844ION    NA+45104  22.792   6.377  13.465
72845ION    NA+45105  16.956  44.987  10.338
72846ION    NA+45106  21.982  30.282  14.664
72847ION    NA+45107   0.827   1.326   3.638
72848ION    NA+45108  42.883  37.744   1.356
72849ION    NA+45109  22.460  23.134  13.925
72850ION    NA+45110  29.732  21.037  13.910
72851ION    NA+45111   5.211  17.066  13.629
72852ION    NA+45112   4.568  37.655   4.673
72853ION    NA+45113  17.467  24.834   3.254
72854ION    NA+45114  29.891   6.070   4.612
72855ION    NA+45115  14.390  11.851   1.840
72856ION    NA+45116  39.921  25.947  13.804
72857ION    NA+45117  22.554   6.461   3.651
72858ION    NA+45118  27.350   4.021   2.136
72859ION    NA+45119  40.563  38.431  11.543
72860ION    NA+45120  28.627  35.729   3.317
72861ION    NA+45121  43.779  16.519  11.313
72862ION    NA+45122  21.262  34.827  14.927
72863ION    NA+45123  23.309   4.694   1.417
72864ION    NA+45124  30.067   7.666  11.989
72865ION    NA+45125  10.481  28.734  12.750
72866ION    NA+45126  15.067  40.291  12.647
72867ION    NA+45127  38.255  44.495   3.231
72868ION    NA+45128   2.066   4.243   3.834
72869ION    NA+45129  33.682   2.483  12.446
72870ION    NA+45130   2.943  30.035   3.410
72871ION    NA+45131   9.582  27.692   1.726
72872ION    NA+45132  35.556   0.370  13.794
72873ION    NA+45133  43.518  13.584   2.604
72874ION    NA+45134   1.200  44.860   3.877
72875ION    NA+45135  26.875  26.408   4.069
72876ION    NA+45136   0.741  20.953   0.468
72877ION    NA+45137   3.427  39.426   1.357
72878ION    NA+45138  12.198   9.881   3.809
72879ION    NA+45139  21.858   0.198   3.526
72880ION    NA+45140  22.851  20.972  10.754
72881ION    NA+45141   9.109   3.756  13.438
72882ION    NA+45142  24.023  31.642   1.882
72883ION    NA+45143  41.508  29.896  10.962
72884ION    NA+45144  15.891  17.778   2.806
72885ION    NA+45145  12.174  17.094   2.128
72886ION    NA+45146  38.482   8.440   0.658
72887ION    NA+45147  37.052   3.875  14.326
72888ION    NA+45148  38.658  14.349   1.635
72889ION    NA+45149  40.752  28.711   2.995
72890ION    NA+45150   8.288  35.971   2.168
72891ION    NA+45151  27.251  15.050   4.690
72892ION    NA+45152  38.904   6.904  13.832
72893ION    NA+45153  30.338  19.337   0.318
72894ION    NA+45154  38.182  34.437   0.926
72895ION    NA+45155  21.956  32.462  11.586
72896ION    NA+45156   0.875   1.523  10.643
72897ION    NA+45157   6.038  42.999   4.733
72898ION    NA+45158  18.650  23.145   5.066
72899ION    NA+45159   5.584  41.835  11.122
72900ION    NA+45160  22.770  38.546   1.080
72901ION    NA+45161  20.823  19.198   3.216
72902ION    NA+45162   7.034  13.156  12.099
72903ION    NA+45163  29.981  26.802  12.787
72904ION    NA+45164  28.221  44.418   1.287
72905ION    NA+45165  21.630  38.550  11.921
72906ION    NA+45166  26.056  27.084  12.956
72907ION    NA+45167  21.835  28.314  10.654
72908ION    NA+45168  18.187  22.341   2.657
72909ION    NA+45169  36.203  30.482  14.017
72910ION    NA+45170  42.458  41.205   0.208
72911ION    NA+45171   1.145  39.382  12.375
72912ION    NA+45172   8.793  32.687   0.300
72913ION    NA+45173  22.880  41.722   9.869
72914ION    NA+45174  19.266   1.249  13.616
72915ION    NA+45175  27.367  31.454  10.045
72916ION    NA+45176  43.338  30.879   3.624
72917ION    NA+45177  33.835  11.799  14.736
72918ION    NA+45178  36.144   3.982  11.369
72919ION    NA+45179  10.708  20.184   0.709
72920ION    NA+45180  29.390  43.131   4.153
72921ION    NA+45181  40.357  40.457   4.624
72922ION    NA+45182   0.576   7.882   4.513
72923ION    NA+45183  22.952   2.735  10.756
72924ION    NA+45184  30.689   6.213  12.898
72925ION    NA+45185   9.523  43.649  14.879
72926ION    NA+45186   6.165  26.159   3.354
72927ION    NA+45187  28.802  12.166   3.740
72928ION    NA+45188  26.614  10.158  11.183
72929ION    NA+45189  33.367  20.086   0.336
72930ION    NA+45190  26.675  31.006   4.361
72931ION    NA+45191   8.753   8.759   2.840
72932ION    NA+45192  33.954  22.356   3.069
72933ION    NA+45193  19.408  35.051  12.871
72934ION    NA+45194  14.099  38.661  14.794
72935ION    NA+45195  37.134  41.135  10.796
72936ION    NA+45196  24.727   9.283   3.712
72937ION    NA+45197   0.582  41.473   5.017
72938ION    NA+45198  32.451   2.351   2.087
72939ION    NA+45199   1.564   6.276   4.322
72940ION    NA+45200  20.239  27.411  13.918
72941ION    NA+45201  20.774  30.449  11.359
72942ION    NA+45202  35.852  28.573   1.070
72943ION    NA+45203  27.734  27.171  13.058
72944ION    NA+45204   4.876  24.577  14.600
72945ION    NA+45205  15.318  33.688   2.542
72946ION    NA+45206  33.797  27.509  10.233
72947ION    NA+45207   5.685   8.568   1.745
72948ION    NA+45208  14.141  42.086  14.055
72949ION    NA+45209  39.064  28.631  14.937
72950ION    NA+45210   1.666  12.896   3.604
72951ION    NA+45211  32.384  31.228   0.833
72952ION    NA+45212  42.961   0.452  14.032
72953ION    NA+45213  28.670  23.903   4.039
72954ION    NA+45214  38.961  31.635   2.155
72955ION    NA+45215  29.920  19.734   3.687
72956ION    NA+45216  20.720  26.938  10.911
72957ION    NA+45217  35.845  15.968   2.006
72958ION    NA+45218  23.520  31.037  10.065
72959ION    NA+45219  40.624  36.812   2.390
72960ION    NA+45220  41.581  44.816  10.977
72961ION    NA+45221  10.754  30.577   4.201
72962ION    NA+45222  35.975  11.932  14.703
72963ION    NA+45223  14.539  12.280   4.233
72964ION    NA+45224  36.323  34.898  13.892
72965ION    NA+45225  16.254   3.487  10.748
72966ION    NA+45226  44.387  28.256   0.863
72967ION    NA+45227   0.767  41.242   0.942
72968ION    NA+45228  16.848  40.753   4.656
72969ION    NA+45229  12.232   9.477  11.144
72970ION    NA+45230  12.524  20.192  10.477
72971ION    NA+45231   1.825  32.861   3.723
72972ION    NA+45232  25.929  22.113  14.879
72973ION    NA+45233  18.443  33.949   5.133
72974ION    NA+45234  37.668  32.878  14.526
72975ION    NA+45235  15.455  38.392  13.307
72976ION    NA+45236   6.297  43.851  12.956
72977ION    NA+45237  26.576  14.379   0.743
72978ION    NA+45238  28.700   5.435  13.241
72979ION    NA+45239  10.816  21.787   0.547
72980ION    NA+45240   6.494   3.565   2.195
72981ION    NA+45241   8.335  13.866  11.117
72982ION    NA+45242  39.072  17.795  11.959
72983ION    NA+45243  29.326   1.733  12.114
72984ION    NA+45244  15.200   9.355  12.217
72985ION    NA+45245  27.456  35.146   2.490
72986ION    NA+45246   4.224   6.727   2.718
72987ION    NA+45247  31.947  18.793   0.454
72988ION    NA+45248  14.716   8.611   2.134
72989ION    NA+45249  38.122   1.873   5.435
72990ION    NA+45250  29.701  20.982  11.225
72991ION    NA+45251  29.228  19.985  13.050
72992ION    NA+45252  40.211  15.826  12.040
72993ION    NA+45253   9.651  17.741  10.517
72994ION    NA+45254  43.007  17.138  14.460
72995ION    NA+45255  11.757  32.486   3.789
72996ION    NA+45256  30.256  20.974   2.465
72997ION    NA+45257  13.183   9.045   0.700
72998ION    NA+45258  34.072  11.820  10.305
72999ION    NA+45259  37.386  29.617   3.237
73000ION    NA+45260  20.343  24.569  10.681
73001ION    NA+45261  20.935   0.344  12.049
73002ION    NA+45262  42.384  14.149   1.307
73003ION    NA+45263   5.164  13.857   2.344
73004ION    NA+45264  11.071   1.658  12.059
73005ION    NA+45265  19.155  22.547  11.523
73006ION    NA+45266  30.177  15.523   1.494
73007ION    NA+45267  18.172  25.734  14.455
73008ION    NA+45268   0.274  41.214  13.299
73009ION    NA+45269  31.646  32.170   1.144
73010ION    NA+45270  13.093   1.992   2.641
73011ION    NA+45271  38.508  40.069   4.626
73012ION    NA+45272  35.183   1.797   1.618
73013ION    NA+45273  17.779  26.212  11.880
73014ION    NA+45274  28.185  31.403  11.078
73015ION    NA+45275  14.101  29.975  14.495
73016ION    NA+45276   3.398  23.749   3.783
73017ION    NA+45277  23.390  43.001  13.667
73018ION    NA+45278  24.326  12.739  14.379
73019ION    NA+45279   7.107   9.703  10.832
73020ION    NA+45280   4.400   5.055  13.330
73021ION    NA+45281  20.918  43.323   2.952
73022ION    NA+45282  11.697  22.525  10.161
73023ION    NA+45283  25.997   5.015   1.642
73024ION    NA+45284  18.030  31.288  13.272
73025ION    NA+45285  12.491  35.630  13.718
73026ION    NA+45286   6.693  24.091   1.713
73027ION    NA+45287  23.092  11.481   2.674
73028ION    NA+45288  19.425  31.942   5.295
73029ION    NA+45289  25.912   1.441  14.169
73030ION    NA+45290  27.933  25.011   1.736
73031ION    NA+45291   8.478  31.835   0.720
73032ION    NA+45292  22.764  18.273   0.735
73033ION    NA+45293   3.160  17.948   4.357
73034ION    NA+45294  41.053   0.563  11.665
73035ION    NA+45295  19.420  24.976  12.437
73036ION    NA+45296  42.802  28.492   5.016
73037ION    NA+45297  18.663  33.890  13.343
73038ION    NA+45298  24.777  12.686   3.914
73039ION    NA+45299   0.356  18.522   4.501
73040ION    NA+45300   7.221  10.671  14.505
73041ION    NA+45301  36.160  17.717  13.602
73042ION    NA+45302  30.814   5.698   4.714
73043ION    NA+45303  14.934  23.097   3.670
73044ION    NA+45304  25.234   1.523  13.437
73045ION    NA+45305  12.633  12.394   3.324
73046ION    NA+45306  23.513   8.102  11.421
73047ION    NA+45307  44.405  26.449  13.539
73048ION    NA+45308   8.892  31.023  12.927
73049ION    NA+45309  19.281  12.905  10.570
73050ION    NA+45310  15.428  43.852  12.633
73051ION    NA+45311  34.152  14.641   0.087
73052ION    NA+45312  21.396  21.340   2.727
73053ION    NA+45313   0.234  12.599   3.287
73054ION    NA+45314  37.869  19.078  11.682
73055ION    NA+45315  28.357  22.026   1.263
73056ION    NA+45316  21.383  15.379   2.259
73057ION    NA+45317   9.510  33.963  10.678
73058ION    NA+45318   2.261  14.262   3.549
73059ION    NA+45319  12.774  21.834   4.671
73060ION    NA+45320  17.243  39.056   1.742
73061ION    NA+45321  15.661  21.728  13.073
73062ION    NA+45322  10.655  42.397   0.748
73063ION    NA+45323  37.189  34.644   1.047
73064ION    NA+45324  17.230  30.940   2.636
73065ION    NA+45325  25.016  25.824   1.220
73066ION    NA+45326   7.668  23.763   2.539
73067ION    NA+45327  38.952  11.575  14.287
73068ION    NA+45328  12.783  42.732   1.817
73069ION    NA+45329  27.067  19.732   0.801
73070ION    NA+45330  39.518  22.416   0.131
73071ION    NA+45331  18.873   5.186  13.371
73072ION    NA+45332  29.105   5.170  10.739
73073ION    NA+45333  34.065  14.828  10.788
73074ION    NA+45334  16.686  29.847  12.046
73075ION    NA+45335   6.706   6.368  13.290
73076ION    NA+45336   4.707  26.270   2.753
73077ION    NA+45337   1.063  32.450   2.517
73078ION    NA+45338  41.036  43.028   2.886
73079ION    NA+45339  40.599  24.505  11.099
73080ION    NA+45340  39.912  25.240   3.382
73081ION    NA+45341  35.351  26.777  10.704
73082ION    NA+45342  22.187  43.831   2.892
73083ION    NA+45343  18.387   3.006  13.098
73084ION    NA+45344  13.300  11.291  14.379
73085ION    NA+45345  44.379   8.235   2.711
73086ION    NA+45346   0.638  14.298  14.721
73087ION    NA+45347   1.242  20.253  13.013
73088ION    NA+45348  38.223  26.858  12.639
73089ION    NA+45349   4.420  10.248   4.268
73090ION    NA+45350  36.081  19.329  12.698
73091ION    NA+45351  10.414  17.557  11.189
73092ION    NA+45352  15.693  27.934   1.816
73093ION    NA+45353  20.322  31.066  12.661
73094ION    NA+45354  14.561  30.413  12.562
73095ION    NA+45355   7.660  41.503   0.324
73096ION    NA+45356   2.145   5.430   1.945
73097ION    NA+45357  39.829  39.083   2.832
73098ION    NA+45358   0.251  44.810   3.633
73099ION    NA+45359  30.661  16.998   3.649
73100ION    NA+45360  25.697  21.345   1.819
73101ION    NA+45361  18.050   4.512  12.779
73102ION    NA+45362  10.945  14.990   2.662
73103ION    NA+45363  13.599  13.368  11.494
73104ION    NA+45364  13.651  35.009   2.893
73105ION    NA+45365  24.334  44.843   2.421
73106ION    NA+45366   2.190  14.625  13.582
73107ION    NA+45367  30.080   7.940   1.831
73108ION    NA+45368  42.903   1.507  12.661
73109ION    NA+45369   1.341  34.873  11.945
73110ION    NA+45370  25.292  44.973   3.250
73111ION    NA+45371  38.425   0.261  12.163
73112ION    NA+45372  25.391  22.214   4.563
73113ION    NA+45373  33.975  24.209  14.973
73114ION    NA+45374  32.416  36.913  12.602
73115ION    NA+45375  15.306  27.736   3.794
73116ION    NA+45376  12.603   0.175   0.277
73117ION    NA+45377  24.999  29.365  12.593
73118ION    NA+45378  28.925  44.803   0.860
73119ION    NA+45379  27.992  12.604   1.670
73120ION    NA+45380  27.584  35.458  13.830
73121ION    NA+45381   1.254  17.661  12.848
73122ION    NA+45382  14.558  44.466  12.364
73123ION    NA+45383   2.327  22.859  14.083
73124ION    NA+45384   5.722  14.203   3.578
73125ION    NA+45385  15.168  28.424  14.055
73126ION    NA+45386  11.179  11.118   0.308
73127ION    NA+45387   2.687  32.258   1.257
73128ION    NA+45388  27.667  36.447   4.171
73129ION    NA+45389  18.323  15.129   4.161
73130ION    NA+45390  34.930  25.774   3.129
73131ION    NA+45391  18.126  24.162   2.121
73132ION    NA+45392  22.272  31.509   2.720
73133ION    NA+45393  34.562  11.503   0.355
73134ION    NA+45394   1.933  35.488   1.308
73135ION    NA+45395  13.657   0.316   2.661
73136ION    NA+45396  24.595  17.369  13.657
73137ION    NA+45397  16.615  34.505  13.926
73138ION    NA+45398   1.728  40.825   0.697
73139ION    NA+45399  41.409  19.989  12.639
73140ION    NA+45400  18.729   4.265   1.172
73141ION    NA+45401  42.906  17.312   3.010
73142ION    NA+45402  30.395  24.929   1.864
73143ION    NA+45403  17.791  38.619  10.753
73144ION    NA+45404   0.443   9.132   3.274
73145ION    NA+45405  44.481  23.124  12.624
73146ION    NA+45406  40.111  31.458  14.359
73147ION    NA+45407  42.530  43.597  14.953
73148ION    NA+45408  22.679  24.682   1.289
73149ION    NA+45409  19.361   5.576   4.579
73150ION    NA+45410  31.397   7.662  13.701
73151ION    NA+45411  34.242  32.500   2.257
73152ION    NA+45412  40.507  13.525  12.080
73153ION    NA+45413  21.239  32.736  13.649
73154ION    NA+45414   2.163  37.535   2.144
73155ION    NA+45415   9.809   1.993  10.395
73156ION    NA+45416  14.527  19.567   2.649
73157ION    NA+45417  19.204  20.825  13.013
73158ION    NA+45418  12.228  30.963   5.030
73159ION    NA+45419  15.325  23.929   0.918
73160ION    NA+45420  41.037  21.534   3.911
73161ION    NA+45421  41.930   6.045   4.459
73162ION    NA+45422  32.356  41.768   1.241
73163ION    NA+45423  15.762   5.097  10.350
73164ION    NA+45424  23.876   1.891  14.051
73165ION    NA+45425  39.071  43.793  12.583
73166ION    NA+45426  37.412  29.592  14.163
73167ION    NA+45427  37.271   9.823   9.854
73168ION    NA+45428  32.038  34.817   0.010
73169ION    NA+45429   8.654  21.518   0.524
73170ION    NA+45430  22.424  42.530  12.069
73171ION    NA+45431  34.318  43.836  11.080
73172ION    NA+45432   2.822  29.334   2.574
73173ION    NA+45433  43.793  15.527  13.217
73174ION    NA+45434  39.128  36.428  12.657
73175ION    NA+45435  28.283  26.487  13.412
73176ION    NA+45436  15.556  28.175   0.563
73177ION    NA+45437  22.217  32.377  10.538
73178ION    NA+45438   3.475  27.442  11.745
73179ION    NA+45439  38.973  16.135   9.821
73180ION    NA+45440  21.940  14.703  11.242
73181ION    NA+45441  41.951  43.523  11.825
73182ION    NA+45442   7.009   3.010   1.752
73183ION    NA+45443  14.575  11.081  12.597
73184ION    NA+45444  30.887   3.966   4.346
73185ION    NA+45445  26.110  29.174   1.206
73186ION    NA+45446  41.966  27.146   1.281
73187ION    NA+45447  38.924  43.758   3.130
73188ION    NA+45448  11.751  38.434   0.410
73189ION    NA+45449  25.057  41.787  10.377
73190ION    NA+45450  24.171  10.804  10.709
73191ION    NA+45451  39.423  10.116   2.765
73192ION    NA+45452  43.169  18.464   4.995
73193ION    NA+45453  29.385  17.285   4.503
73194ION    NA+45454  25.575  18.002  12.055
73195ION    NA+45455  19.178  28.585   4.521
73196ION    NA+45456   3.014  12.675   4.665
73197ION    NA+45457   4.809   1.486   1.958
73198ION    NA+45458  29.739  38.520   1.391
73199ION    NA+45459  43.303  19.087  10.757
73200ION    NA+45460   2.665  12.916   3.632
73201ION    NA+45461  15.484  32.267  14.561
73202ION    NA+45462  43.807  37.380   4.296
73203ION    NA+45463  43.174   9.985   2.019
73204ION    NA+45464   6.698  31.674   2.793
73205ION    NA+45465  39.524  31.913   1.109
73206ION    NA+45466   2.245  18.175   1.879
73207ION    NA+45467  19.206  37.315  13.098
73208ION    NA+45468  17.268  35.090  14.184
73209ION    NA+45469  21.026  14.670  12.405
73210ION    NA+45470   1.306  23.125   1.848
73211ION    NA+45471  10.953   7.711   1.728
73212ION    NA+45472  39.970  28.097   3.311
73213ION    NA+45473  21.230  36.366   0.446
73214ION    NA+45474  29.183  22.570  14.380
73215ION    NA+45475   7.196  17.044   1.844
73216ION    NA+45476   6.872  16.288   2.902
73217ION    NA+45477  21.566  21.643   0.798
73218ION    NA+45478  12.734   5.293  12.004
73219ION    NA+45479   7.609  15.409   0.879
73220ION    NA+45480  13.948  37.224   2.134
73221ION    NA+45481  28.296   5.625  10.726
73222ION    NA+45482   7.148  15.434  14.655
73223ION    NA+45483  29.033  11.826   0.702
73224ION    NA+45484   1.783  11.630  14.231
73225ION    NA+45485  14.090  22.277  13.305
73226ION    NA+45486  26.753   0.393  10.699
73227ION    NA+45487  35.699  39.014   3.242
73228ION    NA+45488   0.226  41.839   2.262
73229ION    NA+45489  27.152   7.837   3.170
73230ION    NA+45490  44.686  20.092   0.753
73231ION    NA+45491   1.532  19.101  11.127
73232ION    NA+45492  44.253   5.947   4.218
73233ION    NA+45493  43.687  24.815  10.722
73234ION    NA+45494   0.044  10.682  11.522
73235ION    NA+45495  12.901  17.881  12.075
73236ION    NA+45496  10.291  39.635  11.547
73237ION    NA+45497  36.514  43.351   3.873
73238ION    NA+45498  24.757  13.767   3.730
73239ION    NA+45499  39.141   6.127  14.798
73240ION    NA+45500   9.552   7.213  11.057
73241ION    NA+45501  15.920  13.108   2.676
73242ION    NA+45502  18.914  29.046  14.049
73243ION    NA+45503  14.734   4.740   0.426
73244ION    NA+45504  22.658   2.399   1.843
73245ION    NA+45505  38.462  33.313  10.350
73246ION    NA+45506   5.427  14.122  11.230
73247ION    NA+45507  20.147  35.573   4.315
73248ION    NA+45508  44.042   8.312  10.254
73249ION    NA+45509   1.063   6.308  13.878
73250ION    NA+45510  43.887  31.765  12.426
73251ION    NA+45511  34.011  16.075   4.635
73252ION    NA+45512  36.327  19.995  14.454
73253ION    NA+45513  20.318  21.999  10.360
73254ION    NA+45514  25.545   2.223  10.362
73255ION    NA+45515  32.558  27.265   0.456
73256ION    NA+45516  40.923  29.691  14.813
73257ION    NA+45517  39.484  42.788  11.579
73258ION    NA+45518  26.014  13.662   4.135
73259ION    NA+45519  21.564   3.615  12.999
73260ION    NA+45520   5.027  23.774  14.345
73261ION    NA+45521   2.166  12.102   0.025
73262ION    NA+45522  36.031  38.302  13.613
73263ION    NA+45523   5.029  35.881   9.643
73264ION    NA+45524  19.815  37.113  12.080
73265ION    NA+45525   1.711   6.636   3.084
73266ION    NA+45526  13.678  14.915   9.795
73267ION    NA+45527  25.136  36.333   0.595
73268ION    NA+45528  21.297   4.710   3.265
73269ION    NA+45529  13.242  11.370  11.350
73270ION    NA+45530  39.977   0.460   4.118
73271ION    NA+45531  41.792  27.715  10.706
73272ION    NA+45532  41.989   7.956  13.646
73273ION    NA+45533  29.799  33.737   2.863
73274ION    NA+45534  11.503  31.685   2.008
73275ION    NA+45535  27.994  36.391  11.944
73276ION    NA+45536  16.821  15.113  14.029
73277ION    NA+45537   4.874  19.149  14.311
73278ION    NA+45538  32.280   3.699   2.061
73279ION    NA+45539  19.456  14.698   1.612
73280ION    NA+45540  19.458  20.868  11.082
73281ION    NA+45541  15.467  16.891  14.883
73282ION    NA+45542  31.078   3.195   0.919
73283ION    NA+45543  41.467   3.710  12.117
73284ION    NA+45544  38.804  18.524  10.599
73285ION    NA+45545  12.467  24.258   4.863
73286ION    NA+45546   3.559  23.860  11.220
73287ION    NA+45547  44.319  44.335   4.546
73288ION    NA+45548  20.190   5.404   4.690
73289ION    NA+45549   1.115  26.624   4.454
73290ION    NA+45550   0.686  15.598   2.326
73291ION    NA+45551   4.692  32.692  13.780
73292ION    NA+45552  21.014  35.225  13.610
73293ION    NA+45553  19.704  19.261   1.868
73294ION    NA+45554  28.868   4.497   0.711
73295ION    NA+45555  10.892   2.039   3.144
73296ION    NA+45556  29.446  14.709  12.095
73297ION    NA+45557   0.913  14.643  13.766
73298ION    NA+45558  28.181  34.337  11.412
73299ION    NA+45559  38.230  28.803  12.016
73300ION    NA+45560  23.487  10.273   1.701
73301ION    NA+45561  11.081  12.763  14.039
73302ION    NA+45562  20.906  35.424   3.681
73303ION    NA+45563   2.841  10.392  13.327
73304ION    NA+45564   4.188  41.120  14.846
73305ION    NA+45565   0.005   3.607   3.468
73306ION    NA+45566  44.573  18.968   4.088
73307ION    NA+45567  16.138  26.471   0.749
73308ION    NA+45568  38.460  40.585   5.277
73309ION    NA+45569  34.158  34.902  12.009
73310ION    NA+45570   0.998   6.408  12.133
73311ION    NA+45571  10.803  17.747   0.739
73312ION    NA+45572  24.495  18.674   2.483
73313ION    NA+45573  15.032  13.187   2.657
73314ION    NA+45574  41.003  12.038  14.354
73315ION    NA+45575  30.981   7.159   2.107
73316ION    NA+45576   5.557  30.782   4.750
73317ION    NA+45577  14.406  12.989  13.977
73318ION    NA+45578   4.846  43.935  13.185
73319ION    NA+45579  39.269  16.817  12.366
73320ION    NA+45580  43.970  26.809  12.578
73321ION    NA+45581   3.789  20.058  11.161
73322ION    NA+45582  10.064  35.438   2.442
73323ION    NA+45583  37.419  24.248   0.382
73324ION    NA+45584   8.689  39.695   3.678
73325ION    NA+45585  37.545  30.392   2.625
73326ION    NA+45586  31.799  30.403   3.804
73327ION    NA+45587  22.902  25.903   9.769
73328ION    NA+45588  32.440  43.824  10.929
73329ION    NA+45589  30.060  30.876   0.985
73330ION    NA+45590   2.861  42.925  12.979
73331ION    NA+45591  38.050  12.613   1.502
73332ION    NA+45592  15.640  10.066  11.553
73333ION    NA+45593  25.513  18.246   1.119
73334ION    NA+45594  19.428   3.250   0.381
73335ION    NA+45595  28.304  20.743   4.506
73336ION    NA+45596   2.472   6.606  13.944
73337ION    NA+45597  32.810  28.905   3.115
73338ION    NA+45598  27.596   8.675  10.992
73339ION    NA+45599  41.553  20.024  14.812
73340ION    NA+45600  25.595  37.825   0.466
73341ION    NA+45601   0.848  23.612  13.634
73342ION    NA+45602   9.166  13.933  14.569
73343ION    NA+45603  42.973  38.118  11.023
73344ION    NA+45604   3.459  44.983  12.629
73345ION    NA+45605  44.469  10.689  10.829
73346ION    NA+45606  32.897  13.255  10.715
73347ION    NA+45607   4.199  13.135  12.642
73348ION    NA+45608  41.539  15.447  13.860
73349ION    NA+45609  32.478  25.782   3.481
73350ION    NA+45610  28.878  26.152   2.844
73351ION    NA+45611   6.442  14.926  14.450
73352ION    NA+45612  19.649  33.419   4.463
73353ION    NA+45613   7.189  29.102   2.763
73354ION    NA+45614  21.651  32.382   0.003
73355ION    NA+45615  37.512  26.173  12.481
73356ION    NA+45616  41.860  22.685  14.048
73357ION    NA+45617  10.773  43.556   1.152
73358ION    NA+45618  44.667  44.268  14.728
73359ION    NA+45619  28.661  31.686   3.158
73360ION    NA+45620   5.980   1.780   4.125
73361ION    NA+45621   9.075  43.271   1.836
73362ION    NA+45622  24.753   5.853   2.484
73363ION    NA+45623  35.462  11.135  11.125
73364ION    NA+45624   7.675  20.784  12.643
73365ION    NA+45625  28.211  13.672   1.136
73366ION    NA+45626  37.306  11.163   3.207
73367ION    NA+45627  14.496  35.329  13.303
73368ION    NA+45628   3.966  27.715  12.572
73369ION    NA+45629  34.620   4.704  12.183
73370ION    NA+45630  32.767  16.386   1.124
73371ION    NA+45631  43.299  19.044   4.531
73372ION    NA+45632   8.792  42.381   0.735
73373ION    NA+45633  24.553   3.484  12.457
73374ION    NA+45634  17.467  30.716  13.869
73375ION    NA+45635  37.391  28.246  14.452
73376ION    NA+45636  12.298   2.033   0.229
73377ION    NA+45637  13.383  33.851  12.870
73378ION    NA+45638  23.215  41.776  11.906
73379ION    NA+45639   6.273   5.811  13.878
73380ION    NA+45640  35.897  36.132   0.026
73381ION    NA+45641  28.006  23.200   4.918
73382ION    NA+45642  11.645  18.252  10.019
73383ION    NA+45643  17.274  25.553  14.966
73384ION    NA+45644  38.923  43.045   1.137
73385ION    NA+45645   2.770  40.751   3.599
73386ION    NA+45646  43.519   2.717   1.698
73387ION    NA+45647  20.521  21.803   2.863
73388ION    NA+45648   2.645  15.074   3.110
73389ION    NA+45649  43.000  24.699  12.594
73390ION    NA+45650   6.016  22.190  13.838
73391ION    NA+45651   9.330   1.913  12.569
73392ION    NA+45652   8.733  22.411   3.943
73393ION    NA+45653   2.534  27.332  12.266
73394ION    NA+45654   9.096  11.084  11.019
73395ION    NA+45655  22.403  19.774   4.017
73396ION    NA+45656  31.077  10.200   5.033
73397ION    NA+45657  38.883  30.515  13.878
73398ION    NA+45658  34.589   7.922   1.524
73399ION    NA+45659   8.242  43.558  11.792
73400ION    NA+45660  33.963  38.179   4.888
73401ION    NA+45661  38.620  40.795  14.031
73402ION    NA+45662  13.558   9.718   3.129
73403ION    NA+45663   2.825  41.302   4.554
73404ION    NA+45664  21.692  13.162  10.693
73405ION    NA+45665  37.106  34.115  14.450
73406ION    NA+45666   2.259  42.685   1.898
73407ION    NA+45667  12.217   0.304   2.912
73408ION    NA+45668  34.042   7.251   2.066
73409ION    NA+45669  17.903  36.325  11.986
73410ION    NA+45670   8.663  13.220  14.438
73411ION    NA+45671   4.413  14.071  11.520
73412ION    NA+45672  27.496  43.026   0.762
73413ION    NA+45673  12.521  17.285  14.506
73414ION    NA+45674  39.464   2.704   2.143
73415ION    NA+45675  14.806  38.560  13.912
73416ION    NA+45676  41.319  18.119  12.527
73417ION    NA+45677  11.716  29.092  14.110
73418ION    NA+45678  31.548  39.517   4.447
73419ION    NA+45679   3.541  42.850  14.918
73420ION    NA+45680  43.132  29.869  13.566
73421ION    NA+45681  34.225  25.784   4.696
73422ION    NA+45682  21.923  27.373   0.978
73423ION    NA+45683  35.888   2.643   1.448
73424ION    NA+45684  35.307  18.852   4.774
73425ION    NA+45685  34.726  26.590  10.523
73426ION    NA+45686  15.857  39.681  13.331
73427ION    NA+45687  28.549  20.525   1.500
73428ION    NA+45688  39.373  30.441   4.089
73429ION    NA+45689  24.210   5.540   1.460
73430ION    NA+45690   7.202  24.229  12.965
73431ION    NA+45691   0.528  22.556   2.649
73432ION    NA+45692  18.093  14.132   1.008
73433ION    NA+45693  33.011   8.439   1.353
73434ION    NA+45694  36.231  42.369   0.773
73435ION    NA+45695   3.334  42.578   1.485
73436ION    NA+45696   0.022  12.763  11.630
73437ION    NA+45697  19.550   7.340   4.188
73438ION    NA+45698  23.630  28.239  14.170
73439ION    NA+45699  31.460  20.225  10.730
73440ION    NA+45700  41.917   8.939  10.195
73441ION    NA+45701  41.396  39.403  14.171
73442ION    NA+45702   5.943   6.249  11.119
73443ION    NA+45703  19.544  13.775   0.328
73444ION    NA+45704  37.712  16.734  13.996
73445ION    NA+45705  44.971  13.940   3.946
73446ION    NA+45706  44.737  19.109  11.643
73447ION    NA+45707  19.746  28.930   3.332
73448ION    NA+45708  42.056  32.353  12.514
73449ION    NA+45709  12.376   4.465   2.514
73450ION    NA+45710   1.535  13.207  10.790
73451ION    NA+45711  27.420  35.270   4.479
73452ION    NA+45712  38.459  31.245   0.856
73453ION    NA+45713  39.129  41.888  14.885
73454ION    NA+45714  18.733   7.723   3.756
73455ION    NA+45715  20.128  21.512  12.080
73456ION    NA+45716  40.755  20.087   0.450
73457ION    NA+45717  18.396   0.642  13.734
73458ION    NA+45718  11.353   2.833   4.474
73459ION    NA+45719  21.157  10.173  11.020
73460ION    NA+45720  36.333  12.080   5.114
73461ION    NA+45721  33.945  42.454  12.078
73462ION    NA+45722  12.721  21.592  14.087
73463ION    NA+45723  22.620  24.141  12.898
73464ION    NA+45724  43.623  16.096   1.236
73465ION    NA+45725  10.636   0.661   1.046
73466ION    NA+45726  16.630  35.278   4.087
73467ION    NA+45727   2.382  44.336   2.352
73468ION    NA+45728   8.982  10.752   1.127
73469ION    NA+45729  26.534  24.038   0.879
73470ION    NA+45730  10.717  13.203   4.516
73471ION    NA+45731  26.998  42.189  13.807
73472ION    NA+45732  40.209   8.709  14.470
73473ION    NA+45733   9.182  44.851   0.460
73474ION    NA+45734  43.375  23.623  11.963
73475ION    NA+45735  39.403   2.094   0.479
73476ION    NA+45736  12.805  22.888   4.152
73477ION    NA+45737  29.416  23.427   0.896
73478ION    NA+45738  41.583  44.188  14.288
73479ION    NA+45739  44.764   9.258   0.794
73480ION    NA+45740  27.032   8.598  13.377
73481ION    NA+45741  44.580  44.623  11.298
73482ION    NA+45742   2.447  18.306  13.754
73483ION    NA+45743  27.123  28.726   0.921
73484ION    NA+45744  44.287   9.142  14.443
73485ION    NA+45745  41.541  14.164  13.698
73486ION    NA+45746  29.712   0.559  12.436
73487ION    NA+45747   0.747   7.895  12.090
73488ION    NA+45748  17.151  32.273   0.967
73489ION    NA+45749  32.290   8.474  14.429
73490ION    NA+45750  17.011  26.576  12.872
73491ION    NA+45751  25.368  31.137  13.076
73492ION    NA+45752  35.891   5.889   3.436
73493ION    NA+45753  22.887   8.623  12.001
73494ION    NA+45754  29.083  33.280   5.696
73495ION    NA+45755  36.056  15.455   1.112
73496ION    NA+45756   0.455  27.703  12.569
73497ION    NA+45757   7.871  40.572   3.729
73498ION    NA+45758  28.493   8.167   2.629
73499ION    NA+45759  16.148  29.015  11.073
73500ION    NA+45760  41.332  38.088   0.751
73501ION    NA+45761  32.060  26.508   4.827
73502ION    NA+45762  39.518  27.684   0.906
73503ION    NA+45763  26.040  38.844   9.685
73504ION    NA+45764  21.427  41.433   1.377
73505ION    NA+45765  34.866  23.850  13.380
73506ION    NA+45766  25.775  38.877   1.774
73507ION    NA+45767  23.155  44.503   3.579
73508ION    NA+45768  28.363  16.865  11.980
73509ION    NA+45769   4.571  32.417  10.650
73510ION    NA+45770  24.151   4.910  13.518
73511ION    NA+45771  21.337  24.638   2.537
73512ION    NA+45772  20.259   0.361  13.520
73513ION    NA+45773  21.959  38.819   0.807
73514ION    NA+45774  12.294  23.760  14.887
73515ION    NA+45775   2.721  16.748   2.968
73516ION    NA+45776  31.425   3.135   4.664
73517ION    NA+45777  40.936   4.520  10.382
73518ION    NA+45778   6.773   2.732   0.033
73519ION    NA+45779  28.233  38.027   0.974
73520ION    NA+45780  17.668   8.450   5.205
73521ION    NA+45781  17.834  43.023   3.835
73522ION    NA+45782  13.893  27.702  11.462
73523ION    NA+45783  39.709  21.693  12.519
73524ION    NA+45784   5.105   0.833  12.728
73525ION    NA+45785  23.192   2.986   3.319
73526ION    NA+45786  26.589  33.822   2.237
73527ION    NA+45787   4.793  34.560  11.509
73528ION    NA+45788  15.999  35.857   9.682
73529ION    NA+45789  22.150  19.121  10.536
73530ION    NA+45790  42.338  36.770   0.877
73531ION    NA+45791  17.136   2.548  12.668
73532ION    NA+45792   3.801  35.806   3.768
73533ION    NA+45793  14.675  14.281  14.815
73534ION    NA+45794  43.659  27.569  14.000
73535ION    NA+45795  10.209  41.737   3.091
73536ION    NA+45796  35.006  26.259   4.290
73537ION    NA+45797  20.386  28.984   2.689
73538ION    NA+45798   6.414  31.477  11.604
73539ION    NA+45799  40.032  44.757  12.874
73540ION    NA+45800  30.103   0.387  10.775
73541ION    NA+45801  36.300  38.840   4.483
73542ION    NA+45802   2.683  22.361  14.760
73543ION    NA+45803  22.191  29.654   2.632
73544ION    NA+45804  39.072  38.842   0.941
73545ION    NA+45805  17.690   9.122  13.548
73546ION    NA+45806   6.146  14.599  13.656
73547ION    NA+45807  14.735   9.203  11.344
73548ION    NA+45808   3.854   5.765  11.711
73549ION    NA+45809  44.523   6.212   0.619
73550ION    NA+45810  23.022  30.397  12.467
73551ION    NA+45811  12.970  22.181  11.430
73552ION    NA+45812  16.657  29.561   3.562
73553ION    NA+45813   4.298   0.316   2.559
73554ION    NA+45814  36.828  41.940   3.101
73555ION    NA+45815   8.329  26.526  11.405
73556ION    NA+45816  41.014  20.757   1.145
73557ION    NA+45817  44.027  31.946  14.231
73558ION    NA+45818   4.973  38.391   3.581
73559ION    NA+45819  26.383  35.003  14.707
73560ION    NA+45820  21.646  28.927  14.505
73561ION    NA+45821  37.531  35.194  14.799
73562ION    NA+45822  44.436  21.473   1.716
73563ION    NA+45823  36.807  21.148   5.147
73564ION    NA+45824  14.714   9.984   2.486
73565ION    NA+45825  34.034   3.984  11.416
73566ION    NA+45826  28.530  12.013   2.271
73567ION    NA+45827   7.768  36.986  14.294
73568ION    NA+45828   6.048   0.781   2.532
73569ION    NA+45829  24.863  29.869  10.801
73570ION    NA+45830  39.513   5.201   0.536
73571ION    NA+45831  15.134  11.650   3.734
73572ION    NA+45832  33.858  23.866  12.858
73573ION    NA+45833  23.236  34.008   1.727
73574ION    NA+45834  28.453  38.466  11.138
73575ION    NA+45835   2.374   5.101   1.006
73576ION    NA+45836  11.934  10.135  12.154
73577ION    NA+45837  41.772  30.635  11.581
73578ION    NA+45838  16.871  14.584  14.758
73579ION    NA+45839  10.639  41.291  12.826
73580ION    NA+45840  43.033  11.820  13.859
73581ION    NA+45841  23.568  22.941  13.877
73582ION    NA+45842  39.769  32.795  10.893
73583ION    NA+45843  20.973  33.446   2.721
73584ION    NA+45844   8.867  36.537   0.378
73585ION    NA+45845   7.464   1.697  10.642
73586ION    NA+45846  10.191  14.648   2.101
73587ION    NA+45847  25.892   9.542  12.632
73588ION    NA+45848  35.852  12.883   0.199
73589ION    NA+45849  34.359  35.814   4.726
73590ION    NA+45850   4.103  11.095   0.568
73591ION    NA+45851  39.914  16.907  13.125
73592ION    NA+45852  31.626  22.366   1.931
73593ION    NA+45853  15.755  20.690   0.332
73594ION    NA+45854   4.945  41.075   4.041
73595ION    NA+45855  35.585  13.365   4.558
73596ION    NA+45856   9.637  27.382  11.590
73597ION    NA+45857  26.622  13.749   3.346
73598ION    NA+45858   8.269  35.779  10.180
73599ION    NA+45859   7.140  25.290  11.508
73600ION    NA+45860   7.647  24.719   0.183
73601ION    NA+45861  19.939  25.381   1.790
73602ION    NA+45862  32.476  23.324  13.155
73603ION    NA+45863  11.457  42.391   4.154
73604ION    NA+45864  26.210   1.532  13.219
73605ION    NA+45865  12.056  13.109  14.411
73606ION    NA+45866  24.454  27.628   5.449
73607ION    NA+45867  28.353  24.193  13.951
73608ION    NA+45868   2.455  43.242  11.283
73609ION    NA+45869   6.858  22.199   1.304
73610ION    NA+45870   1.803  32.658  14.959
73611ION    NA+45871  18.344  17.668  12.588
73612ION    NA+45872   0.682  22.213  12.440
73613ION    NA+45873  23.635  25.620  12.938
73614ION    NA+45874   3.084   5.651  10.562
73615ION    NA+45875  30.471  43.323  10.905
73616ION    NA+45876  15.854  15.916   1.188
73617ION    NA+45877  31.078  20.172  12.143
73618ION    NA+45878   4.367   9.310   3.924
73619ION    NA+45879  39.605  44.797   0.853
73620ION    NA+45880  17.764  42.183   3.573
73621ION    NA+45881   6.460  21.729  14.686
73622ION    NA+45882   3.226  26.906   4.239
73623ION    NA+45883   3.949  10.683  11.584
73624ION    NA+45884  43.528   8.212   1.792
73625ION    NA+45885  43.041   7.051  14.556
73626ION    NA+45886   7.305   1.972  12.829
73627ION    NA+45887  33.986  14.777  11.661
73628ION    NA+45888  31.012  42.498  11.070
73629ION    NA+45889  18.336   6.443   1.724
73630ION    NA+45890  25.050  31.120   2.716
73631ION    NA+45891   9.172  15.665  13.432
73632ION    NA+45892  42.970  14.697  12.199
73633ION    NA+45893  15.325  32.428   4.669
73634ION    NA+45894   2.149  29.591  14.711
73635ION    NA+45895   4.125  43.198   2.471
73636ION    NA+45896   7.696   6.292   9.769
73637ION    NA+45897  15.732   7.749   2.808
73638ION    NA+45898  23.286  29.557  10.276
73639ION    NA+45899   6.349  39.963   3.335
73640ION    NA+45900   1.072  32.134   0.060
73641ION    NA+45901  31.884  29.176  14.622
73642ION    NA+45902  18.301   5.241   0.472
73643ION    NA+45903   3.064  38.717   4.541
73644ION    NA+45904  20.728  41.837  12.932
73645ION    NA+45905  22.122  21.160  12.310
73646ION    NA+45906   5.356  29.759   4.240
73647ION    NA+45907  20.345   4.903   0.696
73648ION    NA+45908  27.630  26.642  13.897
73649ION    NA+45909  21.174   2.895   4.100
73650ION    NA+45910  42.978   4.578  11.364
73651ION    NA+45911  36.863  12.085   2.884
73652ION    NA+45912  39.125  18.622   1.157
73653ION    NA+45913  31.313  33.323  10.173
73654ION    NA+45914  33.366  39.023  11.974
73655ION    NA+45915   4.812  13.218  11.856
73656ION    NA+45916  28.428  33.549  11.977
73657ION    NA+45917  23.707  30.328  13.530
73658ION    NA+45918   2.923  40.777  12.579
73659ION    NA+45919   2.809   2.455  10.181
73660ION    NA+45920  43.956   8.415   4.263
73661ION    NA+45921  36.035  24.411   0.954
73662ION    NA+45922  16.116  12.270   4.321
73663ION    NA+45923   5.172  17.281   0.655
73664ION    NA+45924  40.965   2.354   0.082
73665ION    NA+45925  13.223   3.787  10.762
73666ION    NA+45926  11.688  34.364  11.174
73667ION    NA+45927   2.865  38.107  11.105
73668ION    NA+45928  16.737   9.835  12.345
73669ION    NA+45929  21.672   9.658   1.317
73670ION    NA+45930  11.920  29.906   9.603
73671ION    NA+45931   7.236  19.606   2.641
73672ION    NA+45932   7.875  18.112   0.074
73673ION    NA+45933  27.925  10.014   3.795
73674ION    NA+45934  28.186  34.834   3.249
73675ION    NA+45935  37.371  11.275  14.627
73676ION    NA+45936  41.862  36.693  13.382
73677ION    NA+45937  26.226  37.781  12.850
73678ION    NA+45938  29.661   1.463   0.320
73679ION    NA+45939  16.589  30.284  12.954
73680ION    NA+45940  19.548  22.595   1.471
73681ION    NA+45941  43.147  24.321  11.403
73682ION    NA+45942  26.623  11.861   3.013
73683ION    NA+45943  41.191  12.822  13.361
73684ION    NA+45944   2.773  14.874  11.158
73685ION    NA+45945   4.080   0.554  12.926
73686ION    NA+45946  29.111  17.213  11.415
73687ION    NA+45947  26.835   6.768   0.446
73688ION    NA+45948  36.616  13.148   2.426
73689ION    NA+45949   1.701  30.906   5.081
73690ION    NA+45950  39.347  40.292  11.749
73691ION    NA+45951  22.302  14.694   1.354
73692ION    NA+45952  14.054   9.431   1.002
73693ION    NA+45953   0.440  31.184   0.399
73694ION    NA+45954  12.058  32.719   0.678
73695ION    NA+45955  20.782  22.034   0.314
73696ION    NA+45956  40.369   3.292  12.921
73697ION    NA+45957  16.324   6.269  13.992
73698ION    NA+45958  43.071   5.223   0.422
73699ION    NA+45959  32.006   6.120  11.167
73700ION    NA+45960  31.684  12.817  13.331
73701ION    NA+45961   1.434   3.947  14.769
73702ION    NA+45962   1.901   3.858  12.510
73703ION    NA+45963   6.604  39.303  12.238
73704ION    NA+45964  39.088   7.297   3.741
73705ION    NA+45965   2.962  11.214  14.846
73706ION    NA+45966  30.108  44.399  12.040
73707ION    NA+45967  25.810  41.392  13.708
73708ION    NA+45968  43.146  22.008   3.838
73709ION    NA+45969  28.835  35.505  14.232
73710ION    NA+45970  41.285  14.718   2.559
73711ION    NA+45971  38.067  39.841   3.567
73712ION    NA+45972   8.096  19.827   2.825
73713ION    NA+45973   0.198  23.061   1.404
73714ION    NA+45974  22.958   6.283  11.639
73715ION    NA+45975  15.086  28.903  14.989
73716ION    NA+45976  35.914  26.462   3.925
73717ION    NA+45977  13.843   2.054   0.818
73718ION    NA+45978  20.482  40.459   0.005
73719ION    NA+45979  42.428  16.219  13.700
73720ION    NA+45980  22.297  20.951   5.318
73721ION    NA+45981  27.873  15.028  13.245
73722ION    NA+45982  24.614  41.366  13.438
73723ION    NA+45983   6.473   9.976  12.280
73724ION    NA+45984   4.021  22.088  11.043
73725ION    NA+45985  26.638  42.680   0.384
73726ION    NA+45986   0.312  13.722   0.944
73727ION    NA+45987   7.001  34.063   1.369
73728ION    NA+45988  24.695  28.957   1.297
73729ION    NA+45989  34.866  18.073   1.819
73730ION    NA+45990  35.073  42.894   4.130
73731ION    NA+45991  12.252  34.136   0.369
73732ION    NA+45992   2.240  29.649  10.668
73733ION    NA+45993  28.135  19.433  14.525
73734ION    NA+45994   0.082  41.490   3.867
73735ION    NA+45995   1.968  16.320  14.890
73736ION    NA+45996  22.274  26.892  12.514
73737ION    NA+45997  40.845   4.494  13.056
73738ION    NA+45998  42.736  17.167   1.461
73739ION    NA+45999  25.300  17.230  14.355
73740ION    NA+46000  40.776  27.695   2.372
73741ION    NA+46001  30.371  15.467  11.881
73742ION    NA+46002   5.916   5.012  13.540
73743ION    NA+46003  32.189  40.798  11.791
73744ION    NA+46004  26.556  27.729   2.845
73745ION    NA+46005   7.859  35.185   4.565
73746ION    NA+46006  42.860  29.444   1.189
73747ION    NA+46007  27.191  16.595  11.879
73748ION    NA+46008  10.786  28.506   4.517
73749ION    NA+46009   1.482  25.318  11.118
73750ION    NA+46010  42.798  20.343   2.858
73751ION    NA+46011  33.511  12.667  11.273
73752ION    NA+46012  32.728   6.625  11.641
73753ION    NA+46013  31.659  28.145  11.685
73754ION    NA+46014   1.885  39.323   4.200
73755ION    NA+46015  42.044  17.260  11.660
73756ION    NA+46016   8.708  41.748   3.566
73757ION    NA+46017  18.568  39.740  10.035
73758ION    NA+46018  17.355   9.856   3.076
73759ION    NA+46019  14.871   5.021  12.870
73760ION    NA+46020  44.924  15.369  10.917
73761ION    NA+46021  38.780  43.650   4.114
73762ION    NA+46022  44.678   3.838  14.645
73763ION    NA+46023  23.008  28.680  14.954
73764ION    NA+46024  37.581  24.337  12.686
73765ION    NA+46025  32.701  21.454   4.690
73766ION    NA+46026  25.255   5.468   1.415
73767ION    NA+46027  18.732  13.016   1.662
73768ION    NA+46028  14.009  15.068   4.887
73769ION    NA+46029  38.535  32.555  11.113
73770ION    NA+46030  26.266  10.904   0.178
73771ION    NA+46031   7.225   8.033   3.564
73772ION    NA+46032  38.349  39.386  11.755
73773ION    NA+46033  14.677  28.056  13.235
73774ION    NA+46034   9.017  15.069  12.644
73775ION    NA+46035   2.576  41.564   0.166
73776ION    NA+46036  43.476   4.401  14.494
73777ION    NA+46037  11.357  27.065  11.960
73778ION    NA+46038  41.043  16.916   2.211
73779ION    NA+46039   8.482  26.338  12.737
73780ION    NA+46040   5.408   4.328   3.817
73781ION    NA+46041   7.164  20.808   2.772
73782ION    NA+46042  36.358   8.958   3.365
73783ION    NA+46043  31.423  24.837   1.792
73784ION    NA+46044  21.016  26.401  12.366
73785ION    NA+46045   0.099  14.067  11.179
73786ION    NA+46046   7.899  42.716  14.760
73787ION    NA+46047  13.039  35.036  11.107
73788ION    NA+46048  20.353  20.011   1.744
73789ION    NA+46049   4.777  11.766  12.508
73790ION    NA+46050   9.462  21.316   0.358
73791ION    NA+46051   2.357  25.544  12.335
73792ION    NA+46052  13.864   9.688  10.543
73793ION    NA+46053   6.929  17.411  13.491
73794ION    NA+46054   4.103  18.189   4.585
73795ION    NA+46055  39.136   2.418   9.721
73796ION    NA+46056   7.321   5.579   4.455
73797ION    NA+46057  20.584   3.719  12.736
73798ION    NA+46058  27.597   6.603   1.072
73799ION    NA+46059  21.979  36.682   0.831
73800ION    NA+46060  31.377  12.324  14.912
73801ION    NA+46061  17.708   5.547  14.369
73802ION    NA+46062  30.428  14.444   0.610
73803ION    NA+46063   5.879   3.600  12.012
73804ION    NA+46064   2.410  25.535   1.166
73805ION    NA+46065   2.728  23.175   4.253
73806ION    NA+46066  35.931  37.861  10.628
73807ION    NA+46067  21.430   8.572  14.080
73808ION    NA+46068  17.807   1.265  12.011
73809ION    NA+46069  22.218  25.751  11.005
73810ION    NA+46070  30.096   8.887   3.663
73811ION    NA+46071   8.138  27.167  12.148
73812ION    NA+46072  42.658  27.879  10.963
73813ION    NA+46073   9.752  28.535   1.909
73814ION    NA+46074  33.976  35.288   1.056
73815ION    NA+46075   6.168  22.105  12.470
73816ION    NA+46076  26.991   0.489   4.480
73817ION    NA+46077  18.315   2.456   1.902
73818ION    NA+46078  43.438  37.436   0.213
73819ION    NA+46079  38.711   3.307   2.687
73820ION    NA+46080  35.199   5.368  12.451
73821ION    NA+46081   5.153  33.828   2.486
73822ION    NA+46082  41.915  35.349  11.137
73823ION    NA+46083   8.644  42.617   2.806
73824ION    NA+46084  17.008  14.024   2.249
73825ION    NA+46085  22.098  39.756   1.742
73826ION    NA+46086  44.875  32.528   1.164
73827ION    NA+46087  40.337  15.431  14.314
73828ION    NA+46088   7.738  28.305  10.938
73829ION    NA+46089  25.597  28.844   5.225
73830ION    NA+46090  41.726   6.134   1.384
73831ION    NA+46091  30.769  37.076   0.477
73832ION    NA+46092  22.904  27.244   1.855
73833ION    NA+46093  36.444  31.342  11.591
73834ION    NA+46094   2.466  18.132  11.137
73835ION    NA+46095  27.475  41.765  10.142
73836ION    NA+46096  37.769  13.762   4.325
73837ION    NA+46097   8.784   9.254   4.601
73838ION    NA+46098  42.264  11.670  14.480
73839ION    NA+46099  29.663  19.953  11.134
73840ION    NA+46100  41.341  37.493   4.660
73841ION    NA+46101  22.461  29.557  10.550
73842ION    NA+46102  43.266  26.361  13.691
73843ION    NA+46103  21.593  24.217   1.770
73844ION    NA+46104  11.465  44.502  14.685
73845ION    NA+46105  19.825  36.534   4.672
73846ION    NA+46106  21.975   0.289   2.629
73847ION    NA+46107  27.408  23.585   1.054
73848ION    NA+46108  23.661   5.977   3.532
73849ION    NA+46109  26.695  36.124   0.786
73850ION    NA+46110  28.982  39.912   1.997
73851ION    NA+46111  14.982  27.945  12.289
73852ION    NA+46112  43.929  19.548   2.696
73853ION    NA+46113  33.486  21.418   3.105
73854ION    NA+46114   0.496   4.965   2.078
73855ION    NA+46115  10.277  18.464   0.668
73856ION    NA+46116  22.800  28.417  10.895
73857ION    NA+46117  22.573  33.963   2.474
73858ION    NA+46118  44.255  43.298  14.672
73859ION    NA+46119  40.556  11.106   4.557
73860ION    NA+46120   3.159   0.771  11.484
73861ION    NA+46121   4.462  14.314  14.808
73862ION    NA+46122  24.779  37.823  13.278
73863ION    NA+46123  19.696   6.182  10.233
73864ION    NA+46124  14.302  11.241   4.362
73865ION    NA+46125  14.421   8.742   4.127
73866ION    NA+46126  19.025  44.344   1.487
73867ION    NA+46127  14.510  29.238  13.869
73868ION    NA+46128   5.111  36.560   2.756
73869ION    NA+46129  17.194   1.960  11.635
73870ION    NA+46130  34.215   1.640   3.370
73871ION    NA+46131   2.967  37.545  13.545
73872ION    NA+46132   5.995  16.913  11.251
73873ION    NA+46133  25.669  44.802  12.043
73874ION    NA+46134  27.085  11.469  12.247
73875ION    NA+46135  38.583  34.177  10.838
73876ION    NA+46136   3.039  30.408   2.172
73877ION    NA+46137  39.067  21.277  12.999
73878ION    NA+46138   5.200   5.068  10.903
73879ION    NA+46139   4.834   1.864   1.255
73880ION    NA+46140  25.311  19.095   1.391
73881ION    NA+46141   5.708  37.587  10.330
73882ION    NA+46142  29.379  15.489   5.133
73883ION    NA+46143  15.455   1.048   2.215
73884ION    NA+46144  28.034  29.455   0.390
73885ION    NA+46145  23.991  37.460  14.783
73886ION    NA+46146  25.649  43.248  12.124
73887ION    NA+46147   7.014  43.157  13.025
73888ION    NA+46148  11.613  35.691   1.250
73889ION    NA+46149   0.868  20.530   4.108
73890ION    NA+46150  29.079  32.886  13.672
73891ION    NA+46151   7.799  15.870  11.486
73892ION    NA+46152  35.354  28.939  13.257
73893ION    NA+46153  37.372  33.449  13.753
73894ION    NA+46154  44.291  17.100   5.532
73895ION    NA+46155   5.833  22.340   2.581
73896ION    NA+46156   3.167   7.959   3.315
73897ION    NA+46157  32.471  24.488  10.693
73898ION    NA+46158  25.205  41.046  14.208
73899ION    NA+46159   8.927  38.553  11.635
73900ION    NA+46160   0.245   1.597  11.577
73901ION    NA+46161   4.557  30.601  12.691
73902ION    NA+46162  17.864  15.452  12.539
73903ION    NA+46163  19.371  19.320   3.110
73904ION    NA+46164  44.184  25.539  11.200
73905ION    NA+46165  24.284  38.825   1.514
73906ION    NA+46166   1.740  26.203   1.903
73907ION    NA+46167  26.925  31.465   2.644
73908ION    NA+46168  16.604  13.161   0.963
73909ION    NA+46169   8.481  39.414  12.422
73910ION    NA+46170  32.615  30.759   3.948
73911ION    NA+46171  34.791  10.662  14.244
73912ION    NA+46172   5.262   6.111   0.328
73913ION    NA+46173  10.959  44.513   0.839
73914ION    NA+46174   3.499  33.836   2.394
73915ION    NA+46175   5.190  39.345  11.505
73916ION    NA+46176  36.332  14.217   4.142
73917ION    NA+46177  17.298  28.924  12.846
73918ION    NA+46178  43.799  17.385  11.028
73919ION    NA+46179  39.578  14.126   2.688
73920ION    NA+46180  36.303  34.310  12.438
73921ION    NA+46181  18.764  35.856   3.929
73922ION    NA+46182   1.719  21.370   0.488
73923ION    NA+46183  28.475  25.248   2.986
73924ION    NA+46184   4.685  43.315  12.346
73925ION    NA+46185   1.131  36.653  12.580
73926ION    NA+46186  25.014  17.178   0.216
73927ION    NA+46187  41.256   0.674   2.837
73928ION    NA+46188  32.737  33.665  11.434
73929ION    NA+46189  43.687  20.070   0.692
73930ION    NA+46190  24.561  12.679   2.938
73931ION    NA+46191  35.079  29.000   0.492
73932ION    NA+46192  34.095   5.459  14.258
73933ION    NA+46193  19.555  10.071  10.940
73934ION    NA+46194  13.053  29.051  13.020
73935ION    NA+46195  14.592  16.177   3.787
73936ION    NA+46196  38.777  14.723   2.742
73937ION    NA+46197   9.321   2.890  12.783
73938ION    NA+46198  17.250  43.797   3.334
73939ION    NA+46199  37.010  38.300  12.369
73940ION    NA+46200  36.058  26.990   1.808
73941ION    NA+46201  13.822  34.580  12.544
73942ION    NA+46202  27.221  13.236   1.748
73943ION    NA+46203  37.909  20.681   4.507
73944ION    NA+46204  44.646   4.179   2.729
73945ION    NA+46205  15.687  36.295  10.337
73946ION    NA+46206   0.247  26.449   2.843
73947ION    NA+46207  13.069   3.282  14.055
73948ION    NA+46208  17.853  26.057   1.046
73949ION    NA+46209  13.408  10.858  13.429
73950ION    NA+46210  28.194  34.937  14.755
73951ION    NA+46211  41.036   8.990  14.240
73952ION    NA+46212  31.377  29.644   0.346
73953ION    NA+46213   4.661  39.034   4.280
73954ION    NA+46214  41.282  44.087   1.157
73955ION    NA+46215  32.141   9.188   0.446
73956ION    NA+46216   3.350  11.070   2.115
73957ION    NA+46217  31.980  20.226   0.941
73958ION    NA+46218  13.776  42.125   2.853
73959ION    NA+46219  32.947  19.625  13.735
73960ION    NA+46220  14.468  24.251   1.435
73961ION    NA+46221   3.909  25.775   0.476
73962ION    NA+46222  33.124  15.555  11.059
73963ION    NA+46223  13.250  36.898   4.905
73964ION    NA+46224  41.077  34.544   0.425
73965ION    NA+46225  39.904  30.053  14.437
73966ION    NA+46226  31.841   1.224  12.824
73967ION    NA+46227  17.144  42.687  14.989
73968ION    NA+46228  39.036  32.543  11.998
73969ION    NA+46229   2.301  20.134   4.196
73970ION    NA+46230  18.311  39.722   1.260
73971ION    NA+46231  39.344  17.233   0.755
73972ION    NA+46232  26.394  38.144   0.469
73973ION    NA+46233  26.674  35.481  13.878
73974ION    NA+46234  37.361   8.883   3.867
73975ION    NA+46235  13.700   6.086   0.198
73976ION    NA+46236  38.900  23.972   4.150
73977ION    NA+46237  29.389  42.972  13.628
73978ION    NA+46238  36.173  33.584  11.120
73979ION    NA+46239  36.141   4.283  14.387
73980ION    NA+46240  36.513   0.891  12.822
73981ION    NA+46241  42.395   3.826  11.672
73982ION    NA+46242  38.418  28.554  14.172
73983ION    NA+46243  25.319  24.938  12.002
73984ION    NA+46244  26.766  28.240   4.740
73985ION    NA+46245  27.640  10.296  14.359
73986ION    NA+46246   5.604  22.922  14.381
73987ION    NA+46247  21.822  13.920   4.611
73988ION    NA+46248  18.633  36.496  13.455
73989ION    NA+46249  42.589  35.922  11.607
73990ION    NA+46250  43.701  18.001  12.467
73991ION    NA+46251  23.002  43.572   1.478
73992ION    NA+46252  39.742  43.608   1.831
73993ION    NA+46253  42.572   7.918   1.789
73994ION    NA+46254   6.825  19.489   3.728
73995ION    NA+46255  19.046  38.157   3.345
73996ION    NA+46256  21.806  21.918  14.188
73997ION    NA+46257   1.957  12.953  14.774
73998ION    NA+46258   1.246  40.743   1.665
73999ION    NA+46259  35.155  20.256   4.235
74000ION    NA+46260  36.548  18.630  12.966
74001ION    NA+46261   3.804  44.129  11.330
74002ION    NA+46262  24.380  23.710  13.835
74003ION    NA+46263   7.439  35.548  13.881
74004ION    NA+46264  25.800  19.134  12.857
74005ION    NA+46265  25.999  36.441   0.299
74006ION    NA+46266  24.000  38.986   4.213
74007ION    NA+46267  25.655  37.970  12.051
74008ION    NA+46268  23.384  19.578  13.821
74009ION    NA+46269  34.374  44.834  13.314
74010ION    NA+46270  25.045  21.979  13.866
74011ION    NA+46271   2.964  12.288  13.764
74012ION    NA+46272  16.258  26.385  14.409
74013ION    NA+46273  34.637  24.775  12.866
74014ION    NA+46274  35.095   9.103   2.336
74015ION    NA+46275  11.852  43.608  14.463
74016ION    NA+46276  12.775  14.782   1.292
74017ION    NA+46277  40.573  32.399  11.494
74018ION    NA+46278   3.284   6.313   4.091
74019ION    NA+46279   5.364   3.576   5.053
74020ION    NA+46280   7.402  40.626  10.871
74021ION    NA+46281  36.435  43.698  11.406
74022ION    NA+46282   5.756  19.700  12.593
74023ION    NA+46283   1.920   7.130   1.444
74024ION    NA+46284  35.335  30.762  13.605
74025ION    NA+46285  22.779  33.075   1.669
74026ION    NA+46286  30.193  28.855  14.347
74027ION    NA+46287  41.310   6.650   1.991
74028ION    NA+46288  17.603   5.849  10.912
74029ION    NA+46289  28.017   2.107   2.601
74030ION    NA+46290  27.597   7.700  12.974
74031ION    NA+46291  17.682   2.267  13.294
74032ION    NA+46292   4.804  20.644  14.994
74033ION    NA+46293  16.192  22.220  11.922
74034ION    NA+46294  33.354  26.995  13.849
74035ION    NA+46295   4.447   2.240   1.965
74036ION    NA+46296   1.566   2.839  12.422
74037ION    NA+46297  27.011  39.142  14.025
74038ION    NA+46298  26.079  18.278  13.054
74039ION    NA+46299  13.738  32.107  10.875
74040ION    NA+46300  20.820  35.185  11.141
74041ION    NA+46301   9.664   4.369  13.047
74042ION    NA+46302   9.840  41.675  13.290
74043ION    NA+46303  13.542  39.041  14.271
74044ION    NA+46304  16.030  12.243  11.254
74045ION    NA+46305  13.757  13.884  14.783
74046ION    NA+46306  31.834   1.762   5.329
74047ION    NA+46307  39.420   4.390  14.345
74048ION    NA+46308  13.891  21.484   0.017
74049ION    NA+46309  11.968  37.064   0.195
74050ION    NA+46310  27.317  14.040  12.711
74051ION    NA+46311  26.182  39.291  12.241
74052ION    NA+46312  25.639  11.231   3.345
74053ION    NA+46313  36.227   1.296   2.553
74054ION    NA+46314   5.096  44.835  10.667
74055ION    NA+46315  41.026   6.921   0.483
74056ION    NA+46316  17.607   8.444  14.895
74057ION    NA+46317  35.613  36.396   1.118
74058ION    NA+46318  32.831  26.600   3.625
74059ION    NA+46319   1.892  40.330  14.327
74060ION    NA+46320  33.114  32.858   1.881
74061ION    NA+46321  34.540   3.318  10.860
74062ION    NA+46322  29.143  12.927  14.482
74063ION    NA+46323   7.647   1.780   2.299
74064ION    NA+46324  44.986  29.503  13.578
74065ION    NA+46325  40.072   7.530  13.774
74066ION    NA+46326  19.851  28.200   2.374
74067ION    NA+46327   9.979  12.620   9.832
74068ION    NA+46328  11.870  27.422   2.987
74069ION    NA+46329   4.797  39.491   2.992
74070ION    NA+46330  19.251  37.990  11.466
74071ION    NA+46331  33.284   3.616   0.283
74072ION    NA+46332  35.770   1.497  13.191
74073ION    NA+46333  10.237  14.308  11.611
74074ION    NA+46334  14.640   4.204  12.571
74075ION    NA+46335  40.813  35.752  10.674
74076ION    NA+46336  39.449  33.137   3.635
74077ION    NA+46337  14.360  41.661  12.176
74078ION    NA+46338  16.681  23.630  10.825
74079ION    NA+46339  35.230  36.361  11.028
74080ION    NA+46340  23.562  17.551   2.880
74081ION    NA+46341  38.431  15.271  11.650
74082ION    NA+46342   9.543  38.246   4.231
74083ION    NA+46343  29.901  31.492   2.807
74084ION    NA+46344   0.028  41.759  11.390
74085ION    NA+46345  21.780  12.707  11.824
74086ION    NA+46346   8.508  40.881  11.771
74087ION    NA+46347  26.872  26.937   0.868
74088ION    NA+46348  35.424  38.895   0.712
74089ION    NA+46349   5.257  29.982   2.438
74090ION    NA+46350   2.733  33.506  12.061
74091ION    NA+46351  12.733  12.627   0.070
74092ION    NA+46352  35.172  35.591  11.492
74093ION    NA+46353   7.428   2.129  14.578
74094ION    NA+46354   5.422  32.548   0.623
74095ION    NA+46355  18.024   5.530  12.406
74096ION    NA+46356  31.630  22.955  13.569
74097ION    NA+46357   8.285  30.240  13.969
74098ION    NA+46358  36.145   7.815   1.424
74099ION    NA+46359  30.984   4.580   2.849
74100ION    NA+46360  31.044  16.904  10.448
74101ION    NA+46361  43.040  43.854  11.175
74102ION    NA+46362  37.455  20.550  11.579
74103ION    NA+46363  32.484  38.116  10.818
74104ION    NA+46364   4.699   3.368  10.633
74105ION    NA+46365  42.209   7.630  14.479
74106ION    NA+46366  19.425  13.449   3.175
74107ION    NA+46367   1.963   7.597   3.366
74108ION    NA+46368   4.530   7.309  14.762
74109ION    NA+46369  21.668  27.304   2.932
74110ION    NA+46370   8.419  42.506  12.931
74111ION    NA+46371   9.914   8.237  13.461
74112ION    NA+46372  30.509   4.662   1.327
74113ION    NA+46373  26.212  42.915   4.283
74114ION    NA+46374   2.268  40.176  12.107
74115ION    NA+46375  37.458  10.691   0.484
74116ION    NA+46376  22.629  14.051  10.693
74117ION    NA+46377  13.226  32.744  12.891
74118ION    NA+46378  34.457  17.129  11.717
74119ION    NA+46379   7.168  20.878  11.786
74120ION    NA+46380  38.948  41.999   3.590
74121ION    NA+46381  29.429  34.293  12.054
74122ION    NA+46382   7.778   2.810  11.156
74123ION    NA+46383   8.318  19.594  14.114
74124ION    NA+46384  43.105   1.098   0.244
74125ION    NA+46385  36.351  35.057   1.487
74126ION    NA+46386  44.377   8.155   0.351
74127ION    NA+46387  22.302  22.697  14.896
74128ION    NA+46388   4.608   8.525  10.343
74129ION    NA+46389   2.844  37.657   1.629
74130ION    NA+46390  39.849  36.913   1.173
74131ION    NA+46391  17.794  40.600  10.265
74132ION    NA+46392  38.461  39.770  13.790
74133ION    NA+46393   2.322  15.473   1.348
74134ION    NA+46394  43.936   6.279   1.426
74135ION    NA+46395  31.514  16.027   2.795
74136ION    NA+46396  38.929  28.319   1.856
74137ION    NA+46397  12.326  32.314   4.619
74138ION    NA+46398  40.865  24.058  12.885
74139ION    NA+46399  41.500  13.829  14.496
74140ION    NA+46400  43.486   7.878   3.342
74141ION    NA+46401  35.133  43.888   4.374
74142ION    NA+46402  35.981  37.625   1.366
74143ION    NA+46403  41.556   8.360  11.987
74144ION    NA+46404  23.238  18.061  10.994
74145ION    NA+46405  36.599   5.766   2.027
74146ION    NA+46406  27.490  40.034  13.117
74147ION    NA+46407  35.294  42.562   5.052
74148ION    NA+46408  20.721  21.975   1.899
74149ION    NA+46409   3.249  35.011  12.970
74150ION    NA+46410  34.920  29.862  14.744
74151ION    NA+46411  17.591  33.203   3.684
74152ION    NA+46412   7.955   1.067  13.843
74153ION    NA+46413  33.269   0.483   0.737
74154ION    NA+46414  21.326  27.303  12.667
74155ION    NA+46415  40.907  23.006  14.821
74156ION    NA+46416  11.444  15.335   3.319
74157ION    NA+46417  15.519  29.690   2.587
74158ION    NA+46418  39.748  13.671  10.813
74159ION    NA+46419   1.977  20.529   3.280
74160ION    NA+46420  39.186  36.172   1.581
74161ION    NA+46421  43.344  19.394  13.118
74162ION    NA+46422  40.242  33.347   0.556
74163ION    NA+46423  31.128  43.614   2.494
74164ION    NA+46424  23.977  44.518  12.384
74165ION    NA+46425   2.440  26.227   0.445
74166ION    NA+46426  25.627  19.879   3.103
74167ION    NA+46427  10.459   7.209  11.062
74168ION    NA+46428  29.956  12.365   2.262
74169ION    NA+46429   9.222  18.146   0.396
74170ION    NA+46430  42.791  14.847  13.171
74171ION    NA+46431   2.781   6.122   0.057
74172ION    NA+46432  19.907   1.160   4.431
74173ION    NA+46433   9.543  13.036  14.797
74174ION    NA+46434  33.599  27.130   1.903
74175ION    NA+46435   5.375   4.466  11.966
74176ION    NA+46436   0.273   5.293   3.197
74177ION    NA+46437  28.438  22.246   2.304
74178ION    NA+46438  10.771  10.858   4.169
74179ION    NA+46439   7.852  43.390   2.862
74180ION    NA+46440  11.141   4.794   0.896
74181ION    NA+46441   5.557  44.894  12.898
74182ION    NA+46442  15.838  31.213   3.361
74183ION    NA+46443  16.634  32.685   5.073
74184ION    NA+46444  16.951  29.219   4.331
74185ION    NA+46445   5.882  29.344   1.564
74186ION    NA+46446  40.623   3.356   3.304
74187ION    NA+46447  38.129  27.930   4.380
74188ION    NA+46448  25.185   3.984   2.734
74189ION    NA+46449  29.275  36.789   1.748
74190ION    NA+46450  16.538   6.654   9.659
74191ION    NA+46451  39.751  18.867   4.594
74192ION    NA+46452   6.184  17.976   9.506
74193ION    NA+46453  18.754   9.563  10.622
74194ION    NA+46454  31.725   4.690   2.339
74195ION    NA+46455   7.547  17.764   0.862
74196ION    NA+46456  38.478  21.652  11.994
74197ION    NA+46457  18.001  41.029   4.922
74198ION    NA+46458   8.032  25.732  12.081
74199ION    NA+46459  12.071  21.992  11.472
74200ION    NA+46460  32.318  21.486  13.401
74201ION    NA+46461  43.306  35.224  13.833
74202ION    NA+46462  23.518  27.727  10.989
74203ION    NA+46463  23.698  29.600  12.398
74204ION    NA+46464  28.534  16.566  14.214
74205ION    NA+46465   8.193   1.881   0.225
74206ION    NA+46466   8.844   1.910   3.783
74207ION    NA+46467  28.485  25.847   1.967
74208ION    NA+46468   9.137  41.931  13.953
74209ION    NA+46469  28.992  37.088  11.313
74210ION    NA+46470  14.782  43.502   4.370
74211ION    NA+46471  11.048  34.661   4.124
74212ION    NA+46472   5.677   2.968  10.719
74213ION    NA+46473  10.360  33.997   4.414
74214ION    NA+46474  15.520   6.143  14.402
74215ION    NA+46475  24.420   9.683  12.095
74216ION    NA+46476  11.305  28.058  12.071
74217ION    NA+46477  34.121  15.715   2.701
74218ION    NA+46478  24.299  18.242  14.114
74219ION    NA+46479  28.965   7.171   2.223
74220ION    NA+46480  35.327  28.769   3.261
74221ION    NA+46481  38.650  37.654   0.466
74222ION    NA+46482  17.433  15.285   4.591
74223ION    NA+46483  21.872   0.198   0.792
74224ION    NA+46484   4.834  11.803  11.155
74225ION    NA+46485  36.426  39.494   1.617
74226ION    NA+46486  14.188  17.489   1.935
74227ION    NA+46487  15.326   2.282   1.504
74228ION    NA+46488   0.966  27.062   3.169
74229ION    NA+46489   0.671  33.436  12.175
74230ION    NA+46490  32.283   4.560   4.575
74231ION    NA+46491  37.165  19.503  14.983
74232ION    NA+46492  20.659  40.444  13.175
74233ION    NA+46493  14.286   5.319  11.409
74234ION    NA+46494  14.222  41.187  13.564
74235ION    NA+46495  21.269  16.803  11.152
74236ION    NA+46496   0.504  32.086   4.349
74237ION    NA+46497  28.518  32.061  12.036
74238ION    NA+46498   2.367  24.526  12.831
74239ION    NA+46499  27.699  16.197   4.163
74240ION    NA+46500  14.140  19.657  12.935
74241ION    NA+46501  39.519  34.658   2.267
74242ION    NA+46502  13.614  43.553  11.514
74243ION    NA+46503  21.978  31.514   3.766
74244ION    NA+46504  17.500  31.649   2.938
74245ION    NA+46505   2.075  41.367  13.061
74246ION    NA+46506  38.580  13.103   3.630
74247ION    NA+46507  31.920  33.009  14.718
74248ION    NA+46508   9.939  24.989  13.568
74249ION    NA+46509   1.411  11.925  12.675
74250ION    NA+46510  32.063   8.827  12.015
74251ION    NA+46511  32.007  29.468   1.242
74252ION    NA+46512  26.890  44.554   0.927
74253ION    NA+46513   7.597  25.799   0.217
74254ION    NA+46514  25.881  27.928  13.232
74255ION    NA+46515  31.908   7.154   1.278
74256ION    NA+46516  23.642   3.724  11.964
74257ION    NA+46517  22.076  43.926  10.722
74258ION    NA+46518  14.192  36.516   0.789
74259ION    NA+46519  19.026  16.968  14.929
74260ION    NA+46520  20.182  12.618  14.348
74261ION    NA+46521  12.178   5.966   1.368
74262ION    NA+46522  25.205  39.967   2.697
74263ION    NA+46523  32.591  10.818  10.740
74264ION    NA+46524   9.472  26.704  13.609
74265ION    NA+46525   7.251   0.986   1.803
74266ION    NA+46526  42.749   3.937   0.498
74267ION    NA+46527   6.854   7.848   0.316
74268ION    NA+46528   3.518  17.817   1.706
74269ION    NA+46529  39.124  15.664  14.764
74270ION    NA+46530  43.195  18.863  12.444
74271ION    NA+46531  12.494  17.501   1.272
74272ION    NA+46532  22.933  37.905   2.717
74273ION    NA+46533   1.533   0.892   0.849
74274ION    NA+46534  14.350  32.341   4.580
74275ION    NA+46535  16.133  15.649   2.286
74276ION    NA+46536  15.900   9.912  12.687
74277ION    NA+46537  18.160   8.159  12.001
74278ION    NA+46538  32.303  15.566  11.630
74279ION    NA+46539  19.195   1.167   2.858
74280ION    NA+46540  36.544   4.374   3.131
74281ION    NA+46541  26.258  12.749  10.698
74282ION    NA+46542  39.232  33.534  12.058
74283ION    NA+46543   5.094  39.804  14.558
74284ION    NA+46544  42.316  14.584   4.636
74285ION    NA+46545  36.051  15.383  13.286
74286ION    NA+46546  14.751   7.614  13.129
74287ION    NA+46547   1.086  43.393   1.631
74288ION    NA+46548  15.827  32.836   0.688
74289ION    NA+46549  23.146   9.371  11.560
74290ION    NA+46550  22.769  35.420   2.540
74291ION    NA+46551  43.365  35.560  14.806
74292ION    NA+46552   7.317  10.380  11.538
74293ION    NA+46553   2.791  12.728   1.478
74294ION    NA+46554  10.463  44.231   3.814
74295ION    NA+46555  29.277  32.197  11.382
74296ION    NA+46556   0.742  32.485  11.130
74297ION    NA+46557  21.014   5.938   1.893
74298ION    NA+46558  13.568  22.246   4.223
74299ION    NA+46559  30.130  38.342  11.374
74300ION    NA+46560  19.178  20.036  11.085
74301ION    NA+46561  33.005  42.106  12.256
74302ION    NA+46562  18.765  38.898   3.758
74303ION    NA+46563  25.470  23.913   3.889
74304ION    NA+46564  21.877  26.470   0.828
74305ION    NA+46565  11.203  20.263  12.602
74306ION    NA+46566  42.259   2.420   5.086
74307ION    NA+46567   3.428  18.202   0.487
74308ION    NA+46568  33.089   4.359  11.381
74309ION    NA+46569   7.680  34.869  12.107
74310ION    NA+46570  40.175  19.179   2.300
74311ION    NA+46571  19.847  25.921  11.167
74312ION    NA+46572  15.065  21.024   4.197
74313ION    NA+46573  32.527  29.298   4.077
74314ION    NA+46574  32.162  16.751  13.472
74315ION    NA+46575  39.167  27.234   2.361
74316ION    NA+46576  11.071  17.762   2.936
74317ION    NA+46577  34.025  21.233  12.986
74318ION    NA+46578   7.746   6.659  12.595
74319ION    NA+46579  33.619  28.115   2.404
74320ION    NA+46580  14.160   7.129   3.589
74321ION    NA+46581  29.587   5.237  13.837
74322ION    NA+46582   6.005  30.975   3.710
74323ION    NA+46583  38.385  20.304  11.238
74324ION    NA+46584  24.908   1.891  11.932
74325ION    NA+46585  40.846  16.051   3.938
74326ION    NA+46586  26.704   2.505  12.391
74327ION    NA+46587   1.997   4.979  11.987
74328ION    NA+46588  16.324  24.615   2.212
74329ION    NA+46589  32.409  31.375  13.723
74330ION    NA+46590  28.359  12.652  13.608
74331ION    NA+46591   3.213  39.788  12.875
74332ION    NA+46592  40.917  19.637  11.586
74333ION    NA+46593   8.478  15.657  10.784
74334ION    NA+46594  43.078  36.574  13.818
74335ION    NA+46595  11.925  23.040   4.342
74336ION    NA+46596  24.605  24.531   1.698
74337ION    NA+46597  41.863   4.847  13.345
74338ION    NA+46598   8.152  19.795   4.131
74339ION    NA+46599  34.117   9.308   2.416
74340ION    NA+46600  15.047  21.199  13.481
74341ION    NA+46601   6.438  35.224   1.756
74342ION    NA+46602  19.442  41.640  13.269
74343ION    NA+46603  26.039  18.674  13.550
74344ION    NA+46604  20.966  28.304  14.260
74345ION    NA+46605  32.283  22.178   3.330
74346ION    NA+46606   9.797   2.980  11.291
74347ION    NA+46607  22.677  31.201  10.685
74348ION    NA+46608   4.416   3.542  12.052
74349ION    NA+46609  16.360   1.015  12.013
74350ION    NA+46610  38.694  16.694   2.670
74351ION    NA+46611   9.845  10.763   1.242
74352ION    NA+46612  28.697  28.619  10.987
74353ION    NA+46613  14.062  25.387  12.386
74354ION    NA+46614   1.298  19.328   0.918
74355ION    NA+46615  25.029  40.446  12.988
74356ION    NA+46616  22.276  41.447   3.595
74357ION    NA+46617  43.969  24.132  14.059
74358ION    NA+46618  31.693  30.816  14.368
74359ION    NA+46619  40.585  39.853  11.365
74360ION    NA+46620  30.761  17.567   0.578
74361ION    NA+46621  11.354  27.020  10.411
74362ION    NA+46622  23.531   7.454  10.659
74363ION    NA+46623  41.267  27.985  12.851
74364ION    NA+46624  15.340  15.162   2.866
74365ION    NA+46625   2.427  11.425   1.860
74366ION    NA+46626   8.770   1.712   1.402
74367ION    NA+46627  10.151  27.802   4.162
74368ION    NA+46628  19.309  44.559   4.742
74369ION    NA+46629  38.756   5.269   1.763
74370ION    NA+46630   0.117  34.709  14.505
74371ION    NA+46631  33.681  20.727   1.357
74372ION    NA+46632  11.733  44.244   5.250
74373ION    NA+46633  19.027  31.511   2.775
74374ION    NA+46634   8.843  25.098   3.251
74375ION    NA+46635   4.277  11.399   1.778
74376ION    NA+46636  19.446  20.406   1.938
74377ION    NA+46637  18.957  24.037   2.662
74378ION    NA+46638  22.344  44.649  11.440
74379ION    NA+46639  44.029  23.655   1.376
74380ION    NA+46640  16.293  12.696  14.717
74381ION    NA+46641   5.614  28.209  10.369
74382ION    NA+46642   0.443  30.728  13.574
74383ION    NA+46643  15.292  24.201  14.956
74384ION    NA+46644  23.634  24.173   3.277
74385ION    NA+46645  41.639  14.824  12.527
74386ION    NA+46646  43.110  39.259   0.830
74387ION    NA+46647  30.734  24.652   0.498
74388ION    NA+46648  19.772  23.755  14.830
74389ION    NA+46649  33.659  19.303   2.993
74390ION    NA+46650  43.278  35.119   3.120
74391ION    NA+46651   0.103  44.928   0.341
74392ION    NA+46652   7.078  12.300  13.794
74393ION    NA+46653  12.636  25.138   0.831
74394ION    NA+46654  16.851  36.715  13.598
74395ION    NA+46655  15.314   0.775  12.564
74396ION    NA+46656  27.630  10.923   4.362
74397ION    NA+46657  11.493   7.968  11.844
74398ION    NA+46658  34.200  35.816  11.560
74399ION    NA+46659  33.989  41.517  13.619
74400ION    NA+46660   6.494  42.817  14.848
74401ION    NA+46661  20.900   0.572  10.743
74402ION    NA+46662   9.969  16.689  14.972
74403ION    NA+46663  17.135  41.890  11.149
74404ION    NA+46664  42.870  36.673  10.362
74405ION    NA+46665  40.752  11.386   1.801
74406ION    NA+46666  13.446   5.418  14.632
74407ION    NA+46667  32.631  21.409  11.269
74408ION    NA+46668  27.951   9.268   2.248
74409ION    NA+46669  38.063   8.403   3.342
74410ION    NA+46670  22.656  37.746  14.835
74411ION    NA+46671   5.759  28.439   1.629
74412ION    NA+46672  37.308   6.792   3.791
74413ION    NA+46673  10.055  33.179   2.964
74414ION    NA+46674   8.331  26.122   9.365
74415ION    NA+46675  31.530   3.882   0.320
74416ION    NA+46676  15.284  11.725  13.896
74417ION    NA+46677  34.733  35.744   1.309
74418ION    NA+46678  27.497  30.624  13.818
74419ION    NA+46679  15.314   6.658  12.438
74420ION    NA+46680  34.973  17.110   5.425
74421ION    NA+46681  21.485  16.675   3.841
74422ION    NA+46682   9.602  17.119   3.589
74423ION    NA+46683  42.799  39.054   2.564
74424ION    NA+46684  17.300  39.001  12.576
74425ION    NA+46685  25.185  35.870   2.420
74426ION    NA+46686   4.659  44.543   4.060
74427ION    NA+46687  43.138  28.970   2.062
74428ION    NA+46688   7.751  39.235   0.470
74429ION    NA+46689  25.642  31.387   1.098
74430ION    NA+46690  15.808   5.062   3.100
74431ION    NA+46691  37.952  27.183  10.685
74432ION    NA+46692  26.706   8.935   2.463
74433ION    NA+46693  32.009  13.839   3.861
74434ION    NA+46694  39.917  30.699   0.480
74435ION    NA+46695   5.341  27.053   3.621
74436ION    NA+46696  31.206   5.032   4.079
74437ION    NA+46697  29.395  16.899  12.472
74438ION    NA+46698  42.732  22.213   3.066
74439ION    NA+46699  19.110  40.294   2.256
74440ION    NA+46700   9.679  32.327   2.304
74441ION    NA+46701  17.479  31.016   3.426
74442ION    NA+46702  23.220   9.810   3.326
74443ION    NA+46703  29.341  26.695  13.677
74444ION    NA+46704  37.973  17.004   0.789
74445ION    NA+46705  44.150  12.945  11.175
74446ION    NA+46706  33.556  19.370   4.792
74447ION    NA+46707  12.105  30.194   0.228
74448ION    NA+46708  30.283   7.115   4.804
74449ION    NA+46709  34.012  37.291   2.688
74450ION    NA+46710  32.372  10.108   4.765
74451ION    NA+46711  32.611  20.262   3.147
74452ION    NA+46712   1.596  27.484   4.290
74453ION    NA+46713  10.602   7.187  13.589
74454ION    NA+46714  15.556  37.964   4.988
74455ION    NA+46715  12.850  13.352  13.854
74456ION    NA+46716  18.711   9.608  14.174
74457ION    NA+46717  28.277  27.358  13.884
74458ION    NA+46718  24.640  22.023  11.597
74459ION    NA+46719  11.802   7.255  13.181
74460ION    NA+46720  16.152  44.279   0.393
74461ION    NA+46721   9.887  24.345  12.626
74462ION    NA+46722  41.085  33.191   2.773
74463ION    NA+46723   0.635  18.078   3.666
74464ION    NA+46724  13.636  40.498   3.140
74465ION    NA+46725  21.858  15.977  11.346
74466ION    NA+46726  29.367  17.937  12.146
74467ION    NA+46727   1.062  15.615  12.248
74468ION    NA+46728  42.059  38.532   0.226
74469ION    NA+46729   7.506   0.679   4.121
74470ION    NA+46730   6.368  28.768   5.538
74471ION    NA+46731  17.775   6.484   4.265
74472ION    NA+46732  40.936   2.126  12.849
74473ION    NA+46733  26.506  25.286   0.274
74474ION    NA+46734  36.751  20.442   5.420
74475ION    NA+46735   7.873  29.643   1.019
74476ION    NA+46736  29.842  18.470   4.169
74477ION    NA+46737   0.813  19.507   0.335
74478ION    NA+46738  36.086  25.211   2.179
74479ION    NA+46739  19.875  12.950   0.541
74480ION    NA+46740   9.456  14.258   3.127
74481ION    NA+46741  21.409  20.323  11.427
74482ION    NA+46742  22.176  35.717   3.208
74483ION    NA+46743  23.278  20.136   5.580
74484ION    NA+46744  44.743  37.822   1.877
74485ION    NA+46745  40.860  42.107  14.286
74486ION    NA+46746  33.426  22.142  11.883
74487ION    NA+46747  35.544  25.892   0.160
74488ION    NA+46748  44.993  25.892   4.240
74489ION    NA+46749  31.588  40.869  14.026
74490ION    NA+46750  30.972  35.709   4.135
74491ION    NA+46751  16.078   8.622  12.935
74492ION    NA+46752  23.665  13.868   2.038
74493ION    NA+46753  14.112  24.686   3.366
74494ION    NA+46754  39.748  44.001  13.289
74495ION    NA+46755  32.126  35.536  14.320
74496ION    NA+46756   4.493  14.800  13.422
74497ION    NA+46757  13.273  38.134  14.594
74498ION    NA+46758  13.554  40.565   0.224
74499ION    NA+46759  43.198  28.859   2.911
74500ION    NA+46760  15.068  32.096   1.139
74501ION    NA+46761   0.618  29.529  12.580
74502ION    NA+46762  38.297  11.140   3.341
74503ION    NA+46763   9.044  23.627   2.700
74504ION    NA+46764  14.417  13.383   3.276
74505ION    NA+46765   2.178  27.862   3.694
74506ION    NA+46766   8.330  18.628   3.572
74507ION    NA+46767  32.207  14.805   4.022
74508ION    NA+46768  37.264  43.440  11.292
74509ION    NA+46769  19.937  31.028  11.739
74510ION    NA+46770  15.153  10.680   2.643
74511ION    NA+46771  19.731  29.525   1.883
74512ION    NA+46772  42.907  41.504   3.689
74513ION    NA+46773   1.608  19.833   0.108
74514ION    NA+46774  36.563  41.009   0.721
74515ION    NA+46775  38.997  40.490  10.716
74516ION    NA+46776  21.714  17.678  10.565
74517ION    NA+46777  31.010  30.973   2.717
74518ION    NA+46778  34.778  41.848   2.797
74519ION    NA+46779  28.069   3.691   3.898
74520ION    NA+46780  30.897  12.883   4.648
74521ION    NA+46781  24.644  16.325   1.202
74522ION    NA+46782  31.924   0.538   3.611
74523ION    NA+46783   9.848   6.906   4.633
74524ION    NA+46784  37.494  42.096  13.369
74525ION    NA+46785  29.521  12.646   3.858
74526ION    NA+46786  38.833  37.641  11.533
74527ION    NA+46787  27.409  34.504   3.831
74528ION    NA+46788   3.305  14.564   0.194
74529ION    NA+46789  44.733  10.817   0.892
74530ION    NA+46790  24.343  34.995  11.560
74531ION    NA+46791  27.241   4.699  13.908
74532ION    NA+46792  12.222  31.907  12.000
74533ION    NA+46793  10.475  32.467   1.594
74534ION    NA+46794  30.904  42.950   4.566
74535ION    NA+46795  12.572  27.409   1.274
74536ION    NA+46796   9.262  40.465   3.398
74537ION    NA+46797  32.763  24.538  13.961
74538ION    NA+46798  33.862  19.450  11.377
74539ION    NA+46799  40.787   1.685  13.734
74540ION    NA+46800  10.650  31.365   1.596
74541ION    NA+46801  25.242  13.813  14.052
74542ION    NA+46802   9.384  19.729   4.136
74543ION    NA+46803  11.661   9.711   2.670
74544ION    NA+46804  31.479  32.862   0.732
74545ION    NA+46805  13.021  15.121  11.063
74546ION    NA+46806  41.658  28.940   0.873
74547ION    NA+46807  21.336   2.678  14.637
74548ION    NA+46808  20.568  38.921  12.872
74549ION    NA+46809   9.657  31.416   1.488
74550ION    NA+46810  41.963  36.516   1.768
74551ION    NA+46811  35.838  32.009  14.703
74552ION    NA+46812  40.478  19.265  14.897
74553ION    NA+46813   6.679  44.930  11.559
74554ION    NA+46814  15.492   5.759   3.597
74555ION    NA+46815  13.231  38.955   0.194
74556ION    NA+46816  25.740  33.131   1.790
74557ION    NA+46817  15.551  32.522  13.415
74558ION    NA+46818  15.870   2.302  13.821
74559ION    NA+46819  27.356  33.005  14.097
74560ION    NA+46820  44.724  18.035   4.077
74561ION    NA+46821  38.760   7.961  14.474
74562ION    NA+46822  37.715  20.660   2.477
74563ION    NA+46823  30.663   7.525   4.153
74564ION    NA+46824   4.932  11.063  13.011
74565ION    NA+46825  20.336  23.098   2.927
74566ION    NA+46826  26.937  26.897  12.756
74567ION    NA+46827  14.485  24.970   9.533
74568ION    NA+46828  27.541  18.178   1.674
74569ION    NA+46829  32.808  27.855   1.826
74570ION    NA+46830  23.625  18.122   3.699
74571ION    NA+46831  10.894  24.646  12.738
74572ION    NA+46832  14.320  40.779  14.517
74573ION    NA+46833   2.203  33.615  12.964
74574ION    NA+46834  43.537  13.604  14.850
74575ION    NA+46835  15.650  23.010   0.078
74576ION    NA+46836  32.921  40.781   2.600
74577ION    NA+46837  11.830  12.098  12.649
74578ION    NA+46838   3.739   0.359   1.679
74579ION    NA+46839  15.852  33.095  12.592
74580ION    NA+46840  26.632  25.232   1.264
74581ION    NA+46841  33.606  27.300  11.654
74582ION    NA+46842  20.299  17.741  14.347
74583ION    CL-46843  30.006  28.537  14.079
74584ION    CL-46844  26.805  26.671   3.683
74585ION    CL-46845  25.699  20.830  12.535
74586ION    CL-46846  34.012  22.108   1.716
74587ION    CL-46847   1.213  11.657  12.985
74588ION    CL-46848  24.705   2.526   5.000
74589ION    CL-46849  17.868  29.527   3.703
74590ION    CL-46850  29.759  43.410   4.230
74591ION    CL-46851  43.462   3.174   5.093
74592ION    CL-46852   9.534  11.016  10.913
74593ION    CL-46853  39.802  36.097  11.982
74594ION    CL-46854  28.774  18.317   3.099
74595ION    CL-46855  44.348  30.387   0.239
74596ION    CL-46856  18.039  20.789   4.111
74597ION    CL-46857  27.012  16.267   2.580
74598ION    CL-46858  27.442  28.431   1.024
74599ION    CL-46859  31.311   2.249  10.232
74600ION    CL-46860  13.574   5.730  14.940
74601ION    CL-46861  15.126  16.504  11.147
74602ION    CL-46862   4.449  16.588  11.587
74603ION    CL-46863  25.881  27.501  13.081
74604ION    CL-46864  26.028  33.645  13.445
74605ION    CL-46865  22.488  25.544   2.276
74606ION    CL-46866  15.634   5.410   3.339
74607ION    CL-46867  41.030  44.370   0.917
74608ION    CL-46868   5.191  32.913   0.748
74609ION    CL-46869  16.928  34.804  14.071
74610ION    CL-46870  39.996  39.883   0.945
74611ION    CL-46871   8.469  16.860  13.504
74612ION    CL-46872  37.677  20.109  12.569
74613ION    CL-46873   1.923   0.702   4.719
74614ION    CL-46874  38.769  16.081   1.759
74615ION    CL-46875  37.590  38.809   0.904
74616ION    CL-46876  31.632  28.291   3.197
74617ION    CL-46877  25.922  18.727  13.092
74618ION    CL-46878   7.053  21.808   1.397
74619ION    CL-46879  41.957  44.600  11.081
74620ION    CL-46880  10.531  18.092   0.612
74621ION    CL-46881  21.285  28.609  14.369
74622ION    CL-46882   6.423  14.445  13.326
74623ION    CL-46883   3.403  38.132  14.620
74624ION    CL-46884  36.540  18.579  10.135
74625ION    CL-46885  12.050   0.427  11.444
74626ION    CL-46886  36.147  14.950  13.341
74627ION    CL-46887   4.114  19.759   3.658
74628ION    CL-46888   7.758  37.377   3.594
74629ION    CL-46889   5.807  28.029   1.816
74630ION    CL-46890  12.267   5.753   0.987
74631ION    CL-46891  41.516  12.689   1.091
74632ION    CL-46892  20.990  11.967  13.576
74633ION    CL-46893   1.185  32.437  11.174
74634ION    CL-46894  20.115  43.474   3.718
74635ION    CL-46895  12.074  36.074  11.157
74636ION    CL-46896  21.304  29.297  11.230
74637ION    CL-46897  24.122  15.284   4.337
74638ION    CL-46898  16.329   9.836  12.553
74639ION    CL-46899  38.009   6.433   0.226
74640ION    CL-46900  17.033  24.204  13.388
74641ION    CL-46901  33.278   5.837   3.276
74642ION    CL-46902  39.932   5.164  13.392
74643ION    CL-46903  24.118  35.107   1.500
74644ION    CL-46904  27.435  41.497  10.508
74645ION    CL-46905  43.991  33.123   2.187
74646ION    CL-46906  29.072   3.331  14.927
74647ION    CL-46907  24.811  16.582   1.526
74648ION    CL-46908   3.773  10.450  13.712
74649ION    CL-46909  26.428  36.914   3.649
74650ION    CL-46910  33.481   5.859  12.897
74651ION    CL-46911  38.790  40.831  12.900
74652ION    CL-46912  41.937  11.569  10.913
74653ION    CL-46913   8.265  21.582   0.294
74654ION    CL-46914  30.159  30.493   3.071
74655ION    CL-46915  17.323  33.179   3.320
74656ION    CL-46916   7.354  31.445  13.611
74657ION    CL-46917   5.124  24.207  14.448
74658ION    CL-46918  14.576  36.816   3.187
74659ION    CL-46919  19.534   8.397   4.213
74660ION    CL-46920  42.767  27.505   3.793
74661ION    CL-46921   7.875  41.442   0.713
74662ION    CL-46922  15.138  44.650  14.129
74663ION    CL-46923   0.104   3.921  14.530
74664ION    CL-46924  32.143  24.723   4.819
74665ION    CL-46925  19.695  40.954   4.320
74666ION    CL-46926  18.746  29.098   1.304
74667ION    CL-46927  34.823   1.671   1.381
74668ION    CL-46928  43.967  38.511   3.843
74669ION    CL-46929  12.356  43.083  10.992
74670ION    CL-46930   4.841   0.163   0.676
74671ION    CL-46931  41.982  39.011  10.412
74672ION    CL-46932  22.923  35.427   2.111
74673ION    CL-46933  17.889   6.890  14.016
74674ION    CL-46934  31.656   6.238   3.309
74675ION    CL-46935  37.774  13.385   4.086
74676ION    CL-46936  18.100  14.104   3.272
74677ION    CL-46937  27.762  34.150  11.381
74678ION    CL-46938   2.665  16.807   3.406
74679ION    CL-46939  40.831  17.214   1.956
74680ION    CL-46940   4.682   1.887   1.744
74681ION    CL-46941   0.461  18.602   4.942
74682ION    CL-46942  34.171   7.415   2.471
74683ION    CL-46943  30.562  28.698   1.747
74684ION    CL-46944   1.000   8.135  11.810
74685ION    CL-46945  20.766  42.958   2.727
74686ION    CL-46946   1.998  28.841  11.568
74687ION    CL-46947  41.184  11.462   1.900
74688ION    CL-46948  22.237  30.249   0.029
74689ION    CL-46949  26.777  42.472  12.406
74690ION    CL-46950  40.751  42.327  12.930
74691ION    CL-46951  32.931  42.780   1.349
74692ION    CL-46952  42.010  10.519  11.586
74693ION    CL-46953   4.433  39.515   2.718
74694ION    CL-46954  42.390  13.519  13.414
74695ION    CL-46955   1.243  19.548   0.169
74696ION    CL-46956  40.109   5.716  11.219
74697ION    CL-46957   4.728  16.475  12.540
74698ION    CL-46958  28.862  33.173   9.862
74699ION    CL-46959  35.127  26.648  10.295
74700ION    CL-46960  23.449  27.847  14.044
74701ION    CL-46961  40.116  34.533  14.829
74702ION    CL-46962   9.955  35.413  14.554
74703ION    CL-46963  30.272  27.109   0.815
74704ION    CL-46964  18.763   2.398   1.826
74705ION    CL-46965  38.952  18.746   0.765
74706ION    CL-46966  10.207  12.079   0.826
74707ION    CL-46967  27.945  42.933   2.455
74708ION    CL-46968  13.913  24.986   3.631
74709ION    CL-46969   7.926  36.232   2.150
74710ION    CL-46970  29.619  33.872   3.248
74711ION    CL-46971   6.478  34.039  10.802
74712ION    CL-46972  27.191  39.524   5.099
74713ION    CL-46973  22.907  16.527  14.182
74714ION    CL-46974  43.205  31.976  10.791
74715ION    CL-46975   3.700  43.056   2.543
74716ION    CL-46976   2.426  25.904  12.077
74717ION    CL-46977  20.197  24.793   4.622
74718ION    CL-46978   2.999   2.529  10.600
74719ION    CL-46979   3.261   5.728   2.817
74720ION    CL-46980  21.303  12.004   3.368
74721ION    CL-46981  24.256  33.986  12.260
74722ION    CL-46982  14.894  10.309   2.761
74723ION    CL-46983  35.762  19.423  12.383
74724ION    CL-46984  30.826  17.549  12.470
74725ION    CL-46985  35.510  37.990  10.697
74726ION    CL-46986   3.505   4.341   0.618
74727ION    CL-46987  13.475  43.839  11.205
74728ION    CL-46988  12.451  31.804  12.379
74729ION    CL-46989   1.570  44.671   3.662
74730ION    CL-46990  37.572  17.342  10.331
74731ION    CL-46991   7.670  19.673   2.768
74732ION    CL-46992  10.408  42.413   1.122
74733ION    CL-46993  30.842   1.029   2.141
74734ION    CL-46994  24.428   0.206   5.090
74735ION    CL-46995  15.892   1.248  11.126
74736ION    CL-46996  14.112   8.515   3.890
74737ION    CL-46997  31.058  26.337   0.765
74738ION    CL-46998   4.155  10.408  11.868
74739ION    CL-46999  36.586  10.894   1.363
74740ION    CL-47000   3.976  33.635  11.171
74741ION    CL-47001   8.130  40.974   2.612
74742ION    CL-47002   4.477  17.330  10.916
74743ION    CL-47003  27.359  34.930   1.278
74744ION    CL-47004   9.922  34.939  13.049
74745ION    CL-47005  16.219   6.683  12.901
74746ION    CL-47006   9.011  37.335   1.103
74747ION    CL-47007  21.066   8.864   2.643
74748ION    CL-47008  25.136  26.253   1.165
74749ION    CL-47009  13.077  30.136  12.467
74750ION    CL-47010  15.744  35.637  12.428
74751ION    CL-47011  16.230  18.679  13.382
74752ION    CL-47012   0.450  36.293  13.629
74753ION    CL-47013  27.759  35.377   4.207
74754ION    CL-47014  43.300  12.393   4.976
74755ION    CL-47015   6.206  41.953   1.510
74756ION    CL-47016  29.413  18.453   4.295
74757ION    CL-47017  42.982  12.521   0.985
74758ION    CL-47018   6.118  41.042  11.879
74759ION    CL-47019   2.108  11.562  10.351
74760ION    CL-47020  17.123  11.011  14.236
74761ION    CL-47021  30.281  29.945  11.875
74762ION    CL-47022   5.198  39.529   3.215
74763ION    CL-47023  40.411   4.804   2.093
74764ION    CL-47024  38.456  18.666  13.445
74765ION    CL-47025  26.678  18.106   9.867
74766ION    CL-47026   1.236  14.098  12.092
74767ION    CL-47027  28.856   8.156   1.265
74768ION    CL-47028  26.484  26.347   4.322
74769ION    CL-47029   0.054  20.707   4.918
74770ION    CL-47030  26.695  12.888   0.818
74771ION    CL-47031   6.065  22.367   2.973
74772ION    CL-47032  37.577  15.390   3.710
74773ION    CL-47033   8.619  44.758   2.230
74774ION    CL-47034   0.573  23.677  13.982
74775ION    CL-47035  37.578  14.607  14.937
74776ION    CL-47036  13.640   8.953   0.836
74777ION    CL-47037  32.904  19.221  12.374
74778ION    CL-47038  17.567  20.144  14.069
74779ION    CL-47039  34.079  17.425  13.076
74780ION    CL-47040  30.619  12.021   3.811
74781ION    CL-47041   7.734  17.968   0.499
74782ION    CL-47042  25.856  23.241   2.594
74783ION    CL-47043  41.018  14.069   4.608
74784ION    CL-47044   8.099   5.124   4.001
74785ION    CL-47045  19.372  18.876   3.049
74786ION    CL-47046  43.990  14.703   2.549
74787ION    CL-47047  33.713  15.122   3.683
74788ION    CL-47048   9.812   0.793   2.491
74789ION    CL-47049  12.288  41.278   0.423
74790ION    CL-47050   3.599  17.366  10.229
74791ION    CL-47051  43.364  36.686   3.375
74792ION    CL-47052   4.269   2.345  13.367
74793ION    CL-47053  42.119  41.439  11.558
74794ION    CL-47054   1.807  19.079   3.719
74795ION    CL-47055  39.593  22.485   0.575
74796ION    CL-47056  18.258  36.590  11.940
74797ION    CL-47057  22.573  31.901   9.908
74798ION    CL-47058  13.041  30.076  11.172
74799ION    CL-47059  29.869  42.137   1.346
74800ION    CL-47060  35.744   4.142  11.249
74801ION    CL-47061  18.027  10.881  11.868
74802ION    CL-47062  17.287  31.899   0.741
74803ION    CL-47063  25.241  38.109   0.490
74804ION    CL-47064   9.854  20.703  11.922
74805ION    CL-47065  21.638  10.204   3.341
74806ION    CL-47066  13.889  32.401   4.598
74807ION    CL-47067   8.581  31.408   0.808
74808ION    CL-47068   0.695  44.797   3.788
74809ION    CL-47069  35.396   5.615  12.782
74810ION    CL-47070  20.048  36.246   0.896
74811ION    CL-47071  32.702  22.365   3.347
74812ION    CL-47072  24.980  15.287   3.705
74813ION    CL-47073  12.888  17.711   1.311
74814ION    CL-47074   1.339  24.839   4.025
74815ION    CL-47075  10.209  14.745  11.529
74816ION    CL-47076   2.435  42.977  11.642
74817ION    CL-47077   7.492  20.409  12.477
74818ION    CL-47078   8.284   8.421  14.368
74819ION    CL-47079   5.442  29.612  11.282
74820ION    CL-47080  29.916   3.694   1.710
74821ION    CL-47081  37.300   7.127   4.090
74822ION    CL-47082  36.426  31.000  11.303
74823ION    CL-47083   4.639  30.779  12.290
74824ION    CL-47084  11.369   9.106   0.228
74825ION    CL-47085   1.186  21.193   2.215
74826ION    CL-47086   4.180  41.423  14.519
74827ION    CL-47087  21.440  14.943   2.176
74828ION    CL-47088  39.440  11.903   0.361
74829ION    CL-47089  22.809   1.518  11.554
74830ION    CL-47090  38.700  31.310   4.818
74831ION    CL-47091   2.265  24.155  11.577
74832ION    CL-47092   5.830  28.892   1.545
74833ION    CL-47093  43.239  10.330  11.678
74834ION    CL-47094  30.097  31.654  10.573
74835ION    CL-47095  42.503  38.478   3.897
74836ION    CL-47096   5.998  35.155   1.782
74837ION    CL-47097   2.003   5.835   2.100
74838ION    CL-47098   7.466  36.435  11.560
74839ION    CL-47099   8.925  41.085  11.660
74840ION    CL-47100  41.911  15.729   0.766
74841ION    CL-47101  32.307  34.402   2.646
74842ION    CL-47102  14.364  28.080   1.320
74843ION    CL-47103  40.891   5.180  14.773
74844ION    CL-47104  30.380  29.186  14.599
74845ION    CL-47105   2.257   5.183  13.132
74846ION    CL-47106  11.713  20.019   0.423
74847ION    CL-47107  29.425  32.978  13.951
74848ION    CL-47108  19.285  12.734  14.518
74849ION    CL-47109  44.399  40.047  12.580
74850ION    CL-47110   0.289  41.317   3.512
74851ION    CL-47111   4.652  30.191  11.482
74852ION    CL-47112  14.045   4.768   4.682
74853ION    CL-47113  41.066  41.342  12.949
74854ION    CL-47114  43.754  10.045   5.079
74855ION    CL-47115   5.793   7.419  11.262
74856ION    CL-47116  30.161   9.993   4.585
74857ION    CL-47117  44.156  37.505   4.545
74858ION    CL-47118   9.459  27.428   1.376
74859ION    CL-47119   9.555  28.126   1.897
74860ION    CL-47120  25.278   4.099   4.463
74861ION    CL-47121  37.862  24.627  12.489
74862ION    CL-47122   2.766  16.528  10.000
74863ION    CL-47123  30.376  26.685  10.941
74864ION    CL-47124  32.974  42.597  10.987
74865ION    CL-47125   2.365   2.642  10.039
74866ION    CL-47126   9.691   1.013  13.489
74867ION    CL-47127  33.920  19.009  11.349
74868ION    CL-47128  27.646  40.879   2.950
74869ION    CL-47129  38.773  17.156  13.746
74870ION    CL-47130  33.913  35.992  11.270
74871ION    CL-47131  43.024   7.809   0.518
74872ION    CL-47132   8.107  41.188  11.951
74873ION    CL-47133  23.120   1.248  14.995
74874ION    CL-47134  39.013  24.374   2.839
74875ION    CL-47135  23.705  11.885  12.378
74876ION    CL-47136  11.633   3.052  10.697
74877ION    CL-47137  21.092  13.562   0.255
74878ION    CL-47138  43.078  35.037   2.730
74879ION    CL-47139  29.205   1.478   3.947
74880ION    CL-47140  43.913  25.171   3.729
74881ION    CL-47141  15.216  32.077  14.260
74882ION    CL-47142  36.946   1.691  14.885
74883ION    CL-47143  10.953   7.597   4.505
74884ION    CL-47144  27.170  20.971  11.502
74885ION    CL-47145   7.380  41.086  14.417
74886ION    CL-47146  15.341   0.728   5.107
74887ION    CL-47147  17.245  36.924  13.564
74888ION    CL-47148  20.542  33.805  14.000
74889ION    CL-47149   0.678  38.010   9.810
74890ION    CL-47150  19.932   5.775  10.220
74891ION    CL-47151  29.236   2.539  14.325
74892ION    CL-47152  11.915   3.870  12.488
74893ION    CL-47153  35.888  41.315  14.760
74894ION    CL-47154  24.557  17.549  10.691
74895ION    CL-47155  27.464  17.120   0.956
74896ION    CL-47156  28.670   3.144   1.000
74897ION    CL-47157  43.167  43.040   1.164
74898ION    CL-47158  42.152  26.852   1.000
74899ION    CL-47159  27.222   2.195  11.572
74900ION    CL-47160  36.815  29.689   0.773
74901ION    CL-47161  43.911  27.111  12.255
74902ION    CL-47162  25.709  21.587   2.195
74903ION    CL-47163  19.548   9.919   5.023
74904ION    CL-47164  18.163   6.689   1.392
74905ION    CL-47165  14.496  26.653  12.114
74906ION    CL-47166   5.251  16.884   0.466
74907ION    CL-47167  17.166  27.547  12.172
74908ION    CL-47168  30.565  35.886   4.072
74909ION    CL-47169  32.376  34.639   0.245
74910ION    CL-47170  10.634  42.367  10.684
74911ION    CL-47171  44.406  24.803   2.214
74912ION    CL-47172  29.140   3.234   2.231
74913ION    CL-47173  17.879   5.133   0.368
74914ION    CL-47174  21.795   3.233  12.956
74915ION    CL-47175  16.716  38.683   4.995
74916ION    CL-47176   1.605   2.928   2.476
74917ION    CL-47177  43.044  26.231   0.664
74918ION    CL-47178  24.807  12.838  12.091
74919ION    CL-47179   0.930  24.921  12.060
74920ION    CL-47180   2.777   9.123  12.499
74921ION    CL-47181  36.081  12.801  10.904
74922ION    CL-47182  31.906  17.158   1.475
74923ION    CL-47183  37.347  31.882  14.228
74924ION    CL-47184  35.163  40.887  10.413
74925ION    CL-47185  44.750  10.617  11.179
74926ION    CL-47186  14.320  28.556   2.780
74927ION    CL-47187   7.410  38.525  12.523
74928ION    CL-47188  28.195  12.765  13.207
74929ION    CL-47189   9.439  21.088  14.964
74930ION    CL-47190  19.513  41.548  12.834
74931ION    CL-47191  13.417  25.655  14.892
74932ION    CL-47192  34.125  31.356  11.060
74933ION    CL-47193  33.482  40.381   3.901
74934ION    CL-47194  14.669   3.471  13.874
74935ION    CL-47195  16.745  27.599  13.512
74936ION    CL-47196   4.684   8.238  10.690
74937ION    CL-47197  31.593  31.819   3.774
74938ION    CL-47198   9.093  34.078  10.794
74939ION    CL-47199  23.762  10.749  14.308
74940ION    CL-47200  36.645  19.549   9.916
74941ION    CL-47201  17.308  10.189   5.116
74942ION    CL-47202  29.670  19.709   4.056
74943ION    CL-47203   0.465  21.026  13.280
74944ION    CL-47204  27.108  28.933  12.126
74945ION    CL-47205  14.555  12.047   2.207
74946ION    CL-47206  11.044  44.387  14.584
74947ION    CL-47207  17.652  21.077  12.072
74948ION    CL-47208   7.998   2.499  11.384
74949ION    CL-47209  36.624  42.388   0.540
74950ION    CL-47210  25.228  19.537   1.444
74951ION    CL-47211  35.761   5.942   3.013
74952ION    CL-47212  28.665  14.532  10.007
74953ION    CL-47213  21.065   3.283  14.808
74954ION    CL-47214  33.826   9.550  14.357
74955ION    CL-47215  38.822  38.542  12.549
74956ION    CL-47216  39.232   5.782  14.530
74957ION    CL-47217  26.725  40.336   1.356
74958ION    CL-47218  14.166  38.045   3.610
74959ION    CL-47219   4.325  32.140  10.387
74960ION    CL-47220  26.490  18.837   2.685
74961ION    CL-47221  38.705  15.789   9.987
74962ION    CL-47222  19.357  34.321   0.825
74963ION    CL-47223  30.726  17.713   0.151
74964ION    CL-47224  16.061   5.376  13.592
74965ION    CL-47225   2.279   1.264  14.240
74966ION    CL-47226  11.909  10.071   2.760
74967ION    CL-47227  35.331  13.188  12.070
74968ION    CL-47228  40.888   2.060   1.407
74969ION    CL-47229   5.816   4.600  13.375
74970ION    CL-47230   2.052  19.938   0.090
74971ION    CL-47231  11.236   3.546  10.036
74972ION    CL-47232  13.243  40.138  13.061
74973ION    CL-47233  33.974  39.103   3.666
74974ION    CL-47234  17.988  17.413  12.498
74975ION    CL-47235   5.228  41.611  11.267
74976ION    CL-47236  26.151  39.116   1.733
74977ION    CL-47237  23.774  20.087   4.156
74978ION    CL-47238  14.759   8.943   4.347
74979ION    CL-47239  15.295  33.417   2.171
74980ION    CL-47240   2.849  25.557   1.240
74981ION    CL-47241  21.027   6.754   2.653
74982ION    CL-47242  12.364  22.945   4.251
74983ION    CL-47243  10.205  44.404   2.439
74984ION    CL-47244  13.108   9.506   0.631
74985ION    CL-47245  33.391  34.438   3.695
74986ION    CL-47246  15.262  15.519  11.040
74987ION    CL-47247  32.822  23.590   2.812
74988ION    CL-47248  31.515  28.488   0.822
74989ION    CL-47249   4.792  29.274   1.302
74990ION    CL-47250  18.455   0.734  14.172
74991ION    CL-47251  13.738  44.858  13.512
74992ION    CL-47252  37.226  20.818  11.305
74993ION    CL-47253  10.526  32.611   1.173
74994ION    CL-47254   3.576  19.784   2.293
74995ION    CL-47255  23.120  37.221   0.847
74996ION    CL-47256   8.704   0.588   4.797
74997ION    CL-47257  20.977   7.853  14.836
74998ION    CL-47258  19.194  14.038  13.837
74999ION    CL-47259  23.022  24.823   2.781
75000ION    CL-47260  41.501   4.665   2.226
75001ION    CL-47261  35.176   2.359   3.553
75002ION    CL-47262  30.815  15.502  11.930
75003ION    CL-47263  36.168  25.751  12.758
75004ION    CL-47264   6.930  17.224   2.155
75005ION    CL-47265  31.087  43.297   2.835
75006ION    CL-47266  34.898  20.579   0.967
75007ION    CL-47267   5.891  37.525  14.970
75008ION    CL-47268   9.068  15.117   3.352
75009ION    CL-47269  23.419  21.779   2.980
75010ION    CL-47270   5.912  16.808   3.571
75011ION    CL-47271  33.494  29.951   2.275
75012ION    CL-47272  41.054  43.441   3.062
75013ION    CL-47273  39.571  16.645   2.185
75014ION    CL-47274  11.895   9.772  11.147
75015ION    CL-47275  39.544   2.877  14.270
75016ION    CL-47276  21.079  34.794  13.706
75017ION    CL-47277  34.358  10.558  14.271
75018ION    CL-47278  29.126  34.462   0.029
75019ION    CL-47279  33.201  35.479  14.113
75020ION    CL-47280  38.490  26.043  14.467
75021ION    CL-47281  29.815   8.910  12.391
75022ION    CL-47282  10.468  41.982   2.822
75023ION    CL-47283  16.225   9.772  14.557
75024ION    CL-47284  30.379  14.311   1.033
75025ION    CL-47285   9.165  35.176  12.439
75026ION    CL-47286   6.039   5.419  13.740
75027ION    CL-47287  12.370  43.446  12.439
75028ION    CL-47288  17.245  18.629  12.368
75029ION    CL-47289  23.720  16.731   0.037
75030ION    CL-47290  29.150  39.456   3.142
75031ION    CL-47291  22.911  14.997   2.783
75032ION    CL-47292  16.737  43.544  13.057
75033ION    CL-47293  26.902  24.695  13.276
75034ION    CL-47294  43.364   7.366  11.640
75035ION    CL-47295  23.035  19.760  13.612
75036ION    CL-47296  20.051  27.024   0.360
75037ION    CL-47297  19.307  27.319   1.307
75038ION    CL-47298  11.897  19.750   1.368
75039ION    CL-47299  27.318  26.266   4.182
75040ION    CL-47300  20.523  43.233   4.598
75041ION    CL-47301  20.270  42.897  13.823
75042ION    CL-47302  24.972   8.465   2.418
75043ION    CL-47303  38.824  18.098   4.127
75044ION    CL-47304  24.812  23.784  13.911
75045ION    CL-47305  14.615  21.254   1.220
75046ION    CL-47306  43.539  19.251  10.369
75047ION    CL-47307  26.983  20.793  12.881
75048ION    CL-47308  30.022  23.679  12.362
75049ION    CL-47309  38.981  13.133   3.824
75050ION    CL-47310  13.101  27.036  12.451
75051ION    CL-47311  40.506  25.773  11.568
75052ION    CL-47312  32.054  21.548  13.754
75053ION    CL-47313  41.254  32.771   2.716
75054ION    CL-47314   1.264   0.246   4.121
75055ION    CL-47315  37.899  41.279   4.607
75056ION    CL-47316  25.547  31.364  11.321
75057ION    CL-47317   4.528  44.948   3.925
75058ION    CL-47318  43.986   7.954   0.287
75059ION    CL-47319  35.037  44.380   2.144
75060ION    CL-47320   9.627  33.459   4.951
75061ION    CL-47321  19.783   9.883  11.276
75062ION    CL-47322  35.811  31.973  14.250
75063ION    CL-47323  10.301  28.715  13.159
75064ION    CL-47324  41.065  10.063  10.752
75065ION    CL-47325  41.574  35.557   4.997
75066ION    CL-47326  18.870  25.121  10.690
75067ION    CL-47327  37.822   9.277   1.777
75068ION    CL-47328  11.006  29.075   5.580
75069ION    CL-47329   2.163  22.891  13.660
75070ION    CL-47330  21.429  24.451   2.130
75071ION    CL-47331  43.443  10.801   4.330
75072ION    CL-47332  37.859  19.534  13.897
75073ION    CL-47333  33.836  16.132  14.401
75074ION    CL-47334  15.643  21.119   0.212
75075ION    CL-47335  32.947  21.651   4.366
75076ION    CL-47336  10.516  29.442   3.620
75077ION    CL-47337  35.400   8.577  12.049
75078ION    CL-47338  25.571  44.057  14.299
75079ION    CL-47339   5.695  31.825   2.157
75080ION    CL-47340  16.867  29.341   3.901
75081ION    CL-47341  12.605  31.247   5.054
75082ION    CL-47342  22.950  20.567   3.262
75083ION    CL-47343  37.661  37.083  13.552
75084ION    CL-47344  29.518   5.178  14.870
75085ION    CL-47345  15.956  31.520   3.045
75086ION    CL-47346  42.636   6.832   2.369
75087ION    CL-47347  19.436   8.478   2.891
75088ION    CL-47348  10.498  17.493   4.937
75089ION    CL-47349   1.149  32.315   2.090
75090ION    CL-47350  36.981  14.412   2.304
75091ION    CL-47351  13.834  18.152  13.869
75092ION    CL-47352  18.724  39.928  12.764
75093ION    CL-47353  40.132  15.556  13.935
75094ION    CL-47354  14.851  10.722  10.629
75095ION    CL-47355  26.398  31.857  12.492
75096ION    CL-47356  16.887  28.389  14.484
75097ION    CL-47357  31.670  25.767  14.472
75098ION    CL-47358  33.987  41.618   4.194
75099ION    CL-47359  19.103  40.544   1.241
75100ION    CL-47360  38.845  25.234  14.937
75101ION    CL-47361  33.667  15.740   2.662
75102ION    CL-47362  10.604  17.935  11.051
75103ION    CL-47363  28.734  26.139  10.438
75104ION    CL-47364  10.004   7.160  11.072
75105ION    CL-47365  34.681  17.507   0.932
75106ION    CL-47366   0.856  44.844   2.802
75107ION    CL-47367   4.013  13.291  13.644
75108ION    CL-47368  20.125   4.650  10.737
75109ION    CL-47369  25.088  24.612  11.781
75110ION    CL-47370  24.921  38.046   5.010
75111ION    CL-47371   9.680  24.765   1.875
75112ION    CL-47372  28.174  25.568   4.114
75113ION    CL-47373  21.280  37.094  11.976
75114ION    CL-47374  14.296  17.310  10.799
75115ION    CL-47375  34.883  31.611   3.665
75116ION    CL-47376  44.464   4.937  13.986
75117ION    CL-47377  15.755  30.895   3.677
75118ION    CL-47378  39.509   7.176  12.388
75119ION    CL-47379  18.979  13.404   3.205
75120ION    CL-47380  11.212  15.084   3.019
75121ION    CL-47381  25.467  39.918  14.706
75122ION    CL-47382  42.356  17.401   1.407
75123ION    CL-47383   3.704  12.457  11.162
75124ION    CL-47384  19.816  16.536   4.492
75125ION    CL-47385  27.233  42.406  11.431
75126ION    CL-47386   6.845  15.089  14.632
75127ION    CL-47387  12.752  41.490   3.540
75128ION    CL-47388  12.614  18.622   4.143
75129ION    CL-47389  26.156  18.833   4.800
75130ION    CL-47390  12.879  19.468  12.927
75131ION    CL-47391  24.016  33.068   2.354
75132ION    CL-47392  36.841   4.195   3.413
75133ION    CL-47393  14.944  16.377   9.981
75134ION    CL-47394   4.966   6.210  14.375
75135ION    CL-47395  20.587  29.034  13.505
75136ION    CL-47396  41.344   4.340   0.219
75137ION    CL-47397  33.602  11.827   3.163
75138ION    CL-47398  12.241  37.430  12.851
75139ION    CL-47399  28.653  13.608   1.231
75140ION    CL-47400  38.340  41.760  12.098
75141ION    CL-47401  22.439  21.074  10.612
75142ION    CL-47402   1.511  43.421   0.175
75143ION    CL-47403  12.881   8.736   0.501
75144ION    CL-47404   1.717  33.174   3.426
75145ION    CL-47405  21.992  13.143   3.355
75146ION    CL-47406  31.693  12.370  13.329
75147ION    CL-47407  21.765  14.289   4.366
75148ION    CL-47408  12.404  14.541   1.237
75149ION    CL-47409   0.503  16.435  12.034
75150ION    CL-47410  31.316   4.632   2.528
75151ION    CL-47411  18.638  30.297   9.798
75152ION    CL-47412  28.652  44.328  10.754
75153ION    CL-47413  34.552  15.757   2.835
75154ION    CL-47414  21.490  42.650  10.714
75155ION    CL-47415  17.194   5.852  10.733
75156ION    CL-47416   7.486   3.514  13.536
75157ION    CL-47417  37.791  13.104  10.635
75158ION    CL-47418   3.882  42.603   0.075
75159ION    CL-47419  27.197  41.807  13.929
75160ION    CL-47420  29.105  24.533   1.779
75161ION    CL-47421  26.616   7.353  11.640
75162ION    CL-47422  18.964  38.507   3.628
75163ION    CL-47423  22.184   9.701  14.366
75164ION    CL-47424   3.719  34.040   3.621
75165ION    CL-47425  21.613  36.471   0.664
75166ION    CL-47426  23.532  28.490  12.399
75167ION    CL-47427  39.852  21.324  14.370
75168ION    CL-47428  41.424  36.616  13.322
75169ION    CL-47429  13.044   6.826   2.175
75170ION    CL-47430  28.798  37.539  12.839
75171ION    CL-47431  17.257  24.557   4.953
75172ION    CL-47432  44.956  37.393  11.447
75173ION    CL-47433   1.310  34.086   3.376
75174ION    CL-47434  22.671   6.768   2.357
75175ION    CL-47435  24.184  23.682  11.193
75176ION    CL-47436  29.655  32.318  11.176
75177ION    CL-47437  35.924  10.733   0.605
75178ION    CL-47438  32.129  28.805  14.643
75179ION    CL-47439  17.702  25.790  10.595
75180ION    CL-47440  29.034  42.863   4.057
75181ION    CL-47441  34.039  41.936   1.843
75182ION    CL-47442   0.436  17.787  14.782
75183ION    CL-47443  33.152  12.749   4.638
75184ION    CL-47444   2.964   0.663  11.095
75185ION    CL-47445  34.884  25.229  14.022
75186ION    CL-47446   7.616  10.808  12.395
75187ION    CL-47447  33.800   1.538   3.499
75188ION    CL-47448  27.088  41.919   1.910
75189ION    CL-47449   3.745   0.249  12.885
75190ION    CL-47450  39.523   8.275  11.881
75191ION    CL-47451  34.958  34.112  14.979
75192ION    CL-47452  29.799  23.847   2.767
75193ION    CL-47453  14.266   9.681  13.766
75194ION    CL-47454  37.890  40.175   3.328
75195ION    CL-47455   9.093  34.949   1.361
75196ION    CL-47456  15.330  26.736  11.115
75197ION    CL-47457  36.896  32.799  11.620
75198ION    CL-47458  35.384  11.098  13.378
75199ION    CL-47459  29.006   9.392  12.728
75200ION    CL-47460  36.995  22.633   1.209
75201ION    CL-47461  28.133   3.421   3.532
75202ION    CL-47462   3.767   6.757  12.764
75203ION    CL-47463  24.233  39.203   1.762
75204ION    CL-47464  14.114  25.963  14.072
75205ION    CL-47465  28.941   1.965  12.040
75206ION    CL-47466  10.413  32.092  12.422
75207ION    CL-47467  28.089  37.975  10.040
75208ION    CL-47468   3.270  19.984   5.093
75209ION    CL-47469  19.366  29.706   2.068
75210ION    CL-47470  35.969  28.186  13.873
75211ION    CL-47471  27.567  21.522   1.789
75212ION    CL-47472  32.936   0.736  11.576
75213ION    CL-47473  10.381  29.368   1.418
75214ION    CL-47474  34.406   9.002  11.563
75215ION    CL-47475   0.119  26.127   3.125
75216ION    CL-47476  18.982  44.293  11.097
75217ION    CL-47477  22.056  43.929   3.306
75218ION    CL-47478  27.222  11.060  12.116
75219ION    CL-47479  14.199  13.469   3.665
75220ION    CL-47480  43.292  38.856   0.902
75221ION    CL-47481   0.594   5.307  12.870
75222ION    CL-47482   0.382  22.338   4.798
75223ION    CL-47483  29.898  12.699   3.613
75224ION    CL-47484  37.044  27.678  12.170
75225ION    CL-47485  29.486  27.219   5.070
75226ION    CL-47486  33.096  16.701   2.794
75227ION    CL-47487   5.993  23.041   4.023
75228ION    CL-47488  25.949  24.052  13.834
75229ION    CL-47489  20.620  18.721  10.336
75230ION    CL-47490   1.458  32.371   0.087
75231ION    CL-47491   5.522  29.520  12.328
75232ION    CL-47492   7.250  30.171   4.444
75233ION    CL-47493   4.942  11.379  12.683
75234ION    CL-47494  41.241   2.259  14.743
75235ION    CL-47495  35.645  17.620   4.143
75236ION    CL-47496  16.824   5.546   0.866
75237ION    CL-47497  21.257   9.184   4.906
75238ION    CL-47498   7.336   5.455   4.899
75239ION    CL-47499  17.894  33.062   3.989
75240ION    CL-47500  44.663   2.090  13.261
75241ION    CL-47501   6.647  15.904   2.878
75242ION    CL-47502   3.372  24.237  11.369
75243ION    CL-47503  19.341  43.011   2.778
75244ION    CL-47504  38.678   4.103   2.570
75245ION    CL-47505  15.145  21.985  14.793
75246ION    CL-47506   2.698  34.543   3.928
75247ION    CL-47507  34.912   5.049  12.258
75248ION    CL-47508  41.978   7.919  10.720
75249ION    CL-47509   1.607   6.878   1.638
75250ION    CL-47510  41.130  13.264  13.328
75251ION    CL-47511  13.561  31.858  10.537
75252ION    CL-47512  20.646   9.237   0.783
75253ION    CL-47513  33.522  32.311  11.432
75254ION    CL-47514  39.846   8.673  14.743
75255ION    CL-47515   9.231  34.837  14.934
75256ION    CL-47516   6.767   3.395   1.873
75257ION    CL-47517   2.559  27.315  12.712
75258ION    CL-47518  15.388  21.447  13.309
75259ION    CL-47519   2.776  14.880   1.411
75260ION    CL-47520  19.560  14.575  10.713
75261ION    CL-47521  34.130  28.207   4.136
75262ION    CL-47522  43.513  23.300  12.251
75263ION    CL-47523  35.448   9.110  14.772
75264ION    CL-47524  25.051   9.611   3.618
75265ION    CL-47525  14.713  32.128   4.908
75266ION    CL-47526   0.937  18.075  11.108
75267ION    CL-47527   2.211   5.002   2.089
75268ION    CL-47528  27.054  22.548  10.690
75269ION    CL-47529  15.046  13.313   0.934
75270ION    CL-47530  20.993   9.739  14.747
75271ION    CL-47531  26.654  35.145  14.376
75272ION    CL-47532  41.560   5.826   4.603
75273ION    CL-47533  24.305  38.385   1.409
75274ION    CL-47534  34.360  14.180   1.694
75275ION    CL-47535  41.931  21.787  11.053
75276ION    CL-47536  26.333   6.274   2.437
75277ION    CL-47537  30.162  42.767  12.498
75278ION    CL-47538  19.199   1.790  11.499
75279ION    CL-47539  26.319  35.556  13.581
75280ION    CL-47540  32.858   2.254   1.929
75281ION    CL-47541  14.899  24.414  14.958
75282ION    CL-47542  12.242  16.552  10.135
75283ION    CL-47543  23.303  25.782   2.805
75284ION    CL-47544   6.137   4.672  11.999
75285ION    CL-47545  21.896  26.911   0.925
75286ION    CL-47546  31.435  28.214   1.850
75287ION    CL-47547  33.438  24.728   3.263
75288ION    CL-47548  23.756  32.952   0.422
75289ION    CL-47549  42.894  44.507  12.408
75290ION    CL-47550   3.171  37.183  13.721
75291ION    CL-47551   8.418  22.508   2.379
75292ION    CL-47552   8.236  28.178   3.824
75293ION    CL-47553  43.793  16.944  11.147
75294ION    CL-47554   5.754   1.750  11.415
75295ION    CL-47555   6.489   6.170  13.644
75296ION    CL-47556  34.219  33.896   4.255
75297ION    CL-47557  44.647  12.439   1.056
75298ION    CL-47558  12.541  35.220  12.367
75299ION    CL-47559  23.921  14.538   3.204
75300ION    CL-47560   6.084  11.398  13.876
75301ION    CL-47561  13.501  27.487  11.496
75302ION    CL-47562  38.991   7.751   2.771
75303ION    CL-47563  33.158  38.871  12.340
75304ION    CL-47564  18.614  31.714   1.239
75305ION    CL-47565  33.588  31.772   3.173
75306ION    CL-47566  40.023  13.134  14.660
75307ION    CL-47567  12.280   7.956   1.493
75308ION    CL-47568  22.061  35.690   3.649
75309ION    CL-47569  35.706  39.263   1.962
75310ION    CL-47570  27.864   5.717  10.559
75311ION    CL-47571   3.948   9.709  14.529
75312ION    CL-47572  12.627   3.843   1.258
75313ION    CL-47573  29.258  14.364  12.305
75314ION    CL-47574  34.444  26.031  11.560
75315ION    CL-47575  35.185  38.535   0.833
75316ION    CL-47576  22.724  44.864  11.540
75317ION    CL-47577  15.028  36.341   2.429
75318ION    CL-47578  43.455  18.928   4.991
75319ION    CL-47579   6.546   2.558   5.127
75320ION    CL-47580  43.081  22.292  14.971
75321ION    CL-47581  29.688  18.538  14.169
75322ION    CL-47582  14.621  11.929  10.404
75323ION    CL-47583   0.156  37.284   5.031
75324ION    CL-47584   6.877  43.676  12.086
75325ION    CL-47585  41.855   8.182  13.275
75326ION    CL-47586   7.364   1.693  14.653
75327ION    CL-47587  42.074  32.114  13.557
75328ION    CL-47588  24.676   0.390  13.454
75329ION    CL-47589  13.098  16.893   9.745
75330ION    CL-47590  42.402  11.456  12.634
75331ION    CL-47591  26.058  37.838   0.484
75332ION    CL-47592  39.424  21.479  12.801
75333ION    CL-47593   4.368  25.697  12.113
75334ION    CL-47594  22.005  12.800  14.842
75335ION    CL-47595   3.957  28.382  10.752
75336ION    CL-47596  34.500  38.326  13.447
75337ION    CL-47597  10.133  39.926   2.196
75338ION    CL-47598  20.652  36.404  13.857
75339ION    CL-47599  16.888  38.966  12.749
75340ION    CL-47600   7.348  23.686   0.874
75341ION    CL-47601   7.980  15.630   3.151
75342ION    CL-47602  14.665  25.136  14.186
75343ION    CL-47603  35.838  16.378   2.186
75344ION    CL-47604   9.275  21.025   2.380
75345ION    CL-47605  18.919   3.345  14.004
75346ION    CL-47606  29.750   1.612  12.221
75347ION    CL-47607   7.657  15.603  13.635
75348ION    CL-47608  35.004   9.534  13.867
75349ION    CL-47609  13.907  16.724  10.087
75350ION    CL-47610  24.826   8.957   4.081
75351ION    CL-47611  35.638  33.084  12.039
75352ION    CL-47612  27.812  11.454  14.761
75353ION    CL-47613  44.287  17.916   4.025
75354ION    CL-47614  21.948  22.057   4.557
75355ION    CL-47615  26.367  22.034  14.834
75356ION    CL-47616  27.863  14.929  12.810
75357ION    CL-47617  27.961  24.719  10.588
75358ION    CL-47618  35.584  25.828   0.600
75359ION    CL-47619  43.708  12.754   3.194
75360ION    CL-47620  26.751  12.026   2.619
75361ION    CL-47621  41.975  39.441  11.639
75362ION    CL-47622  38.111  20.484   2.591
75363ION    CL-47623  13.960   9.887   0.991
75364ION    CL-47624  10.668   0.926   1.407
75365ION    CL-47625  30.373   8.657   3.384
75366ION    CL-47626  28.681  32.681  13.602
75367ION    CL-47627  33.343   7.138   4.065
75368ION    CL-47628  17.467  43.492  12.298
75369ION    CL-47629  40.721   5.703   3.697
75370ION    CL-47630  17.689  15.465  11.183
75371ION    CL-47631  23.312  39.090  10.691
75372ION    CL-47632   6.184  14.790  14.084
75373ION    CL-47633  23.041  39.503  11.560
75374ION    CL-47634  24.065   6.109   3.667
75375ION    CL-47635  23.016   8.979  11.748
75376ION    CL-47636  25.552  36.403   0.430
75377ION    CL-47637  14.560  42.998  10.748
75378ION    CL-47638  24.511  19.039   2.740
75379ION    CL-47639  28.658  31.997   1.371
75380ION    CL-47640  19.655  41.152   3.164
75381ION    CL-47641  18.166  31.081  12.901
75382ION    CL-47642  21.750  43.376   0.808
75383ION    CL-47643   1.232   6.040  12.035
75384ION    CL-47644  25.296  20.020  12.110
75385ION    CL-47645  30.751  22.120   3.645
75386ION    CL-47646  14.342  44.453   4.190
75387ION    CL-47647  37.604  26.219   0.361
75388ION    CL-47648  21.956  43.887  13.419
75389ION    CL-47649   9.052  32.985   0.515
75390ION    CL-47650  31.121   9.645  11.465
75391ION    CL-47651  12.897  17.457  12.224
75392ION    CL-47652   8.779   3.696   1.251
75393ION    CL-47653  24.739  35.198  11.572
75394ION    CL-47654  28.951  14.814   2.867
75395ION    CL-47655   8.545   8.130  11.143
75396ION    CL-47656  25.638  27.463  10.939
75397ION    CL-47657  43.210   0.862   0.609
75398ION    CL-47658  21.960  22.596  11.054
75399ION    CL-47659   0.880  30.077   3.895
75400ION    CL-47660  26.723  27.360   0.903
75401ION    CL-47661  43.281  17.124  14.812
75402ION    CL-47662  17.442  13.874   2.258
75403ION    CL-47663  30.345   7.292   4.381
75404ION    CL-47664  17.528  33.545  10.365
75405ION    CL-47665  16.217   4.473   2.318
75406ION    CL-47666  41.866  21.281  13.993
75407ION    CL-47667  15.699  41.901  14.510
75408ION    CL-47668  11.693  18.999   0.197
75409ION    CL-47669   1.718  25.981  14.045
75410ION    CL-47670  41.435   5.214   0.752
75411ION    CL-47671   2.505  22.675  14.480
75412ION    CL-47672  10.928   4.463   1.116
75413ION    CL-47673   6.839  17.732  13.195
75414ION    CL-47674  32.519  10.300   3.714
75415ION    CL-47675  26.403  36.338   0.509
75416ION    CL-47676   0.875  19.405   0.780
75417ION    CL-47677  22.621  14.411   1.228
75418ION    CL-47678  10.270  38.276   1.243
75419ION    CL-47679  19.320  35.976  14.280
75420ION    CL-47680  33.160   3.610  10.049
75421ION    CL-47681  42.887  22.734  10.632
75422ION    CL-47682  18.156   4.127  12.980
75423ION    CL-47683  38.552  36.426  14.375
75424ION    CL-47684  28.250  38.635  14.409
75425ION    CL-47685  30.138  25.214  12.084
75426ION    CL-47686   1.028  29.714   2.336
75427ION    CL-47687   1.715  12.147  12.419
75428ION    CL-47688  11.968  20.516  13.472
75429ION    CL-47689  30.646   4.661   3.144
75430ION    CL-47690  40.320  37.060  10.825
75431ION    CL-47691  15.284  22.981   2.375
75432ION    CL-47692   6.954  14.995   2.597
75433ION    CL-47693  34.973  34.069  10.811
75434ION    CL-47694  36.330  16.771  14.375
75435ION    CL-47695  24.709   2.021  14.282
75436ION    CL-47696  25.978   2.867   3.643
75437ION    CL-47697  20.946  16.757   2.593
75438ION    CL-47698  26.478  26.928  12.826
75439ION    CL-47699  39.170  34.605  13.302
75440ION    CL-47700  22.388  38.682   0.878
75441ION    CL-47701   5.090  30.677   4.742
75442ION    CL-47702   8.474  40.414  11.739
75443ION    CL-47703  23.165   5.463  12.777
75444ION    CL-47704  26.036  13.323   1.432
75445ION    CL-47705  10.221  43.321   4.999
75446ION    CL-47706   9.338  23.735  10.797
75447ION    CL-47707  32.234  30.513   3.883
75448ION    CL-47708   8.520  12.911  14.130
75449ION    CL-47709   9.752  25.528  10.680
75450ION    CL-47710  23.516  34.149   4.017
75451ION    CL-47711  21.545  28.391   3.182
75452ION    CL-47712  23.725   2.123  14.428
75453ION    CL-47713  10.302  19.610   4.345
75454ION    CL-47714   8.466  37.084   1.931
75455ION    CL-47715  41.039  24.653   1.298
75456ION    CL-47716  43.174  19.459   4.374
75457ION    CL-47717  19.163   9.940   1.659
75458ION    CL-47718  39.195   5.186   1.759
75459ION    CL-47719  44.702  19.092   4.512
75460ION    CL-47720  34.062  22.762   0.278
75461ION    CL-47721  36.366   5.666   1.649
75462ION    CL-47722   3.150  32.619  10.705
75463ION    CL-47723  31.849  31.670  10.036
75464ION    CL-47724  42.461  17.709   9.966
75465ION    CL-47725  17.322  38.470   2.724
75466ION    CL-47726  42.868  13.463   4.264
75467ION    CL-47727  10.892  37.330  12.228
75468ION    CL-47728  24.729  23.059   1.912
75469ION    CL-47729  44.109  32.320  13.973
75470ION    CL-47730   5.354  11.367  14.883
75471ION    CL-47731  27.553  10.660  14.112
75472ION    CL-47732   2.796   9.177  14.742
75473ION    CL-47733   6.282  41.259   0.794
75474ION    CL-47734  36.601  12.643  13.860
75475ION    CL-47735  21.647  29.145  14.924
75476ION    CL-47736  43.630  15.015   3.321
75477ION    CL-47737  16.109  15.663  12.593
75478ION    CL-47738  26.653  33.641   1.832
75479ION    CL-47739   7.124   0.477   4.006
75480ION    CL-47740  42.592  20.719   0.218
75481ION    CL-47741  10.912  37.530   1.419
75482ION    CL-47742   7.285  16.627  10.334
75483ION    CL-47743  21.008   4.291   0.144
75484ION    CL-47744  17.981  31.671  11.190
75485ION    CL-47745  14.165  19.996  10.633
75486ION    CL-47746  44.052  19.023  14.860
75487ION    CL-47747   2.843   9.932  10.428
75488ION    CL-47748  32.041  18.449   0.725
75489ION    CL-47749  17.794   9.738   3.044
75490ION    CL-47750  36.838  39.650   1.711
75491ION    CL-47751  19.005  33.687  13.134
75492ION    CL-47752  43.035  28.812   2.486
75493ION    CL-47753  17.234  41.483  14.287
75494ION    CL-47754  12.053  16.094   0.986
75495ION    CL-47755  15.712  34.395   2.196
75496ION    CL-47756   5.784  15.442   2.618
75497ION    CL-47757   5.618  22.365   2.182
75498ION    CL-47758  25.746  15.802  12.873
75499ION    CL-47759  42.778  26.391  12.055
75500ION    CL-47760  26.509  39.231  12.536
75501ION    CL-47761  15.426   2.807   4.343
75502ION    CL-47762  19.604  41.427  11.796
75503ION    CL-47763  23.973   2.028  13.610
75504ION    CL-47764  30.952   3.510  13.374
75505ION    CL-47765  44.751   8.412   2.880
75506ION    CL-47766  27.494  36.989  14.113
75507ION    CL-47767   6.311  38.599   1.486
75508ION    CL-47768  39.586   8.912  12.650
75509ION    CL-47769  21.778   7.096  10.501
75510ION    CL-47770  32.196  17.513   0.286
75511ION    CL-47771  44.037  13.424  13.335
75512ION    CL-47772  33.423   6.245   4.648
75513ION    CL-47773  15.627  27.948   3.567
75514ION    CL-47774   2.655  14.847   3.510
75515ION    CL-47775  20.373  35.251  11.210
75516ION    CL-47776   1.435  43.635   1.486
75517ION    CL-47777  14.487   9.271   1.017
75518ION    CL-47778  40.924  21.139   4.083
75519ION    CL-47779  35.383  32.871   2.768
75520ION    CL-47780   3.678  21.611   3.423
75521ION    CL-47781   8.190  13.450  11.039
75522ION    CL-47782  18.836  23.169  13.020
75523ION    CL-47783   8.899  23.943   2.416
75524ION    CL-47784  32.429  41.025  12.093
75525ION    CL-47785  37.034   7.183   0.908
75526ION    CL-47786  31.119  12.689  14.920
75527ION    CL-47787   2.519  33.302   1.098
75528ION    CL-47788   0.067  41.984  14.889
75529ION    CL-47789   4.513   5.326   0.254
75530ION    CL-47790  40.094  29.582   1.845
75531ION    CL-47791  34.491   8.106  14.697
75532ION    CL-47792  28.268  23.973   3.855
75533ION    CL-47793   1.398  30.440  12.891
75534ION    CL-47794  41.269  13.730  14.880
75535ION    CL-47795  43.265  23.979  11.678
75536ION    CL-47796  19.763  29.169   9.661
75537ION    CL-47797   8.368  11.893   0.435
75538ION    CL-47798  19.412  25.819  11.205
75539ION    CL-47799  33.179  21.387   3.430
75540ION    CL-47800  43.350   5.074  10.548
75541ION    CL-47801  30.106  27.644   3.224
75542ION    CL-47802  36.818  43.461  11.371
75543ION    CL-47803   3.446  27.663  11.359
75544ION    CL-47804  29.220   9.375  14.789
75545ION    CL-47805  25.544  42.523   5.490
75546ION    CL-47806   9.334  29.615   2.437
75547ION    CL-47807  18.625  35.429   1.435
75548ION    CL-47808   4.909  25.285   1.847
75549ION    CL-47809  35.713  32.070   0.137
75550ION    CL-47810  13.971  22.708  13.389
75551ION    CL-47811  42.916  22.197   3.494
75552ION    CL-47812  38.828  43.196   1.555
75553ION    CL-47813  14.750  26.051  10.302
75554ION    CL-47814  17.654  34.461  11.542
75555ION    CL-47815  18.064  19.791  11.547
75556ION    CL-47816  35.324  27.846  14.557
75557ION    CL-47817  21.696   7.755  12.932
75558ION    CL-47818  28.551  10.809  11.413
75559ION    CL-47819  13.709  36.840   2.132
75560ION    CL-47820  42.104   7.718  14.032
75561ION    CL-47821   3.376  44.961   4.656
75562ION    CL-47822  23.401  42.645  13.394
75563ION    CL-47823  10.624  34.577  14.733
75564ION    CL-47824   4.560  24.899  14.659
75565ION    CL-47825  40.005  31.169  14.034
75566ION    CL-47826  42.433   5.307  10.873
75567ION    CL-47827  23.211  35.634  14.306
75568ION    CL-47828  30.110  16.584  13.787
75569ION    CL-47829  39.131  11.135   4.943
75570ION    CL-47830  21.372  29.978   0.452
75571ION    CL-47831  21.115  19.297   0.832
75572ION    CL-47832  27.299  12.598  13.618
75573ION    CL-47833  14.151  21.478  14.654
75574ION    CL-47834   8.731  28.749   1.828
75575ION    CL-47835   5.298  39.802  14.158
75576ION    CL-47836  24.246  38.047   5.093
75577ION    CL-47837  27.286  31.259   2.475
75578ION    CL-47838  41.303   0.740  12.885
75579ION    CL-47839  19.450  34.933  10.939
75580ION    CL-47840   1.059  11.624   2.317
75581ION    CL-47841  11.822  31.660   1.700
75582ION    CL-47842  32.652  20.959  11.210
75583ION    CL-47843   5.491   9.827  11.580
75584ION    CL-47844  34.177  16.170   0.340
75585ION    CL-47845  39.628  25.614  13.742
75586ION    CL-47846  21.743  42.784  14.798
75587ION    CL-47847  41.986  42.055   2.293
75588ION    CL-47848   6.541  44.584   1.647
75589ION    CL-47849  20.467  11.782   4.907
75590ION    CL-47850  26.714   8.938   2.911
75591ION    CL-47851  28.091  20.700   2.858
75592ION    CL-47852  11.713  30.264  12.917
75593ION    CL-47853  12.641  42.274  12.148
75594ION    CL-47854  24.490  39.917  14.996
75595ION    CL-47855  28.902   4.075   0.574
75596ION    CL-47856   6.764  38.297  11.504
75597ION    CL-47857  11.316  19.082   3.925
75598ION    CL-47858  10.299  28.080  14.959
75599ION    CL-47859  28.170  24.729   1.484
75600ION    CL-47860  12.783   6.601  12.890
75601ION    CL-47861  32.368  29.987  13.299
75602ION    CL-47862  32.717  27.014   3.468
75603ION    CL-47863  20.730  16.321  12.056
75604ION    CL-47864   2.278  44.754  11.487
75605ION    CL-47865  21.407   6.073   3.279
75606ION    CL-47866   7.864  22.836  13.776
75607ION    CL-47867   7.284   5.122   0.180
75608ION    CL-47868  41.504  35.781  13.866
75609ION    CL-47869  43.454  30.193  13.595
75610ION    CL-47870  21.783  34.477   3.616
75611ION    CL-47871  21.867   6.358  14.682
75612ION    CL-47872   1.793  17.260   3.712
75613ION    CL-47873  25.686  13.810  14.101
75614ION    CL-47874  40.841   3.470   0.318
75615ION    CL-47875  21.266  35.259  11.130
75616ION    CL-47876   8.920   5.753  12.401
75617ION    CL-47877  28.741  20.841   4.604
75618ION    CL-47878  14.104  31.834  12.103
75619ION    CL-47879  43.998  31.484  14.201
75620ION    CL-47880  27.656  34.135   3.883
75621ION    CL-47881  10.202  12.359  12.900
75622ION    CL-47882  21.132  43.728   2.975
75623ION    CL-47883  17.190  22.556   2.547
75624ION    CL-47884  30.702  17.269   0.914
75625ION    CL-47885  42.223   7.680  14.934
75626ION    CL-47886  34.832  10.802   4.069
75627ION    CL-47887  31.124  19.511   5.256
75628ION    CL-47888  11.658   7.687  13.183
75629ION    CL-47889  36.583  25.072   4.825
75630ION    CL-47890  36.346  37.034  11.357
75631ION    CL-47891  22.583   7.407   1.592
75632ION    CL-47892  19.460  44.251   1.542
75633ION    CL-47893   9.529  44.443  10.704
75634ION    CL-47894  28.971  37.927   3.114
75635ION    CL-47895  28.606  33.800  11.648
75636ION    CL-47896  37.968   7.457  11.530
75637ION    CL-47897  32.851   6.387  12.001
75638ION    CL-47898  33.926  13.812   0.863
75639ION    CL-47899  22.849  38.474   4.873
75640ION    CL-47900  30.084  10.176  11.093
75641ION    CL-47901  17.381  36.671   4.946
75642ION    CL-47902  43.305  12.167  13.928
75643ION    CL-47903  25.671  23.322  11.115
75644ION    CL-47904   0.047  13.585   4.208
75645ION    CL-47905  38.585  23.996   3.837
75646ION    CL-47906  38.267   6.649   2.867
75647ION    CL-47907  27.481  39.796   1.940
75648ION    CL-47908  40.911  22.628   3.101
75649ION    CL-47909  41.717  27.960  11.918
75650ION    CL-47910  19.250  39.042   2.833
75651ION    CL-47911  21.587  38.865  14.473
75652ION    CL-47912  27.696  13.855  12.564
75653ION    CL-47913  21.844  27.821   1.029
75654ION    CL-47914  22.695   3.099  10.719
75655ION    CL-47915  38.715  37.492   0.890
75656ION    CL-47916  23.551  39.913   9.600
75657ION    CL-47917  10.771  19.750   0.622
75658ION    CL-47918  34.217  17.164   3.292
75659ION    CL-47919   8.814  19.306  12.961
75660ION    CL-47920   5.890  38.701   0.326
75661ION    CL-47921  41.197  11.654  14.480
75662ION    CL-47922   2.256  43.193  14.502
75663ION    CL-47923  21.938   0.261   3.083
75664ION    CL-47924   5.030   5.119  10.491
75665ION    CL-47925  21.213  16.281   0.987
75666ION    CL-47926  17.049  32.646   1.214
75667ION    CL-47927  37.408  20.651   1.378
75668ION    CL-47928  19.150  13.332  10.570
75669ION    CL-47929  20.338  24.255  10.357
75670ION    CL-47930  14.675  13.378   2.889
75671ION    CL-47931  13.735  23.012  10.654
75672ION    CL-47932  22.102  22.560   3.261
75673ION    CL-47933  17.600   0.453   2.690
75674ION    CL-47934  34.770  39.491  12.878
75675ION    CL-47935   6.438  30.885  14.671
75676ION    CL-47936  10.796  10.901   2.136
75677ION    CL-47937  36.080   0.906   2.393
75678ION    CL-47938  13.596  19.794   3.625
75679ION    CL-47939  32.655  26.167   3.658
75680ION    CL-47940   3.041   5.114  12.483
75681ION    CL-47941   3.669  31.792  14.909
75682ION    CL-47942   6.420  26.045   3.700
75683ION    CL-47943  17.496   2.351  12.885
75684ION    CL-47944   1.881  27.633   3.955
75685ION    CL-47945  41.000  23.782   1.787
75686ION    CL-47946  15.721  34.425  14.438
75687ION    CL-47947   1.081  29.454   1.372
75688ION    CL-47948  26.037   5.080  13.905
75689ION    CL-47949  27.932  30.232  10.250
75690ION    CL-47950  12.785   2.168  11.490
75691ION    CL-47951  12.802  41.309   2.557
75692ION    CL-47952  36.435  30.861  13.983
75693ION    CL-47953   1.975  23.258   0.847
75694ION    CL-47954  29.496  42.542  13.522
75695ION    CL-47955   2.037  12.510  14.859
75696ION    CL-47956  14.116  32.823  11.961
75697ION    CL-47957  31.570  32.667   3.246
75698ION    CL-47958  16.892  14.831  14.377
75699ION    CL-47959  23.975  41.536  14.216
75700ION    CL-47960   8.706  16.526   4.849
75701ION    CL-47961   2.332  19.088   2.867
75702ION    CL-47962  36.051  34.598  14.084
75703ION    CL-47963  22.360   0.005   4.959
75704ION    CL-47964  41.424  34.853  12.127
75705ION    CL-47965  17.525  17.799   1.058
75706ION    CL-47966  18.327  39.995   0.893
75707ION    CL-47967   3.525  31.861  11.238
75708ION    CL-47968  37.313  11.286  14.184
75709ION    CL-47969  29.207  36.740  11.519
75710ION    CL-47970  28.478  27.563   4.966
75711ION    CL-47971  43.604  15.644  13.606
75712ION    CL-47972   1.083  19.834  13.013
75713ION    CL-47973   7.521  29.142   2.463
75714ION    CL-47974  43.862  32.183   2.502
75715ION    CL-47975  22.651  40.964   0.928
75716ION    CL-47976   0.584   1.911  13.606
75717ION    CL-47977  14.059  31.556   0.984
75718ION    CL-47978  21.305   0.675  10.902
75719ION    CL-47979   0.160  29.091   1.230
75720ION    CL-47980  30.943  12.607  11.693
75721ION    CL-47981  30.971   1.619   4.349
75722ION    CL-47982  20.745  37.163  11.134
75723ION    CL-47983   6.710  10.762   3.957
75724ION    CL-47984  27.380  27.048  12.797
75725ION    CL-47985  30.584   9.866   0.824
75726ION    CL-47986  16.012  20.319   0.396
75727ION    CL-47987  10.875  38.258   4.444
75728ION    CL-47988  18.342  43.055  12.994
75729ION    CL-47989  41.699   0.670   2.778
75730ION    CL-47990  42.447  12.546   2.797
75731ION    CL-47991  30.332  27.883   2.279
75732ION    CL-47992  14.799   8.603   0.209
75733ION    CL-47993   8.414   7.764   1.438
75734ION    CL-47994  36.630  12.354   3.156
75735ION    CL-47995  14.900   9.763  14.535
75736ION    CL-47996  33.383  10.364  13.981
75737ION    CL-47997   3.724   4.838  14.778
75738ION    CL-47998  21.665  29.233   3.708
75739ION    CL-47999  22.036  31.132  11.902
75740ION    CL-48000  43.935  42.855   2.303
75741ION    CL-48001  13.617  40.284  11.280
75742ION    CL-48002  28.674  37.408  11.363
75743ION    CL-48003   3.043  25.300  11.551
75744ION    CL-48004  10.373  43.353  11.175
75745ION    CL-48005   3.816  24.130   2.440
75746ION    CL-48006  35.857  30.636   1.808
75747ION    CL-48007  41.557   0.994  14.321
75748ION    CL-48008  40.198  21.242   9.769
75749ION    CL-48009  25.692  23.636   4.160
75750ION    CL-48010  11.779  11.566   2.780
75751ION    CL-48011  33.558  35.124   0.978
75752ION    CL-48012  30.784   8.703  12.523
75753ION    CL-48013  36.426  24.595   0.846
75754ION    CL-48014  33.270   3.838   0.670
75755ION    CL-48015   4.544  40.985   3.858
75756ION    CL-48016  43.036  42.385  13.468
75757ION    CL-48017   9.444  26.987  13.253
75758ION    CL-48018  12.345  21.810   2.736
75759ION    CL-48019   1.033  26.617   4.908
75760ION    CL-48020   9.042  13.482  14.597
75761ION    CL-48021  30.597  43.250   4.413
75762ION    CL-48022  35.245  35.991  11.288
75763ION    CL-48023   2.449  26.424   3.207
75764ION    CL-48024  11.809  29.015  12.197
75765ION    CL-48025  14.315  35.248   4.143
75766ION    CL-48026   0.564  10.714  12.394
75767ION    CL-48027   9.306  32.600   3.945
75768ION    CL-48028  35.366  18.421   4.674
75769ION    CL-48029  40.512  28.808   2.628
75770ION    CL-48030   3.795   3.354  10.111
75771ION    CL-48031  42.572  39.005   2.948
75772ION    CL-48032  36.105  41.346   2.326
75773ION    CL-48033   2.541  37.713   1.960
75774ION    CL-48034   9.004  17.867   4.251
75775ION    CL-48035  35.341  25.445  11.583
75776ION    CL-48036  34.790  23.627   4.810
75777ION    CL-48037  27.619  37.686  12.068
75778ION    CL-48038  41.327   7.092   2.085
75779ION    CL-48039  41.405  27.726  14.077
75780ION    CL-48040   3.922  26.220   0.527
75781ION    CL-48041  12.096  32.057  11.590
75782ION    CL-48042  22.282  29.591   0.798
75783ION    CL-48043  15.350  10.915   2.309
75784ION    CL-48044  40.867  35.902   0.499
75785ION    CL-48045  24.300   5.715  14.758
75786ION    CL-48046  26.339   0.792   0.293
75787ION    CL-48047   4.347  27.760  12.340
75788ION    CL-48048  22.319  40.085   4.346
75789ION    CL-48049  21.669  18.195   2.190
75790ION    CL-48050  18.247  32.132   4.275
75791ION    CL-48051  25.377  18.659   1.250
75792ION    CL-48052  42.150   1.416   2.122
75793ION    CL-48053  33.977  14.907  11.225
75794ION    CL-48054  43.189  19.214  12.732
75795ION    CL-48055  30.659  41.794   0.799
75796ION    CL-48056  41.615  36.040   4.121
75797ION    CL-48057  19.739   1.276   4.034
75798ION    CL-48058   6.692  12.163  12.079
75799ION    CL-48059  35.151  41.493  11.970
75800ION    CL-48060  38.527   8.450   1.103
75801ION    CL-48061   7.145  29.142  10.335
75802ION    CL-48062   9.919  43.837  14.781
75803ION    CL-48063  23.921  20.864  10.576
75804ION    CL-48064   6.984  40.365  12.767
75805ION    CL-48065  17.568  24.701  10.392
75806ION    CL-48066  43.063  18.647   4.576
75807ION    CL-48067  31.751  10.227   1.224
75808ION    CL-48068  32.991  13.584  13.583
75809ION    CL-48069  22.520   8.733   2.315
75810ION    CL-48070  42.205  27.830  10.864
75811ION    CL-48071  13.267  37.593  11.991
75812ION    CL-48072  35.633  10.217   4.199
75813ION    CL-48073  32.247  35.182  14.071
75814ION    CL-48074  16.527  11.413  11.715
75815ION    CL-48075  29.170   6.296   0.379
75816ION    CL-48076  15.615  37.656  11.817
75817ION    CL-48077  13.257   7.789  10.399
75818ION    CL-48078  25.520   5.347  12.114
75819ION    CL-48079   5.866  16.486  11.253
75820ION    CL-48080  14.703  35.668  13.095
75821ION    CL-48081   7.394  33.850   1.357
75822ION    CL-48082  31.385  28.496  13.943
75823ION    CL-48083  33.162  44.161   0.838
75824ION    CL-48084  16.327  21.866  14.783
75825ION    CL-48085  41.622  43.363  11.571
75826ION    CL-48086  20.792  38.750   4.218
75827ION    CL-48087  39.318  25.132   5.046
75828ION    CL-48088  26.700  30.680   4.669
75829ION    CL-48089  25.788  16.574   1.311
75830ION    CL-48090   4.999   1.684   0.873
75831ION    CL-48091  14.545  23.736  11.596
75832ION    CL-48092  32.284  36.636  12.932
75833ION    CL-48093  28.069  29.334   4.166
75834ION    CL-48094  39.881  36.400   3.715
75835ION    CL-48095  24.669   0.469   1.117
75836ION    CL-48096  39.694  17.332   0.494
75837ION    CL-48097   3.286  14.859   4.232
75838ION    CL-48098  41.379  19.155   4.187
75839ION    CL-48099  31.965  15.165   3.908
75840ION    CL-48100  31.010  44.075   2.563
75841ION    CL-48101   2.539   3.083   3.988
75842ION    CL-48102  29.473  24.133  13.063
75843ION    CL-48103  27.040   6.888   2.789
75844ION    CL-48104  15.157  42.522   0.450
75845ION    CL-48105  15.142  29.976   9.719
75846ION    CL-48106   1.939  19.827   1.572
75847ION    CL-48107  19.924   2.339  11.915
75848ION    CL-48108  30.035  31.168   3.837
75849ION    CL-48109  19.452   6.565  10.187
75850ION    CL-48110  28.517   8.688  14.974
75851ION    CL-48111   4.747  14.463  14.499
75852ION    CL-48112  28.451  16.328  13.845
75853ION    CL-48113  20.074  29.014   3.022
75854ION    CL-48114  11.556  10.085  12.385
75855ION    CL-48115  18.136   9.222   4.215
75856ION    CL-48116  25.488  18.524   2.633
75857ION    CL-48117   9.081   7.047   3.219
75858ION    CL-48118  29.154  43.438  10.614
75859ION    CL-48119  42.902   6.676  11.081
75860ION    CL-48120  14.687  19.955   2.496
75861ION    CL-48121  35.669  23.985  12.455
75862ION    CL-48122  37.566   4.988   5.116
75863ION    CL-48123   9.432  10.763   1.055
75864ION    CL-48124  31.438  38.555   2.366
75865ION    CL-48125   6.938   1.201  11.786
75866ION    CL-48126   2.732  16.714  11.032
75867ION    CL-48127  19.023  42.748  13.418
75868ION    CL-48128  39.209  42.836   0.854
75869ION    CL-48129  31.837  32.864  13.090
75870ION    CL-48130  37.112  26.061  12.650
75871ION    CL-48131   4.491  35.569  12.949
75872ION    CL-48132  43.262  30.852  14.442
75873ION    CL-48133   2.568   8.257  10.353
75874ION    CL-48134  27.903  44.101   1.360
75875ION    CL-48135   9.843  37.813  14.319
75876ION    CL-48136   9.185  11.909   2.287
75877ION    CL-48137  44.996  11.393  12.929
75878ION    CL-48138  38.842  14.341  14.794
75879ION    CL-48139  20.146  44.069  13.035
75880ION    CL-48140  29.072  12.492   3.903
75881ION    CL-48141  16.472  12.386  14.451
75882ION    CL-48142  10.620  18.948  13.496
75883ION    CL-48143  13.090  20.438  12.314
75884ION    CL-48144  34.806  39.907  11.571
75885ION    CL-48145  16.129  32.528   0.841
75886ION    CL-48146  17.337  11.874  14.979
75887ION    CL-48147   4.667  19.389  14.627
75888ION    CL-48148   0.156  19.786  14.005
75889ION    CL-48149  28.002   4.017   4.214
75890ION    CL-48150  18.124  23.147   0.295
75891ION    CL-48151  37.921  26.750  13.812
75892ION    CL-48152   0.754  25.004   0.214
75893ION    CL-48153  14.985   3.203   3.339
75894ION    CL-48154   9.344  26.431  13.954
75895ION    CL-48155   9.184   8.216  14.752
75896ION    CL-48156   5.825  33.652   0.251
75897ION    CL-48157  10.312  36.761   3.017
75898ION    CL-48158  22.429  24.009   3.648
75899ION    CL-48159  38.501  37.747   0.044
75900ION    CL-48160  13.814  39.257  12.201
75901ION    CL-48161  33.310  20.856   1.123
75902ION    CL-48162  16.377   4.075  11.702
75903ION    CL-48163  41.410  12.597   2.081
75904ION    CL-48164  17.617   1.271   1.900
75905ION    CL-48165  25.132  17.220  14.779
75906ION    CL-48166  33.872  19.163   3.362
75907ION    CL-48167  17.637   8.748   1.627
75908ION    CL-48168  37.144  17.130  12.187
75909ION    CL-48169   5.562  26.261  13.025
75910ION    CL-48170   6.764  44.513  14.902
75911ION    CL-48171  13.145   0.783  14.403
75912ION    CL-48172  42.475  42.597   4.030
75913ION    CL-48173  22.564  16.872   0.963
75914ION    CL-48174  43.372  14.013  14.935
75915ION    CL-48175  40.881  33.598   2.777
75916ION    CL-48176  24.255  40.933  12.244
75917ION    CL-48177  43.016   4.413  12.577
75918ION    CL-48178  14.003  15.169   5.330
75919ION    CL-48179  11.822  26.224   0.692
75920ION    CL-48180  10.590  41.482   0.239
75921ION    CL-48181  22.541  25.031  14.047
75922ION    CL-48182  21.353   9.003  14.174
75923ION    CL-48183   2.934  30.837   2.213
75924ION    CL-48184  18.374  19.941   4.663
75925ION    CL-48185  42.696  29.757  13.466
75926ION    CL-48186  20.056  34.895  14.293
75927ION    CL-48187  33.102  24.265  13.861
75928ION    CL-48188  25.946   9.055   1.337
75929ION    CL-48189  26.778  13.119  11.930
75930ION    CL-48190  41.506   6.318   1.735
75931ION    CL-48191  35.219  41.769   2.811
75932ION    CL-48192  36.535  21.999  11.900
75933ION    CL-48193  10.385   4.484   0.277
75934ION    CL-48194  33.035  38.281   1.923
75935ION    CL-48195  16.283  11.391  12.946
75936ION    CL-48196  19.329  14.679   2.041
75937ION    CL-48197  19.047   2.838   3.065
75938ION    CL-48198  10.344  15.839   4.933
75939ION    CL-48199  11.660  43.245   1.838
75940ION    CL-48200  12.600  35.607  13.287
75941ION    CL-48201  39.700   4.848   0.336
75942ION    CL-48202  21.001  38.149  11.106
75943ION    CL-48203  29.646  21.014   1.278
75944ION    CL-48204  13.418  22.133  11.467
75945ION    CL-48205  43.414  11.638  11.929
75946ION    CL-48206  44.225  12.094   1.974
75947ION    CL-48207  17.736  12.522  14.282
75948ION    CL-48208  30.610  17.499   4.663
75949ION    CL-48209  29.658  26.596  13.978
75950ION    CL-48210   5.368  31.926  11.975
75951ION    CL-48211  17.170  33.443  12.540
75952ION    CL-48212  25.598  41.237  14.078
75953ION    CL-48213  11.813   6.819  13.045
75954ION    CL-48214  23.102  44.407  13.680
75955ION    CL-48215  21.820  21.453   2.806
75956ION    CL-48216  27.789  13.850   1.115
75957ION    CL-48217  30.678  41.463  13.012
75958ION    CL-48218  30.146  13.891  12.611
75959ION    CL-48219  43.023  18.858  11.036
75960ION    CL-48220  27.965  37.936   1.327
75961ION    CL-48221   5.582   9.010   1.717
75962ION    CL-48222  39.511  41.516  13.002
75963ION    CL-48223  31.881  14.277  14.187
75964ION    CL-48224  25.078  31.786   4.076
75965ION    CL-48225  44.241  25.097  13.565
75966ION    CL-48226  15.477  13.072   2.581
75967ION    CL-48227  18.751   9.278  14.476
75968ION    CL-48228  37.850  28.121   2.185
75969ION    CL-48229   2.305  24.164  12.576
75970ION    CL-48230   1.861   9.136  13.873
75971ION    CL-48231  16.761   2.786  12.565
75972ION    CL-48232  16.079  42.755  11.549
75973ION    CL-48233   7.999  18.101  14.635
75974ION    CL-48234   5.993  29.067   5.436
75975ION    CL-48235  41.340  42.502   1.375
75976ION    CL-48236  20.129  28.852  11.457
75977ION    CL-48237   6.117  21.061  13.547
75978ION    CL-48238  12.138  31.953  13.337
75979ION    CL-48239  13.063  16.180  10.386
75980ION    CL-48240  30.155  19.243  14.911
75981ION    CL-48241  32.059   4.453   4.195
75982ION    CL-48242  12.509  22.104  11.428
75983ION    CL-48243  21.951  28.993  14.160
75984ION    CL-48244   6.868  26.148  13.850
75985ION    CL-48245   8.430  38.113   3.674
75986ION    CL-48246   2.450   0.932   2.616
75987ION    CL-48247  15.458  22.735   0.376
75988ION    CL-48248  15.714  26.575   0.851
75989ION    CL-48249  43.302  26.305  14.135
75990ION    CL-48250  27.487   4.392   2.341
75991ION    CL-48251   5.631  44.226   4.165
75992ION    CL-48252  43.731  42.368  14.261
75993ION    CL-48253  21.785   2.645  14.686
75994ION    CL-48254   9.701  33.656   0.051
75995ION    CL-48255  21.451  28.534  10.600
75996ION    CL-48256  13.362  15.857   3.418
75997ION    CL-48257  23.776  36.894   2.804
75998ION    CL-48258  17.834  42.569   3.804
75999ION    CL-48259  20.446  28.229   5.036
76000ION    CL-48260   3.873  18.476   4.326
76001ION    CL-48261   1.900  12.720   0.827
76002ION    CL-48262  16.996  10.054   2.882
76003ION    CL-48263  39.105   6.993   3.414
76004ION    CL-48264   0.627  41.668   0.939
76005ION    CL-48265  23.176  44.302   0.169
76006ION    CL-48266   5.509  19.507  12.909
76007ION    CL-48267  38.937  44.606   2.434
76008ION    CL-48268   1.985  20.810   1.750
76009ION    CL-48269   8.777  22.200   3.553
76010ION    CL-48270  24.516  25.461  11.461
76011ION    CL-48271  22.012  18.515   5.097
76012ION    CL-48272  15.573  29.832   3.007
76013ION    CL-48273  11.990  34.489  13.408
76014ION    CL-48274  27.213  23.576  10.127
76015ION    CL-48275   9.098  36.430   0.010
76016ION    CL-48276   7.795  24.126   5.066
76017ION    CL-48277   6.231  10.253  12.538
76018ION    CL-48278  32.437  33.981  11.339
76019ION    CL-48279  42.739  26.496   3.765
76020ION    CL-48280   5.925  15.270  11.465
76021ION    CL-48281   3.162  44.738  12.382
76022ION    CL-48282  22.799  17.585  12.963
76023ION    CL-48283  12.100  39.444  12.919
76024ION    CL-48284  30.910  13.585  14.527
76025ION    CL-48285  44.232  25.684   0.723
76026ION    CL-48286   0.143  12.022   2.364
76027ION    CL-48287  32.381  41.320   4.187
76028ION    CL-48288  14.038   1.820  13.969
76029ION    CL-48289  36.059  11.343  12.505
76030ION    CL-48290  28.385  34.747  11.463
76031ION    CL-48291  27.141  35.554  13.776
76032ION    CL-48292  33.352  26.072   2.410
76033ION    CL-48293  42.421  41.969   5.024
76034ION    CL-48294  41.149   6.949   0.052
76035ION    CL-48295  43.528  30.997  11.673
76036ION    CL-48296   2.808  20.452   2.213
76037ION    CL-48297   2.392   6.177  13.846
76038ION    CL-48298  22.458  35.560   2.863
76039ION    CL-48299  28.849  36.860   1.877
76040ION    CL-48300  15.098  43.655   4.656
76041ION    CL-48301  19.621   4.163   1.626
76042ION    CL-48302   9.337  42.134   1.917
76043ION    CL-48303  15.809   5.715  12.650
76044ION    CL-48304   9.883   2.029  10.835
76045ION    CL-48305   3.000  33.484   0.235
76046ION    CL-48306  36.170  34.738  12.410
76047ION    CL-48307  18.306  14.678  11.210
76048ION    CL-48308   5.440   0.622   5.048
76049ION    CL-48309  12.477   4.052   2.651
76050ION    CL-48310  23.252  22.924   0.825
76051ION    CL-48311  25.935  19.544  12.722
76052ION    CL-48312  13.328  31.101  12.541
76053ION    CL-48313  37.796  42.744  12.005
76054ION    CL-48314  17.060  24.396   0.237
76055ION    CL-48315  42.643  22.185   2.623
76056ION    CL-48316  10.178  41.879  11.680
76057ION    CL-48317  33.149  34.544   2.125
76058ION    CL-48318  28.461  41.905   2.426
76059ION    CL-48319   3.241   2.251  12.617
76060ION    CL-48320  24.815   5.496   2.742
76061ION    CL-48321  14.800  11.178  14.770
76062ION    CL-48322   3.490  15.601   4.870
76063ION    CL-48323  29.189  30.068   2.690
76064ION    CL-48324  33.673  29.066   0.277
76065ION    CL-48325   5.940  18.172   1.251
76066ION    CL-48326  31.845  22.155   3.459
76067ION    CL-48327   3.781  33.411  12.940
76068ION    CL-48328  24.513   0.162  11.978
76069ION    CL-48329  15.389   0.616   2.312
76070ION    CL-48330   2.184   3.623  10.318
76071ION    CL-48331  43.229  22.194  13.948
76072ION    CL-48332  16.859  10.589   0.167
76073ION    CL-48333  27.414  10.204   1.583
76074ION    CL-48334  15.239  33.908   2.930
76075ION    CL-48335  37.802   6.680  10.923
76076ION    CL-48336   2.803  43.306   3.441
76077ION    CL-48337   2.997  18.204   4.725
76078ION    CL-48338  34.245  22.549   2.790
76079ION    CL-48339   1.450  27.282   4.786
76080ION    CL-48340   4.331   7.716   1.918
76081ION    CL-48341  12.863   9.009   1.463
76082ION    CL-48342  14.173  21.831  13.255
76083ION    CL-48343  41.639  13.912  14.060
76084ION    CL-48344   9.113  21.499   0.616
76085ION    CL-48345  24.246   3.915  13.954
76086ION    CL-48346   1.629   9.251   0.318
76087ION    CL-48347  19.426   1.494   3.068
76088ION    CL-48348  13.662  38.770  14.634
76089ION    CL-48349  34.592  23.246   3.717
76090ION    CL-48350  22.331  14.100   2.455
76091ION    CL-48351  33.359  28.535  13.005
76092ION    CL-48352  10.387  17.715   2.053
76093ION    CL-48353  38.182  24.719   3.276
76094ION    CL-48354  25.311  20.317  14.543
76095ION    CL-48355  14.848  34.442  11.916
76096ION    CL-48356  42.398   4.181   0.361
76097ION    CL-48357   0.952  21.222  11.592
76098ION    CL-48358  43.291  30.977   4.055
76099ION    CL-48359  29.904   9.079   4.030
76100ION    CL-48360  14.327  35.464  14.920
76101ION    CL-48361   8.447  39.994  14.321
76102ION    CL-48362   1.798  28.054  14.642
76103ION    CL-48363  11.824  16.833   2.213
76104ION    CL-48364  44.055  32.086  14.908
76105ION    CL-48365  21.193  24.008   4.163
76106ION    CL-48366  31.686  32.631   1.076
76107ION    CL-48367  27.963  26.792  13.595
76108ION    CL-48368  28.917  31.883   2.850
76109ION    CL-48369   7.779  37.951  11.005
76110ION    CL-48370  43.488  28.034  14.900
76111ION    CL-48371  39.965  18.255   0.222
76112ION    CL-48372  26.682  11.035   0.080
76113ION    CL-48373  25.026  11.292   1.936
76114ION    CL-48374  35.027  21.526  13.384
76115ION    CL-48375   6.393   9.849   0.455
76116ION    CL-48376  28.715   5.405  10.789
76117ION    CL-48377  34.367  35.520   1.164
76118ION    CL-48378  19.156  13.994   0.234
76119ION    CL-48379  27.387  35.489  10.600
76120ION    CL-48380  19.227  11.106   1.166
76121ION    CL-48381  28.359  34.624   0.873
76122ION    CL-48382  33.449  36.343   2.570
76123ION    CL-48383  10.921  38.636  13.014
76124ION    CL-48384   6.175  17.708   4.098
76125ION    CL-48385  30.106  28.530   0.873
76126ION    CL-48386  23.110  40.278  12.919
76127ION    CL-48387  31.770  39.733   1.463
76128ION    CL-48388  44.093  12.507  11.264
76129ION    CL-48389  25.246  15.761   2.839
76130ION    CL-48390  20.578  17.622   2.936
76131ION    CL-48391   3.998  21.504   1.142
76132ION    CL-48392  20.476  21.271  11.930
76133ION    CL-48393  28.522  26.023   1.557
76134ION    CL-48394   3.051  23.864   3.529
76135ION    CL-48395  35.861  39.869  13.894
76136ION    CL-48396  18.593  43.200   1.661
76137ION    CL-48397  22.733  39.937  14.099
76138ION    CL-48398   3.750   2.871   3.546
76139ION    CL-48399  15.271  43.442  12.541
76140ION    CL-48400  38.571  37.948  13.778
76141ION    CL-48401  35.948   1.726  14.842
76142ION    CL-48402   4.211   8.068   4.490
76143ION    CL-48403  23.563   1.274  14.093
76144ION    CL-48404  16.800  43.976   2.129
76145ION    CL-48405  25.238  22.550   2.969
76146ION    CL-48406  35.110  23.964   2.702
76147ION    CL-48407  44.903  44.613   3.416
76148ION    CL-48408  30.277   4.989  12.544
76149ION    CL-48409  39.387  22.394  14.698
76150ION    CL-48410  15.559  35.986   4.992
76151ION    CL-48411  16.759  43.103  14.018
76152ION    CL-48412  18.089  15.536  12.916
76153ION    CL-48413  42.331  30.604  14.826
76154ION    CL-48414  16.872  11.041  10.372
76155ION    CL-48415  37.463  26.487   2.690
76156ION    CL-48416  31.032  24.710   0.825
76157ION    CL-48417   2.159  41.390   2.195
76158ION    CL-48418  39.005   9.264   5.493
76159ION    CL-48419  14.387  27.007   3.752
76160ION    CL-48420  28.203  39.617  14.226
76161ION    CL-48421  34.909  11.786   2.994
76162ION    CL-48422  12.143  37.332  14.882
76163ION    CL-48423  33.960  12.121   1.670
76164ION    CL-48424  44.769   4.714   1.047
76165ION    CL-48425  36.962  41.121   0.554
76166ION    CL-48426  11.492  29.737   3.546
76167ION    CL-48427  34.931  26.674  10.920
76168ION    CL-48428  31.163  16.665   4.682
76169ION    CL-48429   6.783  13.214  12.464
76170ION    CL-48430  41.082   9.804  11.872
76171ION    CL-48431  10.755  37.558  11.264
76172ION    CL-48432  37.129  36.936  10.327
76173ION    CL-48433  14.811   4.580  12.760
76174ION    CL-48434  34.417  30.325   4.982
76175ION    CL-48435   3.734  28.135   4.116
76176ION    CL-48436   6.384   6.322  11.111
76177ION    CL-48437  25.580   5.179   1.556
76178ION    CL-48438  16.622  14.259   2.166
76179ION    CL-48439  10.835  19.997   2.426
76180ION    CL-48440  28.634  44.607   1.153
76181ION    CL-48441   3.690   8.768  11.509
76182ION    CL-48442  40.923   5.215   2.848
76183ION    CL-48443  25.489  32.993  13.978
76184ION    CL-48444  37.724  16.323  13.823
76185ION    CL-48445  26.487   5.305  12.377
76186ION    CL-48446  32.951   8.776  14.564
76187ION    CL-48447  21.008  12.937   3.164
76188ION    CL-48448   3.207  29.956   3.758
76189ION    CL-48449  19.312  19.643  10.899
76190ION    CL-48450  13.255  16.034  12.235
76191ION    CL-48451  26.934   9.844  11.182
76192ION    CL-48452   9.237  30.887  10.559
76193ION    CL-48453   2.414  36.262   0.182
76194ION    CL-48454  30.201  20.769   4.548
76195ION    CL-48455  12.784  39.400  10.664
76196ION    CL-48456  29.327  43.416  13.704
76197ION    CL-48457  22.918  29.495  10.572
76198ION    CL-48458   6.098  31.146   0.574
76199ION    CL-48459  26.993  18.500  11.555
76200ION    CL-48460  33.556  11.021   0.876
76201ION    CL-48461  14.043  15.032   4.438
76202ION    CL-48462  18.246  17.316   0.533
76203ION    CL-48463  28.559  29.505  13.791
76204ION    CL-48464   0.155  18.285   4.131
76205ION    CL-48465  27.619  33.824   0.440
76206ION    CL-48466  26.218  18.261  13.491
76207ION    CL-48467  18.561  43.065  11.473
76208ION    CL-48468  14.804  18.710  12.558
76209ION    CL-48469  22.421  20.131   0.805
76210ION    CL-48470   6.157   0.531   2.177
76211ION    CL-48471  18.192   0.702  13.333
76212ION    CL-48472   9.375   4.070  13.243
76213ION    CL-48473  39.007  25.066  11.378
76214ION    CL-48474  41.759  33.860  14.082
76215ION    CL-48475  11.020   1.612   3.101
76216ION    CL-48476   2.476  16.945  12.010
76217ION    CL-48477  15.711  40.034   1.389
76218ION    CL-48478  36.878   5.687  13.007
76219ION    CL-48479  23.994  25.059   2.809
76220ION    CL-48480  44.162   3.649  11.614
76221ION    CL-48481   0.898  15.235  12.417
76222ION    CL-48482  22.474  29.985   2.531
76223ION    CL-48483  40.732  29.324  14.645
76224ION    CL-48484   2.983  34.321   5.014
76225ION    CL-48485  14.023  28.553  10.295
76226ION    CL-48486  27.118  22.978  11.595
76227ION    CL-48487  19.800   5.532   4.481
76228ION    CL-48488   0.523  23.631   4.154
76229ION    CL-48489   1.257   4.670  13.522
76230ION    CL-48490  18.488  12.660   1.818
76231ION    CL-48491   5.335  28.495  10.156
76232ION    CL-48492  18.248  11.284   0.820
76233ION    CL-48493  11.645  12.075  12.237
76234ION    CL-48494   0.122  37.615   0.928
76235ION    CL-48495  17.084  30.747   9.548
76236ION    CL-48496  20.671   8.344   3.804
76237ION    CL-48497  26.762  14.393   1.147
76238ION    CL-48498  44.019  41.311   4.701
76239ION    CL-48499   2.571   3.018   2.131
76240ION    CL-48500   1.765  42.815   3.637
76241ION    CL-48501  29.794  19.522   9.852
76242ION    CL-48502  32.701  16.555   1.537
76243ION    CL-48503  11.906   7.867   9.944
76244ION    CL-48504  24.665  14.698   0.030
76245ION    CL-48505  27.888  38.830   4.913
76246ION    CL-48506  27.912  24.272  13.987
76247ION    CL-48507  35.758  26.960  10.857
76248ION    CL-48508   1.396  26.270   0.573
76249ION    CL-48509  36.657   5.877   2.466
76250ION    CL-48510  28.170  31.694   2.212
76251ION    CL-48511   9.619   3.502   1.759
76252ION    CL-48512  22.685  23.374   1.578
76253ION    CL-48513   3.332  17.694   4.017
76254ION    CL-48514  17.128  18.771   5.026
76255ION    CL-48515  42.302   6.334  12.351
76256ION    CL-48516  32.176  33.688  12.636
76257ION    CL-48517  17.144  11.908  13.640
76258ION    CL-48518  14.530  12.678  14.272
76259ION    CL-48519  20.473  28.339  10.367
76260ION    CL-48520  33.247  38.314   3.664
76261ION    CL-48521   2.096  32.882  14.692
76262ION    CL-48522  13.307  40.270   0.471
76263ION    CL-48523  41.902  22.555   2.063
76264ION    CL-48524  29.244  35.539  14.053
76265ION    CL-48525  19.012  13.325   1.476
76266ION    CL-48526  16.494  10.367  13.801
76267ION    CL-48527  27.204  44.032   3.790
76268ION    CL-48528  12.223  31.860   2.933
76269ION    CL-48529   9.468  17.017   4.003
76270ION    CL-48530  11.700  32.982   0.735
76271ION    CL-48531  12.781   5.601  13.048
76272ION    CL-48532  13.506  34.255  12.694
76273ION    CL-48533  18.223  39.469   1.628
76274ION    CL-48534  18.086  19.338   1.256
76275ION    CL-48535  34.024   7.090  12.536
76276ION    CL-48536  19.260  37.575   1.303
76277ION    CL-48537  31.902  38.849  11.933
76278ION    CL-48538   0.554   5.006   1.636
76279ION    CL-48539  13.579  20.166  11.426
76280ION    CL-48540  18.312  30.967  10.465
76281ION    CL-48541   0.068  27.928  12.528
76282ION    CL-48542  44.361  19.452   9.934
76283ION    CL-48543  39.678   3.928  12.546
76284ION    CL-48544  29.357  18.336  11.941
76285ION    CL-48545  27.577  37.418   1.970
76286ION    CL-48546  42.729   0.334   2.730
76287ION    CL-48547  10.417  21.888   0.726
76288ION    CL-48548   9.913   2.501  13.509
76289ION    CL-48549  23.729  17.766   0.297
76290ION    CL-48550  21.807  21.029  12.599
76291ION    CL-48551  15.462  17.660  11.524
76292ION    CL-48552  11.768   8.320  11.800
76293ION    CL-48553  39.844  14.806   0.428
76294ION    CL-48554  15.159  38.422  13.657
76295ION    CL-48555  24.278  16.364   4.828
76296ION    CL-48556  23.089  43.935   4.532
76297ION    CL-48557  34.129  18.484  13.081
76298ION    CL-48558  35.944  32.986   1.836
76299ION    CL-48559  42.432   2.927  12.770
76300ION    CL-48560   4.448   4.329   0.283
76301ION    CL-48561  34.558   8.062  11.883
76302ION    CL-48562  40.271  19.574   2.513
76303ION    CL-48563   5.671   9.366  13.373
76304ION    CL-48564  44.527  13.323  12.457
76305ION    CL-48565  11.156  29.675  11.590
76306ION    CL-48566  20.547  18.694   4.257
76307ION    CL-48567   4.307  31.529  14.186
76308ION    CL-48568  36.373  19.050  12.938
76309ION    CL-48569  34.369  18.405   0.622
76310ION    CL-48570  25.742  36.116  11.158
76311ION    CL-48571  29.730   7.466  11.771
76312ION    CL-48572  32.941   0.192   0.830
76313ION    CL-48573  17.305  30.595  14.267
76314ION    CL-48574  28.182  20.707  11.953
76315ION    CL-48575   7.811  27.928   0.676
76316ION    CL-48576  33.478  16.837  11.132
76317ION    CL-48577   7.987   9.774   1.350
76318ION    CL-48578  39.505  29.405   2.771
76319ION    CL-48579  10.432  19.621   3.324
76320ION    CL-48580  40.596   8.869  14.256
76321ION    CL-48581  25.791   9.981  12.641
76322ION    CL-48582  11.371   5.060   0.608
76323ION    CL-48583  19.672  23.552  11.250
76324ION    CL-48584   5.055  22.766   4.234
76325ION    CL-48585  39.934  44.351  13.059
76326ION    CL-48586  10.129  16.336   0.189
76327ION    CL-48587  39.014  22.995   3.227
76328ION    CL-48588  34.612  18.429   1.907
76329ION    CL-48589  39.392   7.588  11.103
76330ION    CL-48590  40.174  18.814   2.024
76331ION    CL-48591  28.946   1.295   2.112
76332ION    CL-48592  21.055   6.953   4.196
76333ION    CL-48593  15.675  15.515   1.268
76334ION    CL-48594  20.605  40.747  14.686
76335ION    CL-48595  17.198  39.605  11.653
76336ION    CL-48596  19.259  20.478  11.206
76337ION    CL-48597  41.832  33.591   3.376
76338ION    CL-48598  26.963   7.727   1.661
76339ION    CL-48599  41.298  33.804  11.992
76340ION    CL-48600   9.153   4.681   5.000
76341ION    CL-48601   2.151  24.279   3.687
76342ION    CL-48602  15.030  31.759   0.849
76343ION    CL-48603  30.576  35.797  13.492
76344ION    CL-48604  38.094  27.897   4.836
76345ION    CL-48605  17.749  23.426  14.411
76346ION    CL-48606  17.401  31.192   2.998
76347ION    CL-48607  21.376  21.806  14.264
76348ION    CL-48608  27.192   9.322   4.161
76349ION    CL-48609  40.561  39.941  14.018
76350ION    CL-48610  16.216   8.653   1.137
76351ION    CL-48611  15.521  33.134   0.532
76352ION    CL-48612   7.357   2.715   1.746
76353ION    CL-48613   2.575  28.994   2.722
76354ION    CL-48614   2.305  14.978  13.834
76355ION    CL-48615  13.966  34.931  12.284
76356ION    CL-48616  38.671  13.237  11.480
76357ION    CL-48617  41.678  18.335   1.769
76358ION    CL-48618   9.597   4.969  14.326
76359ION    CL-48619  28.635   6.793   4.523
76360ION    CL-48620   0.448  30.386  13.861
76361ION    CL-48621  10.332   7.648   0.320
76362ION    CL-48622   6.871  12.215   2.453
76363ION    CL-48623   6.888  12.193  14.182
76364ION    CL-48624  42.465  29.732  12.382
76365ION    CL-48625  37.398  26.594   1.605
76366ION    CL-48626  19.769  13.374   0.414
76367ION    CL-48627  25.554  25.247  12.245
76368ION    CL-48628  17.077   3.769   1.863
76369ION    CL-48629   1.921   8.854   1.580
76370ION    CL-48630  40.513  19.350   1.227
76371ION    CL-48631  32.507   0.987  14.832
76372ION    CL-48632   6.246  11.309  11.586
76373ION    CL-48633   7.670  29.189  13.753
76374ION    CL-48634   4.564  43.320   2.434
76375ION    CL-48635  16.315  35.052  13.003
76376ION    CL-48636  24.928  10.903  13.334
76377ION    CL-48637  42.692   9.052  14.437
76378ION    CL-48638  39.746  38.110  13.636
76379ION    CL-48639  40.332  36.990   4.922
76380ION    CL-48640  35.172   6.991   5.161
76381ION    CL-48641  25.006   3.508   5.083
76382ION    CL-48642  30.305  19.499   0.743
76383ION    CL-48643   4.114   5.798   2.301
76384ION    CL-48644   5.738   8.120   1.804
76385ION    CL-48645  38.032  14.039  11.471
76386ION    CL-48646  24.737  19.186  11.212
76387ION    CL-48647  19.121  25.061   0.755
76388ION    CL-48648  10.350   5.395  14.865
76389ION    CL-48649   0.734   9.226  11.530
76390ION    CL-48650  32.556  10.971  14.954
76391ION    CL-48651  32.712  32.049  14.934
76392ION    CL-48652  35.650  19.603   2.672
76393ION    CL-48653  13.311  17.322  10.623
76394ION    CL-48654  15.930   6.215  14.217
76395ION    CL-48655  28.813  19.820   2.246
76396ION    CL-48656  26.129  26.275   1.283
76397ION    CL-48657  20.475  12.293  14.446
76398ION    CL-48658  13.012  27.398   1.367
76399ION    CL-48659  43.107  27.908  11.028
76400ION    CL-48660  14.231  41.902  12.530
76401ION    CL-48661  37.078  28.767  13.511
76402ION    CL-48662  23.768  19.294  11.587
76403ION    CL-48663   8.392   8.175   4.072
76404ION    CL-48664  27.366  27.597   3.852
76405ION    CL-48665  37.537   7.223  12.401
76406ION    CL-48666  31.301  43.449   2.078
76407ION    CL-48667  18.206  18.238   1.976
76408ION    CL-48668  10.351  15.573   1.155
76409ION    CL-48669  24.310   9.247   3.497
76410ION    CL-48670  30.957  14.913   3.645
76411ION    CL-48671  34.260  38.145   3.656
76412ION    CL-48672  17.350  40.187  12.900
76413ION    CL-48673  17.875   2.554   1.961
76414ION    CL-48674  26.968   0.821   4.181
76415ION    CL-48675  34.538  13.825  11.945
  45.00000  45.00000  15.00000
